/*--------------------------------*- C++ -*----------------------------------*\
| =========                 |                                                 |
| \\      /  F ield         | OpenFOAM: The Open Source CFD Toolbox           |
|  \\    /   O peration     | Version:  2212                                  |
|   \\  /    A nd           | Website:  www.openfoam.com                      |
|    \\/     M anipulation  |                                                 |
\*---------------------------------------------------------------------------*/
FoamFile
{
    version     2.0;
    format      ascii;
    arch        "LSB;label=32;scalar=64";
    class       volScalarField;
    location    "0";
    object      T;
}
// * * * * * * * * * * * * * * * * * * * * * * * * * * * * * * * * * * * * * //

dimensions      [0 0 0 1 0 0 0];

internalField   nonuniform List<scalar> 
3200
(
324.279
323.689
323.5
323.434
323.731
324.222
324.605
324.986
325.3
325.612
325.886
325.746
325.573
325.234
324.878
324.538
324.259
324.156
324.354
324.935
321.113
320.609
320.468
320.427
320.694
321.085
321.41
321.754
322.018
322.286
322.527
322.386
322.253
321.958
321.649
321.357
321.135
321.03
321.201
321.681
317.927
317.502
317.395
317.369
317.597
317.902
318.184
318.475
318.712
318.921
319.11
318.999
318.878
318.645
318.379
318.113
317.954
317.868
318.011
318.405
314.704
314.372
314.27
314.282
314.447
314.698
314.932
315.145
315.359
315.509
315.665
315.571
315.495
315.3
315.078
314.845
314.75
314.669
314.772
315.093
311.453
311.213
311.121
311.169
311.251
311.457
311.66
311.805
311.981
312.057
312.21
312.149
312.11
311.936
311.753
311.58
311.513
311.418
311.503
311.764
308.203
308.049
307.947
308.012
308.04
308.211
308.352
308.47
308.556
308.616
308.745
308.681
308.685
308.551
308.411
308.296
308.249
308.164
308.232
308.421
304.935
304.83
304.77
304.823
304.828
304.946
305.032
305.107
305.152
305.183
305.264
305.216
305.235
305.137
305.068
304.984
304.971
304.911
304.949
305.043
301.659
301.621
301.596
301.603
301.616
301.655
301.688
301.716
301.721
301.735
301.768
301.746
301.761
301.725
301.703
301.664
301.668
301.656
301.654
301.683
324.425
323.872
323.483
323.534
323.812
324.339
324.694
325.135
325.578
326.038
326.22
326.056
325.81
325.535
325.014
324.683
324.338
324.12
324.471
324.845
321.277
320.798
320.468
320.496
320.731
321.194
321.481
321.868
322.244
322.664
322.807
322.675
322.444
322.211
321.764
321.494
321.198
320.985
321.306
321.626
318.078
317.692
317.407
317.422
317.615
317.999
318.234
318.561
318.915
319.237
319.375
319.24
319.066
318.842
318.494
318.259
318.002
317.83
318.109
318.371
314.824
314.525
314.307
314.298
314.454
314.774
314.977
315.214
315.547
315.77
315.888
315.767
315.64
315.473
315.198
314.977
314.764
314.623
314.864
315.083
311.548
311.31
311.165
311.158
311.282
311.525
311.687
311.879
312.136
312.276
312.373
312.286
312.18
312.065
311.847
311.696
311.496
311.416
311.572
311.749
308.278
308.084
307.998
307.996
308.083
308.259
308.371
308.534
308.699
308.796
308.839
308.783
308.713
308.603
308.478
308.364
308.214
308.178
308.264
308.384
304.974
304.845
304.799
304.816
304.858
304.972
305.023
305.127
305.244
305.288
305.309
305.286
305.236
305.176
305.115
305.04
304.951
304.913
304.968
305.022
301.667
301.629
301.6
301.62
301.624
301.671
301.676
301.723
301.757
301.761
301.766
301.771
301.757
301.733
301.727
301.69
301.662
301.648
301.661
301.675
324.656
324.099
323.782
323.808
324.024
324.568
325.062
325.624
326.019
326.561
326.587
326.579
326.23
325.886
325.337
324.872
324.51
324.405
324.634
325.036
321.47
321.003
320.721
320.758
320.914
321.379
321.804
322.303
322.658
323.098
323.125
323.132
322.824
322.513
322.045
321.649
321.362
321.245
321.458
321.763
318.234
317.869
317.618
317.674
317.766
318.16
318.532
318.936
319.262
319.589
319.619
319.649
319.403
319.129
318.725
318.381
318.155
318.037
318.207
318.463
314.979
314.688
314.474
314.511
314.579
314.924
315.219
315.529
315.837
316.056
316.086
316.111
315.941
315.706
315.405
315.09
314.904
314.83
314.946
315.139
311.71
311.469
311.282
311.299
311.359
311.655
311.869
312.12
312.341
312.489
312.534
312.535
312.449
312.254
312.032
311.786
311.616
311.589
311.666
311.815
308.389
308.205
308.061
308.077
308.148
308.371
308.509
308.66
308.829
308.937
308.961
308.958
308.916
308.758
308.638
308.425
308.312
308.32
308.352
308.456
305.038
304.932
304.85
304.845
304.916
305.06
305.135
305.222
305.307
305.372
305.382
305.381
305.368
305.255
305.216
305.062
304.997
305.014
305.018
305.081
301.678
301.662
301.633
301.628
301.646
301.693
301.723
301.752
301.78
301.8
301.791
301.8
301.796
301.758
301.749
301.689
301.676
301.677
301.675
301.71
325.035
324.412
324.014
324.155
324.389
324.875
325.459
326.059
326.64
326.911
327.078
327.14
326.809
326.331
325.703
325.203
324.948
324.738
324.879
325.409
321.791
321.283
320.948
321.035
321.236
321.642
322.153
322.67
323.174
323.384
323.551
323.606
323.325
322.915
322.355
321.918
321.722
321.509
321.639
322.124
318.521
318.098
317.805
317.874
318.055
318.38
318.805
319.256
319.679
319.839
319.98
320.038
319.793
319.452
318.986
318.6
318.472
318.257
318.38
318.784
315.234
314.87
314.614
314.679
314.828
315.079
315.434
315.812
316.14
316.275
316.392
316.441
316.233
315.962
315.591
315.257
315.175
314.984
315.105
315.391
311.891
311.615
311.388
311.46
311.558
311.756
312.042
312.333
312.565
312.684
312.776
312.816
312.655
312.441
312.173
311.881
311.84
311.692
311.789
311.983
308.522
308.311
308.135
308.196
308.267
308.42
308.62
308.829
308.988
309.086
309.128
309.167
309.056
308.906
308.714
308.479
308.47
308.372
308.432
308.598
305.125
304.994
304.881
304.92
304.989
305.054
305.18
305.295
305.413
305.464
305.48
305.518
305.449
305.37
305.238
305.083
305.09
305.031
305.076
305.17
301.722
301.672
301.643
301.657
301.676
301.695
301.733
301.783
301.826
301.844
301.831
301.849
301.826
301.803
301.752
301.691
301.697
301.696
301.7
301.736
325.405
324.922
324.666
324.713
324.842
325.318
325.889
326.643
327.304
327.459
327.558
327.723
327.33
326.854
326.272
325.605
325.368
325.12
325.377
325.768
322.119
321.705
321.49
321.531
321.629
322.057
322.524
323.181
323.756
323.857
323.94
324.094
323.758
323.373
322.842
322.267
322.101
321.882
322.087
322.412
318.801
318.447
318.285
318.284
318.394
318.761
319.146
319.661
320.149
320.218
320.32
320.423
320.137
319.845
319.394
318.909
318.775
318.598
318.774
319.038
315.435
315.176
315.025
315.002
315.111
315.4
315.747
316.129
316.506
316.568
316.674
316.723
316.479
316.257
315.911
315.501
315.405
315.25
315.39
315.616
312.023
311.826
311.741
311.701
311.783
312.015
312.289
312.575
312.874
312.895
313.009
313.02
312.837
312.654
312.399
312.09
312.025
311.898
311.995
312.157
308.592
308.478
308.433
308.366
308.439
308.613
308.809
309.022
309.213
309.249
309.311
309.321
309.18
309.032
308.879
308.641
308.619
308.529
308.594
308.701
305.183
305.108
305.088
305.015
305.064
305.182
305.309
305.44
305.537
305.567
305.612
305.612
305.515
305.417
305.337
305.178
305.174
305.13
305.172
305.233
301.738
301.712
301.703
301.68
301.686
301.734
301.786
301.83
301.858
301.864
301.89
301.877
301.844
301.819
301.8
301.741
301.738
301.717
301.743
301.763
325.888
325.439
325.305
325.28
325.336
325.952
326.561
327.209
327.828
328.144
328.257
328.237
327.894
327.385
326.832
326.202
325.839
325.712
325.901
326.166
322.54
322.168
322.046
322.031
322.034
322.579
323.108
323.681
324.21
324.488
324.576
324.532
324.256
323.813
323.337
322.799
322.475
322.392
322.566
322.779
319.136
318.877
318.751
318.724
318.696
319.185
319.609
320.096
320.557
320.8
320.848
320.794
320.579
320.223
319.786
319.349
319.096
319.032
319.172
319.35
315.709
315.517
315.419
315.396
315.347
315.744
316.106
316.497
316.874
317.067
317.098
317.041
316.869
316.583
316.233
315.886
315.676
315.634
315.718
315.878
312.252
312.135
312.027
312.009
311.967
312.274
312.579
312.87
313.134
313.327
313.331
313.285
313.141
312.909
312.65
312.397
312.237
312.2
312.261
312.395
308.762
308.714
308.617
308.603
308.565
308.789
309.012
309.221
309.374
309.564
309.554
309.517
309.388
309.228
309.041
308.867
308.786
308.74
308.777
308.88
305.284
305.239
305.188
305.166
305.161
305.28
305.431
305.542
305.631
305.759
305.733
305.714
305.625
305.54
305.444
305.323
305.283
305.27
305.292
305.338
301.773
301.761
301.739
301.73
301.735
301.778
301.812
301.859
301.885
301.935
301.918
301.918
301.875
301.859
301.826
301.78
301.769
301.772
301.781
301.792
326.497
326.036
325.894
325.795
325.989
326.537
327.095
327.824
328.403
328.713
328.938
328.846
328.635
328.063
327.432
326.842
326.342
326.298
326.352
326.587
323.056
322.677
322.56
322.485
322.631
323.101
323.569
324.201
324.703
324.964
325.143
325.082
324.911
324.405
323.85
323.346
322.903
322.897
322.949
323.129
319.59
319.256
319.17
319.106
319.214
319.639
320.011
320.538
320.979
321.179
321.329
321.278
321.141
320.733
320.245
319.798
319.424
319.45
319.485
319.663
316.081
315.815
315.762
315.689
315.775
316.11
316.445
316.86
317.221
317.378
317.501
317.462
317.341
317.021
316.594
316.24
315.921
315.967
315.994
316.143
312.527
312.331
312.303
312.255
312.311
312.545
312.84
313.147
313.427
313.545
313.639
313.619
313.504
313.283
312.917
312.653
312.398
312.44
312.453
312.616
308.982
308.826
308.824
308.802
308.803
308.957
309.194
309.4
309.609
309.7
309.761
309.767
309.652
309.518
309.257
309.06
308.866
308.918
308.909
309.05
305.393
305.315
305.312
305.308
305.306
305.379
305.549
305.661
305.757
305.835
305.888
305.873
305.793
305.717
305.575
305.453
305.343
305.372
305.369
305.45
301.805
301.786
301.777
301.791
301.788
301.807
301.869
301.895
301.929
301.964
301.975
301.964
301.941
301.921
301.878
301.829
301.791
301.804
301.806
301.832
327.161
326.687
326.48
326.558
326.836
327.34
327.729
328.447
328.997
329.403
329.577
329.573
329.211
328.662
328.103
327.429
326.928
326.805
326.842
327.13
323.638
323.243
323.068
323.145
323.368
323.801
324.135
324.73
325.226
325.578
325.703
325.721
325.42
324.919
324.464
323.881
323.429
323.334
323.36
323.567
320.083
319.755
319.623
319.67
319.846
320.211
320.511
320.996
321.424
321.706
321.827
321.827
321.594
321.168
320.786
320.295
319.879
319.818
319.83
320.003
316.491
316.2
316.124
316.163
316.279
316.586
316.872
317.217
317.571
317.814
317.93
317.907
317.703
317.368
317.061
316.648
316.304
316.279
316.281
316.42
312.875
312.636
312.598
312.617
312.706
312.912
313.179
313.419
313.705
313.867
313.986
313.966
313.783
313.555
313.302
312.963
312.729
312.691
312.702
312.813
309.224
309.067
309.058
309.021
309.119
309.231
309.452
309.607
309.81
309.916
310.001
310.011
309.859
309.709
309.525
309.298
309.115
309.094
309.094
309.187
305.538
305.472
305.477
305.433
305.485
305.537
305.684
305.764
305.906
305.948
306.027
306.036
305.928
305.842
305.72
305.606
305.469
305.474
305.469
305.509
301.863
301.832
301.831
301.825
301.845
301.858
301.903
301.932
301.981
301.993
302.027
302.03
301.993
301.96
301.918
301.879
301.829
301.84
301.834
301.854
327.956
327.548
327.254
327.384
327.583
327.939
328.485
329.037
329.643
329.967
330.311
330.203
329.797
329.227
328.819
328.05
327.633
327.304
327.413
327.719
324.331
324.021
323.74
323.872
324.011
324.333
324.772
325.267
325.783
326.052
326.345
326.265
325.898
325.409
325.079
324.4
324.053
323.782
323.878
324.123
320.67
320.409
320.177
320.306
320.402
320.662
321.052
321.45
321.89
322.108
322.331
322.271
321.977
321.552
321.316
320.708
320.433
320.208
320.28
320.48
316.966
316.768
316.584
316.682
316.742
316.962
317.283
317.607
317.96
318.152
318.307
318.25
318.031
317.684
317.516
316.988
316.785
316.586
316.648
316.816
313.228
313.099
312.952
312.993
313.049
313.226
313.493
313.739
313.998
314.167
314.274
314.242
314.058
313.771
313.66
313.243
313.093
312.898
312.976
313.146
309.461
309.372
309.284
309.293
309.344
309.482
309.671
309.84
310.01
310.137
310.219
310.21
310.052
309.829
309.764
309.478
309.378
309.212
309.295
309.428
305.687
305.627
305.607
305.58
305.613
305.725
305.825
305.899
306.025
306.099
306.136
306.143
306.035
305.883
305.872
305.702
305.637
305.538
305.576
305.675
301.908
301.886
301.885
301.876
301.891
301.93
301.961
301.975
302.026
302.043
302.055
302.059
302.018
301.98
301.966
301.911
301.89
301.854
301.868
301.904
328.731
328.319
328.007
328.196
328.275
328.597
329.159
329.681
330.302
330.7
330.989
330.817
330.538
329.779
329.255
328.623
328.257
327.914
328.149
328.248
325.01
324.676
324.398
324.572
324.62
324.889
325.362
325.814
326.376
326.69
326.95
326.785
326.557
325.904
325.477
324.919
324.57
324.297
324.536
324.594
321.243
320.991
320.769
320.874
320.899
321.155
321.511
321.927
322.408
322.659
322.854
322.747
322.541
321.989
321.648
321.194
320.856
320.643
320.87
320.898
317.422
317.254
317.069
317.137
317.141
317.394
317.643
318.01
318.389
318.591
318.741
318.644
318.474
318.059
317.761
317.409
317.112
316.95
317.135
317.158
313.555
313.468
313.327
313.38
313.344
313.601
313.737
314.049
314.323
314.519
314.615
314.518
314.399
314.086
313.845
313.572
313.346
313.239
313.374
313.387
309.683
309.662
309.572
309.559
309.525
309.758
309.819
310.074
310.256
310.417
310.446
310.38
310.321
310.082
309.919
309.722
309.541
309.466
309.582
309.605
305.818
305.826
305.788
305.747
305.701
305.876
305.9
306.053
306.166
306.278
306.283
306.233
306.211
306.059
305.967
305.835
305.715
305.696
305.764
305.775
301.941
301.954
301.946
301.929
301.909
301.969
301.981
302.02
302.065
302.112
302.11
302.097
302.094
302.026
302
301.949
301.912
301.917
301.942
301.939
329.55
329.139
328.841
328.761
328.95
329.379
329.969
330.48
331.035
331.4
331.598
331.414
331.014
330.255
329.813
329.256
328.847
328.557
328.735
328.885
325.736
325.381
325.113
325.06
325.198
325.567
326.082
326.547
327.005
327.307
327.496
327.331
326.991
326.312
325.946
325.483
325.119
324.859
325.026
325.149
321.855
321.558
321.345
321.284
321.417
321.709
322.17
322.544
322.922
323.172
323.327
323.218
322.922
322.327
322.026
321.658
321.339
321.11
321.266
321.348
317.928
317.696
317.525
317.469
317.584
317.807
318.201
318.52
318.802
319.051
319.12
319.047
318.8
318.327
318.065
317.797
317.525
317.33
317.452
317.533
313.994
313.796
313.661
313.65
313.711
313.868
314.209
314.417
314.68
314.862
314.897
314.829
314.654
314.3
314.075
313.893
313.669
313.527
313.629
313.671
310.031
309.872
309.776
309.771
309.817
309.907
310.151
310.305
310.525
310.618
310.667
310.616
310.491
310.235
310.079
309.969
309.761
309.682
309.749
309.781
306.039
305.94
305.878
305.876
305.899
305.934
306.096
306.173
306.327
306.365
306.434
306.376
306.312
306.157
306.065
305.989
305.864
305.822
305.863
305.882
302.029
301.985
301.965
301.973
301.981
301.981
302.044
302.061
302.123
302.135
302.166
302.141
302.123
302.062
302.04
302.009
301.965
301.953
301.959
301.979
330.245
329.938
329.741
329.695
329.708
330.071
330.676
331.182
331.554
331.958
332.03
331.848
331.561
330.869
330.326
329.797
329.432
329.361
329.47
329.636
326.337
326.1
325.926
325.839
325.864
326.169
326.726
327.167
327.457
327.806
327.866
327.711
327.46
326.867
326.384
325.94
325.65
325.571
325.674
325.811
322.419
322.186
322.029
321.945
321.976
322.203
322.729
323.092
323.325
323.631
323.647
323.537
323.305
322.805
322.379
322.032
321.798
321.727
321.822
321.929
318.446
318.224
318.074
317.994
318.062
318.214
318.676
318.943
319.152
319.394
319.401
319.328
319.112
318.71
318.365
318.102
317.92
317.842
317.909
317.998
314.417
314.203
314.098
314.029
314.101
314.2
314.566
314.777
314.949
315.121
315.117
315.075
314.897
314.588
314.326
314.127
313.989
313.942
313.953
314.018
310.328
310.167
310.094
310.053
310.098
310.164
310.435
310.57
310.701
310.819
310.828
310.79
310.665
310.434
310.258
310.131
310.022
309.984
309.984
310.043
306.224
306.108
306.071
306.044
306.073
306.111
306.283
306.35
306.44
306.512
306.527
306.485
306.407
306.271
306.178
306.112
306.026
306.014
306.002
306.049
302.087
302.051
302.03
302.032
302.03
302.054
302.107
302.125
302.158
302.175
302.194
302.171
302.154
302.103
302.072
302.051
302.01
302.011
302.014
302.025
331.229
330.845
330.566
330.39
330.464
330.755
331.315
331.664
332.124
332.35
332.374
332.186
331.981
331.385
330.867
330.476
330.106
330.086
330.035
330.351
327.203
326.865
326.644
326.464
326.533
326.766
327.26
327.549
327.953
328.152
328.153
328.006
327.817
327.318
326.864
326.547
326.229
326.197
326.168
326.426
323.103
322.822
322.652
322.476
322.533
322.737
323.153
323.387
323.704
323.922
323.923
323.794
323.626
323.174
322.814
322.552
322.314
322.236
322.242
322.439
318.972
318.752
318.598
318.449
318.478
318.672
319.014
319.197
319.425
319.678
319.658
319.538
319.381
319.022
318.726
318.52
318.34
318.227
318.271
318.414
314.809
314.63
314.515
314.392
314.382
314.566
314.847
314.974
315.129
315.363
315.358
315.242
315.111
314.845
314.603
314.437
314.337
314.233
314.241
314.358
310.605
310.47
310.385
310.31
310.29
310.432
310.625
310.736
310.821
311.027
311.02
310.918
310.816
310.632
310.458
310.327
310.298
310.195
310.189
310.292
306.385
306.295
306.244
306.196
306.191
306.29
306.388
306.46
306.515
306.632
306.624
306.559
306.514
306.412
306.308
306.206
306.202
306.121
306.116
306.203
302.149
302.112
302.1
302.078
302.073
302.125
302.146
302.168
302.192
302.217
302.21
302.205
302.178
302.161
302.13
302.08
302.083
302.05
302.042
302.085
332.061
331.622
331.41
331.203
331.303
331.484
331.893
332.158
332.526
332.936
332.902
332.632
332.433
331.95
331.516
331.007
330.685
330.568
330.537
330.953
327.913
327.566
327.382
327.188
327.271
327.407
327.765
328.005
328.317
328.669
328.649
328.385
328.205
327.818
327.451
326.994
326.7
326.607
326.599
326.964
323.72
323.443
323.29
323.104
323.181
323.292
323.598
323.773
324.034
324.331
324.322
324.119
323.924
323.637
323.302
322.942
322.672
322.62
322.604
322.897
319.482
319.245
319.142
318.954
319.043
319.116
319.395
319.504
319.74
319.95
319.946
319.799
319.627
319.416
319.131
318.828
318.6
318.573
318.581
318.791
315.163
315.035
314.931
314.778
314.86
314.905
315.134
315.199
315.395
315.541
315.537
315.428
315.285
315.143
314.922
314.679
314.499
314.467
314.504
314.651
310.839
310.769
310.685
310.563
310.624
310.667
310.842
310.882
311.024
311.128
311.113
311.05
310.944
310.835
310.677
310.519
310.384
310.345
310.383
310.501
306.502
306.487
306.42
306.341
306.389
306.415
306.514
306.531
306.648
306.699
306.701
306.646
306.584
306.494
306.412
306.325
306.265
306.218
306.243
306.321
302.181
302.183
302.146
302.124
302.145
302.153
302.185
302.189
302.228
302.252
302.259
302.227
302.205
302.181
302.153
302.118
302.097
302.088
302.101
302.107
332.796
332.325
332.107
332.005
332.002
332.245
332.571
332.721
333.174
333.332
333.291
333.05
332.789
332.436
332.097
331.601
331.304
331.081
331.288
331.53
328.548
328.152
327.994
327.884
327.874
328.089
328.368
328.48
328.877
328.995
328.982
328.764
328.536
328.24
327.934
327.525
327.261
327.07
327.249
327.468
324.261
323.916
323.792
323.706
323.704
323.863
324.102
324.184
324.519
324.594
324.599
324.431
324.231
323.986
323.735
323.38
323.166
323.014
323.144
323.363
319.897
319.629
319.539
319.486
319.486
319.599
319.787
319.83
320.138
320.154
320.168
320.06
319.883
319.695
319.498
319.214
319.026
318.907
318.988
319.204
315.507
315.315
315.249
315.195
315.225
315.275
315.43
315.437
315.733
315.686
315.701
315.656
315.505
315.373
315.208
314.984
314.818
314.764
314.811
314.985
311.064
310.945
310.923
310.896
310.913
310.945
311.048
311.036
311.275
311.221
311.218
311.215
311.104
311.019
310.871
310.723
310.615
310.607
310.608
310.74
306.619
306.572
306.563
306.572
306.572
306.579
306.645
306.633
306.784
306.748
306.734
306.745
306.685
306.641
306.521
306.454
306.365
306.391
306.395
306.473
302.214
302.21
302.201
302.22
302.207
302.208
302.229
302.239
302.293
302.255
302.259
302.265
302.254
302.227
302.174
302.161
302.137
302.139
302.147
302.177
333.664
333.209
332.823
332.778
332.865
332.951
333.056
333.263
333.58
333.776
333.729
333.532
333.287
333.02
332.591
332.01
331.824
331.758
331.984
332.253
329.322
328.938
328.586
328.562
328.639
328.681
328.784
328.956
329.247
329.403
329.349
329.176
328.989
328.722
328.39
327.876
327.738
327.671
327.88
328.087
324.917
324.573
324.299
324.269
324.339
324.369
324.461
324.602
324.841
324.981
324.918
324.759
324.626
324.373
324.121
323.689
323.58
323.537
323.717
323.87
320.479
320.178
319.95
319.937
319.994
320.014
320.101
320.211
320.404
320.498
320.443
320.294
320.206
320.022
319.812
319.461
319.364
319.33
319.468
319.609
315.998
315.742
315.575
315.561
315.618
315.609
315.695
315.76
315.932
315.981
315.935
315.83
315.754
315.619
315.465
315.182
315.102
315.083
315.192
315.3
311.455
311.281
311.155
311.141
311.201
311.179
311.234
311.301
311.42
311.443
311.413
311.338
311.272
311.188
311.088
310.881
310.813
310.811
310.872
310.946
306.885
306.782
306.701
306.694
306.743
306.727
306.754
306.802
306.876
306.88
306.86
306.814
306.766
306.724
306.662
306.55
306.507
306.516
306.528
306.593
302.314
302.277
302.245
302.24
302.259
302.256
302.262
302.291
302.309
302.304
302.304
302.277
302.274
302.26
302.235
302.195
302.185
302.199
302.18
302.21
334.422
334.005
333.597
333.518
333.634
333.641
333.691
333.907
333.973
334.269
334.165
334.082
333.802
333.55
333.178
332.803
332.514
332.385
332.593
332.917
329.994
329.63
329.252
329.229
329.311
329.321
329.319
329.498
329.598
329.835
329.747
329.678
329.44
329.211
328.906
328.567
328.32
328.194
328.396
328.685
325.488
325.171
324.837
324.871
324.914
324.916
324.892
325.051
325.156
325.326
325.251
325.204
325.013
324.828
324.576
324.248
324.092
323.945
324.124
324.386
320.929
320.648
320.393
320.435
320.462
320.463
320.411
320.581
320.649
320.77
320.708
320.678
320.524
320.398
320.193
319.929
319.82
319.645
319.791
320.03
316.323
316.078
315.925
315.949
315.955
315.939
315.924
316.066
316.106
316.17
316.153
316.122
315.999
315.928
315.762
315.564
315.472
315.318
315.428
315.633
311.693
311.499
311.415
311.422
311.413
311.412
311.394
311.515
311.523
311.577
311.569
311.522
311.434
311.403
311.3
311.146
311.075
310.965
311.052
311.194
307.037
306.91
306.871
306.872
306.856
306.847
306.858
306.946
306.911
306.965
306.953
306.919
306.873
306.855
306.804
306.725
306.657
306.595
306.637
306.727
302.365
302.325
302.296
302.309
302.297
302.29
302.303
302.331
302.318
302.336
302.337
302.318
302.304
302.305
302.285
302.26
302.231
302.216
302.218
302.258
335.26
334.93
334.48
334.332
334.219
334.349
334.301
334.591
334.569
334.774
334.547
334.414
334.286
334.02
333.717
333.405
333.11
333.206
333.174
333.626
330.7
330.43
330.023
329.9
329.805
329.93
329.871
330.116
330.084
330.256
330.069
329.958
329.852
329.625
329.374
329.097
328.882
328.916
328.91
329.295
326.126
325.874
325.508
325.423
325.353
325.449
325.367
325.584
325.557
325.683
325.551
325.454
325.379
325.189
324.957
324.73
324.58
324.558
324.583
324.903
321.468
321.216
320.937
320.908
320.83
320.886
320.801
321.003
320.978
321.079
320.996
320.909
320.845
320.709
320.524
320.319
320.19
320.152
320.199
320.476
316.731
316.538
316.332
316.328
316.259
316.292
316.223
316.396
316.376
316.443
316.371
316.325
316.252
316.165
316.04
315.865
315.756
315.697
315.768
315.988
311.992
311.83
311.681
311.707
311.646
311.665
311.613
311.75
311.733
311.8
311.72
311.693
311.627
311.588
311.502
311.378
311.278
311.217
311.302
311.454
307.201
307.101
307.016
307.052
307.01
307.002
306.985
307.07
307.074
307.123
307.042
307.034
306.995
306.977
306.919
306.864
306.778
306.735
306.793
306.891
302.415
302.382
302.362
302.353
302.361
302.344
302.341
302.375
302.371
302.397
302.366
302.358
302.35
302.337
302.325
302.302
302.267
302.249
302.278
302.31
335.901
335.535
335.119
334.857
334.907
334.902
334.956
334.928
335.036
335.133
335.023
334.854
334.677
334.413
334.215
333.991
333.636
333.644
333.831
334.355
331.268
330.959
330.584
330.364
330.411
330.411
330.424
330.429
330.49
330.593
330.484
330.318
330.198
329.963
329.816
329.601
329.289
329.294
329.472
329.935
326.576
326.315
325.99
325.779
325.851
325.857
325.858
325.866
325.901
325.98
325.882
325.729
325.66
325.445
325.328
325.148
324.913
324.916
325.048
325.446
321.796
321.627
321.329
321.174
321.239
321.245
321.222
321.268
321.266
321.327
321.233
321.096
321.065
320.866
320.753
320.649
320.493
320.482
320.567
320.899
317.01
316.875
316.648
316.514
316.563
316.577
316.558
316.619
316.564
316.653
316.568
316.449
316.413
316.276
316.167
316.101
316.003
315.979
316.036
316.302
312.207
312.083
311.906
311.835
311.86
311.861
311.868
311.914
311.85
311.926
311.868
311.772
311.757
311.644
311.571
311.537
311.47
311.441
311.491
311.688
307.358
307.275
307.155
307.117
307.117
307.133
307.141
307.143
307.132
307.175
307.129
307.07
307.08
307.009
306.965
306.953
306.888
306.887
306.912
307.022
302.464
302.447
302.396
302.393
302.393
302.385
302.394
302.393
302.391
302.404
302.387
302.374
302.371
302.349
302.341
302.333
302.314
302.297
302.31
302.351
336.523
336.053
335.795
335.434
335.453
335.244
335.391
335.392
335.535
335.535
335.399
335.211
335.022
334.755
334.554
334.443
334.205
334.103
334.417
334.778
331.78
331.379
331.148
330.838
330.869
330.666
330.804
330.802
330.924
330.943
330.802
330.642
330.446
330.228
330.083
329.988
329.783
329.697
329.973
330.255
327.009
326.624
326.441
326.192
326.235
326.058
326.152
326.173
326.293
326.281
326.152
326.012
325.817
325.667
325.555
325.488
325.297
325.236
325.467
325.679
322.185
321.828
321.715
321.508
321.557
321.394
321.447
321.481
321.582
321.559
321.458
321.328
321.185
321.044
320.985
320.93
320.806
320.732
320.897
321.052
317.29
316.987
316.933
316.771
316.806
316.684
316.733
316.757
316.834
316.81
316.701
316.619
316.514
316.393
316.377
316.309
316.263
316.18
316.295
316.396
312.358
312.134
312.11
312.013
312.024
311.954
311.985
312.004
312.041
312.057
311.927
311.881
311.803
311.708
311.735
311.658
311.656
311.604
311.674
311.729
307.424
307.289
307.271
307.219
307.233
307.191
307.207
307.225
307.237
307.261
307.155
307.138
307.1
307.039
307.065
307.006
307.023
306.991
307.006
307.054
302.49
302.45
302.443
302.418
302.431
302.414
302.415
302.421
302.42
302.438
302.397
302.396
302.391
302.365
302.371
302.355
302.35
302.347
302.346
302.366
)
;

boundaryField
{
    hotSide
    {
        type            fixedGradient;
        gradient        nonuniform List<scalar> 
400
(
250.36
250.36
251.869
254.846
259.133
264.508
270.73
277.58
284.881
292.491
300.31
308.265
316.311
324.424
332.596
340.834
349.156
357.584
366.138
374.828
242.017
242.156
243.908
247.223
251.91
257.703
264.328
271.542
279.152
287.013
295.022
303.109
311.233
319.375
327.535
335.729
343.983
352.329
360.797
369.404
237.964
238.395
240.415
243.964
248.854
254.82
261.585
268.907
276.59
284.485
292.488
300.531
308.575
316.605
324.626
332.659
340.737
348.897
357.173
365.587
237.922
238.789
241.107
244.814
249.745
255.673
262.35
269.552
277.089
284.816
292.626
300.451
308.256
316.027
323.775
331.525
339.312
347.176
355.15
363.263
240.807
242.196
244.86
248.732
253.675
259.499
265.996
272.965
280.231
287.652
295.127
302.592
310.012
317.385
324.725
332.064
339.44
346.895
354.466
362.182
245.385
247.332
250.398
254.509
259.539
265.324
271.681
278.426
285.396
292.459
299.518
306.519
313.439
320.288
327.095
333.9
340.753
347.699
354.779
362.027
250.629
253.142
256.66
261.101
266.338
272.212
278.544
285.156
291.883
298.597
305.211
311.683
318.016
324.239
330.407
336.58
342.82
349.182
355.713
362.45
255.743
258.798
262.795
267.638
273.194
279.293
285.743
292.347
298.925
305.34
311.512
317.423
323.107
328.635
334.095
339.575
345.156
350.903
356.87
363.093
260.084
263.614
268.063
273.33
279.268
285.691
292.378
299.094
305.625
311.808
317.568
322.916
327.936
332.752
337.496
342.288
347.229
352.394
357.839
363.6
263.134
267.004
271.801
277.42
283.707
290.458
297.419
304.31
310.865
316.886
322.296
327.142
331.567
335.753
339.877
344.089
348.503
353.201
358.237
363.647
264.518
268.524
273.474
279.263
285.734
292.67
299.797
306.802
313.377
319.297
324.478
328.997
333.039
336.826
340.566
344.426
348.527
352.956
357.766
362.989
264.072
267.965
272.814
278.512
284.902
291.763
298.821
305.761
312.276
318.14
323.272
327.744
331.741
335.483
339.179
342.999
347.07
351.478
356.283
361.515
261.901
265.436
269.937
275.296
281.355
287.9
294.671
301.381
307.763
313.619
318.87
323.559
327.827
331.856
335.829
339.906
344.212
348.838
353.85
359.284
258.382
261.37
265.35
270.218
275.817
281.941
288.352
294.8
301.058
306.96
312.427
317.469
322.173
326.672
331.111
335.63
340.348
345.362
350.74
356.526
254.14
256.468
259.85
264.191
269.334
275.077
281.193
287.453
293.658
299.659
305.373
310.786
315.945
320.94
325.884
330.896
336.091
341.565
347.392
353.621
250.027
251.652
254.44
258.302
263.077
268.549
274.485
280.661
286.885
293.014
298.962
304.699
310.247
315.669
321.056
326.514
332.155
338.079
344.366
351.065
247.13
248.074
250.316
253.777
258.275
263.571
269.41
275.558
281.822
288.063
294.191
300.171
306.01
311.754
317.481
323.291
329.296
335.607
342.308
349.45
246.723
247.075
248.839
251.939
256.179
261.293
267.007
273.081
279.323
285.597
291.815
297.936
303.961
309.925
315.896
321.969
328.257
334.875
341.914
349.424
249.925
249.843
251.191
253.903
257.787
262.583
268.024
273.875
279.953
286.128
292.314
298.467
304.582
310.685
316.834
323.114
329.63
336.489
343.779
351.542
257.102
256.759
257.75
260.023
263.42
267.723
272.703
278.152
283.904
289.836
295.864
301.943
308.06
314.233
320.508
326.952
333.65
340.69
348.139
356.03
)
;
    }
    coldSide
    {
        type            mixed;
        refValue        uniform 300;
        refGradient     uniform 0;
        valueFraction   uniform 0.991591;
        source          uniform 0;
        value           nonuniform List<scalar> 
400
(
300.014
300.014
300.014
300.014
300.015
300.015
300.015
300.016
300.016
300.016
300.017
300.018
300.018
300.018
300.019
300.019
300.02
300.02
300.021
300.021
300.014
300.014
300.014
300.014
300.014
300.015
300.015
300.015
300.016
300.016
300.017
300.017
300.018
300.018
300.019
300.019
300.02
300.02
300.021