/*--------------------------------*- C++ -*----------------------------------*\
| =========                 |                                                 |
| \\      /  F ield         | OpenFOAM: The Open Source CFD Toolbox           |
|  \\    /   O peration     | Version:  2212                                  |
|   \\  /    A nd           | Website:  www.openfoam.com                      |
|    \\/     M anipulation  |                                                 |
\*---------------------------------------------------------------------------*/
FoamFile
{
    version     2.0;
    format      ascii;
    arch        "LSB;label=32;scalar=64";
    class       volScalarField;
    location    "./ITHACAoutput/true/5.2";
    object      error;
}
// * * * * * * * * * * * * * * * * * * * * * * * * * * * * * * * * * * * * * //

dimensions      [0 0 0 1 0 0 0];

internalField   nonuniform List<scalar> 
3200
(
-1.67765
0.315111
2.16123
3.48286
4.27273
4.63877
4.78632
4.76761
4.66799
4.46276
4.32805
4.12558
3.94168
3.81073
3.59928
3.13821
2.57761
1.3886
-0.259927
-2.19121
-1.54749
0.162253
1.75686
2.84139
3.5206
3.89001
4.07643
4.13426
4.00774
3.84488
3.57832
3.53341
3.39188
3.2804
3.03604
2.7394
2.10317
1.10668
-0.359502
-1.83419
-1.2804
0.129555
1.45677
2.37853
2.86641
3.19065
3.32778
3.47612
3.28419
3.20654
3.08416
2.96062
2.84729
2.67119
2.56138
2.26645
1.71726
0.968677
-0.251364
-1.60413
-1.05034
0.0572281
1.07352
1.95536
2.33177
2.68796
2.77845
2.71829
2.74203
2.62616
2.40306
2.37446
2.22785
2.15226
2.04093
1.83443
1.37042
0.717332
-0.271914
-1.27786
-0.820337
0.00646333
0.819738
1.42213
1.79656
2.00096
2.0679
2.09528
2.09338
2.0413
1.86092
1.87601
1.79027
1.6643
1.59648
1.37658
1.05509
0.503097
-0.183349
-1.01385
-0.523239
-0.0265661
0.549657
1.01167
1.26299
1.4469
1.44028
1.43219
1.41826
1.38701
1.38787
1.29938
1.28133
1.14039
1.12134
0.952862
0.83447
0.42221
-0.137809
-0.755007
-0.300979
-0.0439726
0.390772
0.607176
0.830022
0.835697
0.891335
0.892678
0.899391
0.823745
0.787841
0.779609
0.776765
0.667867
0.649116
0.590671
0.424518
0.214816
-0.046011
-0.443453
-0.13025
-0.0274116
0.108277
0.217412
0.250244
0.331205
0.238477
0.298824
0.338669
0.345151
0.195499
0.278541
0.224967
0.22943
0.232399
0.168634
0.180414
0.0614583
-0.0808366
-0.16658
-1.60838
0.362057
2.12853
3.46791
4.03145
4.43282
4.47401
4.39105
4.21962
4.01272
3.86154
3.66236
3.53583
3.40656
3.23448
2.88561
2.34056
1.32771
-0.315318
-2.19059
-1.44265
0.143211
1.72736
2.80026
3.4036
3.76197
3.88677
3.81476
3.636
3.40514
3.23456
3.12991
3.053
2.90239
2.79701
2.48988
2.07622
1.12366
-0.398034
-1.86718
-1.38207
0.098582
1.3302
2.21885
2.8201
3.08417
3.16637
3.14357
2.97663
2.94888
2.73966
2.65258
2.48584
2.40592
2.37149
2.05022
1.62333
0.880216
-0.351419
-1.6212
-1.04463
0.0290933
1.05688
1.77881
2.15712
2.48518
2.55467
2.59592
2.47591
2.32812
2.26604
2.04394
2.13983
2.06104
1.89133
1.77301
1.36928
0.661937
-0.190394
-1.35407
-0.824605
-0.041202
0.855413
1.41239
1.67848
1.94125
1.98193
2.0447
1.87756
1.8081
1.69227
1.60781
1.55578
1.50952
1.41175
1.3044
1.05092
0.556124
-0.224493
-0.94218
-0.619596
0.0191321
0.588414
1.03505
1.27745
1.4019
1.41992
1.3323
1.35068
1.25349
1.24227
1.18284
1.15593
1.05698
1.0338
1.02176
0.736789
0.435872
-0.144726
-0.692867
-0.346913
0.089672
0.351433
0.603347
0.767922
0.79489
0.823718
0.856412
0.736649
0.742878
0.664118
0.666921
0.760739
0.645923
0.59247
0.599588
0.421102
0.25237
-0.149066
-0.370989
-0.128875
-0.0939593
0.165215
0.193742
0.356169
0.218846
0.268535
0.323636
0.284025
0.278352
0.235052
0.177595
0.291576
0.248013
0.160179
0.161001
0.110988
0.0671372
-0.0368925
-0.0934202
-1.67962
0.283753
1.94299
3.19253
3.75853
3.93831
4.01364
3.87795
3.55554
3.37574
3.10205
2.94112
2.92128
2.80905
2.73174
2.66382
2.12314
1.16173
-0.518765
-2.25451
-1.56385
0.100352
1.59954
2.60174
3.19071
3.44319
3.40109
3.26826
3.09729
2.97065
2.6403
2.50108
2.38758
2.49173
2.44688
2.19917
1.73458
0.946876
-0.447768
-2.00498
-1.26349
0.045054
1.30097
2.14472
2.60523
2.85524
2.84718
2.7365
2.49332
2.39741
2.22494
2.13228
2.11993
1.97038
2.02953
1.8567
1.45396
0.710832
-0.369719
-1.63751
-1.14593
-0.019963
1.03021
1.77182
2.13229
2.28129
2.29753
2.25164
2.13645
1.94873
1.78985
1.77203
1.63779
1.64867
1.67839
1.48866
1.17591
0.596709
-0.346637
-1.31866
-0.844776
-0.0416604
0.71647
1.28525
1.6408
1.69814
1.78718
1.75371
1.63992
1.45441
1.40601
1.31573
1.33874
1.31426
1.28038
1.18757
0.996957
0.485232
-0.284027
-1.06216
-0.596442
-0.0523615
0.474362
0.918103
1.18956
1.26904
1.31589
1.30769
1.13619
1.07594
0.98076
0.95742
0.882804
0.929771
0.909287
0.810513
0.763882
0.298762
-0.195877
-0.653754
-0.415669
-0.00183044
0.2867
0.493867
0.728913
0.689702
0.797706
0.659212
0.622464
0.710521
0.614913
0.644772
0.471957
0.463606
0.541119
0.394102
0.34912
0.204267
-0.174593
-0.356418
-0.0673012
-0.0272707
0.0828048
0.123197
0.259447
0.309439
0.233276
0.218767
0.217667
0.193228
0.227179
0.224427
0.165684
0.089614
0.247163
0.231183
0.17299
0.055782
-0.0735517
-0.117944
-1.90204
-0.043858
1.7452
2.852
3.30927
3.6152
3.40887
3.21966
2.86276
2.53685
2.32575
2.02276
2.08441
2.11389
2.2305
2.14767
1.68616
0.747444
-0.78317
-2.4831
-1.60271
-0.07042
1.39959
2.38471
2.76632
2.94956
2.90409
2.76046
2.43727
2.17811
1.96222
1.80135
1.79844
1.8399
1.93979
1.86517
1.37889
0.662248
-0.667102
-2.13995
-1.43423
-0.0816338
1.06381
1.85399
2.33563
2.49504
2.4701
2.28652
2.04692
1.82049
1.62691
1.50178
1.46015
1.50188
1.59443
1.51543
1.18831
0.473512
-0.600076
-1.74694
-1.16262
-0.0929838
0.792368
1.44332
1.89319
1.96569
1.91566
1.88872
1.68871
1.43331
1.27091
1.30857
1.22827
1.3046
1.24675
1.16483
0.918031
0.395643
-0.525058
-1.41795
-0.956084
-0.0778285
0.629045
1.13547
1.54172
1.53401
1.49895
1.48636
1.31677
1.12779
0.996893
0.901675
0.99706
1.00959
1.03398
0.897516
0.736865
0.297594
-0.359145
-1.1016
-0.655723
-0.0554081
0.302129
0.764168
0.967397
1.03223
1.08629
1.03882
0.931373
0.820407
0.782981
0.675034
0.713474
0.713741
0.704437
0.639926
0.59001
0.212097
-0.227559
-0.767016
-0.38546
-0.0647077
0.226836
0.5387
0.618659
0.644447
0.61075
0.633477
0.545947
0.455705
0.408825
0.419829
0.363449
0.357622
0.464791
0.426179
0.314714
0.205509
-0.200313
-0.493523
-0.191833
-0.109969
0.168221
0.199132
0.186061
0.24463
0.223295
0.170884
0.180829
0.174144
0.0856373
0.0693144
0.185586
0.145983
0.169778
0.138566
0.055103
0.00196917
-0.0417276
-0.171899
-2.10677
-0.300402
1.27617
2.31678
2.8087
2.95599
2.83807
2.54002
2.05118
1.63957
1.41191
1.20461
1.33178
1.45332
1.56268
1.52103
1.19857
0.383554
-0.998014
-2.69274
-1.81875
-0.378815
1.05954
2.03225
2.32107
2.54106
2.4422
2.1154
1.789
1.44544
1.17101
1.08758
1.16666
1.14206
1.34357
1.38775
1.03889
0.30743
-0.925787
-2.33466
-1.57782
-0.336123
0.834009
1.69979
2.02617
2.15656
2.02601
1.76555
1.4847
1.22622
1.03014
0.877312
0.900954
1.0389
1.11633
1.11094
0.813862
0.214022
-0.779048
-1.89663
-1.29491
-0.32913
0.595179
1.1986
1.54935
1.66813
1.64917
1.44241
1.16215
0.971352
0.797949
0.733443
0.678819
0.874275
0.964937
0.897983
0.597074
0.157777
-0.695494
-1.54012
-1.1058
-0.277052
0.500835
0.97108
1.24558
1.26506
1.30214
1.08136
0.858259
0.748493
0.661239
0.625226
0.566693
0.639625
0.669441
0.664357
0.51378
0.0902485
-0.51986
-1.19921
-0.800843
-0.179058
0.330195
0.632044
0.801987
0.88366
0.880876
0.807565
0.704391
0.511953
0.43428
0.307807
0.401312
0.454369
0.501157
0.48761
0.356988
0.103038
-0.352788
-0.817118
-0.49315
-0.104509
0.178014
0.34475
0.456261
0.520829
0.494137
0.46438
0.42331
0.321758
0.206399
0.278436
0.233328
0.218133
0.259344
0.31583
0.251698
0.0373693
-0.143762
-0.487132
-0.214174
-0.0790167
0.113413
0.113649
0.125559
0.222882
0.215885
0.158123
0.166372
0.165604
0.09402
0.0841175
0.0230536
0.143354
0.0805441
0.0998201
0.0242464
0.00995132
-0.0449702
-0.162636
-2.40165
-0.689896
0.852891
1.82754
2.39058
2.40891
2.23918
1.75436
1.27633
0.787344
0.465387
0.34769
0.465682
0.715586
0.816093
0.898175
0.69427
-0.148016
-1.39163
-2.98368
-2.14951
-0.686347
0.672874
1.51077
1.97056
2.10531
1.88283
1.50806
1.11641
0.621276
0.353234
0.193812
0.345729
0.560846
0.749276
0.834064
0.572397
-0.074957
-1.23242
-2.53479
-1.80587
-0.585745
0.559484
1.24629
1.62901
1.67095
1.60016
1.21964
0.903942
0.594055
0.371432
0.181235
0.394262
0.485243
0.65297
0.67439
0.462437
-0.0522868
-1.10038
-2.06203
-1.44382
-0.481652
0.4322
0.977664
1.38941
1.35868
1.25575
1.05859
0.725891
0.496226
0.333129
0.240764
0.285624
0.417453
0.544139
0.553726
0.403478
-0.166887
-0.90672
-1.63055
-1.17297
-0.441166
0.209404
0.726027
1.00581
1.05707
1.01751
0.800752
0.481304
0.40272
0.2856
0.146303
0.227301
0.326074
0.422396
0.462321
0.292705
-0.0420809
-0.690372
-1.32933
-0.778724
-0.275693
0.217657
0.48092
0.700088
0.728685
0.73634
0.613659
0.424914
0.239426
0.122612
0.102751
0.172767
0.186512
0.308616
0.376235
0.201711
-0.126938
-0.499794
-0.955617
-0.542167
-0.221007
0.107376
0.314531
0.434493
0.426226
0.39647
0.347995
0.310581
0.200155
0.113837
0.0819737
0.134967
0.136481
0.192611
0.230959
0.147308
-0.0188273
-0.294735
-0.557911
-0.138617
-0.111207
0.105027
0.0531815
0.0837062
0.15269
0.133366
0.099769
0.106057
0.122257
0.0667311
0.00563596
0.0664511
0.0126453
0.017117
0.089782
0.0762611
-0.0387767
-0.109682
-0.159774
-2.76344
-1.07485
0.360991
1.32534
1.84839
1.86467
1.66214
1.08668
0.465036
-0.068585
-0.382916
-0.579865
-0.344315
0.017313
0.216861
0.408195
0.1404
-0.546693
-1.8213
-3.34357
-2.33496
-1.01846
0.296904
1.13416
1.49054
1.62849
1.33234
0.983999
0.422902
-0.00739638
-0.360035
-0.450924
-0.267948
0.0358636
0.294794
0.362569
0.142101
-0.610639
-1.54368
-2.83481
-2.03593
-0.858839
0.114117
0.944763
1.2437
1.29218
1.03799
0.815042
0.38065
-0.0917459
-0.29108
-0.336972
-0.161074
0.041187
0.2109
0.346233
0.0808402
-0.488028
-1.3152
-2.37176
-1.67466
-0.723619
0.0877335
0.714695
0.945574
1.08486
0.843206
0.656675
0.30234
-0.083733
-0.28957
-0.264062
-0.168439
0.0162921
0.186366
0.225028
0.105556
-0.413071
-1.15333
-1.9477
-1.36395
-0.673753
0.0951786
0.498742
0.815521
0.795014
0.696413
0.512734
0.238534
-0.00293767
-0.206066
-0.276298
-0.176716
0.116911
0.239289
0.128746
0.131912
-0.303658
-0.845778
-1.42883
-0.970774
-0.493911
0.00196424
0.347693
0.512817
0.575726
0.468199
0.28716
0.213653
-0.00277343
-0.220974
-0.181602
-0.111313
0.0320478
0.107699
0.0800405
0.0338498
-0.213395
-0.565733
-0.984838
-0.568934
-0.25651
-0.0465225
0.254812
0.27342
0.314052
0.306374
0.257132
0.170794
0.0102991
-0.0688637
-0.171251
-0.0564596
0.0232646
0.0617071
0.101249
0.0111778
-0.140002
-0.370477
-0.585227
-0.232722
-0.119025
0.0354404
0.0643048
0.139573
0.0756345
0.142835
0.0597033
0.0508797
0.0630433
-0.0411603
-0.0643262
0.0158983
0.0805558
-0.0283581
0.040028
0.0434149
0.011539
-0.121701
-0.20431
-2.94484
-1.41664
0.0205851
0.893107
1.296
1.32456
1.0323
0.508889
-0.131823
-0.809362
-1.14409
-1.19542
-1.02358
-0.602576
-0.320857
-0.148443
-0.314555
-1.04464
-2.23981
-3.63716
-2.62067
-1.3094
-0.0886548
0.646714
1.06625
1.13821
0.901579
0.43512
-0.136601
-0.636649
-0.984442
-1.0466
-0.871087
-0.520232
-0.21738
-0.151423
-0.273077
-0.879723
-1.88029
-3.0116
-2.19347
-1.1111
-0.099161
0.519576
0.91505
0.916918
0.723961
0.397984
-0.0989744
-0.487306
-0.807241
-0.791619
-0.602726
-0.419769
-0.148833
-0.0411479
-0.200687
-0.729801
-1.54744
-2.56019
-1.82874
-0.926674
-0.155613
0.390527
0.765317
0.777865
0.663584
0.311646
-0.145116
-0.411927
-0.702197
-0.650331
-0.533776
-0.359961
-0.126767
0.000505584
-0.181043
-0.583861
-1.2096
-2.04173
-1.41435
-0.794072
-0.210212
0.288819
0.521894
0.641118
0.555967
0.198811
-0.082991
-0.306245
-0.474255
-0.528368
-0.430522
-0.26557
-0.0383645
-0.0145692
-0.172227
-0.488601
-1.0405
-1.58027
-1.05323
-0.642268
-0.0102016
0.306257
0.391234
0.362728
0.345364
0.107172
-0.0336685
-0.251941
-0.398088
-0.38774
-0.289604
-0.188174
-0.0607285
0.00388712
-0.128563
-0.380041
-0.716249
-1.14542
-0.604737
-0.351643
-0.0571339
0.153023
0.244965
0.175324
0.150724
0.0893524
-0.0146828
-0.164849
-0.160124
-0.241463
-0.187161
-0.134506
-0.0336851
-0.0612403
-0.0155362
-0.229244
-0.473146
-0.645764
-0.246403
-0.0972398
-0.0231726
0.109957
0.106073
0.0868335
0.091071
0.0434874
0.0257084
-0.017342
0.0225624
0.0359461
-0.0584131
-0.106961
-0.0788823
0.0189203
-0.0657748
-0.123406
-0.126767
-0.274906
-3.30873
-1.744
-0.368218
0.445727
0.884048
0.930244
0.561092
0.0282146
-0.67146
-1.17601
-1.69665
-1.72437
-1.47607
-1.11676
-0.680059
-0.602302
-0.678542
-1.25456
-2.37963
-3.70966
-2.83833
-1.56576
-0.393232
0.367289
0.798555
0.77315
0.497132
-0.0050182
-0.419
-1.06153
-1.41558
-1.43651
-1.30327
-0.923784
-0.662414
-0.404253
-0.557897
-1.11027
-2.11631
-3.15348
-2.36376
-1.33518
-0.491361
0.324413
0.685895
0.623554
0.330465
-0.0166115
-0.4426
-0.895102
-1.15256
-1.23911
-1.01273
-0.767444
-0.479135
-0.304236
-0.425338
-0.934928
-1.78228
-2.68353
-1.98045
-1.0762
-0.25394
0.211555
0.393128
0.475842
0.311812
0.0810156
-0.301569
-0.746797
-1.01061
-0.939548
-0.800455
-0.611935
-0.373728
-0.277201
-0.359866
-0.789815
-1.45669
-2.18482
-1.57982
-0.863453
-0.192954
0.152528
0.326489
0.384363
0.285351
0.0558027
-0.273655
-0.545631
-0.74316
-0.721792
-0.559407
-0.461565
-0.292647
-0.201885
-0.287914
-0.578436
-1.09052
-1.63176
-1.10512
-0.656122
-0.207823
0.0488952
0.27377
0.235901
0.112488
0.00919739
-0.203761
-0.471809
-0.563368
-0.585903
-0.437208
-0.28697
-0.215939
-0.176832
-0.191461
-0.392827
-0.754172
-1.03019
-0.683165
-0.422649
-0.121322
0.0393959
0.127592
0.160632
0.0630991
0.0298191
-0.0606325
-0.152747
-0.27045
-0.308509
-0.346968
-0.191182
-0.135991
-0.0957948
-0.084227
-0.201557
-0.488484
-0.719502
-0.177065
-0.161335
-0.0575909
0.00689782
0.0961622
0.0378911
-0.0182285
0.000566818
-0.0943514
-0.0193935
-0.144301
-0.112871
-0.07901
-0.0702432
-0.067452
0.0234194
-0.0862968
-0.0619857
-0.150938
-0.190421
-3.39509
-1.96727
-0.689022
0.167174
0.676534
0.583432
0.347266
-0.214745
-0.909284
-1.46893
-1.97743
-2.00938
-1.7918
-1.4129
-0.959532
-0.760922
-0.895572
-1.46077
-2.43853
-3.73561
-2.94404
-1.70191
-0.557483
0.148249
0.549524
0.569426
0.29275
-0.254886
-0.678782
-1.30899
-1.65092
-1.72657
-1.57678
-1.17269
-0.855367
-0.595089
-0.742479
-1.27739
-2.14598
-3.17595
-2.53046
-1.43425
-0.523277
0.157555
0.368706
0.483462
0.147956
-0.145411
-0.681819
-1.09852
-1.38054
-1.4401
-1.27698
-0.965501
-0.624537
-0.55206
-0.621099
-1.07249
-1.82803
-2.59139
-2.05583
-1.20216
-0.475293
0.0627396
0.373682
0.344941
0.187967
-0.152673
-0.45673
-0.881483
-1.09469
-1.12817
-1.00973
-0.819721
-0.572744
-0.362997
-0.562246
-0.885464
-1.50624
-2.12748
-1.56004
-0.978249
-0.337844
0.0710234
0.267126
0.291094
0.124478
-0.0428933
-0.424948
-0.701774
-0.901681
-0.929007
-0.783779
-0.514825
-0.414738
-0.335492
-0.415469
-0.666531
-1.13059
-1.70205
-1.15317
-0.635325
-0.324378
0.0704334
0.186341
0.258064
0.137825
-0.0486675
-0.297153
-0.403425
-0.661572
-0.571553
-0.589198
-0.471386
-0.307625
-0.175798
-0.296484
-0.469678
-0.82213
-1.11028
-0.737673
-0.448228
-0.205619
0.0991689
0.0277614
0.147376
0.081847
-0.099504
-0.151743
-0.33639
-0.323369
-0.350933
-0.24454
-0.255604
-0.261776
-0.20563
-0.17979
-0.415665
-0.465061
-0.71384
-0.242736
-0.134219
-0.0655573
-0.0216587
0.0609244
0.059269
0.0670858
-0.0736449
-0.0906926
-0.127524
-0.0706432
-0.197917
-0.132554
-0.055281
0.0152258
-0.0505302
-0.0520904
-0.115711
-0.134875
-0.194507
-3.39865
-1.98876
-0.709977
0.0815086
0.422838
0.457213
0.174898
-0.399288
-0.998567
-1.63761
-2.08577
-2.15629
-1.83388
-1.3996
-1.05426
-0.771567
-0.899892
-1.45375
-2.5279
-3.65064
-2.96256
-1.76566
-0.620333
0.152582
0.375403
0.480279
0.0929429
-0.329744
-0.892345
-1.44917
-1.74473
-1.7652
-1.51005
-1.19175
-0.873141
-0.564667
-0.816674
-1.23603
-2.12764
-3.08705
-2.4675
-1.54015
-0.583975
-0.000770564
0.365098
0.380404
0.172457
-0.294202
-0.65834
-1.17876
-1.39703
-1.43248
-1.29413
-0.987308
-0.81424
-0.659563
-0.674622
-1.00596
-1.68979
-2.54334
-2.07985
-1.22767
-0.554024
-0.0348312
0.252497
0.239164
0.0322399
-0.188989
-0.574017
-0.890004
-1.12969
-1.20259
-0.974617
-0.798851
-0.526198
-0.491806
-0.463721
-0.820174
-1.48942
-2.13643
-1.56665
-0.915743
-0.369912
0.0220665
0.155577
0.210008
0.0582043
-0.155281
-0.377409
-0.690131
-0.911062
-0.884422
-0.762558
-0.564531
-0.425759
-0.310602
-0.418636
-0.593642
-1.16203
-1.61168
-1.11403
-0.674703
-0.361752
0.0381676
0.0419054
0.170557
0.00965058
-0.0674566
-0.290843
-0.511446
-0.715173
-0.607172
-0.484831
-0.439263
-0.305279
-0.314653
-0.252616
-0.57336
-0.787966
-1.15314
-0.672385
-0.395477
-0.194153
0.00906868
0.104713
0.054852
-0.0117929
0.0270471
-0.169988
-0.284735
-0.408462
-0.436696
-0.286
-0.224879
-0.167074
-0.0617058
-0.157558
-0.333457
-0.450247
-0.689762
-0.271503
-0.192391
-0.00447214
0.0295257
-0.0255505
0.0809732
0.0290628
-0.00620676
-0.013753
-0.168793
-0.129852
-0.195626
-0.152717
-0.061587
-0.0598087
0.00638161
-0.0295129
-0.113703
-0.10418
-0.146001
-3.3262
-1.85376
-0.653025
0.118677
0.520874
0.5185
0.173124
-0.320301
-0.960108
-1.52184
-1.80947
-1.84596
-1.65666
-1.24012
-0.842312
-0.63421
-0.72482
-1.36999
-2.28542
-3.35178
-2.71395
-1.80689
-0.724869
0.0566693
0.306857
0.402402
0.222247
-0.244641
-0.76207
-1.2146
-1.52569
-1.60354
-1.33513
-1.03691
-0.639117
-0.574604
-0.622665
-1.09132
-1.97757
-2.86514
-2.3972
-1.40009
-0.586063
0.0783979
0.389294
0.295231
0.157873
-0.279919
-0.690963
-1.00929
-1.1851
-1.28569
-1.10737
-0.900114
-0.602328
-0.405902
-0.492801
-0.965589
-1.70503
-2.43968
-1.96235
-1.24986
-0.542888
0.0408102
0.296679
0.328388
0.133532
-0.159185
-0.514092
-0.856541
-0.973445
-1.06913
-0.824422
-0.630581
-0.494827
-0.296495
-0.427053
-0.82345
-1.33689
-1.94141
-1.44916
-0.939628
-0.346122
-0.0506173
0.200747
0.17831
0.0759487
-0.167108
-0.323924
-0.601273
-0.762049
-0.692016
-0.692875
-0.472808
-0.315942
-0.24812
-0.317772
-0.535138
-0.977913
-1.51484
-1.05515
-0.635178
-0.337839
-0.00294456
0.200847
0.159793
0.0804292
-0.106652
-0.267492
-0.391694
-0.586396
-0.511721
-0.517372
-0.380264
-0.241253
-0.153476
-0.230739
-0.378659
-0.631119
-1.10574
-0.621839
-0.400665
-0.162024
0.021315
0.110015
0.070333
-0.0109545
-0.00453664
-0.163928
-0.256783
-0.3707
-0.358765
-0.344977
-0.208077
-0.118876
-0.114981
-0.163708
-0.29262
-0.323847
-0.650315
-0.202715
-0.142919
-0.06465
-0.0437008
-0.00848596
0.0324453
0.00365433
-0.00341721
-0.120267
-0.0336188
-0.129696
-0.115987
-0.0509782
-0.0617189
-0.0752599
-0.0211185
-0.022038
-0.0714211
-0.157479
-0.23274
-2.94313
-1.67411
-0.639636
0.293521
0.712863
0.805944
0.485676
0.0145278
-0.529764
-1.02774
-1.31969
-1.38381
-1.19347
-0.746514
-0.460741
-0.337417
-0.510128
-0.95498
-1.89151
-3.07547
-2.566
-1.50426
-0.461268
0.198772
0.548843
0.665418
0.465469
0.0194312
-0.411669
-0.768401
-1.14462
-1.14893
-0.95261
-0.70076
-0.381545
-0.167849
-0.273211
-0.820666
-1.54182
-2.56579
-2.16552
-1.28345
-0.377523
0.120634
0.443599
0.583911
0.448172
0.0249416
-0.322069
-0.680462
-0.981006
-0.965912
-0.8012
-0.524503
-0.225884
-0.166033
-0.258863
-0.640833
-1.32392
-2.12945
-1.76697
-1.05313
-0.377266
0.164034
0.3945
0.368373
0.269753
0.0739561
-0.18336
-0.5866
-0.714955
-0.73942
-0.584069
-0.402866
-0.117442
-0.174705
-0.19402
-0.535826
-1.02588
-1.65356
-1.35458
-0.797958
-0.327774
0.114461
0.298309
0.321701
0.292076
0.0465133
-0.224847
-0.33782
-0.586709
-0.59324
-0.44431
-0.376296
-0.130433
-0.0617016
-0.136201
-0.385502
-0.807987
-1.27316
-0.938968
-0.538472
-0.1637
0.153676
0.247916
0.304773
0.170529
0.0380084
-0.0926012
-0.269363
-0.381552
-0.424012
-0.265219
-0.214826
-0.0576757
-0.0556254
-0.0394074
-0.25847
-0.644749
-1.0011
-0.574367
-0.259374
-0.126205
0.0281701
0.101406
0.107749
0.0886851
-0.0325276
-0.119169
-0.104168
-0.167867
-0.273174
-0.183221
-0.203939
-0.0552863
0.0263215
-0.0594408
-0.142934
-0.373348
-0.576298
-0.241218
-0.124276
-0.0263923
-0.00332617
-0.00451481
0.0274371
0.0869546
-0.000951452
-0.00796894
-0.0268133
-0.0165161
-0.0419533
-0.0987767
0.0367751
-0.0682148
0.0267448
-0.0474781
-0.012368
-0.110924
-0.2023
-2.53456
-1.28019
-0.202085
0.607195
1.05358
1.19634
0.915421
0.464397
0.058325
-0.322124
-0.596123
-0.659751
-0.479381
-0.159851
0.100266
0.23924
0.0842331
-0.382767
-1.29814
-2.34153
-2.25168
-1.11393
-0.135428
0.464238
0.891187
0.992695
0.79516
0.51272
0.0872417
-0.311885
-0.461329
-0.479632
-0.365402
-0.0938539
0.100229
0.246047
0.111615
-0.298104
-1.1628
-2.0208
-1.83436
-1.021
-0.130443
0.471497
0.780087
0.831513
0.753077
0.439207
0.179551
-0.139255
-0.316242
-0.314154
-0.250257
-0.0772867
0.203003
0.246358
0.141132
-0.182799
-0.859859
-1.7044
-1.50432
-0.726006
-0.110457
0.304705
0.627217
0.721397
0.571057
0.309938
0.0310696
-0.180018
-0.215806
-0.304881
-0.202207
-0.0208186
0.0792243
0.19712
0.0804961
-0.280522
-0.738329
-1.33082
-1.10205
-0.602967
-0.0841353
0.300874
0.330924
0.503485
0.442784
0.281219
0.136096
-0.11137
-0.151232
-0.203535
-0.143359
-0.0478378
0.0855732
0.190342
0.107431
-0.166055
-0.615688
-0.993893
-0.80906
-0.413588
-0.0241199
0.184536
0.294639
0.39938
0.269234
0.14768
0.0888254
-0.028437
-0.189052
-0.165772
-0.0819979
0.0878948
0.0842612
0.088586
0.0704611
-0.108459
-0.396708
-0.679703
-0.470934
-0.24944
-0.00791996
0.058906
0.207392
0.195196
0.152683
0.159815
0.0461573
-0.0138506
-0.10597
-0.108385
-0.0420683
0.0200195
0.0388821
0.0822046
0.068524
-0.0304207
-0.227323
-0.44701
-0.154299
-0.0303867
0.00847279
0.0546061
0.0924394
0.0246143
0.00034949
0.0199348
0.00362595
-0.0704467
-0.0527262
0.00558355
-0.0368117
0.0350887
0.0257308
-0.0518402
0.0085061
-0.018306
-0.0186949
-0.183115
-1.83028
-0.687038
0.40691
1.18412
1.63411
1.76021
1.53499
1.28646
0.970748
0.463693
0.325121
0.299221
0.395296
0.680497
0.892101
0.936127
0.855958
0.247374
-0.669272
-1.60533
-1.57447
-0.618864
0.376844
1.05008
1.40439
1.44756
1.40555
1.09214
0.837507
0.473892
0.401
0.300821
0.373529
0.595996
0.843341
0.879997
0.656537
0.29216
-0.408692
-1.30681
-1.35227
-0.483219
0.251906
0.832836
1.19824
1.22304
1.20038
0.963911
0.709567
0.393182
0.302521
0.334284
0.389248
0.566201
0.791236
0.794065
0.702723
0.128322
-0.412572
-1.13498
-1.17315
-0.412554
0.211679
0.718438
0.890804
1.06448
1.0217
0.780905
0.574282
0.375545
0.299884
0.237546
0.339191
0.440196
0.582617
0.640569
0.56196
0.131361
-0.314683
-0.950283
-0.961088
-0.407616
0.176572
0.581113
0.752661
0.799845
0.771816
0.573932
0.469695
0.256321
0.249406
0.178854
0.229275
0.424796
0.496521
0.503026
0.388554
0.157255
-0.215982
-0.645391
-0.597208
-0.234243
0.144819
0.396373
0.533636
0.556187
0.603562
0.363804
0.36771
0.203021
0.211695
0.192334
0.204301
0.3325
0.356407
0.395271
0.237112
0.0640101
-0.165042
-0.473555
-0.366412
-0.141118
0.0407989
0.222796
0.35886
0.289182
0.294071
0.159447
0.167854
0.1613
0.0964115
0.0641044
0.129308
0.18256
0.211136
0.233371
0.173864
0.112898
-0.153018
-0.199531
-0.135017
-0.0978843
-0.0590257
0.10737
0.136558
0.122263
0.106409
0.0619471
0.0690437
0.000310341
0.0209923
0.08104
0.104211
0.0813462
0.0340597
0.0407873
-0.0426652
-0.0168219
0.0167857
-0.066944
-1.12551
0.0116037
1.18089
1.9773
2.34073
2.49785
2.42184
2.16432
1.83867
1.62339
1.37112
1.42685
1.57429
1.66572
1.87542
1.90912
1.71684
1.11074
0.245201
-0.831923
-1.00513
-0.0247419
0.880612
1.69403
2.01274
2.17075
2.02389
1.81484
1.62293
1.37716
1.33456
1.20158
1.37506
1.54059
1.70273
1.70031
1.44098
0.931362
0.202539
-0.604981
-0.828805
0.00818449
0.781048
1.36675
1.66125
1.75166
1.76515
1.59759
1.3794
1.24868
1.13163
1.1046
1.16548
1.25478
1.43081
1.48254
1.27772
0.842294
0.305405
-0.478222
-0.620674
-0.0215156
0.665234
1.15943
1.38721
1.56698
1.43854
1.33812
1.19017
1.01398
0.905715
0.947672
0.955895
1.06995
1.18025
1.16699
1.01638
0.747167
0.15442
-0.323185
-0.52034
0.012256
0.517701
0.842135
1.09556
1.16156
1.13219
0.967481
0.805951
0.772147
0.723075
0.700918
0.813639
0.870704
0.984722
0.932747
0.813152
0.583048
0.155438
-0.271019
-0.382481
-0.0417861
0.398007
0.539693
0.792317
0.756171
0.796611
0.765249
0.701353
0.616108
0.520427
0.473426
0.580583
0.598942
0.756826
0.659668
0.57864
0.396214
0.196885
-0.180324
-0.15641
0.0931334
0.231492
0.415458
0.444337
0.519426
0.498649
0.441813
0.448197
0.349023
0.329092
0.341122
0.293487
0.391268
0.386296
0.462551
0.303936
0.337163
0.0168177
-0.0977587
-0.166511
0.0248843
0.118287
0.175066
0.129902
0.182049
0.152304
0.216088
0.116981
0.106986
0.15416
0.0585045
0.143744
0.140658
0.126096
0.181725
0.0690374
0.0728903
-0.0370834
-0.0240128
-0.230368
0.878633
1.98329
2.80633
3.21619
3.41892
3.44965
3.24666
2.99812
2.82253
2.59448
2.68246
2.75386
2.85083
3.00454
3.00549
2.6969
2.21833
1.23304
0.212184
-0.270994
0.766094
1.70785
2.36974
2.8533
2.99173
2.9461
2.8712
2.59294
2.51241
2.34326
2.31404
2.35958
2.55783
2.60947
2.60322
2.35343
1.92777
1.12767
0.372219
-0.169949
0.651807
1.45367
1.94632
2.34805
2.5161
2.56326
2.33615
2.27416
2.12043
1.97346
1.98361
1.98003
2.17529
2.1468
2.30416
2.05956
1.57968
1.0638
0.325259
-0.0778486
0.52328
1.12267
1.68813
1.93228
2.067
2.05788
1.94107
1.84269
1.69584
1.65511
1.62189
1.76107
1.78565
1.8359
1.8717
1.68587
1.34831
0.880617
0.222023
-0.114154
0.345995
0.846203
1.23766
1.5049
1.66112
1.60069
1.55183
1.40633
1.38129
1.28385
1.28174
1.35158
1.28663
1.43022
1.49982
1.38953
1.03626
0.643383
0.162645
-0.0436418
0.331802
0.615101
0.937356
1.08767
1.18769
1.18394
1.04041
1.08715
1.01273
0.92304
1.00806
0.982067
0.935122
1.03386
1.00825
0.987621
0.790002
0.450953
0.185961
-0.0273311
0.155452
0.379126
0.5664
0.655708
0.680105
0.715771
0.682089
0.58132
0.647401
0.544077
0.53886
0.466421
0.551914
0.582263
0.623403
0.567151
0.41159
0.361107
0.098774
0.040291
0.0561893
0.112885
0.198892
0.185511
0.256047
0.162178
0.201104
0.224792
0.156124
0.164153
0.165527
0.26372
0.202541
0.200282
0.193067
0.167427
0.14404
0.115413
-0.0397461
0.776368
1.86846
2.93029
3.67277
4.20947
4.50328
4.55093
4.41213
4.24368
4.016
3.98915
3.92011
4.03684
4.08769
4.24084
4.08461
3.82083
3.28405
2.42185
1.35762
0.596358
1.61608
2.58494
3.23388
3.60635
3.87055
3.90019
3.82452
3.69387
3.55189
3.40954
3.49662
3.47504
3.58624
3.6506
3.60683
3.31934
2.8859
2.02685
1.29444
0.607366
1.3525
2.14753
2.73276
3.0413
3.24154
3.32907
3.18687
3.10904
3.01103
3.03034
2.97239
3.00543
3.04635
3.04365
2.97513
2.90174
2.4515
1.78409
1.15871
0.437044
1.14457
1.67959
2.14432
2.50512
2.74105
2.70766
2.69229
2.59727
2.47391
2.41067
2.48906
2.46948
2.56293
2.53747
2.53577
2.39221
1.9984
1.52645
0.929036
0.411698
0.875217
1.44541
1.65699
1.95596
2.08615
2.09097
2.07269
1.99369
1.88088
1.92923
1.93321
1.97747
1.99322
2.02481
1.90863
1.78864
1.63889
1.19049
0.737115
0.264671
0.656087
0.997386
1.25567
1.46365
1.53102
1.4481
1.48491
1.46496
1.35873
1.37298
1.30336
1.33697
1.45176
1.47942
1.35922
1.30486
1.17037
0.822171
0.513225
0.181106
0.423306
0.627808
0.716683
0.814287
0.878136
0.913021
0.969849
0.867668
0.848203
0.811041
0.819876
0.923461
0.900798
0.884719
0.848619
0.7908
0.630625
0.503116
0.385257
0.137365
0.161368
0.17832
0.317569
0.233848
0.178619
0.252376
0.321654
0.303005
0.317841
0.243555
0.317572
0.296369
0.280963
0.270602
0.290048
0.25241
0.201838
0.175288
0.0691045
1.82863
2.95404
3.98283
4.77785
5.28767
5.61606
5.66001
5.57527
5.47549
5.3123
5.25329
5.25645
5.33864
5.41122
5.40479
5.33082
5.03727
4.41158
3.45638
2.48388
1.55336
2.53069
3.36174
4.17777
4.54544
4.78214
4.90458
4.87311
4.83021
4.66785
4.52815
4.58751
4.64379
4.75302
4.73004
4.60069
4.47508
3.71223
3.09278
2.22659
1.30105
2.0511
2.85368
3.40347
3.89046
4.1014
4.13365
4.10539
4.03126
3.93197
3.925
3.92842
3.9019
4.02178
3.96992
3.98613
3.68897
3.26547
2.68418
1.96248
1.03703
1.6346
2.27664
2.80258
3.08179
3.25727
3.39523
3.38511
3.26601
3.25164
3.22138
3.17633
3.17542
3.24384
3.27527
3.15704
3.01481
2.62272
2.14958
1.52975
0.766997
1.28903
1.85329
2.24857
2.43612
2.55394
2.59562
2.63838
2.61302
2.4784
2.41353
2.47169
2.49859
2.5211
2.57538
2.52185
2.32527
2.07195
1.66727
1.21206
0.585477
1.00998
1.25531
1.5548
1.71267
1.69374
1.85816
1.91056
1.77948
1.84232
1.75268
1.78049
1.79928
1.82469
1.91318
1.77977
1.6565
1.45111
1.19283
0.929095
0.30246
0.517943
0.751105
0.947754
0.97902
1.11911
1.06757
1.12465
1.04715
1.05358
1.02357
1.15687
1.03711
1.03589
1.0264
1.07951
1.04212
0.836707
0.702528
0.62835
0.114029
0.18821
0.280795
0.346171
0.454352
0.389995
0.392735
0.352842
0.387781
0.288841
0.369995
0.325994
0.374954
0.302825
0.329678
0.361415
0.294071
0.331217
0.257031
0.206886
2.65955
3.77059
4.78644
5.62194
6.13579
6.52126
6.55372
6.64424
6.49207
6.4694
6.39073
6.37535
6.38591
6.488
6.45851
6.28846
5.95676
5.33884
4.41923
3.45635
2.26611
3.17208
4.14572
4.82189
5.2598
5.55192
5.65548
5.64789
5.61517
5.54937
5.47174
5.41916
5.51705
5.55868
5.58076
5.39918
5.14481
4.6018
3.79157
2.96631
1.76179
2.63414
3.46182
3.95757
4.37628
4.6813
4.72295
4.74162
4.75078
4.57664
4.57307
4.66124
4.65428
4.68241
4.60369
4.50163
4.31984
3.85746
3.22273
2.54537
1.47326
2.1576
2.78603
3.28488
3.53985
3.78057
3.83872
3.81888
3.75301
3.74262
3.6614
3.7207
3.75437
3.8109
3.81934
3.73592
3.49111
3.18804
2.55998
2.06026
1.1074
1.60081
2.10515
2.39636
2.79149
2.93382
2.95725
2.97214
2.91575
2.86719
2.8981
2.91787
2.87622
2.96908
2.93794
2.84204
2.71306
2.41854
2.03798
1.64405
0.838354
1.10381
1.55327
1.77663
2.02204
2.13131
2.08634
2.09989
2.03532
2.07322
2.09399
2.04038
2.07588
2.03329
2.12325
2.02946
1.84486
1.80653
1.38196
1.18055
0.498556
0.696431
0.865788
1.10585
1.10903
1.23687
1.26328
1.2413
1.31805
1.28218
1.29737
1.23037
1.24404
1.2289
1.31891
1.20627
1.14605
1.04305
0.796055
0.713548
0.178954
0.253148
0.344374
0.37599
0.440742
0.3622
0.427206
0.428279
0.42174
0.328319
0.37099
0.45542
0.436561
0.356141
0.416261
0.436662
0.399738
0.301551
0.284279
0.224562
)
;

boundaryField
{
    hotSide
    {
        type            calculated;
        value           nonuniform List<scalar> 
400
(
-0.520884
-0.449939
-0.517799
-0.735039
-0.932704
-1.21849
-1.56901
-1.73678
-2.08453
-2.15206
-2.13393
-2.03678
-1.62584
-1.18612
-0.447285
0.295541
1.23232
2.28434
3.38558
4.26921
1.51912
1.56737
1.49172
1.16821
0.917362