/*--------------------------------*- C++ -*----------------------------------*\
| =========                 |                                                 |
| \\      /  F ield         | OpenFOAM: The Open Source CFD Toolbox           |
|  \\    /   O peration     | Version:  2212                                  |
|   \\  /    A nd           | Website:  www.openfoam.com                      |
|    \\/     M anipulation  |                                                 |
\*---------------------------------------------------------------------------*/
FoamFile
{
    version     2.0;
    format      ascii;
    arch        "LSB;label=32;scalar=64";
    class       volScalarField;
    location    "0";
    object      relativeErrorField;
}
// * * * * * * * * * * * * * * * * * * * * * * * * * * * * * * * * * * * * * //

dimensions      [0 0 0 1 0 0 0];

internalField   nonuniform List<scalar> 
3200
(
0.00482553
0.000904439
0.00618634
0.00993999
0.0121573
0.0131595
0.013541
0.0134571
0.0131538
0.0125644
0.0121852
0.0116254
0.0111258
0.010781
0.0102107
0.00892919
0.00735643
0.00397476
0.000746048
0.00630273
0.00453382
0.000474489
0.00512547
0.00826787
0.0102168
0.0112593
0.0117704
0.0119132
0.0115315
0.0110543
0.010288
0.0101667
0.00977394
0.00947192
0.00878753
0.00794977
0.00611981
0.00322864
0.00105132
0.00537378
0.00382235
0.000386155
0.00433317
0.00705906
0.00848737
0.00942609
0.0098108
0.0102302
0.00965304
0.00941851
0.00905906
0.00870199
0.00837954
0.00787505
0.00756706
0.00671092
0.00509652
0.00288134
0.000749223
0.00478875
0.00319611
0.00017392
0.00325693
0.00592121
0.00704746
0.00810868
0.00836711
0.00817401
0.00823664
0.00788416
0.00721438
0.00713252
0.00669923
0.00648137
0.00615681
0.00554432
0.00414988
0.00217629
0.000826364
0.00388845
0.00254545
2.00352e-05
0.00253761
0.00439587
0.00554476
0.00616633
0.00636388
0.00644067
0.0064294
0.00626667
0.0057129
0.0057618
0.00550309
0.00512182
0.00491986
0.00424856
0.00326133
0.00155741
0.000568351
0.00314592
0.00165623
8.403e-05
0.00173689
0.00319336
0.00398223
0.00455711
0.0045317
0.00450242
0.00445589
0.00435632
0.00435901
0.00408241
0.00402816
0.0035881
0.00353173
0.00300438
0.00263403
0.00133416
0.000435898
0.00238986
0.000972267
0.000141984
0.00126101
0.00195804
0.00267486
0.00269133
0.00286875
0.00287157
0.00289208
0.00264831
0.00253288
0.00250691
0.00249871
0.00214952
0.00209046
0.00190352
0.001369
0.000693206
0.000148566
0.00143251
0.000429575
9.03922e-05
0.00035698
0.000716626
0.000824653
0.0010912
0.00078553
0.000984132
0.00111521
0.00113647
0.000643717
0.000917213
0.000740894
0.000755728
0.000765669
0.000555715
0.000594675
0.000202623
0.000266566
0.000549394
0.00462429
0.00103876
0.0060904
0.00989375
0.011467
0.0125716
0.0126542
0.0123913
0.0118879
0.0112952
0.0108696
0.0103179
0.00997796
0.00963504
0.00917309
0.00820779
0.00667748
0.003799
0.000904661
0.00629824
0.00422507
0.000418652
0.00503768
0.00814563
0.00987444
0.0108859
0.0112202
0.0109903
0.01046
0.00978834
0.00929799
0.00900408
0.00879563
0.00837852
0.00809359
0.00722359
0.00603948
0.00327704
0.00116358
0.00546837
0.00412451
0.000293744
0.00395554
0.00658338
0.00834819
0.0091095
0.00933308
0.00924988
0.00874766
0.00866038
0.00804592
0.00779534
0.00731453
0.00709162
0.0070045
0.00606915
0.00481647
0.00261744
0.00104712
0.00483816
0.0031779
8.83932e-05
0.00320566
0.00538536
0.00651823
0.00749555
0.00769194
0.00780489
0.00743627
0.00698852
0.00680215
0.00613888
0.0064336
0.00620564
0.00570444
0.00535757
0.00414552
0.00200774
0.000578468
0.00411925
0.00255814
0.000127692
0.00264753
0.00436497
0.00517946
0.00598146
0.0060985
0.00628445
0.00576592
0.00555017
0.00519464
0.00493754
0.00478174
0.00464487
0.00434993
0.00402512
0.00324786
0.00172123
0.000695745
0.00292289
0.00196093
6.05068e-05
0.00185909
0.00326673
0.00402733
0.0044149
0.00446722
0.00418805
0.00424325
0.00393664
0.00390141
0.00371597
0.00363364
0.00332535
0.00325566
0.00322122
0.00232539
0.00137714
0.000457707
0.00219282
0.00112054
0.000289518
0.00113397
0.00194554
0.00247455
0.00255975
0.00265096
0.00275477
0.00236865
0.00238821
0.00213501
0.00214445
0.00244703
0.00207877
0.00190791
0.00193211
0.00135788
0.000814321
0.00048128
0.00119831
0.000425027
0.00030983
0.000544684
0.000638588
0.00117369
0.000720999
0.000884518
0.00106583
0.000935256
0.000916516
0.000773944
0.000584796
0.000960243
0.000816922
0.00052772
0.000530548
0.000365824
0.000221339
0.000121653
0.000308098
0.00482498
0.000813429
0.00555518
0.00910158
0.0106837
0.0111626
0.0113461
0.0109382
0.0100127
0.00949831
0.00872822
0.00828245
0.00823981
0.00794087
0.00774271
0.00757194
0.00605286
0.0033215
0.00148713
0.00647642
0.00457654
0.000293147
0.00466172
0.00756332
0.00925143
0.00995821
0.00981357
0.00941187
0.00890687
0.00853627
0.00758701
0.00719235
0.00687569
0.00718968
0.00707674
0.00637648
0.00504247
0.00275958
0.00130802
0.00586749
0.00376817
0.000134163
0.00386632
0.00635994
0.00770824
0.0084295
0.00838887
0.00804916
0.00732488
0.00703861
0.00653225
0.00626422
0.00623559
0.00580549
0.00599175
0.00549353
0.00431156
0.0021125
0.00110096
0.00488364
0.00348418
6.06213e-05
0.00312321
0.00536174
0.00644049
0.006878
0.00691537
0.00676772
0.00641492
0.00584816
0.00537134
0.00532071
0.00492269
0.00496237
0.00506029
0.00449645
0.00355845
0.001809
0.00105262
0.00400934
0.00261959
0.00012906
0.00221663
0.0039706
0.00506152
0.00523081
0.00549777
0.00538876
0.00503503
0.00446356
0.00431503
0.00403967
0.00411365
0.00404297
0.00394398
0.0036634
0.00307995
0.00150122
0.000879889
0.00329367
0.00188706
0.000165547
0.00149832
0.00289687
0.00374932
0.00399563
0.0041391
0.00410997
0.00356884
0.00337853
0.00307966
0.00300731
0.00277458
0.00292457
0.00286292
0.00255462
0.00241026
0.000943669
0.000619289
0.00206838
0.00134237
5.90873e-06
0.000924933
0.00159225
0.00234849
0.00222072
0.00256694
0.00212022
0.0020013
0.00228397
0.00197664
0.00207302
0.00151795
0.00149184
0.00174231
0.00126976
0.00112558
0.000658994
0.000563594
0.00115102
0.000221943
8.99189e-05
0.000272976
0.000406043
0.000854912
0.00101942
0.000768349
0.000720438
0.000716725
0.000636212
0.000747994
0.000738985
0.000545625
0.000295165
0.000814255
0.00076178
0.000570156
0.000183892
0.00024252
0.00038895
0.00545684
0.000125571
0.00498385
0.0081219
0.00939723
0.0102375
0.00962865
0.00907477
0.00805638
0.00713337
0.00653977
0.00569244
0.00587503
0.00597087
0.0063163
0.00609867
0.00480182
0.00213451
0.00224231
0.00712388
0.00468493
0.000205486
0.00407476
0.00692576
0.0080138
0.0085237
0.00837347
0.00794433
0.00700466
0.00625533
0.00563534
0.00517703
0.00517573
0.00530506
0.00560566
0.00540325
0.00400461
0.00192807
0.00194661
0.00625532
0.00427321
0.000242862
0.00315869
0.00549323
0.0069053
0.00736101
0.00727331
0.0067218
0.00601037
0.00534219
0.00477411
0.00440967
0.00429247
0.00442233
0.00470397
0.00448036
0.00352088
0.00140596
0.00178524
0.00520488
0.00353203
0.00028214
0.00240038
0.00436463
0.00571466
0.00592306
0.00576297
0.00567423
0.00506834
0.00429957
0.00381242
0.00392742
0.00369006
0.0039247
0.00375673
0.0035161
0.00277614
0.00119855
0.00159318
0.00430772
0.00296283
0.000240954
0.001945
0.00350594
0.00475344
0.00472306
0.00460919
0.00456554
0.00404148
0.00346004
0.00305844
0.00276745
0.0030626
0.00310442
0.00318352
0.00276723
0.00227519
0.000920159
0.0011119
0.00341377
0.00207363
0.0001751
0.000953895
0.00241019
0.00304798
0.00324892
0.00341587
0.00326404
0.00292475
0.00257552
0.00245803
0.00211978
0.00224178
0.00224438
0.0022172
0.00201621
0.00186089
0.000669643
0.000719129
0.00242558
0.00124445
0.00020882
0.000731611
0.00173637
0.00199281
0.00207458
0.00196497
0.00203711
0.00175502
0.00146465
0.00131398
0.00134959
0.00116876
0.00115058
0.00149624
0.0013728
0.0010144
0.000662826
0.000646435
0.00159333
0.000632557
0.000362563
0.000554508
0.000656262
0.00061305
0.000805851
0.000735427
0.000562717
0.000595394
0.000573344
0.000281949
0.000228223
0.000611131
0.000480797
0.000559277
0.000456559
0.000181598
6.491e-06
0.000137574
0.000566827
0.00603374
0.000858655
0.00363868
0.00658796
0.00796493
0.00836035
0.00800736
0.00715186
0.00576695
0.00460613
0.00396655
0.00338681
0.00374986
0.0041004
0.0044197
0.00431336
0.00340826
0.0010936
0.00285267
0.00771193
0.00530832
0.00110376
0.00308044
0.00589445
0.00671587
0.00733517
0.00703469
0.0060824
0.00513724
0.00414783
0.00336033
0.00312307
0.0033545
0.00328968
0.00387842
0.00401539
0.00301324
0.000893804
0.00269748
0.00681409
0.00469484
0.000998705
0.00247339
0.0050307
0.00598414
0.00635635
0.0059605
0.00518621
0.00435634
0.0035958
0.00302081
0.00257417
0.00264651
0.00305644
0.00329032
0.00328109
0.00240871
0.000634715
0.00231474
0.00564346
0.00392961
0.000997621
0.00180122
0.00362119
0.00467274
0.00502245
0.00495771
0.00433056
0.00348586
0.00291213
0.00239226
0.00219995
0.00203802
0.00262823
0.00290527
0.00270825
0.00180387
0.000477487
0.0021081
0.00467374
0.00342382
0.000857026
0.00154735
0.00299613
0.00383776
0.00389253
0.0040017
0.0033198
0.00263292
0.00229529
0.00202773
0.00191804
0.00173976
0.00196568
0.00205984
0.00204695
0.0015852
0.000278826
0.00160812
0.00371302
0.00253096
0.00056551
0.0010419
0.00199239
0.00252555
0.00278002
0.00276878
0.00253644
0.00221119
0.00160663
0.00136288
0.000966252
0.00126046
0.00142818
0.00157666
0.00153554
0.00112533
0.000325128
0.0011142
0.00258239
0.00159151
0.000337138
0.000573944
0.00111085
0.00146924
0.00167616
0.00158938
0.00149298
0.00136049
0.00103392
0.000663234
0.000894872
0.000750149
0.00070162
0.000834633
0.00101703
0.000811018
0.000120484
0.000463764
0.00157209
0.00070613
0.000260482
0.000373799
0.0003745
0.000413657
0.000734141
0.00071096
0.000520654
0.000547752
0.000545192
0.000309527
0.000276943
7.59089e-05
0.000472099
0.0002653
0.000328861
7.98974e-05
3.27987e-05
0.000148246
0.000536212
0.00686332
0.00196783
0.00242695
0.00518706
0.00676746
0.00680217
0.00630839
0.00493306
0.00358393
0.00220925
0.00130585
0.000976311
0.00130944
0.002016
0.00230445
0.00254263
0.00197053
0.000421187
0.00396943
0.0085266
0.00626168
0.00199612
0.00195283
0.00437469
0.00569295
0.00606872
0.00541641
0.00433095
0.00320227
0.00178091
0.00101256
0.000555922
0.000992889
0.00161341
0.00215984
0.00240961
0.00165747
0.000217542
0.00358427
0.00738404
0.00536452
0.00173762
0.00165672
0.00368326
0.00480481
0.00491905
0.00470239
0.00357893
0.00264975
0.00174041
0.00108819
0.000531258
0.00115693
0.00142598
0.00192225
0.00198913
0.00136668
0.00015483
0.00326428
0.00612547
0.00437548
0.00145799
0.00130633
0.00295019
0.00418572
0.0040866
0.00377149
0.00317545
0.00217554
0.00148654
0.000997949
0.000721583
0.000856788
0.00125376
0.00163664
0.00166815
0.00121753
0.000504419
0.00274469
0.00494136
0.00362784
0.00136325
0.000646312
0.00223794
0.00309629
0.00324991
0.00312467
0.00245664
0.00147557
0.0012342
0.000875262
0.000448532
0.000697339
0.00100134
0.00129864
0.00142321
0.000902245
0.00012988
0.00213333
0.00411141
0.00245909
0.00087004
0.000686293
0.00151496
0.00220325
0.0022911
0.00231321
0.00192644
0.00133324
0.00075104
0.000384612
0.000322398
0.000542362
0.000585927
0.000970337
0.00118405
0.000635414
0.000400248
0.00157726
0.0030177
0.00174885
0.000712613
0.000346041
0.00101305
0.0013986
0.0013712
0.00127481
0.00111846
0.000997897
0.000642989
0.000365695
0.000263381
0.000433784
0.000438842
0.000619644
0.000743439
0.000474453
6.06744e-05
0.000950342
0.00179963
0.000456943
0.00036654
0.000346105
0.00017522
0.000275736
0.000502874
0.000439156
0.000328475
0.000349142
0.000402446
0.000219666
1.85536e-05
0.000218781
4.1639e-05
5.63738e-05
0.00029575
0.000251261
0.000127785
0.000361514
0.000526687
0.00787652
0.00305808
0.00102474
0.0037531
0.0052214
0.00525495
0.00467411
0.0030504
0.00130372
0.000192147
0.00107277
0.00162564
0.000966521
4.8686e-05
0.000611151
0.00115309
0.000397584
0.00155189
0.00518181
0.00953001
0.00678617
0.00295537
0.000859844
0.00327753
0.00429806
0.00468601
0.00382658
0.00282165
0.00121131
2.11726e-05
0.00103062
0.00129157
0.00076835
0.000103003
0.000848276
0.00104549
0.000410646
0.00176843
0.00447948
0.00823889
0.0060359
0.00254284
0.000337298
0.00278728
0.00366234
0.00379825
0.00304606
0.00238855
0.00111443
0.000268468
0.000851761
0.000986554
0.000472041
0.000120867
0.000619919
0.00101956
0.000238498
0.00144247
0.00389402
0.00703151
0.0050666
0.00218691
0.000264768
0.00215353
0.00284476
0.00325888
0.00252948
0.00196768
0.000905195
0.000250587
0.000866591
0.000790594
0.000504715
4.88736e-05
0.000559834
0.000676997
0.000318063
0.00124659
0.00348558
0.00589268
0.00421294
0.00207931
0.000293404
0.00153557
0.00250777
0.00244178
0.00213662
0.00157165
0.000730691
8.99575e-06
0.000631015
0.000846373
0.000541678
0.000358686
0.000734943
0.000395901
0.000406143
0.000936077
0.0026102
0.00441332
0.00306261
0.00155724
6.18792e-06
0.00109435
0.00161261
0.00180884
0.00146984
0.000900899
0.000669967
8.6947e-06
0.000692753
0.000569463
0.000349219
0.000100609
0.000338375
0.000251696
0.000106541
0.000672256
0.00178369
0.00310698
0.0018341
0.000826618
0.000149845
0.000820278
0.000879691
0.00100987
0.000984701
0.000826101
0.000548557
3.30736e-05
0.000221143
0.000550025
0.000181391
7.47737e-05
0.000198427
0.000325755
3.59829e-05
0.000450935
0.00119388
0.00188663
0.000767003
0.000392231
0.000116768
0.000211831
0.00045969
0.000249059
0.000470266
0.000196538
0.000167475
0.000207502
0.000135476
0.000211735
5.23358e-05
0.00026522
9.33813e-05
0.000131834
0.000143016
3.80186e-05
0.000401048
0.000673362
0.00836771
0.00401849
5.82674e-05
0.00252224
0.00365166
0.0037239
0.00289645
0.00142549
0.000368824
0.00226308
0.00319903
0.00334463
0.00286724
0.00169072
0.000902064
0.000418259
0.00088834
0.00295693
0.00635352
0.0103349
0.00759586
0.00378963
0.000256099
0.00186441
0.00306766
0.0032683
0.00258427
0.0012454
0.000390569
0.00181931
0.00281318
0.00299244
0.00249323
0.00149118
0.000624193
0.000435651
0.000787254
0.00254127
0.00544189
0.00872895
0.00648771
0.00328226
0.000292453
0.00152971
0.00268931
0.00269027
0.00212089
0.00116445
0.000289324
0.00142383
0.00235863
0.00231408
0.0017635
0.00122974
0.000436681
0.000120933
0.000590852
0.00215238
0.00457123
0.00757238
0.00552196
0.00279526
0.000468765
0.00117471
0.0022987
0.0023331
0.0019878
0.000932567
0.000433916
0.00123123
0.00209883
0.00194457
0.00159726
0.00107828
0.00038022
1.51857e-06
0.000544579
0.00175881
0.0036487
0.00616509
0.00436182
0.00244693
0.000647078
0.000888021
0.00160278
0.00196672
0.00170378
0.000608751
0.000253963
0.000936852
0.00145082
0.00161687
0.00131824
0.000813849
0.000117688
4.47431e-05
0.00052954
0.00150402
0.0032063
0.00487351
0.00331898
0.00202277
3.2104e-05
0.000962967
0.00122911
0.00113862
0.00108332
0.000335965
0.000105498
0.000789259
0.0012471
0.00121496
0.000907854
0.000590254
0.00019063
1.22119e-05
0.000404243
0.00119597
0.00225577
0.0036095
0.00194817
0.00113242
0.000183905
0.000492301
0.000787682
0.000563467
0.000484187
0.000286928
4.71364e-05
0.000529143
0.000513978
0.000775176
0.000601008
0.000432087
0.000108259
0.000196917
4.99825e-05
0.0007379
0.00152371
0.00208034
0.000811898
0.000320366
7.6332e-05
0.000362139
0.000349286
0.000285883
0.000299788
0.000143133
8.46081e-05
5.70709e-05
7.42506e-05
0.000118301
0.000192259
0.000352094
0.000259705
6.23022e-05
0.000216627
0.000406506
0.000417647
0.000905816
0.00936843
0.00493007
0.00103882
0.00125482
0.00248347
0.00260793
0.00157013
7.88346e-05
0.0018741
0.00328048
0.0047328
0.00481285
0.00412429
0.00312506
0.00190653
0.00169199
0.00191024
0.00353938
0.00672693
0.0105036
0.00820105
0.0045178
0.00113262
0.00105591
0.0022914
0.00221451
0.00142161
1.43309e-05
0.00119543
0.00302708
0.00403668
0.00409843
0.00372187
0.00264167
0.00189733
0.00115998
0.00160388
0.0031979
0.00610634
0.00911162
0.00697256
0.00393385
0.0014455
0.000952818
0.00201122
0.00182557
0.000966144
4.85091e-05
0.00129141
0.00261059
0.00336147
0.00361546
0.00295739
0.00224369
0.00140276
0.0008921
0.00124924
0.0027504
0.00525117
0.00791581
0.00596662
0.00323918
0.000763354
0.000635077
0.00117854
0.00142465
0.000932454
0.000242038
0.000900323
0.00222873
0.00301605
0.00280499
0.0023914
0.00182996
0.00111892
0.000831007
0.0010803
0.00237421
0.00438442
0.00658233
0.00486343
0.00265611
0.000592959
0.000468222
0.00100115
0.00117739
0.000873278
0.000170645
0.00083638
0.00166715
0.00227069
0.00220603
0.00171067
0.00141256
0.000896445
0.000619063
0.000883821
0.00177756
0.00335459
0.00502332
0.00347797
0.00206378
0.000653212
0.000153562
0.000859128
0.000739729
0.000352496
2.88049e-05
0.000637893
0.00147673
0.0017633
0.00183423
0.00136927
0.000899258
0.000677133
0.000554924
0.000601309
0.0012347
0.00237219
0.00324216
0.00219907
0.00136003
0.000390222
0.000126652
0.000409988
0.000515916
0.000202576
9.56992e-05
0.000194541
0.00049003
0.000867635
0.00098986
0.00111353
0.000613776
0.000436775
0.000307816
0.000270777
0.000648291
0.00157187
0.00231604
0.000583268
0.000531389
0.000189659
2.27122e-05
0.000316576
0.000124722
5.9992e-05
1.86523e-06
0.000310457
6.381e-05
0.000474791
0.000371396
0.000259999
0.000231178
0.000222024
7.70992e-05
0.000284146
0.000204132
0.000497145
0.000627265
0.00957445
0.00553954
0.00193656
0.00046893
0.00189397
0.00163027
0.000968733
0.000598226
0.00253055
0.00408595
0.00550038
0.00559212
0.00499151
0.00394141
0.0026812
0.00213022
0.00251212
0.00410563
0.00686654
0.0105347
0.00847638
0.00489373
0.00160036
0.000424836
0.00157202
0.00162625
0.000834838
0.000725973
0.00193164
0.00372336
0.00469597
0.0049134
0.00449104
0.00334417
0.00244289
0.00170237
0.00212771
0.003667
0.00617061
0.00914407
0.00744151
0.00421316
0.00153497
0.00046147
0.00107829
0.00141188
0.000431528
0.000423656
0.00198499
0.0031969
0.00401762
0.00419259
0.00372049
0.00281597
0.00182386
0.00161452
0.00181917
0.00314601
0.0053699
0.0076207
0.00617792
0.0036093
0.00142531
0.000187907
0.00111778
0.00103057
0.000560978
0.000455243
0.00136102
0.0026259
0.00326103
0.00336186
0.00301083
0.00244642
0.00171116
0.00108581
0.00168394
0.00265534
0.00452226
0.00639326
0.00479283
0.00300329
0.00103623
0.000217624
0.000817683
0.000890199
0.000380343
0.000130968
0.00129686
0.00214112
0.00275104
0.00283516
0.00239315
0.00157305
0.00126832
0.00102695
0.00127304
0.00204437
0.00347099
0.00522912
0.00362381
0.00199547
0.00101813
0.000220909
0.000584013
0.000808237
0.000431388
0.000152249
0.000929259
0.00126135
0.00206848
0.00178737
0.00184322
0.00147542
0.00096346
0.000550971
0.000929899
0.00147419
0.0025822
0.00348906
0.00237237
0.00144106
0.000660789
0.00031855
8.9135e-05
0.000472984
0.000262577
0.000319121
0.000486548
0.00107847
0.00103673
0.00112523
0.00078427
0.000820014
0.000840139
0.000660227
0.000577523
0.0013358
0.00149518
0.00229572
0.000799348
0.000441944
0.00021583
7.12945e-05
0.000200515
0.000195038
0.000220732
0.000242287
0.00029835
0.000419496
0.000232384
0.000651082
0.000436096
0.000181891
5.01039e-05
0.000166306
0.000171467
0.000380947
0.000444105
0.000640525
0.00954163
0.00557559
0.001987
0.000227702
0.00117911
0.00127278
0.000486136
0.00110846
0.00276964
0.00454
0.00578246
0.00598071
0.00509099
0.00389026
0.00293483
0.00215156
0.00251393
0.00406859
0.00708708
0.0102491
0.00849598
0.00505743
0.00177412
0.000435673
0.00107019
0.00136709
0.000264201
0.0009363
0.00253179
0.00410996
0.00494819
0.00500828
0.00428775
0.00338769
0.00248535
0.00160973
0.00233188
0.00353497
0.00609425
0.00885301
0.00723159
0.00450916
0.00170748
2.2499e-06
0.00106454
0.00110772
0.000501599
0.00085488
0.00191168
0.00342165
0.00405525
0.00415961
0.00376043
0.00287163
0.00237102
0.00192313
0.00196977
0.0029413
0.00494727
0.00745386
0.00623229
0.00367561
0.00165691
0.000104048
0.000753384
0.000712821
9.5996e-05
0.000562276
0.00170682
0.00264562
0.0033581
0.00357586
0.00289965
0.00237862
0.00156831
0.00146742
0.00138523
0.00245289
0.0044593
0.00640181
0.00480222
0.00280516
0.00113215
6.74736e-05
0.000475274
0.000640997
0.000177516
0.000473283
0.00114979
0.00210202
0.00277494
0.00269443
0.00232422
0.00172175
0.00129952
0.000948864
0.00128008
0.00181689
0.00355959
0.00494027
0.00349504
0.00211572
0.00113365
0.000119528
0.000131144
0.000533423
3.01653e-05
0.000210754
0.000908376
0.0015971
0.00223328
0.00189635
0.00151476
0.00137303
0.000954773
0.00098472
0.000791105
0.00179679
0.00247089
0.00361774
0.0021602
0.00127019
0.000623335
2.91032e-05
0.000335906
0.000175889
3.7802e-05
8.6674e-05
0.000544625
0.000912164
0.00130853
0.00139913
0.000916503
0.000720845
0.000535742
0.000197944
0.000505634
0.00107058
0.0014461
0.00221602
0.000893764
0.000633273
1.47184e-05
9.71593e-05
8.40663e-05
0.000266382
9.55978e-05
2.04142e-05
4.52308e-05
0.000555103
0.000427042
0.000643374
0.000502289
0.000202581
0.000196756
2.09968e-05
9.71171e-05
0.000374212
0.000342916
0.000480623
0.00929209
0.00517196
0.00181901
0.000330023
0.00144609
0.00143727
0.000479233
0.000885646
0.00265262
0.00420287
0.00499721
0.00510008
0.00458075
0.00343283
0.00233487
0.00176074
0.00201562
0.00381613
0.00637628
0.00936354
0.00774904
0.00515335
0.00206445
0.000161157
0.000871368
0.00114111
0.000629467
0.000692205
0.00215473
0.00343299
0.00431226
0.00453396
0.0037777
0.00293684
0.00181238
0.00163168
0.00177075
0.00310812
0.00564012
0.00818072
0.00699903
0.00408391
0.00170741
0.000228109
0.00113127
0.0008569
0.000457737
0.000810899
0.00200043
0.0029211
0.00342994
0.00372225
0.00320796
0.0026098
0.00174824
0.00117953
0.00143386
0.0028131
0.00497341
0.00712307
0.00586162
0.00373046
0.00161872
0.000121553
0.000882716
0.000976084
0.000396552
0.000472393
0.00152483
0.00253987
0.00288652
0.00317111
0.00244653
0.00187265
0.0014708
0.000882167
0.00127197
0.00245527
0.00399022
0.00579907
0.00443093
0.00287122
0.00105679
0.000154415
0.000611887
0.000543065
0.000231149
0.000508296
0.000984887
0.00182777
0.0023165
0.00210406
0.00210754
0.00143898
0.000962244
0.000756285
0.000969405
0.00163391
0.00298821
0.00463177
0.00330421
0.00198819
0.00105686
9.20567e-06
0.000627525
0.000498965
0.000251016
0.000332716
0.000834228
0.00122139
0.00182851
0.00159591
0.00161401
0.00118679
0.000753331
0.000479519
0.000721366
0.00118455
0.00197548
0.00346266
0.00199555
0.00128543
0.000519622
6.83325e-05
0.000352556
0.000225309
3.50812e-05
1.45245e-05
0.000524737
0.000821889
0.00118651
0.00114842
0.00110448
0.000666355
0.000380814
0.000368469
0.00052482
0.000938454
0.00103898
0.00208693
0.000667062
0.000470252
0.000212693
0.000143753
2.79107e-05
0.000106701
1.20165e-05
1.12357e-05
0.00039541
0.000110528
0.000426397
0.000381339
0.000167616
0.000202949
0.000247503
6.94599e-05
7.24936e-05
0.00023497
0.000518159
0.000765863
0.00817743
0.00464592
0.00177248
0.000812127
0.00196942
0.00222346
0.00133823
3.99897e-05
0.0014572
0.00282592
0.0036287
0.00380641
0.00328519
0.00205695
0.0012711
0.000932181
0.00141145
0.00264633
0.00524924
0.00854512
0.0072915
0.00427006
0.00130768
0.000562747
0.00155178
0.00187903
0.00131296
5.47613e-05
0.00115944
0.00216344
0.0032227
0.00323587
0.00268466
0.00197666
0.00107742
0.000474569
0.000773494
0.00232656
0.00437669
0.0072909
0.00629643
0.00372846
0.00109549
0.000349645
0.00128424
0.00168863
0.00129484
7.20045e-05
0.000929282
0.00196281
0.00282974
0.00278699
0.00231301
0.00151537
0.00065324
0.000480673
0.000750283
0.00185956
0.00384602
0.00619155
0.00525976
0.00313258
0.00112115
0.000486992
0.00117008
0.0010916
0.000798719
0.000218837
0.000542314
0.00173454
0.00211408
0.00218695
0.00172826
0.00119286
0.000348015
0.000518173
0.000576015
0.00159235
0.00305152
0.00492217
0.00413031
0.00243172
0.000998124
0.000348281
0.000906986
0.000977403
0.000886832
0.000141155
0.000682097
0.00102462
0.00177951
0.00179966
0.00134836
0.00114255
0.000396287
0.000187599
0.000414429
0.00117392
0.00246228
0.00388206
0.00293447
0.00168214
0.000511107
0.000479535
0.000773166
0.000949981
0.000531292
0.000118372
0.000288318
0.000838555
0.00118781
0.00132018
0.000825992
0.000669303
0.000179776
0.000173477
0.000122968
0.000807001
0.00201414
0.00312865
0.00184092
0.000831116
0.000404266
9.02038e-05
0.0003246
0.00034479
0.000283706
0.000104032
0.000381071
0.000333075
0.00053675
0.000873543
0.000585991
0.000652405
0.000176913
8.42549e-05
0.000190336
0.000457851
0.00119632
0.00184711
0.000793419
0.000408738
8.67928e-05
1.0937e-05
1.48437e-05
9.0197e-05
0.000285826
3.12725e-06
2.61909e-05
8.81224e-05
5.42804e-05
0.000137885
0.000324661
0.000120882
0.00022425
8.79308e-05
0.000156116
4.06729e-05
0.000364823
0.00066541
0.00700086
0.00353219
0.000556827
0.00167074
0.00289508
0.00328319
0.00250946
0.00127191
0.000159642
0.000881399
0.00163112
0.00180581
0.00131295
0.000438202
0.000275166
0.000657393
0.000231774
0.00105468
0.00358171
0.00646767
0.00636505
0.00314585
0.000382009
0.00130789
0.00250769
0.00279019
0.00223277
0.00143854
0.000244636
0.000874308
0.00129325
0.00134495
0.00102521
0.000263537
0.000281716
0.000692346
0.000314451
0.000840877
0.00328388
0.0057124
0.00530956
0.00295291
0.000376874
0.00136079
0.00224906
0.00239499
0.00216722
0.00126308
0.000516104
0.000400177
0.000908784
0.000903011
0.000719697
0.000222417
0.000584705
0.000710272
0.000407324
0.000528143
0.00248685
0.0049334
0.00446104
0.00215152
0.00032706
0.000901414
0.00185388
0.00213051
0.00168529
0.000914153
9.16013e-05
0.000530627
0.000636117
0.000898868
0.000596404
6.14394e-05
0.000233974
0.000582632
0.000238133
0.000830617
0.00218804
0.00394651
0.00335023
0.00183206
0.000255463
0.000912901
0.00100338
0.00152559
0.0013409
0.000851226
0.000411816
0.000336941
0.00045754
0.000615883
0.000433936
0.000144869
0.000259292
0.000577126
0.000325962
0.000504199
0.00187071
0.00302144
0.00252292
0.00128921
7.51478e-05
0.000574636
0.00091702
0.00124242
0.0008372
0.000459062
0.000276047
8.83642e-05
0.000587453
0.000515179
0.00025489
0.000273314
0.000262125
0.000275711
0.000219413
0.000337914
0.0012366
0.00211954
0.00150735
0.000798214
2.53364e-05
0.000188382
0.000663032
0.000623859
0.000487858
0.00051054
0.00014743
4.42366e-05
0.00033845
0.00034619
0.00013439
6.39669e-05
0.00012427
0.000262808
0.000219141
9.73175e-05
0.000727441
0.00143078
0.00050729
9.98941e-05
2.78508e-05
0.000179475
0.000303789
8.08833e-05
1.14833e-06
6.54957e-05
1.19124e-05
0.000231434
0.000173218
1.83438e-05
0.000120945
0.000115292
8.45522e-05
0.000170366
2.79571e-05
6.01734e-05
6.14583e-05
0.000602026
0.00502354
0.0018838
0.00111435
0.00323869
0.00446395
0.00480297
0.00418427
0.00350398
0.00264258
0.0012619
0.000884788
0.000814542
0.00107668
0.00185498
0.00243422
0.00255725
0.00234113
0.000677448
0.00183509
0.00440612
0.00442578
0.00173809
0.00105722
0.00294266
0.00393126
0.00404801
0.00392707
0.00304922
0.00233713
0.00132209
0.00111873
0.000839465
0.00104288
0.00166519
0.00235836
0.00246335
0.00183983
0.000819645
0.00114782
0.00367338
0.00389516
0.00139086
0.00072439
0.0023926
0.00343908
0.0035072
0.00343958
0.00276029
0.00203106
0.00112519
0.000865738
0.000956853
0.00111466
0.0016224
0.00226895
0.00227906
0.00201881
0.000369008
0.00118752
0.00326928
0.00346483
0.00121771
0.00062431
0.00211718
0.00262305
0.00313214
0.00300431
0.00229506
0.00168719
0.00110311
0.000880868
0.000697888
0.000996877
0.0012944
0.0017143
0.00188621
0.00165605
0.000387424
0.00092883
0.0028066
0.00291226
0.00123455
0.000534449
0.00175777
0.00227523
0.00241645
0.00233056
0.00173232
0.00141728
0.000773321
0.000752459
0.000539684
0.000692026
0.00128271
0.00150006
0.00152061
0.00117531
0.000475982
0.000654143
0.00195564
0.00185787
0.000728458
0.00045016
0.00123151
0.0016572
0.00172649
0.00187284
0.00112853
0.0011404
0.000629572
0.000656469
0.000596499
0.000633748
0.00103174
0.00110634
0.00122751
0.000736693
0.00019897
0.000513253
0.0014732
0.00117109
0.000450929
0.000130333
0.000711515
0.00114571
0.000923009
0.000938398
0.00050871
0.000535458
0.000514516
0.000307535
0.000204495
0.000412551
0.00058256
0.000673902
0.000745072
0.000555248
0.000360655
0.000488954
0.000637719
0.00044367
0.000321628
0.000193927
0.000352727
0.000448567
0.000401576
0.000349473
0.000203437
0.000226732
1.0191e-06
6.89349e-05
0.000266126
0.000342234
0.000267161
0.00011187
0.000133979
0.000140161
5.52678e-05
5.51545e-05
0.00021998
0.00306834
3.16045e-05
0.00321277
0.00537335
0.00635394
0.00677354
0.0065616
0.00585971
0.00497553
0.00439186
0.00370938
0.00386112
0.00426224
0.004513
0.00508565
0.00518233
0.00466553
0.0030219
0.000667846
0.00226797
0.00280853
6.90781e-05
0.00245619
0.00472018
0.0056027
0.00603707
0.00562419
0.00504007
0.0045051
0.003822
0.00370377
0.00333546
0.00381874
0.00428114
0.00473546
0.00473301
0.00401509
0.00259775
0.000565477
0.00169042
0.00237501
2.34374e-05
0.00223473
0.00390709
0.00474489
0.00499917
0.00503424
0.00455386
0.00393039
0.00355722
0.00322377
0.00314738
0.00332213
0.00357865
0.0040835
0.00423445
0.00365258
0.00240996
0.000874568
0.00137038
0.00182518
6.32342e-05
0.00195373
0.00340262
0.00406817
0.00459233
0.00421347
0.00391752
0.00348326
0.00296708
0.00265029
0.00277353
0.00279851
0.00313386
0.00345894
0.00342233
0.00298279
0.00219435
0.00045384
0.000950373
0.00157127
3.69929e-05
0.00156172
0.00253891
0.00330107
0.00349809
0.00340805
0.00291117
0.0024245
0.00232249
0.00217489
0.00210853
0.00244826
0.00262094
0.00296552
0.00281049
0.00245154
0.00175884
0.000469167
0.000818396
0.00118686
0.000129623
0.00123412
0.00167273
0.00245468
0.00234178
0.00246619
0.00236845
0.00217028
0.0019063
0.00161026
0.00146498
0.00179691
0.00185424
0.00234381
0.00204372
0.00179344
0.00122856
0.000610747
0.000559555
0.000499122
0.00029714
0.000738378
0.00132481
0.00141653
0.00165551
0.00158896
0.00140761
0.00142778
0.00111179
0.0010483
0.00108668
0.000935047
0.00124679
0.0012312
0.0014746
0.00096919
0.00107543
5.36564e-05
0.000311958
0.000546868
8.1721e-05
0.000388424
0.000574819
0.00042649
0.000597643
0.000499959
0.000709299
0.000383969
0.000351153
0.000505993
0.00019203
0.000471834
0.000461731
0.000413959
0.000596632
0.000226681
0.000239353
0.000121783
7.88646e-05
0.000623579
0.00237635
0.00535857
0.00757447
0.00867206
0.00921029
0.00928571
0.00873375
0.00806157
0.0075877
0.00697466
0.00721282
0.00740808
0.00767381
0.00809398
0.00810393
0.00727909
0.00599363
0.00333487
0.000574357
0.000752461
0.00212564
0.00473444
0.00656324
0.00789552
0.00827184
0.00813993
0.00792851