/*--------------------------------*- C++ -*----------------------------------*\
| =========                 |                                                 |
| \\      /  F ield         | OpenFOAM: The Open Source CFD Toolbox           |
|  \\    /   O peration     | Version:  2212                                  |
|   \\  /    A nd           | Website:  www.openfoam.com                      |
|    \\/     M anipulation  |                                                 |
\*---------------------------------------------------------------------------*/
FoamFile
{
    version     2.0;
    format      ascii;
    arch        "LSB;label=32;scalar=64";
    class       volScalarField;
    location    "0";
    object      stateMean;
}
// * * * * * * * * * * * * * * * * * * * * * * * * * * * * * * * * * * * * * //

dimensions      [0 0 0 1 0 0 0];

internalField   nonuniform List<scalar> 
3200
(
349.339
348.09
347.194
346.906
347.182
347.863
348.682
349.515
350.209
350.727
350.862
350.751
350.341
349.657
348.903
348.317
347.811
347.966
348.665
349.852
342.869
341.79
341.014
340.825
341.068
341.604
342.253
342.899
343.538
343.972
344.239
344.013
343.641
343.049
342.458
341.85
341.563
341.664
342.312
343.156
336.258
335.37
334.733
334.568
334.86
335.3
335.868
336.314
336.939
337.244
337.367
337.262
336.943
336.525
335.93
335.46
335.23
335.221
335.751
336.582
329.679
328.992
328.538
328.275
328.535
328.804
329.29
329.835
330.164
330.467
330.69
330.532
330.325
329.916
329.451
329.033
328.86
328.895
329.321
329.907
323.096
322.593
322.215
322.094
322.214
322.496
322.876
323.226
323.502
323.699
323.879
323.719
323.531
323.28
322.901
322.634
322.461
322.532
322.782
323.29
316.444
316.177
315.911
315.792
315.895
316.057
316.384
316.661
316.87
317.004
317.003
316.989
316.812
316.684
316.383
316.205
315.97
316.039
316.288
316.676
309.865
309.745
309.496
309.486
309.475
309.678
309.814
309.974
310.085
310.222
310.258
310.204
310.09
310.037
309.865
309.714
309.668
309.672
309.747
310.007
303.336
303.279
303.206
303.166
303.204
303.193
303.35
303.343
303.343
303.358
303.508
303.403
303.417
303.359
303.292
303.285
303.203
303.253
303.333
303.373
349.418
348.186
347.361
347.047
347.539
348.172
349.085
349.973
350.731
351.247
351.398
351.289
350.828
350.152
349.371
348.684
348.174
348.162
348.863
350.001
342.894
341.933
341.161
340.975
341.284
341.821
342.521
343.289
343.974
344.472
344.642
344.48
344.051
343.506
342.786
342.198
341.699
341.764
342.474
343.318
336.469
335.506
334.959
334.819
334.99
335.482
336.097
336.706
337.3
337.554
337.763
337.624
337.364
336.857
336.195
335.76
335.415
335.409
335.956
336.708
329.763
329.106
328.636
328.526
328.779
329.069
329.568
330.006
330.475
330.807
330.869
330.907
330.462
330.062
329.663
329.163
328.936
329.031
329.325
330.072
323.17
322.707
322.243
322.162
322.387
322.604
323.005
323.314
323.752
323.965
324.081
324.022
323.803
323.477
323.133
322.761
322.523
322.542
322.89
323.287
316.591
316.178
315.918
315.811
315.919
316.137
316.434
316.788
316.962
317.162
317.173
317.13
316.964
316.797
316.505
316.174
316.109
316.07
316.342
316.664
309.941
309.639
309.563
309.515
309.56
309.739
309.9
310.027
310.262
310.317
310.396
310.332
310.122
310.078
309.942
309.728
309.697
309.662
309.878
309.965
303.345
303.355
303.158
303.198
303.106
303.312
303.326
303.324
303.403
303.429
303.472
303.509
303.356
303.347
303.371
303.301
303.281
303.256
303.298
303.309
349.79
348.552
347.818
347.574
348.042
348.876
349.732
350.654
351.547
352.028
352.302
352.162
351.611
350.937
350.082
349.137
348.644
348.599
349.355
350.365
343.274
342.225
341.523
341.392
341.697
342.321
343.169
343.981
344.645
345.032
345.363
345.241
344.861
344.078
343.317
342.689
342.259
342.176
342.773
343.715
336.568
335.77
335.187
335.078
335.375
335.865
336.553
337.237
337.897
338.212
338.384
338.258
337.853
337.43
336.69
336.123
335.769
335.777
336.185
336.943
330.042
329.327
328.825
328.684
328.943
329.398
329.937
330.451
330.907
331.273
331.432
331.271
331.065
330.586
330.001
329.586
329.28
329.258
329.654
330.215
323.329
322.841
322.509
322.407
322.531
322.944
323.287
323.684
324.062
324.387
324.435
324.386
324.099
323.76
323.362
322.984
322.695
322.74
323.083
323.546
316.666
316.345
316.122
316.011
316.083
316.339
316.601
316.868
317.228
317.388
317.483
317.407
317.293
316.987
316.699
316.462
316.165
316.297
316.489
316.724
310.069
309.788
309.681
309.675
309.646
309.886
309.963
310.258
310.408
310.379
310.475
310.385
310.445
310.297
310.035
309.981
309.82
309.764
309.961
310.009
303.303
303.308
303.258
303.286
303.219
303.236
303.374
303.44
303.479
303.524
303.49
303.473
303.493
303.517
303.298
303.247
303.236
303.285
303.355
303.354
350.462
349.313
348.427
348.298
348.845
349.519
350.625
351.572
352.478
353.094
353.305
353.318
352.708
351.92
350.903
350.006
349.464
349.425
350.052
351.043
343.703
342.77
342.078
341.94
342.428
343.092
343.916
344.715
345.513
346.022
346.238
346.149
345.677
344.98
344.102
343.329
342.946
342.816
343.367
344.24
337.068
336.214
335.724
335.65
335.902
336.459
337.142
337.878
338.518
338.957
339.15
339.063
338.705
338.11
337.36
336.723
336.316
336.314
336.732
337.381
330.328
329.659
329.309
329.243
329.393
329.905
330.493
330.971
331.498
331.927
332.089
331.878
331.632
331.104
330.624
330.121
329.768
329.705
330.091
330.583
323.649
323.079
322.787
322.735
322.795
323.258
323.71
324.074
324.497
324.82
324.951
324.912
324.563
324.199
323.758
323.439
323.133
323.118
323.36
323.795
316.875
316.492
316.43
316.293
316.423
316.683
316.927
317.224
317.514
317.72
317.757
317.77
317.55
317.299
317.011
316.75
316.467
316.52
316.665
316.986
310.128
309.938
309.823
309.706
309.826
309.996
310.208
310.336
310.532
310.68
310.727
310.658
310.606
310.461
310.175
310.019
309.93
309.844
310.073
310.237
303.458
303.419
303.201
303.235
303.315
303.322
303.404
303.506
303.532
303.559
303.647
303.644
303.491
303.481
303.397
303.362
303.379
303.367
303.351
303.438
351.272
350.152
349.449
349.351
349.824
350.616
351.595
352.615
353.627
354.313
354.541
354.473
353.823
352.98
352.009
351.112
350.469
350.341
350.85
351.858
344.441
343.583
342.897
342.742
343.288
343.88
344.724
345.675
346.453
347.035
347.309
347.154
346.623
346.024
345.077
344.221
343.735
343.65
344.13
344.957
337.654
336.895
336.359
336.183
336.563
337.119
337.879
338.665
339.328
339.788
339.984
339.936
339.53
338.866
338.16
337.478
337.069
336.979
337.338
337.973
330.821
330.244
329.836
329.797
330.024
330.466
330.999
331.636
332.228
332.583
332.756
332.657
332.399
331.774
331.169
330.675
330.399
330.273
330.61
331.066
324.079
323.549
323.172
323.14
323.314
323.731
324.094
324.649
325.114
325.351
325.438
325.347
325.163
324.756
324.327
323.896
323.597
323.583
323.792
324.172
317.22
316.809
316.586
316.597
316.747
316.977
317.265
317.577
317.854
318.137
318.215
318.25
317.984
317.692
317.36
317.061
316.872
316.813
316.983
317.236
310.356
310.094
309.982
310.003
310.085
310.207
310.405
310.578
310.723
310.879
310.995
310.868
310.809
310.681
310.469
310.225
310.096
310.123
310.133
310.35
303.52
303.427
303.293
303.355
303.407
303.373
303.437
303.543
303.57
303.588
303.66
303.652
303.678
303.51
303.515
303.433
303.445
303.396
303.393
303.469
352.328
351.277
350.572
350.499
350.855
351.729
352.714
353.879
354.85
355.598
355.92
355.778
355.167
354.237
353.322
352.348
351.633
351.573
351.979
352.91
345.43
344.526
343.89
343.833
344.169
344.807
345.733
346.697
347.515
348.233
348.501
348.437
347.859
347.055
346.163
345.306
344.772
344.638
345.072
345.815
338.438
337.682
337.146
337.119
337.409
338.019
338.686
339.563
340.238
340.737
340.96
340.961
340.389
339.801
339.037
338.364
337.903
337.757
338.196
338.694
331.424
330.836
330.418
330.412
330.551
331.114
331.704
332.307
332.934
333.318
333.481
333.419
333.08
332.543
331.929
331.386
330.987
331.017
331.261
331.611
324.499
324.054
323.789
323.692
323.839
324.203
324.62
325.153
325.701
325.899
326.016
326.036
325.727
325.312
324.838
324.383
324.125
324.04
324.303
324.655
317.45
317.15
316.93
316.967
317.053
317.321
317.584
317.931
318.283
318.554
318.67
318.605
318.372
318.133
317.741
317.377
317.246
317.275
317.374
317.627
310.556
310.357
310.193
310.165
310.229
310.415
310.607
310.791
310.925
311.088
311.174
311.154
311.004
310.867
310.648
310.432
310.333
310.319
310.431
310.572
303.496
303.508
303.348
303.46
303.49
303.481
303.555
303.634
303.66
303.662
303.717
303.76
303.668
303.675
303.617
303.484
303.437
303.492
303.507
303.517
353.609
352.554
351.915
351.808
352.154
352.976
353.943
355.154
356.235
357.01
357.324
357.28
356.585
355.588
354.624
353.594
352.993
352.823
353.3
354.19
346.411
345.63
345.003
344.908
345.303
345.893
346.849
347.748
348.705
349.344
349.697
349.579
349
348.145
347.226
346.431
345.9
345.911
346.156
346.911
339.34
338.607
338.214
338.01
338.347
338.913
339.726
340.414
341.183
341.831
342.03
341.901
341.39
340.723
339.994
339.245
338.874
338.816
339.063
339.676
332.204
331.611
331.272
331.157
331.446
331.81
332.508
333.074
333.703
334.232
334.438
334.269
333.899
333.335
332.709
332.167
331.766
331.773
332.04
332.477
325.117
324.702
324.299
324.294
324.381
324.793
325.246
325.725
326.211
326.565
326.768
326.726
326.415
325.825
325.349
325.068
324.661
324.698
324.874
325.182
317.947
317.664
317.429
317.368
317.492
317.708
318.069
318.461
318.686
318.982
319.2
319.082
318.859
318.505
318.176
317.925
317.682
317.644
317.736
317.961
310.766
310.57
310.517
310.386
310.541
310.668
310.828
311.003
311.181
311.389
311.468
311.523
311.316
311.111
310.92
310.713
310.63
310.61
310.683
310.782
303.651
303.576
303.475
303.503
303.485
303.605
303.589
303.714
303.754
303.758
303.862
303.869
303.758
303.651
303.709
303.585
303.524
303.498
303.579
303.622
354.874
353.947
353.265
353.2
353.612
354.367
355.37
356.482
357.547
358.446
358.781
358.61
358.015
357.005
356.013
355.056
354.408
354.331
354.77
355.566
347.634
346.831
346.263
346.226
346.512
347.119
347.97
348.946
349.885
350.577
350.924
350.795
350.252
349.392
348.474
347.729
347.146
347.054
347.402
348.025
340.289
339.629
339.166
339.137
339.339
339.911
340.623
341.38
342.187
342.737
343.057
342.88
342.381
341.767
340.977
340.295
339.858
339.797
340.065
340.656
333.005
332.443
332.119
332.055
332.17
332.626
333.165
333.869
334.579
334.978
335.268
335.084
334.715
334.189
333.531
332.934
332.627
332.547
332.726
333.218
325.67
325.311
325.074
324.95
325.097
325.343
325.758
326.389
326.867
327.193
327.361
327.312
327.019
326.58
326.022
325.634
325.411
325.353
325.557
325.836
318.387
318.161
317.777
317.729
317.915
318.204
318.457
318.891
319.172
319.464
319.61
319.526
319.288
318.99
318.628
318.302
318.164
318.147
318.235
318.479
311.018
310.875
310.728
310.679
310.75
310.977
311.142
311.322
311.51
311.704
311.699
311.736
311.598
311.428
311.186
311.056
310.848
310.9
310.996
311.059
303.736
303.624
303.6
303.521
303.58
303.651
303.694
303.782
303.827
303.885
303.845
303.817
303.883
303.892
303.817
303.667
303.697
303.7
303.654
303.765
356.488
355.491
354.825
354.767
355.089
355.769
356.794
357.868
358.956
359.664
360.185
360.009
359.372
358.472
357.379
356.575
355.892
355.712
356.127
356.889
348.932
348.141
347.581
347.476
347.701
348.357
349.2
350.171
350.921
351.74
352.094
351.939
351.469
350.621
349.792
348.904
348.401
348.298
348.691
349.247
341.373
340.742
340.415
340.153
340.348
340.942
341.715
342.459
343.169
343.769
344.027
343.965
343.455
342.812
342.045
341.338
340.902
340.859
341.189
341.693
333.902
333.319
332.918
332.905
333.179
333.531
334.087
334.642
335.258
335.824
336.088
335.896
335.523
335.011
334.381
333.849
333.477
333.454
333.7
334.107
326.416
325.945
325.602
325.607
325.788
326.069
326.473
326.954
327.464
327.83
328.027
327.912
327.569
327.22
326.746
326.316
326.048
325.987
326.173
326.468
318.854
318.579
318.364
318.358
318.386
318.666
319.007
319.29
319.632
319.968
320.059
320.014
319.736
319.406
319.118
318.837
318.598
318.549
318.677
318.779
311.344
311.188
311.026
311.017
311.08
311.192
311.421
311.562
311.73
311.862
311.979
311.978
311.939
311.675
311.489
311.304
311.14
311.107
311.253
311.381
303.751
303.77
303.713
303.699
303.661
303.767
303.867
303.885
304.005
303.944
304.069
304.024
303.965
303.919
303.872
303.734
303.792
303.717
303.76
303.764
357.994
357.099
356.486
356.334
356.527
357.291
358.128
359.184
360.232
360.977
361.485
361.332
360.761
359.888
358.834
357.965
357.397
357.258
357.571
358.335
350.267
349.476
348.905
348.809
349.016
349.577
350.374
351.35
352.08
352.87
353.212
353.128
352.672
351.84
351.001
350.161
349.699
349.625
349.92
350.499
342.576
341.855
341.427
341.261
341.566
341.942
342.718
343.373
344.169
344.721
345.003
344.927
344.505
343.832
343.05
342.487
342.04
341.976
342.249
342.637
334.826
334.274
333.941
333.824
333.935
334.365
334.882
335.519
336.035
336.569
336.783
336.706
336.376
335.89
335.283
334.672
334.449
334.351
334.578
334.897
327.055
326.704
326.37
326.288
326.42
326.708
327.155
327.552
328.099
328.462
328.662
328.603
328.293
327.794
327.414
327.022
326.774
326.699
326.857
327.197
319.372
319.018
318.925
318.765
318.883
319.034
319.354
319.705
320.071
320.238
320.497
320.346
320.245
319.963
319.6
319.245
319.131
319.071
319.205
319.329
311.682
311.489
311.378
311.214
311.425
311.44
311.625
311.906
312.029
312.249
312.236
312.228
312.051
311.963
311.849
311.659
311.493
311.588
311.506
311.658
303.911
303.835
303.811
303.814
303.778
303.825
303.857
304.031
304.072
304.121
304.064
304.179
304.09
303.979
303.869
303.89
303.844
303.861
303.836
303.863
359.591
358.68
358.02
357.88
358.186
358.766
359.596
360.619
361.54
362.345
362.793
362.697
362.054
361.171
360.277
359.381
358.862
358.764
359.219
359.843
351.664
350.889
350.277
350.068
350.408
350.835
351.696
352.508
353.348
354.049
354.345
354.221
353.688
352.981
352.188
351.348
351.038
350.893
351.251
351.788
343.678
343.101
342.595
342.489
342.598
343.033
343.643
344.438
345.036
345.679
345.897
345.81
345.438
344.802
344.227
343.623
343.163
343.017
343.251
343.754
335.802
335.232
334.925
334.796
334.898
335.279
335.814
336.304
336.881
337.297
337.537
337.51
337.09
336.645
336.044
335.642
335.225
335.191
335.493
335.858
327.801
327.366
327.105
327.017
327.185
327.417
327.824
328.247
328.618
329.008
329.229
329.125
328.855
328.447
328.053
327.652
327.458
327.329
327.612
327.846
319.861
319.575
319.465
319.282
319.494
319.569
319.913
320.139
320.47
320.745
320.949
320.786
320.557
320.362
320.045
319.851
319.573
319.676
319.688
319.9
311.933
311.747
311.668
311.595
311.629
311.801
311.978
312.029
312.29
312.438
312.561
312.557
312.342
312.191
312.023
311.796
311.762
311.807
311.802
311.951
304.047
303.997
303.85
303.86
303.959
303.893
303.982
304.047
304.077
304.243
304.204
304.259
304.194
304.073
304.034
303.927
303.92
303.96
303.909
303.921
361.287
360.28
359.653
359.482
359.674
360.236
361.079
361.978
362.907
363.618
363.905
363.793
363.315
362.492
361.596
360.829
360.326
360.37
360.711
361.313
352.945
352.432
351.845
351.583
351.848
352.238
352.849
353.668
354.435
355.018
355.329
355.277
354.758
354.108
353.279
352.73
352.263
352.211
352.603
353.096
344.901
344.23
343.833
343.609
343.734
344.239
344.74
345.476
346.098
346.526
346.702
346.693
346.303
345.798
345.136
344.529
344.18
344.213
344.535
344.944
336.741
336.291
335.924
335.7
335.801
336.106
336.598
337.135
337.662
338.095
338.211
338.217
337.8
337.363
336.929
336.394
336.168
336.204
336.378
336.72
328.504
328.197
327.867
327.852
327.877
328.161
328.495
328.928
329.219
329.566
329.727
329.587
329.454
329.044
328.655
328.326
328.119
328.056
328.235
328.57
320.389
320.111
320.002
319.867
319.861
320.089
320.335
320.657
320.913
321.088
321.282
321.158
321.067
320.795
320.49
320.215
320.095
320.043
320.107
320.44
312.235
312.099
311.973
311.91
311.94
312.092
312.273
312.348
312.564
312.687
312.801
312.759
312.688
312.47
312.281
312.165
312.095
312.104
312.022
312.263
304.096
304.064
304.024
304.043
304.047
304.045
304.106
304.14
304.277
304.201
304.297
304.273
304.188
304.172
304.152
304.06
304.021
304.03
304.078
304.126
362.852
362.014
361.51
361.128
361.252
361.667
362.437
363.274
364.078
364.71
365.002
364.932
364.482
363.67
362.934
362.302
361.932
361.825
362.232
362.984
354.483
353.785
353.199
353.018
353.138
353.463
354.053
354.816
355.471
355.943
356.32
356.208
355.788
355.219
354.51
353.855
353.49
353.559
353.823
354.483
346.094
345.513
344.993
344.899
344.974
345.207
345.673
346.364
346.901
347.357
347.658
347.545
347.19
346.646
346.017
345.584
345.279
345.256
345.554
346.057
337.709
337.239
336.877
336.667
336.761
337.094
337.462
337.877
338.289
338.774
338.902
338.845
338.535
338.135
337.579
337.331
337.025
337.036
337.212
337.596
329.315
328.944
328.718
328.533
328.603
328.816
329.056
329.472
329.865
330.041
330.29
330.233
329.963
329.724
329.268
328.963
328.783
328.776
328.954
329.233
320.918
320.649
320.449
320.315
320.402
320.515
320.799
321.054
321.271
321.492
321.605
321.602
321.357
321.185
320.878
320.706
320.508
320.543
320.756
320.98
312.574
312.338
312.31
312.266
312.302
312.397
312.506
312.701
312.839
312.851
312.915
312.993
312.851
312.799
312.56
312.377
312.353
312.327
312.452
312.576
304.264
304.173
304.11
304.124
304.162
304.164
304.135
304.247
304.272
304.3
304.29
304.306
304.345
304.185
304.259
304.13
304.168
304.096
304.16
304.225
364.571
363.715
363.124
362.821
362.868
363.187
363.873
364.653
365.291
365.791
366.065
366.009
365.596
364.948
364.283
363.683
363.344
363.305
363.733
364.378
356.009
355.208
354.65
354.489
354.49
354.788
355.337
355.904
356.531
357.034
357.183
357.098
356.782
356.226
355.681
355.135
354.841
354.813
355.257
355.778
347.316
346.783
346.247
346.016
346.07
346.356
346.732
347.287
347.716
348.123
348.3
348.21
347.976
347.562
346.985
346.604
346.346
346.3
346.622
347.186
338.717
338.164
337.837
337.725
337.7
337.882
338.276
338.734
339.152
339.435
339.471
339.488
339.246
338.868
338.524
338.13
337.95
338.008
338.176
338.544
330.049
329.723
329.428
329.279
329.479
329.523
329.772
330.088
330.341
330.644
330.684
330.681
330.512
330.263
329.94
329.62
329.473
329.51
329.736
329.941
321.493
321.22
320.99
320.95
321.005
321.055
321.32
321.551
321.687
321.844
322.005
321.942
321.781
321.501
321.37
321.211
321.065
321.074
321.203
321.364
312.895
312.746
312.6
312.635
312.586
312.69
312.813
312.872
313.033
313.117
313.209
313.187
313.074
312.946
312.846
312.711
312.625
312.622
312.724
312.871
304.318
304.219
304.213
304.2
304.196
304.294
304.346
304.348
304.38
304.462
304.445
304.378
304.405
304.311
304.293
304.34
304.246
304.239
304.208
304.347
366.171
365.395
364.749
364.434
364.433
364.723
365.313
365.856
366.378
366.992
367.131
367.05
366.747
366.168
365.591
365.131
364.762
364.909
365.377
365.946
357.324
356.68
356.07
355.797
355.832
356.149
356.508
357.077
357.51
357.967
358.04
358.047
357.795
357.318
356.754
356.356
356.19
356.155
356.47
357.057
348.518
347.907
347.497
347.255
347.219
347.5
347.79
348.242
348.648
349.044
349.134
349.024
348.817
348.424
347.932
347.623
347.385
347.621
347.837
348.301
339.761
339.208
338.849
338.62
338.716
338.794
339.055
339.473
339.804
340.066
340.142
340.14
339.915
339.637
339.275
338.966
338.776
338.93
339.11
339.538
330.976
330.583
330.204
330.015
330.053
330.2
330.399
330.735
330.935
331.199
331.206
331.226
331.08
330.746
330.503
330.303
330.207
330.224
330.391
330.66
322.044
321.794
321.562
321.464
321.476
321.593
321.667
322.006
322.071
322.272
322.263
322.247
322.166
321.939
321.793
321.615
321.623
321.643
321.725
321.921
313.248
313.09
312.996
312.906
312.86
313.014
313.082
313.276
313.309
313.337
313.402
313.413
313.306
313.193
313.092
312.986
312.955
312.924
313.102
313.082
304.453
304.438
304.429
304.294
304.294
304.337
304.378
304.441
304.448
304.524
304.503
304.436
304.399
304.403
304.425
304.39
304.444
304.387
304.323
304.385
367.94
367.14
366.381
366.006
366.049
366.268
366.671
367.193
367.703
368.014
368.266
368.115
367.783
367.427
366.891
366.481
366.266
366.451
366.907
367.646
358.892
358.198
357.646
357.198
357.232
357.399
357.831
358.268
358.62
358.949
358.991
359.041
358.708
358.314
357.867
357.545
357.451
357.596
357.97
358.492
349.798
349.199
348.724
348.447
348.452
348.637
348.864
349.224
349.579
349.779
349.896
349.853
349.657
349.374
348.958
348.63
348.536
348.663
348.902
349.447
340.682
340.274
339.83
339.588
339.605
339.651
339.976
340.235
340.494
340.728
340.836
340.736
340.617
340.345
340.038
339.825
339.731
339.748
340.098
340.384
331.679
331.294
330.977
330.849
330.785
330.895
331.078
331.367
331.614
331.693
331.742
331.719
331.52
331.339
331.072
330.948
330.878
330.912
331.151
331.43
322.645
322.409
322.104
322.102
321.986
322.148
322.216
322.336
322.462
322.579
322.675
322.69
322.52
322.414
322.147
322.118
322.063
322.106
322.17
322.443
313.527
313.34
313.283
313.183
313.236
313.237
313.322
313.432
313.463
313.581
313.601
313.57
313.581
313.43
313.37
313.217
313.294
313.177
313.416
313.469
304.649
304.478
304.412
304.383
304.455
304.429
304.481
304.434
304.546
304.562
304.515
304.604
304.506
304.492
304.485
304.403
304.489
304.457
304.54
304.506
369.659
368.861
368.132
367.693
367.652
367.788
368.051
368.49
368.904
369.164
369.393
369.22
368.983
368.65
368.202
367.863
367.802
367.897
368.507
369.217
360.414
359.64
359.022
358.692
358.529
358.684
358.986
359.265
359.686
359.841
360.01
359.965
359.776
359.374
359.067
358.779
358.709
358.802
359.278
359.771
351.041
350.437
349.908
349.697
349.566
349.647
349.817
350.217
350.4
350.616
350.763
350.69
350.573
350.205
350.016
349.61
349.583
349.782
350.025
350.546
341.689
341.263
340.886
340.551
340.529
340.598
340.784
341.043
341.24
341.438
341.479
341.461
341.223
341.056
340.829
340.589
340.553
340.661
340.905
341.389
332.476
332.15
331.823
331.61
331.516
331.519
331.717
331.876
332.099
332.164
332.261
332.223
332.076
332.031
331.75
331.521
331.458
331.633
331.853
332.199
323.165
322.884
322.724
322.53
322.503
322.516
322.619
322.842
322.85
322.952
323.042
322.929
322.9
322.868
322.67
322.583
322.479
322.549
322.765
322.935
313.913
313.787
313.637
313.527
313.511
313.556
313.579
313.66
313.794
313.745
313.848
313.836
313.876
313.743
313.654
313.544
313.526
313.604
313.581
313.787
304.614
304.617
304.585
304.525
304.563
304.515
304.629
304.606
304.593
304.668
304.66
304.652
304.543
304.588
304.571
304.556
304.557
304.554
304.558
304.694
371.344
370.538
369.82
369.427
369.226
369.238
369.455
369.806
370.121
370.425
370.452
370.445
370.181
369.918
369.5
369.35
369.279
369.466
369.984
370.762
361.857
361.079
360.407
360.062
359.981
359.982
360.183
360.441
360.7
360.908
361.05
360.897
360.791
360.497
360.202
359.98
359.977
360.106
360.668
361.159
352.203
351.657
351.113
350.785
350.723
350.748
350.856
351.153
351.34
351.494
351.475
351.477
351.335
351.139
350.946
350.789
350.616
350.809
351.226
351.651
342.749
342.203
341.872
341.619
341.459
341.408
341.601
341.744
341.928
342.097
342.16
342.036
341.967
341.746
341.612
341.428
341.371
341.554
341.822
342.257
333.168
332.829
332.418
332.369
332.227
332.241
332.361
332.478
332.626
332.775
332.727
332.687
332.574
332.459
332.302
332.274
332.237
332.224
332.514
332.843
323.722
323.419
323.191
323.049
322.954
322.989
323.161
323.195
323.265
323.396
323.382
323.427
323.343
323.157
323.041
323.059
323
323.018
323.253
323.474
314.224
314.034
313.897
313.878
313.849
313.846
313.865
313.851
313.982
314.018
314.055
314.03
313.898
313.877
313.839
313.814
313.804
313.894
313.954
314.02
304.691
304.684
304.69
304.574
304.68
304.756
304.701
304.645
304.674
304.664
304.738
304.659
304.671
304.672
304.664
304.624
304.64
304.666
304.67
304.759
372.884
372.023
371.311
370.838
370.634
370.586
370.782
371.059
371.292
371.523
371.582
371.511
371.295
371.031
370.797
370.591
370.579
370.882
371.521
372.229
363.1
362.346
361.789
361.252
361.152
361.158
361.244
361.442
361.601
361.823
361.963
361.843
361.671
361.396
361.21
361.096
360.955
361.439
361.784
362.426
353.335
352.771
352.199
351.887
351.626
351.621
351.765
351.936
352.108
352.258
352.265
352.211
352.139
351.877
351.752
351.53
351.601
351.788
352.138
352.674
343.619
343.171
342.718
342.386
342.292
342.286
342.294
342.42
342.619
342.675
342.706
342.709
342.63
342.445
342.268
342.217
342.174
342.372
342.656
343.126
333.941
333.534
333.117
332.872
332.83
332.843
332.915
332.963
333.051
333.218
333.282
333.192
333.102
332.99
332.822
332.744
332.796
332.898
333.156
333.496
324.2
323.857
323.717
323.525
323.47
323.583
323.5
323.512
323.689
323.649
323.738
323.688
323.624
323.533
323.364
323.403
323.423
323.521
323.674
323.856
314.579
314.411
314.241
314.109
314.14
314.057
314.157
314.139
314.244
314.25
314.28
314.134
314.227
314.189
314.15
314.039
314.015
314.155
314.226
314.253
304.873
304.815
304.743
304.7
304.613
304.696
304.709
304.762
304.736
304.84
304.759
304.798
304.74
304.799
304.756
304.706
304.752
304.693
304.746
304.78
374.091
373.229
372.512
371.977
371.75
371.626
371.817
371.904
372.18
372.266
372.344
372.297
372.162
371.883
371.688
371.598
371.642
371.959
372.581
373.295
364.05
363.355
362.64
362.227
362.039
361.974
362.066
362.228
362.369
362.491
362.568
362.565
362.359
362.162
361.945
361.9
361.904
362.184
362.735
363.35
354.212
353.516
352.907
352.634
352.428
352.317
352.441
352.554
352.637
352.858
352.862
352.727
352.642
352.482
352.394
352.302
352.272
352.512
352.927
353.429
344.234
343.691
343.242
342.926
342.846
342.764
342.842
342.971
343.112
343.161
343.243
343.144
343.036
342.87
342.726
342.65
342.72
342.84
343.289
343.647
334.392
334.007
333.643
333.495
333.236
333.217
333.301
333.371
333.485
333.565
333.534
333.483
333.467
333.289
333.213
333.185
333.178
333.329
333.57
333.855
324.499
324.311
323.961
323.839
323.692
323.672
323.793
323.84
323.947
323.931
323.91
323.942
323.864
323.846
323.68
323.685
323.771
323.707
324.033
324.156
314.708
314.557
314.447
314.268
314.324
314.25
314.27
314.328
314.277
314.326
314.311
314.365
314.325
314.304
314.168
314.227
314.228
314.27
314.457
314.493
304.916
304.858
304.787
304.776
304.73
304.827
304.778
304.789
304.803
304.902
304.859
304.77
304.78
304.849
304.773
304.734
304.752
304.829
304.827
304.87
)
;

boundaryField
{
    hotSide
    {
        type            fixedGradient;
        gradient        nonuniform List<scalar> 
400
(
321.511
322.87
325.591
329.677
335.133
341.965
350.181
359.788
370.794
383.208
397.037
412.289
428.971
447.088
466.647
487.651
510.105
534.011
559.372
586.191
323.738
325.08
327.767
331.802
337.194
343.949
352.078
361.591
372.498
384.81
398.537
413.687
430.268
448.289
467.755
488.672
511.043
534.872
560.161
586.913
326.149
327.47
330.116
334.091
339.406
346.071
354.099
363.503
374.296
386.491
400.101
415.136
431.606
449.52
468.885
489.706
511.988
535.735
560.948
587.63
328.704
330
332.597
336.503
341.73
348.292
356.205
365.485
376.15
388.215
401.695
416.604
432.954
450.753
470.009
490.73
512.919
536.579
561.714
588.325
331.33
332.599
335.142
338.97
344.099
350.546
358.332
367.477
378.003
389.928
403.271
418.047
434.27
451.949
471.095
491.712
513.807
537.382
562.439
588.978
333.918
335.158
337.643
341.389
346.414
352.74
360.392
369.397
379.779
391.562
404.765
419.407
435.503
453.065
472.101
492.618
514.622
538.114
563.096
589.569
336.321
337.531
339.959
343.622
348.544
354.751
362.274
371.142
381.385
393.031
406.101
420.618
436.595
454.047
472.983
493.409
515.33
538.747
563.663
590.076
338.36
339.543
341.92
345.509
350.339
356.44
363.847
372.595
382.718
394.244
407.2
421.608
437.485
454.844
473.695
494.045
515.897
539.253
564.114
590.478
339.852
341.015
343.352
346.885
351.645
357.665
364.985
373.643
383.675
395.113
407.984
422.312
438.116
455.407
474.197
494.491
516.294
539.606
564.428
590.758
340.643
341.795
344.11
347.613
352.334
358.311
365.584
374.193
384.176
395.567
408.393
422.679
438.443
455.699
474.456
494.722
516.498
539.788
564.589
590.901
340.643
341.795
344.11
347.613
352.334
358.311
365.584
374.193
384.176
395.567
408.393
422.679
438.443
455.699
474.456
494.722
516.498
539.788
564.589
590.901
339.852
341.015
343.352
346.885
351.645
357.665
364.985
373.643
383.675
395.113
407.984
422.312
438.116
455.407
474.197
494.491
516.294
539.606
564.428
590.758
338.36
339.543
341.92
345.509
350.339
356.44
363.847
372.595
382.718
394.244
407.2
421.608
437.485
454.844
473.695
494.045
515.897
539.253
564.114
590.478
336.321
337.531
339.959
343.622
348.544
354.751
362.274
371.142
381.385
393.031
406.101
420.618
436.595
454.047
472.983
493.409
515.33
538.747
563.663
590.076
333.918
335.158
337.643
341.389
346.414
352.74
360.392
369.397
379.779
391.562
404.765
419.407
435.503
453.065
472.101
492.618
514.622
538.114
563.096
589.569
331.33
332.599
335.142
338.97
344.099
350.546
358.332
367.477
378.003
389.928
403.271
418.047
434.27
451.949
471.095
491.712
513.807
537.382
562.439
588.978
328.704
330
332.597
336.503
341.73
348.292
356.205
365.485
376.15
388.215
401.695
416.604
432.954
450.753
470.009
490.73
512.919
536.579
561.714
588.325
326.149
327.47
330.116
334.091
339.406
346.071
354.099
363.503
374.296
386.491
400.101
415.136
431.606
449.52
468.885
489.706
511.988
535.735
560.948
587.63
323.738
325.08
327.767
331.802
337.194
343.949
352.078
361.591
372.498
384.81
398.537
413.687
430.268
448.289
467.755
488.672
511.043
534.872
560.161
586.913
321.511
322.87
325.591
329.677
335.133
341.965
350.181
359.788
370.794
383.208
397.037
412.289
428.971
447.088
466.647
487.651
510.105
534.011
559.372
586.191
)
;
    }
    coldSide
    {
        type            mixed;
        refValue        uniform 300;
        refGradient     uniform 0;
        valueFraction   uniform 0.991591;
        source          uniform 0;
        value           nonuniform List<scalar> 
400
(
300.028
300.028
300.028
300.029
300.03
300.029
300.031
300.031
300.032
300.033
300.034
300.034
300.036
300.036
300.037
300.039
300.039
300.039
300.041
300.041
300.028
300.028
300.028
300.029
300.029
300.03
300.03
300.03
300.032
300.032
300.034
300.034
300.035
300.035
300.037
300.038
300.039
300.039
300.04
300.041