/*--------------------------------*- C++ -*----------------------------------*\
| =========                 |                                                 |
| \\      /  F ield         | OpenFOAM: The Open Source CFD Toolbox           |
|  \\    /   O peration     | Version:  2212                                  |
|   \\  /    A nd           | Website:  www.openfoam.com                      |
|    \\/     M anipulation  |                                                 |
\*---------------------------------------------------------------------------*/
FoamFile
{
    version     2.0;
    format      ascii;
    arch        "LSB;label=32;scalar=64";
    class       volScalarField;
    location    "0";
    object      T;
}
// * * * * * * * * * * * * * * * * * * * * * * * * * * * * * * * * * * * * * //

dimensions      [0 0 0 1 0 0 0];

internalField   nonuniform List<scalar> 
3200
(
342.016
342.761
343.761
344.813
345.434
346.023
346.684
347.053
347.435
347.319
347.35
347.291
346.902
346.218
346.016
345.368
344.603
343.787
342.516
341.644
336.351
336.998
337.805
338.744
339.241
339.735
340.325
340.68
341.036
340.894
340.848
340.859
340.551
339.918
339.752
339.198
338.563
337.85
336.715
336.064
330.669
331.286
331.877
332.661
333.153
333.536
334.03
334.364
334.667
334.52
334.439
334.455
334.227
333.697
333.577
333.12
332.586
331.945
331.006
330.478
325.036
325.614
326.012
326.648
327.118
327.377
327.777
328.082
328.336
328.197
328.082
328.117
327.951
327.522
327.378
327.074
326.644
326.111
325.37
324.892
319.403
319.929
320.19
320.682
321.108
321.293
321.587
321.82
322.039
321.882
321.809
321.854
321.722
321.38
321.26
321.035
320.664
320.266
319.738
319.31
313.82
314.256
314.4
314.749
315.085
315.191
315.398
315.602
315.752
315.622
315.58
315.551
315.471
315.273
315.173
315.047
314.758
314.461
314.099
313.785
308.284
308.566
308.627
308.89
309.091
309.114
309.225
309.376
309.466
309.377
309.367
309.293
309.288
309.18
309.115
309.022
308.872
308.676
308.466
308.254
302.782
302.887
302.872
302.948
303.057
303.06
303.096
303.138
303.168
303.129
303.12
303.111
303.115
303.089
303.082
303.016
302.968
302.927
302.815
302.778
342.872
343.518
344.488
345.637
346.326
346.964
347.519
347.795
348.328
348.361
348.411
348.287
348.014
347.28
346.982
346.282
345.198
344.46
343.194
342.547
337.05
337.555
338.383
339.399
340.029
340.605
341.067
341.256
341.712
341.751
341.754
341.67
341.422
340.81
340.521
339.961
339.001
338.395
337.294
336.808
331.28
331.663
332.32
333.216
333.789
334.297
334.651
334.747
335.143
335.194
335.184
335.142
334.893
334.442
334.161
333.707
332.893
332.388
331.468
331.083
325.537
325.835
326.371
327.077
327.592
328.034
328.298
328.35
328.705
328.703
328.654
328.693
328.442
328.084
327.918
327.504
326.852
326.441
325.703
325.413
319.804
320.041
320.485
320.987
321.444
321.793
321.936
322.083
322.321
322.309
322.226
322.29
322.072
321.808
321.671
321.325
320.833
320.52
319.967
319.749
314.105
314.316
314.632
314.983
315.294
315.562
315.622
315.775
315.912
315.908
315.828
315.899
315.753
315.598
315.49
315.208
314.854
314.621
314.252
314.108
308.469
308.585
308.782
308.991
309.199
309.345
309.372
309.444
309.565
309.506
309.487
309.531
309.482
309.343
309.303
309.129
308.909
308.762
308.562
308.45
302.837
302.863
302.951
303.022
303.076
303.135
303.14
303.151
303.21
303.178
303.177
303.191
303.191
303.129
303.126
303.07
302.993
302.938
302.865
302.825
343.822
344.576
345.689
346.604
347.553
348.204
348.904
349.205
349.485
349.633
349.63
349.311
349.112
348.664
348.019
347.414
346.232
345.397
344.128
343.511
337.851
338.477
339.414
340.232
341.065
341.632
342.214
342.443
342.68
342.825
342.816
342.499
342.343
341.963
341.416
340.95
339.899
339.163
338.066
337.619
331.927
332.478
333.252
333.923
334.658
335.144
335.608
335.811
335.966
336.118
336.121
335.788
335.692
335.373
334.922
334.538
333.649
333.026
332.126
331.771
326.053
326.488
327.115
327.704
328.3
328.709
329.074
329.234
329.347
329.471
329.506
329.191
329.119
328.813
328.452
328.179
327.446
326.934
326.21
325.945
320.273
320.56
321.077
321.531
321.953
322.359
322.56
322.719
322.809
322.904
322.947
322.649
322.632
322.361
322.064
321.863
321.283
320.902
320.345
320.13
314.499
314.661
315.085
315.326
315.647
316.013
316.043
316.218
316.257
316.356
316.375
316.167
316.136
315.971
315.727
315.601
315.147
314.907
314.543
314.357
308.752
308.808
309.07
309.182
309.394
309.616
309.576
309.737
309.741
309.818
309.834
309.693
309.676
309.599
309.482
309.349
309.09
308.942
308.732
308.646
302.938
302.967
303.032
303.065
303.148
303.199
303.207
303.256
303.251
303.292
303.309
303.219
303.237
303.226
303.16
303.144
303.055
302.979
302.9
302.911
344.884
345.74
346.77
347.926
348.713
349.574
349.982
350.288
350.787
350.914
350.834
350.642
350.245
349.755
349.022
348.516
347.486
346.607
345.405
344.471
338.746
339.503
340.371
341.357
342.024
342.756
343.107
343.384
343.763
343.909
343.866
343.654
343.355
342.911
342.257
341.857
340.97
340.172
339.114
338.439
332.672
333.343
334.07
334.858
335.436
336.05
336.388
336.591
336.851
337.012
336.977
336.754
336.558
336.175
335.591
335.284
334.571
333.839
332.928
332.456
326.661
327.236
327.796
328.457
328.907
329.418
329.664
329.854
330.057
330.208
330.168
329.938
329.79
329.49
329.045
328.731
328.204
327.63
326.807
326.518
320.708
321.153
321.558
322.103
322.436
322.816
323.008
323.192
323.301
323.461
323.424
323.249
323.096
322.894
322.534
322.287
321.891
321.437
320.79
320.574
314.773
315.104
315.4
315.822
315.985
316.28
316.427
316.525
316.62
316.746
316.725
316.555
316.435
316.36
316.064
315.865
315.604
315.291
314.845
314.692
308.829
309.067
309.273
309.495
309.579
309.756
309.839
309.903
309.993
310.072
310.018
309.908
309.851
309.843
309.653
309.527
309.353
309.182
308.902
308.845
302.948
303.038
303.092
303.195
303.189
303.254
303.289
303.327
303.35
303.377
303.367
303.325
303.311
303.295
303.233
303.188
303.15
303.065
302.995
302.992
345.86
346.89
347.915
349.111
349.883
350.533
351.208
351.364
351.869
352.093
352.038
351.814
351.562
350.918
350.296
349.64
348.47
347.628
346.469
345.42
339.589
340.443
341.285
342.39
343.011
343.589
344.171
344.295
344.768
344.933
344.881
344.709
344.469
343.93
343.375
342.794
341.755
341.063
340.165
339.187
333.4
334.098
334.789
335.749
336.244
336.76
337.253
337.327
337.71
337.839
337.837
337.718
337.514
337.061
336.57
336.047
335.163
334.634
333.905
333.068
327.278
327.825
328.375
329.183
329.556
329.977
330.412
330.482
330.729
330.837
330.875
330.786
330.583
330.277
329.886
329.403
328.605
328.275
327.699
327.015
321.166
321.607
322.03
322.684
322.935
323.278
323.636
323.654
323.796
323.92
323.933
323.919
323.699
323.472
323.249
322.836
322.131
321.983
321.482
320.978
315.099
315.386
315.759
316.222
316.369
316.589
316.858
316.835
316.941
317.053
317.083
317.09
316.891
316.728
316.598
316.329
315.767
315.704
315.307
314.98
309.019
309.217
309.469
309.744
309.82
309.934
310.12
310.103
310.158
310.25
310.243
310.247
310.135
310.03
309.959
309.82
309.469
309.426
309.206
309.034
303.028
303.077
303.161
303.254
303.29
303.306
303.394
303.392
303.416
303.443
303.432
303.416
303.409
303.362
303.329
303.28
303.185
303.157
303.082
303.045
346.829
347.811
348.999
350.106
350.971
351.638
352.125
352.732
353.069
353.288
353.096
352.908
352.455
352.008
351.347
350.746
349.776
348.869
347.561
346.335
340.39
341.246
342.266
343.225
343.947
344.488
344.981
345.507
345.72
345.955
345.774
345.673
345.273
344.862
344.24
343.778
342.923
342.181
341.051
339.964
334.035
334.752
335.627
336.441
337.018
337.451
337.96
338.375
338.512
338.753
338.58
338.514
338.149
337.81
337.274
336.903
336.145
335.562
334.565
333.709
327.714
328.346
329.058
329.728
330.188
330.511
330.984
331.26
331.442
331.601
331.46
331.429
331.136
330.861
330.377
330.105
329.405
329.001
328.148
327.484
321.502
322.008
322.544
323.107
323.456
323.69
324.075
324.271
324.39
324.537
324.418
324.373
324.193
323.976
323.563
323.371
322.782
322.487
321.806
321.32
315.342
315.724
316.057
316.491
316.72
316.879
317.183
317.296
317.427
317.499
317.438
317.35
317.266
317.111
316.786
316.682
316.24
316.047
315.517
315.232
309.224
309.454
309.598
309.932
310.031
310.099
310.336
310.358
310.455
310.474
310.457
310.37
310.346
310.237
310.042
310.033
309.762
309.614
309.311
309.145
303.094
303.169
303.232
303.338
303.367
303.395
303.457
303.47
303.507
303.522
303.494
303.458
303.457
303.412
303.357
303.37
303.261
303.222
303.126
303.082
347.794
348.787
350.078
351.261
352.036
352.631
353.296
353.806
353.957
354.09
354.227
353.965
353.819
353.196
352.369
351.643
350.834
349.793
348.572
347.279
341.294
342.088
343.202
344.176
344.897
345.372
345.999
346.425
346.504
346.677
346.771
346.5
346.415
345.836
345.141
344.506
343.843
343.008
341.86
340.794
334.801
335.489
336.474
337.176
337.845
338.234
338.822
339.183
339.199
339.346
339.436
339.181
339.093
338.636
338.056
337.525
336.978
336.285
335.254
334.379
328.409
328.98
329.776
330.282
330.855
331.161
331.674
331.982
331.989
332.093
332.141
331.938
331.858
331.528
331.063
330.577
330.154
329.615
328.755
327.999
322.076
322.528
323.097
323.443
323.958
324.156
324.626
324.823
324.861
324.894
324.946
324.785
324.686
324.467
324.127
323.726
323.417
323
322.289
321.738
315.757
316.075
316.45
316.681
317.114
317.254
317.579
317.735
317.745
317.826
317.808
317.671
317.563
317.442
317.208
316.902
316.675
316.46
315.902
315.527
309.465
309.638
309.877
310.012
310.268
310.353
310.551
310.669
310.642
310.712
310.688
310.619
310.509
310.45
310.307
310.137
310.035
309.889
309.545
309.327
303.15
303.22
303.314
303.364
303.452
303.467
303.53
303.582
303.56
303.595
303.583
303.57
303.529
303.488
303.446
303.398
303.348
303.344
303.204
303.123
348.786
350.016
351.035
351.974
352.817
353.625
354.428
354.84
355.19
355.297
355.537
355.135
354.661
354.192
353.351
352.849
351.763
350.95
349.701
348.38
342.113
343.175
344.043
344.833
345.552
346.208
346.981
347.297
347.604
347.724
347.929
347.543
347.176
346.758
345.984
345.604
344.639
344
342.894
341.768
335.53
336.435
337.14
337.763
338.402
338.956
339.63
339.846
340.128
340.255
340.381
340.099
339.739
339.439
338.692
338.486
337.632
337.139
336.118
335.223
329.063
329.749
330.292
330.811
331.346
331.775
332.313
332.513
332.754
332.868
332.844
332.718
332.437
332.196
331.517
331.418
330.72
330.315
329.415
328.701
322.614
323.077
323.464
323.942
324.339
324.659
325.067
325.264
325.416
325.498
325.411
325.408
325.23
324.996
324.453
324.385
323.863
323.548
322.795
322.245
316.202
316.416
316.744
317.056
317.345
317.608
317.884
317.982
318.121
318.205
318.122
318.089
318.016
317.815
317.442
317.393
317.02
316.8
316.274
315.85
309.748
309.835
310.035
310.205
310.387
310.584
310.741
310.769
310.871
310.955
310.887
310.837
310.813
310.719
310.489
310.443
310.213
310.103
309.764
309.529
303.266
303.296
303.342
303.404
303.467
303.543
303.582
303.608
303.636
303.68
303.651
303.63
303.619
303.592
303.516
303.49
303.424
303.399
303.284
303.203
349.611
350.736
352.1
352.958
353.802
354.536
355.304
355.693
356.159
356.084
356.349
356.12
355.626
355.118
354.38
353.662
352.677
351.459
350.524
349.36
342.793
343.767
345.003
345.697
346.432
347.043
347.745
348.018
348.443
348.383
348.594
348.431
347.959
347.547
346.905
346.295
345.419
344.363
343.618
342.673
336.076
336.896
337.954
338.518
339.148
339.631
340.215
340.487
340.833
340.811
340.958
340.875
340.415
340.101
339.539
339.033
338.243
337.445
336.786
336.032
329.423
330.071
330.946
331.412
331.968
332.308
332.792
333.04
333.348
333.347
333.414
333.387
332.989
332.754
332.287
331.802
331.208
330.553
330.047
329.47
322.865
323.331
324.019
324.388
324.859
325.122
325.451
325.649
325.909
325.911
325.917
325.958
325.635
325.427
325.056
324.679
324.246
323.69
323.357
322.897
316.334
316.624
317.143
317.408
317.754
317.917
318.177
318.281
318.533
318.53
318.504
318.501
318.276
318.133
317.878
317.619
317.321
316.915
316.681
316.327
309.815
309.943
310.337
310.437
310.656
310.745
310.907
310.954
311.134
311.137
311.111
311.079
310.96
310.88
310.756
310.558
310.389
310.155
310.031
309.778
303.297
303.321
303.474
303.498
303.559
303.577
303.654
303.663
303.71
303.746
303.712
303.683
303.672
303.648
303.614
303.545
303.501
303.386
303.368
303.261
350.383
351.617
352.676
353.988
354.768
355.512
356.082
356.671
356.999
357.201
357.341
357.054
356.613
356.011
355.433
354.523
353.542
352.471
351.453
350.189
343.493
344.517
345.435
346.574
347.241
347.886
348.356
348.914
349.172
349.374
349.456
349.238
348.815
348.286
347.801
347.025
346.162
345.263
344.434
343.345
336.693
337.57
338.338
339.244
339.814
340.351
340.768
341.27
341.499
341.615
341.716
341.555
341.152
340.667
340.271
339.614
338.894
338.128
337.506
336.577
329.974
330.665
331.322
332.018
332.451
332.913
333.266
333.674
333.886
333.962
334.038
333.917
333.603
333.148
332.898
332.291
331.77
331.078
330.662
329.866
323.283
323.81
324.347
324.844
325.231
325.535
325.834
326.119
326.329
326.363
326.385
326.347
326.086
325.737
325.59
325.098
324.644
324.106
323.851
323.189
316.613
317.004
317.369
317.739
317.996
318.222
318.456
318.626
318.786
318.833
318.851
318.794
318.613
318.355
318.275
317.916
317.571
317.192
317.05
316.535
309.962
310.212
310.434
310.648
310.834
310.929
311.107
311.156
311.262
311.321
311.31
311.285
311.171
311.019
310.977
310.753
310.577
310.292
310.222
309.944
303.342
303.417
303.475
303.572
303.644
303.679
303.746
303.74
303.776
303.798
303.79
303.792
303.719
303.712
303.676
303.593
303.526
303.442
303.43
303.347
351.503
352.424
353.298
354.509
355.832
356.219
356.883
357.535
357.886
357.925
358.003
357.542
357.253
356.695
355.966
355.076
354.212
353.344
352.02
351.004
344.459
345.261
345.993
347.038
348.169
348.48
349.062
349.649
349.963
349.928
349.986
349.649
349.338
348.881
348.261
347.469
346.76
346.042
344.897
344.081
337.472
338.176
338.806
339.662
340.6
340.858
341.348
341.885
342.122
342.082
342.087
341.836
341.521
341.149
340.626
340.016
339.437
338.803
337.851
337.234
330.598
331.158
331.707
332.353
333.098
333.314
333.698
334.162
334.393
334.359
334.325
334.094
333.873
333.575
333.112
332.631
332.175
331.677
330.85
330.395
323.738
324.185
324.644
325.109
325.648
325.844
326.104
326.463
326.722
326.684
326.632
326.458
326.248
326.065
325.711
325.341
324.999
324.602
323.953
323.578
316.917
317.236
317.61
317.925
318.256
318.444
318.591
318.864
319.066
319.039
318.994
318.886
318.665
318.632
318.333
318.088
317.807
317.558
317.09
316.799
310.135
310.348
310.585
310.769
310.928
311.085
311.129
311.289
311.445
311.417
311.393
311.334
311.147
311.214
310.994
310.866
310.677
310.544
310.251
310.075
303.4
303.473
303.542
303.601
303.65
303.724
303.721
303.785
303.835
303.826
303.835
303.818
303.721
303.787
303.693
303.629
303.571
303.533
303.426
303.375
352.111
352.991
354.072
355.14
356.224
356.914
357.545
358.218
358.326
358.728
358.429
358.434
357.904
357.282
356.626
355.722
355.014
353.86
352.599
351.637
345.026
345.698
346.631
347.566
348.502
349.062
349.658
350.176
350.327
350.648
350.395
350.41
349.891
349.402
348.846
348.029
347.435
346.411
345.392
344.631
337.991
338.539
339.311
340.113
340.914
341.353
341.82
342.262
342.411
342.657
342.504
342.519
342.066
341.698
341.146
340.506
339.99
339.121
338.26
337.655
331.011
331.438
332.09
332.705
333.383
333.713
334.119
334.392
334.577
334.754
334.678
334.672
334.306
334.036
333.544
333.037
332.582
331.953
331.192
330.788
324.084
324.424
324.925
325.368
325.93
326.148
326.513
326.65
326.81
326.943
326.891
326.862
326.633
326.462
326.034
325.645
325.223
324.843
324.238
323.915
317.184
317.428
317.785
318.09
318.532
318.623
318.908
318.98
319.108
319.21
319.161
319.12
318.992
318.894
318.54
318.348
317.978
317.743
317.33
317.08
310.323
310.472
310.699
310.832
311.129
311.176
311.332
311.371
311.454
311.512
311.492
311.481
311.407
311.318
311.115
311.02
310.768
310.674
310.4
310.23
303.451
303.525
303.59
303.627
303.734
303.76
303.782
303.81
303.822
303.862
303.856
303.86
303.813
303.785
303.719
303.686
303.607
303.568
303.491
303.423
352.283
353.491
354.535
355.867
356.705
357.62
358.426
358.699
359.133
359.429
359.21
359.052
358.715
358.091
357.446
356.362
355.613
354.341
353.012
351.872
345.165
346.142
347.038
348.217
348.9
349.672
350.394
350.641
350.991
351.26
351.084
350.903
350.643
350.068
349.559
348.587
347.995
346.877
345.679
344.786
338.107
338.882
339.636
340.649
341.222
341.873
342.468
342.708
342.923
343.201
343.103
342.901
342.705
342.219
341.797
340.949
340.469
339.481
338.481
337.804
331.114
331.741
332.366
333.156
333.676
334.153
334.631
334.813
334.993
335.212
335.127
335.003
334.878
334.393
334.073
333.427
333.049
332.196
331.351
330.872
324.172
324.702
325.167
325.726
326.169
326.489
326.899
327.012
327.119
327.316
327.235
327.146
327.093
326.681
326.451
325.965
325.658
325.006
324.319
323.94
317.268
317.62
317.986
318.385
318.718
318.899
319.241
319.236
319.295
319.5
319.4
319.328
319.372
319.047
318.852
318.536
318.34
317.846
317.35
317.07
310.388
310.56
310.835
311.066
311.285
311.335
311.537
311.497
311.568
311.689
311.628
311.567
311.635
311.43
311.325
311.129
311.006
310.72
310.429
310.25
303.481
303.541
303.636
303.73
303.796
303.809
303.873
303.861
303.891
303.911
303.902
303.871
303.911
303.84
303.79
303.726
303.667
303.596
303.492
303.434
352.822
353.891
355.079
356.338
357.438
358.113
359.052
359.401
359.608
359.813
359.817
359.536
359.266
358.632
357.94
356.691
355.89
354.734
353.45
352.186
345.628
346.534
347.529
348.579
349.501
350.137
350.962
351.279
351.433
351.589
351.611
351.316
351.12
350.564
349.938
348.923
348.213
347.191
346.133
345.057
338.519
339.252
340.12
340.93
341.676
342.265
343.027
343.21
343.363
343.499
343.524
343.228
343.079
342.59
342.037
341.272
340.624
339.826
338.886
338.035
331.478
332.019
332.782
333.344
333.99
334.486
335.139
335.255
335.408
335.5
335.503
335.284
335.15
334.711
334.286
333.647
333.137
332.535
331.677
331.142
324.472
324.869
325.461
325.873
326.394
326.762
327.28
327.4
327.507
327.559
327.554
327.368
327.295
326.956
326.611
326.095
325.689
325.28
324.559
324.242
317.462
317.709
318.16
318.476
318.773
319.105
319.468
319.543
319.617
319.7
319.692
319.536
319.476
319.234
318.963
318.607
318.327
318.053
317.506
317.34
310.469
310.591
310.875
311.092
311.244
311.46
311.687
311.721
311.738
311.832
311.846
311.754
311.655
311.56
311.377
311.13
310.979
310.77
310.51
310.44
303.507
303.537
303.641
303.723
303.76
303.821
303.911
303.921
303.957
303.969
303.965
303.941
303.92
303.897
303.808
303.717
303.68
303.599
303.523
303.495
353.296
354.338
355.496
356.689
357.701
358.448
359.105
359.833
359.936
360.068
360.32
359.925
359.705
358.979
358.427
357.235
356.259
355.123
353.741
352.721
346.025
346.888
347.891
348.869
349.745
350.426
350.969
351.602
351.699
351.836
351.997
351.685
351.545
350.912
350.379
349.344
348.486
347.561
346.359
345.511
338.839
339.546
340.393
341.159
341.916
342.528
342.961
343.432
343.601
343.713
343.809
343.578
343.491
342.88
342.431
341.537
340.853
340.078
339.084
338.415
331.755
332.27
332.958
333.593
334.195
334.71
335.051
335.404
335.577
335.666
335.744
335.571
335.481
334.981
334.59
333.892
333.344
332.722
331.88
331.372
324.679
325.047
325.554
326.111
326.534
326.928
327.262
327.458
327.606
327.679
327.743
327.634
327.565
327.144
326.838
326.32
325.855
325.417
324.739
324.367
317.633
317.899
318.233
318.619
318.933
319.175
319.487
319.594
319.651
319.75
319.81
319.758
319.678
319.372
319.113
318.801
318.446
318.143
317.659
317.45
310.608
310.753
310.95
311.187
311.334
311.501
311.669
311.769
311.781
311.866
311.9
311.902
311.824
311.607
311.458
311.274
311.061
310.891
310.589
310.49
303.555
303.61
303.674
303.761
303.797
303.876
303.911
303.927
303.953
303.956
304.002
303.989
303.945
303.887
303.842
303.773
303.72
303.636
303.528
303.537
353.514
354.56
355.689
357.041
358.127
358.849
359.568
360.179
360.452
360.518
360.588
360.327
360.114
359.228
358.734
357.717
356.611
355.314
354.115
353.082
346.253
347.094
348.054
349.266
350.167
350.769
351.36
351.962
352.137
352.175
352.236
352.055
351.871
351.08
350.682
349.777
348.801
347.68
346.681
345.865
339.013
339.7
340.552
341.5
342.285
342.791
343.278
343.812
343.958
343.907
344.035
343.863
343.72
343.038
342.732
341.934
341.115
340.176
339.364
338.719
331.823
332.4
333.062
333.843
334.473
334.929
335.296
335.756
335.903
335.809
335.947
335.829
335.647
335.092
334.87
334.208
333.545
332.759
332.089
331.582
324.685
325.133
325.648
326.238
326.744
327.159
327.41
327.715
327.872
327.748
327.92
327.831
327.672
327.225
327.076
326.597
326.046
325.437
324.92
324.498
317.602
317.923
318.307
318.712
319.057
319.397
319.565
319.728
319.847
319.793
319.919
319.886
319.712
319.464
319.304
318.985
318.602
318.153
317.791
317.471
310.541
310.764
310.999
311.213
311.408
311.621
311.753
311.815
311.898
311.851
311.965
312.005
311.794
311.687
311.559
311.404
311.158
310.887
310.684
310.477
303.534
303.611
303.698
303.757
303.828
303.886
303.969
303.937
303.979
303.971
304
304.033
303.938
303.927
303.877
303.818
303.746
303.658
303.583
303.524
353.674
354.842
355.877
357.258
358.283
359.267
359.778
360.257
360.793
360.863
360.898
360.721
360.191
359.406
358.929
357.809
356.838
355.661
354.298
353.153
346.346
347.318
348.178
349.351
350.289
351.16
351.565
351.988
352.413
352.5
352.498
352.39
351.896
351.238
350.849
349.863
349.066
348.033
346.844
345.891
339.1
339.896
340.638
341.572
342.445
343.151
343.496
343.847
344.158
344.262
344.242
344.172
343.763
343.211
342.881
342
341.362
340.508
339.471
338.704
331.938
332.539
333.159
333.9
334.614
335.225
335.505
335.77
335.994
336.069
336.064
336.047
335.731
335.28
334.977
334.23
333.769
333.081
332.24
331.58
324.825
325.223
325.757
326.295
326.86
327.309
327.584
327.779
327.93
327.946
327.935
327.99
327.757
327.416
327.147
326.578
326.204
325.655
325.062
324.573
317.713
317.998
318.407
318.757
319.159
319.483
319.682
319.809
319.871
319.92
319.954
319.989
319.799
319.567
319.364
318.956
318.693
318.294
317.86
317.587
310.637
310.799
311.077
311.263
311.489
311.664
311.79
311.936
311.886
311.922
311.971
312.011
311.853
311.724
311.623
311.338
311.186
310.966
310.703
310.589
303.566
303.605
303.698
303.795
303.85
303.901
303.955
303.978
303.99
303.983
304.007
304.032
303.961
303.927
303.891
303.78
303.755
303.648
303.609
303.561
353.771
354.891
356.284
357.455
358.243
359.446
360.063
360.386
360.63
360.994
360.891
360.822
360.459
359.611
359.06
358.082
357.241
355.89
354.464
353.107
346.413
347.341
348.535
349.56
350.263
351.298
351.831
352.052
352.316
352.578
352.53
352.461
352.159
351.41
350.957
350.149
349.41
348.245
346.958
345.848
339.175
339.912
340.913
341.735
342.395
343.244
343.715
343.875
344.082
344.325
344.293
344.26
343.952
343.332
342.971
342.299
341.654
340.673
339.532
338.698
331.969
332.511
333.399
334.037
334.6
335.234
335.695
335.763
335.957
336.169
336.136
336.135
335.863
335.329
335.012
334.452
333.992
333.172
332.254
331.562
324.83
325.195
325.898
326.433
326.9
327.322
327.698
327.771
327.886
328.062
328.035
328.057
327.824
327.407
327.117
326.706
326.383
325.742
324.996
324.499
317.723
317.961
318.482
318.861
319.186
319.48
319.729
319.793
319.91
320.015
320.002
320.023
319.842
319.561
319.333
319.034
318.818
318.348
317.82
317.459
310.657
310.774
311.098
311.303
311.492
311.703
311.827
311.868
311.958
312.018
311.997
312.046
311.915
311.746
311.559
311.424
311.323
310.991
310.688
310.491
303.573
303.613
303.727
303.765
303.847
303.928
303.966
303.979
304.008
304.002
304.027
304.047
303.989
303.931
303.874
303.825
303.809
303.679
303.582
303.526
353.763
355.093
356.267
357.578
358.348
359.398
360.028
360.449
360.884
360.855
360.8
360.767
360.248
359.747
358.984
358.217
357.171
355.828
354.307
353.156
346.394
347.524
348.498
349.675
350.309
351.255
351.781
352.12
352.506
352.49
352.435
352.421
351.991
351.552
350.933
350.191
349.278
348.175
346.851
345.88
339.159
340.061
340.885
341.872
342.401
343.231
343.679
343.921
344.252
344.262
344.166
344.21
343.862
343.485
342.933
342.297
341.529
340.612
339.518
338.681
331.977
332.669
333.353
334.172
334.595
335.302
335.665
335.836
336.106
336.149
336.049
336.049
335.792
335.516
335.027
334.475
333.867
333.13
332.262
331.597
324.845
325.341
325.891
326.503
326.861
327.435
327.7
327.817
328.01
328.082
327.974
327.998
327.82
327.575
327.182
326.728
326.285
325.712
325.05
324.585
317.739
318.085
318.428
318.901
319.171
319.59
319.76
319.852
319.998
320.009
319.964
320.034
319.883
319.698
319.381
319.078
318.732
318.336
317.854
317.591
310.652
310.84
311.068
311.311
311.523
311.782
311.883
311.898
312.037
312.006
311.979
312.014
311.967
311.827
311.614
311.437
311.22
311.01
310.732
310.558
303.563
303.604
303.714
303.767
303.863
303.974
303.981
303.976
304.05
304.024
304.025
304.025
304.019
303.956
303.887
303.806
303.751
303.679
303.604
303.52
353.884
354.981
356.134
357.389
358.387
359.356
359.741
360.463
360.745
360.966
360.828
360.512
360.238
359.608
359.084
358.024
357.064
355.768
354.409
353.32
346.523
347.468
348.433
349.511
350.381
351.217
351.51
352.156
352.378
352.573
352.489
352.172
351.932
351.446
350.994
350.056
349.185
348.072
346.923
346.031
339.231
340.037
340.834
341.754
342.479
343.218
343.454
343.984
344.166
344.306
344.238
343.948
343.745
343.351
342.98
342.224
341.464
340.501
339.535
338.888
332.019
332.698
333.315
334.065
334.636
335.272
335.501
335.873
336.014
336.138
336.049
335.835
335.642
335.387
335.051
334.462
333.841
333.053
332.252
331.794
324.823
325.364
325.865
326.454
326.854
327.355
327.566
327.886
327.896
328.046
327.979
327.799
327.646
327.504
327.171
326.774
326.33
325.665
325.038
324.737
317.702
318.107
318.495
318.848
319.131
319.497
319.687
319.907
319.858
320.002
319.931
319.796
319.718
319.608
319.355
319.118
318.788
318.293
317.885
317.696
310.593
310.862
311.118
311.278
311.424
311.683
311.805
311.955
311.873
312.03
311.931
311.827
311.836
311.762
311.616
311.474
311.231
310.976
310.717
310.614
303.543
303.626
303.734
303.791
303.826
303.917
303.966
303.996
303.972
304.025
303.987
303.955
303.959
303.926
303.894
303.842
303.764
303.667
303.605
303.553
)
;

boundaryField
{
    hotSide
    {
        type            fixedGradient;
        gradient        nonuniform List<scalar> 
400
(
457.56
471.184
484.388
497.111
509.297
520.887
531.828
542.065
551.548
560.23
568.065
575.015
581.042
586.114
590.204
593.289
595.352
596.381
596.37
595.316
470.176
484.195
497.781
510.876
523.419
535.351
546.615
557.158
566.926
575.872
583.948
591.114
597.331
602.568
606.794
609.988
612.132
613.212
613.222
612.16
481.567
495.942
509.876
523.306
536.172
548.413
559.972
570.792
580.819
590.003
598.298
605.66
612.051
617.437
621.788
625.082
627.299
628.426
628.457
627.389
491.659
506.35
520.592
534.321
547.474
559.99
571.81
582.875
593.132
602.529
611.018
618.556
625.101
630.621
635.084
638.466
640.749
641.92
641.969
640.897
500.39
515.355
529.863
543.85
557.252
570.006
582.052
593.331
603.788
613.369
622.027
629.716
636.396
642.032
646.592
650.053
652.394
653.601
653.668
652.593
507.708
522.902
537.633
551.837
565.447
578.401
590.636
602.094
612.718
622.455
631.254
639.071
645.864
651.597
656.239
659.765
662.155
663.395
663.477
662.4
513.569
528.947
543.857
558.233
572.01
585.123
597.511
609.112
619.87
629.73
638.643
646.562
653.445
659.257
663.965
667.544
669.973
671.239
671.333
670.254
517.942
533.456
548.498
563.003
576.904
590.135
602.635
614.343
625.2
635.152
644.149
652.144
659.095
664.964
669.721
673.339
675.798
677.084
677.187
676.107
520.804
536.405
551.533
566.121
580.101
593.41
605.982
617.758
628.68
638.691
647.743
655.786
662.78
668.688
673.476
677.119
679.597
680.895
681.004
679.924
522.141
537.781
552.947
567.571
581.587
594.929
607.534
619.341
630.29
640.328
649.404
657.469
664.482
670.406
675.208
678.863
681.349
682.652
682.764
681.682
521.947
537.578
552.734
567.349
581.356
594.689
607.285
619.084
630.026
640.057
649.126
657.185
664.193
670.112
674.911
678.562
681.045
682.346
682.457
681.375
520.227
535.799
550.898
565.457
579.411
592.692
605.24
616.992
627.891
637.882
646.914
654.94
661.918
667.811
672.588
676.221
678.691
679.983
680.089
679.007
516.993
532.458
547.452
561.91
575.766
588.954
601.413
613.081
623.901
633.819
642.784
650.749
657.674
663.521
668.258
671.86
674.305
675.581
675.679
674.596
512.265
527.575
542.419
556.731
570.446
583.499
595.829
607.376
618.083
627.895
636.764
644.642
651.49
657.27
661.95
665.507
667.918
669.171
669.256
668.174
506.072
521.182
535.83
549.952
563.484
576.363
588.526
599.915
610.474
620.15
628.894
636.66
643.407
649.1
653.708
657.205
659.572
660.795
660.867
659.784
498.453
513.317
527.726
541.617
554.925
567.589
579.548
590.745
601.125
610.634
619.225
626.853
633.479
639.066
643.585
647.011
649.325
650.512
650.566
649.484
489.455
504.03
518.158
531.776
544.822
557.234
568.955
579.926
590.094
599.408
607.821
615.288
621.771
627.235
631.65
634.992
637.243
638.39
638.424
637.344
479.133
493.379
507.186
520.493
533.239
545.365
556.813
567.527
577.455
586.547
594.756
602.04
608.36
613.684
617.982
621.23
623.411
624.511
624.523
623.447
467.554
481.432
494.881
507.841
520.253
532.059
543.203
553.63
563.29
572.134
580.117
587.197
593.337
598.505
602.673
605.817
607.921
608.97
608.96
607.888
454.792
468.266
481.322
493.902
505.948
517.403
528.214
538.328
547.695
556.268
564.003
570.861
576.804
581.803
585.829
588.86
590.88
591.876
591.842
590.777
)
;
    }
    coldSide
    {
        type            mixed;
        refValue        uniform 300;
        refGradient     uniform 0;
        valueFraction   uniform 0.991591;
        source          uniform 0;
        value           nonuniform List<scalar> 
400
(
300.023
300.024
300.025
300.025
300.025
300.026
300.026
300.027
300.028
300.028
300.029
300.029
300.029
300.029
300.03
300.03
300.03
300.03
300.03
300.03
300.024
300.024
300.025
300.026
300.026
300.027
300.027
300.028
300.028
300.029
300.029
300.03
300.03
300.03
300.03
300.03
300.03
300.03
300.03
300.03