/*--------------------------------*- C++ -*----------------------------------*\
| =========                 |                                                 |
| \\      /  F ield         | OpenFOAM: The Open Source CFD Toolbox           |
|  \\    /   O peration     | Version:  2212                                  |
|   \\  /    A nd           | Website:  www.openfoam.com                      |
|    \\/     M anipulation  |                                                 |
\*---------------------------------------------------------------------------*/
FoamFile
{
    version     2.0;
    format      ascii;
    arch        "LSB;label=32;scalar=64";
    class       volScalarField;
    location    "0";
    object      T;
}
// * * * * * * * * * * * * * * * * * * * * * * * * * * * * * * * * * * * * * //

dimensions      [0 0 0 1 0 0 0];

internalField   nonuniform List<scalar> 
3200
(
346.583
347.37
348.344
349.206
349.997
350.617
350.981
351.065
351.314
351.375
351.076
350.629
350.232
349.788
349.275
348.241
347.104
346.428
345.161
344.405
340.458
341.069
341.988
342.697
343.342
343.92
344.194
344.29
344.475
344.544
344.3
343.922
343.575
343.12
342.782
341.886
340.787
340.277
339.155
338.549
334.25
334.744
335.556
336.194
336.689
337.188
337.39
337.502
337.656
337.748
337.56
337.206
336.896
336.49
336.256
335.513
334.511
334.075
333.146
332.706
328.036
328.472
329.145
329.67
330.019
330.461
330.58
330.729
330.842
330.915
330.776
330.442
330.208
329.857
329.676
329.087
328.213
327.888
327.122
326.838
321.793
322.146
322.69
323.135
323.325
323.702
323.8
323.942
323.987
324.073
323.942
323.638
323.493
323.229
323.109
322.625
321.948
321.735
321.083
320.972
315.574
315.864
316.252
316.589
316.69
316.927
317.023
317.138
317.111
317.208
317.09
316.869
316.762
316.605
316.565
316.139
315.676
315.503
315.081
315.021
309.358
309.53
309.78
309.995
310.009
310.161
310.247
310.322
310.302
310.319
310.265
310.129
310.079
309.969
309.997
309.704
309.385
309.324
309.067
309.033
303.149
303.174
303.272
303.361
303.36
303.406
303.426
303.481
303.44
303.458
303.456
303.393
303.372
303.343
303.353
303.251
303.129
303.127
303.052
303.055
347.455
348.441
349.664
350.494
351.03
351.512
352.091
352.197
352.504
352.557
352.152
352.109
351.728
350.927
350.222
349.446
348.46
347.456
346.278
345.361
341.172
342.001
343.028
343.747
344.243
344.649
345.157
345.187
345.497
345.544
345.165
345.138
344.819
344.15
343.524
342.857
341.92
341.098
340.095
339.343
334.875
335.561
336.415
337.024
337.442
337.788
338.217
338.239
338.53
338.546
338.18
338.202
337.905
337.394
336.853
336.245
335.426
334.761
333.935
333.314
328.599
329.145
329.836
330.312
330.67
330.926
331.28
331.314
331.527
331.555
331.23
331.273
330.971
330.602
330.175
329.665
328.975
328.431
327.769
327.321
322.28
322.722
323.221
323.571
323.855
324.068
324.395
324.362
324.518
324.587
324.329
324.325
324.077
323.794
323.488
323.058
322.535
322.141
321.604
321.276
315.95
316.295
316.553
316.836
317.055
317.167
317.482
317.405
317.522
317.54
317.399
317.403
317.217
317.021
316.793
316.453
316.091
315.799
315.45
315.256
309.567
309.806
309.94
310.131
310.231
310.314
310.538
310.448
310.555
310.546
310.515
310.467
310.365
310.221
310.099
309.915
309.653
309.491
309.285
309.172
303.221
303.277
303.339
303.406
303.432
303.457
303.539
303.512
303.56
303.555
303.538
303.531
303.475
303.408
303.374
303.317
303.231
303.172
303.132
303.074
348.9
350.02
350.928
351.984
352.689
353.137
353.808
354.045
354.347
354.172
353.849
353.621
353.199
352.706
351.89
350.977
350.113
348.901
347.558
346.796
342.343
343.353
344.089
345.063
345.648
345.984
346.592
346.778
347.034
346.914
346.598
346.389
346.036
345.57
344.862
344.121
343.387
342.299
341.157
340.507
335.823
336.665
337.269
338.121
338.58
338.868
339.401
339.538
339.753
339.653
339.379
339.172
338.924
338.494
337.89
337.324
336.672
335.712
334.803
334.226
329.324
329.996
330.457
331.176
331.542
331.804
332.219
332.312
332.522
332.438
332.211
331.991
331.83
331.454
330.984
330.526
329.977
329.188
328.432
327.96
322.82
323.372
323.67
324.238
324.53
324.744
324.989
325.09
325.267
325.257
325.062
324.891
324.745
324.44
324.08
323.719
323.296
322.692
322.093
321.697
316.299
316.703
316.923
317.34
317.537
317.702
317.852
317.892
318.046
318.032
317.93
317.812
317.648
317.427
317.183
316.926
316.643
316.176
315.78
315.479
309.781
310.046
310.167
310.436
310.536
310.622
310.696
310.753
310.843
310.832
310.777
310.718
310.571
310.48
310.311
310.177
309.99
309.688
309.478
309.29
303.26
303.367
303.405
303.519
303.535
303.585
303.584
303.61
303.625
303.631
303.614
303.601
303.54
303.489
303.449
303.399
303.331
303.233
303.157
303.112
350.587
351.627
352.491
353.513
354.419
355.104
355.394
355.836
355.955
355.976
355.64
355.357
355.165
354.462
353.744
352.703
351.555
350.401
349.203
348.508
343.819
344.713
345.491
346.31
347.092
347.666
347.956
348.319
348.448
348.482
348.119
347.91
347.741
347.111
346.533
345.602
344.609
343.575
342.544
342
337.08
337.802
338.486
339.136
339.783
340.233
340.571
340.811
340.929
340.962
340.656
340.461
340.339
339.77
339.34
338.566
337.706
336.826
335.949
335.548
330.348
330.898
331.488
331.963
332.513
332.862
333.19
333.366
333.422
333.508
333.208
333.068
332.932
332.51
332.155
331.542
330.818
330.105
329.383
329.093
323.602
324.013
324.496
324.827
325.233
325.541
325.809
325.966
325.998
326.074
325.807
325.689
325.579
325.281
324.991
324.523
323.929
323.409
322.84
322.637
316.855
317.11
317.5
317.703
318.002
318.217
318.463
318.521
318.61
318.641
318.482
318.296
318.244
318.065
317.848
317.569
317.042
316.748
316.303
316.151
310.108
310.266
310.525
310.634
310.816
310.941
311.134
311.109
311.177
311.204
311.099
310.996
310.945
310.855
310.728
310.535
310.234
310.038
309.787
309.691
303.382
303.451
303.53
303.549
303.624
303.692
303.739
303.711
303.751
303.763
303.712
303.688
303.647
303.639
303.598
303.525
303.423
303.364
303.265
303.252
352.121
353.095
354.032
355.042
356.132
356.878
357.37
357.55
357.618
357.793
357.564
357.406
356.787
356.284
355.426
354.479
353.21
352.046
350.925
350.022
345.164
345.99
346.753
347.657
348.575
349.204
349.679
349.794
349.837
350.027
349.783
349.608
349.141
348.697
347.979
347.149
345.987
344.978
344.076
343.34
338.248
338.847
339.54
340.279
341.046
341.544
341.999
342.06
342.09
342.296
342
341.918
341.518
341.138
340.507
339.878
338.826
337.97
337.257
336.7
331.294
331.76
332.362
332.93
333.564
333.966
334.347
334.355
334.428
334.623
334.341
334.258
333.959
333.575
333.058
332.643
331.754
330.999
330.469
330.067
324.315
324.697
325.185
325.617
326.095
326.453
326.691
326.698
326.787
326.95
326.704
326.649
326.422
326.076
325.696
325.374
324.676
324.095
323.695
323.396
317.345
317.63
318.004
318.263
318.638
318.916
319.052
319.073
319.151
319.261
319.081
319.022
318.942
318.625
318.312
318.137
317.604
317.215
316.899
316.719
310.416
310.555
310.815
310.979
311.177
311.359
311.451
311.447
311.487
311.545
311.468
311.424
311.433
311.193
310.954
310.895
310.546
310.324
310.128
310.052
303.487
303.536
303.632
303.689
303.741
303.831
303.832
303.855
303.848
303.866
303.84
303.812
303.828
303.739
303.637
303.651
303.494
303.44
303.393
303.378
353.501
354.528
355.542
356.707
357.623
358.321
358.921
359.276
359.398
359.601
359.134
359.256
358.526
357.792
357.074
356.269
355.107
353.567
352.451
351.408
346.334
347.209
348.082
349.088
349.888
350.486
350.96
351.306
351.383
351.592
351.182
351.297
350.597
350.026
349.428
348.708
347.671
346.348
345.417
344.567
339.202
339.904
340.651
341.484
342.175
342.659
343.063
343.398
343.422
343.567
343.246
343.334
342.74
342.308
341.788
341.187
340.28
339.194
338.395
337.724
332.086
332.655
333.253
333.929
334.474
334.849
335.192
335.47
335.447
335.571
335.364
335.371
334.953
334.596
334.148
333.66
332.929
332.057
331.425
330.878
324.994
325.369
325.9
326.389
326.835
327.096
327.312
327.569
327.505
327.607
327.503
327.533
327.159
326.926
326.53
326.127
325.562
324.954
324.446
324.045
317.886
318.162
318.512
318.867
319.205
319.347
319.48
319.688
319.646
319.724
319.665
319.727
319.402
319.251
318.937
318.661
318.209
317.819
317.459
317.213
310.738
310.915
311.105
311.33
311.531
311.611
311.661
311.812
311.793
311.852
311.817
311.852
311.665
311.512
311.408
311.203
310.94
310.712
310.47
310.348
303.585
303.647
303.71
303.807
303.873
303.895
303.917
303.974
303.944
303.954
303.95
303.937
303.896
303.841
303.83
303.762
303.666
303.576
303.495
303.466
355.178
355.979
357.07
358.394
359.313
359.968
360.376
361.029
361.081
360.931
360.838
360.71
360.141
359.229
358.559
357.853
356.665
355.26
353.931
353.068
347.814
348.453
349.367
350.546
351.331
351.884
352.226
352.831
352.872
352.692
352.561
352.563
351.982
351.262
350.656
350.021
348.998
347.795
346.66
345.944
340.475
341.001
341.685
342.705
343.403
343.809
344.151
344.647
344.657
344.49
344.362
344.451
343.872
343.362
342.791
342.297
341.434
340.417
339.435
338.877
333.118
333.572
334.062
334.914
335.468
335.788
336.044
336.507
336.477
336.367
336.22
336.331
335.822
335.479
334.986
334.527
333.817
333.048
332.26
331.831
325.767
326.134
326.429
327.165
327.556
327.821
327.989
328.345
328.338
328.29
328.104
328.272
327.829
327.646
327.174
326.839
326.291
325.674
325.056
324.788
318.429
318.662
318.893
319.422
319.698
319.857
319.961
320.211
320.209
320.223
320.037
320.23
319.869
319.796
319.405
319.202
318.756
318.348
317.906
317.772
311.076
311.185
311.332
311.66
311.849
311.887
311.98
312.13
312.112
312.159
311.988
312.184
311.944
311.913
311.641
311.555
311.276
311.045
310.785
310.667
303.723
303.741
303.792
303.914
303.968
303.97
304.012
304.069
304.057
304.073
303.991
304.101
303.988
303.987
303.904
303.877
303.795
303.718
303.619
303.579
356.611
357.485
358.53
360.016
360.673
361.359
362.236
362.545
362.592
362.622
362.419
362.335
361.646
361.035
360.198
359.37
358.157
356.718
355.36
354.737
349.05
349.757
350.675
351.946
352.533
353.153
353.852
354.165
354.185
354.198
354.02
353.968
353.329
352.76
352.09
351.345
350.297
349.029
347.912
347.447
341.535
342.085
342.842
343.945
344.427
344.977
345.471
345.783
345.831
345.84
345.653
345.636
345.036
344.539
344.032
343.397
342.53
341.428
340.541
340.184
334.043
334.418
335.028
335.926
336.377
336.807
337.149
337.391
337.456
337.446
337.332
337.33
336.811
336.412
335.98
335.475
334.756
333.904
333.171
332.867
326.466
326.776
327.221
327.926
328.336
328.625
328.806
329.058
329.109
329.11
329.009
328.996
328.616
328.308
327.979
327.583
327.002
326.38
325.852
325.563
318.94
319.119
319.446
319.933
320.282
320.455
320.534
320.75
320.745
320.824
320.741
320.662
320.437
320.203
319.986
319.675
319.285
318.845
318.458
318.282
311.399
311.475
311.675
311.95
312.224
312.283
312.313
312.447
312.421
312.548
312.448
312.401
312.296
312.128
312.024
311.812
311.567
311.336
311.087
310.996
303.834
303.857
303.912
304.006
304.114
304.138
304.137
304.184
304.155
304.204
304.169
304.148
304.128
304.076
304.035
303.966
303.873
303.827
303.715
303.671
357.776
359.028
360.142
361.087
362.129
362.91
363.645
364.057
364.208
364.229
364.032
363.935
363.295
362.645
361.754
360.816
359.505
358.029
356.693
355.879
350.095
351.165
352.048
352.839
353.784
354.391
355.081
355.428
355.576
355.588
355.364
355.372
354.745
354.196
353.426
352.614
351.49
350.152
349.038
348.416
342.443
343.267
344.007
344.655
345.547
345.948
346.588
346.848
346.973
346.986
346.792
346.822
346.259
345.8
345.133
344.428
343.535
342.364
341.402
340.968
334.743
335.38
335.967
336.512
337.274
337.578
338.094
338.295
338.384
338.45
338.246
338.287
337.814
337.443
336.886
336.32
335.602
334.62
333.81
333.495
327.021
327.497
327.98
328.421
329.001
329.236
329.607
329.751
329.832
329.943
329.718
329.758
329.423
329.084
328.704
328.234
327.723
326.906
326.288
326.032
319.273
319.609
319.98
320.329
320.723
320.885
321.114
321.232
321.289
321.378
321.24
321.23
321.052
320.718
320.539
320.171
319.853
319.179
318.769
318.606
311.575
311.759
311.984
312.235
312.465
312.517
312.661
312.726
312.766
312.828
312.753
312.765
312.661
312.391
312.354
312.123
311.916
311.497
311.265
311.182
303.882
303.938
304.011
304.109
304.184
304.205
304.245
304.263
304.287
304.295
304.269
304.296
304.215
304.127
304.146
304.045
304.01
303.841
303.768
303.743
359.291
360.493
361.527
362.357
363.459
364.385
365.194
365.394
365.603
365.758
365.462
365.356
364.835
364.226
363.096
362.162
360.957
359.561
358.15
357.099
351.372
352.388
353.268
353.924
354.921
355.748
356.438
356.572
356.772
356.941
356.625
356.574
356.106
355.564
354.635
353.761
352.708
351.526
350.274
349.478
343.445
344.285
345.011
345.558
346.463
347.148
347.692
347.819
347.946
348.125
347.842
347.794
347.453
346.97
346.21
345.404
344.539
343.546
342.432
341.844
335.527
336.233
336.815
337.205
338.05
338.555
338.975
339.068
339.171
339.371
339.122
339.059
338.843
338.401
337.802
337.127
336.371
335.598
334.647
334.185
327.609
328.196
328.602
328.908
329.601
329.992
330.275
330.339
330.432
330.608
330.442
330.381
330.231
329.833
329.382
328.833
328.272
327.66
326.934
326.574
319.735
320.151
320.393
320.68
321.157
321.447
321.626
321.681
321.752
321.872
321.749
321.72
321.601
321.264
320.972
320.533
320.203
319.744
319.256
318.969
311.828
312.11
312.224
312.423
312.709
312.879
312.998
313.034
313.086
313.127
313.063
313.03
312.972
312.736
312.582
312.313
312.143
311.867
311.588
311.399
303.948
304.069
304.088
304.163
304.258
304.344
304.356
304.365
304.374
304.384
304.367
304.373
304.326
304.268
304.213
304.092
304.088
303.982
303.888
303.807
360.419
361.485
362.684
363.686
364.832
365.73
366.317
366.639
366.981
367.058
366.768
366.632
366.286
365.736
364.715
363.507
362.216
360.846
359.321
358.352
352.345
353.209
354.235
355.086
356.072
356.852
357.358
357.661
357.941
358.007
357.783
357.659
357.385
356.9
356.015
354.897
353.797
352.671
351.323
350.553
344.261
344.945
345.873
346.557
347.325
348.013
348.458
348.732
348.921
349.02
348.787
348.733
348.499
348.066
347.306
346.3
345.408
344.55
343.333
342.757
336.216
336.709
337.505
338.082
338.686
339.215
339.604
339.896
339.941
340.094
339.873
339.848
339.64
339.265
338.682
337.803
337.104
336.471
335.415
334.967
328.153
328.495
329.108
329.606
330.083
330.454
330.805
331.083
331.048
331.19
331.003
331.037
330.835
330.496
330.091
329.37
328.866
328.376
327.552
327.172
320.072
320.32
320.765
321.175
321.543
321.766
322.015
322.225
322.15
322.287
322.191
322.2
322.023
321.788
321.494
320.954
320.607
320.31
319.662
319.405
312.049
312.216
312.452
312.698
312.973
313.089
313.224
313.36
313.309
313.37
313.347
313.354
313.239
313.088
312.92
312.584
312.36
312.206
311.815
311.652
304.025
304.116
304.191
304.256
304.343
304.39
304.429
304.484
304.444
304.491
304.488
304.465
304.428
304.412
304.345
304.212
304.129
304.101
303.962
303.918
361.162
362.409
363.612
365.009
365.946
366.811
367.563
368.116
368.339
368.38
368.03
367.822
367.432
366.768
365.909
364.71
363.364
362.175
360.502
359.422
352.971
354.021
355.049
356.295
357.084
357.831
358.463
358.974
359.156
359.173
358.834
358.707
358.353
357.756
357.049
355.977
354.826
353.839
352.347
351.452
344.779
345.644
346.543
347.585
348.218
348.844
349.405
349.934
349.939
349.993
349.711
349.6
349.34
348.841
348.21
347.327
346.307
345.543
344.203
343.514
336.589
337.294
338.033
338.9
339.377
339.892
340.378
340.808
340.79
340.88
340.598
340.566
340.326
339.968
339.375
338.686
337.787
337.248
336.119
335.613
328.469
329.004
329.568
330.254
330.6
331.003
331.357
331.699
331.72
331.797
331.545
331.561
331.332
331.068
330.583
330.07
329.349
328.963
328.075
327.686
320.333
320.732
321.123
321.628
321.854
322.163
322.395
322.61
322.669
322.763
322.522
322.554
322.388
322.181
321.836
321.465
320.956
320.696
320.1
319.754
312.223
312.475
312.664
312.998
313.121
313.315
313.453
313.538
313.596
313.679
313.497
313.544
313.458
313.309
313.103
312.876
312.562
312.449
312.106
311.872
304.09
304.172
304.257
304.343
304.386
304.474
304.513
304.545
304.557
304.585
304.514
304.536
304.523
304.445
304.39
304.318
304.215
304.173
304.071
303.979
362.201
363.614
364.711
366.171
367.137
368.14
368.771
369.4
369.438
369.585
369.327
369.112
368.623
367.795
366.745
365.702
364.603
363.25
361.659
360.202
353.839
355.045
355.993
357.343
358.026
358.949
359.501
360.021
360.099
360.211
359.976
359.755
359.377
358.654
357.743
356.857
355.881
354.75
353.314
352.106
345.49
346.522
347.316
348.5
348.951
349.808
350.305
350.699
350.824
350.891
350.679
350.455
350.157
349.593
348.8
348.031
347.176
346.287
345.038
344.056
337.161
338.037
338.704
339.647
339.942
340.742
341.144
341.416
341.537
341.573
341.442
341.216
340.998
340.607
339.901
339.252
338.548
337.82
336.82
336.046
328.848
329.573
330.095
330.841
331.004
331.663
331.987
332.153
332.293
332.293
332.202
332.034
331.86
331.617
331.008
330.511
329.948
329.382
328.632
328.038
320.61
321.187
321.47
321.998
322.147
322.616
322.855
322.945
323.074
323.043
323.015
322.855
322.759
322.585
322.161
321.802
321.36
321.018
320.466
320.011
312.385
312.729
312.894
313.17
313.296
313.564
313.718
313.748
313.9
313.809
313.823
313.743
313.682
313.538
313.308
313.108
312.818
312.642
312.295
311.998
304.135
304.283
304.312
304.403
304.453
304.534
304.602
304.6
304.656
304.623
304.613
304.59
304.589
304.527
304.449
304.409
304.305
304.245
304.124
304.006
363.11
364.509
365.718
367.129
368.125
369.121
369.821
370.559
370.447
370.541
370.292
370.18
369.722
368.859
367.703
366.873
365.641
364.103
362.809
361.404
354.628
355.861
356.88
358.117
358.902
359.801
360.415
361.099
360.986
361.037
360.815
360.726
360.321
359.562
358.564
357.858
356.773
355.436
354.371
353.165
346.167
347.213
348.095
349.094
349.73
350.583
351.091
351.649
351.557
351.579
351.403
351.334
350.957
350.367
349.466
348.859
347.93
346.816
345.999
344.959
337.743
338.569
339.322
340.139
340.638
341.325
341.787
342.225
342.147
342.171
342.008
341.974
341.634
341.202
340.418
339.892
339.16
338.248
337.607
336.794
329.357
329.983
330.568
331.232
331.592
332.129
332.514
332.831
332.741
332.787
332.622
332.656
332.353
332.071
331.418
330.988
330.415
329.756
329.272
328.59
320.946
321.416
321.802
322.293
322.565
322.989
323.229
323.475
323.376
323.439
323.336
323.314
323.098
322.942
322.451
322.123
321.691
321.231
320.903
320.423
312.576
312.847
313.056
313.384
313.546
313.822
313.932
314.114
314.03
314.099
314.004
314.014
313.862
313.777
313.525
313.301
313.068
312.698
312.503
312.276
304.225
304.311
304.363
304.49
304.534
304.646
304.656
304.728
304.674
304.713
304.709
304.676
304.658
304.628
304.561
304.462
304.374
304.267
304.189
304.11
364.075
365.429
366.626
367.964
368.858
369.876
370.627
371.334
371.551
371.558
371.191
370.994
370.753
369.854
368.835
367.699
366.369
364.987
363.676
362.004
355.55
356.653
357.625
358.771
359.604
360.482
361.165
361.776
361.927
361.921
361.593
361.453
361.244
360.415
359.578
358.563
357.365
356.197
355.076
353.644
347.041
347.881
348.744
349.646
350.382
351.089
351.702
352.234
352.361
352.328
352.065
351.967
351.755
351.045
350.348
349.478
348.483
347.483
346.515
345.316
338.503
339.136
339.885
340.553
341.188
341.753
342.26
342.723
342.794
342.766
342.61
342.485
342.274
341.756
341.11
340.416
339.632
338.812
338.024
337.019
329.992
330.45
331.015
331.513
332.021
332.459
332.854
333.233
333.293
333.257
333.172
333.069
332.856
332.484
331.887
331.382
330.797
330.175
329.556
328.752
321.467
321.767
322.116
322.494
322.864
323.22
323.465
323.732
323.799
323.779
323.734
323.63
323.452
323.211
322.754
322.405
321.981
321.566
321.147
320.55
312.899
313.08
313.254
313.507
313.729
313.96
314.085
314.231
314.293
314.274
314.228
314.188
314.074
313.924
313.643
313.455
313.197
312.93
312.701
312.364
304.336
304.366
304.439
304.535
304.604
304.673
304.712
304.775
304.793
304.776
304.764
304.759
304.717
304.685
304.55
304.518
304.434
304.322
304.248
304.137
364.75
365.934
367.24
368.521
369.51
370.43
371.185
372.057
372.551
372.41
372.2
371.771
371.255
370.486
369.476
368.562
367.325
365.961
364.241
362.772
356.123
357.098
358.218
359.293
360.145
360.92
361.611
362.371
362.797
362.688
362.466
362.095
361.642
361.002
360.101
359.294
358.225
357.093
355.59
354.367
347.481
348.336
349.222
350.128
350.847
351.472
352.087
352.737
353.104
352.993
352.801
352.515
352.134
351.552
350.798
350.126
349.178
348.232
347.018
346
338.87
339.55
340.277
340.978
341.596
342.082
342.6
343.102
343.405
343.344
343.145
342.936
342.585
342.162
341.575
340.984
340.191
339.43
338.454
337.631
330.247
330.792
331.312
331.893
332.326
332.723
333.117
333.564
333.797
333.715
333.582
333.377
333.1
332.767
332.361
331.84
331.247
330.644
329.903
329.276
321.674
322.013
322.319
322.833
323.079
323.377
323.644
324.015
324.155
324.085
324.012
323.82
323.614
323.412
323.133
322.749
322.332
321.898
321.348
320.919
313.049
313.203
313.366
313.74
313.86
314.06
314.172
314.427
314.519
314.462
314.424
314.257
314.181
314.069
313.903
313.684
313.411
313.131
312.805
312.575
304.383
304.412
304.484
304.609
304.636
304.707
304.74
304.841
304.885
304.867
304.834
304.766
304.76
304.711
304.653
304.593
304.475
304.412
304.296
304.22
365.132
366.277
367.876
369.04
370.042
370.934
371.785
372.62
373.167
372.981
372.867
372.351
372.002
371.163
370.077
369.216
367.943
366.597
365.092
363.28
356.473
357.404
358.729
359.764
360.598
361.373
362.087
362.874
363.382
363.153
363.072
362.636
362.287
361.58
360.627
359.898
358.754
357.644
356.347
354.772
347.79
348.568
349.631
350.521
351.214
351.916
352.458
353.15
353.563
353.367
353.321
352.968
352.605
352.069
351.238
350.626
349.653
348.743
347.615
346.326
339.1
339.746
340.541
341.304
341.85
342.495
342.87
343.466
343.776
343.643
343.612
343.33
343.003
342.526
341.915
341.398
340.565
339.872
338.965
337.889
330.431
330.927
331.515
332.122
332.558
333.106
333.351
333.832
334.023
333.932
333.908
333.665
333.441
333.006
332.613
332.195
331.557
330.993
330.31
329.496
321.745
322.114
322.489
322.908
323.226
323.688
323.851
324.18
324.324
324.246
324.203
324.036
323.864
323.534
323.32
323.033
322.56
322.151
321.655
321.121
313.063
313.301
313.532
313.764
313.947
314.25
314.351
314.508
314.602
314.572
314.489
314.43
314.326
314.08
314.024
313.796
313.549
313.308
313.043
312.744
304.371
304.46
304.545
304.613
304.659
304.771
304.798
304.852
304.889
304.886
304.847
304.833
304.787
304.723
304.726
304.609
304.539
304.468
304.369
304.291
365.435
366.618
368.291
369.554
370.568
371.747
372.454
373.114
373.405
373.5
373.245
372.957
372.492
371.69
370.879
369.671
368.479
366.96
365.332
363.738
356.658
357.648
359.132
360.172
361.067
362.059
362.701
363.279
363.529
363.608
363.364
363.139
362.737
361.988
361.335
360.274
359.227
357.92
356.511
355.201
347.936
348.724
349.978
350.836
351.597
352.421
353.014
353.512
353.717
353.745
353.555
353.359
353.023
352.336
351.78
350.936
350.031
348.943
347.735
346.705
339.228
339.84
340.837
341.562
342.144
342.87
343.365
343.759
343.956
343.955
343.776
343.614
343.307
342.794
342.294
341.662
340.888
340.002
338.99
338.171
330.505
330.945
331.749
332.323
332.752
333.304
333.737
334.03
334.17
334.207
334.017
333.894
333.65
333.246
332.805
332.421
331.79
331.067
330.3
329.643
321.814
322.133
322.652
323.075
323.377
323.734
324.13
324.332
324.414
324.439
324.262
324.178
324.04
323.718
323.438
323.174
322.685
322.148
321.662
321.168
313.085
313.294
313.595
313.872
314.031
314.221
314.486
314.624
314.683
314.661
314.603
314.504
314.436
314.242
314.073
313.931
313.593
313.282
313.019
312.694
304.396
304.452
304.545
304.652
304.715
304.751
304.863
304.903
304.925
304.907
304.903
304.855
304.835
304.773
304.709
304.677
304.546
304.458
304.358
304.236
365.855
366.923
368.509
369.736
371.147
371.959
372.644
373.435
373.847
373.888
373.607
373.298
372.949
372.161
371.095
369.973
368.398
367.173
365.798
364.276
357.037
357.908
359.304
360.367
361.585
362.276
362.866
363.569
363.928
363.937
363.694
363.393
363.148
362.411
361.488
360.558
359.172
358.102
356.933
355.674
348.214
348.959
350.105
351.02
352.032
352.637
353.126
353.681
354.057
354.037
353.856
353.578
353.337
352.738
351.988
351.228
349.996
349.09
348.138
347.108
339.453
340.045
340.967
341.677
342.501
343.102
343.433
343.891
344.17
344.179
344.042
343.845
343.516
343.043
342.528
341.863
340.895
340.134
339.39
338.55
330.699
331.143
331.851
332.404
333
333.526
333.788
334.125
334.349
334.369
334.236
334.136
333.793
333.402
333.096
332.494
331.803
331.224
330.675
330.014
321.958
322.253
322.781
323.152
323.539
323.924
324.169
324.346
324.563
324.574
324.456
324.399
324.173
323.84
323.616
323.183
322.696
322.308
321.955
321.455
313.198
313.357
313.716
313.9
314.16
314.365
314.528
314.627
314.785
314.77
314.694
314.665
314.542
314.306
314.183
313.886
313.625
313.409
313.206
312.899
304.427
304.48
304.603
304.653
304.747
304.794
304.866
304.892
304.936
304.945
304.945
304.924
304.883
304.796
304.745
304.676
304.581
304.515
304.439
304.326
365.927
367.004
368.56
370.048
371.207
372.161
372.919
373.796
374.108
374.21
373.904
373.794
373.255
372.387
371.685
370.3
368.816
367.328
366.005
364.362
357.136
357.983
359.3
360.618
361.583
362.472
363.09
363.878
364.153
364.22
363.896
363.886
363.413
362.637
362.047
360.8
359.501
358.294
357.095
355.706
348.346
349.076
350.086
351.239
352.056
352.804
353.325
353.986
354.221
354.31
353.97
353.984
353.621
352.951
352.482
351.377
350.235
349.314
348.238
347.129
339.549
340.203
340.965
341.885
342.58
343.179
343.658
344.125
344.335
344.402
344.101
344.129
343.863
343.267
342.924
341.975
341.02
340.345
339.416
338.581
330.736
331.349
331.862
332.557
333.099
333.57
334.009
334.326
334.482
334.489
334.295
334.349
334.124
333.595
333.415
332.654
331.838
331.371
330.681
330.021
321.925
322.438
322.774
323.269
323.629
323.983
324.321
324.507
324.657
324.595
324.521
324.572
324.37
323.985
323.939
323.343
322.713
322.436
321.96
321.431
313.145
313.477
313.689
313.958
314.178
314.401
314.636
314.722
314.784
314.773
314.728
314.773
314.636
314.362
314.429
314.006
313.643
313.477
313.21
312.859
304.4
304.524
304.587
304.68
304.744
304.815
304.91
304.947
304.926
304.957
304.957
304.939
304.896
304.789
304.825
304.704
304.581
304.516
304.427
304.294
)
;

boundaryField
{
    hotSide
    {
        type            fixedGradient;
        gradient        nonuniform List<scalar> 
400
(
487.961
506.194
524.096
541.587
558.587
575.016
590.796
605.85
620.103
633.482
645.921
657.353
667.72
676.967
685.045
691.91
697.527
701.866
704.903
706.624
499.888
518.665
537.107
555.131
572.655
589.596
605.875
621.41
636.126
649.947
662.804
674.629
685.361
694.943
703.324
710.461
716.314
720.854
724.055
725.902
510.45
529.722
548.656
567.167
585.17
602.581
619.316
635.294
650.435
664.663
677.906
690.094
701.165
711.059
719.724
727.115
733.191
737.921
741.28
743.251
519.59
539.306
558.681
577.628
596.062
613.895
631.042
647.419
662.946
677.543
691.136
703.655
715.035
725.215
734.141
741.766
748.05
752.959
756.467
758.557
527.264
547.369
567.13
586.461
605.274
623.478
640.989
657.72
673.588
688.513
702.419
715.233
726.889
737.326
746.488
754.326
760.799
765.873
769.52
771.723
533.442
553.876
573.967
593.626
612.762
631.286
649.109
666.144
682.307
697.515
711.692
724.764
736.663
747.325
756.695
764.723
771.365
776.587
780.362
782.67
538.101
558.805
579.166
599.093
618.496
637.283
655.365
672.653
689.061
704.508
718.913
732.202
744.305
755.16
764.708
772.899
779.689
785.042
788.931
791.335
541.231
562.142
582.711
602.846
622.457
641.45
659.734
677.222
693.825
709.46
724.047
737.511
749.781
760.793
770.487
778.814
785.728
791.193
795.181
797.67
542.831
563.885
584.598
604.88
624.637
643.776
662.206
679.838
696.583
712.357
727.079
740.673
753.069
764.201
774.009
782.442
789.455
795.012
799.082
801.645
542.907
564.039
584.833
605.197
625.038
644.263
662.78
680.499
697.331
713.193
728.002
741.681
754.161
765.374
775.262
783.771
790.857
796.483
800.619
803.243
541.473
562.616
583.426
603.808
623.671
642.921
661.465
679.214
696.079
711.975
726.821
740.54
753.061
764.316
774.248
782.802
789.935
795.607
799.79
802.462
538.549
559.639
580.399
600.735
620.556
639.769
658.281
676.002
692.844
708.723
723.556
737.267
749.785
761.044
770.983
779.551
786.701
792.397
796.608
799.313
534.163
555.133
575.778
596.005
615.722
634.835
653.255
670.891
687.655
703.462
718.233
731.89
744.362
755.583
765.494
774.043
781.184
786.879
791.099
793.822
528.346
549.133
569.599
589.652
609.202
628.157
646.425
663.918
680.548
696.233
710.891
724.447
736.829
747.974
757.821
766.318
773.421
779.093
783.302
786.029
521.137
541.677
561.901
581.72
601.042
619.777
637.835
655.129
671.573
687.083
701.579
714.988
727.239
738.267
748.014
756.429
763.467
769.09
773.27
775.985
512.581
532.812
552.733
572.256
591.291
609.748
627.541
644.581
660.785
676.069
690.357
703.574
715.652
726.526
736.139
744.44
751.385
756.938
761.069
763.758
502.729
522.591
542.15
561.318
580.009
598.133
615.604
632.338
648.251
663.262
677.295
690.278
702.141
712.824
722.269
730.427
737.253
742.713
746.778
749.427
491.637
511.073
530.214
548.972
567.262
585
602.098
618.475
634.048
648.74
662.474
675.181
686.793
697.249
706.494
714.48
721.163
726.509
730.489
733.085
479.368
498.326
516.994
535.289
553.128
570.428
587.104
603.076
618.264
632.593
645.987
658.379
669.703
679.899
688.915
696.701
703.218
708.43
712.31
714.84
465.995
484.423
502.569
520.352
537.691
554.505
570.713
586.236
600.997
614.921
627.937
639.978
650.98
660.887
669.645
677.208
683.536
688.596
692.361
694.813
)
;
    }
    coldSide
    {
        type            mixed;
        refValue        uniform 300;
        refGradient     uniform 0;
        valueFraction   uniform 0.991591;
        source          uniform 0;
        value           nonuniform List<scalar> 
400
(
300.026
300.027
300.027
300.028
300.029
300.03
300.031
300.032
300.033
300.033
300.034
300.034
300.035
300.036
300.036
300.037
300.037
300.037
300.037
300.037
300.027
300.028
300.028
300.029
300.03
300.031
300.031
300.032
300.033
300.034
300.035
300.035
300.036
300.036
300.037
300.037
300.038