/*--------------------------------*- C++ -*----------------------------------*\
| =========                 |                                                 |
| \\      /  F ield         | OpenFOAM: The Open Source CFD Toolbox           |
|  \\    /   O peration     | Version:  2212                                  |
|   \\  /    A nd           | Website:  www.openfoam.com                      |
|    \\/     M anipulation  |                                                 |
\*---------------------------------------------------------------------------*/
FoamFile
{
    version     2.0;
    format      ascii;
    arch        "LSB;label=32;scalar=64";
    class       volScalarField;
    location    "0";
    object      stateMean;
}
// * * * * * * * * * * * * * * * * * * * * * * * * * * * * * * * * * * * * * //

dimensions      [0 0 0 1 0 0 0];

internalField   nonuniform List<scalar> 
3200
(
340.181
339.084
341.525
343.589
343.071
344.49
346.86
346.028
346.566
346.243
347.105
346.144
342.92
346.235
345.579
349.613
344.213
342.438
341.241
341.185
336.783
337.342
337.304
336.437
338.096
339.616
339.229
340.26
341.224
341.338
340.376
339.654
341.126
338.862
339.938
338.469
338.568
335.383
337.485
334.971
331.317
331.101
331.524
333.172
330.772
331.945
333.563
330.272
335.665
337.432
334.759
334.515
334.952
336.407
332.878
331.747
332.047
329.91
330.706
328.873
325.442
326.009
326.566
325.981
326.342
326.757
331.511
327.368
327.697
328.19
328.72
326.73
327.577
325.973
325.938
330.104
328.435
324.858
325.05
326.412
318.264
320.461
319.209
322.443
321.545
320.373
320.846
321.104
320.745
323.029
322.819
322.081
322.364
319.88
320.983
322.913
321.087
320.811
319.249
320.054
313.837
312.375
313.7
316.277
314.412
316.071
317.13
317.114
315.599
316.78
316.038
315.677
316.929
316.201
318.512
313.824
315.015
312.652
313.346
315.356
308.759
308.445
307.522
309.277
307.492
312.896
309.014
309.496
308.958
307.912
310.074
310.158
310.161
308.165
306.366
309.578
310.743
308.861
309.667
310.444
301.783
300.566
301.845
303.724
303.144
302.393
302.605
303.276
302.776
303.436
301.986
302.28
305.322
303.867
301.933
302.89
302.82
303.257
301.311
302.96
342.7
341.231
343.176
342.619
345.526
346.241
347.14
346.652
348.846
348.11
347.803
349.396
349.848
346.183
345.212
344.01
344.356
344.534
344.966
339.756
335.941
336.315
336.324
340.934
341.537
342.373
341.921
344.24
340.533
345.252
346.23
338.164
344.631
339.163
342.644
339.453
339.332
337.048
337.398
334.805
331.725
331.705
332.232
332.353
332.162
335.813
332.967
334.649
335.811
335.016
336.236
336.971
335.078
333.57
332.632
334.08
332.396
331.106
330.759
331.65
323.919
324.046
326.361
325.328
327.791
328.424
327.327
329.001
325.878
327.939
329.717
327.653
328.173
328.244
327.42
326.632
326.579
324.529
324.923
323.994
319.043
320.011
319.822
321.618
321.282
323.043
321.965
324.391
321.38
323.127
319.121
323.819
320.802
321.318
320.677
323.242
319.355
321.638
319.672
321.35
315.491
314.654
315.394
313.156
314.754
315.649
317.14
317.733
318.057
314.618
317.733
317.187
316.013
314.227
315.385
317.963
314.721
315.195
316.235
312.399
309.223
306.03
306.768
309.085
307.575
307.353
307.692
307.754
309.738
309.644
310.875
308.939
309.921
307.823
310.429
306.566
311.831
309.845
306.702
307.541
306.212
304.813
300.724
303.561
302.096
301.976
303.94
303.962
303.218
303.818
300.418
306.176
302.597
302.536
301.086
302.422
301.978
301.097
302.575
303.39
343.83
342.854
344.243
345.86
348.517
350.252
352.547
348.225
351.342
345.769
346.816
349.268
349.663
347.96
347.664
348.187
345.402
346.739
345.605
342.355
335.903
336.971
338.787
339.445
343.835
343.19
342.349
342.975
343.155
341.258
345.182
340.29
342.018
341.292
342.771
341.208
338.549
340.185
337.62
335.883
332.068
334.081
329.963
334.047
334.846
334.737
335.26
334.717
335.663
335.309
336.204
335.841
336.064
337.728
336.069
336.639
330.445
330.141
330.703
330.902
325.409
324.355
325.549
329.991
323.962
328.48
329.174
327.911
329.012
331.294
327.286
329.324
328.47
329.959
328.757
327.669
326.359
325.922
325.727
323.746
320.99
322.361
320.464
320.818
319.975
323.086
322.106
322.997
320.88
321.145
325.202
322.991
322.423
321.482
323.109
320.355
320.23
318.321
321.91
318.197
315.248
313.912
314.742
314.313
316.794
313.07
317.066
313.409
318.391
318.184
318.223
315.5
315.813
314.635
317.071
317.309
315.493
314.385
314.354
314.57
308.829
306.992
310.107
309.139
308.074
307.914
308.756
310.432
310.28
310.886
310.387
310.42
309.264
310.855
308.203
309.351
309.349
307.635
307.857
311.141
302.769
304.604
300.918
301.27
305.347
303.686
303.343
302.883
302.506
303.265
301.921
304.648
301.574
303.471
305.043
304.197
302.755
304.642
306.143
299.248
344.659
345.682
348.811
348.721
346.411
350.192
349.964
351.166
352.05
348.632
351.206
350.815
351.538
350.262
348.008
347.064
346.2
345.824
342.651
343.233
338.152
337.962
341.046
339.837
339.661
343.258
340.218
344.806
343.252
345.753
344.746
341.658
344.408
340.681
342.296
342.06
339.885
337.823
338.606
338.433
331.713
333.887
334.097
331.353
334.682
334.568
332.924
335.983
335.943
336.038
337.303
334.46
336.115
334.835
331.642
332.771
333.349
332.899
332.769
333.542
328.478
327.246
325.019
325.513
328.5
329.022
330.325
329.84
328.598
332.031
331.05
329.037
329.44
329.005
326.897
326.134
326.516
329.417
326.878
327.843
318.673
320.632
321.836
321.976
322.684
321.388
322.87
323.234
319.037
323.87
319.97
323.326
322.597
322.208
322.589
322.249
320.364
323.365
322.09
320.998
315.747
316.801
316.647
314.974
315.861
317.609
315.601
318.101
317.55
317.284
318.845
318.291
316.672
315.731
314.127
315.357
316.215
315.104
315.042
318.088
308.093
307.613
310.608
307.851
309.516
310.025
309.645
310.09
307.472
308.698
308.772
308.011
310.66
308.329
309.526
308.429
310.057
310.629
310.147
310.453
302.852
302.996
304.416
302.937
302.868
303.521
305.755
302.542
304.393
304.283
303.043
303.723
302.997
303.559
301.128
301.262
303.027
302.157
300.604
304.83
346.953
346.624
344.961
348.466
350.304
348.955
349.869
350.721
349.318
350.73
350.631
350.311
350.321
350.692
350.11
348.993
348.234
348.055
347.326
346.405
339.576
343.687
340.725
343.754
340.223
345.006
346.68
340.53
342.816
345.618
341.384
344.489
343.22
343.614
340.846
339.432
341.402
340.195
340.442
339.705
334.465
334.839
334.945
335.836
333.88
334.786
335.311
337.507
340.571
337.157
334.728
335.911
339.032
335.505
337.448
334.111
333.908
336.482
333.735
330.679
325.265
328.276
328.522
325.903
328.673
325.095
328.214
330.531
328.188
332.025
333.087
333.497
329.835
330.995
328.29
326.25
329.83
327.328
326.921
323.959
322.724
320.561
319.429
324.426
322.653
322.437
324.151
324.051
322.015
324.743
321.827
322.104
325.377
322.695
322.366
324.312
325.046
323.706
318.436
320.503
316.531
314.863
314.143
316.429
313.049
313.084
315.894
320.837
315.999
318.483
314.453
316.995
318.321
317.542
313.875
317.239
315.496
314.885
316.563
312.928
310.351
307.832
308.504
310.075
308.09
311.829
308.814
309.749
308.489
310.525
310.489
306.79
312.562
309.616
312.157
309.897
309.877
310.234
307.808
308.238
305.511
303.21
305.208
302.672
302.677
303.871
304.757
301.762
301.295
304.744
301.048
301.679
305.479
303.171
303.392
304.416
301.67
305.424
304.13
301.024
345.379
344.361
344.124
348.381
351.462
349.645
351.285
350.22
350.907
354.007
351.733
351.656
353.238
351.514
353.566
349.717
347.858
350.206
348.85
346.951
342.45
337.229
342.913
340.908
344.062
342.567
345.491
345.303
344.279
345.256
346.142
343.467
344.934
345.855
343.94
344.231
341.038
342.25
338.803
343.708
333.62
335.938
334.512
334.334
335.905
338.086
337.271
337.6
340.246
341.318
339.422
336.671
339.445
338.098
335.841
337.428
337.192
333.946
331.689
335.49
327.956
327.932
328.789
331.948
327.48
327.759
328.647
331.559
333.409
330.597
333.427
331.178
326.388
331.245
328.092
329.041
330.556
330.351
327.744
327.45
320.575
321.391
323.677
322.055
322.145
323.733
323.678
327.794
323.963
325.209
323.498
325.133
325.118
324.942
323.778
325.033
326.777
323.905
322.735
319.863
316.367
314.651
313.084
317.07
313.655
318.071
317.968
314.807
317.576
317.338
317.088
316.201
316.475
314.891
317.245
317.785
318.259
316.385
316.466
314.759
308.101
307.602
311.104
309.379
311.813
312.158
308.17
311.97
310.281
311.322
312.123
307.065
313.042
311.337
309.452
307.851
310.556
310.734
308.759
310.165
304.75
302.574
302.675
300.886
303.891
300.013
304.412
302.98
303.131
301.22
305.078
305.896
305.241
303.686
301.577
305.01
303.545
304.165
302.639
302.924
346.387
348.297
348.898
352.106
351.553
350.116
354.32
353.418
351.871
355.767
354.314
352.467
352.871
350.587
352.084
349.19
352.552
349.271
348.977
345.463
339.328
340.848
344.451
343.711
346.185
345.912
345.844
346.9
349.216
345.605
346.773
343.745
346.004
344.981
347.149
344.973
344.131
342.601
343.761
338.813
335.275
333.317
339.79
338.475
338.552
340.022
339.308
335.421
341.837
337.77
338.188
340.559
337.892
337.761
337.805
336.026
335.253
335.56
335.225
335.405
328.275
331.145
329.626
330.888
330.591
329.341
330.106
332.459
332.274
330.938
328.921
333.442
330.615
331.751
329.768
328.312
328.246
327.839
327.453
328.816
319.628
324.833
324.457
323.259
322.675
323.02
324.724
325.109
326.753
326.663
322.727
324.733
324.437
323.364
322.149
321.243
325.822
321.111
322.622
322.425
314.702
316.82
315.595
317.789
314.602
319.118
318.587
319.041
318.002
318.459
316.214
321.634
317.77
317.21
318.953
316.904
316.273
314.047
316.333
314.876
313.806
308.671
310.108
311.248
308.951
312.99
309.896
311.76
313.245
310.054
311.31
311.717
310.611
310.397
310.629
308.006
308.897
311.95
309.25
309.113
304.431
303.298
303
303.302
302.55
300.516
302.162
303.268
304.416
304.377
304.377
301.194
303.985
303.825
302.123
302.723
304.364
303.759
304.973
302.14
348.697
349.309
348.665
351.875
351.249
353.894
354.26
354.764
354.161
352.159
353.034
353.516
354.031
352.311
352.989
355.577
350.881
351.537
348.055
349.399
341.576
339.773
343.615
339.58
344.268
343.176
346.398
345.664
346.014
346.291
346.211
349.964
345.494
349.626
343.513
343.723
341.785
341.909
340.56
343.925
335.09
334.339
339.986
338.995
339.201
337.459
337.443
340.893
339.326
339.809
337.691
340.086
338.388
335.742
340.086
336.617
340.016
336.304
335.916
334.573
327.442
327.606
330.841
332.459
332.323
330.054
331.941
330.637
331.502
333.759
332.758
331.307
329.91
331.74
333.658
330.508
332.135
327.097
329.876
330.81
324.939
323.924
323.037
323.787
321.944
322.245
326.213
325.084
322.779
323.495
326.271
325.101
324.646
322.496
322.299
324.476
324.292
325.09
321.095
322.662
317.358
315.04
316.959
317.16
317.595
315.154
316.738
316.487
316.846
316.216
316.992
319.007
319.047
316.503
319.55
317.11
315.84
316.86
316.297
316.83
309.845
310.851
312.399
311.065
309.217
310.507
310.514
313.843
310.231
309.53
306.587
310.434
312.323
308.999
311.973
309.757
308.983
310.365
313.042
306.459
300.746
301.653
301.33
301.532
303.444
302.612
306.114
301.901
304.368
303.781
304.863
299.698
304.86
302.475
303.004
302.402
303.896
304.806
304.517
301.541
348.778
351.289
351.837
351.551
353.075
351.917
354.963
353.356
356.995
356.059
355.385
356.159
355.182
352.671
352.521
353.294
351.731
350.5
351.322
350.986
340.174
340.337
344.309
347.878
348.382
345.509
348.685
348.175
346.658
350.209
345.392
349.59
345.826
346.515
346.212
344.971
344.854
344.734
342.147
340.825
336.061
335.998
338.34
338.615
341.339
341.057
340.311
338.727
339.788
336.724
342.227
338.417
339.964
342.674
339.943
338.637
340.027
335.319
335.236
335.738
328.369
328.669
332.745
332.62
331.744
333.092
335.044
333.3
332.541
331.911
334.422
334.938
332.663
331.773
332.164
330.922
332.349
332.242
327.871
330.056
324.546
324.4
322.067
322.861
324.117
324.706
325.456
326.495
323.822
325.084
325.207
323.042
326.159
325.481
322.395
324.479
324.935
321.208
322.281
322.219
315.184
315.549
317.181
314.831
319.719
317.428
319.007
319.973
316.707
320.852
319.866
318.886
315.335
319.081
316.446
315.837
317.69
316.532
315.549
316.649
308.599
313.176
308.789
307.483
309.772
312.613
311.47
309.362
309.206
314.213
313.051
312.425
311.118
311.386
311.542
308.471
309.17
311.318
311.338
311.126
302.742
302.159
303.805
302.808
304.461
303.998
303.897
302.073
303.138
306.068
302.017
302.546
305.85
304.874
302.927
300.92
303.118
303.702
305.025
302.614
349.126
351.693
350.25
354.707
351.927
352.468
354.407
355.397
357.346
356.161
357.079
355.965
354.372
355.821
354.502
353.344
352.895
351.792
351.212
348.731
341.067
340.004
345.318
342.791
348.608
345.593
347.278
345.45
347.894
346.579
346.669
348.771
346.036
349.447
344.999
347.556
343.036
344.07
341.452
343.999
335.065
335.962
340.79
339.941
340.264
339.963
343.903
340.062
342.313
338.553
339.913
341.576
341.584
340.938
340.136
340.403
336.669
339
335.859
334.672
329.405
328.016
329.129
330.436
334.547
333.664
331.883
333.417
333.634
332.97
331.879
331.402
332.719
331.218
334.358
327.772
332.863
331.048
328.1
330.47
325.034
323.687
325.384
325.511
324.942
326.587
329.481
324.084
325.318
326.378
326.579
324.419
323.277
324.669
327.036
324.579
325.244
325.873
323.94
322.097
316.661
316.198
316.547
319.547
318.305
319.301
319.977
318.801
318.626
317.717
321.244
320.094
319.167
319.789
317.98
318.363
320.02
319.781
316.518
317.433
310.365
309.283
309.402
310.215
313.915
310.32
312.094
308.641
309.57
312.96
311.31
313.509
310.139
313.896
309.649
310.034
309.323
311.21
308.304
309.144
302.462
303.307
304.087
304.678
301.766
301.822
302.256
303.943
304.563
302.734
303.871
303.569
303.55
300.696
302.83
304.706
304.503
305.397
302.501
300.021
352.398
351.826
354.846
353.742
355.212
355.56
354.889
360.402
356.78
356.108
357.714
357.277
355.859
353.021
355.995
351.51
353.056
352.094
351.27
348.705
340.83
340.607
345.694
342.708
346.606
345.811
349.771
346.704
349.855
347.847
347.026
348.057
347.127
349.535
345.309
346.855
343.881
344.467
342.158
342.879
339.216
338.906
337.726
338.486
341.274
340.141
340.612
341.957
340.69
344.782
342.973
342.713
342.352
339.711
338.644
340.061
341.231
337.988
338.556
337.32
329.974
329.896
329.316
332.31
332.995
333.499
334.902
338.373
331.724
334.988
334.79
333.376
331.364
335.025
332.321
332.845
332.345
333.494
331.666
328.487
323.489
322.456
323.311
324.932
323.811
327.795
325.934
325.896
325.445
326.323
325.816
324.719
325.49
325.033
324.943
324.258
323.948
322.633
326.423
325.034
317.564
317.926
318.636
318.366
318.059
318.379
320.939
317.103
321.208
316.614
321.24
317.69
318.895
318.029
317.387
318.199
317.467
317.103
315.856
315.264
309.415
310.994
310.624
311.627
309.524
308.003
311.834
311.125
308.832
312.211
310.189
310.926
310.332
312.535
310.414
311.596
308.22
309.877
308.103
308.939
302.031
301.469
301.938
303.968
304.973
302.701
302.22
302.972
305.087
304.329
302.692
303.261
300.363
304.548
305.894
305.244
303.433
306.059
303.959
304.914
354.958
352.938
353.43
355.382
355.62
356.34
357.374
355.971
355.288
359.152
359.16
358.443
357.566
356.757
353.772
354.864
355.082
353.285
352.446
351.92
342.787
345.804
346.547
346.436
346.835
350.524
349.174
347.871
350.654
347.695
352.15
350.114
350.842
347.96
347.784
347.039
346.927
346.813
346.318
345.695
340.278
337.585
340.831
340.811
342.586
342.265
339.147
339.805
342.151
342.187
344.581
342.193
341.746
341.641
342.965
341.981
340.041
339.257
336.851
337.128
329.767
333.226
334.47
331.663
332.141
333.108
333.977
333.792
331.573
333.122
335.106
334.175
333.944
332.414
334.017
334.683
329.359
333.887
330.893
330.855
324.403
320.605
327.775
325.011
325.982
325.041
329.236
327.165
323.025
328.611
326.742
329.049
327.033
325.804
327.441
325.966
322.966
324.778
322.55
322.673
316.536
318.493
317.84
318.35
318.07
321.818
319.401
318.991
317.784
321.325
319.189
319.594
317.932
319.117
319.211
318.961
321.5
317.551
316.494
319.128
309.819
311.03
310.902
310.585
313.637
311.962
309.273
311.548
311.786
311.242
311.854
310.496
310.914
311.662
311.014
312.033
312.12
311.273
308.041
309.798
304.513
303.885
304.617
303.496
303.733
306.162
299.491
305.217
304.564
304.483
302.429
304.812
302.829
302.333
302.801
302.239
302.348
305.938
302.62
302.39
353.14
351.079
353.854
358.626
354.847
355.233
360.714
358.736
357.806
360.469
359.783
357.517
358.3
356.647
355.571
354.911
354.753
352.78
350.563
351.72
344.378
343.792
347.568
344.864
349.009
346.76
349.562
347.965
349.929
348.293
348.792
350.722
347.881
350.655
347.098
347.486
345.111
346.488
344.277
340.832
337.643
340.107
338.381
339.749
341.51
340.711
341.039
342.308
345.162
343.545
343.074
344.244
343.032
339.961
342.31
340.959
338.576
335.732
338.038
337.083
329.461
326.658
332.537
328.653
333.444
334.118
335.925
334.402
333.658
333.993
335.332
333.889
332.645
332.864
335.82
333.954
333.564
333.606
332.794
328.776
324.158
325.449
327.086
324.669
326.169
325.857
327.885
327.727
324.919
327.084
328.522
328.798
325.859
324.532
327.447
325.739
325.723
325.645
323.302
321.033
316.234
318.979
317.408
318.409
319.678
318.476
319.86
319.858
319.231
318.496
320.057
321.175
318.225
320.676
316.257
316.638
317.624
317.624
315.35
317.815
311.205
311.072
312.847
311.381
308.854
309.885
310.263
308.884
311.463
311.91
312.649
312.026
310.473
310.653
307.982
312.981
311.924
310.671
311.612
311.382
304.203
303.761
303.006
302.969
302.577
302.523
304.74
302.866
304.208
304.821
304.333
303.399
301.835
303.857
304.575
303.365
304.128
302.389
302.857
300.559
353.426
353.875
352.807
355.841
354.645
360.672
355.074
359.501
355.939
356.582
355.538
358.886
358.902
356.297
359.651
357.504
357.222
350.819
351.538
349.829
344.024
343.346
349.175
349.325
347.068
346.936
348.588
353.588
349.692
350.757
351.556
349.97
352.482
351.388
349.598
347.391
349.734
345.387
347.391
344.355
340.297
340.319
342.879
339.882
341.725
342.649
340.311
343.214
341.94
344.292
343.723
342.145
343.53
341.246
341.685
338.881
340.976
339.443
339.297
337.765
329.345
334.769
331.887
333.936
334.42
337.101
332.894
332.344
335.596
334.284
336.285
335.775
336.461
334.396
334.491
334.2
333.201
334.579
330.99
332.55
327.924
324.024
327.147
324.782
325.323
325.179
325.228
326.671
327.804
325.84
327.978
327.202
324.502
325.033
326.441
323.197
326.209
324.724
323.098
320.581
317.982
318.389
318.511
317.691
318.095
318.285
319.091
317.212
318.627
319.591
320.734
322.067
320.442
317.721
318.819
321.192
317.682
317.833
317.751
317.372
310.45
312.647
315.135
310.984
312.223
313.753
312.868
314.636
311.325
313.351
313.183
310.444
313.622
310.855
310.856
312.873
309.748
309.073
311.123
309.452
303.478
304.083
301.244
302.487
304.765
306.697
304.882
301.279
302.685
301.745
304.806
303.181
305.092
305.384
303.817
302.236
304.833
305.255
302.941
303.145
354.195
352.677
357.291
355.04
353.995
359.394
357.989
358.673
360.357
360.342
360.064
360.225
358.53
356.719
356.828
359.439
357.573
353.248
354.073
354.008
343.957
345.795
350.764
348.506
349.348
349.634
352.25
351.192
352.62
350.574
350.239
351.153
350.077
350.513
349.317
348.898
347.798
345.929
347.08
344.72
336.586
338.956
340.78
342.754
339.88
345.553
339.355
344.889
344.251
343.666
345.304
344.395
341.974
342.854
341.982
342.282
339.065
341.496
337.804
337.532
331.087
330.259
334.137
332.443
335.986
332.862
334.391
336.322
335.86
333.885
333.958
336.235
335.891
335.223
334.15
336.095
331.918
332.354
331.287
327.27
324.631
326.376
326.338
327.439
325.109
323.263
326.265
325.56
328.048
329.802
325.802
327.042
328.303
328.828
326.166
326.171
327.441
324.674
325.773
324.961
317.117
317.004
319.712
320.811
321.102
317.776
322.454
318.533
318.768
318.548
318.977
320.012
318.446
319.506
318.795
318.971
318.917
317.016
317.052
318.084
310.698
311.788
309.925
310.376
309.883
312.835
310.462
309.892
311.917
309.023
309.817
311.934
310.205
308.1
312
311.931
311.885
309.141
312.119
313.307
300.776
302.469
304.888
300.826
306.003
304.313
304.384
300.21
304.225
304.88
301.931
303.138
306.709
303.756
304.265
302.087
303.126
304.333
303.621
307.481
353.343
352.3
353.543
358.124
357.582
358.771
358.635
357.452
359.572
363.297
360.787
358.034
358.38
358.238
360.524
358.07
354.988
356.471
350.636
352.871
345.122
346.444
350.442
349.936
348.805
349.135
350.323
350.4
352.068
351.686
351.379
351.617
351.716
347.322
349.27
352.543
347.985
347.351
346.068
342.945
337.106
340.844
339.322
341.847
341.843
341.481
342.27
345.938
344.445
344.627
343.561
344.021
342.581
341.756
345.421
341.056
341.171
339.868
336.552
337.462
330.342
333.896
332.802
331.78
334.747
333.248
337.661
334.539
333.726
334.081
335.318
336.718
337.542
332.887
334.226
333.5
331.98
332.602
334.902
330.135
325.034
324.52
327.184
325.487
327.414
328.704
328.24
327.654
329.266
326.033
326.779
327.075
327.405
326.487
325.059
326.877
327.772
325.923
322.391
323.001
317.937
317.168
319.136
321.477
318.788
317.577
318.692
320.006
318.923
322.331
319.76
318.959
318.785
318.752
321.498
318.366
320.265
316.481
318.626
317.871
311.936
311.49
312.134
308.224
311.961
308.009
312.414
310.468
311.429
313.784
311.632
313.396
313.476
312.541
312.029
311.291
308.371
309.267
309.506
312.229
304.849
300.295
304.532
302.659
301.446
304.657
303.045
304.862
302.997
304.389
305.787
303.321
305.294
306.977
300.216
304.54
301.028
305.923
302.743
301.961
354.911
352.05
353.538
359.276
358.574
356.502
360.053
359.954
360.353
358.882
358.628
358.541
361.322
359.636
357.975
357.277
359.335
353.502
358.765
349.992
349.351
346.778
345.568
350.108
347.842
351.844
351.531
352.239
349.791
353.879
352.603
349.709
352.516
348.975
352.433
349.66
350.875
349.591
350.174
345.702
338.915
339.811
341.34
341.254
341.808
343.227
342.909
345.769
342.019
344.778
343.114
343.393
343.119
344.897
343.108
344.599
340.985
342.404
340.639
339.191
330.023
331.942
333.57
335.089
335.963
334.967
334
333.142
339.444
336.51
336.056
334.773
336.213
334.457
336.388
331.146
334.099
333.229
333.925
332.336
323.307
327.03
328.559
328.161
326.79
325.929
326.536
331.406
328.687
328.252
330.237
329.702
326.511
325.945
327.676
324.827
327.674
322.189
325.793
325.303
317.425
321.287
321.023
318.637
318.462
320.778
321.599
316.625
320.666
320.385
319.031
317.55
316.97
320.329
320.329
317.883
320.142
319.495
318.163
314.166
310.922
308.202
310.833
310.678
312.053
310.016
310.756
312.47
311.701
313.16
312.875
312.452
310.92
312.413
311.393
311.748
311.702
311.454
311.372
310.731
304.312
304.69
304.927
302.989
303.5
305.459
304.324
303.912
302.858
304.162
304.429
304.769
305.756
304.56
303.389
304.086
302.881
301.492
302.911
301.991
352.036
353.421
356.388
356.838
360.133
358.063
358.549
359.503
359.573
361.138
360.101
359.88
359.056
358.511
357.136
357.033
356.251
351.953
350.718
353.682
348.97
346.332
347.298
347.937
347.675
349.979
350.103
351.726
354.056
354.952
350.874
354.045
349.395
352.273
350.788
350.066
350.929
350.217
345.288
349.637
337.704
339.064
340.745
343.787
340.605
344.299
342.015
343.126
345.036
344.272
344.426
344.471
342.571
345.797
342.175
344.029
341.196
342.154
340.446
339.158
331.955
331.594
333.846
332.453
335.292
332.57
333.817
337.251
334.224
336.657
337.08
336.001
331.99
336.469
334.013
334.043
334.282
332.717
332.524
332.581
327.112
325.789
326.221
325.423
327.596
328.018
328.965
328.808
327.948
327.122
327.28
328.965
325.355
325.761
327.177
326.217
326.044
325.848
325.591
324.569
320.858
317.969
318.659
317.097
318.424
320.354
320.004
321.71
319.872
319.598
319.086
318.655
317.946
320.731
320.682
319.713
320.5
317.111
318.517
317.087
308.74
308.682
314.747
312.101
312.107
313.085
310.289
311.347
312.227
309.296
310.722
313.649
312.966
311.189
307.665
309.18
309.259
310.368
313.679
312.103
304.546
304.197
303.251
304.442
305.25
303.229
304.859
304.028
301.612
304.781
305.306
305.784
303.202
304.172
303.355
303.218
300.299
301.837
302.858
302.296
352.05
353.657
356.15
355.73
358.752
359.642
359.083
360.248
362.214
360.283
362.345
359.334
359.491
356.359
359.005
358.316
356.099
355.979
353.729
351.455
345.418
352.668
348.348
353.745
349.478
354.537
350.424
355.492
352.767
354.982
355.158
352.475
354.939
351.057
354.986
351.151
354.021
344.131
352.947
346.033
336.147
342.108
339.459
343.086
342.409
341.948
344.826
342.385
343.624
344.233
340.387
345.572
341.938
342.032
342.632
341.756
343.145
340.428
340.897
338.769
332.971
330.758
330.707
331.041
332.963
334.417
335.929
337.312
332.217
334.509
336.69
333.913
335.314
338.179
337.285
332.456
333.004
332.646
332.802
333.006
324.311
324.813
323.842
326.019
324.835
325.966
326.62
327.3
329.038
327.874
325.977
328.225
328.857
327.381
328.704
326.178
324.998
326.831
325.166
323.101
316.502
318.854
318.323
319.002
321.469
319.873
319.051
319.093
318.95
319.363
319.728
319.542
317.063
316.7
319.891
317.087
316.741
317.216
317.698
317.821
308.166
311.462
309.572
312.52
312.101
313.359
315.618
313.791
311.808
312.347
313.699
313.043
313.201
311.26
312.184
312.109
311.018
309.697
312.365
309.436
307.005
305.153
304.199
304.403
303.876
302.251
304.084
304.295
305.189
304.252
306.103
304.415
301.303
304.209
304.246
303.19
302.892
302.022
304.411
302.516
351.301
354.245
353.631
355.661
357.078
357.998
359.446
360.056
360.606
359.568
361.179
358.656
356.992
357.813
358.205
355.474
357.878
354.808
352.104
353.239
348.261
346.804
348.788
349.696
348.394
345.951
351.081
350.35
352.023
349.856
351.994
353.876
352.097
350.289
348.308
347.974
349.349
344.626
348.244
345.002
339.414
338.872
338.936
339.916
340.044
341.783
342.781
343.547
342.597
342.602
343.285
344.279
343.352
342.152
342.831
342.61
341.837
341.292
338.6
338.055
330.345
331.654
330.622
334.718
331.915
335.928
335.253
333.668
336.956
335.862
338.774
334.106
335.551
333.877
335.834
333.108
333.315
333.684
335.387
331.048
323.663
322.602
323.548
323.34
326.161
327.244
327.06
327.788
330.148
327.899
326.421
326.411
325.926
329.164
325.136
327.742
325.057
328.384
327.008
323.79
317.044
318.077
317.346
320.7
317.16
319.331
321.316
317.639
318.283
321.378
322.719
316.873
317.759
320.283
320.43
318.874
319.209
319.222
319.818
316.454
310.755
311.11
310.25
311.112
312.046
313.435
311.076
312.177
312.325
317.022
310.345
309.552
310.972
311.848
312.941
309.823
310.852
312.376
310.404
311.722
304.752
299.681
302.512
304.039
302.641
303.98
301.912
304.542
305.317
307.353
302.54
304.659
303.992
304.218
304.674
304.999
304.971
301.378
304.786
301.32
)
;

boundaryField
{
    hotSide
    {
        type            fixedGradient;
        gradient        nonuniform List<scalar> 
400
(
321.511
322.87
325.591
329.677
335.133
341.965
350.181
359.788
370.794
383.208
397.037
412.289
428.971
447.088
466.647
487.651
510.105
534.011
559.372
586.191
323.738
325.08
327.767
331.802
337.194
343.949
352.078
361.591
372.498
384.81
398.537
413.687
430.268
448.289
467.755
488.672
511.043
534.872
560.161
586.913
326.149
327.47
330.116
334.091
339.406
346.071
354.099
363.503
374.296
386.491
400.101
415.136
431.606
449.52
468.885
489.706
511.988
535.735
560.948
587.63
328.704
330
332.597
336.503
341.73
348.292
356.205
365.485
376.15
388.215
401.695
416.604
432.954
450.753
470.009
490.73
512.919
536.579
561.714
588.325
331.33
332.599
335.142
338.97
344.099
350.546
358.332
367.477
378.003
389.928
403.271
418.047
434.27
451.949
471.095
491.712
513.807
537.382
562.439
588.978
333.918
335.158
337.643
341.389
346.414
352.74
360.392
369.397
379.779
391.562
404.765
419.407
435.503
453.065
472.101
492.618
514.622
538.114
563.096
589.569
336.321
337.531
339.959
343.622
348.544
354.751
362.274
371.142
381.385
393.031
406.101
420.618
436.595
454.047
472.983
493.409
515.33
538.747
563.663
590.076
338.36
339.543
341.92
345.509
350.339
356.44
363.847
372.595
382.718
394.244
407.2
421.608
437.485
454.844
473.695
494.045
515.897
539.253
564.114
590.478
339.852
341.015
343.352
346.885
351.645
357.665
364.985
373.643
383.675
395.113
407.984
422.312
438.116
455.407
474.197
494.491
516.294
539.606
564.428
590.758
340.643
341.795
344.11
347.613
352.334
358.311
365.584
374.193
384.176
395.567
408.393
422.679
438.443
455.699
474.456
494.722
516.498
539.788
564.589
590.901
340.643
341.795
344.11
347.613
352.334
358.311
365.584
374.193
384.176
395.567
408.393
422.679
438.443
455.699
474.456
494.722
516.498
539.788
564.589
590.901
339.852
341.015
343.352
346.885
351.645
357.665
364.985
373.643
383.675
395.113
407.984
422.312
438.116
455.407
474.197
494.491
516.294
539.606
564.428
590.758
338.36
339.543
341.92
345.509
350.339
356.44
363.847
372.595
382.718
394.244
407.2
421.608
437.485
454.844
473.695
494.045
515.897
539.253
564.114
590.478
336.321
337.531
339.959
343.622
348.544
354.751
362.274
371.142
381.385
393.031
406.101
420.618
436.595
454.047
472.983
493.409
515.33
538.747
563.663
590.076
333.918
335.158
337.643
341.389
346.414
352.74
360.392
369.397
379.779
391.562
404.765
419.407
435.503
453.065
472.101
492.618
514.622
538.114
563.096
589.569
331.33
332.599
335.142
338.97
344.099
350.546
358.332
367.477
378.003
389.928
403.271
418.047
434.27
451.949
471.095
491.712
513.807
537.382
562.439
588.978
328.704
330
332.597
336.503
341.73
348.292
356.205
365.485
376.15
388.215
401.695
416.604
432.954
450.753
470.009
490.73
512.919
536.579
561.714
588.325
326.149
327.47
330.116
334.091
339.406
346.071
354.099
363.503
374.296
386.491
400.101
415.136
431.606
449.52
468.885
489.706
511.988
535.735
560.948
587.63
323.738
325.08
327.767
331.802
337.194
343.949
352.078
361.591
372.498
384.81
398.537
413.687
430.268
448.289
467.755
488.672
511.043
534.872
560.161
586.913
321.511
322.87
325.591
329.677
335.133
341.965
350.181
359.788
370.794
383.208
397.037
412.289
428.971
447.088
466.647
487.651
510.105
534.011
559.372
586.191
)
;
    }
    coldSide
    {
        type            mixed;
        refValue        uniform 300;
        refGradient     uniform 0;
        valueFraction   uniform 0.991591;
        source          uniform 0;
        value           nonuniform List<scalar> 
400
(
300.015
300.052
300.023
300.024
300.046
300.04
300.037
300.006
300.023
300.021
300.017
300.038
300.035
300.029
300.007
300.041
300.036
300.038
300.059
300.04
300.005
300.04
300.039
300.025
300.027
300.022
300.028
300.014
300.018
300.028
300.012
300.033
300.032
300.034
300.021