/*--------------------------------*- C++ -*----------------------------------*\
| =========                 |                                                 |
| \\      /  F ield         | OpenFOAM: The Open Source CFD Toolbox           |
|  \\    /   O peration     | Version:  2212                                  |
|   \\  /    A nd           | Website:  www.openfoam.com                      |
|    \\/     M anipulation  |                                                 |
\*---------------------------------------------------------------------------*/
FoamFile
{
    version     2.0;
    format      ascii;
    arch        "LSB;label=32;scalar=64";
    class       volScalarField;
    location    "0";
    object      T;
}
// * * * * * * * * * * * * * * * * * * * * * * * * * * * * * * * * * * * * * //

dimensions      [0 0 0 1 0 0 0];

internalField   nonuniform List<scalar> 
3200
(
348.121
346.847
346.031
345.801
346.009
346.779
347.356
347.854
348.454
348.692
348.851
348.555
348.095
347.414
346.578
345.782
345.505
345.189
345.81
346.737
341.85
340.781
340.106
339.882
340.096
340.751
341.257
341.688
342.202
342.413
342.557
342.309
341.901
341.335
340.593
339.896
339.701
339.39
339.932
340.689
335.515
334.647
334.092
333.881
334.073
334.643
335.044
335.441
335.858
336.047
336.179
335.97
335.594
335.149
334.513
333.921
333.781
333.499
333.932
334.551
329.136
328.459
327.991
327.81
327.972
328.448
328.734
329.099
329.438
329.617
329.718
329.532
329.198
328.881
328.325
327.863
327.74
327.522
327.841
328.342
322.712
322.212
321.841
321.692
321.821
322.212
322.375
322.668
322.968
323.107
323.201
323.029
322.743
322.539
322.078
321.738
321.639
321.47
321.709
322.095
316.27
315.917
315.664
315.543
315.617
315.919
316.013
316.211
316.462
316.549
316.615
316.478
316.254
316.153
315.81
315.541
315.504
315.357
315.536
315.819
309.799
309.592
309.421
309.36
309.386
309.574
309.612
309.748
309.917
309.95
309.999
309.919
309.772
309.725
309.527
309.337
309.338
309.236
309.362
309.512
303.289
303.215
303.157
303.141
303.158
303.212
303.216
303.273
303.331
303.336
303.348
303.331
303.284
303.262
303.206
303.126
303.136
303.091
303.144
303.196
348.21
347.08
346.25
346.024
346.207
346.9
347.531
348.272
349.023
349.296
349.354
349.148
348.58
347.801
346.884
345.929
345.621
345.443
345.936
346.932
341.932
340.994
340.309
340.1
340.245
340.865
341.397
342.027
342.686
342.941
342.984
342.782
342.288
341.639
340.848
340.048
339.796
339.633
340.068
340.904
335.58
334.817
334.253
334.076
334.201
334.728
335.187
335.683
336.265
336.499
336.515
336.319
335.929
335.394
334.704
334.075
333.85
333.724
334.078
334.771
329.197
328.566
328.113
327.977
328.079
328.519
328.879
329.279
329.775
329.94
329.97
329.797
329.475
329.055
328.493
327.981
327.824
327.729
328
328.534
322.759
322.293
321.907
321.8
321.901
322.258
322.494
322.841
323.237
323.344
323.37
323.224
322.982
322.65
322.22
321.829
321.749
321.65
321.86
322.24
316.297
315.964
315.686
315.6
315.702
315.934
316.076
316.353
316.64
316.714
316.745
316.592
316.463
316.229
315.93
315.638
315.602
315.498
315.645
315.912
309.804
309.595
309.433
309.373
309.445
309.577
309.66
309.845
310.01
310.063
310.077
309.946
309.891
309.766
309.587
309.393
309.384
309.313
309.406
309.549
303.279
303.214
303.174
303.141
303.17
303.221
303.229
303.305
303.364
303.385
303.376
303.328
303.307
303.282
303.218
303.16
303.148
303.116
303.161
303.21
348.546
347.387
346.557
346.326
346.579
347.268
348.082
348.81
349.59
349.986
350.068
349.804
349.191
348.407
347.416
346.497
345.96
345.779
346.141
347.153
342.261
341.279
340.573
340.337
340.561
341.169
341.881
342.501
343.175
343.514
343.585
343.326
342.813
342.158
341.264
340.503
340.073
339.906
340.254
341.059
335.881
335.067
334.461
334.302
334.432
334.98
335.586
336.112
336.687
336.967
337.014
336.804
336.365
335.825
335.042
334.42
334.092
333.935
334.237
334.869
329.44
328.795
328.302
328.169
328.242
328.727
329.216
329.63
330.113
330.34
330.385
330.2
329.83
329.426
328.76
328.254
328.02
327.904
328.146
328.624
322.943
322.466
322.077
321.966
322.027
322.433
322.801
323.104
323.473
323.662
323.692
323.557
323.258
322.948
322.443
322.021
321.886
321.79
321.962
322.311
316.418
316.081
315.81
315.74
315.769
316.069
316.32
316.53
316.793
316.933
316.955
316.863
316.647
316.432
316.072
315.742
315.681
315.612
315.74
315.962
309.859
309.68
309.52
309.472
309.49
309.671
309.813
309.927
310.093
310.194
310.203
310.133
309.995
309.881
309.667
309.449
309.414
309.401
309.477
309.597
303.312
303.254
303.197
303.185
303.176
303.239
303.295
303.337
303.382
303.416
303.418
303.402
303.344
303.313
303.245
303.178
303.151
303.155
303.172
303.216
348.943
347.896
347.193
346.982
347.325
347.944
348.845
349.676
350.346
350.816
350.983
350.751
350.079
349.2
348.22
347.319
346.6
346.426
346.781
347.616
342.571
341.705
341.107
340.903
341.207
341.724
342.522
343.239
343.835
344.221
344.353
344.182
343.594
342.842
341.997
341.219
340.626
340.473
340.794
341.481
336.147
335.417
334.938
334.752
334.988
335.424
336.089
336.702
337.206
337.534
337.639
337.515
337.036
336.4
335.679
335.028
334.558
334.441
334.695
335.248
329.663
329.056
328.675
328.56
328.712
329.067
329.64
330.114
330.516
330.778
330.863
330.78
330.41
329.879
329.287
328.753
328.391
328.328
328.495
328.956
323.127
322.648
322.371
322.294
322.392
322.667
323.123
323.482
323.779
324.019
324.052
323.993
323.725
323.309
322.844
322.428
322.167
322.122
322.221
322.583
316.541
316.202
316.035
315.964
316.015
316.208
316.553
316.802
317.014
317.206
317.221
317.162
317.003
316.685
316.365
316.048
315.875
315.842
315.906
316.168
309.939
309.741
309.64
309.592
309.617
309.744
309.96
310.096
310.214
310.343
310.355
310.309
310.242
310.028
309.837
309.656
309.53
309.513
309.579
309.726
303.327
303.254
303.237
303.223
303.215
303.261
303.347
303.388
303.427
303.47
303.478
303.457
303.434
303.364
303.3
303.239
303.19
303.187
303.211
303.269
349.544
348.532
347.922
347.818
348.105
348.796
349.66
350.599
351.341
351.843
352.05
351.829
351.151
350.151
349.148
348.132
347.471
347.097
347.56
348.371
343.09
342.258
341.736
341.615
341.879
342.474
343.213
344.025
344.662
345.086
345.284
345.086
344.517
343.669
342.804
341.929
341.384
341.038
341.464
342.115
336.567
335.883
335.463
335.333
335.558
336.057
336.706
337.376
337.905
338.274
338.437
338.27
337.81
337.088
336.38
335.614
335.196
334.894
335.252
335.774
329.98
329.414
329.095
328.985
329.177
329.581
330.139
330.677
331.09
331.405
331.523
331.407
331.018
330.469
329.884
329.238
328.919
328.653
328.96
329.369
323.365
322.911
322.698
322.613
322.765
323.061
323.532
323.927
324.243
324.502
324.568
324.481
324.168
323.767
323.306
322.81
322.568
322.358
322.612
322.893
316.702
316.391
316.255
316.184
316.298
316.514
316.869
317.144
317.348
317.555
317.584
317.523
317.305
317.029
316.685
316.334
316.171
315.998
316.213
316.387
310.026
309.855
309.784
309.725
309.798
309.937
310.156
310.313
310.431
310.553
310.572
310.53
310.421
310.252
310.049
309.819
309.719
309.6
309.765
309.856
303.352
303.308
303.296
303.269
303.302
303.333
303.405
303.456
303.505
303.545
303.53
303.544
303.496
303.448
303.377
303.29
303.259
303.219
303.275
303.305
350.498
349.408
348.832
348.78
349.108
349.812
350.651
351.537
352.372
352.915
353.338
353.068
352.408
351.258
350.239
349.197
348.461
348.029
348.387
349.249
343.931
342.997
342.518
342.474
342.744
343.346
344.05
344.832
345.538
346.023
346.378
346.189
345.606
344.633
343.751
342.854
342.226
341.848
342.165
342.895
337.298
336.497
336.119
336.066
336.276
336.783
337.39
338.038
338.632
339.081
339.329
339.186
338.725
337.911
337.165
336.423
335.894
335.558
335.836
336.447
330.604
329.955
329.644
329.579
329.764
330.176
330.668
331.2
331.684
332.064
332.243
332.134
331.791
331.124
330.49
329.908
329.49
329.202
329.434
329.923
323.847
323.346
323.101
323.06
323.209
323.498
323.903
324.315
324.705
324.974
325.137
325.023
324.785
324.272
323.771
323.323
323.01
322.769
322.955
323.328
317.069
316.712
316.514
316.514
316.623
316.815
317.104
317.39
317.672
317.864
317.978
317.896
317.734
317.38
317.02
316.71
316.478
316.306
316.436
316.697
310.265
310.047
309.919
309.931
310.026
310.103
310.304
310.452
310.626
310.747
310.793
310.774
310.664
310.437
310.238
310.06
309.894
309.817
309.868
310.04
303.445
303.362
303.325
303.327
303.374
303.383
303.459
303.505
303.572
303.606
303.622
303.613
303.575
303.494
303.439
303.372
303.317
303.297
303.307
303.371
351.6
350.524
349.966
349.824
350.051
350.768
351.811
352.581
353.46
354.287
354.517
354.275
353.593
352.576
351.412
350.336
349.653
349.199
349.553
350.188
344.89
343.971
343.502
343.367
343.571
344.189
345.048
345.749
346.509
347.188
347.398
347.211
346.627
345.743
344.76
343.832
343.247
342.847
343.151
343.719
338.094
337.317
336.931
336.848
336.99
337.529
338.205
338.826
339.486
340.036
340.197
340.076
339.573
338.818
338.006
337.224
336.749
336.406
336.669
337.14
331.233
330.61
330.307
330.26
330.355
330.786
331.309
331.839
332.383
332.848
332.956
332.853
332.457
331.844
331.177
330.547
330.162
329.886
330.134
330.495
324.332
323.865
323.643
323.598
323.667
323.978
324.381
324.824
325.258
325.583
325.654
325.581
325.298
324.819
324.313
323.806
323.517
323.298
323.525
323.771
317.412
317.085
316.919
316.901
316.941
317.153
317.428
317.786
318.076
318.309
318.349
318.298
318.11
317.749
317.41
317.029
316.816
316.672
316.851
317.024
310.465
310.262
310.166
310.175
310.172
310.316
310.473
310.706
310.859
311.009
311.038
310.99
310.896
310.662
310.484
310.234
310.119
310.02
310.135
310.226
303.515
303.45
303.409
303.415
303.403
303.457
303.513
303.595
303.64
303.699
303.701
303.684
303.662
303.573
303.522
303.437
303.395
303.36
303.412
303.42
352.767
351.761
351.132
351.043
351.264
351.964
352.799
353.826
354.717
355.422
355.749
355.393
354.713
353.728
352.603
351.499
350.793
350.429
350.841
351.473
345.864
345.035
344.509
344.443
344.622
345.207
345.932
346.812
347.579
348.178
348.466
348.172
347.581
346.734
345.764
344.839
344.239
343.915
344.293
344.826
338.897
338.225
337.793
337.753
337.876
338.382
338.972
339.735
340.381
340.854
341.106
340.877
340.383
339.659
338.831
338.093
337.579
337.289
337.627
338.1
331.888
331.362
331.007
330.972
331.082
331.493
331.963
332.587
333.135
333.49
333.683
333.529
333.132
332.538
331.848
331.263
330.83
330.592
330.877
331.276
324.846
324.474
324.16
324.153
324.232
324.558
324.911
325.421
325.843
326.113
326.228
326.12
325.843
325.36
324.807
324.378
324.042
323.826
324.08
324.4
317.801
317.546
317.271
317.286
317.363
317.589
317.819
318.206
318.487
318.693
318.742
318.693
318.518
318.149
317.745
317.426
317.216
317.031
317.228
317.468
310.694
310.551
310.386
310.392
310.449
310.589
310.708
310.954
311.1
311.245
311.258
311.245
311.143
310.915
310.669
310.456
310.349
310.244
310.369
310.498
303.583
303.538
303.487
303.486
303.512
303.553
303.587
303.682
303.716
303.776
303.764
303.772
303.732
303.661
303.574
303.505
303.476
303.434
303.484
303.527
353.947
352.975
352.432
352.259
352.507
353.281
354.062
355.032
355.869
356.593
356.911
356.575
355.896
354.891
353.718
352.648
352.084
351.807
352.075
352.537
346.921
346.085
345.629
345.457
345.679
346.354
347.03
347.879
348.567
349.197
349.487
349.165
348.604
347.744
346.754
345.819
345.338
345.124
345.369
345.735
339.809
339.106
338.72
338.586
338.785
339.344
339.93
340.634
341.227
341.746
341.99
341.694
341.208
340.508
339.697
338.894
338.493
338.34
338.554
338.843
332.636
332.087
331.751
331.635
331.84
332.277
332.775
333.332
333.817
334.24
334.441
334.178
333.785
333.218
332.573
331.922
331.591
331.471
331.643
331.836
325.437
325.036
324.727
324.647
324.832
325.159
325.556
325.997
326.37
326.696
326.851
326.637
326.327
325.874
325.4
324.902
324.642
324.533
324.666
324.812
318.195
317.935
317.674
317.643
317.775
318.014
318.286
318.62
318.887
319.11
319.24
319.064
318.855
318.504
318.189
317.831
317.643
317.565
317.662
317.748
310.933
310.781
310.601
310.601
310.684
310.833
310.986
311.197
311.367
311.478
311.576
311.467
311.352
311.121
310.958
310.713
310.602
310.557
310.626
310.65
303.671
303.61
303.554
303.557
303.577
303.639
303.693
303.751
303.821
303.856
303.88
303.835
303.803
303.715
303.677
303.597
303.559
303.541
303.556
303.574
355.248
354.219
353.745
353.469
353.736
354.392
355.23
356.293
357.099
357.762
357.98
357.728
357.032
356.054
354.891
353.987
353.344
353.123
353.363
353.901
348.041
347.159
346.744
346.518
346.723
347.299
348.004
348.947
349.64
350.227
350.39
350.192
349.574
348.747
347.746
347.004
346.432
346.255
346.452
346.95
340.755
340.04
339.687
339.496
339.647
340.136
340.718
341.536
342.119
342.617
342.743
342.579
342.067
341.357
340.524
339.913
339.437
339.289
339.448
339.874
333.403
332.863
332.544
332.408
332.527
332.916
333.374
334.061
334.54
334.97
335.043
334.913
334.516
333.918
333.223
332.759
332.365
332.253
332.376
332.697
326.027
325.62
325.356
325.251
325.335
325.651
326.004
326.54
326.928
327.241
327.338
327.201
326.923
326.43
325.886
325.529
325.231
325.161
325.25
325.485
318.629
318.34
318.125
318.059
318.117
318.35
318.608
318.959
319.277
319.485
319.586
319.457
319.29
318.895
318.515
318.278
318.048
317.992
318.104
318.223
311.21
311.029
310.888
310.843
310.897
311.042
311.188
311.377
311.597
311.724
311.788
311.682
311.6
311.355
311.145
310.982
310.844
310.811
310.89
310.94
303.767
303.689
303.649
303.626
303.667
303.71
303.753
303.816
303.902
303.943
303.958
303.917
303.9
303.808
303.747
303.687
303.632
303.631
303.649
303.678
356.476
355.652
355.046
354.879
355.098
355.485
356.388
357.297
358.087
358.865
358.911
358.744
358.065
357.285
356.221
355.207
354.569
354.453
354.754
355.27
349.103
348.401
347.88
347.733
347.908
348.25
349.037
349.815
350.495
351.164
351.214
351.046
350.47
349.807
348.906
348.045
347.508
347.416
347.653
348.122
341.657
341.072
340.641
340.496
340.659
340.95
341.608
342.28
342.839
343.405
343.442
343.286
342.821
342.255
341.52
340.814
340.36
340.271
340.473
340.863
334.137
333.691
333.318
333.228
333.354
333.582
334.119
334.672
335.118
335.601
335.625
335.493
335.091
334.649
334.058
333.506
333.123
333.038
333.207
333.524
326.603
326.269
325.958
325.925
325.991
326.176
326.578
327.033
327.353
327.722
327.75
327.649
327.334
326.995
326.55
326.101
325.821
325.762
325.881
326.139
319.051
318.796
318.58
318.561
318.573
318.733
319.014
319.353
319.56
319.834
319.858
319.78
319.535
319.305
319.019
318.657
318.484
318.427
318.529
318.72
311.466
311.291
311.172
311.15
311.161
311.264
311.439
311.638
311.745
311.931
311.944
311.889
311.745
311.593
311.442
311.227
311.125
311.068
311.149
311.241
303.846
303.784
303.74
303.743
303.758
303.775
303.844
303.914
303.949
303.999
303.998
303.984
303.936
303.89
303.84
303.763
303.731
303.717
303.744
303.764
357.922
357.031
356.317
356.173
356.388
356.766
357.538
358.404
359.217
359.701
359.839
359.708
359.089
358.295
357.4
356.431
355.889
355.744
355.969
356.609
350.338
349.588
348.973
348.864
349.043
349.376
350.033
350.765
351.478
351.891
351.981
351.872
351.37
350.685
349.934
349.104
348.64
348.533
348.721
349.295
342.709
342.062
341.548
341.472
341.602
341.914
342.449
343.068
343.678
344.011
344.081
344.008
343.605
343.015
342.366
341.698
341.306
341.219
341.341
341.883
335.015
334.473
334.07
334.008
334.117
334.398
334.806
335.3
335.81
336.071
336.12
336.077
335.748
335.275
334.756
334.221
333.886
333.813
333.909
334.374
327.289
326.859
326.547
326.491
326.568
326.817
327.111
327.504
327.885
328.107
328.133
328.116
327.845
327.481
327.107
326.683
326.408
326.338
326.436
326.791
319.516
319.221
319
318.966
318.989
319.192
319.387
319.69
319.932
320.096
320.128
320.112
319.912
319.661
319.406
319.094
318.903
318.837
318.92
319.162
311.731
311.554
311.436
311.425
311.403
311.542
311.649
311.839
311.977
312.085
312.092
312.091
311.967
311.822
311.653
311.475
311.36
311.336
311.369
311.531
303.935
303.879
303.85
303.831
303.822
303.867
303.9
303.965
304.015
304.053
304.047
304.056
304.02
303.972
303.908
303.844
303.801
303.814
303.812
303.862
359.23
358.47
357.773
357.531
357.593
357.965
358.614
359.443
360.197
360.75
360.785
360.622
360.077
359.302
358.468
357.681
357.2
357.066
357.28
357.913
351.476
350.838
350.204
350.017
350.072
350.395
350.963
351.651
352.32
352.791
352.821
352.68
352.222
351.562
350.854
350.172
349.794
349.684
349.855
350.369
343.655
343.137
342.585
342.43
342.494
342.786
343.24
343.807
344.399
344.774
344.791
344.675
344.314
343.749
343.166
342.586
342.28
342.236
342.334
342.758
335.764
335.383
334.911
334.806
334.854
335.098
335.462
335.916
336.4
336.702
336.71
336.594
336.317
335.85
335.419
334.942
334.696
334.675
334.735
335.086
327.839
327.581
327.216
327.113
327.145
327.357
327.65
328.01
328.357
328.563
328.584
328.498
328.307
327.932
327.616
327.24
327.032
327.049
327.09
327.379
319.894
319.722
319.48
319.41
319.419
319.566
319.782
320.075
320.274
320.424
320.438
320.381
320.241
319.992
319.763
319.516
319.339
319.371
319.409
319.598
311.933
311.86
311.723
311.68
311.68
311.745
311.882
312.088
312.179
312.25
312.277
312.267
312.145
312.016
311.88
311.745
311.632
311.658
311.674
311.781
303.998
303.98
303.937
303.908
303.911
303.949
303.983
304.052
304.088
304.096
304.113
304.121
304.067
304.038
303.991
303.952
303.897
303.917
303.91
303.958
360.638
359.778
359.232
358.961
358.817
359.264
359.781
360.475
361.206
361.548
361.638
361.412
361.053
360.25
359.641
358.965
358.559
358.381
358.557
359.134
352.712
351.952
351.472
351.262
351.136
351.514
351.961
352.556
353.224
353.466
353.555
353.368
353.074
352.397
351.899
351.312
350.969
350.813
350.988
351.45
344.715
344.065
343.647
343.49
343.399
343.709
344.075
344.596
345.134
345.352
345.443
345.253
345.035
344.442
344.045
343.59
343.281
343.164
343.31
343.675
336.673
336.133
335.773
335.657
335.589
335.828
336.132
336.576
336.995
337.201
337.276
337.093
336.934
336.458
336.128
335.752
335.502
335.428
335.55
335.837
328.555
328.152
327.875
327.795
327.72
327.922
328.164
328.493
328.841
328.99
329.046
328.914
328.769
328.43
328.162
327.888
327.668
327.616
327.704
327.927
320.412
320.129
319.941
319.887
319.826
319.977
320.137
320.38
320.644
320.758
320.766
320.697
320.58
320.351
320.159
319.967
319.788
319.759
319.816
319.96
312.272
312.093
311.988
311.954
311.913
312.008
312.084
312.247
312.414
312.482
312.471
312.434
312.383
312.248
312.13
311.998
311.905
311.89
311.915
311.991
304.117
304.061
304.018
304.003
303.991
304.026
304.061
304.106
304.166
304.193
304.184
304.168
304.149
304.119
304.076
304.027
303.998
303.984
304
304.015
362.091
361.253
360.624
360.315
360.275
360.577
361.046
361.573
362.114
362.415
362.538
362.281
361.979
361.372
360.664
360.14
359.705
359.719
359.968
360.492
353.958
353.233
352.713
352.453
352.373
352.641
353.059
353.53
353.992
354.264
354.35
354.132
353.889
353.364
352.765
352.326
351.94
351.982
352.186
352.635
345.749
345.164
344.736
344.529
344.416
344.651
345.01
345.396
345.774
346.034
346.099
345.909
345.715
345.273
344.8
344.414
344.09
344.157
344.315
344.682
337.512
337.041
336.691
336.534
336.398
336.587
336.882
337.208
337.508
337.741
337.789
337.629
337.467
337.129
336.757
336.437
336.178
336.245
336.366
336.666
329.227
328.861
328.586
328.478
328.358
328.492
328.737
328.994
329.227
329.4
329.438
329.315
329.201
328.95
328.663
328.413
328.203
328.257
328.364
328.59
320.899
320.631
320.455
320.37
320.29
320.386
320.54
320.748
320.908
321.022
321.06
320.955
320.887
320.72
320.508
320.337
320.172
320.218
320.325
320.454
312.555
312.398
312.301
312.249
312.187
312.272
312.337
312.467
312.568
312.637
312.655
312.58
312.581
312.458
312.34
312.21
312.117
312.148
312.231
312.3
304.205
304.153
304.123
304.106
304.092
304.112
304.127
304.174
304.204
304.241
304.242
304.219
304.218
304.177
304.138
304.086
304.062
304.08
304.087
304.125
363.471
362.675
361.965
361.655
361.504
361.863
362.198
362.637
362.964
363.327
363.405
363.213
362.875
362.336
361.756
361.236
361.013
360.989
361.254
361.746
355.123
354.466
353.867
353.603
353.451
353.779
354.057
354.43
354.727
355.05
355.108
354.947
354.657
354.214
353.705
353.275
353.084
353.07
353.314
353.719
346.728
346.198
345.699
345.481
345.349
345.63
345.867
346.154
346.441
346.7
346.74
346.614
346.382
345.983
345.58
345.232
345.066
345.064
345.268
345.598
338.291
337.877
337.491
337.279
337.184
337.388
337.613
337.843
338.073
338.291
338.323
338.224
338.047
337.686
337.382
337.111
336.967
337.001
337.15
337.404
329.824
329.519
329.227
329.032
328.972
329.113
329.305
329.477
329.668
329.833
329.848
329.808
329.677
329.344
329.152
328.951
328.822
328.864
328.949
329.152
321.336
321.119
320.929
320.75
320.722
320.819
320.962
321.115
321.233
321.339
321.326
321.347
321.239
320.969
320.875
320.743
320.636
320.666
320.712
320.863
312.825
312.689
312.589
312.461
312.463
312.516
312.592
312.713
312.771
312.823
312.805
312.842
312.775
312.611
312.562
312.467
312.41
312.417
312.454
312.553
304.301
304.254
304.231
304.174
304.177
304.195
304.226
304.265
304.289
304.296
304.301
304.314
304.284
304.226
304.22
304.186
304.153
304.155
304.178
304.215
364.83
364.139
363.381
363.055
362.887
363.151
363.471
363.715
363.886
364.295
364.26
364.226
363.811
363.416
362.995
362.485
362.236
362.249
362.512
363.232
356.286
355.717
355.06
354.797
354.637
354.896
355.156
355.386
355.536
355.888
355.851
355.813
355.474
355.144
354.799
354.348
354.133
354.16
354.397
355.003
347.717
347.234
346.679
346.429
346.317
346.566
346.762
346.964
347.145
347.408
347.378
347.336
347.065
346.803
346.491
346.107
345.952
345.96
346.209
346.681
339.082
338.689
338.254
338.017
337.96
338.166
338.325
338.512
338.688
338.87
338.873
338.802
338.606
338.382
338.129
337.812
337.692
337.702
337.92
338.28
330.431
330.129
329.822
329.605
329.575
329.733
329.842
330.021
330.191
330.279
330.318
330.233
330.078
329.922
329.726
329.485
329.376
329.38
329.547
329.839
321.764
321.554
321.334
321.144
321.155
321.262
321.342
321.476
321.611
321.666
321.717
321.644
321.529
321.415
321.291
321.099
321.019
321.013
321.145
321.367
313.075
312.964
312.815
312.706
312.714
312.787
312.818
312.905
313.003
313.013
313.063
313.021
312.949
312.866
312.798
312.686
312.638
312.628
312.705
312.844
304.383
304.352
304.297
304.257
304.261
304.284
304.295
304.333
304.367
304.362
304.374
304.36
304.35
304.317
304.286
304.251
304.243
304.223
304.264
304.304
366.423
365.618
364.96
364.516
364.241
364.303
364.586
364.876
364.937
365.241
365.183
365.107
364.798
364.443
363.965
363.627
363.465
363.517
364.017
364.549
357.704
357.001
356.455
356.04
355.82
355.862
356.126
356.386
356.421
356.701
356.65
356.578
356.305
356.034
355.645
355.323
355.209
355.251
355.708
356.134
348.908
348.346
347.88
347.501
347.301
347.365
347.607
347.839
347.87
348.085
348.072
347.967
347.763
347.536
347.239
346.943
346.863
346.878
347.291
347.625
340.059
339.626
339.25
338.921
338.759
338.809
339.029
339.229
339.263
339.418
339.433
339.323
339.175
338.964
338.752
338.51
338.441
338.43
338.786
339.043
331.201
330.867
330.577
330.32
330.202
330.225
330.39
330.557
330.607
330.694
330.727
330.644
330.547
330.36
330.207
330.011
329.96
329.928
330.217
330.419
322.308
322.111
321.88
321.691
321.597
321.606
321.744
321.847
321.906
321.949
321.982
321.914
321.876
321.725
321.625
321.483
321.432
321.424
321.614
321.746
313.408
313.299
313.125
313.041
312.988
312.981
313.063
313.134
313.173
313.185
313.213
313.164
313.141
313.055
313.013
312.911
312.887
312.868
312.99
313.058
304.498
304.463
304.399
304.372
304.36
304.348
304.387
304.404
304.415
304.413
304.43
304.42
304.399
304.368
304.369
304.343
304.324
304.308
304.349
304.374
367.792
367.013
366.272
365.801
365.514
365.335
365.686
365.922
365.949
366.019
366.092
365.89
365.766
365.432
364.994
364.613
364.576
364.724
365.155
365.85
358.86
358.222
357.564
357.157
356.929
356.763
357.072
357.292
357.292
357.361
357.426
357.257
357.15
356.862
356.482
356.178
356.152
356.279
356.656
357.23
349.882
349.361
348.801
348.444
348.276
348.144
348.381
348.589
348.563
348.616
348.69
348.568
348.479
348.231
347.895
347.673
347.659
347.756
348.065
348.541
340.874
340.466
339.987
339.693
339.574
339.47
339.639
339.826
339.805
339.829
339.92
339.804
339.738
339.534
339.249
339.094
339.092
339.164
339.421
339.791
331.829
331.524
331.145
330.909
330.842
330.74
330.867
331.019
331.014
331.009
331.105
331.002
330.961
330.798
330.586
330.459
330.463
330.518
330.721
331.008
322.753
322.532
322.306
322.106
322.079
321.991
322.082
322.184
322.2
322.172
322.246
322.171
322.167
322.04
321.907
321.805
321.787
321.836
321.999
322.193
313.667
313.533
313.411
313.28
313.281
313.215
313.279
313.319
313.353
313.328
313.386
313.326
313.333
313.256
313.165
313.13
313.095
313.133
313.226
313.358
304.587
304.534
304.498
304.46
304.452
304.428
304.455
304.469
304.471
304.467
304.495
304.467
304.472
304.443
304.43
304.413
304.395
304.41
304.44
304.483
368.837
367.998
367.138
366.66
366.504
366.253
366.589
366.553
366.774
366.733
366.756
366.685
366.512
366.027
365.81
365.536
365.534
365.697
366.043
366.87
359.72
358.996
358.258
357.856
357.714
357.513
357.816
357.776
357.965
357.919
357.956
357.896
357.755
357.343
357.154
356.925
356.924
357.09
357.353
358.072
350.58
349.975
349.348
349.002
348.88
348.742
349.002
348.984
349.142
349.059
349.133
349.044
348.965
348.615
348.455
348.275
348.245
348.412
348.595
349.219
341.419
340.926
340.445
340.13
340.035
339.916
340.143
340.125
340.273
340.176
340.269
340.17
340.136
339.86
339.705
339.58
339.543
339.679
339.826
340.319
332.233
331.88
331.503
331.262
331.184
331.077
331.251
331.249
331.34
331.284
331.352
331.242
331.29
331.054
330.927
330.857
330.797
330.871
331.018
331.384
323.052
322.785
322.537
322.352
322.303
322.231
322.356
322.351
322.398
322.384
322.414
322.336
322.417
322.201
322.118
322.078
322.011
322.06
322.174
322.448
313.851
313.676
313.543
313.44
313.405
313.365
313.445
313.443
313.456
313.45
313.452
313.436
313.491
313.339
313.292
313.255
313.232
313.239
313.315
313.48
304.642
304.587
304.552
304.52
304.492
304.48
304.506
304.505
304.508
304.519
304.51
304.512
304.516
304.462
304.449
304.441
304.438
304.425
304.462
304.523
)
;

boundaryField
{
    hotSide
    {
        type            fixedGradient;
        gradient        nonuniform List<scalar> 
400
(
493.59
493.508
496.18
501.533
509.287
519.044
530.376
542.895
556.281
570.286
584.731
599.489
614.484
629.677
645.064
660.669
676.533
692.709
709.238
726.142
475.995
476.175
479.301
485.28
493.774
504.309
516.394
529.599
543.578
558.073
572.901
587.94
603.12
618.411
633.823
649.394
665.187
681.271
697.707
714.527
466.117
466.839
470.467
476.897
485.791
496.676
509.062
522.513
536.68
551.298
566.183
581.213
596.321
611.486
626.724
642.083
657.634
673.456
689.616
706.154
463.453
464.98
469.173
475.925
484.942
495.816
508.109
521.416
535.4
549.8
564.429
579.164
593.942
608.746
623.599
638.553
653.681
669.061
684.76
700.823
466.076
468.564
473.415
480.512
489.608
500.367
512.414
525.391
538.983
552.94
567.079
581.283
595.495
609.709
623.955
638.293
652.799
667.548
682.61
698.033
471.782
475.302
480.916
488.496
497.816
508.583
520.468
533.144
546.317
559.75
573.27
586.776
600.229
613.643
627.069
640.585
654.274
668.22
682.495
697.152
478.742
483.309
489.782
498.013
507.776
518.788
530.729
543.276
556.136
569.076
581.937
594.643
607.19
619.633
632.061
644.582
657.301
670.315
683.704
697.525
485.53
491.107
498.488
507.507
517.922
529.43
541.688
554.341
567.066
579.613
591.834
603.689
615.236
626.591
637.905
649.328
660.998
673.03
685.508
698.496
491.001
497.469
505.717
515.565
526.752
538.943
551.741
564.725
577.508
589.794
601.438
612.453
622.979
633.225
643.416
653.758
664.42
675.53
687.179
699.426
494.228
501.351
510.284
520.843
532.752
545.641
559.058
572.497
585.478
597.64
608.833
619.129
628.768
638.06
647.307
656.763
666.62
677.016
688.04
699.745
494.549
501.963
511.24
522.192
534.539
547.889
561.748
575.55
588.739
600.899
611.87
621.769
630.908
639.666
648.395
657.376
666.814
676.851
687.572
699.028
491.678
498.939
508.109
519.001
531.328
544.693
558.594
572.46
585.731
597.99
609.071
619.084
628.334
637.194
646.016
655.082
664.604
674.724
685.535
697.089
485.814
492.483
501.112
511.511
523.389
536.355
549.93
563.588
576.832
589.289
600.793
611.401
621.334
630.895
640.386
650.069
660.149
670.776
682.051
694.036
477.662
483.397
491.177
500.817
512.028
524.427
537.565
550.974
564.224
576.991
589.105
600.558
611.477
622.07
632.57
643.201
654.155
665.586
677.604
690.279
468.399
472.987
479.78
488.603
499.164
511.078
523.907
537.212
550.603
563.779
576.562
588.897
600.836
612.508
624.087
635.758
647.698
660.059
672.958
686.471
459.661
463.013
468.816
476.909
486.98
498.611
511.34
524.723
538.376
552.005
565.422
578.542
591.371
603.991
616.53
629.149
642.013
655.275
669.06
683.445
453.583
455.726
460.618
468.108
477.843
489.344
502.097
515.63
529.551
543.568
557.489
571.213
584.724
598.072
611.363
624.739
638.363
652.397
666.97
682.161
452.711
453.804
457.887
464.821
474.211
485.519
498.188
511.725
525.737
539.935
554.13
568.216
582.162
596.002
609.82
623.749
637.948
652.582
667.785
683.633
459.294
459.632
463
469.275
478.07
488.851
501.071
514.249
528.004
542.058
556.223
570.391
584.52
598.627
612.78
627.092
641.706
656.775
672.425
688.718
474.032
473.942
476.68
482.147
490.027
499.87
511.203
523.597
536.704
550.259
564.08
578.052
592.122
606.29
620.602
635.144
650.029
665.374
681.277
697.785
)
;
    }
    coldSide
    {
        type            mixed;
        refValue        uniform 300;
        refGradient     uniform 0;
        valueFraction   uniform 0.991591;
        source          uniform 0;
        value           nonuniform List<scalar> 
400
(
300.028
300.028
300.028
300.028
300.028
300.029
300.03
300.03
300.031
300.032
300.032
300.033
300.034
300.035
300.035
300.036
300.037
300.038
300.039
300.039
300.027
300.027
300.027
300.027
300.028
300.028
300.029
300.03
300.03
300.031
300.032
300.033
300.033
300.034
300.035
300.036
300.037
300.038
300.038
300.039
300.027
300.027