/*--------------------------------*- C++ -*----------------------------------*\
| =========                 |                                                 |
| \\      /  F ield         | OpenFOAM: The Open Source CFD Toolbox           |
|  \\    /   O peration     | Version:  2212                                  |
|   \\  /    A nd           | Website:  www.openfoam.com                      |
|    \\/     M anipulation  |                                                 |
\*---------------------------------------------------------------------------*/
FoamFile
{
    version     2.0;
    format      ascii;
    arch        "LSB;label=32;scalar=64";
    class       volScalarField;
    location    "0";
    object      relativeErrorField;
}
// * * * * * * * * * * * * * * * * * * * * * * * * * * * * * * * * * * * * * //

dimensions      [0 0 0 1 0 0 0];

internalField   nonuniform List<scalar> 
3200
(
5.05266e-05
0.00173841
0.00314205
0.00422411
0.00515388
0.00545014
0.00536374
0.00546083
0.00519858
0.00488522
0.00437499
0.00376107
0.00318618
0.00255169
0.00134691
0.000325435
0.00150423
0.00302316
0.00507537
0.00676918
0.000400247
0.00134061
0.00282893
0.00383383
0.00462033
0.00487576
0.00498551
0.00511619
0.00453521
0.00422192
0.00404125
0.00337874
0.00299919
0.00214722
0.00143852
0.000495652
0.00117906
0.00251618
0.00440315
0.00581871
0.000317259
0.00147177
0.00236358
0.00346544
0.00386892
0.00424265
0.00445608
0.00428946
0.00419743
0.00386559
0.00347711
0.00291626
0.00270678
0.00202778
0.00138908
0.000383047
0.000630181
0.00203724
0.00357709
0.00484909
0.000291621
0.00133716
0.002143
0.00271864
0.00333939
0.00397651
0.00391298
0.00375578
0.00355226
0.00334191
0.0029417
0.00258593
0.00234899
0.00189675
0.0013178
0.000331668
0.000791252
0.0016283
0.00310687
0.00411309
0.000344017
0.00103199
0.00196995
0.00245749
0.00278604
0.00304902
0.00321943
0.0031777
0.00293896
0.00260363
0.00256796
0.00204947
0.00179451
0.0016201
0.0010469
0.000444086
0.000307356
0.00119329
0.00229526
0.00316785
0.000305989
0.000789589
0.00136651
0.00172049
0.00193236
0.00202344
0.00221861
0.00219813
0.00207986
0.00188609
0.00191594
0.00157632
0.00144597
0.00132517
0.000516257
0.000171132
0.000301485
0.000823446
0.0015614
0.00242876
0.000107215
0.000490569
0.000647897
0.0011625
0.00116775
0.00125209
0.00149209
0.00129732
0.00128316
0.00147162
0.00121551
0.000917847
0.000995273
0.000605154
0.00062542
0.000231341
7.64705e-05
0.000535286
0.00078966
0.00134572
0.000272519
0.000230702
0.000296508
0.000409196
0.000368204
0.00051179
0.000309148
0.000386438
0.000561788
0.00030859
0.000389814
0.000436689
0.000428597
0.000154397
2.27728e-05
4.63713e-06
0.00017503
0.00039343
0.000147293
0.00065803
0.00278512
0.00426297
0.0057311
0.00700054
0.00785857
0.00844092
0.00866329
0.00850137
0.00800047
0.00804127
0.00754211
0.00685627
0.00629071
0.00538106
0.00454
0.00303402
0.00168401
0.000246051
0.00245052
0.00425809
0.00252519
0.0035873
0.00518571
0.00622545
0.00690578
0.0073366
0.00742748
0.00740812
0.00730128
0.00702681
0.00656544
0.00602624
0.00559433
0.00496552
0.00364635
0.00287982
0.00136445
0.000254253
0.00195923
0.00382015
0.00206171
0.00328341
0.00453167
0.00535917
0.00597544
0.00613345
0.00637815
0.00639749
0.00620212
0.00605156
0.00590761
0.0051723
0.00475867
0.00405971
0.00318387
0.00224193
0.00122755
0.000165365
0.00207581
0.00348246
0.00175914
0.00276161
0.00378653
0.00449481
0.00507904
0.00523271
0.00543036
0.00546238
0.00532338
0.00492011
0.00478349
0.00439129
0.00402416
0.00339683
0.00252004
0.00202055
0.000773502
0.000212447
0.00150575
0.00271232
0.0014854
0.002148
0.00282638
0.00371111
0.00403777
0.00435771
0.00417602
0.00442784
0.00415986
0.00416735
0.00387277
0.00338923
0.00314711
0.00275782
0.00210177
0.00166045
0.00078889
7.8256e-05
0.00127586
0.00213266
0.000858517
0.00145857
0.00224777
0.00231735
0.00300662
0.00324662
0.0033184
0.00291203
0.00310977
0.00291136
0.00286268
0.00257457
0.00211814
0.00156067
0.00177046
0.00113256
0.000812763
0.000204125
0.0010373
0.00151197
0.000558051
0.00123807
0.00132859
0.00151103
0.00183456
0.00198042
0.00202198
0.0019007
0.00180417
0.00185817
0.00168578
0.0018618
0.00139476
0.00106319
0.000886064
0.000703137
0.000296415
8.72338e-07
0.00064612
0.000774892
0.000104819
0.000249586
0.00038257
0.000374779
0.000653909
0.000660214
0.000611007
0.000794195
0.000504039
0.000657965
0.000554244
0.000469365
0.000516657
0.000330422
0.000479911
0.000253573
0.000199894
3.7881e-05
4.30379e-05
0.000360149
0.00571527
0.00752114
0.00932136
0.0103705
0.0114068
0.0118371
0.0122915
0.0123681
0.0120579
0.0116933
0.011359
0.0106516
0.0100398
0.00919987
0.00805348
0.00686831
0.00522587
0.00306561
0.000946044
0.00113411
0.0053669
0.00660868
0.00792129
0.0091719
0.010077
0.0104877
0.010742
0.0108001
0.0105781
0.0102975
0.0098
0.00935787
0.00877874
0.00800502
0.00723516
0.00572469
0.00443129
0.00264098
0.000639838
0.00127212
0.0043699
0.00548524
0.00691987
0.00790921
0.00868939
0.00884778
0.00928673
0.00917777
0.00905047
0.00872476
0.00847335
0.00791135
0.00754585
0.0068955
0.00607472
0.00503156
0.00359514
0.00209302
0.000288984
0.00100932
0.00359137
0.00446596
0.00562591
0.00629132
0.00708896
0.00740926
0.00758766
0.00770011
0.00755853
0.00748517
0.00705442
0.00665644
0.00606997
0.00554485
0.00498874
0.00404705
0.00281535
0.00170673
0.00039176
0.000809991
0.00294122
0.00360824
0.00443546
0.00493132
0.00554682
0.00594843
0.00597108
0.0060167
0.00592211
0.00580191
0.00538768
0.00527717
0.00492368
0.00439887
0.0037458
0.0029591
0.00233447
0.00137545
0.000227755
0.000682588
0.00217246
0.00280613
0.00318937
0.0038468
0.00416421
0.00433885
0.00436272
0.00436208
0.00420252
0.00406089
0.00396304
0.00396338
0.00367808
0.00324713
0.00288793
0.00238094
0.0016717
0.0006696
0.000238666
0.000295273
0.00109191
0.00153132
0.00214148
0.00236926
0.00240593
0.00276822
0.0025973
0.00291006
0.00271919
0.00226564
0.00272756
0.00228184
0.00222615
0.00195881
0.00149738
0.00160575
0.000735415
0.000754076
0.000200306
0.000159572
0.000686151
0.000319882
0.00071726
0.000654355
0.000930969
0.000754094
0.000919381
0.000957009
0.00076435
0.000907208
0.000654096
0.000772484
0.00058858
0.000712038
0.000777252
0.000483772
0.000287324
0.000370678
0.000121542
0.000278681
0.00869761
0.0106659
0.0124257
0.0138325
0.0150067
0.0156886
0.0159509
0.0160524
0.0157701
0.0154151
0.0151966
0.0143713
0.0138216
0.0128129
0.0119373
0.0100844
0.0085232
0.00621662
0.00399616
0.00173884
0.00767861
0.00923708
0.0107428
0.0119281
0.0132038
0.0135228
0.0138259
0.014009
0.0138451
0.0134966
0.0133185
0.0125315
0.0120069
0.011317
0.0102537
0.00892006
0.00720376
0.0052413
0.00346865
0.00150637
0.00654134
0.00789083
0.00938441
0.0103564
0.0111521
0.011631
0.0117212
0.0118946
0.0119774
0.011738
0.0113035
0.0107505
0.0104743
0.00950548
0.00866925
0.00752727
0.00622399
0.00465868
0.00273329
0.00124527
0.00539171
0.00663961
0.00768379
0.00869553
0.00919615
0.00964914
0.00986374
0.00975687
0.00975675
0.00982926
0.00952542
0.00884379
0.00854452
0.00789751
0.00712415
0.00628103
0.00511465
0.00374063
0.0024805
0.000872241
0.00428541
0.00505967
0.00583083
0.00659086
0.00715693
0.00765509
0.00767296
0.00794554
0.00794125
0.00753294
0.00749953
0.00710257
0.00683009
0.00612277
0.00556208
0.00494001
0.00414905
0.00306075
0.00181423
0.00119134
0.00321633
0.00353853
0.00441325
0.00473963
0.00536775
0.00563638
0.00572069
0.00567098
0.00557263
0.00564151
0.00539204
0.00524107
0.00478635
0.00434095
0.00415182
0.00352878
0.00303111
0.00208056
0.0013444
0.000588068
0.00197304
0.0022141
0.0025874
0.00290887
0.0033805
0.00334857
0.0033036
0.00326517
0.0034384
0.00339925
0.00351878
0.00303291
0.00301344
0.00268503
0.00242356
0.00233595
0.00177393
0.0012665
0.000814561
0.000393257
0.00064448
0.00079974
0.000860324
0.000958575
0.00114822
0.00106268
0.00123182
0.00127422
0.0011042
0.00136699
0.00118429
0.000945835
0.000966338
0.000956123
0.000970143
0.000982222
0.000807105
0.000326979
0.000255921
0.000148414
0.0115113
0.0133092
0.0150391
0.0166524
0.0179921
0.0187113
0.0190363
0.0193911
0.0193772
0.0190403
0.0183372
0.0179569
0.0172679
0.0159518
0.0148687
0.0134404
0.0114215
0.00933758
0.00666981
0.00461843
0.00995833
0.0115946
0.0131675
0.0147848
0.0155872
0.0164761
0.0166895
0.0170309
0.0168209
0.0166681
0.0161906
0.0158277
0.0150635
0.0142525
0.012935
0.0114973
0.0100595
0.00787995
0.00565565
0.00392475
0.00847646
0.0098952
0.0112243
0.0124286
0.0134776
0.0139767
0.0144526
0.0145216
0.0143971
0.0142735
0.0139916
0.0134165
0.0128784
0.0121353
0.0109049
0.00986962
0.00852573
0.00661116
0.00487618
0.00341635
0.00695379
0.00810422
0.00928005
0.0103493
0.010994
0.0117329
0.0118972
0.0119718
0.0117238
0.0117561
0.0114293
0.0111948
0.010661
0.0100886
0.00927738
0.00836722
0.00706942
0.00543372
0.00402772
0.00252661
0.00549499
0.00625855
0.00722818
0.0079127
0.00893586
0.00916706
0.00942856
0.00953274
0.00958738
0.00932866
0.00902048
0.00855246
0.00808628
0.00786593
0.0072206
0.00637249
0.00545449
0.00419735
0.00296782
0.00202293
0.0040137
0.00474014
0.00545312
0.0059623
0.00638524
0.00671095
0.00688754
0.00692463
0.00673478
0.00680911
0.00653794
0.00644842
0.00613747
0.00584028
0.00527957
0.00461678
0.00401589
0.00319832
0.00205648
0.00144348
0.00255351
0.00284004
0.0031716
0.00362436
0.00375926
0.00400139
0.00415736
0.00428659
0.00410532
0.00386976
0.00386394
0.00372017
0.00359386
0.0033704
0.00316077
0.00275423
0.00215587
0.0020066
0.00106647
0.00106184
0.000854752
0.00098171
0.000978723
0.00118894
0.00156176
0.00139293
0.00140821
0.00142785
0.0016196
0.00132073
0.00113834
0.00137292
0.00126644
0.00128366
0.00113774
0.000791638
0.000911324
0.000769173
0.000579918
0.000229476
0.01327
0.0152022
0.0172826
0.0191461
0.0203649
0.0212465
0.0218874
0.022293
0.0221099
0.0219282
0.0215269
0.0208678
0.0200138
0.0188569
0.0175462
0.0158852
0.01389
0.0114065
0.00904679
0.00648761
0.0116371
0.0132264
0.0150948
0.016538
0.017759
0.0187764
0.0191506
0.0194639
0.0194432
0.0192437
0.0187312
0.0182173
0.0174625
0.0164849
0.0154131
0.0138922
0.0120612
0.0100137
0.00802857
0.00569052
0.00979185
0.0113462
0.0129256
0.0142086
0.0153071
0.0160827
0.0164965
0.0166609
0.0167384
0.0162214
0.0162126
0.0156231
0.0149482
0.0141385
0.0128259
0.011866
0.0103382
0.00829763
0.00651589
0.00461338
0.00828849
0.00962895
0.0106688
0.0116723
0.0125991
0.0133471
0.0136406
0.0139966
0.0138489
0.0137026
0.0135139
0.0129713
0.0124736
0.0116138
0.0107729
0.00965193
0.00848726
0.00686321
0.00533823
0.00397333
0.00666501
0.00739171
0.00851433
0.00920981
0.010051
0.0107315
0.0105973
0.0108714
0.0108174
0.0109451
0.010568
0.0103137
0.0096691
0.0092491
0.00852939
0.00765893
0.00683015
0.00557634
0.00425467
0.00319019
0.00438542
0.00532265
0.00618891
0.00682977
0.00719617
0.00755263
0.00770335
0.00778054
0.00777725
0.0077669
0.00752735
0.00735746
0.00709151
0.00681613
0.0062611
0.00572413
0.00486887
0.00399259
0.00316624
0.0021007
0.00279919
0.00310841
0.00391443
0.00407575
0.00449883
0.00467135
0.00482768
0.00477663
0.00479352
0.00466064
0.00455532
0.00441625
0.00445889
0.00431902
0.00397793
0.00336566
0.00295138
0.00250712
0.00182372
0.00134331
0.000964648
0.00122753
0.00121767
0.00130008
0.00127699
0.00172605
0.00179449
0.00170988
0.001738
0.00169418
0.00153494
0.00147731
0.00144307
0.00131376
0.00145764
0.00125405
0.000983772
0.000723882
0.000617239
0.00043923
0.0144419
0.0167664
0.0189538
0.0208992
0.0223382
0.0234212
0.0240245
0.0242806
0.0245079
0.0242154
0.02381
0.0229372
0.0222948
0.0209018
0.0194576
0.0177519
0.0155782
0.01318
0.010542
0.00798506
0.0128772
0.0145425
0.0166369
0.0182471
0.0195476
0.020313
0.0212376
0.0213492
0.0214245
0.021304
0.0207757
0.0202342
0.0195109
0.0184999
0.0171211
0.015603
0.013554
0.0114408
0.00895649
0.00698516
0.0108225
0.0125036
0.0139373
0.0155519
0.0166166
0.017735
0.0179405
0.0183923
0.0183155
0.0181692
0.0179349
0.0173501
0.0166166
0.0157593
0.0144044
0.0131201
0.0116398
0.00976691
0.0077895
0.00580626
0.00894171
0.0102813
0.0116422
0.013122
0.0137875
0.0144896
0.0148364
0.0150873
0.0151867
0.0151925
0.0147154
0.0144816
0.0136123
0.0131292
0.0120108
0.0109139
0.00965145
0.007957
0.0062752
0.00488001
0.00702585
0.00797662
0.00895121
0.0101028
0.0108539
0.0116338
0.0116319
0.012075
0.0122001
0.0119637
0.0119643
0.0112512
0.0109474
0.0102679
0.00950387
0.00870036
0.0075776
0.0061937
0.00496036
0.0038826
0.00528751
0.00595722
0.00661777
0.00728471
0.00765869
0.00804658
0.00856295
0.00864782
0.00888473
0.0087008
0.00842672
0.00817284
0.0078689
0.00743699
0.00680551
0.00660704
0.00542887
0.00477113
0.00356523
0.00287949
0.00326719
0.00359893
0.0039153
0.00461761
0.00482378
0.00508299
0.00510966
0.00502821
0.00513268
0.0053507
0.00521155
0.00513739
0.00456777
0.00452159
0.0041576
0.00389532
0.00312606
0.0028016
0.00206288
0.0016357
0.000924259
0.001202
0.00146749
0.00158916
0.001662
0.00183847
0.00179109
0.00178461
0.00178499
0.0018872
0.0016959
0.00178045
0.00175656
0.0016038
0.00166788
0.00147891
0.00120427
0.00100642
0.000901292
0.000504294
0.0152425
0.0173924
0.0198535
0.021848
0.0233223
0.0246811
0.0254599
0.0258097
0.0260145
0.0259967
0.0254517
0.024712
0.0237653
0.0225968
0.0210493
0.0190138
0.0169095
0.0140992
0.0112986
0.00869718
0.0133467
0.0150854
0.0173223
0.0191668
0.0204192
0.0215879
0.0223012
0.0227142
0.0228305
0.022673
0.0222581
0.0218065
0.0209434
0.0197008
0.0185634
0.0165645
0.0144974
0.0122519
0.00982234
0.00763376
0.0114042
0.0132066
0.0148856
0.0161733
0.0174993
0.0185203
0.0189889
0.0193477
0.0195516
0.0194413
0.0189933
0.0186431
0.0177618
0.0169962
0.0157489
0.0140673
0.0122968
0.0103374
0.00829213
0.00654868
0.0094013
0.0108857
0.0121867
0.0136462
0.0144881
0.0151988
0.0158426
0.0160748
0.0161054
0.0160331
0.0159092
0.0155268
0.014836
0.0140562
0.0130797
0.0118494
0.0103086
0.0086966
0.00701162
0.00552445
0.00753161
0.00844519
0.00963237
0.0107382
0.0115905
0.0121303
0.0124803
0.0128808
0.0129031
0.0126632
0.0125805
0.0122253
0.0114998
0.0112045
0.0103754
0.00916868
0.00820065
0.00691501
0.00539195
0.00406407
0.00528309
0.00610989
0.00709914
0.00772178
0.00824455
0.0087496
0.00913109
0.00921714
0.00927907
0.00949533
0.0089413
0.00888129
0.00848624
0.0081701
0.00753875
0.00666683
0.00586996
0.00485086
0.00385109
0.00319319
0.00342596
0.00373424
0.00450615
0.00473564
0.00502764
0.00533499
0.00543917
0.00561333
0.00563792
0.00566085
0.00584007
0.00546693
0.00525665
0.00480646
0.0044616
0.00397403
0.00362464
0.00280058
0.00246014
0.00163012
0.000949456
0.0014219
0.00138988
0.00160096
0.00166916
0.00181052
0.0021652
0.00195736
0.00188817
0.00184746
0.00201394
0.0019371
0.00170664
0.00160315
0.00148577
0.00155518
0.00118152
0.00104397
0.0010166
0.000821474
0.0151917
0.0175112
0.0201151
0.0221501
0.0239368
0.0254296
0.0262651
0.0266773
0.026848
0.0268006
0.0265035
0.0255705
0.0245945
0.0230904
0.0218713
0.0197504
0.017286
0.0146377
0.0114202
0.00881972
0.0132239
0.0153899
0.0174072
0.0195033
0.0211056
0.0221635
0.0228224
0.0232865
0.0236468
0.0236973
0.0233561
0.0225467
0.0215054
0.0203287
0.0188617
0.0172447
0.0152013
0.0126792
0.0101031
0.00769158
0.0115246
0.0131838
0.0149854
0.0166487
0.0180523
0.0190557
0.0194906
0.0200511
0.0203879
0.0201006
0.0197209
0.0192968
0.0185199
0.0174365
0.0160913
0.0148079
0.0128766
0.0106836
0.00861491
0.00678272
0.00939462
0.0106248
0.0124923
0.0136331
0.0149641
0.015782
0.0163781
0.0167003
0.0166187
0.0167446
0.0163184
0.0157948
0.015443
0.0143871
0.0134495
0.0120615
0.0106663
0.00885267
0.00718725
0.00542577
0.00761908
0.00838002
0.00979402
0.0109639
0.0117371
0.0123214
0.0130746
0.0133078
0.0134328
0.0134598
0.0130241
0.0127368
0.0121653
0.0114589
0.010618
0.00954302
0.00824893
0.00720801
0.00551672
0.0041949
0.00536588
0.00608951
0.00710432
0.00808884
0.00840929
0.00935655
0.00911578
0.0095387
0.00971804
0.00949833
0.00951252
0.00905698
0.008871
0.0084048
0.00779413
0.00704948
0.00604893
0.00491109
0.00389627
0.00290832
0.00336618
0.0037939
0.00428389
0.00478523
0.00521844
0.00555873
0.00564188
0.00591831
0.00585483
0.00632034
0.00585108
0.00567908
0.00527925
0.00498904
0.00465251
0.00428369
0.00375848
0.0032553
0.00247315
0.00188467
0.000973455
0.00132816
0.00145811
0.00181452
0.00176635
0.00196442
0.00208555
0.00202261
0.00185772
0.0021052
0.00195913
0.00170911
0.00190097
0.00182865
0.00150153
0.00164538
0.00136434
0.00111276
0.000751653
0.000868249
0.0144053
0.017089
0.0192784
0.0219897
0.0236623
0.0250337
0.0262509
0.027038
0.0270976
0.0269946
0.0266558
0.0256562
0.0246851
0.0231728
0.0216114
0.0195075
0.0171857
0.0142173
0.0110377
0.008343
0.0124931
0.0147833
0.0169085
0.0193167
0.0207086
0.0221212
0.0228148
0.0236168
0.0236514
0.0237512
0.0233746
0.0228415
0.0216644
0.0206926
0.019036
0.0170724
0.0147958
0.0124481
0.00964533
0.00732432
0.0107936
0.0124335
0.0145742
0.0162986
0.0177241
0.0188813
0.019562
0.0200875
0.02047
0.0204714
0.0202126
0.0192298
0.0187654
0.0175849
0.0161343
0.0143846
0.0127206
0.0104659
0.00806204
0.00603474
0.00887101
0.0104129
0.0120896
0.0136095
0.0146344
0.0157806
0.0163644
0.0168332
0.0168029
0.0169204
0.0167884
0.0160574
0.0153181
0.0145816
0.0133273
0.0119896
0.0104736
0.00859218
0.00666787
0.00494711
0.00725179
0.00821833
0.00953929
0.0108262
0.0114689
0.0125996
0.0128383
0.0130457
0.0133139
0.0132751
0.0130186
0.0125897
0.0121763
0.0114106
0.0106177
0.00953181
0.00811878
0.00664825
0.00517686
0.00398309
0.00512214
0.00601933
0.00691708
0.00762105
0.00841838
0.00910494
0.00931964
0.00955907
0.00989965
0.00964103
0.00944767
0.00928394
0.00893347
0.00811329
0.0076597
0.00693517
0.00591755
0.00505008
0.00374125
0.00287128
0.00303412
0.00351969
0.00407905
0.00483559
0.0055287
0.00550049
0.0057904
0.00579957
0.0061421
0.00609601
0.0058336
0.00558224
0.00544679
0.00496907
0.0045456
0.0042398
0.00374012
0.00304692
0.00210951
0.00191512
0.00102696
0.00112589
0.00138879
0.0017406
0.00187886
0.001966
0.00187384
0.00214597
0.00188026
0.00204862
0.00203611
0.00176682
0.00186164
0.00172868
0.00143512
0.00150637
0.00135404
0.000895811
0.000553799
0.000658056
0.0129196
0.0155447
0.0184155
0.0208076
0.0224679
0.0243453
0.0254769
0.0259474
0.0265116
0.0263202
0.0260184
0.0254367
0.0241976
0.0229056
0.0210243
0.0185729
0.0161089
0.0130071
0.0099714
0.00682696
0.0114227
0.0135434
0.0160762
0.0181771
0.020002
0.0213971
0.0222379
0.0228529
0.023449
0.0234558
0.0227295
0.0221679
0.0209443
0.0198609
0.0183264
0.0162265
0.0139267
0.0113859
0.0086406
0.00597632
0.00987376
0.0114791
0.0136377
0.0155012
0.0170632
0.0182145
0.0190648
0.0195622
0.0198557
0.0199023
0.0193403
0.0189292
0.0180665
0.0169625
0.0156357
0.0138703
0.0117561
0.0097851
0.00701461
0.0050266
0.00803257
0.00943147
0.0113804
0.0129072
0.0139739
0.01506
0.0158036
0.0162174
0.0165282
0.0166032
0.0161668
0.0158306
0.0150484
0.014239
0.0128819
0.0114441
0.00982425
0.00776943
0.00606452
0.00439639
0.0064063
0.00746163
0.0087637
0.0101281
0.0111119
0.0120346
0.0124137
0.0128353
0.0132252
0.0130712
0.012723
0.0124175
0.0119401
0.011092
0.0101878
0.00896643
0.00778644
0.00638882
0.00467419
0.00338047
0.00467225
0.0054903
0.006396
0.00744784
0.00824831
0.00883774
0.00922565
0.00933054
0.00962825
0.00942322
0.00930653
0.00919199
0.00869906
0.00823453
0.00746709
0.00638626
0.00540007
0.00447771
0.00341589
0.00225819
0.00287348
0.00337358
0.00406044
0.00454172
0.00479344
0.00518216
0.00565167
0.00562549
0.00585494
0.00575028
0.00589827
0.00559163
0.00509615
0.00482931
0.00459692
0.00374099
0.00356273
0.00253016
0.00205084
0.00144333
0.00105046
0.000842827
0.00135452
0.00160773
0.00177475
0.00178657
0.00187499
0.00159898
0.00174193
0.00190771
0.00196547
0.00170663
0.00181054
0.00194067
0.0015577
0.00118587
0.00102429
0.000774981
0.000589688
0.000518832
0.0106691
0.0134871
0.016359
0.0190823
0.0210578
0.0226537
0.0238195
0.0246707
0.0250823
0.025222
0.0248178
0.0240054
0.0229535
0.0213772
0.0195356
0.0171847
0.0145582
0.0113116
0.00796468
0.00488051
0.00926177
0.0113948
0.0142864
0.0164412
0.0182778
0.0200052
0.0209028
0.0217335
0.0219637
0.021868
0.0215887
0.0209651
0.0200302
0.0187441
0.0167956
0.0147604
0.0126573
0.00978425
0.00678173
0.0043401
0.00785549
0.00985521
0.0120466
0.0139014
0.0156303
0.016888
0.0179368
0.0183724
0.0187079
0.0187715
0.0184044
0.0179808
0.0171333
0.0160632
0.0145108
0.0125025
0.0104763
0.00834955
0.00570585
0.00378501
0.00660153
0.00820509
0.010053
0.0114255
0.013037
0.0141252
0.0149233
0.0151934
0.0157056
0.0157312
0.015318
0.0150584
0.0143763
0.0133056
0.0120456
0.0104424
0.00878741
0.00674516
0.00461319
0.00287805
0.00509124
0.00652286
0.00788289
0.00924491
0.0101661
0.0112063
0.0119262
0.0122758
0.0121889
0.0123345
0.0119956
0.0118733
0.0111123
0.0102628
0.00949821
0.00820123
0.00690665
0.0052117
0.00372027
0.00215324
0.00373775
0.00467787
0.00580755
0.00664243
0.00749016
0.00822067
0.00864686
0.0088616
0.00909738
0.00903477
0.00887252
0.00853179
0.00828788
0.007721
0.00691369
0.00612913
0.00484481
0.00387201
0.00252431
0.00174039
0.00221435
0.00283469
0.00350325
0.00401942
0.00448502
0.00468982
0.00531942
0.00532014
0.00536517
0.00556054
0.00537605
0.00515123
0.0048323
0.00470857
0.0040215
0.00373127
0.00308873
0.00229534
0.00165786
0.00102593
0.000851052
0.000847773
0.00130958
0.00160035
0.00157701
0.00182744
0.001821
0.00196424
0.00184015
0.00202211
0.00184776
0.00177532
0.00167585
0.00175638
0.00126423
0.00140458
0.00100688
0.000801141
0.000528835
0.000173059
0.00787701
0.0104262
0.0137594
0.0161853
0.0184438
0.0202784
0.0215908
0.0224672
0.022934
0.0230829
0.0226682
0.0217929
0.0206835
0.0189728
0.0172117
0.0147723
0.0119233
0.00876713
0.00540634
0.00228522
0.00660913
0.00908517
0.0118249
0.0141155
0.0160321
0.0177588
0.0186358
0.0196793
0.0200164
0.0200324
0.019913
0.0192334
0.018163
0.0166512
0.0148231
0.0128941
0.0102729
0.00741745
0.00448184
0.00184969
0.00577502
0.00775924
0.0101912
0.0121138
0.0137378
0.0148874
0.0161038
0.0169592
0.0169839
0.0171875
0.0167941
0.0164165
0.0154202
0.0139867
0.0128275
0.0109183
0.00874918
0.00642545
0.00363013
0.00159454
0.00479741
0.00663523
0.00828091
0.00994018
0.0113779
0.0125945
0.0134499
0.0139999
0.0143605
0.0143756
0.0140516
0.0133627
0.0126859
0.0116721
0.0104039
0.00919693
0.00725242
0.00522944
0.00309399
0.00101538
0.00372143
0.00494522
0.00651838
0.00779861
0.00902951
0.00994009
0.0108718
0.0110841
0.0112705
0.0113332
0.0110727
0.0105128
0.0100538
0.00929308
0.00824783
0.00697455
0.00555041
0.00429833
0.00253589
0.000823917
0.00264229
0.0035963
0.00474065
0.00573287
0.00655023
0.00727657
0.00761391
0.00801512
0.00823401
0.00829213
0.0081323
0.00779176
0.00741249
0.00690021
0.0061768
0.00520058
0.00397659
0.00279286
0.00194293
0.000631813
0.00156522
0.00244053
0.00300479
0.00354393
0.00427735
0.00439572
0.00473797
0.00505972
0.00516495
0.00497261
0.00504667
0.00489855
0.00469523
0.00420508
0.00355904
0.00311562
0.00239513
0.00181889
0.000852558
0.000412606
0.000692874
0.000807493
0.000803117
0.00147896
0.00127411
0.00149363
0.00155275
0.00180834
0.00157134
0.00173915
0.00176532
0.00153222
0.00157663
0.00156535
0.00120771
0.00101382
0.000732828
0.000718166
0.00018476
0.000224426
0.00421165
0.00697504
0.0101667
0.0127963
0.014966
0.017252
0.0184903
0.0193724
0.0201414
0.0201479
0.0198608
0.0189735
0.0176898
0.0160529
0.0140139
0.0118605
0.00866863
0.00551041
0.00195519
0.00113271
0.00359207
0.00605899
0.00864862
0.0113034
0.0131909
0.014896
0.0163698
0.0169648
0.0175778
0.0175832
0.017003
0.0164437
0.0155817
0.0141525
0.0119083
0.0100019
0.00738892
0.00450736
0.00149291
0.00124082
0.00312417
0.00513387
0.00722305
0.00936798
0.011025
0.0127746
0.0136523
0.0145449
0.0149283
0.0147906
0.0148311
0.0139087
0.0131535
0.0118385
0.0103627
0.00858794
0.00610242
0.00365741
0.00111096
0.00144054
0.00250907
0.00397271
0.00610123
0.00769619
0.00918488
0.0106017
0.011454
0.0119791
0.0122985
0.012364
0.0123669
0.0117301
0.0107321
0.0100167
0.00856827
0.00690056
0.00503504
0.00295638
0.000820774
0.00111896
0.00155694
0.00311151
0.00452402
0.00619967
0.00727302
0.00825925
0.00878217
0.00962702
0.00976829
0.00976742
0.00958564
0.00938737
0.00867936
0.00767518
0.00668564
0.00553537
0.00393256
0.00220688
0.000723066
0.000722436
0.00140874
0.00236231
0.00333952
0.0042059
0.00542974
0.00616342
0.00663712
0.00690715
0.0069366
0.00725481
0.00693028
0.00661088
0.00616569
0.00564129
0.00482029
0.00386665
0.00277744
0.00175788
0.000255187
0.000771408
0.000974552
0.00132546
0.00216847
0.00253739
0.00331132
0.00369663
0.00402311
0.0042851
0.00420372
0.00456472
0.00440668
0.00406542
0.0036874
0.00340662
0.00325501
0.00243796
0.00170498
0.00090156
8.42962e-05
0.000618826
0.000313893
0.000469641
0.000721833
0.000809679
0.00116742
0.00106066
0.00144408
0.00126426
0.00161733
0.00146206
0.00163301
0.0014565
0.00134183
0.00121284
0.000986209
0.000941264
0.000571069
0.000330166
0.000143393
0.000226476
0.00015863
0.00291191
0.0059547
0.00876557
0.0113551
0.0132311
0.0147448
0.0157686
0.0162638
0.0162065
0.0157863
0.0152949
0.0140957
0.0122826
0.0102142
0.00764386
0.00482715
0.00149736
0.00209777
0.00542218
0.000354311
0.0019767
0.00484916
0.00748971
0.00949355
0.0112995
0.0127908
0.013474
0.0142213
0.0140197
0.0137538
0.0132461
0.0122887
0.010704
0.00886759
0.00644524
0.00385693
0.00101573
0.0024086
0.00483346
0.000551373
0.00169285
0.00406596
0.00646234
0.00810011
0.00976613
0.0107883
0.0115787
0.0120823
0.0123189
0.0118017
0.0111412
0.0101571
0.00911467
0.00748466
0.00532351
0.00313493
0.000695485
0.0018994
0.00435922
0.00041372
0.0013595
0.00307701
0.00510445
0.00672578
0.0079494
0.00891165
0.00964373
0.010053
0.0101855
0.00973788
0.00944232
0.008456
0.00740771
0.00619581
0.00451221
0.00254168
0.000392823
0.00181226
0.00384782
0.000548729
0.000966653
0.00257443
0.00391379
0.00524998
0.00630134
0.00684
0.00761593
0.00794548
0.0079893
0.00774539
0.00763379
0.00656687
0.00578268
0.00476337
0.00349681
0.00190696
0.000166918
0.00141408
0.00312109
0.00047227
0.000745991
0.00192291
0.0028718
0.00365044
0.00456954
0.00515377
0.00529572
0.00549544
0.00552883
0.00577485
0.00507157
0.0047419
0.00411404
0.00360454
0.00241092
0.00154404
0.000237188
0.00108526
0.0023628
0.000287036
0.00035821
0.0013055
0.00194455
0.00212633
0.00295942
0.00316322
0.00357949
0.00357597
0.00365378
0.00349263
0.00339675
0.00276003
0.00253101
0.00212649
0.00159811
0.000926534
2.76428e-05
0.000650644
0.00134288
9.35572e-05
0.000107838
0.000521983
0.000661492
0.000950996
0.000835657
0.000968797
0.00128326
0.00127444
0.00126533
0.000962907
0.000914321
0.00109089
0.000677105
0.000682692
0.000432211
0.000430724
0.000119037
0.000288117
0.000334898
0.00522469
0.00233563
0.0010929
0.00405638
0.00651982
0.00859241
0.00997811
0.0112222
0.0117156
0.0117981
0.0115196
0.0107381
0.00946644
0.00796829
0.00577853
0.0029929
9.61898e-06
0.00325415
0.00688548
0.0101917
0.004789
0.00220382
0.000515436
0.00327137
0.00532755
0.00713584
0.00866904
0.00966351
0.0101825
0.0102552
0.0100612
0.00945828
0.00823424
0.0064369
0.0046208
0.0024462
0.000233296
0.00296234
0.00633986
0.00897798
0.00430052
0.00205714
0.000445478
0.00262692
0.00429099
0.00596307
0.00752865
0.00810887
0.00862101
0.00865829
0.00844877
0.00808576
0.00712043
0.00560318
0.00396564
0.00185547
0.000285548
0.00276096
0.0057336
0.00798268
0.00383292
0.00197377
1.94396e-05
0.00204316
0.00345058
0.00500253
0.00598754
0.0065308
0.00707922
0.00712702
0.00697029
0.00631178
0.00573693
0.00436285
0.00320117
0.00157314
0.00042446
0.00261269
0.00492888
0.00684875
0.00302919
0.00169644
7.57864e-05
0.00163761
0.00285872
0.00382626
0.00481163
0.00539986
0.00564253
0.00556701
0.00536503
0.00506696
0.00448486
0.00362319
0.00237673
0.000957363
0.000492806
0.00220525
0.00387305
0.00543042
0.00233193
0.00135293
3.03797e-05
0.00106999
0.00212453
0.00269663
0.00342411
0.00396231
0.00416863
0.0041814
0.003857
0.00383081
0.00316784
0.00269149
0.00169629
0.0010633
0.000335852
0.00179012
0.00292497
0.00419105
0.00116348
0.000702683
0.000104582
0.000624415
0.00129047
0.00170081
0.00214631
0.00220444
0.00241987
0.00261144
0.00253635
0.00254621
0.00213329
0.00150656
0.00104366
0.000230768
0.000425048
0.000806931
0.0016054
0.00264655
0.000424068
0.000396469
3.98051e-05
0.000267303
0.000401115
0.000721296
0.000454771
0.000787367
0.000746542
0.000841709
0.00100442
0.000702754
0.00088081
0.000471443
0.000406448
0.000127736
9.30367e-05
0.000347908
0.000725271
0.000788705
0.0108339
0.00778801
0.00457124
0.00133591
0.00119914
0.00327768
0.00491056
0.00584123
0.00667591
0.00689289
0.00655252
0.0057962
0.00433038
0.00272911
0.000514681
0.00208333
0.00503633
0.00859211
0.0121898
0.0156029
0.00991923
0.00708505
0.00427544
0.00140453
0.000802583
0.00247641
0.00418735
0.00501197
0.0055207
0.00567919
0.00553808
0.00465104
0.00351698
0.00210154
0.000177234
0.00208521
0.0048565
0.00788271
0.011229
0.0140188
0.00848292
0.00619129
0.00376212
0.00152281
0.000480405
0.00222084
0.00337102
0.00431062
0.00483373
0.00486178
0.00458307
0.00408244
0.0029993
0.00157022
6.74698e-05
0.00209208
0.00432082
0.00712004
0.00968727
0.0123466
0.00754012
0.00513697
0.00334677
0.00151046
0.000179204
0.00168062
0.00248941
0.00342433
0.00373485
0.00401584
0.00369382
0.00322203
0.00239343
0.00135976
1.72093e-05
0.0017713
0.00362157
0.00628596
0.00828911
0.0103495
0.00583412
0.00463506
0.00282677
0.00114785
0.000112582
0.00111359
0.00201639
0.00252031
0.00296739
0.00293193
0.00291131
0.00250549
0.00179995
0.00095676
0.000127031
0.00148278
0.00314951
0.00489121
0.00669156
0.00838507
0.00431665
0.00318865
0.00204322
0.000911848
5.37366e-05
0.000956686
0.00140258
0.00180017
0.00200734
0.00195407
0.00198739
0.00161433
0.00111081
0.00064833
0.00041332
0.00129742
0.00226374
0.00361427
0.0050398
0.0060915
0.00256098
0.00202575
0.00125476
0.000602923
7.76939e-05
0.000388306
0.000936923
0.00112361
0.00113258
0.00125031
0.00130655
0.00117255
0.000621877
0.000354773
5.7569e-05
0.000886012
0.00157919
0.00217518
0.00318126
0.00391931
0.00120496
0.000723251
0.000612048
0.000149045
9.67228e-05
5.57333e-05
0.000392112
0.000276873
0.000631077
0.000229615
0.000487227
0.000496214
0.000254395
6.53692e-05
6.98101e-05
0.000213404
0.000461875