/*--------------------------------*- C++ -*----------------------------------*\
| =========                 |                                                 |
| \\      /  F ield         | OpenFOAM: The Open Source CFD Toolbox           |
|  \\    /   O peration     | Version:  2212                                  |
|   \\  /    A nd           | Website:  www.openfoam.com                      |
|    \\/     M anipulation  |                                                 |
\*---------------------------------------------------------------------------*/
FoamFile
{
    version     2.0;
    format      ascii;
    arch        "LSB;label=32;scalar=64";
    class       volScalarField;
    location    "./ITHACAoutput/true/4.8";
    object      error;
}
// * * * * * * * * * * * * * * * * * * * * * * * * * * * * * * * * * * * * * //

dimensions      [0 0 0 1 0 0 0];

internalField   nonuniform List<scalar> 
3200
(
1.28345
1.1221
1.11361
1.30568
1.5944
2.07802
2.61596
3.20651
3.54519
3.83881
3.91054
3.91839
3.77604
3.35261
2.93784
2.69091
2.50385
2.52204
2.55999
2.85575
1.03194
0.867569
0.895304
1.1038
1.40762
1.80602
2.19251
2.62579
3.01164
3.28018
3.27931
3.30536
3.10283
2.83985
2.54589
2.25829
2.18227
2.18777
2.18853
2.43552
0.816391
0.726569
0.667412
0.882996
1.10559
1.44852
1.79732
2.21022
2.55712
2.73319
2.81437
2.72538
2.5251
2.35082
2.09464
1.87484
1.80007
1.71068
1.81153
1.98575
0.645291
0.463201
0.575842
0.652344
0.924157
1.16092
1.38126
1.77776
2.009
2.15964
2.23992
2.24643
2.07593
1.86053
1.7451
1.49856
1.35109
1.43966
1.51271
1.58538
0.444846
0.426436
0.50921
0.479126
0.628277
0.932638
1.10506
1.35504
1.59935
1.67961
1.65257
1.6339
1.62903
1.41104
1.23452
1.14226
1.06543
1.05822
1.14064
1.24565
0.278476
0.301088
0.276556
0.32665
0.42326
0.620834
0.76289
0.937091
1.11765
1.15133
1.25317
1.24727
1.04491
1.0003
0.921453
0.843406
0.71006
0.776848
0.775055
0.850439
0.204975
0.141292
0.215012
0.212986
0.239546
0.324521
0.467343
0.600538
0.640996
0.69369
0.703098
0.743362
0.62423
0.643691
0.489828
0.477228
0.458739
0.415331
0.479366
0.534365
0.0554987
0.0268959
0.104291
0.0617133
0.136849
0.18916
0.180633
0.302326
0.187076
0.235076
0.277926
0.252196
0.261048
0.238404
0.23707
0.173207
0.188355
0.16987
0.189576
0.172382
0.464181
0.332438
0.301826
0.505676
0.770284
1.17176
1.70986
2.14766
2.56146
2.9208
3.03658
2.91208
2.77868
2.45153
2.07949
1.84043
1.71816
1.70342
1.84949
2.11237
0.375046
0.333624
0.245661
0.351742
0.648098
1.05823
1.46051
1.8096
2.25953
2.50436
2.57749
2.53543
2.38363
2.11544
1.80005
1.56046
1.49738
1.47821
1.56499
1.77714
0.302229
0.251877
0.250231
0.337479
0.54931
0.840111
1.2236
1.63027
1.91959
2.05811
2.09424
2.15443
2.03139
1.79367
1.49868
1.34139
1.21027
1.2208
1.27146
1.50404
0.288666
0.156102
0.134318
0.318628
0.434429
0.637714
0.989302
1.31186
1.53025
1.73084
1.79244
1.73982
1.61046
1.47184
1.28876
1.04893
0.96484
0.988922
1.10088
1.15689
0.162964
0.0869091
0.120188
0.172322
0.347025
0.587682
0.772458
1.00399
1.20724
1.32513
1.30664
1.2832
1.25615
1.11279
0.921121
0.779908
0.772344
0.735938
0.873178
0.899021
0.137927
0.0612024
0.0571718
0.138889
0.209228
0.408524
0.530308
0.684021
0.860164
0.961757
0.898332
0.918585
0.879773
0.763005
0.645103
0.554027
0.53622
0.487369
0.550397
0.694844
0.0605665
0.101993
0.0253554
0.139403
0.164084
0.244949
0.362053
0.462628
0.49946
0.556204
0.600458
0.543698
0.533099
0.462454
0.349525
0.329334
0.304879
0.295605
0.313168
0.419865
0.0971417
-0.0525708
0.0163704
0.0322161
0.078211
0.0649506
0.102431
0.196171
0.149051
0.192028
0.154024
0.205923
0.144256
0.185886
0.146062
0.198464
0.119155
0.135182
0.127497
0.128793
-0.352547
-0.530409
-0.572721
-0.556022
-0.2525
0.12674
0.628136
1.00549
1.47539
1.68935
1.8016
1.7627
1.52121
1.24219
1.0124
0.776638
0.706451
0.752475
0.914355
1.15475
-0.247824
-0.526205
-0.573075
-0.481922
-0.198118
0.163487
0.513061
0.899323
1.27073
1.54534
1.59129
1.53629
1.39869
1.13624
0.915374
0.669826
0.583151
0.658937
0.807276
0.985703
-0.295359
-0.359818
-0.438733
-0.391087
-0.17679
0.0369597
0.433009
0.776831
1.07359
1.30798
1.32491
1.28227
1.12735
0.974704
0.746312
0.617458
0.513382
0.483552
0.699084
0.849111
-0.177745
-0.344677
-0.341863
-0.28709
-0.110182
0.0811615
0.405625
0.664978
0.868439
1.06233
1.05615
0.953694
0.973837
0.822895
0.65108
0.492689
0.386495
0.489737
0.549637
0.652924
-0.182056
-0.201998
-0.275307
-0.223156
-0.0813389
0.0631933
0.234681
0.491185
0.661326
0.759338
0.832348
0.805993
0.757412
0.615924
0.499844
0.411881
0.262199
0.364318
0.441106
0.571613
-0.171183
-0.225552
-0.206331
-0.178381
-0.062167
0.0547602
0.16657
0.352719
0.46057
0.517729
0.590353
0.615338
0.555322
0.410834
0.312358
0.211118
0.224292
0.244559
0.283547
0.355357
-0.0622891
-0.138999
-0.142125
-0.165357
-0.0833891
0.0933571
0.134577
0.191202
0.241697
0.429283
0.281795
0.331338
0.28089
0.270518
0.235827
0.178024
0.182503
0.0920008
0.201769
0.222404
0.00151374
-0.0428855
-0.122992
0.0537178
-0.020116
0.0728522
0.0476636
0.0551766
0.124511
0.139345
0.0732108
0.109047
0.0359342
0.171956
0.0662542
0.0676658
0.108036
0.101206
0.0331279
0.0391003
-1.22322
-1.42439
-1.48361
-1.42476
-1.29623
-0.945502
-0.559842
-0.0911135
0.229856
0.526741
0.594189
0.557854
0.378582
0.175485
-0.0668022
-0.227218
-0.24169
-0.186629
0.0348082
0.4147
-0.961078
-1.17953
-1.23899
-1.25688
-1.11232
-0.742328
-0.419523
-0.0592752
0.23321
0.486471
0.474257
0.505717
0.36319
0.141057
-0.0163636
-0.158826
-0.258916
-0.150074
0.0798317
0.28902
-0.843109
-0.997832
-1.13594
-1.03309
-0.919017
-0.610143
-0.378087
-0.0375684
0.24246
0.370335
0.408448
0.436113
0.335165
0.165655
0.0193156
-0.156022
-0.165756
-0.0583461
0.0901484
0.263336
-0.774736
-0.784625
-0.870892
-0.8451
-0.750437
-0.510611
-0.317112
-0.000947699
0.170667
0.317897
0.375601
0.342191
0.301751
0.115794
0.0218125
-0.131343
-0.116535
-0.0603212
0.124589
0.208599
-0.526564
-0.583284
-0.715822
-0.711966
-0.62506
-0.411634
-0.250701
-0.0922892
0.104105
0.254527
0.241948
0.340678
0.162682
0.146362
-0.039761
-0.0282336
-0.0996167
-0.058715
0.122273
0.145049
-0.367216
-0.44754
-0.466295
-0.514257
-0.383145
-0.299522
-0.170539
0.0323305
0.128518
0.199553
0.195081
0.129203
0.143055
0.0634584
0.0288517
-0.107763
-0.0613878
-0.077129
0.0399712
0.0966115
-0.17746
-0.247271
-0.280728
-0.240255
-0.245477
-0.208351
-0.124975
0.0452965
0.0234286
0.081784
0.171944
0.0918169
0.102032
0.0539274
-0.0225888
-0.0694623
-0.0267797
-0.0236156
0.0202324
0.100484
-0.0744874
-0.0547356
-0.133356
-0.0532902
-0.0968924
-0.110642
-0.0451624
2.41393e-05
0.0549364
-0.0309585
0.0428888
0.037385
0.0510982
-0.00411048
-0.00439533
-0.0108272
-0.00930457
0.0142005
-0.0880971
0.0278361
-1.74948
-2.10493
-2.2831
-2.24975
-2.15142
-1.89868
-1.51967
-1.13978
-0.876629
-0.680155
-0.513506
-0.479334
-0.67222
-0.808235
-1.03119
-1.08182
-1.06269
-0.91556
-0.696417
-0.240097
-1.57685
-1.7302
-1.93471
-1.96577
-1.77625
-1.63439
-1.26608
-1.00165
-0.771982
-0.451088
-0.46968
-0.424081
-0.531585
-0.675746
-0.876157
-0.835268
-0.93348
-0.84046
-0.609982
-0.26186
-1.27487
-1.47497
-1.6382
-1.60495
-1.49754
-1.35495
-1.0475
-0.813976
-0.593025
-0.469182
-0.404253
-0.3085
-0.425282
-0.548604
-0.713043
-0.731338
-0.787475
-0.628816
-0.398805
-0.192272
-1.0479
-1.22319
-1.32022
-1.34973
-1.23586
-1.08742
-0.830523
-0.621873
-0.441678
-0.351338
-0.205765
-0.337106
-0.316021
-0.531659
-0.552647
-0.628545
-0.610714
-0.532957
-0.406943
-0.105863
-0.815751
-0.918174
-1.04257
-1.02378
-0.962741
-0.837172
-0.747661
-0.528384
-0.367925
-0.275181
-0.157131
-0.216274
-0.238331
-0.409489
-0.510306
-0.445352
-0.427354
-0.373799
-0.262839
-0.10546
-0.543464
-0.697236
-0.712814
-0.704261
-0.708765
-0.623478
-0.41826
-0.364378
-0.246558
-0.154464
-0.170076
-0.172566
-0.186198
-0.311009
-0.317916
-0.334658
-0.362045
-0.28414
-0.142405
-0.0545445
-0.356151
-0.371967
-0.392023
-0.415192
-0.431076
-0.424773
-0.312887
-0.149087
-0.15533
-0.096267
-0.0922336
-0.104828
-0.0461761
-0.15503
-0.216068
-0.245563
-0.15291
-0.190547
-0.126034
-0.0457265
-0.167609
-0.133502
-0.153665
-0.135063
-0.13555
-0.127088
-0.10723
-0.0386564
-0.0121579
-0.0013677
-0.0230665
0.00506384
-0.0702233
-0.0712478
-0.111944
-0.0710592
-0.068537
-0.0140156
-0.0489172
-0.0816027
-2.2508
-2.57393
-2.81207
-2.91038
-2.86392
-2.6548
-2.29502
-2.11375
-1.751
-1.59008
-1.4915
-1.4409
-1.58549
-1.69792
-1.83842
-1.81502
-1.78394
-1.54631
-1.25369
-0.726091
-1.98059
-2.21388
-2.44692
-2.4807
-2.39918
-2.30868
-2.02838
-1.81134
-1.56175
-1.34704
-1.29633
-1.26719
-1.34826
-1.47405
-1.564
-1.57031
-1.55091
-1.28386
-1.00369
-0.642179
-1.66196
-1.82279
-1.99177
-2.08624
-2.10836
-1.90545
-1.73981
-1.4438
-1.2806
-1.18304
-1.06046
-1.0711
-1.1215
-1.27657
-1.30074
-1.37093
-1.26255
-1.12731
-0.810016
-0.558188
-1.35349
-1.51595
-1.63492
-1.73878
-1.69491
-1.50128
-1.42768
-1.26397
-1.04835
-0.920603
-0.876311
-0.857109
-0.930072
-1.01668
-0.96203
-1.05543
-1.0542
-0.873303
-0.688525
-0.411961
-0.986806
-1.20386
-1.28449
-1.33736
-1.29599
-1.25417
-1.13839
-0.92876
-0.78746
-0.745072
-0.652609
-0.679142
-0.672491
-0.721618
-0.796041
-0.756367
-0.76918
-0.691797
-0.464126
-0.389987
-0.701253
-0.871622
-0.915205
-0.930454
-0.896255
-0.817741
-0.803392
-0.673925
-0.525097
-0.54594
-0.486175
-0.482829
-0.519013
-0.488141
-0.568009
-0.644114
-0.564513
-0.431904
-0.330881
-0.308716
-0.505911
-0.470881
-0.542147
-0.535383
-0.511437
-0.499753
-0.511508
-0.423179
-0.345581
-0.286361
-0.26735
-0.253873
-0.321849
-0.29729
-0.377481
-0.30462
-0.364761
-0.293149
-0.229037
-0.159639
-0.127875
-0.24619
-0.16677
-0.142976
-0.0775632
-0.145929
-0.152183
-0.0871633
-0.120911
-0.103951
-0.139648
-0.055724
-0.135966
-0.0690191
-0.176804
-0.0995314
-0.0854386
-0.123074
-0.135801
-0.0322703
-2.52474
-2.89313
-3.19656
-3.32144
-3.37969
-3.23748
-3.07147
-2.85008
-2.55014
-2.3787
-2.29326
-2.27593
-2.37595
-2.42006
-2.44908
-2.47626
-2.23536
-1.95852
-1.48979
-1.04248
-2.15807
-2.40686
-2.749
-2.7793
-2.93387
-2.80265
-2.68979
-2.41777
-2.18767
-2.01282
-1.95905
-1.97696
-1.99321
-2.07084
-2.10271
-2.06181
-1.97549
-1.70736
-1.26683
-0.844591
-1.8077
-2.09878
-2.35342
-2.38162
-2.48795
-2.36744
-2.19529
-1.91292
-1.87535
-1.7472
-1.64998
-1.62101
-1.73001
-1.69598
-1.71346
-1.71244
-1.59965
-1.3313
-1.08352
-0.774851
-1.43432
-1.71411
-1.94826
-1.92824
-1.9975
-1.8717
-1.76895
-1.64419
-1.51885
-1.42815
-1.31744
-1.29856
-1.37878
-1.40275
-1.33363
-1.34315
-1.29741
-1.13504
-0.854991
-0.619863
-1.14411
-1.29004
-1.44648
-1.50175
-1.52139
-1.51111
-1.36328
-1.26028
-1.11521
-1.07134
-1.05011
-1.01436
-1.10933
-1.07363
-1.09522
-1.14056
-1.01974
-0.922534
-0.645347
-0.434474
-0.818224
-0.983727
-1.01698
-1.10341
-1.1567
-1.06402
-1.00353
-0.890985
-0.805862
-0.757263
-0.736604
-0.73883
-0.718136
-0.734559
-0.731596
-0.776583
-0.722959
-0.551853
-0.438482
-0.385427
-0.445185
-0.581452
-0.643043
-0.700867
-0.615249
-0.617378
-0.65835
-0.538461
-0.449218
-0.505009
-0.474887
-0.480087
-0.440326
-0.469334
-0.47521
-0.461387
-0.443329
-0.367176
-0.305663
-0.221698
-0.186034
-0.20628
-0.248922
-0.244933
-0.205413
-0.180227
-0.149877
-0.210654
-0.107209
-0.0963709
-0.16347
-0.179992
-0.0919324
-0.145484
-0.18087
-0.0846513
-0.124415
-0.103033
-0.111575
-0.0375024
-2.48396
-2.97281
-3.35099
-3.54159
-3.66206
-3.65629
-3.4865
-3.35887
-3.16907
-3.01457
-2.884
-2.90276
-2.88946
-2.93033
-2.86122
-2.644
-2.53624
-2.11404
-1.62044
-1.0192
-2.18143
-2.52385
-2.87369
-3.06489
-3.1785
-3.15756
-3.01645
-2.90355
-2.7596
-2.60828
-2.45672
-2.4587
-2.4735
-2.37097
-2.46776
-2.30789
-2.17366
-1.8753
-1.41297
-0.970361
-1.78396
-2.14599
-2.37366
-2.6035
-2.62043
-2.61004
-2.53209
-2.45072
-2.19921
-2.09606
-2.06002
-2.06714
-2.07435
-2.11638
-2.08352
-1.94462
-1.71091
-1.45937
-1.14312
-0.783862
-1.52253
-1.70735
-2.0107
-2.07411
-2.14928
-2.14374
-2.00855
-1.95841
-1.81275
-1.72745
-1.67377
-1.70405
-1.72424
-1.72018
-1.6409
-1.54788
-1.43618
-1.2075
-0.973068
-0.668456
-1.20766
-1.34905
-1.55352
-1.60865
-1.65063
-1.67135
-1.57262
-1.49678
-1.44104
-1.29956
-1.27606
-1.25814
-1.30298
-1.32959
-1.34813
-1.27654
-1.11218
-0.98757
-0.75149
-0.511781
-0.854369
-0.953186
-1.09672
-1.21726
-1.19899
-1.13548
-1.0726
-1.07469
-0.968477
-0.944099
-0.95385
-0.916243
-0.919611
-0.896994
-0.862585
-0.803596
-0.753205
-0.733041
-0.524899
-0.39651
-0.536419
-0.602029
-0.62951
-0.626557
-0.66155
-0.728838
-0.694902
-0.658154
-0.608768
-0.58507
-0.515982
-0.504992
-0.61487
-0.532835
-0.511215
-0.529233
-0.517462
-0.41125
-0.261122
-0.239576
-0.167975
-0.184111
-0.226158
-0.180452
-0.250317
-0.295521
-0.276539
-0.216332
-0.192845
-0.229779
-0.23646
-0.143413
-0.197692
-0.149966
-0.155654
-0.222215
-0.190068
-0.17896
-0.0530172
-0.0783514
-2.27334
-2.73611
-3.2908
-3.54624
-3.84801
-3.89465
-3.79633
-3.7112
-3.47107
-3.30491
-3.28101
-3.24636
-3.1791
-3.11779
-2.99097
-2.75365
-2.4709
-2.06213
-1.4613
-0.877345
-1.96588
-2.39313
-2.76874
-3.12443
-3.28409
-3.2023
-3.22684
-3.06293
-2.95677
-2.88545
-2.84067
-2.72286
-2.73401
-2.63241
-2.62012
-2.44678
-2.15088
-1.75843
-1.20747
-0.779443
-1.71826
-2.08388
-2.38249
-2.57364
-2.74099
-2.69151
-2.72883
-2.58845
-2.4898
-2.4046
-2.38843
-2.34579
-2.25329
-2.20893
-2.2226
-2.04157
-1.84285
-1.46523
-1.03937
-0.634357
-1.36115
-1.67701
-1.92215
-2.09377
-2.20753
-2.2094
-2.22616
-2.1578
-2.01605
-1.9839
-1.94491
-1.90843
-1.88886
-1.83423
-1.76555
-1.63015
-1.44642
-1.16015
-0.785611
-0.501951
-1.04276
-1.30315
-1.46821
-1.63496
-1.74425
-1.77548
-1.63445
-1.65635
-1.63461
-1.47496
-1.53498
-1.3775
-1.47719
-1.37004
-1.38239
-1.25206
-1.13605
-0.966329
-0.588756
-0.38308
-0.745932
-0.910601
-1.05531
-1.13814
-1.19089
-1.19888
-1.21179
-1.25194
-1.10621
-1.12269
-1.0802
-0.9985
-0.991588
-0.988233
-1.02851
-0.914197
-0.774439
-0.645785
-0.46367
-0.270986
-0.512864
-0.569107
-0.629532
-0.669528
-0.652651
-0.748764
-0.739925
-0.672369
-0.660198
-0.675411
-0.674888
-0.644853
-0.577484
-0.555823
-0.616661
-0.447091
-0.476235
-0.381724
-0.259282
-0.144127
-0.149871
-0.226841
-0.181643
-0.255035
-0.232541
-0.225021
-0.187231
-0.22552
-0.281076
-0.249561
-0.212756
-0.16239
-0.221103
-0.186558
-0.226122
-0.186876
-0.224634
-0.173929
-0.025655
-0.0033694
-1.85849
-2.40235
-2.92419
-3.39016
-3.65071
-3.68969
-3.66744
-3.65205
-3.62656
-3.48553
-3.32036
-3.36026
-3.16937
-3.088
-2.8783
-2.70183
-2.31105
-1.74173
-1.09664
-0.474708
-1.58447
-2.10043
-2.56926
-2.89001
-3.07634
-3.17514
-3.23287
-3.17849
-3.09873
-2.97887
-2.94438
-2.84698
-2.76632
-2.7152
-2.55149
-2.32426
-2.0188
-1.54791
-0.976241
-0.413896
-1.33571
-1.6946
-2.07441
-2.3906
-2.54217
-2.67612
-2.69857
-2.59541
-2.56814
-2.48734
-2.47994
-2.39915
-2.29219
-2.30746
-2.07552
-1.91091
-1.68238
-1.23857
-0.839022
-0.291044
-1.1524
-1.45719
-1.74188
-1.91478
-2.07321
-2.12109
-2.24361
-2.19188
-2.08196
-2.05447
-2.03052
-1.91257
-1.86555
-1.88959
-1.77988
-1.57155
-1.37095
-1.06806
-0.704682
-0.332349
-0.869596
-1.08237
-1.30922
-1.42023
-1.68908
-1.67414
-1.65911
-1.68304
-1.66022
-1.60223
-1.56145
-1.47661
-1.44651
-1.44099
-1.33796
-1.13299
-1.0279
-0.826627
-0.492419
-0.247548
-0.557204
-0.799725
-0.941172
-1.04781
-1.24205
-1.21162
-1.23176
-1.2581
-1.17908
-1.13609
-1.08019
-1.0525
-0.995865
-1.03042
-0.963849
-0.916978
-0.763599
-0.557322
-0.30802
-0.156521
-0.405484
-0.442192
-0.575333
-0.736726
-0.712612
-0.749024
-0.752271
-0.782319
-0.735105
-0.631604
-0.607319
-0.628651
-0.63332
-0.59524
-0.690291
-0.550313
-0.487157
-0.388436
-0.241305
-0.124836
-0.184454
-0.194914
-0.112028
-0.201185
-0.281598
-0.242184
-0.240105
-0.247631
-0.341379
-0.174603
-0.221014
-0.249654
-0.249671
-0.23374
-0.166282
-0.210405
-0.174612
-0.157115
-0.0798147
0.0263263
-1.07529
-1.77759
-2.40566
-2.82787
-3.15362
-3.43521
-3.44911
-3.47693
-3.40533
-3.29427
-3.28279
-3.14634
-2.99107
-2.89566
-2.64562
-2.25271
-1.84094
-1.21067
-0.442586
0.222925
-1.01551
-1.50919
-2.08533
-2.51688
-2.70349
-2.87394
-3.00694
-2.94453
-3.04982
-2.86658
-2.71828
-2.68067
-2.57398
-2.45678
-2.24647
-2.00108
-1.50648
-1.02815
-0.376043
0.128932
-0.764624
-1.22048
-1.706
-2.06595
-2.29168
-2.39382
-2.49971
-2.47143
-2.49137
-2.46563
-2.32015
-2.2415
-2.19109
-2.1405
-1.90122
-1.66511
-1.32877
-0.837417
-0.414628
0.0889803
-0.681373
-0.985021
-1.46379
-1.69386
-1.88333
-1.98338
-2.02219
-2.04137
-2.04552
-1.96989
-1.96544
-1.80632
-1.7529
-1.65115
-1.5591
-1.33878
-1.07913
-0.711947
-0.292771
0.13046
-0.582566
-0.815658
-1.0589
-1.2784
-1.43744
-1.5519
-1.56893
-1.52387
-1.49628
-1.49108
-1.48752
-1.44295
-1.29398
-1.24688
-1.27798
-1.02844
-0.824544
-0.559892
-0.247993
0.0786827
-0.34903
-0.569173
-0.795132
-0.907264
-1.05908
-1.08724
-1.16817
-1.08293
-1.09857
-1.03958
-1.01372
-0.950742
-0.943861
-0.938308
-0.810952
-0.716242
-0.603012
-0.385895
-0.146832
0.0707623
-0.204508
-0.368059
-0.421624
-0.494967
-0.623228
-0.667615
-0.749478
-0.628822
-0.694837
-0.677748
-0.647693
-0.62359
-0.60352
-0.524751
-0.42293
-0.450774
-0.34556
-0.239942
-0.130251
0.027034
-0.0696185
-0.128503
-0.172424
-0.240424
-0.168518
-0.236347
-0.229638
-0.204327
-0.274537
-0.234338
-0.201782
-0.16518
-0.190169
-0.17463
-0.188043
-0.17454
-0.0583189
-0.0754683
0.000796272
0.0342536
-0.169913
-0.854505
-1.50975
-2.15556
-2.46968
-2.80485
-2.88675
-2.94652
-3.00177
-2.95115
-2.82311
-2.77317
-2.53937
-2.34938
-2.05811
-1.67304
-1.11427
-0.448584
0.363943
1.13771
-0.172428
-0.728528
-1.3398
-1.81976
-2.11509
-2.32291
-2.5496
-2.49268
-2.55794
-2.47233
-2.52348
-2.35173
-2.16523
-2.01204
-1.7662
-1.32502
-0.984421
-0.378467
0.338368
0.983019
-0.114132
-0.585107
-1.08745
-1.55413
-1.76468
-1.99742
-2.05588
-2.11187
-2.1436
-2.13732
-2.0426
-1.96786
-1.82272
-1.67994
-1.48533
-1.13383
-0.736251
-0.284971
0.273058
0.795864
-0.132739
-0.479067
-0.843127
-1.22494
-1.45929
-1.59548
-1.71279
-1.74534
-1.76423
-1.72145
-1.6699
-1.57791
-1.50606
-1.3608
-1.20128
-0.946965
-0.635094
-0.235901
0.290742
0.595638
-0.0314361
-0.346057
-0.675616
-0.969446
-1.16237
-1.27388
-1.31519
-1.40766
-1.33195
-1.27817
-1.29769
-1.23433
-1.16552
-1.08361
-0.943308
-0.725851
-0.472508
-0.126847
0.192338
0.521672
-0.0441457
-0.27882
-0.539918
-0.684469
-0.768703
-0.859507
-0.914173
-0.923769
-0.907295
-0.931479
-0.909778
-0.834537
-0.877048
-0.716957
-0.639987
-0.479024
-0.341171
-0.125977
0.0853974
0.344266
0.00268756
-0.156624
-0.290455
-0.434945
-0.537014
-0.563667
-0.537554
-0.524765
-0.514538
-0.5696
-0.575729
-0.490782
-0.46012
-0.423333
-0.438655
-0.303
-0.176495
-0.0861316
0.0642356
0.249371
-0.0238156
-0.0807067
-0.112477
-0.135684
-0.148881
-0.218931
-0.236566
-0.164961
-0.14677
-0.175194
-0.0832083
-0.114124
-0.163857
-0.199394
-0.156944
-0.0973931
-0.0296306
-0.0436973
-0.0355661
0.0941524
1.04214
0.306447
-0.443029
-1.08931
-1.49899
-1.90332
-2.07231
-2.17966
-2.22178
-2.17513
-2.09328
-1.91833
-1.79166
-1.50591
-1.18137
-0.645071
-0.0656599
0.633632
1.44422
2.35611
0.894258
0.312685
-0.396712
-0.938674
-1.27201
-1.61131
-1.71832
-1.91612
-1.90377
-1.87913
-1.77684
-1.69833
-1.47699
-1.25544
-0.976561
-0.639918
-0.0421205
0.523359
1.31126
2.02561
0.741453
0.229097
-0.27014
-0.715308
-1.06513
-1.3085
-1.45505
-1.64391
-1.6273
-1.5904
-1.48471
-1.44763
-1.26608
-1.06466
-0.796161
-0.465169
-0.0748223
0.508784
1.06797
1.61565
0.632442
0.208363
-0.258962
-0.591347
-0.93936
-1.0505
-1.24961
-1.21524
-1.38647
-1.2157
-1.18135
-1.06404
-0.997204
-0.864726
-0.686025
-0.340511
0.00789532
0.411307
0.869665
1.35086
0.480078
0.189442
-0.190231
-0.441151
-0.69335
-0.904717
-0.933368
-0.960164
-1.03373
-0.950114
-0.888146
-0.839907
-0.734748
-0.669894
-0.501707
-0.318539
-0.00467942
0.251279
0.696415
1.06722
0.370309
0.182342
-0.0850025
-0.296882
-0.408277
-0.595362
-0.711259
-0.713069
-0.71673
-0.732506
-0.687721
-0.56124
-0.579272
-0.496643
-0.420451
-0.0870285
0.00939338
0.222283
0.60445
0.78781
0.127905
0.0627869
-0.084374
-0.177267
-0.246675
-0.328932
-0.384706
-0.424494
-0.414536
-0.363194
-0.445384
-0.384519
-0.374338
-0.278125
-0.24468
-0.12481
0.0198898
0.12569
0.309957
0.416569
0.118104
0.0359176
0.0261227
-0.0760496
-0.0734636
-0.101923
-0.137458
-0.137779
-0.159153
-0.103298
-0.111803
-0.138992
-0.0853799
-0.131107
-0.0593993
-0.0338593
-0.0311954
0.0160938
0.0807467
0.19129
2.56129
1.76132
0.881126
0.26759
-0.29914
-0.693456
-0.964627
-1.13737
-1.28652
-1.1617
-1.15568
-0.984451
-0.765724
-0.471432
0.0246062
0.543699
1.20302
1.95775
2.89958
3.76189
2.20108
1.55097
0.72235
0.281477
-0.227976
-0.491467
-0.815273
-0.918511
-1.03732
-0.970451
-0.930885
-0.739254
-0.628456
-0.247965
0.0252992
0.39237
1.08487
1.75598
2.5306
3.24521
1.87513
1.36964
0.798945
0.247775
-0.230196
-0.495311
-0.635851
-0.67523
-0.802211
-0.813029
-0.793008
-0.638246
-0.429353
-0.283843
0.0210713
0.424728
0.879296
1.46561
2.11691
2.65834
1.57957
1.03872
0.67649
0.188205
-0.109041
-0.358955
-0.489052
-0.619516
-0.709713
-0.668997
-0.550669
-0.496236
-0.372477
-0.206077
0.0704415
0.348852
0.778392
1.20835
1.74092
2.2544
1.22209
0.870457
0.51417
0.169471
-0.0922985
-0.300284
-0.351525
-0.509601
-0.526522
-0.432674
-0.495458
-0.378183
-0.283071
-0.163269
0.0904301
0.25667
0.585515
1.02641
1.36033
1.75702
0.813445
0.61697
0.305641
0.136463
-0.0620232
-0.227089
-0.336191
-0.407556
-0.342404
-0.33219
-0.296263
-0.269617
-0.180763
-0.141075
0.0552206
0.239458
0.379574
0.691344
1.01896
1.24404
0.513633
0.354723
0.255596
0.139948
0.0224531
-0.10955
-0.153183
-0.168509
-0.143277
-0.262197
-0.162513
-0.144979
-0.161038
-0.0884011
0.0662871
0.103361
0.193647
0.362197
0.609386
0.758302
0.197194
0.124566
0.0890479
0.006351
0.00466386
-0.0135275
-0.0898408
-0.0881951
-0.059173
-0.0747789
-0.0430957
-0.0289635
-0.103658
-0.0469917
-0.0111456
0.0973958
0.0460962
0.146039
0.203122
0.273581
4.29869
3.50343
2.61417
1.84609
1.23394
0.780784
0.440248
0.248739
0.174026
0.164238
0.27559
0.388682
0.645816
0.97379
1.52553
2.01118
2.7261
3.56029
4.54568
5.45876
3.76698
3.02131
2.29687
1.6662
1.19812
0.685743
0.417425
0.208611
0.0850882
0.140965
0.212994
0.380028
0.558743
0.822328
1.28474
1.70873
2.45112
3.14919
4.01336
4.67417
3.19364
2.54261
1.98686
1.41007
0.98709
0.587727
0.375532
0.212801
0.142699
0.124468
0.186769
0.346661
0.527705
0.740093
1.13023
1.56078
2.0196
2.70086
3.33423
3.91946
2.66197
2.1157
1.56536
1.11999
0.799705
0.475313
0.336203
0.209899
0.148408
0.136815
0.176121
0.293751
0.432119
0.682149
0.885104
1.17217
1.70347
2.18141
2.73522
3.27345
1.96728
1.60989
1.17273
0.934931
0.63443
0.42357
0.254984
0.250908
0.10587
0.11209
0.103117
0.224677
0.326964
0.454746
0.70612
0.983991
1.26745
1.71168
2.19146
2.52868
1.42354
1.21707
0.877331
0.614415
0.475547
0.284297
0.22938
0.104553
0.0354412
0.128465
0.128645
0.176888
0.282897
0.415311
0.523725
0.714962
0.889815
1.20187
1.53532
1.81359
0.856934
0.747193
0.452592
0.367877
0.275223
0.162663
0.140576
0.139159
0.0609893
0.0873743
0.0358918
0.0963442
0.180373
0.18183
0.355819
0.393804
0.546366
0.719497
0.941519
1.08651
0.260379
0.231958
0.174864
0.0969577
0.129521
-0.036383
0.0678219
0.0366835
0.0270075
0.0581486
0.100666
0.0634737
0.035578
0.0700768
0.138642
0.113357
0.265766
0.295703
0.289367
0.410169
6.31784
5.41444
4.47556
3.7668
3.08399
2.58164
2.14976
1.96908
1.80514
1.86848
1.78885
2.03894
2.26159
2.6968
3.2563
3.76995
4.53869
5.49006
6.50172
7.39724
5.44066
4.721
3.92892
3.25829
2.71951
2.19906
1.99974
1.72057
1.59041
1.53063
1.63805
1.73208
1.97785
2.33118
2.84659
3.29347
4.03405
4.76345
5.60346
6.42814
4.5492
4.00111
3.32491
2.77359
2.32212
1.891
1.67872
1.40944
1.43091
1.31806
1.40242
1.48207
1.72524
2.0561
2.34007
2.7982
3.37933
4.06757
4.77037
5.36238
3.7974
3.28637
2.79251
2.24439
1.82777
1.60825
1.39478
1.18744
1.13016
1.08072
1.21114
1.19457
1.37174
1.65731
1.91008
2.27621
2.77939
3.32262
3.90544
4.38676
2.96396
2.60476
2.17196
1.79046
1.52879
1.30821
1.02895
0.946068
0.926406
0.837127
0.841413
1.01601
1.07416
1.30794
1.53769
1.75548
2.14761
2.61049
2.95321
3.44526
2.09119
1.8738
1.54445
1.26831
1.09579
0.828381
0.709908
0.639692
0.661766
0.671927
0.676459
0.685761
0.777531
0.919059
1.0955
1.33053
1.48601
1.80195
2.2354
2.46024
1.31253
1.07698
0.911955
0.782625
0.614217
0.593982
0.454622
0.456123
0.37115
0.355818
0.393844
0.427586
0.509429
0.509513
0.651794
0.783769
0.920802
1.06154
1.24375
1.41132
0.402443
0.423899
0.228076
0.265951
0.141669
0.188001
0.20638
0.113476
0.0933823
0.114856
0.107235
0.123842
0.0661646
0.194575
0.205566
0.281509
0.32773
0.387926
0.481958
0.482772
8.57379
7.6388
6.73675
5.85195
5.17936
4.55734
4.07232
3.87556
3.72699
3.71565
3.73671
3.88481
4.26253
4.68347
5.14752
5.84426
6.68567
7.5863
8.64226
9.60805
7.41053
6.66879
5.82167
4.9896
4.46649
3.99135
3.57586
3.39137
3.28446
3.20379
3.22218
3.40475
3.64357
4.03488
4.50953
5.04503
5.7814
6.57151
7.49368
8.39863
6.24176
5.64509
4.88492
4.26295
3.77343
3.39804
3.11119
2.83944
2.67726
2.76014
2.74395
2.91196
3.14093
3.40811
3.84711
4.3791
4.93083
5.54893
6.38458
7.02035
5.14607
4.59657
4.0317
3.4799
3.14613
2.76808
2.50607
2.34922
2.24979
2.17511
2.32339
2.38477
2.60262
2.83642
3.13044
3.50965
4.04222
4.52969
5.13047
5.68625
4.03367
3.53869
3.162
2.82168
2.44416
2.1777
2.04513
1.84543
1.71238
1.72329
1.7521
1.81122
2.01683
2.20909
2.4117
2.75598
3.10767
3.57988
4.07957
4.3755
2.81669
2.5673
2.2573
1.9495
1.67719
1.54094
1.47518
1.28599
1.30423
1.28905
1.3102
1.26971
1.47053
1.53544
1.77333
1.89291
2.19439
2.51473
2.90084
3.21683
1.67311
1.46751
1.34882
1.22904
1.0233
0.95106
0.837712
0.805412
0.759096
0.749011
0.812951
0.75554
0.84792
0.938423
1.08495
1.14289
1.33765
1.49991
1.63635
1.95105
0.581169
0.456555
0.495657
0.39273
0.407366
0.275931
0.347725
0.26026
0.218948
0.320494
0.258265
0.211312
0.283642
0.292499
0.348286
0.420985
0.480214
0.498459
0.552928
0.634299
11.0142
10.0638
8.97808
8.13601
7.38187
6.77063
6.32983
6.06583
5.76808
5.76408
5.82048
6.06045
6.35114
6.83405
7.37758
8.05463
8.92316
9.94021
10.9221
12.0837
9.48904
8.69102
7.80251
6.99292
6.39502
5.91997
5.52424
5.22768
4.98117
5.06393
5.13137
5.2053
5.54709
5.87711
6.36442
6.93608
7.68604
8.62845
9.53269
10.3798
7.96141
7.34072
6.62965
6.05923
5.46861
4.95728
4.71566
4.39595
4.26392
4.2721
4.26619
4.46861
4.60886
4.96264
5.39064
5.90416
6.57763
7.31661
7.93472
8.67735
6.54322
5.91926
5.40287
4.82
4.42878
4.02927
3.85013
3.63993
3.47322
3.53396
3.49198
3.59374
3.81116
4.0713
4.41109
4.7305
5.32987
5.94501
6.51165
7.12832
5.04976
4.6162
4.22744
3.83376
3.43324
3.11574
2.91463
2.85995
2.65072
2.64383
2.70497
2.90511
2.98716
3.16973
3.4589
3.77686
4.17777
4.59551
5.05813
5.49457
3.6139
3.2829
2.96204
2.7431
2.47469
2.17175
2.12627
1.9826
1.94393
1.86973
1.94428
2.02628
2.09609
2.27281
2.39043
2.64192
3.01933
3.29363
3.60006
3.88648
2.08825
2.01457
1.75837
1.62298
1.44384
1.36918
1.27251
1.20994
1.11491
1.13636
1.17286
1.16456
1.29344
1.43166
1.41
1.56356
1.80644
2.00324
2.16271
2.36636
0.725604
0.668427
0.503415
0.566327
0.494837
0.444472
0.458498
0.415814
0.453177
0.379693
0.448936
0.419929
0.443231
0.509182
0.522241
0.50184
0.631484
0.593873
0.724627
0.770908
13.5498
12.4384
11.4654
10.4986
9.7063
9.04388
8.63818
8.27236
8.0873
7.98351
8.04759
8.28641
8.52983
9.04885
9.67024
10.3587
11.2172
12.2466
13.3778
14.3874
11.5607
10.7122
9.83171
9.02943
8.31038
7.86059
7.4211
7.03305
6.88933
6.84135
6.88678
7.08467
7.38273
7.78118
8.29551
8.85855
9.61876
10.5241
11.4811
12.4493
9.72833
9.01638
8.2972
7.60882
7.03886
6.53249
6.197
5.99987
5.79158
5.80466
5.85217
5.95066
6.16881
6.51098
7.00385
7.53116
8.17169
8.90343
9.66794
10.4549
7.92073
7.33916
6.65636
6.18803
5.69197
5.33151
5.03879
4.94288
4.70628
4.73152
4.72556
4.91281
5.0601
5.26624
5.63184
6.07729
6.64102
7.24919
7.91964
8.48412
6.14559
5.65715
5.22692
4.78352
4.43734
4.14191
3.92835
3.76228
3.61798
3.58898
3.67703
3.71505
3.87107
4.08175
4.33436
4.69573
5.15514
5.5728
6.14616
6.59108
4.31922
4.08991
3.69934
3.34255
3.12513
2.90795
2.73252
2.6258
2.63365
2.54418
2.5925
2.7244
2.73777
2.84903
3.17852
3.4369
3.76949
3.98982
4.32559
4.67619
2.61126
2.45083
2.25291
1.99255
1.9066
1.81629
1.641
1.59406
1.60843
1.55442
1.49073
1.62981
1.63782
1.7664
1.9138
2.03016
2.25
2.4217
2.56518
2.7763
0.818133
0.823177
0.693164
0.662342
0.579847
0.61279
0.538143
0.557801
0.514511
0.524746
0.52221
0.568062
0.530047
0.57459
0.580854
0.659927
0.750768
0.714671
0.88339
0.914039
15.4128
14.3842
13.3205
12.4034
11.6681
10.9196
10.4179
10.0013
9.76527
9.81934
9.82025
10.0586
10.3435
10.8177
11.4122
12.1967
13.1177
14.2009
15.2816
16.379
13.1175
12.3267
11.3737
10.6038
9.84317
9.30518
8.90563
8.55493
8.40024
8.32225
8.35072
8.58425
8.82928
9.23186
9.78349
10.4068
11.2261
12.0291
13.0656
13.9387
11.0104
10.2914
9.52424
8.81447
8.30986
7.79016
7.39382
7.12326
6.9972
6.9746
6.96639
7.10502
7.40226
7.70347
8.18115
8.71002
9.3707
10.0812
10.988
11.698
8.85429
8.32615
7.82565
7.16038
6.64701
6.26718
6.02916
5.7682
5.63489
5.6527
5.68916
5.75353
6.00021
6.21783
6.60288
7.01672
7.58184
8.22878
8.8739
9.439
6.91292
6.46422
5.94314
5.48998
5.16782
4.86842
4.68696
4.43905
4.38676
4.29283
4.3581
4.53283
4.56952
4.81916
5.14012
5.4353
5.89867
6.32497
6.89016
7.32541
4.83244
4.57031
4.20211
3.89695
3.66659
3.48636
3.30047
3.18784
3.09735
3.03046
3.07252
3.20872
3.29409
3.47992
3.65198
3.83561
4.15579
4.44247
4.92808
5.17161
2.89282
2.77596
2.57025
2.34361
2.14201
2.00637
1.97757
1.88397
1.79066
1.85841
1.86845
1.91113
1.95603
2.12096
2.15916
2.34289
2.47509
2.75431
2.91237
3.17368
0.960321
0.907364
0.856383
0.714467
0.735858
0.739243
0.680591
0.645951
0.56644
0.650087
0.604652
0.665586
0.678816
0.703757
0.728055
0.794134
0.859119
0.954626
0.966961
0.996629
)
;

boundaryField
{
    hotSide
    {
        type            calculated;
        value           nonuniform List<scalar> 
400
(
2.38092
1.56284
0.748521
-0.118443
-0.63957
-1.1342
-1.39974
-1.34866
-1.12567
-0.696191
0.104075
1.02911
2.26356
3.808
5.57369
7.62424
9.91478
12.3931
14.9698
16.8773
2.26931
1.48044
0.619229
-0.272164
-0.949004
-1.41304
-1.72576
-1.79723
-1.55038
-1.20427
-0.564747
0.37571
1.55684
3.03484
4.80318
6.74363
9.00074
11.4619
13.8761
15.8649
2.31465