/*--------------------------------*- C++ -*----------------------------------*\
| =========                 |                                                 |
| \\      /  F ield         | OpenFOAM: The Open Source CFD Toolbox           |
|  \\    /   O peration     | Version:  2212                                  |
|   \\  /    A nd           | Website:  www.openfoam.com                      |
|    \\/     M anipulation  |                                                 |
\*---------------------------------------------------------------------------*/
FoamFile
{
    version     2.0;
    format      ascii;
    arch        "LSB;label=32;scalar=64";
    class       volScalarField;
    location    "0";
    object      stateMean;
}
// * * * * * * * * * * * * * * * * * * * * * * * * * * * * * * * * * * * * * //

dimensions      [0 0 0 1 0 0 0];

internalField   nonuniform List<scalar> 
3200
(
345.487
346.422
347.418
348.303
349.125
349.73
350.197
350.454
350.734
350.767
350.695
350.361
349.885
349.46
348.87
348.028
347.105
346.01
344.984
343.914
339.517
340.337
341.162
341.885
342.541
343.085
343.567
343.867
344.015
344.029
344.03
343.722
343.39
342.92
342.345
341.691
340.807
339.869
339.016
338.113
333.508
334.14
334.918
335.49
336.078
336.531
336.917
337.122
337.226
337.287
337.206
337.058
336.807
336.363
335.885
335.309
334.573
333.874
333.055
332.338
327.448
328.068
328.541
329.108
329.499
329.912
330.292
330.4
330.536
330.579
330.499
330.299
330.102
329.812
329.328
328.924
328.409
327.677
327.018
326.508
321.415
321.77
322.141
322.671
323.037
323.238
323.531
323.674
323.715
323.785
323.812
323.68
323.4
323.225
322.936
322.523
322.085
321.592
321.055
320.614
315.346
315.56
315.908
316.215
316.487
316.65
316.84
316.946
316.969
317.043
316.941
316.84
316.838
316.603
316.35
316.067
315.832
315.408
315.086
314.774
309.18
309.386
309.507
309.723
309.917
310.048
310.106
310.14
310.222
310.234
310.225
310.12
310.117
309.929
309.883
309.68
309.477
309.307
309.048
308.851
303.091
303.167
303.155
303.269
303.268
303.288
303.363
303.298
303.454
303.428
303.385
303.389
303.339
303.306
303.24
303.232
303.143
303.089
303.004
302.974
346.447
347.347
348.357
349.22
350.054
350.729
351.185
351.585
351.782
351.744
351.628
351.431
350.954
350.443
349.822
348.984
348.008
346.956
345.83
344.799
340.297
340.988
341.921
342.738
343.393
343.914
344.37
344.745
344.822
344.856
344.783
344.547
344.171
343.716
343.172
342.481
341.593
340.689
339.757
338.895
334.125
334.714
335.428
336.121
336.713
337.209
337.55
337.755
337.909
338.006
337.97
337.675
337.354
336.98
336.55
335.921
335.248
334.457
333.695
332.923
327.889
328.456
329.059
329.511
330.052
330.492
330.733
330.909
331.054
331.044
330.983
330.844
330.611
330.25
329.841
329.437
328.865
328.204
327.511
327.021
321.763
322.172
322.589
323.032
323.368
323.626
323.903
324.058
324.137
324.168
324.186
324.061
323.806
323.562
323.293
322.935
322.432
321.973
321.386
321.027
315.532
315.845
316.17
316.442
316.736
316.893
317.101
317.223
317.248
317.252
317.316
317.189
317.027
316.868
316.657
316.391
316.045
315.74
315.356
314.975
309.353
309.452
309.722
309.82
310.014
310.147
310.227
310.292
310.377
310.384
310.34
310.332
310.222
310.127
310.042
309.849
309.654
309.451
309.241
308.994
303.059
303.256
303.251
303.306
303.334
303.418
303.448
303.409
303.497
303.475
303.513
303.44
303.461
303.364
303.337
303.214
303.219
303.132
303.076
303.027
347.549
348.482
349.488
350.518
351.29
351.965
352.434
352.874
352.999
353.099
352.986
352.711
352.358
351.82
351.08
350.261
349.256
348.163
347.038
346.041
341.166
342.084
342.961
343.776
344.424
344.974
345.463
345.784
345.925
345.922
345.876
345.66
345.284
344.84
344.222
343.556
342.711
341.729
340.751
339.932
334.93
335.525
336.304
337.022
337.595
338.151
338.464
338.716
338.852
338.847
338.83
338.644
338.366
337.922
337.442
336.801
336.118
335.381
334.466
333.786
328.526
329.12
329.687
330.258
330.725
331.163
331.417
331.645
331.795
331.788
331.794
331.709
331.336
331
330.593
330.122
329.585
328.855
328.225
327.695
322.239
322.587
323.103
323.537
323.895
324.24
324.518
324.64
324.745
324.792
324.719
324.6
324.374
324.137
323.803
323.402
323.052
322.464
321.944
321.485
315.935
316.223
316.518
316.837
317.079
317.311
317.52
317.604
317.692
317.738
317.666
317.538
317.402
317.276
317.054
316.806
316.435
316.067
315.713
315.409
309.532
309.748
309.94
310.171
310.304
310.337
310.488
310.594
310.661
310.536
310.683
310.572
310.504
310.352
310.194
310.043
309.823
309.706
309.407
309.248
303.173
303.264
303.407
303.3
303.446
303.423
303.513
303.56
303.53
303.536
303.602
303.546
303.579
303.389
303.43
303.358
303.246
303.183
303.188
303.136
348.847
349.786
350.785
351.745
352.66
353.33
353.882
354.201
354.452
354.456
354.389
354.124
353.731
353.147
352.451
351.591
350.562
349.488
348.327
347.209
342.249
343.093
343.962
344.861
345.62
346.133
346.621
346.941
347.144
347.151
347.163
346.871
346.519
346.06
345.407
344.667
343.863
342.873
341.833
340.999
335.791
336.464
337.284
337.926
338.576
339.013
339.465
339.7
339.838
339.929
339.891
339.644
339.327
338.921
338.384
337.813
337.059
336.206
335.376
334.685
329.378
329.805
330.448
331.03
331.56
331.93
332.296
332.449
332.618
332.65
332.592
332.447
332.146
331.863
331.397
330.941
330.302
329.637
328.895
328.394
322.783
323.159
323.724
324.193
324.591
324.852
325.125
325.331
325.4
325.388
325.401
325.163
325.076
324.728
324.48
323.994
323.581
323.067
322.454
322.111
316.273
316.581
316.907
317.292
317.508
317.763
317.945
318.002
318.094
318.122
318.127
318.094
317.891
317.711
317.434
317.233
316.839
316.518
316.093
315.809
309.732
309.937
310.156
310.318
310.531
310.697
310.8
310.787
310.922
310.922
310.832
310.853
310.73
310.621
310.512
310.355
310.105
309.899
309.67
309.455
303.277
303.303
303.443
303.431
303.545
303.627
303.623
303.631
303.614
303.72
303.646
303.632
303.58
303.582
303.52
303.459
303.387
303.296
303.336
303.175
349.948
351.02
352.106
353.055
353.96
354.686
355.202
355.573
355.855
355.945
355.779
355.457
355.105
354.49
353.818
352.891
351.868
350.739
349.611
348.439
343.362
344.121
345.109
345.99
346.669
347.373
347.78
348.165
348.406
348.333
348.352
348.058
347.695
347.19
346.615
345.728
344.957
344.014
343.001
342.047
336.642
337.345
338.168
338.853
339.481
340.053
340.4
340.714
340.891
340.976
340.911
340.606
340.325
339.901
339.411
338.714
338.035
337.159
336.269
335.559
329.994
330.573
331.209
331.826
332.312
332.748
333.026
333.265
333.41
333.489
333.344
333.305
332.959
332.727
332.214
331.705
331.087
330.422
329.757
329.052
323.338
323.751
324.293
324.73
325.136
325.464
325.791
325.919
326.011
326.05
325.932
325.859
325.629
325.452
325.137
324.618
324.133
323.624
323.096
322.627
316.639
317.013
317.327
317.644
317.982
318.22
318.312
318.507
318.569
318.571
318.587
318.495
318.329
318.205
317.915
317.608
317.302
316.898
316.458
316.151
310.025
310.172
310.371
310.59
310.806
310.994
311.061
311.046
311.16
311.157
311.153
311.11
310.943
310.903
310.785
310.621
310.328
310.17
309.926
309.715
303.409
303.419
303.499
303.546
303.614
303.67
303.71
303.692
303.701
303.709
303.731
303.684
303.723
303.674
303.655
303.549
303.48
303.359
303.334
303.323
351.174
352.186
353.296
354.333
355.244
355.963
356.45
356.978
357.127
357.236
357.138
356.817
356.449
355.853
355.146
354.195
353.207
352.03
350.866
349.649
344.393
345.209
346.193
347.04
347.786
348.5
348.952
349.348
349.542
349.56
349.509
349.247
348.885
348.398
347.755
346.957
346.11
345.03
343.999
343.054
337.558
338.203
339.005
339.786
340.508
340.984
341.439
341.661
341.872
341.97
341.847
341.662
341.338
340.976
340.38
339.771
338.963
338.14
337.19
336.454
330.731
331.283
331.919
332.584
333.113
333.474
333.907
334.166
334.256
334.289
334.244
334.065
333.832
333.496
332.935
332.473
331.899
331.157
330.456
329.79
323.845
324.361
324.841
325.331
325.735
326.124
326.402
326.521
326.617
326.699
326.607
326.509
326.264
325.986
325.666
325.195
324.763
324.249
323.621
323.248
317.037
317.42
317.748
318.075
318.359
318.589
318.855
318.961
318.981
319.091
319.031
318.939
318.806
318.54
318.339
318.107
317.71
317.265
316.879
316.645
310.319
310.41
310.653
310.833
311
311.174
311.354
311.406
311.431
311.424
311.405
311.339
311.305
311.139
311.051
310.794
310.663
310.404
310.168
309.973
303.418
303.578
303.556
303.595
303.594
303.724
303.786
303.769
303.837
303.838
303.874
303.772
303.818
303.703
303.755
303.616
303.537
303.512
303.468
303.322
352.325
353.352
354.486
355.502
356.465
357.195
357.824
358.265
358.443
358.522
358.436
358.169
357.791
357.173
356.407
355.561
354.416
353.248
351.949
350.842
345.328
346.134
347.192
347.994
348.932
349.557
350.132
350.433
350.615
350.657
350.603
350.404
350.008
349.513
348.857
348.06
347.19
346.15
344.994
344.015
338.344
339.098
339.955
340.637
341.405
341.923
342.332
342.534
342.845
342.9
342.803
342.591
342.351
341.833
341.269
340.629
339.855
338.933
338.083
337.311
331.335
331.987
332.713
333.227
333.837
334.235
334.607
334.877
335.037
335.095
334.984
334.817
334.612
334.241
333.697
333.183
332.596
331.9
331.128
330.521
324.408
324.84
325.378
325.848
326.288
326.685
326.906
327.11
327.186
327.258
327.237
327.085
326.959
326.617
326.269
325.908
325.366
324.855
324.195
323.698
317.444
317.812
318.118
318.5
318.854
319.051
319.255
319.362
319.435
319.468
319.448
319.368
319.189
318.986
318.719
318.474
318.12
317.653
317.266
317.011
310.432
310.689
310.914
311.15
311.244
311.421
311.62
311.632
311.638
311.743
311.713
311.669
311.534
311.431
311.279
311.09
310.892
310.638
310.414
310.209
303.534
303.594
303.692
303.747
303.768
303.801
303.824
303.93
303.857
303.863
303.93
303.93
303.811
303.819
303.802
303.648
303.626
303.546
303.5
303.386
353.317
354.432
355.596
356.627
357.595
358.405
358.973
359.46
359.711
359.788
359.657
359.445
358.99
358.417
357.61
356.577
355.621
354.359
353.079
351.852
346.244
347.116
348.144
349.063
349.911
350.597
351.094
351.513
351.75
351.798
351.647
351.449
351.083
350.449
349.907
349.04
348.172
347.145
346.005
345.033
339.075
339.876
340.675
341.519
342.157
342.745
343.207
343.575
343.645
343.711
343.675
343.513
343.198
342.791
342.219
341.482
340.627
339.76
338.873
338.075
332.041
332.578
333.348
333.914
334.497
334.98
335.287
335.602
335.721
335.773
335.72
335.612
335.368
334.998
334.477
333.896
333.276
332.545
331.844
331.186
324.951
325.364
325.93
326.376
326.813
327.212
327.458
327.667
327.816
327.782
327.758
327.633
327.473
327.215
326.889
326.439
325.879
325.364
324.766
324.255
317.822
318.113
318.515
318.914
319.178
319.385
319.569
319.774
319.813
319.866
319.876
319.761
319.619
319.393
319.113
318.783
318.45
318.151
317.685
317.365
310.729
310.909
311.092
311.256
311.461
311.691
311.804
311.889
311.928
311.95
311.881
311.824
311.846
311.642
311.473
311.328
311.146
310.873
310.568
310.433
303.585
303.639
303.733
303.743
303.87
303.97
304.001
303.981
303.987
304.039
304.045
303.937
303.963
303.874
303.83
303.842
303.753
303.686
303.508
303.495
354.299
355.352
356.647
357.689
358.781
359.584
360.167
360.646
360.81
360.856
360.832
360.585
360.114
359.489
358.68
357.687
356.614
355.418
354.077
352.903
347.06
347.987
349.001
350.037
350.882
351.455
352.07
352.394
352.638
352.749
352.705
352.404
352.065
351.475
350.873
350.045
349.064
347.99
346.801
345.873
339.88
340.661
341.496
342.264
343.01
343.515
344.051
344.323
344.521
344.59
344.573
344.377
343.988
343.531
343.046
342.311
341.533
340.579
339.616
338.796
332.59
333.24
333.923
334.566
335.154
335.608
336.033
336.302
336.402
336.496
336.457
336.294
336.033
335.641
335.165
334.576
333.918
333.161
332.349
331.731
325.339
325.856
326.361
326.894
327.371
327.754
327.931
328.215
328.382
328.32
328.38
328.124
328.036
327.667
327.361
326.879
326.395
325.859
325.142
324.679
318.109
318.455
318.842
319.186
319.502
319.762
320.002
320.229
320.217
320.304
320.261
320.109
319.969
319.778
319.592
319.225
318.822
318.433
318.008
317.634
310.943
311.107
311.313
311.51
311.651
311.898
312.026
312.07
312.138
312.196
312.196
312.123
311.975
311.842
311.766
311.445
311.316
311.065
310.797
310.574
303.646
303.759
303.763
303.889
303.92
303.962
303.97
304.047
304.129
304.112
304.075
304.01
304.042
303.97
303.963
303.874
303.859
303.755
303.558
303.499
355.239
356.339
357.553
358.751
359.744
360.48
361.082
361.582
361.925
361.976
361.81
361.658
361.099
360.503
359.668
358.795
357.672
356.371
355.034
353.856
347.851
348.837
349.903
350.858
351.678
352.381
352.98
353.371
353.611
353.657
353.622
353.359
352.959
352.462
351.757
350.926
349.987
348.882
347.713
346.681
340.489
341.237
342.119
342.973
343.66
344.305
344.786
345.059
345.301
345.36
345.353
345.132
344.756
344.394
343.705
343.029
342.264
341.284
340.381
339.444
333.191
333.809
334.505
335.116
335.713
336.178
336.676
336.932
337.042
337.129
337.106
336.873
336.606
336.322
335.837
335.212
334.572
333.831
333.057
332.371
325.795
326.248
326.793
327.245
327.855
328.165
328.441
328.705
328.853
328.885
328.844
328.67
328.469
328.223
327.829
327.299
326.853
326.311
325.658
325.173
318.369
318.782
319.15
319.501
319.939
320.141
320.369
320.566
320.609
320.63
320.574
320.483
320.304
320.167
319.893
319.614
319.217
318.766
318.29
317.969
311.104
311.243
311.512
311.82
311.943
312.118
312.246
312.379
312.405
312.34
312.315
312.299
312.23
312.089
312.059
311.78
311.57
311.325
311.042
310.824
303.77
303.815
303.778
303.916
304.046
304.053
304.093
304.135
304.253
304.1
304.146
304.162
304.137
304.087
303.977
303.974
303.89
303.823
303.7
303.56
355.979
357.201
358.473
359.574
360.574
361.494
362.078
362.574
362.835
362.897
362.886
362.576
362.088
361.525
360.705
359.673
358.587
357.278
355.866
354.681
348.6
349.532
350.664
351.684
352.454
353.178
353.805
354.148
354.542
354.509
354.36
354.173
353.777
353.255
352.55
351.752
350.673
349.607
348.399
347.455
341.03
341.85
342.804
343.661
344.381
344.951
345.475
345.789
346.053
346.155
346.009
345.804
345.509
345.116
344.458
343.754
342.924
341.935
341.045
340.176
333.629
334.226
335.087
335.723
336.317
336.8
337.18
337.48
337.684
337.712
337.707
337.444
337.192
336.809
336.376
335.773
335.108
334.335
333.534
332.818
326.215
326.673
327.212
327.747
328.22
328.633
328.916
329.089
329.216
329.292
329.289
329.163
328.859
328.594
328.359
327.811
327.294
326.713
326.105
325.553
318.665
319.045
319.482
319.82
320.196
320.437
320.708
320.779
320.906
320.904
320.878
320.758
320.64
320.478
320.161
319.853
319.516
319.073
318.623
318.245
311.207
311.465
311.646
311.854
312.117
312.29
312.485
312.459
312.591
312.609
312.579
312.52
312.434
312.261
312.045
311.945
311.705
311.464
311.227
310.975
303.758
303.849
303.934
304.048
304.022
304.132
304.164
304.169
304.263
304.233
304.201
304.153
304.155
304.109
304.084
304.028
303.866
303.837
303.719
303.654
356.767
357.935
359.187
360.459
361.391
362.309
362.908
363.391
363.746
363.851
363.723
363.517
362.983
362.37
361.562
360.594
359.417
358.126
356.716
355.459
349.22
350.186
351.312
352.334
353.165
353.878
354.553
354.863
355.188
355.237
355.288
354.982
354.535
354.015
353.321
352.375
351.498
350.35
349.119
348.065
341.616
342.426
343.363
344.288
344.952
345.611
346.05
346.416
346.668
346.775
346.681
346.492
346.127
345.674
345.099
344.321
343.47
342.561
341.568
340.706
334.092
334.711
335.429
336.185
336.79
337.276
337.704
337.99
338.189
338.239
338.188
338.003
337.751
337.352
336.882
336.278
335.595
334.822
333.941
333.363
326.448
326.973
327.577
328.162
328.643
329.027
329.31
329.6
329.664
329.682
329.702
329.566
329.358
329.079
328.696
328.207
327.666
327.028
326.435
325.895
318.921
319.305
319.761
320.114
320.405
320.69
320.917
321.068
321.15
321.226
321.205
321.078
321.021
320.72
320.47
320.115
319.771
319.347
318.941
318.533
311.336
311.584
311.835
312.105
312.33
312.474
312.552
312.623
312.673
312.76
312.766
312.649
312.558
312.437
312.349
312.096
311.846
311.631
311.363
311.09
303.825
303.911
303.982
304.048
304.102
304.211
304.264
304.22
304.222
304.261
304.169
304.189
304.219
304.226
304.149
304.05
303.942
303.914
303.866
303.707
357.42
358.604
359.905
361.125
362.1
363.033
363.671
364.159
364.471
364.564
364.482
364.167
363.771
363.105
362.311
361.246
360.102
358.828
357.466
356.106
349.767
350.728
351.914
352.953
353.776
354.574
355.086
355.614
355.836
355.932
355.83
355.63
355.175
354.623
353.94
353.144
352.056
350.994
349.73
348.635
342.124
342.951
343.851
344.717
345.481
346.112
346.603
347.071
347.251
347.317
347.212
347.072
346.693
346.213
345.6
344.881
344.077
343.072
342.112
341.249
334.44
335.118
335.912
336.588
337.275
337.705
338.185
338.378
338.711
338.624
338.589
338.389
338.16
337.8
337.34
336.677
335.989
335.242
334.456
333.721
326.803
327.288
327.921
328.439
328.955
329.414
329.661
329.866
330.065
330.046
329.984
329.871
329.641
329.398
329.011
328.581
328.003
327.48
326.781
326.216
319.125
319.451
319.899
320.302
320.601
320.965
321.237
321.366
321.46
321.523
321.478
321.304
321.232
321.023
320.79
320.28
319.996
319.592
319.029
318.707
311.582
311.729
311.984
312.192
312.375
312.563
312.713
312.828
312.873
312.849
312.931
312.843
312.778
312.606
312.479
312.253
311.995
311.774
311.482
311.293
303.807
303.917
303.963
304.103
304.138
304.203
304.269
304.296
304.335
304.288
304.297
304.315
304.243
304.263
304.16
304.099
304.058
303.973
303.872
303.734
357.939
359.154
360.541
361.681
362.762
363.635
364.329
364.843
365.235
365.234
365.228
364.932
364.472
363.835
362.917
361.919
360.746
359.464
358.015
356.738
350.223
351.224
352.491
353.388
354.343
355.022
355.712
356.112
356.439
356.48
356.441
356.141
355.821
355.145
354.506
353.723
352.584
351.457
350.244
349.179
342.479
343.275
344.215
345.152
346.007
346.624
347.075
347.365
347.669
347.771
347.751
347.505
347.119
346.723
346.108
345.352
344.521
343.548
342.528
341.696
334.709
335.484
336.148
336.952
337.558
338.096
338.479
338.815
339.05
339.084
338.966
338.836
338.567
338.196
337.667
337.1
336.362
335.616
334.782
334.035
327.006
327.538
328.127
328.718
329.219
329.651
329.9
330.218
330.347
330.312
330.374
330.198
329.991
329.711
329.261
328.87
328.301
327.615
327.048
326.471
319.357
319.681
320.158
320.503
320.873
321.198
321.448
321.634
321.649
321.68
321.644
321.577
321.407
321.253
320.916
320.572
320.259
319.773
319.279
318.926
311.601
311.836
312.035
312.256
312.477
312.705
312.833
312.917
312.94
313.084
312.985
312.942
312.909
312.768
312.529
312.396
312.202
311.929
311.582
311.357
303.864
303.961
304.031
304.149
304.185
304.236
304.34
304.361
304.348
304.373
304.341
304.318
304.377
304.297
304.233
304.093
304.109
303.974
303.883
303.787
358.411
359.59
360.945
362.193
363.272
364.159
364.879
365.377
365.667
365.788
365.676
365.452
364.98
364.345
363.414
362.495
361.313
359.999
358.547
357.251
350.568
351.638
352.764
353.811
354.685
355.572
356.17
356.644
356.955
356.995
356.923
356.66
356.294
355.765
354.973
354.174
353.026
351.912
350.646
349.661
342.774
343.694
344.589
345.518
346.284
347.001
347.491
347.879
348.107
348.208
348.145
347.903
347.564
347.127
346.459
345.71
344.908
343.875
342.903
342.049
334.946
335.708
336.535
337.268
337.869
338.454
338.821
339.131
339.323
339.4
339.361
339.177
338.909
338.475
338.044
337.497
336.685
335.919
335.089
334.335
327.286
327.808
328.46
328.922
329.441
329.854
330.2
330.347
330.593
330.639
330.648
330.474
330.271
330
329.572
329.091
328.59
327.921
327.227
326.724
319.478
319.802
320.295
320.718
321.012
321.349
321.531
321.757
321.899
321.843
321.842
321.757
321.579
321.345
321.109
320.773
320.442
319.97
319.484
319.088
311.697
311.877
312.263
312.444
312.63
312.829
312.928
312.991
313.112
313.109
313.16
313.077
312.95
312.887
312.636
312.511
312.266
311.997
311.682
311.467
303.948
303.999
304.087
304.197
304.196
304.391
304.312
304.364
304.389
304.365
304.322
304.353
304.365
304.31
304.216
304.213
304.028
303.966
303.942
303.798
358.765
360.021
361.386
362.533
363.64
364.533
365.306
365.761
366.117
366.153
366.232
365.883
365.468
364.759
363.859
362.954
361.761
360.372
358.933
357.686
350.945
351.963
353.123
354.174
355.079
355.939
356.434
356.951
357.249
357.394
357.287
357.107
356.694
356.103
355.291
354.506
353.398
352.289
351.081
349.958
343.15
343.945
344.931
345.804
346.567
347.285
347.747
348.218
348.338
348.523
348.439
348.287
347.902
347.37
346.836
346.091
345.199
344.188
343.176
342.337
335.224
335.933
336.68
337.491
338.162
338.617
339.035
339.408
339.58
339.689
339.559
339.515
339.223
338.773
338.315
337.714
336.956
336.15
335.314
334.634
327.386
327.897
328.527
329.113
329.572
329.976
330.415
330.626
330.736
330.871
330.867
330.646
330.498
330.136
329.746
329.346
328.755
328.089
327.549
326.905
319.594
319.919
320.389
320.811
321.124
321.523
321.755
321.917
321.959
321.982
321.978
321.935
321.779
321.546
321.255
320.889
320.593
320.131
319.558
319.225
311.711
312.011
312.26
312.477
312.731
312.83
313.037
313.091
313.215
313.25
313.212
313.158
313.038
312.982
312.772
312.561
312.339
312.11
311.844
311.613
303.963
303.963
304.187
304.179
304.331
304.311
304.316
304.428
304.461
304.445
304.453
304.43
304.475
304.327
304.293
304.191
304.117
304.027
303.905
303.882
359.021
360.279
361.572
362.856
363.913
364.888
365.679
366.121
366.441
366.541
366.52
366.283
365.734
365.068
364.297
363.248
362.022
360.723
359.276
357.987
351.141
352.157
353.341
354.519
355.376
356.158
356.838
357.236
357.492
357.649
357.631
357.371
356.983
356.379
355.639
354.797
353.728
352.591
351.332
350.153
343.282
344.106
345.151
346.065
346.838
347.472
347.984
348.436
348.724
348.706
348.722
348.489
348.134
347.687
347.023
346.232
345.397
344.487
343.366
342.504
335.363
336.095
336.892
337.683
338.248
338.838
339.285
339.589
339.791
339.919
339.771
339.656
339.335
338.955
338.476
337.884
337.121
336.394
335.562
334.823
327.47
328.105
328.662
329.189
329.746
330.178
330.454
330.769
330.982
331.013
330.984
330.883
330.597
330.29
329.944
329.434
328.903
328.244
327.564
327.129
319.691
320.04
320.478
320.919
321.32
321.574
321.743
322.014
322.053
322.098
322.077
322.087
321.829
321.683
321.342
321.104
320.674
320.22
319.706
319.291
311.844
312.109
312.305
312.505
312.788
312.931
313.105
313.188
313.268
313.296
313.232
313.271
313.145
313.005
312.797
312.668
312.396
312.154
311.941
311.566
303.95
304.094
304.08
304.21
304.222
304.377
304.325
304.43
304.483
304.388
304.45
304.491
304.406
304.381
304.305
304.208
304.123
304.078
303.998
303.897
359.166
360.414
361.858
363.064
364.167
365.097
365.813
366.298
366.749
366.832
366.776
366.457
366.013
365.309
364.49
363.494
362.277
360.896
359.556
358.096
351.283
352.333
353.53
354.656
355.557
356.309
356.944
357.431
357.812
357.797
357.73
357.588
357.112
356.591
355.865
355.016
353.963
352.705
351.491
350.392
343.426
344.255
345.227
346.065
346.912
347.658
348.102
348.584
348.829
348.879
348.885
348.624
348.371
347.855
347.224
346.477
345.546
344.54
343.661
342.71
335.479
336.271
337
337.802
338.403
338.995
339.341
339.683
339.943
339.929
339.971
339.822
339.512
339.12
338.613
338.102
337.292
336.458
335.678
334.894
327.624
328.187
328.742
329.305
329.869
330.336
330.667
330.825
331.106
331.15
331.089
330.852
330.698
330.412
329.993
329.525
328.961
328.373
327.745
327.179
319.726
320.148
320.587
320.928
321.313
321.723
321.862
322.078
322.169
322.27
322.196
322.087
321.965
321.715
321.505
321.146
320.652
320.255
319.831
319.454
311.928
312.055
312.383
312.591
312.84
312.98
313.131
313.239
313.365
313.36
313.323
313.315
313.156
312.972
312.939
312.72
312.408
312.138
311.907
311.65
303.972
304.048
304.237
304.198
304.293
304.365
304.37
304.427
304.4
304.478
304.409
304.433
304.4
304.319
304.287
304.286
304.133
304.146
303.991
303.927
359.123
360.511
361.814
363.114
364.226
365.179
365.835
366.401
366.724
366.899
366.835
366.525
366.143
365.424
364.553
363.573
362.396
361.032
359.571
358.286
351.326
352.408
353.574
354.667
355.663
356.365
357.023
357.584
357.849
357.958
357.912
357.653
357.234
356.663
355.93
355.114
354.077
352.882
351.639
350.438
343.414
344.32
345.28
346.214
347.019
347.741
348.261
348.605
348.915
348.955
348.908
348.756
348.436
347.947
347.269
346.527
345.651
344.674
343.668
342.687
335.514
336.252
337.132
337.801
338.49
339.026
339.471
339.687
340.008
340.025
340.031
339.801
339.57
339.244
338.726
338.105
337.348
336.539
335.671
334.951
327.613
328.221
328.804
329.404
329.902
330.334
330.666
330.926
331.135
331.198
331.11
331.038
330.817
330.512
330.142
329.643
329.033
328.458
327.732
327.168
319.788
320.102
320.602
321.07
321.396
321.711
321.971
322.145
322.184
322.298
322.249
322.094
322.033
321.855
321.44
321.084
320.644
320.311
319.866
319.431
311.862
312.073
312.336
312.664
312.815
312.965
313.19
313.278
313.292
313.361
313.424
313.27
313.234
313.065
312.867
312.692
312.407
312.167
311.959
311.697
304.032
304.044
304.196
304.25
304.354
304.34
304.432
304.426
304.478
304.473
304.476
304.425
304.454
304.395
304.372
304.274
304.161
304.174
303.984
303.936
359.221
360.509
361.883
363.114
364.148
365.167
365.902
366.504
366.868
366.88
366.879
366.574
366.162
365.502
364.675
363.619
362.399
361.002
359.611
358.255
351.37
352.379
353.602
354.645
355.666
356.441
357.043
357.555
357.823
357.958
357.929
357.639
357.281
356.717
355.963
355.102
354.023
352.947
351.64
350.548
343.419
344.321
345.316
346.258
346.984
347.705
348.274
348.682
348.904
348.975
348.984
348.796
348.403
347.965
347.314
346.584
345.701
344.759
343.624
342.731
335.591
336.267
336.953
337.81
338.505
339.05
339.43
339.804
340.016
340.038
340.002
339.897
339.572
339.241
338.714
338.135
337.388
336.55
335.719
335.006
327.606
328.169
328.835
329.437
329.901
330.33
330.622
330.958
331.071
331.197
331.132
330.925
330.827
330.49
330.058
329.634
329.028
328.453
327.743
327.194
319.806
320.148
320.62
321.031
321.363
321.637
321.902
322.077
322.212
322.302
322.259
322.1
321.971
321.722
321.471
321.194
320.772
320.38
319.79
319.466
311.894
312.059
312.327
312.617
312.881
313.072
313.148
313.28
313.4
313.346
313.336
313.28
313.208
313.005
312.919
312.68
312.486
312.143
311.923
311.613
303.995
304.064
304.136
304.299
304.298
304.313
304.387
304.435
304.524
304.445
304.49
304.424
304.402
304.364
304.324
304.24
304.154
304.037
304.004
303.958
)
;

boundaryField
{
    hotSide
    {
        type            fixedGradient;
        gradient        nonuniform List<scalar> 
400
(
321.511
322.87
325.591
329.677
335.133
341.965
350.181
359.788
370.794
383.208
397.037
412.289
428.971
447.088
466.647
487.651
510.105
534.011
559.372
586.191
323.738
325.08
327.767
331.802
337.194
343.949
352.078
361.591
372.498
384.81
398.537
413.687
430.268
448.289
467.755
488.672
511.043
534.872
560.161
586.913
326.149
327.47
330.116
334.091
339.406
346.071
354.099
363.503
374.296
386.491
400.101
415.136
431.606
449.52
468.885
489.706
511.988
535.735
560.948
587.63
328.704
330
332.597
336.503
341.73
348.292
356.205
365.485
376.15
388.215
401.695
416.604
432.954
450.753
470.009
490.73
512.919
536.579
561.714
588.325
331.33
332.599
335.142
338.97
344.099
350.546
358.332
367.477
378.003
389.928
403.271
418.047
434.27
451.949
471.095
491.712
513.807
537.382
562.439
588.978
333.918
335.158
337.643
341.389
346.414
352.74
360.392
369.397
379.779
391.562
404.765
419.407
435.503
453.065
472.101
492.618
514.622
538.114
563.096
589.569
336.321
337.531
339.959
343.622
348.544
354.751
362.274
371.142
381.385
393.031
406.101
420.618
436.595
454.047
472.983
493.409
515.33
538.747
563.663
590.076
338.36
339.543
341.92
345.509
350.339
356.44
363.847
372.595
382.718
394.244
407.2
421.608
437.485
454.844
473.695
494.045
515.897
539.253
564.114
590.478
339.852
341.015
343.352
346.885
351.645
357.665
364.985
373.643
383.675
395.113
407.984
422.312
438.116
455.407
474.197
494.491
516.294
539.606
564.428
590.758
340.643
341.795
344.11
347.613
352.334
358.311
365.584
374.193
384.176
395.567
408.393
422.679
438.443
455.699
474.456
494.722
516.498
539.788
564.589
590.901
340.643
341.795
344.11
347.613
352.334
358.311
365.584
374.193
384.176
395.567
408.393
422.679
438.443
455.699
474.456
494.722
516.498
539.788
564.589
590.901
339.852
341.015
343.352
346.885
351.645
357.665
364.985
373.643
383.675
395.113
407.984
422.312
438.116
455.407
474.197
494.491
516.294
539.606
564.428
590.758
338.36
339.543
341.92
345.509
350.339
356.44
363.847
372.595
382.718
394.244
407.2
421.608
437.485
454.844
473.695
494.045
515.897
539.253
564.114
590.478
336.321
337.531
339.959
343.622
348.544
354.751
362.274
371.142
381.385
393.031
406.101
420.618
436.595
454.047
472.983
493.409
515.33
538.747
563.663
590.076
333.918
335.158
337.643
341.389
346.414
352.74
360.392
369.397
379.779
391.562
404.765
419.407
435.503
453.065
472.101
492.618
514.622
538.114
563.096
589.569
331.33
332.599
335.142
338.97
344.099
350.546
358.332
367.477
378.003
389.928
403.271
418.047
434.27
451.949
471.095
491.712
513.807
537.382
562.439
588.978
328.704
330
332.597
336.503
341.73
348.292
356.205
365.485
376.15
388.215
401.695
416.604
432.954
450.753
470.009
490.73
512.919
536.579
561.714
588.325
326.149
327.47
330.116
334.091
339.406
346.071
354.099
363.503
374.296
386.491
400.101
415.136
431.606
449.52
468.885
489.706
511.988
535.735
560.948
587.63
323.738
325.08
327.767
331.802
337.194
343.949
352.078
361.591
372.498
384.81
398.537
413.687
430.268
448.289
467.755
488.672
511.043
534.872
560.161
586.913
321.511
322.87
325.591
329.677
335.133
341.965
350.181
359.788
370.794
383.208
397.037
412.289
428.971
447.088
466.647
487.651
510.105
534.011
559.372
586.191
)
;
    }
    coldSide
    {
        type            mixed;
        refValue        uniform 300;
        refGradient     uniform 0;
        valueFraction   uniform 0.991591;
        source          uniform 0;
        value           nonuniform List<scalar> 
400
(
300.026
300.026
300.027
300.028
300.029
300.029
300.03
300.03
300.031
300.032
300.032
300.032
300.032
300.032
300.033
300.033
300.033
300.033
300.034
300.034
300.027
300.027
300.027
300.028
300.029
300.03
300.03
300.031
300.032
300.032
300.032
300.033
300.033
300.033
300.034
300.033
300.034
300.034