/*--------------------------------*- C++ -*----------------------------------*\
| =========                 |                                                 |
| \\      /  F ield         | OpenFOAM: The Open Source CFD Toolbox           |
|  \\    /   O peration     | Version:  2212                                  |
|   \\  /    A nd           | Website:  www.openfoam.com                      |
|    \\/     M anipulation  |                                                 |
\*---------------------------------------------------------------------------*/
FoamFile
{
    version     2.0;
    format      ascii;
    arch        "LSB;label=32;scalar=64";
    class       volScalarField;
    location    "0";
    object      relativeErrorField;
}
// * * * * * * * * * * * * * * * * * * * * * * * * * * * * * * * * * * * * * //

dimensions      [0 0 0 1 0 0 0];

internalField   nonuniform List<scalar> 
3200
(
0.0201508
0.0204811
0.0207122
0.020919
0.021143
0.0218019
0.0224218
0.0229017
0.0232106
0.0236082
0.0238602
0.0237651
0.0236042
0.0229955
0.0227395
0.0225555
0.0220529
0.0217905
0.0216974
0.0219394
0.0176086
0.0174216
0.0176805
0.0181625
0.0184637
0.0189804
0.0192251
0.0197715
0.0201426
0.0204502
0.0204427
0.0202507
0.020209
0.0199739
0.0196397
0.0195195
0.0191207
0.0190759
0.0189748
0.0190597
0.0146709
0.0149103
0.0147519
0.0153111
0.0155851
0.0159239
0.0162245
0.0167695
0.0171522
0.0171998
0.0173133
0.0172734
0.0169235
0.0168248
0.0165756
0.0163893
0.0164534
0.015936
0.0158926
0.0158612
0.012044
0.0120958
0.0119717
0.0122439
0.0126679
0.013079
0.0132739
0.0136044
0.0139572
0.0141493
0.0141281
0.0141262
0.0140186
0.013837
0.0137614
0.0135664
0.0132638
0.0132295
0.0131369
0.0130521
0.00929435
0.00924597
0.00948813
0.00973681
0.00976613
0.0100295
0.0105597
0.0107187
0.0108588
0.0110001
0.0108785
0.0108843
0.0109213
0.0108772
0.0106491
0.010621
0.0105705
0.0102967
0.0104087
0.0102652
0.00657836
0.00647037
0.00658009
0.00689926
0.00726779
0.00722477
0.00754607
0.00774644
0.00768441
0.00788419
0.00804054
0.00787454
0.00783024
0.00769487
0.00768425
0.00742942
0.0075074
0.00743083
0.0074697
0.00744849
0.00402763
0.00395789
0.00399602
0.00431364
0.00431415
0.00448408
0.00442655
0.00451625
0.00476002
0.00466688
0.00468899
0.00491679
0.00429943
0.00449589
0.00458066
0.00476931
0.00444494
0.00456174
0.00434206
0.00450669
0.00131667
0.0013832
0.00138992
0.00132171
0.00142399
0.0014399
0.00163703
0.00177635
0.0018695
0.00163626
0.0016776
0.00169704
0.00162049
0.00151489
0.0014831
0.00137713
0.00175596
0.00170374
0.00137477
0.0014878
0.0186088
0.0188061
0.0186506
0.0189521
0.0193884
0.0198042
0.0202382
0.020745
0.0209567
0.0214135
0.0214402
0.0214332
0.0212592
0.0209173
0.0206913
0.0202463
0.0201083
0.0200935
0.0200694
0.0200131
0.0162254
0.0159792
0.0159888
0.0162614
0.0167874
0.0171063
0.0174995
0.0179158
0.0182616
0.0186613
0.0185209
0.018583
0.0186297
0.018132
0.0180406
0.0177379
0.017344
0.017231
0.0172973
0.0174274
0.0136669
0.013346
0.0134905
0.0138571
0.0141828
0.0147565
0.0148274
0.0154231
0.0153518
0.0159211
0.0157074
0.0157682
0.0156074
0.0153373
0.0152227
0.0148358
0.0148422
0.014676
0.0145518
0.0148638
0.0110335
0.0110969
0.0112191
0.0113636
0.011716
0.0118865
0.0123153
0.0126653
0.0127346
0.0129746
0.0130356
0.0129662
0.0128448
0.0125668
0.0123708
0.0122744
0.0121837
0.0119423
0.0118984
0.0118432
0.00887703
0.00881037
0.00878527
0.0087909
0.0092376
0.00949199
0.00962422
0.00985014
0.00991781
0.0101476
0.0100977
0.0101506
0.00986404
0.00976252
0.00969378
0.00960863
0.00958049
0.00944699
0.00943773
0.0093492
0.00611991
0.0060563
0.00621564
0.00650444
0.00664224
0.00664707
0.00715391
0.00691736
0.00709067
0.00707913
0.00723774
0.00721777
0.00726027
0.00724611
0.00693376
0.00679587
0.00663193
0.00671572
0.00681181
0.00664737
0.00366181
0.00364467
0.00389438
0.00394205
0.00399917
0.00442804
0.00415069
0.00438924
0.00432537
0.00448266
0.00447993
0.00439182
0.00451195
0.00426461
0.0043444
0.00410996
0.0042733
0.00423886
0.00406825
0.00415308
0.00128341
0.00122126
0.00113429
0.00139771
0.00130901
0.00148878
0.00151186
0.00148132
0.00167369
0.00132707
0.00137238
0.00137974
0.00130859
0.00146752
0.00145912
0.00133957
0.00139864
0.00146368
0.00136904
0.00153253
0.0160747
0.0162972
0.0161292
0.016467
0.016843
0.0170475
0.0177263
0.0179421
0.0184015
0.0185299
0.0185706
0.0188046
0.0184942
0.0182492
0.0179544
0.0177195
0.0176191
0.0174581
0.0176416
0.0174127
0.0141449
0.0139416
0.0141227
0.0140964
0.0147139
0.0148495
0.0153395
0.0156066
0.0159847
0.0160341
0.0163446
0.0164012
0.0159678
0.0157039
0.0155347
0.0152967
0.015367
0.015198
0.0152069
0.0152299
0.0120247
0.0119331
0.0119662
0.0120619
0.0123707
0.0128402
0.0127876
0.0134637
0.0135471
0.0136085
0.0136911
0.0137688
0.0135318
0.0133949
0.0131469
0.0131555
0.0128895
0.0128875
0.012905
0.0131589
0.0097446
0.00967663
0.00979383
0.00990064
0.00997225
0.0103169
0.0107588
0.0110228
0.01122
0.0113255
0.0115459
0.0112421
0.0112323
0.0111882
0.0108817
0.0107032
0.0106028
0.0106723
0.0105835
0.0107583
0.00772739
0.00757734
0.0076213
0.00762183
0.00797528
0.00809327
0.00833981
0.00848603
0.00880029
0.00887347
0.00885227
0.00902166
0.00910785
0.00864285
0.00860221
0.00842353
0.0084487
0.0081676
0.00844637
0.00827955
0.00525756
0.00511266
0.00537845
0.00538101
0.00548303
0.00583771
0.00584327
0.00607281
0.00626368
0.00657427
0.00644246
0.0065562
0.00624611
0.00643631
0.00629552
0.00626005
0.00618749
0.00596021
0.00597339
0.00595607
0.00323703
0.00323006
0.00353356
0.00330111
0.00340747
0.00356126
0.00354324
0.00347724
0.00388061
0.00376321
0.00375692
0.00384549
0.00392478
0.00367846
0.00381514
0.0036726
0.00375914
0.00358327
0.00350191
0.0035006
0.000954162
0.00123982
0.000994749
0.00105487
0.0010569
0.00120456
0.00119148
0.00105671
0.00118667
0.0012961
0.00122694
0.00108738
0.00135803
0.00131633
0.001005
0.00126911
0.00118692
0.00105447
0.00118318
0.00098415
0.0140064
0.0139634
0.0137582
0.0138308
0.0138878
0.0142067
0.0148833
0.015173
0.0154531
0.0156844
0.0159106
0.0156612
0.0156611
0.0153052
0.0151494
0.0150553
0.0150614
0.0148265
0.0151298
0.0151198
0.0121456
0.0119174
0.0119164
0.0120425
0.0122959
0.0125599
0.0129896
0.013212
0.013521
0.0136123
0.0137236
0.013529
0.0136262
0.0133419
0.0131894
0.0131707
0.0128238
0.0129261
0.0131198
0.0131114
0.0103183
0.0102099
0.0100811
0.010195
0.0104838
0.0107714
0.0110086
0.0110901
0.0115015
0.0114236
0.011568
0.0117161
0.0115956
0.0113323
0.0111972
0.0108816
0.0109442
0.011253
0.0109331
0.0111178
0.00849092
0.00831453
0.00849641
0.00817588
0.0085852
0.00913369
0.00900101
0.00945908
0.00947667
0.00945031
0.00953244
0.00966626
0.00929034
0.00955287
0.00921335
0.00926553
0.00898209
0.00904418
0.0089798
0.00903977
0.00651701
0.00644097
0.00652093
0.00640552
0.00662924
0.00679583
0.0069929
0.00726523
0.00732161
0.00752839
0.00767231
0.00760009
0.00733261
0.00730134
0.00717525
0.00692956
0.00696898
0.00709085
0.00715134
0.00729989
0.00437879
0.00475952
0.00436439
0.00471551
0.00475058
0.00479097
0.00511489
0.00515867
0.0052113
0.00530706
0.00551659
0.00537474
0.00537663
0.00539202
0.00504552
0.0049828
0.0050801
0.00509695
0.00507646
0.00497031
0.00293541
0.00279591
0.00258858
0.00285531
0.00289413
0.00301386
0.00288996
0.0029985
0.00324345
0.00341503
0.00327833
0.00341445
0.00322279
0.00302253
0.00295666
0.00276497
0.00311491
0.00287378
0.00334138
0.00321676
0.000778116
0.00100498
0.000987839
0.00126876
0.000816225
0.000918417
0.00111111
0.000893885
0.000939368
0.00133449
0.000823753
0.0010666
0.00103957
0.00106253
0.0010441
0.00116005
0.00113789
0.00103246
0.00110941
0.00111197
0.0116728
0.0115484
0.0113655
0.0112708
0.0115559
0.0119794
0.012135
0.0124188
0.0126232
0.0127559
0.0127676
0.0128627
0.0127366
0.012316
0.0124389
0.0124833
0.0122677
0.0123465
0.0126488
0.0129993
0.0101977
0.00997097
0.00970152
0.00993435
0.00984994
0.010137
0.0106978
0.0108077
0.0109382
0.011086
0.01126
0.0109256
0.0109498
0.0109265
0.010903
0.0105817
0.0106667
0.0105542
0.0110953
0.0112236
0.00880203
0.00852793
0.00819667
0.00832759
0.0083776
0.00843396
0.0088359
0.00899458
0.00956247
0.00961163
0.00945819
0.00958332
0.0093268
0.00943415
0.00926375
0.00920293
0.0090253
0.00924778
0.00933269
0.00933789
0.00694498
0.00687242
0.00678944
0.00682795
0.00704431
0.00719422
0.00713655
0.00735329
0.00761383
0.00753775
0.00796851
0.0078427
0.00769221
0.00771707
0.00770734
0.00711535
0.00777208
0.00759685
0.00782138
0.00799295
0.00553934
0.00560244
0.00519519
0.00523737
0.00542837
0.00545533
0.00582519
0.0058119
0.00613578
0.00615666
0.00631948
0.0061067
0.00620607
0.00595992
0.00593976
0.00602458
0.00594117
0.00597265
0.00605061
0.0061105
0.00413319
0.00378496
0.00375466
0.00378777
0.0040734
0.0039695
0.00402023
0.00426571
0.00435082
0.00436281
0.00443294
0.00457616
0.00453227
0.00426423
0.00432314
0.00419146
0.00414466
0.00431166
0.00447155
0.00441997
0.00251066
0.00238373
0.00220424
0.00201327
0.00229939
0.00244116
0.00245017
0.00270386
0.00272256
0.0028076
0.00260236
0.00268461
0.00261853
0.00270956
0.00261004
0.00267172
0.00258508
0.00274758
0.00255325
0.00267723
0.000637326
0.000940641
0.000858496
0.000984032
0.00101546
0.00088108
0.000765626
0.000995347
0.000706966
0.000785032
0.000909626
0.000976909
0.00103991
0.000800046
0.000832422
0.00111555
0.00108517
0.000717524
0.00103076
0.000997479
0.0097778
0.00967784
0.00892518
0.00906423
0.00917796
0.00942464
0.00957549
0.00986968
0.0100731
0.0100564
0.0100776
0.0104477
0.0102607
0.0099895
0.00999738
0.0100154
0.0100976
0.0103366
0.010681
0.0108695
0.00850397
0.00841245
0.00807459
0.00796786
0.00793725
0.00825143
0.00820513
0.00841619
0.00835582
0.00846083
0.00879155
0.00900981
0.00871223
0.00881222
0.00852293
0.00873744
0.00851319
0.00898867
0.00919055
0.009328
0.00709455
0.00708921
0.00684646
0.00671983
0.00647806
0.00677899
0.00708867
0.00697204
0.00728338
0.00733252
0.00743165
0.0075953
0.00720631
0.00739322
0.00734219
0.00729531
0.00738829
0.00732323
0.0078589
0.00802756
0.00590892
0.00557538
0.0053697
0.00539895
0.0055416
0.00557361
0.00585934
0.00580694
0.00611983
0.00604945
0.00588562
0.00592248
0.00598634
0.00604908
0.00597978
0.00609063
0.0061272
0.00634008
0.00632665
0.00656251
0.00433666
0.00462521
0.00416574
0.00421882
0.00431125
0.00434896
0.00443399
0.00447284
0.00442148
0.00499573
0.00457774
0.00465147
0.0045316
0.00468023
0.00474475
0.00444282
0.00498349
0.0049996
0.00497845
0.00541771
0.00303722
0.00343986
0.00317221
0.00305238
0.00299088
0.003181
0.00330893
0.00344432
0.00357208
0.00343356
0.00355772
0.00345678
0.00343632
0.00344284
0.00347856
0.00318281
0.00316914
0.00336934
0.00348075
0.0037084
0.00183205
0.00176548
0.00170001
0.001835
0.00202598
0.00192486
0.00181757
0.00173275
0.00211641
0.00209979
0.00231146
0.00200443
0.00200149
0.00197934
0.0020096
0.00202163
0.00203282
0.0019714
0.00215192
0.00222732
0.000745691
0.000391543
0.000522265
0.000551631
0.000776194
0.000609326
0.000612115
0.000745168
0.000884702
0.000541113
0.000611508
0.000815002
0.000690752
0.00081798
0.000882701
0.000711523
0.000590309
0.000724182
0.00100638
0.000826391
0.00838342
0.00799799
0.00762335
0.0071207
0.00720514
0.00723283
0.00723416
0.00742678
0.00743304
0.00753579
0.0076458
0.00773422
0.00753652
0.00765786
0.00774168
0.00770407
0.00797707
0.00843807
0.00850952
0.00914752
0.00724412
0.00666027
0.00640513
0.00613382
0.00618754
0.00608026
0.00617734
0.0062283
0.00669125
0.00666187
0.0066631
0.00679503
0.00675217
0.00659454
0.00661076
0.00670248
0.00689542
0.00713924
0.00755755
0.00791216
0.00594871
0.00560386
0.00536354
0.00527959
0.00521058
0.00529466
0.00523271
0.00561796
0.00561571
0.00554089
0.00572975
0.00553634
0.00596096
0.00548709
0.00569592
0.00566457
0.00599337
0.00615576
0.00631052
0.00667481
0.00492386
0.00476085
0.00443083
0.00420273
0.00408698
0.00428743
0.00435058
0.00440059
0.00471229
0.00452188
0.00454958
0.00474737
0.00480439
0.00452158
0.00445385
0.00458388
0.00490339
0.00492506
0.00500142
0.00548945
0.00371255
0.00350648
0.00327457
0.00351311
0.00329465
0.00314934
0.00358683
0.00346628
0.00368746
0.00376228
0.00363553
0.00357669
0.00367145
0.00366431
0.0034008
0.00373011
0.00374826
0.00381497
0.00409226
0.00439458
0.00270034
0.0027012
0.00237293
0.00241654
0.00262008
0.00239521
0.00224811
0.00233945
0.00233272
0.00261203
0.00283981
0.00270929
0.00278464
0.00241371
0.00263531
0.00242044
0.00276737
0.00283186
0.00280848
0.00297837
0.00145089
0.00157453
0.00152915
0.0014641
0.00161607
0.00117741
0.00148472
0.00125401
0.00152488
0.00164345
0.00160879
0.00154466
0.00161513
0.00143877
0.00177387
0.0016142
0.00169542
0.00160818
0.00177406
0.00180753
0.000486083
0.000515888
0.000416103
0.000374417
0.00034844
0.000526199
0.000519449
0.000662349
0.000495253
0.000569817
0.000552816
0.00053388
0.000649749
0.000492596
0.000570472
0.000789898
0.000628443
0.000372921
0.000794447
0.000550721
0.0070475
0.00630325
0.00581912
0.00547915
0.00515371
0.00552034
0.00530425
0.00544109
0.00530709
0.00545951
0.00550485
0.00568656
0.00553237
0.00553157
0.00579497
0.00613722
0.00607532
0.00686845
0.00731164
0.00764465
0.00590761
0.00560734
0.004991
0.00458161
0.00445569
0.00446247
0.00471592
0.00467279
0.0046752
0.00495744
0.00488596
0.00482422
0.00483299
0.00510158
0.00489014
0.00521407
0.00528479
0.00552192
0.0060738
0.00664669
0.00515876
0.0046779
0.004241
0.0038712
0.00388478
0.00358396
0.00383038
0.00395679
0.00399157
0.00395034
0.00383262
0.00407918
0.00397411
0.00403295
0.00413894
0.00442593
0.00465809
0.00486685
0.00496545
0.00583839
0.00395234
0.00370045
0.0033983
0.00342366
0.00309944
0.00310397
0.00311016
0.00311851
0.00307009
0.00345499
0.00322869
0.00332702
0.00336091
0.00347455
0.00363072
0.00347888
0.00378261
0.00389803
0.00429559
0.00472625
0.00270717
0.00289441
0.00259971
0.00252797
0.00251057
0.0022283
0.00227018
0.00245135
0.00271327
0.00241556
0.0026281
0.00262848
0.00274937
0.00251913
0.0028945
0.0028578
0.00296538
0.00309333
0.00319843
0.00355853
0.00210831
0.00185803
0.00200369
0.0017682
0.00166336
0.00169467
0.00187823
0.00171724
0.00179651
0.00174419
0.0018831
0.00183228
0.00169288
0.00201082
0.0020575
0.00196514
0.00216924
0.00185482
0.00246437
0.00254579
0.0011626
0.00136292
0.00103739
0.00104029
0.000847088
0.00124217
0.00123207
0.00103708
0.0010392
0.00120994
0.00120318
0.00127723
0.00118983
0.00115808
0.00124085
0.00116793
0.00129153
0.00156308
0.00155565
0.00156944
0.000583784
0.000350629
0.000342511
0.000435894
0.000423219
0.000482301
0.000402481
0.000585073
0.00030724
0.000478832
0.000519251
0.000216648
0.000327401
0.000527378
0.000440829
0.000355291
0.000518522
0.000543836
0.000597872
0.000578321
0.0059701
0.00529214
0.00469684
0.00421495
0.0038519
0.00378137
0.0037316
0.00360471
0.00358179
0.00361398
0.00377608
0.00376643
0.00393923
0.00414468
0.00424586
0.00441867
0.00462674
0.00539701
0.00605047
0.00678775
0.0052181
0.00443045
0.0038901
0.00347873
0.00341011
0.00312982
0.00323115
0.00303272
0.00327351
0.00303626
0.0032557
0.00331354
0.00348777
0.00349818
0.00339103
0.00380835
0.00409543
0.00432559
0.00509346
0.00566471
0.00426445
0.00359983
0.00317344
0.00288102
0.00254181
0.00253277
0.00264022
0.00250021
0.00275512
0.00242729
0.00284927
0.00278346
0.00283765
0.00278739
0.00299513
0.00316423
0.0033561
0.00375625
0.00444195
0.00461858
0.00344247
0.0030015
0.0026194
0.00242082
0.00225316
0.0020059
0.00204835
0.0019922
0.00206587
0.00218299
0.00214435
0.00214909
0.00223607
0.00213308
0.00247384
0.00251414
0.00291364
0.00308008
0.00364358
0.00378948
0.0025142
0.00240449
0.00201264
0.00184411
0.00171668
0.00148735
0.00150935
0.00155052
0.00180919
0.00161771
0.00187292
0.00186524
0.00166782
0.00178979
0.00176051
0.00204505
0.00229575
0.00237544
0.00264106
0.00301351
0.00190343
0.00163603
0.00145139
0.00138661
0.00118783
0.00127078
0.00108241
0.00115612
0.00111771
0.00128967
0.00133538
0.00135995
0.00114945
0.00118441
0.00133683
0.00141431
0.00155816
0.00159153
0.00200193
0.00197699
0.00121593
0.000944957
0.000742531
0.000686395
0.00065843
0.0007405
0.000684755
0.00061955
0.000816055
0.000681295
0.000720546
0.000773282
0.000830778
0.000990175
0.000889852
0.00108841
0.00096562
0.00106617
0.00100697
0.00160069
0.000379009
0.000465191
0.000226288
0.000125771
0.000321464
0.000271253
0.000195022
0.000149567
4.65187e-05
0.000123273
0.000202226
0.000303091
0.000272782
7.92972e-05
0.000198637
0.000377731
0.000324421
0.000558687
0.000308742
0.000542747
0.00510367
0.00442803
0.00405538
0.00333482
0.00273239
0.00256466
0.00252665
0.00226494
0.00236911
0.00216088
0.00227985
0.00249248
0.00257937
0.00257909
0.00294543
0.00318054
0.00378529
0.00435858
0.00513851
0.00584009
0.00441328
0.00384097
0.00318825
0.00275448
0.0024878
0.00202235
0.00190348
0.0017639
0.00181248
0.0019713
0.00179388
0.00203998
0.00207808
0.00229383
0.00228712
0.00287305
0.00303993
0.00384449
0.00440788
0.00492232
0.00384382
0.00329244
0.00258015
0.00240798
0.00192594
0.00157951
0.00160929
0.0014639
0.00164785
0.00161841
0.00174458
0.00165715
0.00168999
0.0016868
0.00195876
0.00225237
0.00244408
0.00296921
0.00354816
0.00401525
0.00316579
0.00223669
0.00200479
0.00195547
0.00154114
0.00130389
0.00162065
0.00121769
0.00104969
0.00134468
0.00135845
0.00142123
0.00146898
0.0014043
0.001497
0.0018931
0.00196216
0.00237112
0.00285436
0.00333634
0.00228165
0.00198523
0.00160239
0.00136012
0.00105895
0.00095002
0.000690666
0.00115132
0.000658378
0.00102329
0.00103821
0.00123157
0.00106584
0.001064
0.00106179
0.00148878
0.00154858
0.00199273
0.00239136
0.00237758
0.00158299
0.00133015
0.00135095
0.00101098
0.000659765
0.000755671
0.000782269
0.000565612
0.000604235
0.000378818
0.000603626
0.00071465
0.000855184
0.00103
0.000793828
0.000907089
0.00113087
0.00144774
0.00171267
0.00165312
0.000923893
0.000892622
0.00058592
0.000494442
0.00048886
0.000525898
0.000631409
0.000298453
0.000625345
0.000374706
0.000543493
0.000477994
0.000412748
0.000483318
0.000559773
0.000615852
0.000662495
0.000548916
0.00115701
0.00120099
0.000541699
0.000159834
0.000163471
0.000134673
4.75179e-05
0.00015676
0.000399206
0.000137144
0.000115068
9.88059e-05
0.000372921
7.35721e-05
0.00024934
3.64491e-05
5.05484e-05
2.9486e-05
9.41663e-05
0.000378761
0.000483656
0.000410628
0.0050771
0.00430436
0.00347126
0.00263643
0.0022564
0.00148724
0.00156806
0.00124075
0.00141527
0.00114181
0.0011335
0.00119469
0.00138804
0.00171338
0.0018071
0.0023882
0.00295377
0.00362338
0.00449415
0.00536656
0.00427557
0.00331346
0.00278104
0.00211537
0.00158241
0.00127848
0.00138003
0.00109562
0.000975084
0.000977845
0.000855441
0.000730546
0.00122332
0.00132444
0.00147402
0.00184606
0.00267352
0.00324222
0.0037459
0.00452473
0.00343048
0.00279801
0.00238685
0.00161223
0.00135977
0.00101681
0.000871657
0.000861544
0.000687955
0.000532125
0.000675319
0.00112028
0.000990953
0.00107904
0.00121806
0.00182751
0.00198811
0.00248047
0.00327278
0.00386608
0.00285195
0.0023308
0.00198484
0.00144838
0.00105483
0.000653892
0.000868159
0.000556722
0.000801332
0.000458594
0.00045889
0.000622276
0.000632749
0.000768222
0.0011208
0.00155325
0.00161069
0.00205722
0.00252421
0.003107
0.00187718
0.00157045
0.00122681
0.000807071
0.000848752
0.000480021
0.000648489
0.000480005
0.000422406
0.00034292
0.00054165
0.000618342
0.000535212
0.000563467
0.000697517
0.00104028
0.0012949
0.00152465
0.00175099
0.00240319
0.00147245
0.00131323
0.000940746
0.000714753
0.000460832
0.000606024
0.000240879
0.000292047
0.000225989
0.000498044
0.000332384
0.000512282
0.000312577
0.000432577
0.000424663
0.000936274
0.00082208
0.000974258
0.00137685
0.00154991
0.000997247
0.000747104
0.000418937
0.000417758
0.000106076
0.000280469
0.000135421
0.000158193
0.000232558
0.000156578
4.29012e-05
0.000401043
0.000343093
0.000349717
0.000318316
0.000362309
0.000556322
0.000831273
0.000919207
0.000861969
0.000197048
0.000375745
0.000192694
0.000295316
0.000192209
0.000131112
0.000137435
7.43227e-05
8.88392e-05
0.000242247
0.000271086
1.67661e-05
1.83927e-05
0.000121482
0.000163965
0.000281765
0.000220112
0.000198005
0.000219658
0.000396738
0.00523413
0.00429526
0.00331996
0.00252296
0.0018381
0.00157092
0.00103489
0.000634489
0.000723451
0.000713524
0.000306459
0.000654405
0.00064283
0.00119072
0.00121635
0.00175581
0.00266976
0.00356893
0.00434252
0.00516709
0.00442446
0.00357365
0.00269276
0.00188146
0.00140723
0.00106178
0.000811063
0.00077644
0.000324656
0.000359862
0.000302695
0.000357039
0.000432366
0.000787506
0.00125136
0.00168427
0.00201728
0.00289996
0.00382669
0.00439854
0.00339477
0.00297355
0.0019935
0.00160599
0.00104506
0.000627802
0.000544969
0.000390085
0.000169545
0.000126064
0.000234554
0.000231894
0.000610022
0.000521743
0.000861557
0.00130804
0.00161194
0.00241636
0.00302749
0.00370276
0.00276831
0.00227995
0.00163953
0.00123711
0.000871368
0.000635233
0.000322086
1.55464e-05
0.000404007
3.06582e-05
3.57332e-05
3.23332e-06
1.5557e-05
0.000541266
0.000508288
0.000919933
0.00158078
0.00191185
0.00229598
0.00283796
0.00200949
0.00151831
0.00120934
0.000763289
0.000592675
0.000463689
0.000279421
5.65885e-05
9.22244e-05
6.5802e-05
0.000109764
6.31246e-05
0.000139298
0.000153216
0.000430033
0.000769856
0.00102168
0.00154133
0.00176155
0.00224319
0.00143909
0.00106153
0.000913548
0.000588617
0.000429395
7.25475e-05
0.000206777
0.000196604
9.87347e-05
0.000130869
2.55199e-05
0.000235115
9.76291e-05
0.000201261
0.000198091
0.000717974
0.000790117
0.00110553
0.00130886
0.00176462
0.0006241
0.000754727
0.000703985
0.000457054
0.000382532
0.000372492
1.00311e-05
0.000159371
3.99317e-05
0.00016472
0.000263639
6.00452e-05
0.000134446
0.000135989
0.000255392
0.000216248
0.000382274
0.000616735
0.000772608
0.00104746
0.000168251
0.000312116
7.4769e-05
3.72286e-05
0.000112155
0.000254605
8.0495e-05
2.41695e-05
7.85837e-06
1.20846e-05
7.2256e-05
6.02025e-05
6.82885e-05
0.00017056
0.000108028
0.000330557
0.000153146
0.000189336
0.000386662
0.000114515
0.0058064
0.00473159
0.0034943
0.0026001
0.00189135
0.00146906
0.000891371
0.000747756
0.000443502
0.00014938
0.000265904
0.000222973
0.000658634
0.00100703
0.00119739
0.00204236
0.00253114
0.00362097
0.00446602
0.00539314
0.00457347
0.00392817
0.00293818
0.00207677
0.00173135
0.00101875
0.000726526
0.000413683
0.00020197
0.000159266
1.49923e-05
6.19474e-05
0.000559265
0.000667666
0.00119233
0.00174742
0.00218998
0.0031687
0.00398222
0.00467633
0.00388896
0.00299081
0.00243588
0.00178929
0.00102538
0.00060645
0.000437913
0.000155824
0.000123785
0.000195554
3.90636e-05
5.10444e-05
0.00050812
0.000399548
0.000620456
0.00133514
0.00140564
0.00235092
0.0033321
0.00391186
0.00312015
0.00252209
0.00178979
0.00118194
0.000803942
0.000448657
0.000307408
0.000347126
3.09111e-05
0.000338412
6.09301e-05
0.000143784
0.000197662
0.000280109
0.000558751
0.000935495
0.00133571
0.00204339
0.00257804
0.00308793
0.00231429
0.00167345
0.00130749
0.00103185
0.000466125
0.000365415
0.000166396
3.3682e-05
9.18298e-05
0.000154017
0.00011177
0.000276775
6.10214e-05
0.000135677
0.000460134
0.000871736
0.000917323
0.00165249
0.00217601
0.0024129
0.0016566
0.00148832
0.000754612
0.000746452
0.00040785
9.90604e-05
4.05668e-05
3.16901e-05
0.000206795
0.000215598
0.000150202
7.55214e-05
1.33553e-05
0.000107023
0.000485356
0.000493919
0.000730398
0.000923863
0.00132684
0.00150068
0.00101462
0.000864236
0.000577344
0.000384503
0.000300854
0.000266678
1.26742e-05
9.28646e-05
0.000139605
0.000162866
7.45911e-05
2.84765e-05
7.4941e-05
6.29734e-05
0.000144471
0.000356221
0.000557854
0.000578748
0.000863388
0.000946296
0.000256004
0.000239136
0.000249768
0.000210365
4.73272e-05
0.000179361
7.67567e-05
0.000214729
9.20077e-05
8.9473e-05
5.72068e-05
0.000133539
0.000198442
0.000152085
5.7127e-05
9.8745e-05
0.000166891
0.000178069
0.0003156
0.000368459
0.00660586
0.00539041
0.00435731
0.00325942
0.00236492
0.00161107
0.00117725
0.000851544
0.000736438
0.000445564
0.000590358
0.000646815
0.000836586
0.00115312
0.001647
0.00210157
0.00325009
0.00428724
0.00547658
0.00644633
0.00564106
0.0046937
0.00331408
0.00271402
0.00189652
0.0012558
0.000693734
0.000500721
0.000534422
0.000218268
0.000176992
0.000266951
0.000563552
0.0007228
0.00127129
0.00191005
0.00256047
0.00373314
0.00427889
0.00539694
0.00426115
0.00375948
0.00280424
0.00215348
0.00147748
0.00089277
0.000641941
0.00037229
0.000227285
0.000121317
5.7485e-05
0.000111389
0.000298224
0.000656488
0.00102045
0.00155076
0.00208634
0.00280848
0.00362933
0.00442241
0.0035054
0.00284116
0.00230577
0.00173726
0.00115124
0.000655755
0.000300079
9.57843e-05
0.000174277
7.80055e-05
4.80005e-05
6.46464e-05
0.000156424
0.00032284
0.000866815
0.00115796
0.00174917
0.00236035
0.00286798
0.00332751
0.00276414
0.002172
0.00185122
0.00136616
0.000931616
0.00041559
0.000202919
5.349e-05
0.000100486
9.81888e-05
8.07358e-05
4.69145e-05
0.000131728
0.000313863
0.000566575
0.000773832
0.00134694
0.00166377
0.00222995
0.0027954
0.0019327
0.00164916
0.00125525
0.000862956
0.000565565
0.00032979
0.000148761
6.19534e-05
5.23091e-05
0.00010198
2.37615e-05
0.000134007
9.54806e-05
0.000159472
0.000451547
0.000498871
0.000951284
0.00136858
0.00147637
0.00180688
0.000874805
0.000804779
0.000649478
0.000443003
0.000335341
0.00040103
8.07379e-05
0.000158932
0.00011739
0.000187395
6.86845e-05
4.73378e-05
0.000104357
8.41693e-05
0.000111607
0.000253738
0.000329719
0.000728373
0.00113273
0.00120797
0.000481052
0.00026312
0.00013616
2.2513e-05
7.6645e-05
6.94433e-06
0.00021596
4.64221e-05
8.89347e-05
3.50478e-05
0.000194068
1.64309e-05
0.000177057
5.20972e-05
4.77434e-05
0.000354936
0.000308372
0.000281031
0.000249154
0.000338554
0.00791663
0.00646136
0.00526164
0.00428294
0.00333786
0.00277137
0.00204449
0.00163198
0.00121095
0.00112828
0.00107347
0.00128588
0.00152337
0.00193778
0.00252876
0.00319672
0.00403587
0.00521567
0.00635537
0.0075857
0.00642482
0.00534974
0.00427446
0.00354437
0.00274947
0.00190079
0.00143183
0.00123451
0.000796129
0.00081267
0.000736145
0.000683782
0.00107495
0.00131974
0.0020354
0.00252593
0.00321018
0.00429865
0.00527393
0.00621773
0.0055167
0.00439429
0.0036247
0.00268885
0.00232938
0.00153413
0.00134817
0.00107882
0.00057596
0.000506786
0.000530593
0.000516417
0.000833124
0.00114009
0.00152597
0.00197255
0.00250681
0.00338299
0.00435123
0.00526201
0.00427973
0.00373592
0.00297933
0.00217922
0.0016338
0.00113222
0.000652793
0.000667476
0.00048153
0.000163551
0.000363491
0.000265523
0.000507929
0.000776584
0.00125677
0.00169472
0.00225641
0.00266314
0.00356077
0.00437507
0.0030632
0.0027466
0.0020974
0.00180116
0.00114677
0.000823179
0.000612993
0.000265678
0.000151301
0.0003623
0.000227934
0.000196219
0.000297932
0.000623529
0.000777228
0.0013304
0.00176682
0.00211892
0.00266478
0.00331291
0.00240633
0.00184316
0.00156882
0.000887081
0.000687211
0.000502842
0.000269895
0.00015441
0.000140197
0.000229778
0.000284935
0.00041938
0.000275924
0.00039194
0.000510809
0.000944568
0.00136578
0.00130647
0.00191895
0.00225729
0.0012877
0.00131701
0.000811814
0.000586597
0.000354607
0.000434356
0.000232677
0.000302902
0.000157022
6.11448e-05
0.00011007
0.000155128
0.000236578
0.000160632
0.000348015
0.000568682
0.000661468
0.000968904
0.00128506
0.0014328
0.000420834
0.000357034
0.000327966
0.000133502
0.00019874
2.74272e-05
1.63356e-05
9.38218e-05
6.94958e-05
7.2959e-06
1.31352e-05
4.97497e-05
5.00368e-06
5.6275e-05
6.48803e-05
0.000224462
0.000317208
0.000134713
0.000450852
0.000398531
0.00964351
0.00834342
0.0070883
0.00554546
0.00481007
0.00384069
0.00306273
0.00308407
0.00244173
0.00226316
0.00222985
0.00235847
0.00241445
0.00288607
0.00358921
0.00433586
0.0055719
0.00655227
0.00785316
0.00907151
0.00806145
0.00696201
0.00573055
0.00468783
0.0038041
0.00285249
0.00239667
0.00221979
0.00183259
0.00169377
0.00157166
0.00185232
0.00208738
0.00250827
0.00296453
0.00373843
0.00436849
0.00558167
0.00653546
0.00744839
0.00652575
0.00594619
0.00476355
0.0038982
0.00318095
0.00250349
0.00189593
0.00168231
0.00138962
0.00105987
0.00132974
0.00135035
0.00165937
0.00200118
0.00235407
0.00281145
0.00343767
0.00447075
0.00572127
0.00625874
0.00541886
0.00480806
0.00382764
0.00276777
0.00259051
0.00205
0.00144124
0.0012625
0.000880595
0.000892649
0.000960969
0.000945489
0.000984794
0.00174432
0.00174002
0.00257487
0.00293358
0.00360521
0.00434155
0.00513484
0.00400209
0.00354274
0.00276882
0.00246188
0.00160291
0.00159591
0.00123447
0.0010349
0.000810495
0.000823398
0.000746598
0.000667811
0.000759995
0.00115854
0.0013993
0.00192226
0.00208069
0.00300774
0.00332123
0.00409361
0.0028778
0.00254085
0.00203797
0.00156478
0.00137378
0.00113184
0.000665006
0.000615441
0.000299373
0.000296752
0.00038031
0.000467602
0.000800877
0.000634998
0.00101911
0.00130713
0.00156418
0.00210888
0.00252694
0.0025714
0.0017361
0.00139901
0.00135822
0.00106474
0.000907218
0.000764561
0.000473028
0.000180967
0.000403249
0.000268199
0.000247191
0.00032957
0.000330965
0.000423898
0.000683789
0.000708874
0.000903822
0.0010955
0.00136388
0.00184352
0.000641881
0.000417768
0.000405763
0.000397099
0.000171568
0.000152908
0.000283005
0.000270664
0.000108661
9.27597e-05
0.000153568
7.01613e-05
0.00019859
9.43659e-05
0.000242212
0.00029267
0.000288145
0.000130651
0.000431788
0.000433828
0.0115352
0.0103062
0.00869859
0.00751009
0.00621728
0.00540381
0.00493837
0.00440472
0.00375947
0.0034415
0.00377942
0.00375045
0.00405668
0.00430105
0.0051263
0.00596814
0.00708022
0.0083614
0.00962989
0.0110695
0.00974535
0.00886142
0.00733744
0.00601216
0.00527269
0.00443196
0.00393438
0.0033881
0.00309516
0.00273758
0.00282488
0.00307086
0.00325985
0.00361995
0.00433177
0.00498473
0.00606023
0.00717288
0.00828705
0.00923066
0.00794036
0.00736975
0.00614901
0.00518929
0.00443191
0.00364441
0.00320047
0.00288699
0.00254254
0.00232445
0.00216628
0.00244633
0.00263447
0.00305464
0.00368953
0.0040371
0.00470401
0.00578724
0.0069561
0.0077665
0.00668627
0.00559244
0.00485348
0.00419633
0.00328256
0.0029626
0.00254472
0.00211523
0.00183285
0.0018429
0.00176478
0.00225639
0.00215587
0.00252457
0.00286081
0.00337233
0.00377741
0.00472168
0.0055671
0.00645612
0.00512272