/*--------------------------------*- C++ -*----------------------------------*\
| =========                 |                                                 |
| \\      /  F ield         | OpenFOAM: The Open Source CFD Toolbox           |
|  \\    /   O peration     | Version:  2212                                  |
|   \\  /    A nd           | Website:  www.openfoam.com                      |
|    \\/     M anipulation  |                                                 |
\*---------------------------------------------------------------------------*/
FoamFile
{
    version     2.0;
    format      ascii;
    arch        "LSB;label=32;scalar=64";
    class       volScalarField;
    location    "./ITHACAoutput/true/6.4";
    object      error;
}
// * * * * * * * * * * * * * * * * * * * * * * * * * * * * * * * * * * * * * //

dimensions      [0 0 0 1 0 0 0];

internalField   nonuniform List<scalar> 
3200
(
4.64268
4.46927
4.39709
4.45005
4.68369
5.03798
5.52296
5.92446
6.24896
6.53447
6.63564
6.56026
6.47085
6.25176
6.04243
5.94221
5.93076
5.99413
6.17419
6.45746
3.92508
3.78588
3.72288
3.77591
3.92053
4.18146
4.54467
4.90816
5.2432
5.40414
5.54265
5.55626
5.42891
5.29752
5.07019
5.00414
4.89314
4.99536
5.1456
5.46353
3.14485
3.03423
2.96211
3.06922
3.1774
3.33439
3.7476
4.06055
4.37538
4.45972
4.56478
4.53362
4.49811
4.31374
4.19435
4.13176
4.03231
4.17494
4.30635
4.46031
2.60757
2.48683
2.38919
2.40991
2.51742
2.70791
2.99646
3.15568
3.42354
3.61048
3.63131
3.68569
3.56218
3.37696
3.34634
3.2601
3.3101
3.3572
3.41872
3.60509
1.97219
1.8628
1.80383
1.80837
1.90443
2.14886
2.24733
2.46958
2.62926
2.71114
2.73887
2.81418
2.7401
2.635
2.5372
2.52849
2.54517
2.49639
2.67015
2.72634
1.41817
1.21894
1.26906
1.25489
1.29245
1.43114
1.62133
1.66907
1.88614
1.94735
1.93771
1.95864
1.9638
1.87943
1.7465
1.73761
1.72815
1.8231
1.84936
1.9627
0.795669
0.790508
0.726706
0.757507
0.845616
0.90469
0.923976
1.05328
1.06511
1.1208
1.183
1.15982
1.1346
1.15116
1.12429
1.04401
1.03999
1.06719
1.12377
1.14864
0.266108
0.288191
0.256809
0.274238
0.342852
0.328434
0.236284
0.350282
0.290123
0.37183
0.376623
0.425603
0.395381
0.36837
0.373277
0.327878
0.343888
0.403173
0.418759
0.417388
3.8693
3.65966
3.49921
3.5403
3.75153
4.01808
4.53099
4.88244
5.29434
5.5533
5.59357
5.5628
5.52177
5.27181
5.08805
4.98065
4.9582
5.15722
5.31686
5.63789
3.22928
3.05815
2.98723
2.96324
3.14547
3.48639
3.78127
4.04253
4.45267
4.63709
4.75562
4.72889
4.56848
4.45368
4.34768
4.17586
4.27038
4.37136
4.45235
4.80067
2.63562
2.55114
2.42584
2.49556
2.62144
2.75933
3.112
3.41113
3.65551
3.85883
3.90071
3.8931
3.80332
3.72185
3.61671
3.57583
3.57792
3.57303
3.75278
3.99564
2.08563
1.99656
1.90841
1.95934
2.08631
2.21466
2.50751
2.6379
2.92754
3.11629
3.13678
3.16875
3.05963
2.99343
2.83633
2.83109
2.77228
2.85699
3.06157
3.17023
1.66233
1.49036
1.41475
1.46507
1.50721
1.75484
1.85837
2.05529
2.2162
2.30896
2.34835
2.42169
2.31246
2.2393
2.16664
2.1388
2.13978
2.26018
2.26759
2.44998
1.13227
1.05698
1.06546
1.08523
1.06551
1.19115
1.31209
1.4336
1.66865
1.66587
1.71873
1.6676
1.64053
1.57864
1.51966
1.48291
1.48451
1.62706
1.70182
1.73143
0.744315
0.622744
0.568091
0.604673
0.652514
0.757684
0.868206
0.858407
0.934288
0.985392
1.02592
1.00697
0.990754
0.881759
0.937725
0.884597
0.960761
0.949739
0.998723
0.964323
0.235311
0.272686
0.189831
0.177357
0.190839
0.233502
0.304839
0.275557
0.290435
0.292545
0.373731
0.292665
0.334923
0.336604
0.361189
0.288084
0.299649
0.372924
0.378057
0.389133
2.92577
2.69284
2.55446
2.51236
2.6425
2.91705
3.23846
3.62961
4.04921
4.16642
4.35927
4.348
4.23286
4.05314
3.96496
3.82728
3.89172
4.12262
4.33277
4.72598
2.39722
2.20695
2.12583
2.10431
2.14853
2.39285
2.78239
3.01035
3.32294
3.52118
3.75921
3.57721
3.58078
3.51136
3.37776
3.30086
3.27766
3.39877
3.69471
4.04059
1.91549
1.88498
1.67922
1.68973
1.77213
2.03421
2.26975
2.4804
2.75328
2.88309
3.07013
3.04684
3.00039
2.85477
2.75141
2.70478
2.85252
2.89009
3.03465
3.31888
1.63866
1.40731
1.4243
1.33398
1.42923
1.5738
1.77391
2.039
2.18277
2.36996
2.39539
2.39456
2.39547
2.28736
2.20692
2.18874
2.164
2.3514
2.49539
2.6579
1.22644
1.10162
1.02682
1.09692
1.0925
1.21087
1.34203
1.56816
1.65946
1.79574
1.80682
1.85219
1.8012
1.67505
1.6688
1.60693
1.66049
1.76465
1.93117
2.05571
0.802596
0.76867
0.652341
0.679986
0.761511
0.839361
0.941607
1.06773
1.18241
1.31291
1.26887
1.32415
1.24204
1.26614
1.1906
1.22911
1.23755
1.2304
1.34286
1.47265
0.519499
0.428839
0.487109
0.467726
0.500134
0.503021
0.547179
0.61297
0.69407
0.735547
0.775013
0.828244
0.800704
0.699604
0.669812
0.666111
0.673482
0.809803
0.819425
0.917773
0.161541
0.144896
0.132292
0.163206
0.113219
0.12105
0.202475
0.234246
0.222793
0.228062
0.205783
0.226964
0.298345
0.299036
0.280473
0.254776
0.295844
0.295635
0.259526
0.245835
2.10345
1.76473
1.56622
1.48537
1.59433
1.6918
2.14908
2.3652
2.71357
2.92298
3.08909
3.13001
2.97898
2.90805
2.85182
2.78518
2.88428
3.11732
3.49862
3.90175
1.71087
1.43708
1.3079
1.23262
1.37375
1.52726
1.78518
2.01542
2.32587
2.4489
2.53847
2.58866
2.61401
2.4154
2.43423
2.33437
2.45791
2.63538
2.93406
3.24516
1.40797
1.12471
1.07346
0.996241
1.03294
1.15694
1.42795
1.57817
1.88888
1.92575
2.09888
2.19374
2.09511
2.08011
1.99104
1.91751
2.06582
2.16822
2.46693
2.72581
1.05264
0.873556
0.797187
0.783068
0.81122
0.894364
1.13435
1.31568
1.50712
1.72735
1.73301
1.72023
1.64937
1.60252
1.53092
1.61987
1.62253
1.7509
2.00388
2.20385
0.851126
0.695907
0.595975
0.549051
0.607008
0.678304
0.855001
0.979848
1.1676
1.23671
1.31046
1.34091
1.2877
1.20193
1.23054
1.20769
1.18711
1.37381
1.48068
1.70903
0.514951
0.512703
0.339438
0.34963
0.415063
0.496841
0.600209
0.636902
0.785394
0.903659
0.899931
0.911258
0.897161
0.851847
0.851657
0.856598
0.86429
0.965236
1.07081
1.14184
0.390844
0.270135
0.218916
0.257594
0.269373
0.234956
0.321943
0.457753
0.423071
0.496771
0.53524
0.546968
0.523026
0.499927
0.525743
0.512171
0.55057
0.580837
0.647546
0.623372
0.112148
0.097743
0.0835069
0.0323305
0.107996
0.0899619
0.191607
0.112524
0.178993
0.207827
0.234864
0.132667
0.164598
0.201805
0.150258
0.260587
0.144907
0.212421
0.156434
0.214447
1.41005
0.99988
0.755425
0.569817
0.693436
0.882042
1.02959
1.34774
1.60774
1.84805
1.88482
2.03828
1.95101
1.83475
1.82309
1.87324
2.02558
2.35242
2.73603
3.20208
1.11618
0.861848
0.589698
0.502469
0.491404
0.665326
0.834387
1.10074
1.2707
1.57961
1.63944
1.63339
1.58352
1.57204
1.55241
1.51639
1.69966
1.9852
2.35363
2.67338
0.831404
0.653383
0.461005
0.311958
0.344178
0.439372
0.678179
0.869166
1.09168
1.20313
1.23866
1.31253
1.35303
1.28313
1.21194
1.25008
1.39691
1.58557
1.86366
2.25123
0.607586
0.503446
0.369574
0.235043
0.304718
0.381514
0.483038
0.646957
0.777945
0.893893
1.02043
0.997164
1.01388
1.03431
1.10018
1.00692
1.12135
1.28601
1.45332
1.7257
0.462272
0.340904
0.267477
0.103834
0.157606
0.222482
0.347934
0.490347
0.562034
0.739201
0.702523
0.742824
0.796876
0.716119
0.742662
0.781898
0.849998
0.882723
1.18211
1.26524
0.344417
0.217617
0.117094
0.124861
0.153143
0.0931738
0.171985
0.311287
0.480152
0.433736
0.534056
0.465969
0.556351
0.56881
0.546961
0.53742
0.60609
0.657895
0.803197
0.936607
0.231844
0.130141
0.0736387
0.0255872
0.0443811
0.00113584
0.16972
0.163355
0.250953
0.27794
0.295102
0.275427
0.307929
0.296602
0.280319
0.271961
0.359062
0.374453
0.532455
0.548838
0.0711082
0.0341511
0.0106977
0.0529079
0.00346243
0.00699502
0.100943
0.052482
0.0867614
0.115547
0.188545
0.128451
0.104382
0.12065
0.0856509
0.14421
0.0449299
0.166834
0.162317
0.2084
0.822524
0.57449
0.11471
-0.0365161
-0.0760962
-0.00082435
0.187221
0.451996
0.636883
0.780635
0.921537
1.03478
1.03552
0.922913
1.0516
1.12779
1.35602
1.72665
2.1403
2.64667
0.650169
0.290913
0.0939872
-0.169702
-0.183522
-0.102131
0.0714075
0.268521
0.497498
0.606098
0.735207
0.831652
0.799247
0.812052
0.864055
0.882917
1.06494
1.40573
1.82847
2.22965
0.557713
0.215503
0.00710743
-0.090478
-0.160432
-0.156199
0.0136587
0.245147
0.370467
0.474118
0.57964
0.611474
0.623456
0.576047
0.611446
0.685229
0.900286
1.18168
1.50024
1.85797
0.349872
0.181467
-0.0255609
-0.153371
-0.11636
-0.199932
-0.0286612
0.0955337
0.243384
0.331213
0.435802
0.526892
0.452801
0.427375
0.469568
0.523733
0.689021
0.891548
1.17579
1.47082
0.245809
0.142534
0.01826
-0.138653
-0.127755
-0.141834
-0.0725833
0.0543303
0.215884
0.24314
0.312907
0.38361
0.333029
0.374648
0.401127
0.40222
0.51174
0.668842
0.843197
1.08495
0.172873
0.0945989
-0.095196
-0.130389
-0.154274
-0.0998251
0.00431837
0.0510372
0.124432
0.171317
0.199019
0.249558
0.208968
0.256569
0.227254
0.353643
0.392743
0.477493
0.626787
0.733999
0.0184132
0.0911018
-0.0693322
-0.0974886
-0.0278481
-0.118865
-0.0061487
0.0726153
0.0130633
0.090227
0.0624282
0.111881
0.0686647
0.0713329
0.0931402
0.124645
0.205332
0.265486
0.382539
0.440516
0.0630796
-0.0249262
-0.00942395
-0.047887
-0.0634349
-0.0518587
-0.0566077
-0.00358924
0.022463
0.0320156
0.0410977
0.158771
-0.0184978
-0.0638208
0.0584247
0.0976797
0.0485499
0.116024
0.135794
0.218345
0.603797
0.146081
-0.222937
-0.547992
-0.623378
-0.666214
-0.474737
-0.23906
-0.125784
-0.0215105
0.153846
0.299234
0.30205
0.302892
0.469075
0.649124
0.887261
1.28192
1.82548
2.46266
0.434979
0.0522184
-0.290362
-0.512045
-0.55733
-0.640616
-0.510096
-0.298839
-0.173442
-0.0692337
0.0736073
0.108729
0.206819
0.240582
0.334657
0.523201
0.690102
1.13581
1.5286
1.95509
0.304054
0.0157112
-0.298461
-0.466889
-0.481301
-0.62021
-0.475286
-0.30805
-0.255878
-0.0616392
0.0724496
0.0633333
0.12314
0.131032
0.164246
0.263822
0.546947
0.851821
1.23993
1.62356
0.241411
-0.0433664
-0.337832
-0.498047
-0.468824
-0.500847
-0.383302
-0.379771
-0.193255
-0.073901
-0.0630988
-0.0251038
0.0648151
0.0767611
0.100247
0.19428
0.425809
0.655992
1.00358
1.3661
0.125795
-0.0258729
-0.236644
-0.33686
-0.437816
-0.356871
-0.304227
-0.237245
-0.170042
-0.146006
-0.0472375
0.013955
-0.0561575
-0.000999206
0.068567
0.181814
0.339327
0.426558
0.685061
1.01177
0.137192
-0.0918177
-0.123258
-0.247177
-0.2958
-0.353313
-0.277013
-0.116482
-0.15382
-0.0756042
-0.0925708
-0.0265673
0.000777595
-0.0539532
0.0427973
0.0379011
0.231579
0.316408
0.493388
0.664492
0.0304232
-0.023037
-0.158635
-0.212806
-0.239097
-0.131223
-0.209542
-0.170287
-0.0359915
-0.020627
-0.0998301
-0.0339581
0.0307292
-0.00903452
-0.0102009
-0.00467787
0.0738418
0.205314
0.317205
0.421146
0.000895583
-0.0315807
0.0170436
0.00887273
-0.0935132
-0.0173953
-0.0183204
-0.0290689
-0.0490361
-0.0366784
-0.002608
-0.0158946
-0.0272965
-0.0268747
0.00349556
0.0263937
0.0176176
0.0605678
0.144279
0.162791
0.567184
0.0653486
-0.407738
-0.720785
-0.996047
-0.968344
-0.934152
-0.787294
-0.655201
-0.482559
-0.451904
-0.2877
-0.231433
-0.108055
0.0601217
0.290509
0.598
1.23465
1.78005
2.43855
0.437808
-0.0377313
-0.415066
-0.705989
-0.926201
-0.937684
-0.860621
-0.750859
-0.585161
-0.493945
-0.417394
-0.363694
-0.210943
-0.175309
-0.0663987
0.191225
0.554457
0.929493
1.42506
1.95018
0.335444
-0.0454324
-0.496271
-0.63553
-0.787711
-0.838017
-0.746377
-0.697251
-0.565474
-0.508188
-0.359121
-0.311021
-0.315668
-0.171248
-0.0640786
0.0694536
0.370717
0.679163
1.21943
1.60954
0.243244
-0.11734
-0.363518
-0.537384
-0.635343
-0.740601
-0.716571
-0.594092
-0.501672
-0.424205
-0.366712
-0.333174
-0.256631
-0.166768
-0.146373
0.0551038
0.279912
0.580519
0.976395
1.27104
0.15113
-0.110842
-0.281884
-0.449941
-0.618752
-0.570327
-0.549709
-0.428342
-0.436362
-0.406816
-0.311464
-0.277007
-0.198929
-0.22759
-0.0787609
0.0490925
0.189585
0.433908
0.698838
0.948122
0.105785
-0.0418434
-0.208716
-0.37232
-0.383231
-0.403623
-0.44747
-0.271585
-0.270655
-0.340989
-0.312777
-0.254433
-0.15167
-0.1253
-0.123487
0.0388456
0.10154
0.262926
0.477047
0.653753
0.0138053
-0.002924
-0.138887
-0.256892
-0.278531
-0.222614
-0.21327
-0.197307
-0.248459
-0.190818
-0.172104
-0.120929
-0.146646
-0.0805456
-0.0549223
0.0367391
0.025803
0.120457
0.268037
0.422351
-0.0372401
-0.00174024
0.00127111
-0.0812513
-0.144682
-0.0731529
-0.119143
-0.0130237
-0.0560261
-0.0739722
-0.0460518
-0.011994
-0.0285758
-0.0437732
-0.0636974
-0.00597639
-0.0078259
0.0369214
0.108434
0.0822308
0.773877
0.227321
-0.305271
-0.770337
-1.01115
-1.05674
-1.01944
-1.02615
-0.924506
-0.835014
-0.740457
-0.553707
-0.409948
-0.346853
-0.0412286
0.19377
0.626735
1.24311
1.94444
2.6596
0.609125
0.188843
-0.319037
-0.765037
-0.928837
-1.00689
-1.01134
-0.909367
-0.86565
-0.799926
-0.677698
-0.544294
-0.377093
-0.34016
-0.103392
0.075902
0.545391
0.995836
1.5927
2.14193
0.478421
0.0544348
-0.317383
-0.655731
-0.816405
-0.907924
-0.884851
-0.913555
-0.817895
-0.747924
-0.538141
-0.569938
-0.477144
-0.341611
-0.191688
0.103415
0.43154
0.831821
1.34358
1.836
0.39405
0.0156774
-0.258236
-0.542328
-0.682344
-0.767905
-0.712715
-0.732511
-0.722156
-0.639796
-0.492815
-0.444308
-0.371073
-0.269073
-0.220656
0.00570417
0.270112
0.656609
1.05979
1.39467
0.270126
-0.0420515
-0.290465
-0.455564
-0.536272
-0.627976
-0.61788
-0.602791
-0.549799
-0.545781
-0.455814
-0.320669
-0.379281
-0.28213
-0.158085
-0.0112098
0.205855
0.444479
0.811242
1.03927
0.183537
-0.0216157
-0.203238
-0.347168
-0.37864
-0.462767
-0.501789
-0.406655
-0.447308
-0.315427
-0.333022
-0.277012
-0.288293
-0.195634
-0.040068
0.00810347
0.112538
0.348083
0.495093
0.691757
0.029632
0.0222424
-0.0848317
-0.201244
-0.314896
-0.268805
-0.333027
-0.281122
-0.231041
-0.291608
-0.151701
-0.191607
-0.147661
-0.134598
-0.0695062
0.0253273
0.111467
0.0920823
0.356419
0.476802
-0.0123521
0.0409268
-0.139808
-0.0593878
-0.096624
-0.0446803
-0.160798
-0.0629403
-0.0857998
-0.0841762
-0.0660178
-0.133906
-0.125147
-0.0959728
-0.0233071
0.0220661
-0.0125289
-0.0122856
0.106576
0.161565
1.28191
0.697561
0.107266
-0.389534
-0.739144
-0.976808
-1.06395
-1.01407
-0.984347
-0.776714
-0.5834
-0.549504
-0.411898
-0.238061
0.0924806
0.452222
0.998929
1.55272
2.36126
3.11807
1.03776
0.506101
-0.00293111
-0.451169
-0.685317
-0.820535
-0.934777
-0.902454
-0.958659
-0.833913
-0.673464
-0.550784
-0.443993
-0.277689
0.00767551
0.313156
0.843869
1.35782
1.9522
2.64375
0.794113
0.450073
-0.0483469
-0.396562
-0.62139
-0.710955
-0.784799
-0.841946
-0.793778
-0.7383
-0.630902
-0.48028
-0.515714
-0.227031
-0.0559022
0.238204
0.583844
1.09745
1.61498
2.12276
0.604156
0.277952
-0.093396
-0.36629
-0.478197
-0.67927
-0.767833
-0.700312
-0.668749
-0.644652
-0.585528
-0.458
-0.341371
-0.249367
-0.0649112
0.166048
0.484228
0.93344
1.33194
1.72157
0.387567
0.149514
-0.0430512
-0.278176
-0.469356
-0.50417
-0.627108
-0.588535
-0.640704
-0.567088
-0.435294
-0.41549
-0.351744
-0.237993
-0.0947567
0.102336
0.369801
0.688317
0.970826
1.26315
0.28419
0.140022
-0.0747266
-0.21585
-0.3576
-0.416763
-0.467709
-0.424663
-0.414129
-0.388399
-0.381944
-0.289221
-0.224498
-0.153191
-0.0685394
0.10021
0.230059
0.487933
0.647587
0.97667
0.235198
0.0512893
-0.0722663
-0.150477
-0.303034
-0.293612
-0.265351
-0.230323
-0.226615
-0.233579
-0.204103
-0.203146
-0.108756
-0.0715597
-0.055741
-0.0283053
0.126854
0.276147
0.364987
0.556208
0.0750358
0.0335579
-0.0198521
-0.106304
-0.0977426
-0.0550215
-0.0420493
-0.103354
-0.0980014
0.00491582
-0.0909771
-0.0396733
-0.0802796
-0.00160418
-0.0286269
-0.0627577
0.056733
0.154364
0.156691
0.144618
2.09497
1.428
0.711764
0.155607
-0.23984
-0.474135
-0.614233
-0.711888
-0.680901
-0.527076
-0.416479
-0.218216
-0.118109
0.154856
0.507026
0.899696
1.53363
2.2325
3.08356
3.83286
1.7458
1.16157
0.564741
0.0522062
-0.246676
-0.551242
-0.588763
-0.584974
-0.596203
-0.576691
-0.479998
-0.346269
-0.194345
0.0696936
0.37848
0.74375
1.23358
1.87881
2.61196
3.19049
1.43641
0.918518
0.453663
0.0277992
-0.320699
-0.517569
-0.535158
-0.615419
-0.588535
-0.613714
-0.405223
-0.40849
-0.0986612
-0.00823762
0.216103
0.640707
0.996319
1.52883
2.1373
2.64677
1.11224
0.687163
0.320587
0.00265372
-0.258875
-0.499953
-0.485158
-0.589605
-0.557784
-0.472011
-0.35505
-0.366002
-0.182746
-0.0479384
0.149428
0.507088
0.819452
1.28287
1.73072
2.10551
0.864446
0.542521
0.237274
-0.0470522
-0.237747
-0.380289
-0.390222
-0.444004
-0.39967
-0.346552
-0.399172
-0.285701
-0.118805
-0.0848309
0.105242
0.319262
0.608226
0.905331
1.33285
1.60181
0.574724
0.420414
0.145391
-0.0877455
-0.168401
-0.253912
-0.342567
-0.314028
-0.324096
-0.356476
-0.275546
-0.241122
-0.166272
-0.0244569
0.00855446
0.25
0.468999
0.650365
0.841685
1.18252
0.37809
0.199085
0.0916137
0.0178063
-0.0603683
-0.121581
-0.118384
-0.184518
-0.170963
-0.230395
-0.121684
-0.103537
-0.0401293
-0.0354386
-0.0334481
0.14485
0.236605
0.487834
0.54618
0.677692
0.112759
0.0183708
0.0149047
0.0192033
0.0100753
-0.0364459
-0.0250418
-0.0564596
-0.0668241
-0.126262
-0.0572386
0.00952903
-0.0117553
0.0205266
0.0139873
0.0418133
0.0397832
0.0952318
0.202479
0.263647
3.21412
2.43313
1.65255
0.974921
0.548006
0.313182
0.0437212
-0.0540979
-0.0410224
-0.00303956
0.0678196
0.353252
0.508344
0.813551
1.20925
1.73203
2.42256
3.14659
4.10611
4.8347
2.61227
2.01656
1.41499
0.777243
0.399214
0.139588
-0.0332766
-0.134232
-0.136069
-0.119684
0.010318
0.122451
0.39205
0.671314
0.965657
1.47503
1.97428
2.69128
3.45087
4.18514
2.14896
1.64291
1.02376
0.679239
0.320324
0.116139
-0.0354878
-0.152769
-0.253606
-0.144747
-0.00530083
0.0915087
0.243389
0.416692
0.745935
1.19072
1.69289
2.22215
2.94878
3.39608
1.69553
1.33195
0.818916
0.61219
0.233319
-0.00829319
-0.114992
-0.172002
-0.139313
-0.144847
0.00657492
0.0406888
0.157197
0.369997
0.610676
0.967529
1.29249
1.74522
2.27802
2.80715
1.30876
0.965699
0.629219
0.403839
0.122529
0.0512692
-0.0910492
-0.120396
-0.179417
-0.0877508
-0.0691889
-0.0397552
0.0758078
0.236715
0.453018
0.725222
1.00425
1.35098
1.77142
2.1673
0.884751
0.682871
0.461513
0.264637
0.142974
0.0424908
-0.116382
-0.136463
-0.0832939
-0.0540864
-0.116544
-0.0893578
-0.012192
0.224923
0.372638
0.534091
0.67086
0.989249
1.26899
1.49546
0.533086
0.404424
0.236874
0.15176
0.00693306
0.0696783
-0.0622861
-0.0997187
-0.157962
-0.0778079
-0.0446614
-0.0305777
-0.0577652
0.103124
0.189527
0.233753
0.349598
0.546788
0.763303
0.881606
0.189479
0.166218
0.0840846
0.107101
0.0625004
-0.0232713
-0.112517
-0.0917297
0.00982283
-0.0428459
-0.0356884
-0.0110509
-0.0348448
-0.00944646
0.0696573
0.137188
0.0968153
0.218732
0.244959
0.321803
4.48302
3.68437
2.87622
2.18894
1.6506
1.29094
0.963799
0.795009
0.854311
0.830899
1.01491
1.1815
1.44815
1.72082
2.24088
2.82657
3.4965
4.36657
5.34224
6.19111
3.86457
3.05676
2.43591
1.79423
1.34152
1.04893
0.881545
0.641773
0.707354
0.748308
0.832947
0.982875
1.23088
1.48725
1.85015
2.38327
2.96743
3.67072
4.54388
5.23195
3.17952
2.66725
1.99821
1.50418
1.13121
0.772184
0.604184
0.552581
0.504209
0.509428
0.596713
0.728911
0.919148
1.20805
1.43704
1.9322
2.46627
3.10702
3.75268
4.3787
2.50181
2.13764
1.56311
1.2504
0.926549
0.633431
0.393932
0.450656
0.412227
0.417787
0.483665
0.58755
0.786608
0.904438
1.14831
1.56271
2.04709
2.50873
3.07288
3.59814
1.93652
1.59502
1.18145
0.94255
0.690061
0.54736
0.362916
0.31008
0.271909
0.283514
0.307484
0.356091
0.542761
0.690678
0.94162
1.14939
1.48855
1.93456
2.42278
2.69109
1.4377
1.10874
0.874243
0.66641
0.456098
0.265526
0.263103
0.228468
0.137436
0.191925
0.254281
0.284857
0.326275
0.527741
0.714599
0.788693
1.09581
1.40936
1.65252
1.95904
0.836485
0.628847
0.476867
0.35605
0.270687
0.201024
0.139732
0.105303
0.126386
0.138613
0.0784249
0.159706
0.18364
0.250448
0.396733
0.497937
0.632666
0.825163
1.044
1.1759
0.328431
0.214169
0.181467
0.13396
0.0577111
0.11252
0.0646511
0.0282203
-0.0415254
0.0145258
0.0212487
0.030574
0.0907608
0.0664751
0.115225
0.172538
0.241519
0.213843
0.34826
0.396273
6.08551
5.24121
4.42133
3.60161
3.03471
2.59183
2.37296
2.10121
1.97264
2.05477
2.18284
2.23862
2.6486
3.0783
3.54661
4.13943
4.90707
5.8795
6.84382
7.82151
5.19348
4.45343
3.72666
3.08936
2.59089
2.19384
1.84943
1.80285
1.68366
1.76379
1.86326
1.95982
2.26154
2.60385
3.04324
3.59105
4.18303
4.98828
5.8449
6.69959
4.33361
3.70299
3.17042
2.528
2.16758
1.80853
1.61116
1.43576
1.42954
1.41184
1.49758
1.57369
1.86731
2.1586
2.56483
2.9126
3.49587
4.22954
4.86936
5.64205
3.55419
3.08815
2.5146
2.03463
1.74096
1.49452
1.27093
1.17134
1.12979
1.07606
1.18693
1.24245
1.4742
1.68644
1.99821
2.37816
2.815
3.37159
4.00997
4.50351
2.74649
2.30722
1.9792
1.56292
1.38151
1.07743
0.98742
0.837247
0.855406
0.84006
0.89339
0.963458
1.07328
1.37371
1.49734
1.87007
2.22756
2.60494
3.05833
3.49999
1.92268
1.61848
1.36643
1.11419
0.950288
0.798005
0.651654
0.535318
0.570076
0.542486
0.704459
0.714616
0.767307
0.889932
1.10983
1.32898
1.5517
1.85516
2.16455
2.46805
1.11762
1.00755
0.876796
0.711386
0.552916
0.49829
0.389654
0.350534
0.310262
0.299023
0.410876
0.479723
0.462307
0.60501
0.670595
0.773407
0.871752
1.1542
1.35792
1.44284
0.309376
0.321193
0.226442
0.253111
0.196907
0.122733
0.112058
0.107235
0.113529
0.149366
0.185192
0.165223
0.207091
0.16958
0.21468
0.253095
0.315984
0.326989
0.472382
0.418017
8.07538
7.14411
6.17341
5.43902
4.77581
4.21805
3.87986
3.62096
3.61661
3.58151
3.67898
3.88339
4.2264
4.66561
5.25083
5.93922
6.74511
7.61015
8.73697
9.66225
6.84326
6.15285
5.37776
4.61318
4.07422
3.63433
3.36654
3.10498
3.01183
3.01631
3.14512
3.30116
3.62118
3.87701
4.42982
5.08219
5.77686
6.54089
7.49507
8.24796
5.71276
5.1023
4.44836
3.88432
3.3992
3.02138
2.71379
2.61015
2.48807
2.5109
2.61292
2.73707
2.98276
3.28775
3.66627
4.27507
4.73249
5.52081
6.26957
7.00487
4.62794
4.1438
3.57926
3.12142
2.77273
2.47505
2.23534
2.12144
2.04515
2.02932
2.13451
2.21287
2.41959
2.60845
2.9607
3.43787
3.90185
4.42669
5.1027
5.64708
3.55129
3.23812
2.85002
2.4142
2.11805
1.80885
1.68293
1.59742
1.57505
1.60024
1.64162
1.68013
1.85106
2.10076
2.3336
2.58229
3.0177
3.46196
3.96964
4.33306
2.52716
2.24223
1.97356
1.69051
1.47084
1.35403
1.26356
1.20044
1.17852
1.06109
1.10957
1.1854
1.35704
1.37339
1.59661
1.89817
2.11887
2.44787
2.82809
3.12506
1.47229
1.38887
1.15983
1.00232
0.909605
0.836132
0.704772
0.667768
0.683518
0.695464
0.655582
0.719506
0.683579
0.856085
0.966899
1.09669
1.31241
1.45771
1.61939
1.88991
0.550343
0.48818
0.42262
0.360584
0.268986
0.253945
0.20892
0.188791
0.23822
0.245737
0.237728
0.239546
0.247488
0.355141
0.307329
0.396917
0.37323
0.444168
0.596622
0.678817
10.1884
9.32815
8.3292
7.5056
6.78074
6.17786
5.7399
5.60927
5.46303
5.41226
5.52162
5.71023
6.13016
6.54062
7.12863
7.90468
8.74584
9.66164
10.8776
11.9205
8.75413
8.07217
7.19514
6.45714
5.87162
5.35605
4.99154
4.75791
4.64225
4.69247
4.71177
4.93042
5.22442
5.62918
6.05378
6.7451
7.55046
8.39743
9.3519
10.2202
7.32418
6.76426
5.93847
5.45367
4.90914
4.48727
4.17165
3.91333
3.8888
3.84899
3.93136
4.12595
4.33702
4.68715
5.12659
5.6067
6.30709
7.02198
7.8168
8.54624
5.98081
5.46613
4.89114
4.36112
3.94452
3.63327
3.38762
3.17858
3.2145
3.0656
3.24961
3.35308
3.5215
3.83713
4.11403
4.6121
5.1278
5.70966
6.30507
6.91467
4.59688
4.26336
3.79654
3.40553
3.09123
2.79948
2.65782
2.48021
2.40521
2.40191
2.47812
2.58543
2.70872
2.896
3.19482
3.5321
4.00462
4.5068
4.91386
5.33941
3.2887
3.06621
2.72339
2.35546
2.15349
1.98658
1.78085
1.76273
1.66074
1.75192
1.74778
1.81297
2.01751
2.04191
2.28812
2.50993
2.81647
3.17691
3.5314
3.8068
1.97236
1.81989
1.61898
1.50416
1.24294
1.13863
1.07679
0.98312
1.07181
1.03961
1.04732
1.09957
1.18601
1.28045
1.30935
1.52541
1.74878
1.87062
2.13385
2.27915
0.631927
0.581884
0.548218
0.468138
0.444386
0.443997
0.40035
0.30875
0.300938
0.411281
0.333623
0.41882
0.399808
0.392091
0.426138
0.524816
0.592262
0.576745
0.72417
0.781099
12.7489
11.7537
10.6548
9.84552
9.14464
8.54214
7.9873
7.78459
7.56537
7.48565
7.58998
7.92795
8.24224
8.79117
9.31269
10.2008
11.0085
12.1145
13.2627
14.2628
10.9823
10.1402
9.17768
8.40619
7.85406
7.28166
6.85813
6.66015
6.50922
6.47248
6.63746
6.83277
7.08807
7.50953
7.97575
8.71728
9.56836
10.4286
11.3803
12.3159
9.15153
8.48606
7.74086
7.1284
6.53511
6.09316
5.78552
5.56816
5.50325
5.41878
5.45782
5.7681
5.93227
6.25815
6.7568
7.35384
7.97884
8.71106
9.56313
10.3952
7.42276
6.84714
6.30675
5.73655
5.28486
4.88825
4.64645
4.51735
4.36493
4.44327
4.48202
4.58882
4.79694
5.01978
5.54435
5.915
6.52929
7.24504
7.78887
8.45295
5.71967
5.36909
4.96724
4.517
4.08047
3.89175
3.58906
3.43868
3.39937
3.3769
3.4877
3.52226
3.68642
3.92315
4.27861
4.64013
5.01104
5.56722
6.05538
6.51767
4.09965
3.82538
3.44504
3.16876
2.86009
2.72363
2.63003
2.47698
2.37286
2.36171
2.49149
2.4845
2.63588
2.78752
3.04291
3.21145
3.58244
3.90453
4.30718
4.55838
2.44987
2.25934
2.05018
1.87072
1.71042
1.65025
1.56497
1.49601
1.4579
1.40094
1.48551
1.49937
1.56427
1.64978
1.82635
1.94905
2.13086
2.38236
2.58205
2.73767
0.79807
0.757726
0.667296
0.680949
0.598292
0.607868
0.551958
0.48047
0.481763
0.458844
0.436923
0.461829
0.576933
0.587841
0.636668
0.721466
0.746668
0.876769
0.860638
0.874946
15.3644
14.3646
13.3644
12.3926
11.5583
10.9699
10.4321
10.1618
10.0153
9.95182
10.0201
10.26
10.6264
11.1251
11.8411
12.6038
13.5241
14.6893
15.8338
16.993
13.091
12.3851
11.4673
10.5914
9.98649
9.3877
8.91768
8.74898
8.53296
8.50558
8.58614
8.88479
9.14008
9.56454
10.1136
10.8106
11.6811
12.5844
13.613
14.5783
11.0759
10.3467
9.57414
8.90164
8.34136
7.87906
7.61251
7.26534
7.12049
7.09302
7.21723
7.31835
7.65452
8.08391
8.49125
9.05725
9.78547
10.5787
11.4036
12.1813
9.01174
8.47206
7.84206
7.21856
6.80758
6.40817
6.03142
5.95619
5.81308
5.68666
5.88335
5.9901
6.19042
6.52106
6.94413
7.33326
7.93829
8.58856
9.32579
9.91221
6.92725
6.49176
6.06416
5.6161
5.23167
4.97459
4.70183
4.56827
4.47667
4.43732
4.52553
4.69052
4.78101
5.04236
5.37675
5.65573
6.18153
6.64683
7.17842
7.64543
4.96164
4.63439
4.26365
4.01926
3.68224
3.53631
3.3111
3.15011
3.2132
3.1472
3.23473
3.35343
3.40249
3.60679
3.80668
4.03684
4.40917
4.76117
5.09473
5.45692
2.95752
2.79442
2.5364
2.35853
2.07561
2.13319
2.00656
1.91006
1.87584
1.90481
1.93741
1.96199
1.97797
2.08591
2.23649
2.48529
2.68539
2.8824
3.02786
3.28337
1.05314
0.836809
0.862136
0.859538
0.761002
0.632129
0.620314
0.712137
0.639559
0.645964
0.619979
0.670761
0.693279
0.721738
0.75369
0.902522
0.888794
0.966644
1.03547
1.05831
18.0089
17.0216
15.879
14.9489
14.1138
13.4266
12.975
12.5675
12.3682
12.3644
12.4551
12.7189
13.0818
13.5262
14.3038
15.0948
16.0269
17.1931
18.3518
19.5058
15.4735
14.5752
13.6995
12.7871
12.0764
11.442
11.093
10.7071
10.6269
10.5666
10.6699
10.9212
11.1581
11.6451
12.2132
12.9298
13.7117
14.7619
15.7794
16.8076
12.9092
12.2411
11.4332
10.7349
10.1082
9.60102
9.18166
8.96261
8.82053
8.802
8.92341
9.09679
9.3866
9.69462
10.2282
10.8964
11.5996
12.3852
13.284
14.0986
10.551
9.95286
9.27144
8.65446
8.20158
7.76055
7.41316
7.30236
7.18013
7.15509
7.22694
7.36345
7.58259
7.89157
8.30635
8.86997
9.35614
10.1157
10.8193
11.3496
8.14769
7.69065
7.13982
6.72659
6.29692
5.95239
5.75
5.59145
5.5424
5.4798
5.48662
5.66853
5.87345
6.08831
6.36689
6.75587
7.27051
7.77912
8.36964
8.79377
5.78597
5.39427
5.00855
4.78116
4.44004
4.28504
4.08755
3.96168
3.97342
3.91144
3.89531
4.04906
4.15598
4.37077
4.54679
4.85264
5.13224
5.52287
5.89627
6.33163
3.45513
3.29721
3.05651
2.90261
2.65741
2.5611
2.45013
2.37952
2.36844
2.32163
2.36165
2.40642
2.50784
2.57465
2.7418
2.90604
3.05773
3.33328
3.5213
3.74499
1.12929
1.07026
1.02919
0.935431
0.868872
0.841838
0.846706
0.772562
0.734551
0.797375
0.769132
0.85375
0.820353
0.857501
0.910278
0.942607
1.01667
1.14487
1.17914
1.28795
20.2107
19.0895
17.9698
17.0359
16.1869
15.427
14.9071
14.6081
14.3905
14.3119
14.4178
14.6798
15.0026
15.6559
16.2818
17.1559
18.0757
19.2306
20.4913
21.6405
17.1435
16.318
15.382
14.4669
13.7761
13.1183
12.6439
12.3054
12.2338
12.2035
12.3118
12.4646
12.7552
13.2289
13.8401
14.6087
15.4903
16.5087
17.56
18.3885
14.3632
13.5785
12.7775
12.015
11.3875
10.9049
10.5997
10.247
10.0979
10.015
10.2339
10.3587
10.6322
11.0497
11.576
12.2037
12.9921
13.7611
14.71
15.4606
11.585
11.0383
10.31
9.73336
9.22453
8.88306
8.45054
8.28001
8.12382
8.12617
8.22146
8.36973
8.54691
8.91236
9.3418
9.78888
10.4272
11.1288
11.9191
12.4823
8.88612
8.4661
8.00814
7.503
7.09928
6.71671
6.50351
6.41359
6.31443
6.22694
6.34042
6.43382
6.58406
6.89715
7.20771
7.6088
8.04855
8.57856
9.22333
9.58875
6.31943
5.98172
5.63251
5.26841
5.04885
4.76071
4.57788
4.45943
4.50078
4.34893
4.47986
4.51804
4.7284
4.83916
5.12892
5.39698
5.79797
6.13403
6.48789
6.88347
3.75437
3.59772
3.33478
3.2235
2.95431
2.8588
2.75609
2.6711
2.66254
2.67684
2.63539
2.74976
2.78103
2.92128
3.04887
3.16953
3.39674
3.68706
3.86534
4.10239
1.27944
1.1521
1.14521
1.10261
1.04901
0.923774
0.939696
0.90837
0.839596
0.885531
0.89533
0.932072
0.926918
0.997045
0.966525
1.03817
1.14838
1.26108
1.29218
1.32799
)
;

boundaryField
{
    hotSide
    {
        type            calculated;
        value           nonuniform List<scalar> 
400
(
5.92928
5.15876
4.221
3.40739
2.72577
2.15318
1.95269
1.93776
2.1697
2.70673
3.55266
4.70868
6.01859
7.66632
9.70578
11.8728
14.4918
17.1704
19.8825
22.1566
5.79619
4.98913
4.02744
3.10714
2.3529
1.94106
1.52932
1.46857
1.654
2.15139
2.91283
3.95299
5.24342
6.84377
8.79457
11.031
13.5136
16.1862
18.9095
21.0485
5.76766
4.87194
3.93158
2.95006
2.14849
1.51969
1.19689
1.03009
1.15395
1.59152
2.22491
3.19864
4.45949
6.04616
7.84432
10.0508
12.4319
15.2015
17.7811
19.9417
5.86684
4.95882
3.9344
2.91288
2.00495
1.40866
0.909941
0.752909
0.722434
1.12592
1.69761
2.54759
3.7966
5.24876
7.13029
9.24575
11.6394
14.2451
16.8649
19.0204
6.14803
5.21709
4.1106
3.06649
2.17145
1.40989
0.873061
0.513708
0.515165
0.807324
1.33069
2.1468
3.28208
4.70352
6.48673
8.53868
10.9546
13.4253
16.0429
18.1832
6.54917
5.52996
4.43043
3.20775
2.40195
1.52486
0.867521
0.576168
0.50173
0.599227
1.12343
1.93659
2.94475
4.28082
5.94718
7.95219
10.3668
12.8501
15.3676
17.434
7.07764
6.08582
4.79375
3.70545
2.58806
1.74932
1.09305
0.641942
0.568112
0.538676
1.00753
1.68904
2.63738
4.07975
5.62496
7.52855
9.82481
12.3238
14.9263
16.9233
7.51605
6.4737
5.2204
3.95573
2.9387
2.04467
1.35721
0.81511
0.585509
0.610511
0.929761
1.60915
2.48469
3.82242
5.37896
7.40942
9.63236