/*--------------------------------*- C++ -*----------------------------------*\
| =========                 |                                                 |
| \\      /  F ield         | OpenFOAM: The Open Source CFD Toolbox           |
|  \\    /   O peration     | Version:  2212                                  |
|   \\  /    A nd           | Website:  www.openfoam.com                      |
|    \\/     M anipulation  |                                                 |
\*---------------------------------------------------------------------------*/
FoamFile
{
    version     2.0;
    format      ascii;
    arch        "LSB;label=32;scalar=64";
    class       volScalarField;
    location    "0";
    object      T;
}
// * * * * * * * * * * * * * * * * * * * * * * * * * * * * * * * * * * * * * //

dimensions      [0 0 0 1 0 0 0];

internalField   nonuniform List<scalar> 
3200
(
318.888
318.327
317.913
317.786
317.86
318.402
318.651
318.93
319.195
319.16
319.446
319.221
319.203
318.836
318.301
318.006
317.976
317.789
317.883
318.246
316.245
315.812
315.438
315.353
315.405
315.932
316.151
316.374
316.632
316.611
316.881
316.685
316.695
316.365
315.932
315.696
315.655
315.47
315.537
315.841
313.654
313.336
313.024
312.946
312.988
313.465
313.654
313.843
314.076
314.061
314.309
314.153
314.169
313.888
313.521
313.355
313.308
313.144
313.185
313.448
311.127
310.881
310.62
310.576
310.612
311.002
311.168
311.326
311.541
311.53
311.736
311.625
311.629
311.393
311.11
310.994
310.938
310.782
310.816
311.032
308.652
308.435
308.235
308.189
308.248
308.556
308.685
308.813
308.98
308.988
309.154
309.083
309.067
308.905
308.661
308.594
308.533
308.396
308.437
308.592
306.19
306.006
305.874
305.825
305.899
306.094
306.194
306.289
306.402
306.426
306.557
306.494
306.507
306.381
306.179
306.171
306.112
305.992
306.053
306.145
303.725
303.61
303.545
303.493
303.546
303.648
303.701
303.775
303.833
303.85
303.933
303.897
303.909
303.838
303.697
303.725
303.666
303.609
303.64
303.687
301.246
301.211
301.192
301.177
301.181
301.216
301.242
301.265
301.28
301.291
301.314
301.289
301.307
301.283
301.248
301.258
301.227
301.216
301.229
301.242
319.024
318.481
318.036
317.852
318.003
318.571
318.884
319.218
319.467
319.539
319.639
319.537
319.306
319.046
318.611
318.203
318.014
318.006
317.939
318.367
316.367
315.944
315.555
315.397
315.547
316.049
316.372
316.652
316.909
316.968
317.058
316.977
316.786
316.559
316.183
315.868
315.682
315.653
315.578
315.963
313.786
313.456
313.128
312.999
313.124
313.543
313.871
314.084
314.326
314.358
314.45
314.4
314.259
314.035
313.746
313.473
313.32
313.271
313.208
313.513
311.242
310.982
310.725
310.619
310.736
311.054
311.359
311.536
311.726
311.76
311.846
311.809
311.715
311.498
311.298
311.068
310.945
310.879
310.832
311.047
308.743
308.52
308.317
308.254
308.359
308.582
308.827
308.986
309.104
309.144
309.249
309.209
309.13
308.949
308.813
308.632
308.533
308.477
308.455
308.595
306.253
306.088
305.924
305.909
305.957
306.149
306.303
306.444
306.497
306.553
306.618
306.602
306.506
306.408
306.324
306.178
306.129
306.053
306.078
306.147
303.756
303.653
303.562
303.554
303.569
303.72
303.772
303.879
303.9
303.945
303.973
303.963
303.912
303.826
303.8
303.73
303.691
303.618
303.665
303.7
301.26
301.224
301.185
301.182
301.193
301.254
301.264
301.304
301.306
301.321
301.325
301.326
301.313
301.273
301.275
301.252
301.243
301.221
301.241
301.236
319.27
318.653
318.273
318.27
318.402
318.792
319.133
319.593
319.939
320.092
320.039
319.902
319.585
319.35
319.042
318.546
318.191
318.045
318.157
318.663
316.591
316.104
315.776
315.752
315.917
316.267
316.568
316.979
317.276
317.426
317.392
317.28
317.003
316.818
316.571
316.132
315.851
315.707
315.802
316.22
313.971
313.578
313.305
313.262
313.461
313.767
314.006
314.376
314.614
314.756
314.729
314.632
314.433
314.272
314.07
313.707
313.46
313.341
313.427
313.754
311.383
311.118
310.879
310.788
311.016
311.268
311.459
311.78
311.971
312.088
312.039
311.995
311.837
311.718
311.538
311.262
311.035
310.961
311.025
311.272
308.845
308.639
308.444
308.353
308.558
308.754
308.906
309.162
309.318
309.388
309.382
309.32
309.203
309.137
308.993
308.766
308.614
308.551
308.588
308.787
306.322
306.158
306.021
305.969
306.116
306.238
306.37
306.53
306.65
306.719
306.712
306.657
306.574
306.552
306.446
306.278
306.175
306.14
306.16
306.283
303.788
303.7
303.612
303.606
303.682
303.761
303.839
303.92
303.978
304.03
304.034
303.999
303.962
303.933
303.889
303.779
303.714
303.688
303.71
303.769
301.255
301.24
301.218
301.215
301.239
301.263
301.295
301.308
301.331
301.351
301.357
301.341
301.33
301.312
301.309
301.255
301.239
301.227
301.253
301.265
319.474
319.054
318.697
318.572
318.808
319.208
319.584
320.058
320.259
320.526
320.698
320.465
320.134
319.782
319.443
318.983
318.586
318.352
318.518
318.941
316.787
316.429
316.162
316.055
316.259
316.623
316.958
317.373
317.551
317.834
317.954
317.792
317.471
317.207
316.896
316.523
316.185
315.957
316.1
316.45
314.158
313.846
313.634
313.542
313.745
314.054
314.364
314.68
314.858
315.134
315.218
315.085
314.822
314.619
314.339
314.048
313.775
313.533
313.663
313.945
311.546
311.307
311.12
311.056
311.252
311.489
311.752
312.026
312.164
312.408
312.48
312.371
312.157
311.989
311.76
311.536
311.336
311.097
311.207
311.439
308.961
308.777
308.624
308.608
308.772
308.925
309.149
309.359
309.474
309.671
309.726
309.632
309.487
309.331
309.177
308.997
308.858
308.636
308.743
308.92
306.408
306.245
306.136
306.142
306.27
306.377
306.531
306.68
306.777
306.932
306.968
306.882
306.776
306.68
306.566
306.45
306.351
306.183
306.254
306.401
303.842
303.745
303.664
303.691
303.773
303.828
303.915
303.999
304.051
304.17
304.186
304.141
304.068
304.004
303.948
303.886
303.815
303.73
303.745
303.852
301.295
301.254
301.226
301.248
301.268
301.295
301.305
301.338
301.347
301.405
301.405
301.388
301.364
301.335
301.323
301.296
301.271
301.256
301.254
301.297
319.858
319.407
319.113
319.06
319.36
319.613
320.029
320.504
320.913
321.1
321.217
321.165
320.73
320.307
320.024
319.512
319.095
318.855
318.9
319.358
317.085
316.764
316.51
316.488
316.765
316.985
317.344
317.798
318.17
318.284
318.416
318.377
318.006
317.649
317.44
316.984
316.612
316.407
316.432
316.802
314.382
314.128
313.954
313.924
314.194
314.352
314.693
315.089
315.406
315.49
315.598
315.553
315.267
314.982
314.816
314.439
314.096
313.925
313.934
314.226
311.736
311.533
311.434
311.395
311.635
311.746
312.005
312.343
312.607
312.676
312.78
312.736
312.542
312.307
312.163
311.865
311.55
311.427
311.417
311.64
309.106
308.94
308.908
308.854
309.09
309.131
309.335
309.612
309.812
309.863
309.942
309.897
309.799
309.594
309.472
309.268
308.993
308.922
308.889
309.044
306.49
306.371
306.379
306.325
306.514
306.518
306.669
306.858
307.01
307.053
307.114
307.052
307.029
306.871
306.787
306.645
306.44
306.387
306.355
306.454
303.885
303.822
303.835
303.803
303.923
303.909
303.994
304.123
304.211
304.236
304.281
304.209
304.25
304.15
304.103
303.996
303.867
303.827
303.81
303.869
301.306
301.286
301.295
301.272
301.313
301.316
301.341
301.384
301.408
301.429
301.432
301.405
301.421
301.405
301.381
301.345
301.296
301.282
301.28
301.294
320.272
319.881
319.678
319.73
319.948
320.178
320.568
321.077
321.532
321.89
321.781
321.55
321.408
320.96
320.61
320.026
319.737
319.537
319.481
319.797
317.495
317.153
316.989
317.065
317.273
317.455
317.811
318.283
318.679
319.013
318.929
318.72
318.608
318.23
317.969
317.424
317.194
317.013
316.956
317.204
314.749
314.483
314.358
314.437
314.61
314.772
315.069
315.482
315.828
316.137
316.054
315.879
315.785
315.472
315.263
314.798
314.619
314.451
314.409
314.578
312.034
311.831
311.747
311.815
311.962
312.079
312.325
312.688
312.993
313.218
313.146
313.013
312.959
312.694
312.536
312.147
312.019
311.846
311.83
311.926
309.346
309.193
309.132
309.191
309.3
309.398
309.58
309.89
310.15
310.284
310.235
310.145
310.101
309.894
309.778
309.477
309.379
309.223
309.214
309.276
306.653
306.557
306.511
306.573
306.626
306.711
306.829
307.076
307.261
307.338
307.301
307.241
307.221
307.08
306.981
306.795
306.726
306.598
306.594
306.638
303.984
303.927
303.904
303.956
303.968
304.032
304.103
304.251
304.351
304.412
304.384
304.35
304.328
304.253
304.194
304.101
304.045
303.969
303.972
303.992
301.337
301.324
301.294
301.33
301.33
301.352
301.369
301.421
301.458
301.485
301.469
301.464
301.453
301.426
301.412
301.387
301.365
301.337
301.337
301.348
320.849
320.52
320.295
320.218
320.523
320.799
321.325
321.673
322.154
322.544
322.479
322.377
322.129
321.653
321.204
320.796
320.271
320.117
320.157
320.43
317.976
317.723
317.548
317.499
317.782
318.029
318.501
318.818
319.261
319.576
319.52
319.45
319.251
318.827
318.459
318.086
317.642
317.504
317.544
317.751
315.14
314.947
314.819
314.812
315.04
315.244
315.68
315.974
316.347
316.609
316.561
316.503
316.345
315.974
315.67
315.344
314.972
314.868
314.885
315.037
312.343
312.187
312.09
312.109
312.327
312.481
312.827
313.117
313.397
313.637
313.579
313.55
313.411
313.107
312.846
312.576
312.304
312.208
312.224
312.324
309.578
309.442
309.399
309.417
309.596
309.715
309.983
310.224
310.454
310.643
310.589
310.574
310.45
310.217
310.01
309.794
309.612
309.503
309.554
309.604
306.834
306.729
306.72
306.735
306.864
306.941
307.135
307.3
307.505
307.606
307.568
307.583
307.488
307.307
307.153
306.996
306.877
306.812
306.844
306.865
304.099
304.045
304.055
304.053
304.119
304.165
304.292
304.368
304.525
304.56
304.551
304.561
304.506
304.395
304.285
304.192
304.131
304.093
304.113
304.124
301.375
301.355
301.358
301.356
301.383
301.39
301.435
301.457
301.522
301.535
301.535
301.527
301.512
301.473
301.434
301.408
301.382
301.376
301.379
301.377
321.56
321.246
320.951
320.949
321.198
321.47
321.872
322.273
322.782
323.211
323.255
323.113
322.722
322.269
321.75
321.303
320.884
320.734
320.847
321.237
318.6
318.35
318.1
318.137
318.355
318.614
318.959
319.303
319.791
320.17
320.196
320.112
319.742
319.365
318.925
318.531
318.171
318.026
318.14
318.462
315.667
315.487
315.266
315.333
315.529
315.762
316.051
316.359
316.783
317.115
317.128
317.047
316.745
316.43
316.071
315.72
315.411
315.305
315.395
315.663
312.792
312.642
312.478
312.535
312.701
312.908
313.158
313.418
313.762
314.048
314.03
313.988
313.732
313.478
313.206
312.861
312.628
312.557
312.63
312.829
309.938
309.817
309.695
309.74
309.885
310.049
310.269
310.468
310.724
310.937
310.931
310.912
310.696
310.516
310.297
309.997
309.847
309.786
309.857
309.985
307.092
307.005
306.924
306.964
307.043
307.18
307.346
307.507
307.693
307.83
307.813
307.799
307.642
307.539
307.361
307.147
307.035
306.99
307.047
307.131
304.257
304.194
304.17
304.184
304.225
304.3
304.414
304.523
304.632
304.706
304.7
304.686
304.594
304.542
304.4
304.295
304.218
304.196
304.215
304.282
301.429
301.406
301.391
301.402
301.426
301.442
301.49
301.517
301.549
301.567
301.579
301.577
301.534
301.523
301.47
301.443
301.413
301.414
301.413
301.43
322.376
321.97
321.665
321.695
321.858
322.122
322.581
322.939
323.353
323.697
323.924
323.803
323.312
322.901
322.293
321.851
321.562
321.496
321.586
321.715
319.318
319.009
318.721
318.783
318.954
319.189
319.605
319.901
320.27
320.595
320.788
320.717
320.29
319.934
319.381
318.99
318.76
318.712
318.783
318.876
316.296
316.065
315.832
315.879
316.02
316.27
316.605
316.871
317.181
317.486
317.636
317.608
317.209
316.915
316.438
316.117
315.937
315.891
315.938
316.02
313.301
313.116
312.938
312.997
313.114
313.364
313.59
313.829
314.092
314.34
314.445
314.454
314.085
313.89
313.483
313.219
313.08
313.017
313.047
313.153
310.34
310.178
310.069
310.116
310.231
310.411
310.563
310.743
310.976
311.163
311.263
311.261
310.974
310.851
310.525
310.314
310.21
310.135
310.171
310.253
307.392
307.251
307.185
307.238
307.332
307.45
307.547
307.657
307.837
307.979
308.077
308.042
307.844
307.783
307.541
307.371
307.327
307.244
307.292
307.334
304.445
304.325
304.298
304.337
304.422
304.493
304.536
304.597
304.693
304.788
304.865
304.838
304.708
304.687
304.546
304.426
304.42
304.353
304.398
304.402
301.497
301.447
301.443
301.449
301.485
301.512
301.516
301.539
301.576
301.603
301.63
301.618
301.573
301.574
301.525
301.486
301.48
301.458
301.473
301.483
322.923
322.632
322.375
322.401
322.491
322.801
323.167
323.485
324.03
324.255
324.402
324.362
324.021
323.506
322.948
322.519
322.326
322.223
322.243
322.329
319.814
319.593
319.349
319.405
319.49
319.735
320.077
320.387
320.864
321.068
321.197
321.184
320.886
320.454
319.955
319.568
319.411
319.328
319.335
319.41
316.721
316.558
316.348
316.416
316.497
316.711
316.991
317.265
317.676
317.844
317.981
317.986
317.719
317.36
316.94
316.602
316.477
316.406
316.421
316.479
313.649
313.531
313.37
313.431
313.491
313.68
313.91
314.149
314.494
314.628
314.736
314.744
314.536
314.262
313.909
313.613
313.518
313.49
313.465
313.547
310.584
310.543
310.391
310.452
310.5
310.646
310.84
311.012
311.292
311.394
311.489
311.477
311.336
311.129
310.83
310.63
310.529
310.531
310.494
310.576
307.55
307.547
307.415
307.457
307.509
307.605
307.776
307.874
308.079
308.152
308.228
308.203
308.121
307.968
307.748
307.616
307.516
307.525
307.519
307.584
304.517
304.546
304.442
304.45
304.513
304.588
304.682
304.739
304.847
304.883
304.949
304.905
304.887
304.808
304.668
304.601
304.498
304.517
304.541
304.562
301.515
301.524
301.479
301.486
301.508
301.558
301.579
301.597
301.628
301.63
301.661
301.636
301.648
301.609
301.567
301.549
301.509
301.523
301.525
301.535
323.747
323.429
323.051
322.974
323.065
323.427
323.942
324.118
324.626
324.914
324.807
324.938
324.508
324.089
323.576
323.261
323.098
322.95
323.001
323.038
320.519
320.276
319.953
319.899
319.985
320.327
320.785
320.952
321.416
321.641
321.534
321.694
321.31
320.945
320.497
320.231
320.105
319.96
320.021
320.047
317.32
317.141
316.876
316.832
316.912
317.215
317.627
317.746
318.151
318.351
318.258
318.435
318.09
317.765
317.377
317.167
317.084
316.946
316.996
317.033
314.148
314.031
313.824
313.773
313.834
314.111
314.423
314.552
314.87
315.059
314.967
315.114
314.853
314.562
314.256
314.086
314.028
313.91
313.94
313.992
310.994
310.932
310.755
310.73
310.738
310.971
311.223
311.352
311.606
311.737
311.686
311.775
311.56
311.352
311.104
310.962
310.948
310.826
310.876
310.907
307.86
307.817
307.675
307.66
307.648
307.863
308.025
308.132
308.302
308.407
308.369
308.417
308.266
308.118
307.939
307.846
307.838
307.751
307.795
307.8
304.723
304.712
304.61
304.606
304.592
304.719
304.814
304.897
304.991
305.064
305.037
305.049
304.976
304.869
304.761
304.718
304.715
304.669
304.684
304.67
301.586
301.587
301.542
301.546
301.543
301.579
301.618
301.645
301.671
301.703
301.699
301.702
301.677
301.63
301.607
301.58
301.58
301.564
301.573
301.575
324.502
324.027
323.711
323.732
323.792
324.152
324.499
324.852
325.165
325.418
325.253
325.444
325.202
324.798
324.291
324.022
323.575
323.521
323.711
323.759
321.196
320.793
320.531
320.569
320.627
320.951
321.273
321.615
321.886
322.083
321.923
322.127
321.904
321.558
321.089
320.912
320.516
320.443
320.629
320.656
317.918
317.589
317.366
317.415
317.46
317.742
318.021
318.35
318.577
318.722
318.587
318.808
318.567
318.271
317.881
317.764
317.424
317.358
317.526
317.531
314.63
314.371
314.217
314.252
314.294
314.53
314.768
315.045
315.249
315.351
315.221
315.446
315.21
314.973
314.66
314.572
314.299
314.26
314.376
314.376
311.349
311.198
311.065
311.092
311.137
311.312
311.52
311.74
311.879
311.981
311.872
312.023
311.832
311.673
311.418
311.356
311.135
311.131
311.205
311.192
308.103
307.997
307.922
307.929
307.978
308.089
308.247
308.416
308.502
308.562
308.498
308.593
308.451
308.351
308.144
308.13
307.951
307.979
308.02
308.006
304.868
304.812
304.78
304.773
304.785
304.862
304.963
305.046
305.107
305.155
305.107
305.167
305.093
305.028
304.898
304.891
304.778
304.796
304.819
304.814
301.628
301.611
301.602
301.593
301.612
301.632
301.66
301.68
301.713
301.728
301.71
301.736
301.716
301.682
301.641
301.641
301.615
301.605
301.622
301.605
325.1
324.784
324.541
324.492
324.522
324.805
325.008
325.397
325.779
325.839
325.88
325.842
325.562
325.427
324.887
324.641
324.326
324.141
324.349
324.607
321.7
321.439
321.239
321.221
321.258
321.5
321.701
322.054
322.397
322.442
322.497
322.444
322.228
322.133
321.651
321.435
321.155
321
321.162
321.42
318.312
318.133
317.947
317.958
318.001
318.205
318.382
318.699
319.004
319.032
319.077
319.045
318.869
318.772
318.389
318.189
317.963
317.842
317.948
318.204
314.96
314.857
314.668
314.687
314.733
314.903
315.052
315.338
315.603
315.592
315.642
315.622
315.473
315.393
315.093
314.929
314.72
314.659
314.712
314.946
311.633
311.563
311.414
311.43
311.474
311.619
311.731
311.971
312.175
312.171
312.155
312.197
312.056
311.997
311.763
311.66
311.457
311.425
311.465
311.649
308.3
308.258
308.154
308.18
308.198
308.315
308.392
308.584
308.737
308.717
308.698
308.743
308.64
308.586
308.423
308.359
308.184
308.172
308.207
308.353
304.977
304.966
304.897
304.922
304.923
305.009
305.049
305.18
305.252
305.238
305.238
305.261
305.207
305.164
305.059
305.039
304.901
304.915
304.926
305.033
301.666
301.665
301.645
301.647
301.636
301.68
301.696
301.743
301.762
301.762
301.754
301.764
301.755
301.736
301.702
301.698
301.639
301.641
301.661
301.687
325.921
325.625
325.297
325.189
325.276
325.505
325.677
326.008
326.382
326.486
326.438
326.312
326.006
325.743
325.516
325.244
325.064
324.882
325.059
325.341
322.448
322.191
321.918
321.842
321.915
322.148
322.27
322.605
322.946
323.035
322.985
322.865
322.605
322.394
322.203
321.982
321.809
321.64
321.791
322.031
318.972
318.772
318.534
318.504
318.559
318.772
318.854
319.179
319.467
319.538
319.494
319.4
319.178
319.019
318.855
318.675
318.524
318.37
318.505
318.678
315.502
315.361
315.142
315.158
315.199
315.36
315.436
315.74
315.946
316.022
315.976
315.909
315.744
315.612
315.462
315.332
315.202
315.048
315.181
315.308
312.059
311.959
311.767
311.818
311.824
311.966
312.01
312.287
312.41
312.5
312.468
312.412
312.286
312.173
312.064
311.934
311.85
311.742
311.826
311.919
308.63
308.549
308.411
308.455
308.443
308.554
308.576
308.81
308.872
308.954
308.935
308.905
308.812
308.73
308.63
308.539
308.475
308.4
308.435
308.51
305.172
305.138
305.055
305.081
305.054
305.145
305.165
305.285
305.333
305.383
305.385
305.365
305.299
305.241
305.191
305.146
305.091
305.058
305.079
305.111
301.731
301.722
301.688
301.702
301.687
301.73
301.729
301.766
301.779
301.793
301.805
301.793
301.777
301.762
301.743
301.741
301.707
301.7
301.71
301.715
326.617
326.32
326.07
325.931
325.985
326.198
326.263
326.536
326.881
326.952
326.956
326.789
326.604
326.359
326.133
325.904
325.797
325.55
325.68
325.895
323.046
322.795
322.602
322.505
322.532
322.743
322.792
323.039
323.373
323.425
323.432
323.287
323.099
322.932
322.738
322.524
322.443
322.214
322.31
322.508
319.471
319.27
319.139
319.052
319.088
319.266
319.314
319.539
319.834
319.866
319.871
319.771
319.603
319.438
319.3
319.122
319.053
318.858
318.94
319.075
315.93
315.759
315.671
315.585
315.645
315.763
315.855
316.023
316.265
316.289
316.301
316.219
316.098
315.916
315.845
315.687
315.651
315.466
315.533
315.635
312.38
312.26
312.205
312.152
312.181
312.265
312.369
312.488
312.676
312.683
312.718
312.657
312.552
312.4
312.363
312.217
312.205
312.055
312.111
312.176
308.835
308.748
308.724
308.704
308.699
308.746
308.864
308.915
309.065
309.081
309.095
309.068
308.982
308.871
308.859
308.755
308.746
308.628
308.645
308.71
305.301
305.237
305.22
305.238
305.225
305.235
305.324
305.361
305.447
305.465
305.468
305.451
305.401
305.33
305.33
305.276
305.253
305.187
305.183
305.23
301.77
301.752
301.746
301.747
301.754
301.754
301.778
301.808
301.825
301.84
301.838
301.828
301.818
301.787
301.791
301.765
301.76
301.741
301.749
301.759
327.388
327.098
326.713
326.694
326.61
326.79
326.95
326.96
327.24
327.374
327.461
327.397
327.187
326.93
326.73
326.457
326.345
326.313
326.36
326.544
323.698
323.465
323.135
323.138
323.076
323.243
323.404
323.407
323.669
323.765
323.876
323.821
323.658
323.415
323.223
323.007
322.916
322.887
322.904
323.055
320.037
319.863
319.583
319.581
319.543
319.684
319.827
319.845
320.074
320.161
320.242
320.186
320.089
319.867
319.714
319.52
319.475
319.431
319.412
319.522
316.393
316.239
316.029
316.031
316.009
316.128
316.242
316.248
316.466
316.535
316.612
316.526
316.469
316.297
316.173
316.015
315.986
315.913
315.897
315.983
312.765
312.628
312.475
312.471
312.479
312.537
312.66
312.637
312.842
312.892
312.949
312.874
312.862
312.705
312.614
312.461
312.446
312.387
312.38
312.422
309.142
309.016
308.885
308.921
308.936
308.954
309.049
309.037
309.202
309.235
309.276
309.205
309.212
309.101
309.046
308.912
308.91
308.843
308.836
308.876
305.495
305.415
305.31
305.361
305.367
305.383
305.451
305.446
305.532
305.547
305.583
305.545
305.538
305.462
305.452
305.352
305.353
305.291
305.308
305.336
301.846
301.821
301.775
301.798
301.8
301.803
301.837
301.832
301.851
301.871
301.866
301.858
301.855
301.834
301.829
301.788
301.801
301.778
301.778
301.8
328.155
327.801
327.398
327.45
327.227
327.366
327.529
327.618
327.752
327.748
327.852
327.809
327.735
327.517
327.241
327.034
326.939
326.934
327.131
327.259
324.38
324.104
323.748
323.8
323.629
323.722
323.905
323.965
324.099
324.118
324.224
324.194
324.133
323.93
323.683
323.48
323.431
323.423
323.595
323.688
320.625
320.411
320.093
320.139
319.994
320.097
320.268
320.285
320.45
320.448
320.556
320.528
320.494
320.313
320.098
319.919
319.89
319.869
320.011
320.08
316.851
316.709
316.442
316.473
316.373
316.468
316.61
316.618
316.774
316.759
316.865
316.834
316.813
316.667
316.501
316.323
316.331
316.309
316.408
316.443
313.093
313.016
312.789
312.811
312.714
312.827
312.919
312.943
313.064
313.043
313.14
313.116
313.108
313.003
312.892
312.714
312.74
312.716
312.787
312.786
309.36
309.304
309.142
309.163
309.073
309.188
309.225
309.263
309.361
309.312
309.395
309.393
309.398
309.328
309.255
309.082
309.107
309.1
309.16
309.143
305.622
305.581
305.482
305.516
305.442
305.528
305.548
305.552
305.64
305.602
305.665
305.638
305.645
305.63
305.559
305.463
305.469
305.465
305.503
305.509
301.879
301.871
301.838
301.859
301.819
301.855
301.859
301.847
301.885
301.879
301.899
301.885
301.89
301.886
301.868
301.839
301.828
301.824
301.848
301.845
328.816
328.533
328.074
328.179
327.88
327.926
328.007
328.137
328.252
328.31
328.394
328.366
328.256
328.137
327.894
327.557
327.537
327.694
327.767
327.96
324.943
324.723
324.336
324.436
324.163
324.221
324.329
324.419
324.532
324.584
324.683
324.654
324.55
324.478
324.23
323.937
323.946
324.077
324.128
324.288
321.075
320.902
320.611
320.672
320.471
320.531
320.625
320.673
320.806
320.848
320.94
320.9
320.819
320.784
320.546
320.317
320.332
320.432
320.474
320.573
317.209
317.109
316.881
316.894
316.737
316.804
316.891
316.933
317.072
317.084
317.166
317.115
317.063
317.037
316.842
316.65
316.682
316.774
316.799
316.817
313.366
313.31
313.15
313.145
312.998
313.063
313.154
313.18
313.298
313.309
313.385
313.338
313.294
313.279
313.141
312.991
313.01
313.075
313.105
313.055
309.535
309.512
309.423
309.381
309.277
309.333
309.43
309.412
309.529
309.5
309.598
309.544
309.516
309.497
309.41
309.308
309.318
309.353
309.4
309.31
305.73
305.711
305.666
305.622
305.564
305.597
305.678
305.665
305.74
305.706
305.781
305.739
305.719
305.734
305.651
305.614
305.622
305.612
305.671
305.581
301.931
301.906
301.901
301.879
301.854
301.887
301.907
301.895
301.935
301.915
301.937
301.928
301.912
301.935
301.899
301.889
301.89
301.885
301.91
301.866
329.45
329.132
328.675
328.733
328.598
328.62
328.57
328.702
328.823
328.817
328.987
328.82
328.682
328.552
328.272
328.131
328.143
328.232
328.439
328.636
325.468
325.235
324.853
324.907
324.817
324.82
324.795
324.907
325.015
325.049
325.169
325.061
324.95
324.846
324.562
324.44
324.434
324.538
324.709
324.853
321.519
321.351
321.009
321.074
321.038
321.009
321.005
321.089
321.194
321.247
321.33
321.255
321.156
321.116
320.851
320.726
320.724
320.824
320.97
321.054
317.613
317.479
317.188
317.228
317.228
317.201
317.199
317.272
317.367
317.445
317.476
317.441
317.375
317.338
317.103
316.979
316.985
317.055
317.197
317.259
313.726
313.59
313.384
313.404
313.406
313.401
313.385
313.439
313.534
313.626
313.624
313.587
313.568
313.529
313.338
313.227
313.218
313.273
313.39
313.451
309.818
309.722
309.558
309.573
309.561
309.594
309.563
309.603
309.675
309.762
309.753
309.729
309.694
309.679
309.543
309.454
309.44
309.485
309.578
309.639
305.896
305.845
305.74
305.763
305.74
305.777
305.737
305.752
305.816
305.888
305.85
305.864
305.82
305.824
305.742
305.673
305.681
305.703
305.764
305.808
301.973
301.962
301.919
301.925
301.922
301.945
301.919
301.934
301.952
301.986
301.968
301.973
301.949
301.954
301.92
301.894
301.914
301.917
301.938
301.951
329.914
329.565
329.191
329.177
329.014
329.02
329.036
329.1
329.133
329.242
329.284
329.108
329.079
328.929
328.604
328.554
328.583
328.613
328.853
329.087
325.865
325.592
325.236
325.279
325.147
325.165
325.172
325.243
325.295
325.383
325.423
325.279
325.264
325.123
324.846
324.795
324.796
324.854
325.043
325.227
321.875
321.626
321.319
321.383
321.259
321.319
321.328
321.377
321.449
321.508
321.534
321.415
321.438
321.304
321.046
321.011
321.003
321.07
321.212
321.386
317.917
317.7
317.429
317.49
317.386
317.446
317.466
317.519
317.583
317.616
317.654
317.564
317.589
317.442
317.232
317.219
317.205
317.245
317.376
317.513
313.953
313.742
313.557
313.578
313.502
313.579
313.599
313.651
313.702
313.735
313.744
313.687
313.724
313.567
313.396
313.402
313.409
313.437
313.541
313.635
309.978
309.808
309.696
309.693
309.621
309.694
309.728
309.763
309.793
309.831
309.841
309.783
309.829
309.681
309.582
309.573
309.593
309.626
309.686
309.762
305.999
305.895
305.814
305.804
305.773
305.825
305.848
305.87
305.887
305.918
305.915
305.892
305.914
305.812
305.767
305.744
305.771
305.784
305.821
305.871
302.015
301.974
301.942
301.947
301.927
301.951
301.959
301.965
301.972
301.989
301.982
301.975
301.98
301.952
301.934
301.927
301.942
301.935
301.957
301.975
)
;

boundaryField
{
    hotSide
    {
        type            fixedGradient;
        gradient        nonuniform List<scalar> 
400
(
215.551
215.924
217.512
220.281
224.115
228.841
234.278
240.257
246.641
253.321
260.216
267.27
274.441
281.708
289.057
296.49
304.011
311.631
319.359
327.199
206.866
207.345
209.122
212.159
216.311
221.377
227.147
233.435
240.092
247.006
254.095
261.302
268.591
275.941
283.345
290.809
298.345
305.969
313.696
321.535
201.436
202.134
204.117
207.34
211.661
216.878
222.781
229.184
235.935
242.921
250.057
257.287
264.575
271.904
279.269
286.68
294.151
301.703
309.353
317.113
199.053
200.078
202.287
205.636
210
215.207
221.069
227.414
234.096
241.001
248.044
255.169
262.34
269.54
276.77
284.038
291.362
298.763
306.26
313.865
198.903
200.316
202.785
206.263
210.647
215.793
221.544
227.746
234.264
240.989
247.837
254.753
261.704
268.677
275.675
282.71
289.803
296.975
304.246
311.631
200.058
201.884
204.654
208.315
212.773
217.907
223.577
229.645
235.986
242.494
249.092
255.73
262.382
269.043
275.724
282.445
289.23
296.104
303.089
310.203
201.755
203.998
207.105
211.015
215.638
220.856
226.535
232.541
238.748
245.055
251.39
257.712
264.01
270.294
276.591
282.932
289.351
295.878
302.539
309.353
203.407
206.049
209.513
213.73
218.604
224.01
229.808
235.85
242.001
248.154
254.24
260.233
266.146
272.015
277.887
283.813
289.839
296.002
302.331
308.844
204.551
207.545
211.349
215.893
221.071
226.746
232.758
238.934
245.114
251.174
257.046
262.725
268.255
273.707
279.159
284.683
290.336
296.162
302.191
308.44
204.821
208.071
212.147
216.974
222.442
228.402
234.669
241.039
247.315
253.347
259.065
264.487
269.696
274.802
279.912
285.116
290.481
296.055
301.865
307.928
203.955
207.319
211.535
216.527
222.182
228.341
234.806
241.345
247.734
253.798
259.465
264.768
269.818
274.75
279.692
284.744
289.977
295.439
301.158
307.148
201.849
205.152
209.333
214.318
219.989
226.185
232.703
239.308
245.774
251.923
257.68
263.075
268.214
273.231
278.251
283.375
288.676
294.202
299.984
306.036
198.592
201.661
205.64
210.452
215.98
222.062
228.502
235.082
241.594
247.881
253.862
259.547
265.009
270.351
275.681
281.09
286.648
292.406
298.396
304.638
194.483
197.18
200.838
205.38
210.687
216.601
222.931
229.481
236.066
242.544
248.833
254.915
260.824
266.629
272.407
278.233
284.174
290.279
296.586
303.116
190.02
192.259
195.54
199.794
204.896
210.683
216.964
223.55
230.269
236.984
243.61
250.107
256.482
262.77
269.025
275.307
281.674
288.175
294.848
301.72
185.911
187.651
190.555
194.557
199.522
205.266
211.586
218.282
225.183
232.152
239.098
245.97
252.756
259.473
266.157
272.856
279.622
286.503
293.541
300.76
183.098
184.346
186.901
190.699
195.585
201.344
207.743
214.569
221.642
228.827
236.028
243.191
250.294
257.342
264.362
271.394
278.487
285.691
293.047
300.58
182.723
183.544
185.784
189.387
194.173
199.899
206.311
213.181
220.329
227.62
234.961
242.293
249.592
256.855
264.102
271.368
278.7
286.146
293.747
301.528
185.8
186.318
188.275
191.618
196.172
201.693
207.929
214.657
221.701
228.931
236.253
243.61
250.972
258.33
265.698
273.103
280.586
288.191
295.954
303.895
192.63
192.986
194.686
197.686
201.843
206.95
212.789
219.16
225.902
232.888
240.029
247.264
254.558
261.896
269.284
276.739
284.29
291.97
299.806
307.811
)
;
    }
    coldSide
    {
        type            mixed;
        refValue        uniform 300;
        refGradient     uniform 0;
        valueFraction   uniform 0.991591;
        source          uniform 0;
        value           nonuniform List<scalar> 
400
(
300.01
300.011
300.011
300.011
300.011
300.011
300.012
300.012
300.013
300.013
300.013
300.014
300.014
300.015
300.015
300.016
300.016
300.016
300.017
300.017
300.01
300.01
300.01
300.011
300.011
300.011
300.011
300.012
300.012
300.013
300.013
300.014
300.014
300.014
300.015
300.015
300.016
300.016
300.016
300.017
300.01
300.01