/*--------------------------------*- C++ -*----------------------------------*\
| =========                 |                                                 |
| \\      /  F ield         | OpenFOAM: The Open Source CFD Toolbox           |
|  \\    /   O peration     | Version:  2212                                  |
|   \\  /    A nd           | Website:  www.openfoam.com                      |
|    \\/     M anipulation  |                                                 |
\*---------------------------------------------------------------------------*/
FoamFile
{
    version     2.0;
    format      ascii;
    arch        "LSB;label=32;scalar=64";
    class       volScalarField;
    location    "0";
    object      T;
}
// * * * * * * * * * * * * * * * * * * * * * * * * * * * * * * * * * * * * * //

dimensions      [0 0 0 1 0 0 0];

internalField   nonuniform List<scalar> 
3200
(
354.064
352.492
351.163
350.614
350.655
350.994
351.529
352.002
352.435
352.57
352.425
351.775
350.994
350.021
348.959
347.771
347.337
347.112
348.041
349.332
346.805
345.498
344.394
343.906
343.991
344.288
344.774
345.194
345.55
345.678
345.57
345.018
344.325
343.516
342.568
341.541
341.163
340.946
341.801
342.849
339.554
338.475
337.607
337.181
337.305
337.533
337.977
338.334
338.621
338.755
338.658
338.218
337.607
336.919
336.101
335.247
334.944
334.747
335.462
336.332
332.326
331.455
330.811
330.45
330.585
330.761
331.133
331.406
331.651
331.785
331.684
331.354
330.843
330.276
329.594
328.916
328.671
328.502
329.074
329.782
325.133
324.445
324.003
323.704
323.822
323.959
324.244
324.46
324.654
324.758
324.68
324.45
324.039
323.59
323.047
322.563
322.35
322.211
322.67
323.211
317.944
317.438
317.168
316.959
317.03
317.131
317.319
317.495
317.631
317.727
317.654
317.486
317.213
316.885
316.471
316.155
316.007
315.884
316.22
316.596
310.772
310.462
310.332
310.202
310.226
310.292
310.414
310.517
310.588
310.657
310.609
310.502
310.368
310.143
309.89
309.727
309.631
309.55
309.744
309.999
303.6
303.508
303.462
303.428
303.424
303.448
303.481
303.539
303.55
303.571
303.557
303.517
303.483
303.395
303.319
303.257
303.228
303.201
303.257
303.351
354.269
352.67
351.436
350.93
351.053
351.399
352.088
352.564
352.92
353.279
353.042
352.462
351.588
350.713
349.469
348.365
347.666
347.55
348.275
349.59
347.02
345.68
344.639
344.191
344.307
344.614
345.226
345.637
345.947
346.31
346.079
345.555
344.828
344.059
343.024
342.05
341.463
341.356
341.994
343.081
339.769
338.666
337.793
337.447
337.544
337.804
338.304
338.675
338.913
339.279
339.081
338.616
338.003
337.367
336.505
335.676
335.196
335.116
335.638
336.517
332.524
331.635
330.948
330.683
330.76
330.976
331.355
331.668
331.871
332.216
332.027
331.651
331.169
330.653
329.932
329.259
328.878
328.817
329.231
329.931
325.306
324.617
324.095
323.873
323.966
324.126
324.391
324.68
324.808
325.105
324.945
324.65
324.267
323.898
323.312
322.811
322.518
322.477
322.789
323.292
318.087
317.608
317.232
317.065
317.141
317.251
317.432
317.666
317.731
317.953
317.84
317.639
317.354
317.089
316.678
316.314
316.115
316.095
316.302
316.656
310.858
310.59
310.368
310.275
310.297
310.355
310.478
310.606
310.656
310.79
310.733
310.611
310.43
310.266
310.036
309.794
309.68
309.676
309.793
310.016
303.641
303.548
303.475
303.446
303.44
303.473
303.516
303.545
303.578
303.62
303.6
303.566
303.503
303.446
303.366
303.291
303.25
303.24
303.286
303.35
354.782
353.281
352.037
351.571
351.709
352.247
352.926
353.437
353.893
354.202
354.112
353.49
352.74
351.601
350.401
349.214
348.509
348.266
348.925
350.15
347.449
346.184
345.148
344.742
344.88
345.363
345.952
346.402
346.807
347.08
347.004
346.436
345.824
344.848
343.807
342.803
342.191
341.993
342.549
343.58
340.142
339.092
338.233
337.892
338.017
338.427
338.946
339.339
339.641
339.915
339.878
339.362
338.846
338.049
337.173
336.313
335.823
335.63
336.107
336.944
332.819
331.977
331.321
331.04
331.143
331.487
331.89
332.244
332.46
332.719
332.67
332.245
331.827
331.191
330.501
329.759
329.37
329.238
329.604
330.271
325.522
324.891
324.403
324.166
324.246
324.523
324.836
325.123
325.261
325.484
325.44
325.089
324.764
324.287
323.766
323.182
322.878
322.799
323.07
323.572
318.227
317.791
317.459
317.266
317.347
317.536
317.75
317.952
318.063
318.236
318.174
317.917
317.702
317.339
316.987
316.598
316.342
316.314
316.492
316.856
310.938
310.689
310.488
310.37
310.445
310.551
310.674
310.783
310.847
310.968
310.908
310.76
310.635
310.42
310.216
309.979
309.809
309.803
309.922
310.119
303.667
303.582
303.529
303.473
303.507
303.535
303.582
303.62
303.632
303.678
303.661
303.617
303.573
303.488
303.423
303.35
303.282
303.285
303.324
303.39
355.59
354.097
352.968
352.524
352.641
353.26
353.882
354.617
355.148
355.505
355.458
354.975
354.012
352.897
351.675
350.31
349.49
349.264
349.951
351.103
348.148
346.908
345.937
345.59
345.701
346.254
346.756
347.4
347.875
348.181
348.165
347.739
346.919
345.97
344.91
343.751
343.021
342.848
343.437
344.394
340.713
339.715
338.884
338.626
338.723
339.202
339.615
340.145
340.576
340.822
340.832
340.454
339.783
338.998
338.099
337.129
336.503
336.366
336.851
337.622
333.305
332.501
331.822
331.652
331.728
332.114
332.449
332.86
333.228
333.446
333.465
333.12
332.615
331.965
331.238
330.451
329.941
329.829
330.222
330.817
325.919
325.297
324.757
324.631
324.724
325.006
325.268
325.57
325.839
326.019
326.058
325.783
325.404
324.902
324.315
323.72
323.334
323.271
323.551
323.993
318.525
318.091
317.699
317.619
317.684
317.857
318.083
318.281
318.455
318.59
318.631
318.429
318.162
317.814
317.396
316.965
316.698
316.665
316.847
317.152
311.122
310.87
310.626
310.578
310.637
310.736
310.871
310.995
311.078
311.188
311.191
311.066
310.929
310.713
310.468
310.201
310.047
310.024
310.109
310.318
303.727
303.65
303.565
303.541
303.561
303.599
303.646
303.7
303.718
303.757
303.746
303.711
303.665
303.601
303.524
303.425
303.366
303.366
303.375
303.451
356.641
355.195
354.105
353.668
353.843
354.426
355.05
355.999
356.555
356.975
356.846
356.399
355.519
354.323
353.123
351.784
350.962
350.703
351.339
352.289
349.072
347.867
346.936
346.552
346.73
347.245
347.796
348.608
349.109
349.464
349.368
348.982
348.244
347.215
346.199
345.025
344.298
344.101
344.671
345.4
341.504
340.548
339.743
339.441
339.61
340.013
340.519
341.192
341.629
341.904
341.848
341.524
340.917
340.057
339.215
338.224
337.564
337.418
337.907
338.475
333.951
333.187
332.538
332.292
332.441
332.769
333.194
333.748
334.111
334.305
334.292
334.021
333.533
332.842
332.167
331.365
330.784
330.696
331.098
331.498
326.418
325.825
325.314
325.135
325.259
325.516
325.857
326.285
326.568
326.676
326.703
326.516
326.102
325.59
325.078
324.439
324
323.935
324.23
324.488
318.885
318.461
318.088
317.967
318.044
318.235
318.488
318.811
319.017
319.052
319.074
318.961
318.671
318.325
317.955
317.487
317.177
317.136
317.308
317.488
311.354
311.073
310.865
310.796
310.85
310.958
311.103
311.311
311.434
311.444
311.444
311.405
311.229
311.015
310.81
310.529
310.342
310.276
310.389
310.507
303.807
303.713
303.641
303.619
303.646
303.668
303.727
303.801
303.839
303.831
303.841
303.818
303.764
303.688
303.634
303.538
303.472
303.434
303.473
303.518
357.908
356.538
355.522
355.033
355.231
355.756
356.591
357.405
358.05
358.55
358.61
358.207
357.18
355.964
354.691
353.445
352.606
352.423
352.885
353.829
350.163
349.069
348.157
347.742
347.916
348.353
349.111
349.842
350.386
350.837
350.891
350.515
349.667
348.622
347.523
346.466
345.742
345.6
345.974
346.749
342.432
341.56
340.782
340.439
340.579
340.945
341.608
342.26
342.696
343.083
343.141
342.796
342.106
341.227
340.279
339.434
338.82
338.677
338.997
339.62
334.698
334.035
333.388
333.136
333.229
333.517
334.082
334.646
334.983
335.292
335.338
335.059
334.499
333.779
333.025
332.329
331.831
331.71
331.982
332.45
326.984
326.509
325.997
325.822
325.847
326.09
326.545
327.001
327.243
327.493
327.505
327.306
326.867
326.321
325.729
325.197
324.815
324.704
324.927
325.261
319.287
318.958
318.592
318.486
318.486
318.661
318.968
319.333
319.488
319.654
319.65
319.521
319.195
318.834
318.406
318.019
317.759
317.664
317.816
318.059
311.583
311.377
311.161
311.109
311.108
311.207
311.393
311.636
311.727
311.814
311.795
311.737
311.522
311.316
311.045
310.837
310.684
310.613
310.71
310.856
303.89
303.811
303.739
303.713
303.727
303.761
303.813
303.894
303.926
303.961
303.943
303.949
303.855
303.802
303.704
303.64
303.585
303.562
303.596
303.642
359.419
358.163
357.065
356.718
356.848
357.271
358.177
358.964
359.663
360.234
360.307
359.998
358.902
357.723
356.438
355.312
354.434
354.212
354.698
355.51
351.459
350.453
349.498
349.209
349.307
349.708
350.507
351.184
351.778
352.29
352.359
352.089
351.147
350.148
349.025
348.061
347.322
347.12
347.561
348.218
343.528
342.738
341.938
341.671
341.748
342.102
342.784
343.388
343.885
344.293
344.374
344.141
343.325
342.505
341.575
340.759
340.148
339.984
340.36
340.873
335.611
334.994
334.325
334.121
334.201
334.465
335.035
335.556
335.966
336.271
336.371
336.163
335.48
334.836
334.089
333.402
332.928
332.78
333.099
333.483
327.695
327.25
326.71
326.553
326.62
326.831
327.271
327.687
328.025
328.253
328.34
328.147
327.62
327.14
326.562
326.007
325.657
325.522
325.807
326.081
319.779
319.491
319.097
318.962
319.024
319.204
319.503
319.811
320.044
320.216
320.291
320.118
319.738
319.423
319.013
318.591
318.381
318.243
318.455
318.658
311.874
311.705
311.479
311.395
311.432
311.535
311.715
311.897
312.056
312.157
312.192
312.088
311.857
311.678
311.437
311.156
311.05
310.957
311.085
311.214
303.973
303.925
303.844
303.821
303.837
303.869
303.926
303.98
304.054
304.075
304.086
304.056
303.978
303.924
303.828
303.732
303.711
303.672
303.724
303.753
360.852
359.747
358.807
358.574
358.557
358.984
359.773
360.585
361.325
361.978
362.126
361.782
360.757
359.58
358.339
357.196
356.304
356.195
356.591
357.329
352.71
351.798
351.017
350.821
350.83
351.2
351.857
352.593
353.237
353.807
353.947
353.651
352.753
351.731
350.675
349.69
348.927
348.857
349.197
349.765
344.57
343.838
343.208
343.041
343.068
343.376
343.912
344.567
345.131
345.583
345.707
345.479
344.698
343.852
342.95
342.128
341.509
341.457
341.725
342.175
336.473
335.891
335.379
335.256
335.279
335.512
335.957
336.508
336.977
337.324
337.426
337.257
336.603
335.933
335.182
334.515
334.008
333.992
334.202
334.529
328.371
327.935
327.541
327.468
327.462
327.649
327.98
328.438
328.77
329.054
329.13
329.015
328.497
327.961
327.41
326.888
326.472
326.466
326.647
326.883
320.269
319.971
319.675
319.661
319.657
319.779
320.003
320.349
320.551
320.769
320.855
320.74
320.374
320.001
319.632
319.238
318.941
318.94
319.063
319.219
312.18
311.996
311.825
311.827
311.799
311.867
312.023
312.245
312.346
312.487
312.541
312.472
312.243
312.018
311.803
311.544
311.386
311.381
311.463
311.541
304.086
304.031
303.97
303.964
303.952
303.98
304.037
304.108
304.134
304.195
304.219
304.176
304.102
304.03
303.961
303.871
303.812
303.822
303.853
303.868
362.584
361.577
360.65
360.348
360.208
360.745
361.508
362.417
363.199
363.761
363.955
363.578
362.571
361.476
360.143
359.134
358.2
358.226
358.551
359.309
354.214
353.371
352.594
352.378
352.256
352.681
353.362
354.18
354.869
355.333
355.5
355.199
354.339
353.384
352.242
351.396
350.587
350.598
350.853
351.476
345.88
345.166
344.515
344.364
344.261
344.622
345.207
345.896
346.5
346.866
347.029
346.79
346.053
345.235
344.277
343.598
342.892
342.9
343.121
343.591
337.535
336.977
336.451
336.331
336.242
336.532
337.025
337.581
338.078
338.365
338.515
338.333
337.744
337.066
336.257
335.744
335.145
335.163
335.346
335.689
329.195
328.778
328.369
328.27
328.215
328.421
328.822
329.253
329.635
329.864
329.984
329.858
329.391
328.872
328.238
327.873
327.369
327.398
327.542
327.769
320.877
320.579
320.266
320.216
320.19
320.321
320.604
320.915
321.172
321.371
321.445
321.358
321.019
320.65
320.197
319.951
319.575
319.609
319.724
319.83
312.567
312.361
312.166
312.154
312.147
312.206
312.391
312.577
312.706
312.844
312.896
312.82
312.64
312.405
312.128
311.986
311.753
311.785
311.853
311.902
304.22
304.143
304.073
304.069
304.086
304.087
304.154
304.221
304.252
304.304
304.326
304.3
304.241
304.151
304.063
304.022
303.943
303.947
303.98
303.993
364.465
363.309
362.53
362.144
362.148
362.429
363.218
364.121
364.942
365.459
365.657
365.489
364.491
363.299
362.102
361.164
360.353
360.337
360.616
361.394
355.844
354.884
354.229
353.893
353.919
354.147
354.861
355.64
356.389
356.8
357.001
356.849
355.987
354.971
353.956
353.152
352.443
352.439
352.644
353.295
347.261
346.464
345.905
345.615
345.666
345.859
346.477
347.129
347.785
348.089
348.278
348.164
347.435
346.603
345.747
345.06
344.459
344.49
344.625
345.162
338.656
338.024
337.577
337.328
337.369
337.57
338.076
338.585
339.128
339.359
339.525
339.452
338.862
338.175
337.518
336.926
336.444
336.462
336.593
336.975
330.063
329.578
329.232
329.034
329.064
329.253
329.649
330.011
330.459
330.631
330.763
330.715
330.264
329.723
329.219
328.754
328.391
328.401
328.52
328.785
321.45
321.131
320.88
320.757
320.767
320.908
321.222
321.456
321.778
321.915
322.001
321.954
321.652
321.237
320.89
320.546
320.32
320.309
320.422
320.576
312.872
312.683
312.528
312.465
312.472
312.554
312.765
312.898
313.063
313.18
313.225
313.199
313.015
312.759
312.536
312.329
312.218
312.211
312.269
312.347
304.304
304.249
304.187
304.187
304.184
304.204
304.277
304.323
304.371
304.431
304.437
304.429
304.367
304.278
304.191
304.129
304.092
304.106
304.116
304.137
366.425
365.331
364.447
363.988
364.051
364.288
365.036
365.876
366.64
367.08
367.305
367.028
366.244
365.15
364.014
363.047
362.432
362.361
362.778
363.647
357.545
356.667
355.875
355.538
355.569
355.755
356.433
357.171
357.843
358.209
358.427
358.179
357.516
356.566
355.606
354.751
354.258
354.163
354.541
355.294
348.66
347.961
347.309
347.045
347.079
347.223
347.788
348.424
349.008
349.292
349.514
349.287
348.756
347.92
347.135
346.41
346.017
345.938
346.25
346.867
339.802
339.241
338.724
338.506
338.544
338.67
339.126
339.652
340.144
340.361
340.573
340.367
339.961
339.26
338.63
338.051
337.747
337.657
337.909
338.383
330.936
330.515
330.116
329.974
329.999
330.092
330.46
330.87
331.245
331.419
331.599
331.434
331.116
330.566
330.099
329.642
329.409
329.333
329.525
329.855
322.083
321.815
321.521
321.417
321.432
321.498
321.792
322.083
322.337
322.445
322.595
322.491
322.237
321.852
321.518
321.224
321.041
320.987
321.12
321.336
313.262
313.103
312.93
312.866
312.881
312.926
313.1
313.271
313.424
313.484
313.573
313.498
313.351
313.126
312.933
312.762
312.626
312.618
312.708
312.819
304.453
304.394
304.328
304.31
304.307
304.338
304.397
304.452
304.504
304.516
304.554
304.517
304.462
304.402
304.337
304.294
304.232
304.23
304.265
304.298
368.388
367.335
366.41
365.981
365.931
366.308
366.776
367.593
368.205
368.703
368.873
368.615
367.889
366.959
365.988
365.053
364.541
364.529
364.893
365.71
359.263
358.349
357.612
357.227
357.173
357.528
357.938
358.668
359.182
359.604
359.795
359.567
358.959
358.143
357.323
356.523
356.067
356.06
356.372
357.059
350.134
349.377
348.796
348.456
348.418
348.723
349.083
349.695
350.136
350.497
350.663
350.481
349.934
349.294
348.592
347.941
347.541
347.545
347.834
348.37
341.007
340.415
339.942
339.663
339.639
339.892
340.213
340.701
341.056
341.37
341.489
341.361
340.906
340.41
339.825
339.301
338.968
338.998
339.228
339.636
331.881
331.445
331.065
330.871
330.839
331.044
331.305
331.705
331.963
332.209
332.302
332.193
331.845
331.46
331.038
330.626
330.374
330.383
330.552
330.874
322.777
322.47
322.197
322.07
322.043
322.203
322.383
322.679
322.826
323.034
323.099
323.007
322.765
322.466
322.207
321.905
321.738
321.735
321.848
322.081
313.677
313.5
313.331
313.26
313.254
313.354
313.454
313.628
313.703
313.854
313.87
313.817
313.675
313.469
313.348
313.149
313.066
313.08
313.128
313.269
304.589
304.518
304.469
304.445
304.444
304.486
304.509
304.575
304.595
304.655
304.652
304.636
304.578
304.511
304.471
304.408
304.383
304.385
304.399
304.445
370.441
369.296
368.415
367.969
367.833
368.093
368.554
369.205
369.682
370.19
370.288
370.133
369.555
368.626
367.807
367.11
366.629
366.599
367.111
367.732
361.057
360.072
359.316
358.95
358.83
359.087
359.506
360.071
360.479
360.92
361.007
360.899
360.401
359.589
358.875
358.293
357.886
357.851
358.298
358.815
351.673
350.845
350.201
349.926
349.817
350.052
350.426
350.896
351.245
351.586
351.679
351.631
351.208
350.508
349.9
349.394
349.09
349.06
349.426
349.83
342.275
341.616
341.057
340.865
340.775
340.992
341.305
341.686
341.957
342.242
342.322
342.326
341.95
341.415
340.886
340.477
340.249
340.209
340.517
340.824
332.888
332.374
331.924
331.779
331.724
331.92
332.176
332.472
332.668
332.88
332.957
332.978
332.653
332.27
331.86
331.511
331.355
331.315
331.558
331.794
323.487
323.144
322.799
322.72
322.669
322.827
322.995
323.218
323.357
323.504
323.565
323.6
323.353
323.104
322.801
322.527
322.425
322.401
322.572
322.756
314.104
313.903
313.678
313.649
313.597
313.716
313.826
313.949
314.035
314.109
314.15
314.178
314.028
313.883
313.705
313.551
313.497
313.48
313.588
313.698
304.722
304.672
304.586
304.569
304.55
304.589
304.636
304.681
304.706
304.719
304.743
304.754
304.696
304.651
304.592
304.539
304.525
304.522
304.557
304.6
372.298
371.22
370.313
369.833
369.682
369.886
370.263
370.914
371.258
371.674
371.725
371.678
371.141
370.375
369.7
369.087
368.696
368.741
369.293
369.878
362.644
361.74
360.988
360.595
360.429
360.622
360.958
361.547
361.813
362.206
362.248
362.208
361.784
361.134
360.533
360.005
359.668
359.722
360.198
360.666
352.99
352.252
351.65
351.326
351.169
351.35
351.638
352.131
352.362
352.682
352.733
352.687
352.362
351.833
351.299
350.858
350.574
350.646
351.042
351.402
343.351
342.756
342.268
342.041
341.896
342.048
342.291
342.711
342.853
343.14
343.215
343.144
342.901
342.458
342.022
341.686
341.445
341.499
341.845
342.104
333.734
333.266
332.86
332.729
332.603
332.733
332.922
333.253
333.345
333.601
333.674
333.587
333.417
333.089
332.723
332.456
332.291
332.337
332.589
332.78
324.109
323.76
323.461
323.407
323.301
323.388
323.526
323.782
323.831
324.038
324.079
324.023
323.91
323.672
323.412
323.213
323.108
323.122
323.296
323.432
314.472
314.266
314.101
314.07
314.004
314.056
314.13
314.29
314.321
314.454
314.478
314.419
314.391
314.218
314.066
313.942
313.892
313.877
313.992
314.081
304.854
304.778
304.73
304.714
304.7
304.709
304.729
304.794
304.787
304.851
304.864
304.826
304.839
304.781
304.712
304.674
304.653
304.651
304.697
304.731
374.371
373.28
372.419
371.836
371.656
371.75
371.994
372.462
372.901
373.24
373.336
373.208
372.845
372.162
371.547
370.888
370.714
370.855
371.291
372.11
364.44
363.527
362.813
362.31
362.157
362.273
362.474
362.871
363.271
363.543
363.663
363.554
363.266
362.662
362.16
361.567
361.4
361.57
361.912
362.584
354.529
353.774
353.169
352.778
352.641
352.766
352.917
353.248
353.596
353.845
353.947
353.847
353.621
353.094
352.699
352.193
352.029
352.212
352.504
353.044
344.622
343.981
343.492
343.187
343.127
343.197
343.338
343.587
343.868
344.086
344.193
344.104
343.918
343.488
343.186
342.775
342.622
342.791
343.059
343.441
334.716
334.206
333.824
333.591
333.565
333.628
333.734
333.926
334.128
334.315
334.419
334.334
334.189
333.854
333.641
333.306
333.173
333.342
333.541
333.808
324.825
324.444
324.153
324.02
323.981
324.033
324.124
324.259
324.386
324.528
324.624
324.555
324.432
324.21
324.059
323.812
323.722
323.861
323.978
324.174
314.915
314.672
314.503
314.419
314.395
314.44
314.497
314.571
314.629
314.735
314.802
314.754
314.674
314.552
314.451
314.303
314.253
314.337
314.409
314.532
304.99
304.92
304.863
304.827
304.834
304.836
304.871
304.886
304.903
304.935
304.955
304.955
304.915
304.886
304.835
304.789
304.773
304.813
304.831
304.885
376.521
375.285
374.254
373.797
373.652
373.633
373.898
374.165
374.537
374.82
374.856
374.687
374.373
373.762
373.353
372.95
372.777
372.962
373.421
374.121
366.314
365.266
364.375
363.989
363.889
363.862
364.113
364.36
364.684
364.956
364.98
364.855
364.572
364.04
363.708
363.356
363.182
363.377
363.78
364.331
356.096
355.233
354.497
354.18
354.109
354.075
354.296
354.529
354.793
355.045
355.051
354.954
354.713
354.273
353.98
353.701
353.514
353.744
354.079
354.497
345.888
345.199
344.605
344.369
344.287
344.29
344.456
344.676
344.861
345.102
345.095
345.004
344.814
344.459
344.215
344.015
343.806
344.053
344.314
344.641
335.699
335.163
334.732
334.53
334.45
334.463
334.598
334.776
334.923
335.09
335.107
335.038
334.889
334.595
334.422
334.266
334.103
334.319
334.504
334.769
325.511
325.133
324.836
324.678
324.619
324.644
324.736
324.843
324.96
325.094
325.097
325.045
324.954
324.733
324.606
324.492
324.376
324.542
324.657
324.866
315.324
315.077
314.917
314.825
314.787
314.801
314.852
314.909
315.007
315.071
315.086
315.039
314.989
314.857
314.79
314.722
314.652
314.761
314.818
314.932
305.127
305.038
305.001
304.973
304.959
304.966
304.983
304.992
305.025
305.055
305.065
305.039
305.018
304.985
304.951
304.943
304.912
304.955
304.962
305.007
378.385
377.361
376.358
375.757
375.469
375.36
375.483
375.718
376.113
376.285
376.413
376.262
375.935
375.447
375.04
374.823
374.696
374.915
375.462
376.079
367.902
367.044
366.211
365.68
365.467
365.368
365.494
365.702
366.049
366.189
366.332
366.215
365.915
365.495
365.162
364.963
364.863
365.061
365.523
366.03
357.43
356.715
356.045
355.627
355.412
355.375
355.463
355.629
355.954
356.084
356.207
356.096
355.863
355.473
355.224
355.062
354.965
355.137
355.52
355.945
346.978
346.4
345.907
345.559
345.369
345.352
345.41
345.511
345.834
345.949
346.033
345.962
345.77
345.426
345.246
345.107
345.029
345.177
345.477
345.804
336.514
336.089
335.72
335.476
335.323
335.323
335.345
335.397
335.687
335.797
335.834
335.786
335.641
335.337
335.236
335.107
335.06
335.189
335.42
335.645
326.097
325.785
325.525
325.373
325.239
325.272
325.279
325.276
325.522
325.604
325.597
325.582
325.488
325.246
325.18
325.076
325.086
325.164
325.313
325.483
315.669
315.469
315.33
315.259
315.157
315.179
315.188
315.152
315.359
315.385
315.369
315.372
315.309
315.166
315.125
315.068
315.099
315.122
315.217
315.298
305.251
305.194
305.135
305.117
305.074
305.088
305.084
305.07
305.144
305.171
305.157
305.147
305.136
305.086
305.063
305.053
305.057
305.067
305.099
305.12
380.321
379.331
378.452
377.76
377.36
377.212
377.281
377.281
377.578
377.803
377.873
377.937
377.534
377.063
376.738
376.587
376.709
376.881
377.463
378.091
369.598
368.752
368.024
367.406
367.074
366.957
367.006
367.053
367.309
367.528
367.576
367.672
367.297
366.894
366.608
366.48
366.596
366.752
367.238
367.766
358.863
358.166
357.593
357.038
356.777
356.706
356.723
356.784
357.012
357.205
357.252
357.328
357.021
356.685
356.446
356.322
356.421
356.57
356.976
357.405
348.133
347.589
347.153
346.693
346.474
346.434
346.444
346.496
346.68
346.88
346.869
346.949
346.696
346.449
346.234
346.137
346.196
346.31
346.692
347.016
337.43
337.011
336.712
336.327
336.144
336.145
336.141
336.173
336.326
336.521
336.469
336.54
336.341
336.182
335.998
335.929
335.959
336.037
336.377
336.6
326.753
326.453
326.246
325.965
325.819
325.831
325.824
325.862
325.974
326.129
326.06
326.107
326.003
325.881
325.722
325.701
325.731
325.77
326.021
326.168
316.075
315.888
315.772
315.587
315.501
315.517
315.492
315.533
315.596
315.7
315.647
315.675
315.638
315.556
315.455
315.455
315.464
315.465
315.645
315.718
305.386
305.328
305.281
305.223
305.185
305.201
305.187
305.211
305.222
305.271
305.251
305.257
305.239
305.224
305.176
305.198
305.188
305.178
305.247
305.267
382.118
381.163
380.294
379.42
379.093
378.914
378.899
378.911
379.053
379.311
379.302
379.157
379.024
378.579
378.271
378.314
378.517
378.813
379.365
380.045
371.117
370.327
369.591
368.837
368.563
368.404
368.42
368.409
368.567
368.812
368.809
368.67
368.565
368.19
367.913
367.97
368.153
368.382
368.872
369.423
360.156
359.482
358.888
358.271
358.01
357.879
357.929
357.888
358.018
358.286
358.287
358.142
358.072
357.778
357.554
357.565
357.735
357.921
358.328
358.801
349.203
348.64
348.181
347.678
347.482
347.337
347.416
347.355
347.496
347.742
347.74
347.593
347.539
347.347
347.15
347.136
347.282
347.434
347.764
348.146
338.268
337.805
337.495
337.077
336.933
336.805
336.869
336.832
336.966
337.157
337.173
337.029
337.01
336.871
336.702
336.678
336.81
336.946
337.184
337.478
327.32
326.997
326.808
326.482
326.373
326.295
326.329
326.322
326.417
326.561
326.571
326.463
326.473
326.379
326.232
326.209
326.325
326.425
326.615
326.811
316.395
316.205
316.119
315.906
315.826
315.786
315.813
315.824
315.873
315.947
315.97
315.906
315.9
315.854
315.757
315.745
315.835
315.881
316.011
316.11
305.498
305.427
305.404
305.326
305.299
305.288
305.3
305.312
305.316
305.346
305.364
305.331
305.332
305.327
305.276
305.283
305.315
305.328
305.377
305.4
383.638
382.552
381.657
380.838
380.325
380.136
380.186
379.982
380.18
380.294
380.273
380.269
380.233
379.795
379.533
379.7
379.851
380.166
380.731
381.454
372.347
371.459
370.707
370
369.552
369.416
369.484
369.299
369.458
369.602
369.606
369.591
369.582
369.191
368.967
369.12
369.264
369.506
369.99
370.575
361.118
360.421
359.783
359.2
358.815
358.719
358.787
358.648
358.741
358.911
358.942
358.921
358.896
358.553
358.385
358.509
358.661
358.824
359.245
359.71
349.937
349.405
348.886
348.406
348.103
348.025
348.099
347.997
348.058
348.193
348.241
348.231
348.221
347.929
347.778
347.878
348.034
348.175
348.498
348.852
338.829
338.417
338.018
337.632
337.408
337.347
337.413
337.352
337.39
337.482
337.523
337.536
337.536
337.3
337.176
337.265
337.399
337.489
337.768
338.015
327.752
327.442
327.159
326.882
326.725
326.667
326.744
326.705
326.717
326.784
326.808
326.84
326.842
326.669
326.576
326.655
326.753
326.804
326.991
327.165
316.674
316.483
316.312
316.13
316.041
316.01
316.07
316.041
316.047
316.098
316.094
316.122
316.111
316.031
315.963
315.989
316.083
316.105
316.202
316.322
305.582
305.533
305.465
305.409
305.377
305.357
305.389
305.377
305.381
305.397
305.397
305.403
305.409
305.378
305.361
305.35
305.392
305.402
305.43
305.466
)
;

boundaryField
{
    hotSide
    {
        type            fixedGradient;
        gradient        nonuniform List<scalar> 
400
(
580.364
582.043
587.106
595.467
606.799
620.631
636.458
653.818
672.327
691.685
711.665
732.103
752.887
773.944
795.237
816.754
838.504
860.506
882.778
905.328
555.78
557.755
563.351
572.462
584.691
599.482
616.255
634.499
653.801
673.847
694.408
715.323
736.486
757.833
779.338
801.005
822.857
844.93
867.256
889.853
540.14
542.724
548.892
558.528
571.237
586.463
603.63
622.222
641.821
662.107
682.846
703.877
725.095
746.444
767.904
789.487
811.224
833.16
855.335
877.774
532.88
536.363
543.158
553.146
565.987
581.204
598.282
616.745
636.189
656.296
676.829
697.624
718.578
739.636
760.785
782.039
803.437
825.023
846.841
868.919
531.763
536.311
543.822
554.17
567.071
582.136
598.929
617.028
636.059
655.714
675.762
696.042
716.454
736.953
757.533
778.218
799.051
820.078
841.345
862.887
534.246
539.925
548.26
559.11
572.224
587.266
603.857
621.616
640.196
659.305
678.724
698.305
717.966
737.683
757.47
777.369
797.433
817.72
838.278
859.148
538.242
545.059
554.316
565.854
579.424
594.707
611.341
628.957
647.213
665.824
684.585
703.374
722.147
740.918
759.739
778.685
797.832
817.25
836.998
857.118
542.16
550.069
560.302
572.681
586.944
602.757
619.737
637.485
655.633
673.881
692.036
710.014
727.828
745.559
763.319
781.226
799.39
817.897
836.813
856.183
544.751
553.623
564.795
578.076
593.182
609.749
627.342
645.497
663.779
681.845
699.502
716.719
733.594
750.298
767.019
783.93
801.17
818.842
837.014
855.728
545.03
554.617
566.549
580.627
596.554
613.93
632.261
650.998
669.608
687.683
705.021
721.65
737.767
753.642
769.541
785.683
802.231
819.294
836.938
855.199
542.305
552.233
564.581
579.153
595.64
613.622
632.559
651.835
670.841
689.104
706.412
722.832
738.634
754.152
769.7
785.524
801.795
818.626
836.079
854.184
536.298
546.103
558.416
573.036
589.651
607.826
627.011
646.579
665.908
684.521
702.192
718.979
735.134
750.987
766.845
782.951
799.479
816.543
834.209
852.51
527.251
536.476
548.313
562.559
578.896
596.887
615.997
635.635
655.234
674.355
692.762
710.453
727.593
744.43
761.218
778.174
795.464
813.203
831.466
850.294
515.969
524.247
535.296
548.917
564.786
582.464
601.435
621.153
641.108
660.897
680.276
699.168
717.637
735.829
753.922
772.089
790.477
809.199
828.337
847.944
503.815
510.905
521.02
533.972
549.42
566.909
585.913
605.897
626.379
646.968
667.404
687.556
707.406
727.018
746.503
765.986
785.59
805.422
825.565
846.079
492.739
498.525
507.695
520.073
535.283
552.809
572.077
592.523
613.655
635.081
656.525
677.824
698.911
719.796
740.541
761.237
781.986
802.885
824.018
845.444
485.379
489.867
498.156
510.079
525.195
542.893
562.515
583.449
605.181
627.314
649.567
671.761
693.807
715.685
737.427
759.1
780.792
802.593
824.583
846.821
484.958
488.313
495.802
507.264
522.195
539.899
559.646
580.79
602.807
625.303
647.999
670.714
693.347
715.86
738.267
760.616
782.982
805.448
828.088
850.955
494.348
496.91
503.658
514.448
528.78
545.956
565.252
586.03
607.78
630.116
652.765
675.542
698.336
721.095
743.812
766.519
789.273
812.14
835.185
858.447
514.386
516.534
522.591
532.439
545.666
561.68
579.854
599.613
620.483
642.099
664.187
686.559
709.09
731.711
754.394
777.148
800.004
823.008
846.199
869.606
)
;
    }
    coldSide
    {
        type            mixed;
        refValue        uniform 300;
        refGradient     uniform 0;
        valueFraction   uniform 0.991591;
        source          uniform 0;
        value           nonuniform List<scalar> 
400
(
300.03
300.031
300.031
300.031
300.032
300.033
300.033
300.034
300.035
300.036
300.037
300.039
300.04
300.041
300.042
300.043
300.044
300.045
300.046
300.047
300.029
300.03
300.03
300.031
300.031
300.032
300.033
300.034
300.035
300.036
300.037
300.038
300.039
300.04
300.041
300.042
300.044
300.045