/*--------------------------------*- C++ -*----------------------------------*\
| =========                 |                                                 |
| \\      /  F ield         | OpenFOAM: The Open Source CFD Toolbox           |
|  \\    /   O peration     | Version:  2212                                  |
|   \\  /    A nd           | Website:  www.openfoam.com                      |
|    \\/     M anipulation  |                                                 |
\*---------------------------------------------------------------------------*/
FoamFile
{
    version     2.0;
    format      ascii;
    arch        "LSB;label=32;scalar=64";
    class       volScalarField;
    location    "0";
    object      T;
}
// * * * * * * * * * * * * * * * * * * * * * * * * * * * * * * * * * * * * * //

dimensions      [0 0 0 1 0 0 0];

internalField   nonuniform List<scalar> 
3200
(
335.116
334.121
333.265
332.734
332.623
332.736
332.98
333.547
333.949
334.315
334.427
334.451
334.126
333.736
333.419
333.114
333.256
333.672
334.437
335.542
330.33
329.519
328.775
328.293
328.21
328.303
328.502
328.996
329.348
329.657
329.786
329.81
329.504
329.152
328.847
328.593
328.731
329.095
329.712
330.652
325.618
324.942
324.316
323.904
323.824
323.902
324.061
324.481
324.791
325.027
325.173
325.182
324.922
324.596
324.34
324.117
324.261
324.546
325.057
325.825
320.945
320.377
319.873
319.54
319.457
319.54
319.672
319.997
320.257
320.445
320.592
320.574
320.345
320.091
319.878
319.67
319.84
320.014
320.452
321.059
316.279
315.84
315.422
315.21
315.12
315.208
315.304
315.554
315.734
315.871
316.024
315.973
315.808
315.605
315.442
315.256
315.436
315.523
315.852
316.334
311.616
311.316
311.02
310.863
310.808
310.852
310.933
311.09
311.235
311.322
311.456
311.401
311.278
311.134
311.012
310.892
311.034
311.067
311.284
311.652
306.975
306.805
306.624
306.531
306.486
306.528
306.559
306.66
306.735
306.797
306.879
306.853
306.771
306.683
306.598
306.527
306.62
306.628
306.775
306.979
302.343
302.289
302.219
302.19
302.173
302.197
302.211
302.227
302.265
302.282
302.305
302.3
302.27
302.252
302.217
302.175
302.203
302.223
302.274
302.342
335.37
334.232
333.356
332.865
332.919
333.086
333.464
333.938
334.285
334.549
334.761
334.765
334.531
333.991
333.681
333.278
333.459
333.786
334.6
335.647
330.567
329.623
328.884
328.41
328.457
328.615
328.92
329.33
329.628
329.861
330.048
330.05
329.843
329.352
329.084
328.731
328.901
329.205
329.868
330.736
325.789
325.045
324.402
323.997
324.03
324.182
324.412
324.747
325.01
325.204
325.39
325.352
325.204
324.777
324.529
324.221
324.399
324.656
325.19
325.91
321.041
320.481
319.938
319.602
319.633
319.75
319.914
320.182
320.434
320.591
320.728
320.683
320.583
320.238
320.027
319.763
319.922
320.127
320.553
321.118
316.342
315.911
315.493
315.24
315.253
315.336
315.455
315.661
315.876
315.989
316.082
316.034
315.983
315.689
315.537
315.335
315.475
315.636
315.963
316.37
311.673
311.358
311.058
310.895
310.89
310.939
311.009
311.18
311.338
311.412
311.461
311.43
311.414
311.169
311.082
310.933
311.061
311.158
311.382
311.685
307.013
306.824
306.639
306.529
306.54
306.572
306.589
306.705
306.794
306.844
306.882
306.865
306.879
306.702
306.648
306.555
306.65
306.708
306.815
307.016
302.356
302.291
302.225
302.186
302.199
302.204
302.212
302.243
302.28
302.291
302.303
302.3
302.303
302.245
302.221
302.193
302.231
302.248
302.284
302.349
335.738
334.539
333.762
333.318
333.316
333.505
333.991
334.45
334.898
335.109
335.415
335.211
335.097
334.52
334.138
333.827
333.943
334.187
335.015
335.989
330.866
329.875
329.213
328.817
328.833
328.953
329.39
329.782
330.157
330.342
330.624
330.435
330.328
329.838
329.483
329.207
329.321
329.54
330.24
331.04
326.055
325.221
324.675
324.346
324.36
324.468
324.818
325.141
325.442
325.615
325.867
325.695
325.586
325.175
324.879
324.638
324.74
324.931
325.49
326.171
321.279
320.623
320.169
319.9
319.919
320.009
320.269
320.514
320.774
320.929
321.119
320.995
320.892
320.554
320.3
320.104
320.199
320.361
320.78
321.337
316.521
316.035
315.646
315.463
315.492
315.551
315.754
315.936
316.122
316.249
316.409
316.313
316.228
315.942
315.759
315.628
315.699
315.834
316.125
316.541
311.783
311.462
311.154
311.055
311.089
311.118
311.234
311.367
311.497
311.6
311.713
311.636
311.578
311.363
311.246
311.176
311.226
311.315
311.522
311.795
307.071
306.905
306.685
306.637
306.672
306.685
306.74
306.815
306.893
306.968
307.011
306.971
306.936
306.809
306.738
306.72
306.742
306.776
306.92
307.078
302.368
302.315
302.239
302.224
302.24
302.25
302.261
302.287
302.319
302.332
302.346
302.338
302.328
302.292
302.265
302.266
302.269
302.267
302.322
302.372
336.271
335.098
334.316
334.04
333.905
334.113
334.567
335.063
335.602
335.908
336.045
335.905
335.702
335.256
334.861
334.494
334.571
334.774
335.615
336.656
331.348
330.384
329.669
329.463
329.343
329.509
329.884
330.29
330.775
331.023
331.147
331.009
330.866
330.478
330.093
329.815
329.858
330.056
330.762
331.639
326.46
325.679
325.063
324.894
324.82
324.93
325.224
325.547
325.991
326.204
326.307
326.157
326.053
325.744
325.38
325.169
325.222
325.379
325.949
326.68
321.591
320.977
320.482
320.343
320.299
320.368
320.586
320.825
321.233
321.401
321.488
321.353
321.26
321.038
320.7
320.562
320.613
320.74
321.17
321.749
316.795
316.297
315.905
315.807
315.765
315.827
315.992
316.152
316.49
316.608
316.69
316.572
316.506
316.356
316.049
315.951
316.023
316.112
316.441
316.863
312
311.633
311.354
311.274
311.254
311.324
311.419
311.513
311.79
311.842
311.912
311.812
311.8
311.683
311.447
311.37
311.438
311.512
311.742
312.028
307.209
306.98
306.824
306.744
306.743
306.82
306.862
306.903
307.08
307.093
307.167
307.084
307.101
307.016
306.88
306.81
306.858
306.898
307.059
307.214
302.415
302.337
302.294
302.26
302.264
302.292
302.294
302.309
302.373
302.377
302.402
302.37
302.394
302.344
302.307
302.281
302.295
302.307
302.367
302.414
336.839
335.78
335.117
334.733
334.695
334.911
335.346
335.757
336.341
336.741
336.881
336.738
336.497
336.093
335.728
335.434
335.361
335.605
336.318
337.175
331.832
330.926
330.382
330.043
330.02
330.181
330.555
330.879
331.409
331.743
331.86
331.72
331.533
331.192
330.862
330.623
330.543
330.762
331.36
332.075
326.855
326.109
325.675
325.387
325.344
325.496
325.787
326.019
326.528
326.792
326.899
326.778
326.617
326.328
326.016
325.858
325.792
325.974
326.472
327.027
321.921
321.317
320.958
320.737
320.714
320.829
321.063
321.223
321.65
321.869
321.994
321.872
321.742
321.497
321.196
321.122
321.07
321.209
321.623
322.043
317.003
316.551
316.283
316.098
316.101
316.184
316.368
316.462
316.802
316.969
317.105
316.982
316.904
316.684
316.42
316.405
316.357
316.48
316.795
317.106
312.101
311.82
311.604
311.483
311.518
311.565
311.7
311.74
311.97
312.102
312.225
312.105
312.062
311.901
311.697
311.71
311.678
311.774
311.978
312.2
307.257
307.103
306.954
306.891
306.917
306.948
307.017
307.041
307.164
307.259
307.357
307.262
307.254
307.143
307.025
307.032
307.003
307.07
307.194
307.299
302.436
302.382
302.326
302.309
302.326
302.325
302.349
302.358
302.403
302.435
302.484
302.434
302.435
302.4
302.353
302.359
302.337
302.361
302.412
302.442
337.797
336.688
336.057
335.569
335.681
335.794
336.165
336.657
337.256
337.702
337.829
337.656
337.465
337.148
336.736
336.457
336.29
336.558
337.168
338.104
332.646
331.733
331.197
330.766
330.856
330.948
331.264
331.679
332.198
332.597
332.679
332.534
332.363
332.096
331.76
331.519
331.369
331.588
332.101
332.889
327.543
326.797
326.375
325.999
326.063
326.136
326.406
326.724
327.158
327.514
327.569
327.463
327.287
327.08
326.814
326.585
326.482
326.663
327.087
327.716
322.473
321.89
321.54
321.252
321.305
321.338
321.559
321.815
322.138
322.462
322.498
322.442
322.276
322.089
321.907
321.687
321.617
321.786
322.112
322.616
317.448
317.012
316.708
316.519
316.556
316.573
316.739
316.943
317.175
317.447
317.456
317.466
317.295
317.116
317.013
316.832
316.789
316.925
317.184
317.557
312.452
312.142
311.935
311.813
311.817
311.839
311.944
312.096
312.252
312.462
312.466
312.472
312.344
312.202
312.143
312.007
311.981
312.069
312.27
312.516
307.466
307.29
307.163
307.093
307.093
307.115
307.175
307.261
307.35
307.486
307.477
307.503
307.398
307.305
307.281
307.208
307.198
307.241
307.373
307.498
302.503
302.434
302.403
302.38
302.381
302.384
302.408
302.441
302.467
302.513
302.506
302.511
302.478
302.447
302.439
302.418
302.418
302.432
302.469
302.507
338.812
337.663
337.124
336.676
336.62
336.798
337.177
337.776
338.275
338.691
338.847
338.909
338.646
338.201
337.736
337.47
337.305
337.596
338.066
339.003
333.501
332.56
332.105
331.717
331.659
331.813
332.155
332.647
333.073
333.434
333.541
333.61
333.38
332.999
332.622
332.372
332.267
332.5
332.87
333.643
328.252
327.479
327.123
326.785
326.745
326.847
327.152
327.555
327.915
328.203
328.282
328.366
328.174
327.828
327.519
327.318
327.248
327.429
327.727
328.355
323.072
322.458
322.162
321.912
321.847
321.901
322.157
322.48
322.779
323.023
323.074
323.167
322.988
322.711
322.474
322.296
322.246
322.384
322.641
323.126
317.934
317.436
317.202
317.044
316.949
317.015
317.187
317.45
317.693
317.899
317.92
317.982
317.849
317.632
317.446
317.317
317.273
317.384
317.567
317.935
312.806
312.429
312.255
312.18
312.097
312.151
312.269
312.454
312.65
312.787
312.797
312.84
312.733
312.564
312.463
312.371
312.308
312.4
312.519
312.782
307.702
307.454
307.348
307.307
307.256
307.273
307.366
307.477
307.603
307.689
307.688
307.711
307.625
307.526
307.491
307.413
307.391
307.459
307.502
307.669
302.584
302.494
302.463
302.446
302.419
302.443
302.474
302.508
302.547
302.576
302.573
302.578
302.547
302.519
302.51
302.491
302.474
302.499
302.515
302.577
339.926
338.825
338.25
337.813
337.674
337.959
338.39
338.847
339.32
339.785
339.874
339.882
339.731
339.214
338.86
338.548
338.456
338.682
339.212
340.078
334.471
333.554
333.093
332.702
332.541
332.819
333.202
333.589
333.97
334.359
334.455
334.458
334.326
333.848
333.582
333.319
333.254
333.411
333.851
334.591
329.088
328.313
327.951
327.616
327.452
327.711
328.037
328.35
328.657
329.003
329.086
329.079
328.976
328.538
328.349
328.108
328.064
328.195
328.549
329.178
323.755
323.106
322.831
322.574
322.412
322.638
322.896
323.167
323.367
323.688
323.744
323.746
323.647
323.259
323.154
322.931
322.889
323.012
323.304
323.816
318.436
317.946
317.724
317.55
317.39
317.59
317.813
318.004
318.125
318.4
318.436
318.415
318.366
318.063
317.981
317.79
317.75
317.877
318.113
318.512
313.17
312.797
312.651
312.536
312.409
312.539
312.731
312.853
312.917
313.118
313.161
313.124
313.098
312.899
312.84
312.692
312.634
312.759
312.941
313.217
307.901
307.669
307.596
307.525
307.473
307.528
307.667
307.696
307.75
307.872
307.904
307.871
307.851
307.75
307.706
307.609
307.571
307.669
307.77
307.93
302.646
302.562
302.553
302.514
302.516
302.526
302.571
302.574
302.59
302.645
302.645
302.645
302.624
302.584
302.581
302.556
302.54
302.579
302.611
302.655
341.125
340.169
339.467
339.113
338.926
339.161
339.685
340.147
340.422
340.854
341.096
341.091
340.788
340.275
340.052
339.67
339.631
339.763
340.55
341.26
335.517
334.719
334.113
333.831
333.654
333.848
334.316
334.713
334.922
335.3
335.516
335.516
335.238
334.77
334.606
334.265
334.23
334.346
335.049
335.616
329.966
329.318
328.808
328.59
328.402
328.582
328.973
329.296
329.456
329.799
329.961
329.978
329.728
329.308
329.199
328.904
328.879
328.967
329.553
330.023
324.461
323.929
323.526
323.362
323.204
323.353
323.659
323.914
324.035
324.321
324.441
324.456
324.265
323.898
323.861
323.58
323.575
323.655
324.123
324.485
318.996
318.573
318.28
318.137
318.02
318.119
318.374
318.558
318.634
318.891
318.98
318.969
318.828
318.551
318.535
318.283
318.287
318.369
318.709
319.007
313.568
313.276
313.051
312.942
312.861
312.937
313.115
313.242
313.3
313.488
313.524
313.525
313.436
313.215
313.235
313.023
313.046
313.117
313.326
313.57
308.135
307.987
307.843
307.78
307.732
307.765
307.882
307.962
307.993
308.082
308.097
308.109
308.051
307.936
307.944
307.812
307.824
307.885
307.991
308.148
302.73
302.682
302.634
302.617
302.592
302.615
302.642
302.664
302.684
302.703
302.704
302.699
302.696
302.66
302.663
302.616
302.627
302.653
302.668
302.735
342.492
341.639
340.817
340.409
340.087
340.439
340.91
341.308
341.594
342.056
342.208
342.251
341.955
341.501
341.176
340.841
340.774
341.011
341.886
342.499
336.711
335.989
335.291
334.939
334.647
334.965
335.381
335.711
335.924
336.33
336.469
336.485
336.238
335.846
335.574
335.27
335.227
335.425
336.188
336.697
331.002
330.374
329.779
329.489
329.235
329.522
329.868
330.133
330.306
330.654
330.758
330.752
330.575
330.246
330.02
329.78
329.708
329.905
330.527
330.939
325.307
324.82
324.301
324.058
323.873
324.104
324.374
324.592
324.738
325.033
325.085
325.06
324.956
324.673
324.499
324.309
324.266
324.413
324.901
325.252
319.625
319.288
318.849
318.665
318.544
318.718
318.937
319.09
319.186
319.426
319.488
319.447
319.404
319.15
319.03
318.885
318.855
318.966
319.322
319.613
313.983
313.789
313.441
313.309
313.229
313.365
313.512
313.615
313.687
313.85
313.904
313.867
313.861
313.65
313.579
313.467
313.444
313.529
313.765
314
308.378
308.292
308.036
307.993
307.959
308.021
308.11
308.187
308.227
308.316
308.347
308.294
308.3
308.172
308.157
308.089
308.069
308.119
308.248
308.414
302.813
302.777
302.686
302.684
302.676
302.678
302.72
302.738
302.761
302.778
302.796
302.776
302.77
302.729
302.73
302.714
302.699
302.725
302.759
302.825
343.934
343.053
342.156
341.734
341.492
341.732
342.026
342.335
342.744
343.048
343.212
343.256
343.05
342.756
342.414
342.069
342.167
342.438
343.081
343.787
337.933
337.204
336.44
336.07
335.825
336.075
336.325
336.589
336.924
337.189
337.335
337.374
337.19
336.944
336.648
336.353
336.442
336.671
337.216
337.794
331.995
331.392
330.736
330.45
330.22
330.436
330.682
330.9
331.153
331.395
331.499
331.549
331.396
331.174
330.915
330.683
330.762
330.956
331.406
331.878
326.118
325.629
325.08
324.87
324.687
324.859
325.058
325.231
325.439
325.62
325.712
325.746
325.647
325.443
325.22
325.062
325.115
325.29
325.654
326.013
320.284
319.917
319.441
319.326
319.187
319.338
319.457
319.609
319.758
319.89
319.983
319.984
319.937
319.727
319.578
319.462
319.504
319.661
319.929
320.209
314.457
314.22
313.859
313.798
313.691
313.815
313.889
313.995
314.105
314.199
314.258
314.256
314.241
314.077
313.95
313.914
313.919
314.034
314.2
314.425
308.665
308.52
308.293
308.3
308.216
308.297
308.329
308.4
308.478
308.534
308.548
308.554
308.559
308.446
308.364
308.361
308.371
308.422
308.526
308.654
302.9
302.86
302.78
302.774
302.756
302.775
302.796
302.818
302.851
302.857
302.856
302.865
302.869
302.821
302.789
302.811
302.805
302.818
302.859
302.896
345.226
344.474
343.658
343.063
342.857
342.924
343.186
343.514
343.812
344.224
344.316
344.245
344.293
344.036
343.591
343.423
343.5
343.882
344.408
345.124
339.07
338.42
337.734
337.21
337.043
337.111
337.339
337.61
337.833
338.206
338.288
338.229
338.303
338.045
337.689
337.527
337.595
337.912
338.336
338.953
332.949
332.419
331.84
331.409
331.267
331.333
331.532
331.767
331.908
332.25
332.307
332.276
332.341
332.1
331.798
331.661
331.733
331.997
332.316
332.849
326.89
326.454
325.984
325.629
325.517
325.614
325.783
325.946
326.074
326.331
326.368
326.358
326.397
326.19
325.929
325.847
325.916
326.112
326.342
326.815
320.878
320.55
320.176
319.89
319.811
319.903
320.039
320.152
320.247
320.46
320.469
320.461
320.505
320.335
320.102
320.08
320.114
320.281
320.435
320.796
314.887
314.667
314.39
314.193
314.152
314.199
314.321
314.395
314.442
314.607
314.594
314.604
314.649
314.51
314.326
314.321
314.34
314.477
314.571
314.835
308.91
308.816
308.63
308.495
308.495
308.528
308.599
308.647
308.673
308.771
308.754
308.75
308.793
308.698
308.607
308.566
308.608
308.695
308.739
308.909
302.975
302.954
302.899
302.84
302.846
302.852
302.884
302.891
302.897
302.937
302.937
302.925
302.947
302.906
302.881
302.876
302.893
302.912
302.922
302.994
346.685
345.768
344.97
344.423
344.198
344.233
344.46
344.722
344.948
345.294
345.462
345.359
345.383
344.935
344.85
344.736
344.766
345.203
345.792
346.446
340.337
339.562
338.873
338.388
338.205
338.221
338.424
338.661
338.843
339.12
339.284
339.184
339.209
338.829
338.762
338.644
338.684
339.062
339.54
340.098
334.033
333.384
332.835
332.387
332.243
332.27
332.402
332.643
332.808
333.03
333.152
333.042
333.108
332.791
332.726
332.606
332.652
332.97
333.348
333.809
327.804
327.239
326.833
326.433
326.334
326.373
326.44
326.701
326.821
326.969
327.055
326.949
327.044
326.785
326.719
326.614
326.67
326.938
327.183
327.578
321.61
321.149
320.851
320.523
320.467
320.52
320.505
320.759
320.841
320.958
320.997
320.899
320.989
320.793
320.732
320.68
320.7
320.937
321.086
321.412
315.428
315.074
314.867
314.643
314.615
314.657
314.62
314.811
314.875
314.978
314.975
314.902
314.97
314.84
314.787
314.752
314.773
314.945
315.039
315.274
309.26
309.039
308.914
308.789
308.771
308.79
308.768
308.887
308.929
308.999
308.969
308.955
308.974
308.908
308.871
308.85
308.864
308.96
309.003
309.166
303.105
303.035
302.99
302.94
302.928
302.949
302.943
302.977
302.994
303.017
303.004
303.009
303.005
302.985
302.978
302.965
302.967
302.997
303.014
303.072
348.107
347.186
346.396
345.822
345.525
345.492
345.714
345.898
346.165
346.418
346.481
346.39
346.368
346.128
345.958
345.942
346.067
346.459
347.209
347.775
341.555
340.768
340.112
339.586
339.348
339.3
339.505
339.652
339.906
340.099
340.172
340.078
340.072
339.857
339.712
339.695
339.793
340.126
340.776
341.254
335.056
334.412
333.867
333.412
333.202
333.167
333.34
333.458
333.707
333.838
333.911
333.801
333.826
333.646
333.54
333.496
333.564
333.853
334.402
334.816
328.594
328.081
327.636
327.248
327.112
327.079
327.23
327.313
327.546
327.625
327.701
327.57
327.626
327.457
327.401
327.355
327.406
327.641
328.077
328.379
322.194
321.806
321.457
321.134
321.054
321.029
321.157
321.232
321.403
321.469
321.513
321.385
321.46
321.299
321.288
321.273
321.281
321.472
321.792
322.018
315.84
315.559
315.3
315.078
315.036
315.007
315.106
315.177
315.277
315.339
315.365
315.237
315.318
315.191
315.191
315.194
315.179
315.327
315.553
315.686
309.5
309.343
309.178
309.04
309.043
309.013
309.061
309.121
309.158
309.227
309.243
309.143
309.171
309.12
309.126
309.134
309.101
309.194
309.353
309.396
303.188
303.132
303.067
303.031
303.03
303.014
303.031
303.071
303.069
303.095
303.092
303.066
303.069
303.056
303.071
303.065
303.046
303.086
303.132
303.143
349.502
348.684
347.896
347.226
346.997
346.791
346.948
347.135
347.391
347.52
347.681
347.539
347.47
347.276
347.232
347.206
347.32
347.779
348.466
349.121
342.749
342.08
341.4
340.811
340.605
340.431
340.575
340.729
340.947
341.08
341.216
341.082
341.029
340.824
340.789
340.789
340.89
341.295
341.864
342.389
336.078
335.541
334.935
334.435
334.28
334.116
334.26
334.339
334.542
334.666
334.805
334.686
334.649
334.451
334.403
334.425
334.489
334.864
335.342
335.755
329.469
329.034
328.542
328.106
328.007
327.854
327.978
328.017
328.181
328.308
328.425
328.33
328.302
328.125
328.077
328.121
328.157
328.472
328.864
329.187
322.886
322.567
322.167
321.833
321.764
321.629
321.73
321.761
321.877
321.987
322.086
321.997
321.985
321.84
321.811
321.839
321.852
322.111
322.426
322.662
316.329
316.122
315.825
315.581
315.547
315.43
315.517
315.535
315.606
315.689
315.773
315.702
315.678
315.602
315.55
315.574
315.582
315.787
316.011
316.16
309.792
309.682
309.498
309.325
309.337
309.252
309.324
309.323
309.364
309.41
309.47
309.418
309.395
309.369
309.331
309.342
309.343
309.467
309.6
309.695
303.274
303.236
303.185
303.123
303.125
303.1
303.126
303.126
303.141
303.161
303.177
303.138
303.15
303.146
303.119
303.124
303.136
303.164
303.227
303.248
350.924
350.172
349.411
348.725
348.388
348.251
348.143
348.331
348.393
348.711
348.645
348.624
348.607
348.474
348.437
348.432
348.604
349.071
349.787
350.548
343.991
343.368
342.718
342.128
341.823
341.667
341.592
341.732
341.815
342.103
342.02
342.002
342.008
341.882
341.84
341.847
341.98
342.404
343.002
343.641
337.141
336.612
336.054
335.566
335.316
335.162
335.094
335.2
335.293
335.566
335.467
335.448
335.438
335.339
335.304
335.299
335.415
335.783
336.282
336.787
330.323
329.886
329.448
329.046
328.849
328.703
328.655
328.736
328.815
329.061
328.963
328.937
328.924
328.856
328.822
328.821
328.91
329.219
329.615
330.004
323.563
323.217
322.873
322.566
322.399
322.285
322.254
322.342
322.363
322.573
322.503
322.472
322.468
322.395
322.383
322.382
322.439
322.702
323.005
323.291
316.804
316.575
316.339
316.107
315.983
315.899
315.882
315.939
315.949
316.106
316.054
316.035
316.041
315.974
315.977
315.975
316.009
316.217
316.4
316.628
310.078
309.945
309.811
309.669
309.603
309.546
309.533
309.567
309.559
309.661
309.635
309.616
309.615
309.596
309.593
309.59
309.62
309.731
309.845
309.999
303.371
303.336
303.285
303.236
303.216
303.194
303.194
303.223
303.195
303.231
303.223
303.215
303.218
303.217
303.219
303.214
303.235
303.266
303.288
303.359
352.346
351.544
350.864
350.198
349.738
349.602
349.548
349.54
349.62
349.833
349.772
349.788
349.712
349.719
349.694
349.764
349.974
350.453
351.211
351.831
345.221
344.544
343.96
343.378
342.963
342.896
342.828
342.823
342.868
343.078
343.017
343.02
342.958
342.944
342.887
342.962
343.168
343.578
344.231
344.75
338.161
337.613
337.104
336.587
336.261
336.211
336.157
336.127
336.163
336.365
336.32
336.314
336.251
336.24
336.17
336.238
336.428
336.775
337.326
337.743
331.15
330.721
330.284
329.875
329.604
329.577
329.527
329.485
329.523
329.697
329.65
329.643
329.589
329.585
329.547
329.571
329.741
330.052
330.462
330.799
324.211
323.86
323.516
323.203
322.975
322.962
322.92
322.89
322.936
323.057
323.038
323.001
322.98
322.973
322.967
322.966
323.087
323.35
323.625
323.896
317.277
317.011
316.762
316.573
316.417
316.389
316.346
316.344
316.366
316.446
316.444
316.406
316.387
316.39
316.387
316.392
316.47
316.67
316.836
317.043
310.355
310.202
310.058
309.946
309.868
309.826
309.821
309.826
309.808
309.855
309.871
309.845
309.821
309.845
309.84
309.848
309.891
309.986
310.101
310.223
303.478
303.413
303.372
303.33
303.313
303.287
303.297
303.288
303.287
303.297
303.308
303.301
303.288
303.301
303.3
303.301
303.31
303.341
303.376
303.421
353.737
352.993
352.185
351.628
351.165
350.82
350.789
350.897
350.801
350.93
350.91
350.869
350.894
350.945
350.881
351.107
351.325
351.865
352.485
353.175
346.384
345.777
345.074
344.613
344.22
343.927
343.886
343.971
343.904
344.014
344.007
343.947
343.952
344.009
343.958
344.145
344.342
344.808
345.345
345.91
339.093
338.598
338.03
337.67
337.327
337.073
337.038
337.106
337.081
337.152
337.155
337.073
337.077
337.118
337.098
337.242
337.402
337.811
338.256
338.735
331.871
331.481
331.05
330.769
330.496
330.298
330.243
330.281
330.276
330.329
330.338
330.257
330.25
330.305
330.288
330.376
330.519
330.872
331.217
331.619
324.737
324.436
324.117
323.894
323.701
323.543
323.501
323.5
323.482
323.557
323.566
323.499
323.475
323.539
323.511
323.564
323.677
323.972
324.221
324.547
317.638
317.446
317.217
317.077
316.918
316.806
316.784
316.746
316.755
316.821
316.808
316.768
316.756
316.815
316.766
316.796
316.901
317.09
317.274
317.521
310.579
310.474
310.34
310.27
310.145
310.097
310.077
310.043
310.047
310.097
310.08
310.064
310.048
310.088
310.062
310.07
310.137
310.25
310.357
310.513
303.541
303.508
303.462
303.446
303.405
303.38
303.379
303.36
303.363
303.387
303.383
303.377
303.358
303.367
303.364
303.37
303.4
303.437
303.459
303.518
354.938
354.219
353.593
352.837
352.434
352.136
351.968
352.058
351.971
352.159
352.138
351.938
351.894
352.1
352.046
352.295
352.596
353.056
353.782
354.393
347.432
346.806
346.283
345.638
345.274
345.028
344.883
344.979
344.915
345.061
345.049
344.876
344.804
345.008
344.927
345.153
345.427
345.831
346.443
346.959
339.97
339.484
339.047
338.505
338.209
337.971
337.882
337.974
337.913
338.009
338.013
337.866
337.809
337.979
337.877
338.067
338.349
338.677
339.16
339.602
332.591
332.21
331.854
331.424
331.175
330.976
330.92
331.019
330.966
330.999
331.031
330.898
330.867
330.994
330.875
331.041
331.311
331.575
331.946
332.296
325.287
324.984
324.716
324.404
324.205
324.027
324.005
324.078
324.042
324.052
324.092
323.978
323.959
324.048
323.949
324.085
324.298
324.522
324.804
325.05
318.024
317.812
317.642
317.403
317.261
317.125
317.097
317.186
317.152
317.159
317.194
317.133
317.081
317.138
317.082
317.192
317.334
317.489
317.712
317.874
310.809
310.681
310.566
310.428
310.337
310.261
310.237
310.305
310.279
310.296
310.316
310.3
310.245
310.28
310.255
310.337
310.396
310.499
310.643
310.718
303.619
303.575
303.543
303.484
303.453
303.456
303.436
303.453
303.447
303.442
303.455
303.457
303.436
303.436
303.43
303.48
303.483
303.521
303.574
303.594
355.893
355.239
354.615
353.923
353.363
353.054
352.801
352.919
352.875
352.983
352.809
352.792
352.81
352.849
353.035
353.176
353.429
353.993
354.648
355.38
348.204
347.677
347.143
346.538
346.034
345.777
345.543
345.647
345.638
345.748
345.569
345.559
345.583
345.606
345.747
345.86
346.118
346.584
347.144
347.733
340.634
340.202
339.745
339.234
338.8
338.581
338.386
338.471
338.483
338.575
338.43
338.406
338.453
338.466
338.553
338.648
338.883
339.27
339.735
340.213
333.147
332.81
332.4
332.008
331.64
331.464
331.302
331.379
331.42
331.443
331.352
331.299
331.362
331.407
331.442
331.506
331.729
332.032
332.395
332.777
325.742
325.482
325.152
324.83
324.566
324.406
324.27
324.356
324.388
324.387
324.352
324.281
324.336
324.377
324.384
324.438
324.611
324.857
325.139
325.391
318.389
318.167
317.961
317.723
317.532
317.41
317.301
317.34
317.386
317.367
317.389
317.324
317.369
317.382
317.383
317.43
317.558
317.72
317.935
318.09
311.043
310.881
310.782
310.642
310.518
310.457
310.377
310.401
310.422
310.398
310.435
310.397
310.424
310.412
310.441
310.466
310.549
310.626
310.767
310.849
303.708
303.65
303.615
303.562
303.53
303.513
303.479
303.486
303.492
303.478
303.497
303.486
303.485
303.48
303.493
303.507
303.526
303.565
303.605
303.628
)
;

boundaryField
{
    hotSide
    {
        type            fixedGradient;
        gradient        nonuniform List<scalar> 
400
(
389.307
389.895
393.04
398.685
406.596
416.428
427.812
440.408
453.935
468.167
482.934
498.108
513.596
529.328
545.259
561.355
577.597
593.973
610.475
627.1
371.469
372.169
375.601
381.699
390.178
400.633
412.64
425.826
439.888
454.595
469.772
485.296
501.075
517.048
533.175
549.43
565.801
582.281
598.871
615.571
360.309
361.329
365.055
371.413
380.122
390.782
402.975
416.326
430.53
445.351
460.615
476.196
492.004
507.981
524.089
540.308
556.629
573.053
589.582
606.222
355.446
356.979
361.013
367.473
376.125
386.629
398.619
411.75
425.731
440.332
455.374
470.73
486.309
502.052
517.925
533.911
550.004
566.208
582.529
598.974
355.27
357.417
361.798
368.337
376.845
387.055
398.662
411.369
424.91
439.064
453.659
468.568
483.702
499.006
514.451
530.023
545.722
561.556
577.533
593.663
357.965
360.753
365.534
372.227
380.672
390.648
401.901
414.171
427.218
440.838
454.867
469.189
483.725
498.433
513.292
528.302
543.47
558.81
574.333
590.051
362.07
365.49
370.722
377.678
386.208
396.112
407.158
419.105
431.728
444.833
458.271
471.942
485.791
499.796
513.961
528.302
542.842
557.602
572.599
587.846
366.517
370.529
376.241
383.556
392.32
402.333
413.361
425.159
437.495
450.173
463.057
476.071
489.195
502.446
515.861
529.484
543.354
557.502
571.951
586.714
370.509
375.031
381.203
388.919
398.018
408.287
419.472
431.299
443.504
455.876
468.285
480.686
493.108
505.62
518.304
531.233
544.466
558.043
571.987
586.309
373.442
378.333
384.867
392.937
402.375
412.954
424.391
436.369
448.578
460.775
472.828
484.73
496.566
508.462
520.543
532.911
545.637
558.766
572.321
586.311
374.909
379.956
386.668
394.936
404.589
415.388
427.03
439.163
451.44
463.585
475.465
487.096
498.605
510.156
521.903
533.963
546.414
559.305
572.658
586.477
374.746
379.694
386.34
394.573
404.22
415.035
426.71
438.889
451.221
463.427
475.37
487.062
498.626
510.224
522.007
534.096
546.57
559.482
572.855
586.697
373.09
377.688
384.031
392.009
401.443
412.089
423.644
435.773
448.153
460.529
472.759
484.824
496.801
508.811
520.98
533.414
546.192
559.37
572.976
587.024
370.401
374.445
380.32
387.915
397.05
407.475
418.897
431.003
443.5
456.154
468.817
481.433
494.023
506.657
519.422
532.404
545.675
559.289
573.284
587.678
367.459
370.818
376.15
383.349
392.225
402.516
413.917
426.123
438.85
451.87
465.028
478.237
491.48
504.781
518.195
531.785
545.614
559.736
574.192
589.004
365.394
368.004
372.792
379.659
388.39
398.685
410.211
422.637
435.676
449.096
462.733
476.484
490.306
504.199
518.192
532.335
546.683
561.289
576.198
591.434
365.745
367.613
371.898
378.505
387.18
397.564
409.271
421.941
435.271
449.026
463.038
477.2
491.455
505.79
520.221
534.788
549.545
564.544
579.833
595.437
370.408
371.632
375.462
381.808
390.375
400.752
412.51
425.266
438.711
452.611
466.8
481.17
495.659
510.247
524.941
539.774
554.796
570.061
585.614
601.482
381.069
381.851
385.264
391.225
399.44
409.498
420.97
433.479
446.723
460.473
474.567
488.895
503.392
518.028
532.803
547.741
562.882
578.274
593.958
609.953
398.209
398.777
401.802
407.219
414.785
424.151
434.946
446.829
459.521
472.803
486.516
500.547
514.824
529.309
543.988
558.873
573.99
589.371
605.043
621.019
)
;
    }
    coldSide
    {
        type            mixed;
        refValue        uniform 300;
        refGradient     uniform 0;
        valueFraction   uniform 0.991591;
        source          uniform 0;
        value           nonuniform List<scalar> 
400
(
300.02
300.02
300.02
300.02
300.02
300.021
300.022
300.022
300.023
300.024
300.024
300.025
300.026
300.027
300.028
300.028
300.029
300.03
300.03
300.031
300.019
300.019
300.019
300.02
300.02
300.02
300.021
300.022
300.023
300.023
300.024
300.025
300.026
300.026
300.027
300.028
300.029
300.029
300.03
300.031
300.019
300.019
300.019
300.019
300.02
300.02