/*--------------------------------*- C++ -*----------------------------------*\
| =========                 |                                                 |
| \\      /  F ield         | OpenFOAM: The Open Source CFD Toolbox           |
|  \\    /   O peration     | Version:  2212                                  |
|   \\  /    A nd           | Website:  www.openfoam.com                      |
|    \\/     M anipulation  |                                                 |
\*---------------------------------------------------------------------------*/
FoamFile
{
    version     2.0;
    format      ascii;
    arch        "LSB;label=32;scalar=64";
    class       volScalarField;
    location    "./ITHACAoutput/true/18.6";
    object      error;
}
// * * * * * * * * * * * * * * * * * * * * * * * * * * * * * * * * * * * * * //

dimensions      [0 0 0 1 0 0 0];

internalField   nonuniform List<scalar> 
3200
(
-1.73
1.66942
2.37747
1.91326
2.15479
1.41386
2.36125
1.67948
1.01108
0.675271
1.0497
2.09663
1.02113
0.28205
1.78544
0.585555
1.57386
1.57127
2.30883
0.983942
-0.54619
0.0880379
1.23658
0.93461
1.31157
2.26001
0.396414
1.70253
1.24253
1.08323
1.16083
-0.273568
1.11643
0.518554
-0.879616
2.24475
1.37648
0.728431
0.0593673
1.31066
0.0266909
0.48789
0.0574058
0.769563
1.53055
1.02355
2.58768
1.63489
1.58573
0.63348
0.548074
2.01567
1.54513
-0.229338
0.304835
1.44409
-0.432945
2.10524
1.19973
1.77993
-0.174599
0.661885
1.35741
1.61253
1.46234
1.21119
2.57469
-0.878132
0.81006
1.82291
-0.57885
-0.575514
0.296843
1.2099
0.932995
0.656889
0.867567
-0.145763
0.741988
0.259399
-0.139284
1.20738
0.228465
1.11391
1.29803
1.07098
0.438091
-1.04997
2.18095
-0.498647
0.978031
0.929946
-0.28272
-0.307157
0.482996
-0.177503
1.01803
-0.620246
0.924969
-0.169061
0.53166
0.199756
0.780428
-0.0352764
-0.00206336
0.358877
3.17129
-0.10838
0.698616
0.306245
0.0726256
-0.543173
-0.933453
0.904696
1.62863
0.161444
-0.0306634
-0.04333
-0.145707
0.221749
-0.877322
-0.0693771
0.601345
0.899668
-0.265928
0.16159
0.471594
0.189444
1.33967
0.316925
0.442787
1.32485
0.727358
1.56089
0.49548
0.313975
0.628384
-0.38119
0.0725438
1.22619
-1.09256
-0.536996
0.29692
-0.688408
0.928568
-0.130637
1.59392
0.676339
0.0694862
-0.20334
-0.450607
1.02193
-0.285388
0.473272
-0.604545
0.0598788
0.380259
0.12336
-0.590213
-0.913176
-0.186955
2.21764
0.834133
1.98212
1.53195
1.76816
1.77908
-0.0109275
0.913195
1.48067
-0.847007
0.000834556
1.80094
0.226738
-0.868675
1.3658
2.15466
-0.185325
1.34851
0.95389
0.180252
0.256188
0.246233
0.012088
2.30996
0.0578958
1.27801
0.0177107
-0.0730352
0.363224
0.217167
0.226359
-0.496312
0.852537
0.467455
1.1194
-0.45191
1.2875
0.061693
-0.15753
0.276723
0.664027
0.346571
0.482485
-0.0414307
1.98412
-1.09038
1.53121
1.24177
1.31256
-0.176541
0.462478
1.11334
2.55617
1.23068
-0.125628
1.06445
0.767776
0.507631
-0.191393
1.23433
1.23505
0.913115
2.19112
-0.419618
0.960956
1.6349
0.356567
0.954624
0.086686
0.852272
0.592628
0.580676
0.604117
-0.408098
0.145318
0.952507
0.410369
0.420191
-0.246602
0.10464
0.339239
0.8678
0.24535
1.04777
-0.186031
-0.458136
0.184616
-0.34971
0.280676
1.21121
1.62431
-0.834509
0.0113704
0.344112
0.91526
-1.05684
0.149213
0.471714
-0.660301
-0.0476417
-0.635301
0.434396
1.51722
-0.85507
0.0110312
0.511533
-0.528215
-0.182436
-0.23734
-0.871906
0.114411
0.468766
-1.15058
-0.412993
-0.787059
0.923513
0.556504
0.375248
0.164997
-1.4116
-0.467895
1.21061
1.16284
0.530397
-0.217519
-0.0844989
-0.271817
1.19929
-0.453033
0.324992
0.288599
-0.0210227
0.691908
0.784372
-0.475046
-0.109955
0.523218
0.836483
-0.315091
-1.35852
0.853582
0.705301
0.521775
0.636359
0.415513
-0.351914
-1.0225
-0.177238
-0.343525
-0.803783
0.402461
0.994317
-0.732116
-0.817825
-0.256539
-0.622004
0.077014
-0.870161
-0.0209649
0.883449
2.40989
1.47511
1.34288
2.00431
1.83939
1.76425
0.775524
0.864613
-0.0163574
0.572969
0.212386
1.21285
1.06594
2.4205
0.999226
0.376624
1.55893
-0.667702
0.284195
-0.440274
0.152885
3.00361
1.2324
1.03268
0.907146
1.57743
1.53179
-0.383097
-0.901173
1.00012
0.359509
0.797649
0.231286
1.88593
-0.829229
0.971656
0.827383
-0.661551
-0.2502
0.552889
1.0201
0.0156637
0.287098
1.97037
-0.106425
0.103518
-0.178223
0.0808327
-0.4858
-0.393162
0.565284
1.85056
0.149425
1.28508
1.30226
1.36365
0.774245
0.505241
0.178523
-0.199124
0.188446
-0.516592
1.67441
0.965833
0.0351662
1.54209
0.690324
-0.704481
-0.903599
-0.767414
-1.2617
1.0272
0.423597
-0.165878
0.713215
0.203011
0.193531
0.305749
-0.395658
-0.707057
1.03784
-1.04436
2.09953
-0.504241
0.650099
1.26142
0.69164
-0.846591
0.348752
0.508273
1.41461
-1.27731
1.59207
0.761915
0.755045
0.114303
-0.571933
0.508878
-0.300843
-0.22608
1.77792
-0.701935
0.00565608
1.26979
-0.406412
-0.394569
0.563556
-0.670658
1.91644
0.616233
0.83964
0.40428
0.419621
0.204179
0.621183
-0.901385
-0.391374
-1.02295
-0.375059
1.85989
-0.270788
0.54923
-0.393302
0.51444
0.686633
0.822124
-0.0247325
-0.0963948
0.627838
0.0474724
0.325849
0.914497
0.441062
-0.387618
-0.594578
-0.0793123
0.359915
0.825357
1.5585
-0.964099
-0.553058
-0.698678
-0.554903
-0.524055
1.51589
-0.872414
0.280792
-0.499353
-0.42473
0.326952
1.19162
1.11196
0.592932
0.271271
0.974362
-0.368185
1.26416
0.958605
-0.16526
-0.409054
0.735289
0.956582
0.651079
2.9316
1.68363
0.490252
1.00402
0.172883
1.88494
0.0714456
0.463282
-0.709551
0.814173
0.53261
1.31489
1.4254
1.08468
-0.448667
-0.242173
-0.167557
0.0696272
1.3204
-0.0334149
1.35035
-0.144692
1.43059
-0.0148941
-0.114592
-0.328749
-0.109039
0.851762
0.345433
1.65664
-0.390854
0.114129
0.374913
1.90986
-0.186315
0.320169
-0.457516
1.11781
1.19536
0.763673
-0.382637
1.32085
1.35009
0.0724586
0.07016
0.196509
-1.35867
0.00572633
0.389058
-1.03976
0.199503
1.12652
1.00049
-0.292321
-0.102421
0.529919
0.0156327
0.850601
0.824114
0.113812
0.75832
1.1097
1.10631
1.41775
-0.981764
-0.239077
-1.35352
-0.443136
-0.730379
0.307075
2.07099
0.424087
-0.0717832
1.13034
0.349197
0.685788
-0.932466
0.499792
1.4635
0.623326
1.08594
-0.166202
-0.441613
0.171184
0.37866
0.501204
0.559093
1.09333
-1.20624
-0.395642
0.60301
0.411742
-0.502163
-0.0384717
-0.88254
-0.0263649
0.363872
-0.554999
0.681641
0.526368
0.606523
1.89003
-1.09148
1.02581
0.190756
0.20713
0.305273
-0.846058
-0.883912
-0.122798
0.49469
0.547049
-0.580694
-0.001903
0.940087
-1.81512
-0.266342
-0.802619
0.623395
0.0897156
0.791072
-0.750076
0.249747
-0.731607
0.41655
0.576929
-0.668765
0.144387
0.515534
1.12884
-1.05684
1.03796
0.0777878
-0.0758974
-0.212309
-1.22782
-0.36852
-0.0833524
0.0978845
-1.36175
0.760114
-0.388607
0.88841
0.360503
0.000630596
-0.518529
0.155759
0.422709
0.742171
0.474135
0.287033
0.688752
0.317008
0.0834016
-0.447174
-0.875712
-0.567152
0.332599
0.432409
0.820256
0.551969
0.285618
0.162846
1.16209
0.446581
-0.203477
-2.02029
-2.59644
-0.46188
0.0724251
-0.730655
-0.294997
0.487871
0.368314
1.53578
-0.96093
0.0434853
0.525378
1.13521
0.217043
2.33389
1.7291
0.756626
1.2746
0.409889
0.306029
0.0580178
-0.555414
-0.0527026
0.0620547
1.46459
0.298907
1.48371
1.03066
0.699747
0.497723
-0.134841
0.812954
1.04773
1.39548
0.362646
0.876572
-0.903657
-0.934327
-0.0116091
-0.382528
-1.59701
-0.920102
-0.128236
-0.916767
0.367237
0.611771
-0.0596898
0.627292
0.182223
-0.415542
-0.394045
0.912669
1.1528
0.148126
0.948391
1.34799
-0.475877
0.715477
-0.377241
-0.568634
-1.05311
-0.673803
0.685821
0.389081
0.634439
-0.399891
0.101081
1.63257
-0.200411
-0.86425
-1.70909
-0.410738
-0.103511
0.434433
-0.149204
-0.517546
-0.472575
-0.976484
0.0358288
-0.0191021
-1.38884
-1.83685
0.162922
-1.3511
0.532711
-0.970327
-0.101074
0.400089
1.8836
-0.28276
0.692131
-0.612582
0.231942
1.21303
0.614073
1.47803
0.532842
1.15024
-0.299546
-0.110073
-1.24874
-0.33255
-0.0378869
0.826183
-0.914618
0.23816
0.118395
0.581495
0.00791156
-0.825936
1.01953
-0.414913
-0.519149
-1.37741
-0.226915
-0.0356039
0.680295
-0.118788
-0.530217
0.546003
0.0755877
-0.941462
-0.95469
-0.318887
-1.7763
-0.627372
-0.927611
0.197869
-0.435674
0.294993
0.879029
-0.0954309
0.59001
0.111519
0.0877752
-0.811644
-0.495789
-0.201674
-1.77766
0.0214086
-0.533257
-0.0128019
0.21454
-0.266851
-0.633256
-0.661123
-0.763429
0.627059
1.40823
1.04712
-1.13463
-0.246569
0.0327789
0.383942
0.821885
-1.30058
0.260285
0.412211
-0.836024
-0.453942
-0.299857
0.192624
0.682947
0.0715146
-0.167691
1.66778
0.39203
-0.0180651
-1.05808
-0.333594
-1.33794
0.150738
1.94646
-0.145035
0.154279
-0.0846683
-0.13064
-0.0546171
0.123909
0.199591
-0.524115
1.37372
-0.576764
-0.204685
-0.0370118
1.25025
-0.00898145
0.180742
0.502046
-0.587261
0.841894
-0.26106
1.60533
1.2626
0.272818
-0.233646
-0.0840164
0.102228
1.31011
0.171335
-0.808416
-0.0287215
0.356437
-0.692236
0.213146
0.458513
-0.127306
-1.58935
0.158261
1.02127
-0.824037
-0.220664
-0.0840772
-0.776427
1.11055
-0.187541
-0.673212
0.890644
-0.201131
0.0116681
-1.45846
-0.0557507
0.089457
0.287024
-0.308978
-1.12671
0.681311
0.796866
-0.720294
-0.0495636
0.153548
1.46553
1.16638
0.5295
0.059486
0.827845
0.743938
-0.601538
-0.132704
-0.02714
-0.753598
-0.827917
-0.752579
-1.21438
-0.998281
-0.379851
-0.38301
-0.33618
-0.122536
-0.461593
-0.907391
0.515864
0.910398
0.326191
-1.40725
-0.434884
0.16682
-0.284814
-0.369204
0.0479063
0.127098
0.880114
-1.20163
-0.854463
0.345291
-0.590465
0.0169774
-0.582511
0.277548
-0.842906
-0.515316
-0.197086
-0.00215416
1.07739
-0.26173
-1.06227
-0.991926
-0.391121
-0.604073
-0.017014
-1.35908
-0.957739
0.164274
-0.441932
0.199552
-0.0331621
0.899659
0.228474
-2.33185
-0.386183
0.179143
0.0822472
-0.110834
-1.31324
-1.22712
0.935993
-0.180743
-0.307418
-0.769167
0.329981
0.028449
-0.196778
0.813792
-0.347152
0.103175
-0.619017
0.107493
-1.65874
0.774316
0.840871
-1.04156
0.893724
-0.0822631
-0.0024568
0.434531
-0.176938
-0.587812
0.56549
-1.69745
-1.60573
-1.41809
-2.90671
-1.07487
-0.385948
-0.385948
-1.59453
-0.160569
0.228743
0.405307
-0.434768
-0.967872
1.85783
0.851454
0.503157
-0.239914
-0.424757
0.392744
-1.68086
-1.90208
-2.2302
-0.762993
-1.80273
-0.52391
-1.40863
-0.812542
-1.31842
-1.43899
0.0331223
0.126724
-1.57018
0.421491
0.022264
0.686597
-0.283816
-0.389306
0.96593
1.32054
-0.653112
-0.262041
-1.32608
-0.969354
0.327633
-0.171559
-1.27676
-0.480271
-0.86728
0.505576
0.0130481
-1.24587
-1.60087
0.305467
0.848777
1.95396
1.06761
0.768979
0.648954
0.918441
-1.32144
-0.69493
-0.741747
-0.309659
-1.51824
-0.827518
0.449788
-1.2888
-0.847904
-0.418278
-1.13104
-0.526386
0.451769
-0.565566
-0.556052
0.992299
0.456953
-0.232878
0.0685687
0.378673
-0.606513
0.230341
-0.200803
-1.63614
-1.00914
0.157489
-0.636454
1.16546
0.458315
-0.998354
1.14277
-0.738002
0.0708833
-0.199008
-0.961933
0.443334
0.00122034
0.0167785
-0.0386583
-0.401628
-0.928107
0.760757
-0.437247
0.724664
-0.445998
-1.39916
-0.537461
-0.25425
0.732762
0.0621715
0.542931
-1.6779
0.366331
-0.197578
0.361705
-0.719423
-0.855105
-0.0581745
0.831478
-0.211119
0.837458
-0.568518
-0.74788
-0.989831
0.743923
-1.66655
0.121775
1.00205
0.169067
0.308845
-0.969608
-0.0762351
0.892944
-0.392557
0.585796
0.291734
0.681193
0.474846
-0.391635
-0.516175
0.792312
-1.00407
-0.0153321
-0.256803
-0.230368
0.212873
-0.286952
-0.572765
0.463198
0.722181
-0.262187
-1.09389
-0.0128195
0.906184
-1.09195
-0.731193
0.170821
-0.380174
-0.28381
0.151643
-1.02598
-0.403952
-1.68318
-1.88862
-0.879458
-0.457216
-1.48303
-1.69767
-0.806191
-0.232249
-0.634633
-0.304178
-0.91347
-0.160499
-0.177796
0.868217
0.0261101
1.38421
-0.116664
-0.631273
-0.37954
-0.913497
-0.110161
0.0873726
-2.26796
0.133853
0.169878
0.00292797
-0.186947
0.109144
-0.392543
0.172078
-0.798813
1.16321
0.0842235
2.00398
-0.350909
-0.972648
-1.04244
-1.58628
-0.667098
-0.61094
-1.48163
-1.58457
-1.61742
0.27558
-1.46343
-0.314433
0.695699
0.203418
-0.0837166
-0.742989
-0.161044
-0.466673
-0.310857
-0.765562
0.385837
0.663783
-0.7465
-0.132729
-0.611438
1.37087
-1.65615
-0.332676
-1.72961
-0.694654
-0.919916
-0.7276
0.456155
-0.854814
-0.458255
0.442041
-1.01509
-0.740703
1.42791
-0.929793
-0.193929
-0.503667
0.184271
-0.41812
-0.0857723
-0.834739
-0.769002
-0.672783
-1.28077
-0.26714
0.288598
-1.3721
0.372222
-0.194567
-0.10075
0.850161
-1.42244
-0.53172
-0.152579
0.414971
0.894994
0.970981
-0.0015362
-0.837624
-1.27557
0.0625086
-0.771841
-1.62743
-0.691232
-0.803348
-0.671868
1.14083
-0.463659
-0.896289
-0.800556
-1.90463
-0.740025
-1.44772
0.584542
-0.674219
-0.666737
1.18404
0.832623
-0.589812
-0.979807
0.262877
0.51396
0.928678
-0.516034
-0.576409
-0.159282
-0.510355
1.82983
-1.36598
-0.264652
0.530387
-0.264769
-0.422258
-1.10187
-1.32102
0.803362
0.733571
-0.632508
-1.22705
1.20979
-0.667477
-0.344936
-0.54545
-0.490915
-0.492592
1.53789
-0.216857
-0.343142
0.247444
0.537721
-1.75098
1.29707
0.162657
-1.77297
-0.115544
-0.530679
0.585591
-1.37798
-0.624583
-0.816632
-1.50223
-0.688399
-1.79415
-1.94784
-2.06601
-2.32182
-1.91212
-0.872477
0.221404
-0.381189
-0.847266
-0.384863
0.263763
0.267113
-0.328181
0.585885
-0.459261
0.196861
0.670367
-0.62533
-1.52517
-0.942178
-2.50647
-0.0305578
-2.98421
-2.06335
-0.189547
1.15723
0.926564
-0.683817
-1.11669
-1.19137
-1.07921
-1.85035
-0.521343
0.357041
1.45838
0.173583
-0.137168
-2.22735
-1.28634
-1.62083
-1.80484
-1.45898
-1.53155
-2.2421
-0.0485494
-1.7212
-0.0352231
-0.163557
-1.72803
-1.51841
-1.88111
-0.168826
1.04873
0.959634
-0.253257
0.828924
0.845886
-0.808143
-1.20891
-0.0715552
-1.19722
-2.30226
-1.62118
-1.18757
-1.25175
-0.68369
-0.313362
-1.3641
0.383522
-0.898096
0.141944
-0.418733
-1.90636
-0.599834
0.300676
-1.06775
-0.418021
-2.71628
-0.492084
-0.490798
-1.75341
-2.49057
-0.924993
-0.911518
-0.336309
-0.328367
-0.898055
0.307353
-0.850209
-0.561448
-0.48793
-0.253572
1.17616
0.622529
0.77642
0.365018
-0.945954
-1.40169
0.394944
0.656947
-0.700245
-1.17381
-1.08834
-0.0977243
-1.25873
-0.310603
-0.0379906
-1.35902
-0.550082
-0.182368
0.11265
-0.838981
-0.0465426
0.782277
-1.70805
0.149608
0.0285969
0.762504
-0.693646
-0.0817804
-0.800471
-0.587674
-0.470185
-0.177148
-1.07354
1.12442
0.230905
-0.801221
-0.951003
0.190141
-1.11433
-1.46506
0.10925
-0.510522
0.29041
-0.140872
-0.169572
-0.252268
-0.646488
0.463942
-0.429395
0.4638
-0.671129
-0.868542
-0.0566836
1.85163
-1.01671
-1.00298
-0.245606
-0.0348401
-1.51009
0.196169
-1.24606
-0.951149
0.96865
-0.437771
-0.474166
-0.361703
-2.36096
-0.754352
-1.39975
-2.6923
-2.76241
-1.29749
-0.649761
-0.322165
-1.46713
0.113707
-0.330682
-1.57293
-0.552097
0.498079
-0.0673045
0.106113
-1.99478
-0.296555
-0.647397
-0.315296
-2.33497
0.195496
0.0388897
-2.47757
-0.178137
-0.550913
-0.170621
0.331526
-0.152671
-0.739077
-0.3305
-0.778757
-1.49422
-1.59439
0.222064
0.378135
0.391432
0.77781
-1.53202
-1.27026
-0.55087
-1.35447
-1.3402
-1.87315
-1.97623
-0.81639
0.0964854
-0.679427
-0.946001
-0.87366
-0.957845
-1.89155
-0.889537
1.18228
0.540696
0.902513
-0.252703
1.00627
0.542674
-0.779325
-1.17831
-2.30451
-1.28325
-0.87214
-0.933416
-0.551854
-1.0985
-0.721528
-0.676197
-0.382503
-0.0817837
-0.761329
-0.327281
0.299352
-0.785579
-0.168796
-1.12165
0.150295
-1.10782
0.949534
-0.0469407
-1.09674
-0.0822945
-0.109167
-0.879294
-0.701944
-0.714397
-0.212247
0.198929
-0.430561
-1.61082
-0.473188
-1.63883
-0.572023
-0.0535573
0.190157
0.460372
-0.627754
0.995628
-0.260669
-0.479905
-0.0879283
0.535048
-1.28667
-0.825839
0.288303
-1.02259
0.199477
-1.15228
-2.00426
-0.319997
-1.1657
1.43807
-0.715831
-0.174832
0.410829
1.02814
-1.12176
0.246734
-0.558198
-1.15263
-1.02829
-0.505426
-1.0254
-1.28469
-0.872176
-0.542422
0.328271
-0.23547
0.172669
-0.737884
-0.352003
-0.753355
0.0952244
0.897627
0.769288
-0.0164388
-1.00859
0.250984
-0.408911
-0.937851
0.365862
-0.294809
0.0881412
-0.624573
-1.40152
-0.700146
-0.702278
0.500211
0.47746
-0.648979
-0.277424
-0.509216
-0.205752
0.151395
0.781327
0.588778
-0.0909756
-0.0960195
-0.571559
-1.31043
-1.86243
-1.17048
-1.78473
-1.76852
-2.12942
-0.30913
-0.947417
-0.302751
-1.09884
-1.1123
-0.86997
-1.19839
0.444594
-0.681792
0.0788943
-0.298357
-0.303759
-0.153995
0.136704
-0.90033
-0.392218
0.0414532
-1.24622
0.0305272
-1.87762
0.0376034
-0.206739
0.00654454
-1.52534
-0.351681
-0.80174
-1.38805
-0.487939
0.299261
0.764299
-1.86577
-0.694122
-1.55446
-1.50024
-0.279728
-0.745148
-1.48754
-1.48755
-1.22561
-2.03199
-0.907441
-0.70757
-1.67743
-0.411482
-1.51345
-0.96454
-1.69269
0.348558
-0.572736
0.532961
-0.356635
-1.15806
-0.51537
0.314674
-0.607489
-2.32094
0.100545
-1.12554
-1.64716
-0.381091
-1.63514
-1.07656
-1.95794
-0.271944
-0.315551
-0.718563
-0.646668
-0.673382
-0.186758
-0.268643
-0.700911
-0.0890145
-1.09699
-1.34591
-2.25859
-1.27811
-1.07434
-0.298459
-1.09593
-0.0980197
-1.07256
0.0327528
0.0212133
0.273102
-0.933245
-0.760672
0.303114
-1.03645
-0.103523
-1.4481
0.766351
-0.483907
-1.06712
0.846252
-1.51975
-0.301061
-1.19512
-1.4745
0.373792
-0.589676
-0.807299
0.381756
-1.31301
0.425768
-0.113081
-0.0820099
-1.25355
-1.51514
0.342824
-2.08205
0.0351067
-0.776732
0.414909
1.02451
-0.0264933
-1.00593
0.865279
-0.428834
-0.800559
0.231057
1.1863
0.992177
-0.267343
-0.851403
-1.27892
-0.18915
1.05038
0.113099
-0.960424
0.626667
0.0890383
-0.117795
0.425481
-0.854486
0.0549266
-0.268037
0.723375
-0.458615
0.418982
0.196821
0.155887
0.0290675
-0.894344
-0.823233
-0.267409
-1.04195
-1.70829
0.00745358
-0.282438
-1.31676
-0.941492
-1.21275
-0.834776
-1.30092
0.0849531
-1.04524
-1.12721
-1.34438
-2.56457
-2.25283
-1.52988
-1.44601
-0.385267
-0.0287146
-0.803212
-2.4209
-1.46655
-1.18522
0.101678
-0.788075
-0.793024
-0.674695
-0.8174
-0.876683
-2.5236
-2.25891
-1.663
-2.42364
-1.79021
-1.89461
-1.80818
-1.56759
-0.864684
-1.13336
-0.398603
-0.576302
-0.946156
0.554371
-0.750139
-0.868282
-0.493019
-1.58553
-0.310335
-2.30052
-1.82289
-1.41185
-1.66038
-2.52771
-0.794337
-0.692934
-0.685163
-1.51472
0.0643322
0.042281
-0.828688
-0.982755
-0.404067
-0.236449
0.0388435
-0.910642
-0.514484
-1.33023
-0.427138
-1.42157
-0.248529
-0.729274
-0.784917
-1.51599
-1.21781
0.153837
-1.10363
-1.35584
-1.0091
0.579639
-0.290383
-0.390386
-0.463806
0.175772
-0.799328
-0.298779
-0.95078
0.952643
-0.358348
-1.54221
-1.62011
-0.942291
-1.40625
-0.258758
-1.93135
-1.57631
-1.47361
-0.108599
-1.90458
-1.24633
-1.11776
-0.727308
-1.30029
0.965046
-0.311888
-1.01435
0.280722
-0.34008
0.162595
-0.46398
0.40993
-1.56441
-1.40668
-0.384147
0.232576
0.184987
-0.744549
-0.106717
0.294701
-0.844277
-1.05281
-0.145276
-0.0727099
-0.0147855
-1.55728
1.09733
-0.481232
0.317805
-0.560825
0.367013
-1.15565
-0.578876
1.01177
-0.119867
-0.698264
-0.816177
-0.407693
0.00580706
-0.97944
-1.83001
-0.995777
-1.06172
-0.0212216
-0.124949
0.555577
-0.340271
-0.0720972
-0.271233
-0.0147871
0.78056
1.93653
0.058907
1.01305
0.656535
-1.73789
0.0136023
-0.127923
-0.0201922
-1.19159
0.798508
-0.734689
0.411673
0.285619
-0.907407
-1.58389
-1.10093
0.302119
-0.0308872
-1.68965
-0.18757
-2.209
-1.92897
-1.65785
-0.567477
-2.6693
-2.32063
-0.724185
-0.317717
-0.234602
-0.453704
-0.346564
0.11507
0.121824
-0.609606
-1.32516
0.0660783
-0.669204
-0.0360515
-2.76015
-0.592351
-1.16856
-0.0396918
-0.093595
-0.835153
0.0802529
-1.83907
0.187719
-1.10168
0.00469578
-1.2313
0.0146552
-1.79852
-0.591087
-1.43099
-0.727725
-1.02111
-1.35414
0.497281
-0.193097
-0.261118
-1.95198
-0.700812
-2.13405
-1.94823
-0.92034
-1.85865
-0.99442
-0.696898
-0.0641612
0.780225
-1.62092
-0.95649
-0.897996
-1.34215
0.16704
0.746514
0.430033
-0.222621
0.180474
-0.962475
-1.66996
-0.438401
-1.54677
-0.442595
-0.466439
-0.117685
-0.50268
-1.19464
0.193458
-0.907613
-0.955566
-1.09393
-0.88287
-0.867869
-0.80588
-0.536922
-0.369335
-0.227081
0.101507
-1.29884
-0.676072
-1.00788
-0.303476
-1.9057
-0.567326
-0.55397
0.0756899
-0.246247
-1.22023
-0.352538
-1.40515
-0.367255
-0.303291
0.181834
-0.118994
0.971535
-0.836287
-0.446792
-0.208148
0.21373
-0.405958
-0.620555
-1.58405
-0.738389
-1.02301
0.114906
-0.094225
-0.859125
-0.582994
0.00101869
0.303475
-0.147919
-0.0168656
0.155361
-1.09051
-0.930847
-0.286448
-0.804324
0.0563819
-1.32464
-0.740313
-0.894515
-1.76948
-0.066688
-1.02787
-1.5956
1.03702
-1.01266
0.0373631
-1.68655
-1.34607
0.651944
0.341521
0.202484
0.166996
-0.599036
-0.450631
0.774595
-0.458091
0.816696
0.784207
-0.763416
-0.741035
-1.41425
0.533921
-0.062197
1.0494
-0.725113
-0.980113
1.24481
0.861317
-0.369915
-0.510405
0.0491833
-0.599669
-0.438694
-0.104397
-0.396241
-0.530131
-0.683136
-1.34399
-0.965421
-1.45457
-1.56372
-0.52348
-0.885267
-0.770504
-1.65979
-0.292467
-1.02932
-1.95849
-1.37331
-0.697456
-0.301394
0.00122883
-0.970352
-1.51296
-0.972129
-0.947057
-0.0497196
-1.15873
-1.02736
-0.641439
-0.964664
-0.594704
0.19807
-0.130662
-1.96343
-0.246409
0.172967
-2.00941
-1.18126
-0.636487
-1.62405
-1.72955
0.998609
-0.934402
-0.919584
-0.396508
-0.756366
-1.37353
-0.900905
-0.126149
-0.881926
-0.536444
-1.38313
-1.12373
-1.19191
-0.508125
0.37772
0.149053
-0.387635
-1.56562
-0.57323
-0.822719
-0.0749913
-0.500811
-0.870383
-0.284231
0.57154
-0.0627696
-0.743529
-1.34547
-1.00351
-1.03022
-0.681161
-0.562177
-0.250363
-2.03321
-1.55084
-0.991154
-0.575143
-0.65846
-0.701597
-0.239348
0.340237
0.397361
0.778229
-0.801773
-0.640398
0.0738724
-0.312345
-1.0054
-0.0474403
-0.599996
-1.58847
-1.26412
-0.702139
-0.792427
-0.154386
0.59933
-1.57422
-0.932829
0.528576
-0.26995
-0.318782
0.584728
0.754892
1.0421
-0.0733227
-0.907631
1.04472
-0.303193
-1.06074
-0.731046
0.494958
-0.246079
0.387734
-0.264874
0.160345
-0.917215
-0.194576
0.34636
-0.206484
-0.428402
-0.61219
-0.692439
0.357834
0.139986
-0.0544908
0.406112
-0.198861
-0.874579
-0.103374
-0.406256
0.0223683
-1.06433
-0.21174
-0.88835
0.223045
-1.92172
-0.77595
-0.117603
-0.169639
-0.191474
-0.892608
-0.59691
-0.0475313
0.494121
-0.383401
-0.689771
-0.756782
0.45691
-0.141035
0.442033
-0.360581
0.000782776
-0.433925
-0.838011
0.228921
2.00918
-0.726195
-0.895085
-0.945687
-0.514616
-0.0875005
0.0133633
-0.818335
0.358505
-0.474961
-0.103174
-1.08135
0.144488
-0.65126
-0.697667
-0.477143
0.131923
0.465731
-0.393239
-0.852446
-0.438236
-1.49491
-0.499997
0.104492
-0.352495
0.367111
-1.13584
-0.120884
0.878155
0.0625835
-0.564012
0.024101
-0.053162
-2.03138
0.294876
-0.547629
0.0569773
-0.0752735
-0.439073
-0.732005
0.200561
-0.860619
-0.736616
-1.00833
-0.976057
-0.920283
-1.08785
-0.948931
-0.0181907
-0.322834
-0.769595
-1.83613
-2.70794
-1.00721
-1.37695
-1.36153
0.519227
-1.32251
-0.353504
-0.212877
-1.06356
-0.0557952
-1.49532
-0.243776
-1.2934
0.240833
-0.15474
-0.29873
-0.204272
-0.789834
-0.184096
-0.794772
-1.19035
-0.651149
-2.08404
-1.73376
-0.301086
-1.44046
0.0618495
-0.39255
-1.67843
0.00425189
-1.31557
0.82871
-1.06961
0.0143709
-0.985945
0.00729848
-1.51557
-0.746947
-0.86965
-0.971167
-0.117501
-1.54899
-1.34959
-1.59901
-0.455076
-0.35886
-0.28087
-0.423733
-0.201991
-1.08953
-0.811959
0.188059
-0.147742
-0.910637
-2.25409
-0.430195
-0.35711
1.13761
-1.11751
-0.0465911
-0.684292
0.116632
-0.749399
0.253001
0.134261
-0.102069
-0.173022
0.168956
-0.0984256
-0.0656289
0.32195
0.727095
-0.140071
-0.098838
0.105053
-0.081898
-0.413567
0.00272862
-1.56965
-0.822743
-0.731663
0.59152
-0.525049
0.101711
0.270886
-0.690264
1.16635
-0.155335
0.849704
-1.31499
-0.0973287
0.0500133
-0.240575
-0.633029
0.089614
0.146925
-0.337783
-0.810619
-1.27726
0.465344
0.248757
0.368388
0.934571
-0.224202
-1.44369
-0.0037672
0.0638624
-0.291441
0.853333
-2.03895
-0.702891
-0.197621
-0.0784383
0.191193
0.154564
1.1359
0.137056
-0.376799
0.660521
-0.634665
-1.52333
-0.047245
-0.103279
-0.218382
0.0736593
0.163142
0.391697
0.0645072
0.320552
0.0826976
0.851504
-0.330467
-0.791951
0.897852
1.21078
-1.08037
-0.125293
0.883261
0.656701
-1.28969
-0.214148
-1.59283
-0.198998
-0.875932
-0.604533
0.0295877
0.554054
0.304218
-1.12967
-1.32956
0.0256625
-0.164461
-1.0907
-0.765222
-1.17314
0.939842
-1.28626
-1.30582
-0.881867
-1.33721
0.345937
-0.575709
-2.15937
-0.29426
-0.656494
0.49476
0.361771
-1.11705
1.28019
0.123569
-0.0583669
-0.772658
0.459978
0.821329
0.396103
-0.351464
0.126948
-0.77682
-0.825689
-0.773464
-0.909777
-0.149069
-0.227766
0.256505
-0.547985
0.413853
-0.310371
0.460445
-0.433376
-1.0128
-0.327232
-0.939578
1.07051
0.0873447
-0.332058
-0.475023
-1.56135
0.242643
-0.2261
-0.576637
-0.494662
0.568342
0.581566
1.02347
-1.13593
1.35445
0.735395
0.647351
0.801583
0.221462
-0.553973
-0.854343
-0.420425
-0.494812
-0.29663
-0.748545
-0.33217
-0.443304
-0.662612
-0.759307
-0.805856
-0.311074
-0.131268
-0.623943
-0.94781
-1.06562
1.18175
0.625377
-0.91331
-0.277091
0.153983
-0.183683
1.0339
1.39571
-0.913125
0.834438
-1.20126
-0.715485
-0.888829
0.173571
-0.262952
-1.3751
-0.348653
-0.114637
0.0718673
0.427454
0.383248
-0.00493621
-0.104156
-0.731608
-0.469464
0.268935
-0.0403734
-0.606896
1.19697
0.717826
-0.714705
-0.11011
0.193359
-0.558048
-0.337279
-0.105097
0.268696
0.964457
0.162935
0.636178
0.29241
0.0457019
0.00179241
-0.201917
-0.159067
0.0723521
1.24743
0.213188
1.49054
-0.337511
2.11828
1.02353
-0.963756
0.642358
0.269229
0.395871
-0.520794
0.413034
-0.772838
0.450957
1.23038
0.766525
-0.728273
-0.0503955
0.188976
0.0771681
1.18244
0.11173
1.09539
0.193926
-0.41214
-0.298494
0.706059
0.334358
0.0214737
-0.379741
-0.218524
-0.347037
0.129461
1.60777
-0.0676956
0.492003
-0.111176
0.409466
-1.31752
1.06321
1.5244
0.12031
0.399408
0.602891
0.874206
0.0382936
-0.764717
-0.752221
0.383412
0.410165
-0.0434293
0.355357
0.757099
-1.69011
0.469251
1.2779
0.030358
-1.20647
-0.438599
-0.0200323
0.523835
-1.29371
-0.280795
-1.19775
-0.353208
1.35118
-0.684582
-0.0135338
-1.06245
-0.292452
-0.773966
-1.29407
0.0412527
-0.732865
-0.471443
0.0594254
-0.641687
-0.307342
0.107468
-0.485071
0.582549
1.82852
-0.678804
-0.621476
0.0909996
-0.248984
-0.668441
0.20556
0.400831
0.0810643
-0.728736
-0.0624187
-0.0951506
0.495793
-0.0651856
0.273829
0.195515
0.469794
0.437411
0.741772
0.435279
-0.0281168
-0.117528
0.0288438
1.44312
0.900997
0.667965
0.82408
1.59437
-1.68189
-0.561076
-1.45956
-1.13769
-0.396376
-0.242458
-1.03308
0.44674
1.21819
-0.890692
-0.0687779
0.199218
-0.637522
1.01441
1.37504
0.0926492
0.702985
-0.773754
-1.51395
0.567928
-0.610732
0.0607217
-1.03902
-0.515664
-1.58543
-1.07034
-1.52601
0.466319
0.0780186
-0.955648
1.16326
-0.151897
-0.481053
-0.536084
0.579929
-0.250813
-0.22983
1.55545
-0.561655
1.40081
0.251278
0.128006
-0.673609
-0.200282
-0.0531143
0.164795
-0.91379
-0.267733
-0.367528
-0.929174
-0.594263
1.73464
0.963915
1.93524
0.405186
2.40955
1.98687
0.376737
2.12958
0.551164
0.41545
-0.197835
1.08625
0.0469429
0.896948
1.64041
1.9397
1.42715
0.219817
0.259919
0.449608
-0.484161
-0.677708
1.16107
-0.189237
1.1903
-0.87502
1.28095
0.345635
0.354169
0.358843
-0.195169
-0.160537
0.376823
0.0739962
0.967788
0.444778
0.169644
1.21844
-0.537102
1.19866
0.55003
0.739541
0.482334
0.704591
1.44446
0.0137138
0.554923
0.60238
-1.31847
0.765219
-1.17151
0.0469875
-0.606903
-0.076926
-0.0457029
1.02847
-0.261511
0.205667
1.61319
-0.380585
0.988245
1.31983
0.26102
0.782226
0.27129
-0.153817
-0.240351
0.033237
-0.0928093
0.706385
-0.0608624
-0.0101546
-0.70112
-0.455896
-0.179148
0.169667
0.101005
0.337677
0.041196
-0.764657
0.453678
-0.370135
0.779354
0.225077
0.891981
-0.853309
1.85208
1.12149
1.1629
-0.142873
-0.832114
0.305403
0.25077
0.43573
-0.0910901
1.33795
-0.212949
0.633573
-0.470343
0.0464365
-0.359458
0.115456
1.50939
0.670296
-0.135018
-0.0296351
0.720932
0.263069
0.706815
-0.230851
-0.282681
-0.319666
0.787018
0.0672411
0.799469
0.284019
-0.274982
0.00136462
0.306118
0.362925
0.281852
0.0286291
1.14834
0.207732
-0.382731
0.754091
-0.833298
0.439028
-0.519827
-0.389267
-0.359364
-0.424462
0.418778
0.986541
-0.200743
0.252323
1.37479
1.32318
0.483944
-0.031881
1.03205
0.0113651
0.961378
-0.312723
-0.112869
0.644407
0.0339854
-0.180976
-0.47241
-0.977504
0.549174
0.504213
0.703229
-0.939942
-1.53555
0.0919897
0.249682
-0.932275
0.316611
1.66977
0.875674
1.16428
1.53857
2.2123
1.95264
1.46782
1.36265
1.01196
1.2013
0.771025
2.29844
1.69472
2.27745
1.74285
1.74476
1.50333
1.0772
0.53416
0.956556
0.474658
1.7978
-0.0838479
0.998172
0.13144
1.58501
0.0161668
0.387314
0.198293
0.18582
1.41399
-0.102498
0.838355
0.10545
1.36686
0.154928
0.802177
0.137625
-0.323384
-0.272306
0.627275
0.0775342
0.637146
-0.241118
0.396045
2.05862
1.58973
1.11523
0.807573
2.32275
0.0304164
0.288019
1.04007
0.509219
1.6932
-0.4318
0.255202
0.58157
-0.448946
0.288347
0.438312
0.134901
1.93413
1.29641
0.317004
0.798346
0.368997
-0.47394
0.527804
0.422154
-0.107413
-0.606651
0.15416
0.549236
0.440387
0.689903
0.652556
0.825063
0.388704
-0.00651361
0.801627
-0.168215
1.11254
-0.682536
0.922425
-0.458931
0.252448
1.46695
0.629083
-0.681111
1.18714
-1.11679
0.124865
0.22427
0.845089
0.376791
2.16025
1.15095
-0.489658
0.244279
1.66406
0.145171
1.01405
1.51249
-1.33763
0.652307
0.865432
-1.23158
-0.575938
-0.840016
-0.0055735
0.561914
-0.37642
1.66646
-0.17211
-0.0523441
0.0183049
0.742316
-0.379928
0.908243
0.584973
0.675028
-0.544254
-0.625793
-1.01773
0.255012
0.828184
0.169286
0.452599
1.19018
0.739822
-0.325185
0.0103155
1.1028
0.0196068
0.790369
-0.962789
-0.560313
-2.82267
-0.885193
-0.0966203
0.352093
0.0462802
0.435491
-0.0932625
0.128335
0.693564
-0.585887
0.851981
-0.434795
0.54374
-0.505046
-0.439027
-0.296313
1.67843
1.55566
-0.806758
-1.49455
-0.11174
-0.289203
1.57617
2.02817
1.06432
2.21442
2.06099
1.37305
0.517434
2.87924
1.23057
0.87794
1.41908
1.87779
3.22683
1.32778
2.69304
1.05075
2.34246
1.16631
0.344354
-0.326348
1.62425
1.34911
1.34904
0.540866
1.35948
1.88238
1.25965
0.319433
-0.30116
1.24449
0.837
2.25859
-0.0184282
0.838783
0.125775
0.559396
0.42146
1.15848
1.00611
1.64734
0.770961
0.320348
1.36258
2.02168
0.999303
0.749031
0.758089
1.4498
0.611384
1.1694
0.54203
1.55917
0.155998
1.24892
1.67879
1.73967
0.727111
0.576968
1.05048
-0.0712471
-0.223372
0.174711
0.334381
0.857549
0.878807
1.6106
1.93646
1.51338
1.08724
1.30795
1.17533
1.01441
-0.586864
0.67477
0.568991
1.5776
0.383476
1.51733
-0.0229377
-0.231458
0.386733
0.112628
0.896455
1.06144
1.33059
0.223527
-0.322231
0.857971
0.870725
1.69802
1.06728
-1.07183
1.54516