/*--------------------------------*- C++ -*----------------------------------*\
| =========                 |                                                 |
| \\      /  F ield         | OpenFOAM: The Open Source CFD Toolbox           |
|  \\    /   O peration     | Version:  2212                                  |
|   \\  /    A nd           | Website:  www.openfoam.com                      |
|    \\/     M anipulation  |                                                 |
\*---------------------------------------------------------------------------*/
FoamFile
{
    version     2.0;
    format      ascii;
    arch        "LSB;label=32;scalar=64";
    class       volScalarField;
    location    "0";
    object      relativeErrorField;
}
// * * * * * * * * * * * * * * * * * * * * * * * * * * * * * * * * * * * * * //

dimensions      [0 0 0 1 0 0 0];

internalField   nonuniform List<scalar> 
3200
(
0.00566624
0.00502861
0.00451687
0.00430119
0.00457129
0.00495791
0.00560927
0.00635325
0.00724142
0.00760596
0.00782237
0.00790482
0.00759923
0.00736808
0.00727387
0.00700061
0.0073185
0.00789123
0.00884611
0.00975475
0.00485616
0.00407978
0.00370329
0.00353712
0.00366751
0.00412226
0.00471164
0.00526858
0.00560354
0.00633782
0.00661616
0.00669151
0.00643834
0.0062062
0.00618946
0.00614485
0.00624884
0.00672391
0.00750542
0.0081345
0.0038959
0.00337431
0.00298733
0.00280496
0.00302526
0.00308865
0.00393439
0.00426626
0.00510798
0.00514744
0.00532904
0.00572119
0.00536419
0.00504471
0.00489292
0.00481575
0.00517726
0.00556748
0.00639054
0.00698886
0.00325967
0.00279678
0.00236149
0.00228169
0.00223098
0.00267434
0.00317322
0.0033175
0.00399
0.00423224
0.00461489
0.00452368
0.00401797
0.00415842
0.00390998
0.00407171
0.00434431
0.00460176
0.00478049
0.00556621
0.00235217
0.00209073
0.00177353
0.00181496
0.0015919
0.00203413
0.00211679
0.00251469
0.00308574
0.00340648
0.00342484
0.00336396
0.00324405
0.00289353
0.00287672
0.00288002
0.00313775
0.00345422
0.00398119
0.00452128
0.00171814
0.0013258
0.00109598
0.000994235
0.00106768
0.00125211
0.00161264
0.0018795
0.00200691
0.00233828
0.0024221
0.0024189
0.00235806
0.00226223
0.00239425
0.00207147
0.00241822
0.00229547
0.00282875
0.00315104
0.00130241
0.000671436
0.000549737
0.000722647
0.000652901
0.000789799
0.000978435
0.000961085
0.0014385
0.001262
0.00138755
0.00169579
0.00138782
0.00143339
0.00142609
0.00113027
0.00152022
0.00124254
0.00168998
0.00191863
0.000310771
0.00024051
0.000483955
4.06843e-05
0.000311188
0.000227039
0.000282604
0.000459796
0.000545254
0.000385801
0.000521728
0.000465172
0.000576035
0.000421429
0.000474069
0.000403876
0.000433172
0.000533129
0.000534943
0.000335892
0.0031652
0.00248146
0.00167552
0.00150194
0.00143111
0.0020264
0.00254782
0.00327744
0.00387263
0.00448255
0.00489243
0.00472089
0.00451263
0.00426302
0.00418887
0.00409535
0.00446144
0.00506846
0.00593701
0.00706949
0.0026904
0.00188391
0.00123507
0.00109178
0.00133908
0.00148577
0.00213302
0.00268569
0.00332522
0.00375633
0.00413653
0.00387557
0.00376244
0.00388473
0.00348267
0.00357812
0.00390467
0.0044366
0.00516253
0.006298
0.00222423
0.00143388
0.00112649
0.000934777
0.000831109
0.00129029
0.00177445
0.00216244
0.00279096
0.00332458
0.00335769
0.00321662
0.00317952
0.00306721
0.00285491
0.00300794
0.00329163
0.00371688
0.00407237
0.00526115
0.00169378
0.00111879
0.000983698
0.000604604
0.000769332
0.000571875
0.00128906
0.00184484
0.00243903
0.00258034
0.00273179
0.00261251
0.00255373
0.00253075
0.00264503
0.00237578
0.00285543
0.00279983
0.00349211
0.0043796
0.00121352
0.00106063
0.000709138
0.000172499
0.00059557
0.000744762
0.00103517
0.0012954
0.00173894
0.00191895
0.00211977
0.00213253
0.00226144
0.00175832
0.00179581
0.00180066
0.00207689
0.00212423
0.00275082
0.00323135
0.000829856
0.000849752
0.00041321
0.000330664
0.00029428
0.000333565
0.000666588
0.000842873
0.00123743
0.0013153
0.00151612
0.00152797
0.00136169
0.00140833
0.00130844
0.00123206
0.00121031
0.0016173
0.00217275
0.00243359
0.000743605
0.00028967
0.000322937
5.42306e-05
0.000176452
0.00021063
0.000547266
0.00070764
0.000689646
0.000868556
0.00100082
0.000866954
0.000881636
0.000795652
0.000772214
0.000815525
0.000941211
0.00115515
0.00134059
0.00129173
0.000296344
0.000121356
0.000212337
0.000119681
5.33567e-05
0.000118198
7.76507e-05
0.000132015
0.000169033
0.000315275
0.000418248
0.000503885
0.000345372
0.000289111
0.000186127
9.83012e-05
0.000317824
0.000538239
0.000602319
0.000308466
0.00026503
0.000797912
0.00158236
0.00207091
0.00200253
0.00170222
0.00116916
0.000423724
0.000199842
0.000530929
0.000659934
0.000836546
0.000757664
0.000490684
0.000223529
0.000446066
0.000885965
0.00158091
0.00260438
0.00407638
4.68909e-05
0.000839066
0.00162778
0.0017496
0.00189437
0.00167487
0.00117349
0.000657722
5.79256e-05
0.000229913
0.00063532
0.000459135
0.000620633
0.000395705
0.00030931
0.000108784
0.000902993
0.00134647
0.00230837
0.00317317
0.000231055
0.000659468
0.0015335
0.00163485
0.00170521
0.00151401
0.00105772
0.000570449
0.000262773
1.84049e-06
0.000533261
0.000352295
0.000190503
0.000375364
0.000236318
0.000345337
0.000751383
0.00129129
0.00192201
0.00289841
4.18272e-05
0.000433564
0.00124343
0.00142276
0.0015395
0.00117394
0.00112014
0.000445597
0.000149897
7.31238e-05
0.00036363
0.000269573
0.000439681
0.000241308
0.00017142
4.98292e-05
0.000700915
0.00101357
0.00142816
0.00228155
0.00024708
0.000648331
0.000920802
0.00107034
0.0011734
0.000955307
0.000879638
0.000575497
0.000243536
0.000129357
0.000331036
2.962e-05
0.000300846
0.000108329
8.59374e-05
0.000155522
0.000326202
0.000845974
0.00144098
0.0017773
0.000119665
0.000422639
0.00080462
0.000920669
0.000661864
0.000861083
0.000460065
0.000426636
0.000281589
0.000236956
5.27837e-05
0.000245738
0.000163737
2.8579e-05
3.02849e-05
0.00015473
0.000281939
0.000513939
0.000837177
0.00139839
4.75363e-05
0.000272155
0.000428282
0.000543733
0.000519605
0.000497257
0.000549858
0.000148284
0.000154271
4.70563e-05
0.000106101
0.000306516
3.67881e-05
6.91728e-05
9.3284e-06
0.000116219
9.36876e-05
0.000359192
0.000432043
0.00086758
2.46394e-05
0.000246932
0.000298242
6.83089e-05
0.000227781
8.31329e-05
7.62986e-05
2.65585e-06
6.03785e-05
5.33667e-06
8.48411e-05
0.000104764
0.000197522
0.000160902
8.27346e-05
5.36493e-05
4.23189e-05
0.000201142
0.000275182
0.000359392
0.00276698
0.00392575
0.00485301
0.00544121
0.00552535
0.00542809
0.00509011
0.00453736
0.00399627
0.00346959
0.00325563
0.00341888
0.00336311
0.00326342
0.00328694
0.00304504
0.00252779
0.00176169
0.00029836
0.000753042
0.00250898
0.00349678
0.0043317
0.00487963
0.00497489
0.00473918
0.00453469
0.00404577
0.00358178
0.0031964
0.00278783
0.00292491
0.00285012
0.00313515
0.00299515
0.00286898
0.00240618
0.00139946
0.000499399
0.000744077
0.00233335
0.00289066
0.00390813
0.0041284
0.00435248
0.0039587
0.0038713
0.00360785
0.00310713
0.00271465
0.00260566
0.00262985
0.002626
0.0026086
0.00267203
0.00240679
0.0020688
0.00134176
0.000471703
0.000740558
0.0017237
0.00270772
0.00308446
0.00350684
0.0038977
0.00364154
0.00324152
0.00300434
0.00254138
0.00232503
0.00213715
0.00242069
0.0022289
0.00218492
0.00215267
0.00220613
0.00177677
0.00123101
0.000257378
0.000241607
0.00162028
0.0018162
0.0026276
0.00291036
0.00266884
0.00259231
0.00271727
0.0021978
0.00223786
0.0018829
0.0017815
0.00160266
0.00175347
0.00162429
0.00186086
0.00188242
0.00122959
0.000729451
0.000238975
0.000411255
0.00128478
0.00174836
0.00169664
0.00197516
0.00223487
0.0020424
0.00200563
0.0019094
0.00156461
0.00125768
0.00111013
0.0012092
0.00122784
0.00142833
0.00124057
0.00121353
0.00095279
0.000749166
0.00015481
9.95381e-05
0.000764032
0.000898741
0.00119819
0.00112994
0.00118923
0.00120825
0.000824195
0.00114858
0.000874713
0.00093571
0.000920757
0.000788412
0.000810161
0.00079808
0.000853038
0.000738869
0.000712508
0.000359002
0.000339674
0.000370596
0.000311885
0.000356812
0.000717871
0.000451118
0.000371601
0.000435056
0.000309547
0.000411958
0.000287056
0.000106156
0.000279456
0.000463202
0.000140464
0.000173811
0.000548902
0.000300077
0.000260103
0.00011322
8.31909e-05
0.000152654
0.00533038
0.00658065
0.00771839
0.00863833
0.00892811
0.00879067
0.00834169
0.0082784
0.00766276
0.00727661
0.00693874
0.00680745
0.00710756
0.00684259
0.00681511
0.00626964
0.00564268
0.00459602
0.0033254
0.00198968
0.00472749
0.00593844
0.0069167
0.00754921
0.00765332
0.00773564
0.00752727
0.00738483
0.00672705
0.00651934
0.00633862
0.0061553
0.00614789
0.00600224
0.00608352
0.00591022
0.00512443
0.00411128
0.00289016
0.00169791
0.00426833
0.00492747
0.00587748
0.00642872
0.006719
0.00675975
0.00671241
0.00638884
0.00619635
0.00562787
0.00549761
0.00518329
0.00532649
0.00532848
0.00517484
0.00479149
0.00445293
0.00359894
0.00254485
0.00144414
0.00360869
0.00424464
0.00503589
0.00535807
0.00561608
0.00564432
0.00529057
0.00520617
0.00481707
0.00476266
0.0046632
0.00440747
0.00489239
0.00448011
0.00465586
0.00394445
0.00366341
0.00289505
0.00221538
0.00139881
0.00275394
0.003209
0.00391929
0.00424502
0.00468352
0.00439081
0.00409577
0.00421681
0.00392112
0.00391286
0.00365755
0.00366847
0.00381231
0.00361602
0.00347907
0.00326599
0.00275726
0.00230196
0.00161035
0.00115942
0.00220965
0.0025287
0.00289027
0.003105
0.00346094
0.00313349
0.00311886
0.00301758
0.00304857
0.00281929
0.00259625
0.00253057
0.00264001
0.00253866
0.00257082
0.00240565
0.0017557
0.00175126
0.00106817
0.000600159
0.00111833
0.0016643
0.00182605
0.00202792
0.0020067
0.00208866
0.00210698
0.00185687
0.00171849
0.00169949
0.00150462
0.0015288
0.00163296
0.00157594
0.00145981
0.00155979
0.00148826
0.00101392
0.000720194
0.000433199
0.000554149
0.000528244
0.000468964
0.000585137
0.000886723
0.000778736
0.000788721
0.000715744
0.000518631
0.000533458
0.000844548
0.000454724
0.000511798
0.00066218
0.000694404
0.000412618
0.000345713
0.00026301
0.000237877
5.84415e-05
0.00731052
0.00873264
0.0101119
0.0109672
0.0115814
0.0116238
0.0114824
0.0113128
0.0109575
0.0104535
0.0104077
0.0102855
0.0102363
0.00977401
0.0097308
0.00936402
0.00842028
0.00698565
0.00563366
0.00414902
0.00665346
0.0077878
0.00898984
0.00965204
0.0100487
0.0103376
0.0102124
0.010013
0.00978
0.00925849
0.00897936
0.00904919
0.00906821
0.00885502
0.00865465
0.00823574
0.00746344
0.00606154
0.00502931
0.00356799
0.00570737
0.00682676
0.00772835
0.0084462
0.00886651
0.0090275
0.00901829
0.00855196
0.00838197
0.00818461
0.00801156
0.00779374
0.00796999
0.0076925
0.00749719
0.00719027
0.00642675
0.00530874
0.00432559
0.00313771
0.00474658
0.00552397
0.00641517
0.00727271
0.00751497
0.00734647
0.0074773
0.0071559
0.00713037
0.0067714
0.00667835
0.00662122
0.00655069
0.00652151
0.00633472
0.00589769
0.00538685
0.00438054
0.00364838
0.00253346
0.00368239
0.00432904
0.00501012
0.00563369
0.00592093
0.00597312
0.00585604
0.00556284
0.00570572
0.00546511
0.00532265
0.00526214
0.00494616
0.00510986
0.00506008
0.0046624
0.00435562
0.00362354
0.00290465
0.00206193
0.00274702
0.00320932
0.00376049
0.00402597
0.0042422
0.00416197
0.00440495
0.00405399
0.00394732
0.00408291
0.00391359
0.00381157
0.00377704
0.00373007
0.00360201
0.00336725
0.00288371
0.00264454
0.00206546
0.00155679
0.00163278
0.00193299
0.00241096
0.00242335
0.00268072
0.00263219
0.00273648
0.00237718
0.00259876
0.0024265
0.00224721
0.00233326
0.00233379
0.00247394
0.00238958
0.00217161
0.00196327
0.00172567
0.00121258
0.00122441
0.00070672
0.000647548
0.00092353
0.000861687
0.000806464
0.000892966
0.000790122
0.000915321
0.000908757
0.000833898
0.000731193
0.000749342
0.00059323
0.000618367
0.000794996
0.000844791
0.000559162
0.000411586
0.0005933
3.76384e-06
0.00881425
0.0103185
0.0120193
0.0130184
0.0137847
0.0139059
0.0140253
0.0140964
0.0136827
0.0134396
0.0132193
0.0131217
0.0126865
0.0126065
0.0121979
0.0115793
0.0106161
0.00908662
0.00730341
0.00547447
0.0078701
0.00914012
0.010475
0.0114784
0.011968
0.0124945
0.0124333
0.0123652
0.0120914
0.0119579
0.0116713
0.0116387
0.0113238
0.01124
0.0107797
0.0100915
0.00916061
0.00794858
0.00643396
0.00502904
0.00651996
0.0077683
0.00910652
0.00993782
0.0105642
0.0105634
0.010784
0.0105174
0.0105566
0.010452
0.0101952
0.0100136
0.00980619
0.0097407
0.00940392
0.00890934
0.00800302
0.00705902
0.00561764
0.00470398
0.0056989
0.00652064
0.00735691
0.00825613
0.00878521
0.00900465
0.00901208
0.00904967
0.00868674
0.00872281
0.00845991
0.00828136
0.00819301
0.00804085
0.00768415
0.00743371
0.00663723
0.00574209
0.0046636
0.00357003
0.0044759
0.00540046
0.00606223
0.00662763
0.00708489
0.00706241
0.00712663
0.00697481
0.00705039
0.00689012
0.00685134
0.00659836
0.00657691
0.00619284
0.00627564
0.00586473
0.00521338
0.00469283
0.00367204
0.00302915
0.00312901
0.0039468
0.00450871
0.00471226
0.00521557
0.00530653
0.0053014
0.00535695
0.00507663
0.00496653
0.00510041
0.00474251
0.0047847
0.00479913
0.00427701
0.00424542
0.00376091
0.00321219
0.00273331
0.00221227
0.00186097
0.00246086
0.00263276
0.0028896
0.00309753
0.00336302
0.00324548
0.00312676
0.00316655
0.0030477
0.00302302
0.00287569
0.0028128
0.0028727
0.00268226
0.00259259
0.00250158
0.00206668
0.00160495
0.00132603
0.000868411
0.000798261
0.00107348
0.0010973
0.000816066
0.00120223
0.00114118
0.00109184
0.00119378
0.000932782
0.00108261
0.00111299
0.00117226
0.000927029
0.00103941
0.000855666
0.000754034
0.000677695
0.000546773
0.000390846
0.00966268
0.0111659
0.0130536
0.0143456
0.0150248
0.0157832
0.0157826
0.0159456
0.0155837
0.0157121
0.0152615
0.0151829
0.0147384
0.014519
0.013719
0.0131236
0.012018
0.0103099
0.00841188
0.00642706
0.00857576
0.00986849
0.0115859
0.0125466
0.0135717
0.013997
0.0142123
0.0142003
0.0140571
0.0138108
0.0136467
0.0133011
0.0133307
0.0130112
0.0121853
0.0114613
0.0102927
0.00918645
0.00726858
0.00588776
0.00739014
0.00867768
0.0101351
0.0111137
0.0117044
0.0120579
0.012286
0.0122641
0.0122587
0.0119491
0.0117476
0.0115798
0.0113402
0.0110853
0.0105915
0.0100593
0.0091936
0.00786689
0.00654331
0.00527165
0.00620502
0.00718999
0.00843198
0.00914859
0.00985407
0.0100466
0.0102289
0.0103231
0.0101074
0.00990084
0.00985259
0.00962971
0.00936202
0.00935784
0.00886972
0.00845274
0.00748722
0.00640635
0.00542085
0.00416189
0.00507005
0.00550863
0.00652341
0.00717935
0.00762419
0.00820051
0.00834449
0.00821447
0.00807953
0.00807291
0.00794993
0.00788321
0.00759775
0.00718124
0.00708133
0.00655145
0.00594988
0.00535283
0.00440744
0.0034783
0.00354335
0.00418648
0.00493109
0.00503413
0.00537346
0.00576768
0.00601451
0.0058898
0.00575076
0.00590369
0.0056342
0.00559717
0.00558502
0.00529637
0.00515709
0.00497125
0.00458157
0.00394396
0.00328893
0.00265824
0.00235401
0.0026017
0.00300376
0.00314818
0.00338506
0.00371532
0.00366498
0.00372174
0.00370233
0.00380586
0.00344612
0.00351377
0.00344755
0.00327598
0.00324131
0.00288569
0.00275183
0.00225552
0.00188161
0.00157413
0.000972109
0.00083724
0.00109707
0.000993139
0.00116784
0.00121387
0.00117739
0.00138067
0.00128548
0.00120707
0.00106982
0.00120248
0.00138171
0.000922758
0.00114495
0.00072279
0.00106559
0.000872358
0.000535939
0.000565402
0.00969791
0.0115355
0.0134859
0.0148446
0.0161614
0.0166851
0.0171066
0.0172331
0.0172799
0.017338
0.0169781
0.016799
0.0163593
0.0157943
0.0150906
0.0139435
0.0125403
0.010922
0.00880874
0.00687806
0.0086614
0.0102649
0.011733
0.0133082
0.0142894
0.0147862
0.0151104
0.0152646
0.0150931
0.0152271
0.0150332
0.0150973
0.0146625
0.0140559
0.013226
0.0125345
0.0113509
0.00973225
0.00769927
0.00606537
0.00756823
0.00908748
0.0100974
0.0113966
0.0122664
0.0128819
0.0131544
0.013335
0.013134
0.0132856
0.0131465
0.0126983
0.0123388
0.0119317
0.0115046
0.0109148
0.00997223
0.00826199
0.0066633
0.00526305
0.00641289
0.00732615
0.00866902
0.00943845
0.0101809
0.0107471
0.0110014
0.0108803
0.0109572
0.011108
0.0109327
0.0108983
0.0105783
0.0102571
0.00962518
0.00901638
0.00818338
0.00688741
0.00543469
0.00443248
0.00491147
0.00579982
0.00677515
0.00740723
0.00807638
0.0085901
0.00856566
0.00865677
0.00891516
0.00874969
0.00842233
0.00858916
0.00833013
0.00791688
0.00773494
0.00698729
0.0064517
0.00546393
0.00424417
0.00348083
0.00363391
0.0042548
0.0048746
0.0055643
0.00603121
0.00629427
0.00632404
0.00648103
0.006417
0.0064427
0.00634709
0.00621514
0.00628285
0.00580882
0.00577586
0.00515287
0.00450896
0.00414587
0.00326162
0.00275752
0.00220167
0.00291338
0.00305381
0.00349855
0.00374074
0.00402573
0.00401732
0.00395776
0.0038667
0.00408817
0.00397434
0.00395868
0.00380463
0.00351821
0.00334875
0.00311474
0.00289988
0.00238515
0.0018768
0.00166688
0.000771962
0.000850689
0.00127827
0.00130328
0.00124595
0.001346
0.00131428
0.0013601
0.00136996
0.00140286
0.00150099
0.00121338
0.00136947
0.00130081
0.00117637
0.00126875
0.00111521
0.000697705
0.000622357
0.000630023
0.00905346
0.0113297
0.0131818
0.015026
0.0162413
0.017041
0.0177397
0.0177403
0.0181928
0.017733
0.0178862
0.0174987
0.0171592
0.0163217
0.0154168
0.0143222
0.0127541
0.0109115
0.00853186
0.00650824
0.00808599
0.00981723
0.0115565
0.0132029
0.0142388
0.0151209
0.0155328
0.0158465
0.0160352
0.0158
0.0156366
0.0153596
0.0150536
0.0147339
0.0138888
0.0128684
0.0112239
0.0094108
0.00784235
0.00587685
0.00723229
0.00856264
0.00995789
0.0113583
0.0125384
0.0130609
0.0135213
0.0135814
0.0137962
0.0138129
0.0137228
0.0133063
0.0131655
0.0124611
0.0118889
0.0107693
0.00987314
0.0082984
0.00677033
0.00516494
0.00602104
0.00699835
0.00841408
0.00948047
0.0102452
0.010956
0.0112634
0.0115683
0.0114645
0.0114941
0.0114523
0.0114414
0.0109855
0.0106438
0.00986357
0.00907853
0.00812534
0.00702398
0.00536861
0.0041233
0.00459534
0.00567115
0.00675692
0.00767302
0.00835857
0.00878813
0.00906554
0.00909327
0.0093038
0.00924851
0.00909797
0.00890939
0.0088198
0.00828206
0.00780907
0.00730091
0.00659504
0.00561356
0.00430269
0.00341759
0.00340708
0.00408187
0.00493039
0.00540622
0.00607308
0.00660937
0.00651974
0.00677439
0.00656957
0.00679614
0.00661782
0.00654979
0.00634614
0.00612412
0.00582959
0.0051865
0.00450379
0.00405198
0.00325785
0.00231969
0.00218037
0.00268517
0.00301337
0.0034057
0.00375571
0.00383467
0.00403233
0.0039545
0.00404542
0.00397327
0.0039538
0.00394944
0.00387111
0.00393065
0.00345524
0.00333277
0.00284125
0.0023068
0.00193396
0.00133119
0.000898028
0.000876922
0.00121957
0.00116471
0.00115401
0.00126438
0.00133588
0.00109126
0.00149116
0.00149624
0.00154468
0.00153993
0.00132012
0.00135493
0.00125834
0.00120734
0.00100996
0.000868109
0.000668598
0.000619939
0.00782945
0.0101664
0.012292
0.0143273
0.0157503
0.0167913
0.0174217
0.0180711
0.0180609
0.0181358
0.0176739
0.0176361
0.0170086
0.0162548
0.0153
0.0139923
0.0121692
0.0102005
0.00763473
0.00532871
0.00698587
0.0087743
0.010974
0.0124376
0.0139251
0.0149197
0.0156815
0.0158237
0.0159185
0.0160413
0.0158198
0.0155253
0.014982
0.0144926
0.0135609
0.0122688
0.0107248
0.00873169
0.0066113
0.00476065
0.00609585
0.00765514
0.00921863
0.0109767
0.0120547
0.0128011
0.0134739
0.0136024
0.0137313
0.013967
0.01379
0.0133493
0.0129911
0.0124545
0.0115125
0.0105628
0.00918838
0.0074203
0.00586829
0.00430119
0.00483287
0.0064427
0.00774387
0.00911623
0.0100753
0.0104512
0.0110732
0.0113716
0.0116829
0.0113931
0.0115681
0.0113076
0.010781
0.0103241
0.00968206
0.00886199
0.00769612
0.00651572
0.00469044
0.00338385
0.00401211
0.00516476
0.00617239
0.00725015
0.0078501
0.00853854
0.00854632
0.00894631
0.00906368
0.00894804
0.00910344
0.0089198
0.00863169
0.00806256
0.00789052
0.00710994
0.00616383
0.00493932
0.00370696
0.00268567
0.00294595
0.00357049
0.0045277
0.00530369
0.00571403
0.006093
0.00655079
0.00649419
0.00664396
0.00666347
0.00676732
0.00630509
0.00649598
0.00608358
0.00563797
0.00512612
0.00427251
0.00355088
0.00263497
0.00192643
0.00197545
0.00233656
0.00254344
0.00321257
0.00356069
0.00401378
0.004001
0.00408096
0.00418599
0.00409229
0.00407643
0.00438898
0.00389341
0.00358733
0.00354347
0.00316014
0.00259142
0.00222718
0.0016892
0.00111352
0.000631618
0.000737671
0.00091719
0.00108179
0.00113778
0.0012624
0.00137744
0.0013368
0.0014289
0.00154526
0.00161878
0.00101031
0.00144242
0.0011721
0.00128801
0.00116842
0.00077443
0.000625064
0.000540694
0.000136361
0.00567127
0.00816812
0.010726
0.0128288
0.0143011
0.0155453
0.0163598
0.016959
0.0170473
0.0171942
0.0171505
0.0167489
0.0161357
0.0154842
0.014194
0.0127664
0.0108906
0.00873372
0.00601839
0.00353299
0.00541241
0.00733809
0.00953246
0.011091
0.0127596
0.0137889
0.0145393
0.0149114
0.0152512
0.0150721
0.0152181
0.0148728
0.01439
0.0135633
0.0123292
0.0113463
0.00943292
0.00750882
0.00529955
0.00306568
0.00458774
0.00618334
0.00806868
0.00976838
0.010851
0.011766
0.0122688
0.0130426
0.0133122
0.0130912
0.0131983
0.0126164
0.0123087
0.0116584
0.0109087
0.00957239
0.00806281
0.00660682
0.00459319
0.00291226
0.00386637
0.00513069
0.00654016
0.00805827
0.00911554
0.0101309
0.0104569
0.0107995
0.0111824
0.011073
0.0110582
0.0107864
0.0104137
0.00984012
0.00896803
0.00806923
0.00681981
0.00531944
0.00400521
0.00228274
0.00301981
0.00402173
0.00539196
0.00655522
0.00726471
0.00787965
0.00804301
0.00861321
0.00869378
0.00871903
0.00869311
0.00871284
0.00823853
0.00777877
0.00723334
0.00634108
0.00552059
0.00428532
0.00318139
0.00166271
0.00204676
0.00300563
0.00407256
0.00449868
0.00539247
0.00569126
0.00604159
0.00640205
0.00624272
0.00655193
0.00655448
0.00634238
0.00604325
0.00567914
0.00521797
0.00465455
0.00389626
0.00322841
0.00209176
0.00117673
0.00140642
0.00174932
0.00225023
0.00287282
0.00317965
0.00347645
0.003731
0.00397661
0.00400358
0.00388187
0.0039593
0.00412194
0.00351006
0.00351801
0.00321578
0.00282518
0.00240186
0.00198299
0.00151833
0.000831927
0.000408469
0.000572578
0.000666988
0.00100239
0.00112443
0.00107745
0.00124926
0.00148566
0.00144362
0.0014466
0.00150399
0.00139513
0.00135297
0.00096846
0.000955847
0.00102941
0.000830293
0.000569931
0.000445788
0.000375644
0.00293436
0.00568798
0.00812148
0.0104789
0.0121572
0.0136814
0.0146084
0.015377
0.0159738
0.0157226
0.0155249
0.0152885
0.0146624
0.0136773
0.0123286
0.010632
0.00869053
0.00628319
0.0035975
0.00102104
0.00288261
0.00481608
0.00716206
0.00907561
0.0107083
0.0121231
0.0129199
0.0135383
0.0138927
0.0140433
0.0138335
0.0135196
0.0129998
0.0122248
0.0108003
0.00947334
0.00767947
0.00559944
0.00311886
0.000854485
0.00230618
0.00446765
0.00608039
0.00778415
0.00934778
0.0102487
0.0111515
0.0117312
0.0119811
0.0120453
0.0119538
0.0117575
0.0111628
0.0105297
0.00928486
0.00811953
0.00661445
0.00456299
0.00257599
0.000741271
0.00189314
0.00376
0.00535095
0.00670396
0.00771814
0.00864545
0.00956073
0.00974634
0.0103168
0.0100859
0.00995191
0.00982276
0.00920612
0.00851614
0.00809622
0.0067882
0.0054311
0.00402891
0.00218144
0.00073496
0.00172823
0.00286064
0.00407846
0.00504173
0.00632003
0.00667501
0.00741143
0.00787273
0.00804336
0.00802934
0.00811773
0.00764401
0.00752842
0.00697226
0.00620167
0.00541577
0.00446337
0.00298835
0.00168
0.000602207
0.0014635
0.00189952
0.00285477
0.00371593
0.00443953
0.00519173
0.00557661
0.00567808
0.00604559
0.00571372
0.00586431
0.00586812
0.00534363
0.00519979
0.00450852
0.00404701
0.00334406
0.00216132
0.00126147
0.000577049
0.000862954
0.00111345
0.00178947
0.00216132
0.0028469
0.00308572
0.00323117
0.00334278
0.00338597
0.00344862
0.0035275
0.00332799
0.00315334
0.00295496
0.00276808
0.00243668
0.00215177
0.00141587
0.000672079
0.000239647
0.000405906
0.000461635
0.000771236
0.000709061
0.000969008
0.00102578
0.00102772
0.00114663
0.00131214
0.00139863
0.00149748
0.00119553
0.00115537
0.00105504
0.00104394
0.000687085
0.000629539
0.000322395
0.000391998
3.99848e-06
0.000573036
0.00238065
0.00502612
0.00740277
0.0093663
0.0110854
0.0120712
0.0128987
0.0132608
0.0135967
0.0133968
0.0127711
0.0124022
0.0112064
0.00974353
0.00803974
0.00592734
0.0032022
0.000551468
0.00212377
0.000167601
0.00205985
0.00442046
0.00640291
0.00850089
0.00954269
0.0107009
0.011663
0.0117389
0.0119007
0.01191
0.0113821
0.0107518
0.00997753
0.00868073
0.00690337
0.0051446
0.00280254
0.000475196
0.00213199
0.000132066
0.0018631
0.00380603
0.00562005
0.00718862
0.00823801
0.00946712
0.0100365
0.0102894
0.0104389
0.0102363
0.00998355
0.00910449
0.00845896
0.00745972
0.00590391
0.00459035
0.00225388
3.58114e-05
0.00173873
0.000159159
0.00143508
0.00310656
0.00444595
0.00571365
0.00703843
0.00753402
0.00819093
0.00834044
0.00855739
0.00838611
0.00806309
0.00767255
0.00701765
0.00606041
0.00511984
0.00369717
0.00198038
0.000232932
0.00144728
8.87631e-05
0.000962113
0.0024382
0.00383298
0.00470322
0.00541058
0.00606981
0.006577
0.00687086
0.00687839
0.00658779
0.00658017
0.00629138
0.00565062
0.00515237
0.00393027
0.00281648
0.00166717
4.67949e-05
0.000971996
0.000223755
0.000681847
0.00197118
0.00279271
0.00361533
0.00417067
0.0045764
0.00480806
0.00494791
0.00504773
0.00509801
0.00472314
0.00458708
0.00418606
0.00359705
0.00283133
0.00200485
0.00109651
0.000132075
0.00084613
6.16181e-05
0.000175352
0.000994759
0.00172593
0.00211712
0.00246034
0.00268283
0.00279328
0.00307396
0.00307055
0.00293304
0.00291602
0.00282263
0.002549
0.00224863
0.00183361
0.00140512
0.000565239
2.19162e-05
0.000643855
4.35235e-06
0.000135826
0.000364721
0.000448453
0.000693712
0.000851746
0.000998353
0.00105809
0.000935498
0.000943714
0.00108564
0.000984875
0.000998027
0.000833011
0.000643525
0.000673551
0.000396822
1.33226e-05
0.000116176
0.000112874
0.00428129
0.00170933
0.000899003
0.00358385
0.005826
0.0074086
0.00875398
0.00963494
0.0102862
0.0104599
0.0103973
0.00997648
0.00909024
0.00802582
0.00654256
0.00465255
0.00210285
0.000347998
0.00349213
0.006119
0.00382358
0.00164283
0.000973447
0.00332079
0.00514447
0.00670358
0.00762468
0.00858733
0.00901071
0.00921279
0.00893872
0.00858874
0.0079411
0.00687213
0.00555028
0.00383489
0.00190276
0.000682584
0.00302188
0.00537899
0.00335107
0.00148677
0.000773244
0.0026979
0.00446111
0.00555783
0.00652726
0.00751414
0.00773796
0.00780043
0.00782155
0.00737946
0.00682719
0.00604188
0.00483886
0.00338396
0.00170461
0.000549988
0.00279193
0.00484299
0.00291304
0.00126708
0.000649078
0.00213482
0.00358503
0.00454587
0.00552806
0.00608859
0.006478
0.00666731
0.00644318
0.00613908
0.00577417
0.00497998
0.00403613
0.0028348
0.00138834
0.000577245
0.00227969
0.00385669
0.00219663
0.000846006
0.000737112
0.00174871
0.00277502
0.00375184
0.00478967
0.00492967
0.00488215
0.00505024
0.00522512
0.00489745
0.00471727
0.00385825
0.0031859
0.00220937
0.00126817
0.000250563
0.00193092
0.00312477
0.00162062
0.000559346
0.000539736
0.00142354
0.00212778
0.00282941
0.00294583
0.00368322
0.00385218
0.00381393
0.00379089
0.00359885
0.00341025
0.00300631
0.00234667
0.00167953
0.000762367
0.000206765
0.00134555
0.00235093
0.000857206
0.000455728
8.57549e-05
0.000715599
0.00141583
0.00170263
0.00178295
0.00219452
0.00215702
0.00222471
0.00245871
0.00237208
0.00195058
0.00177147
0.00144101
0.00100149
0.000647612
3.33501e-05
0.000944856
0.00140757
0.000325841
0.000210679
7.6493e-05
0.000113704
0.000459692
0.000704201
0.000538782
0.000926875
0.000557236
0.000870002
0.000818664
0.000808656
0.000944601
0.000776439
0.000510002
0.000284068
6.02079e-05
0.000212869
6.1159e-05
0.000299622
0.00900664
0.00649035
0.00348295
0.000875214
0.00137604
0.0032434
0.0045865
0.00560858
0.00631473
0.00641654
0.00641945
0.00589537
0.00505724
0.0038076
0.00236255
0.000331913
0.00225978
0.00482352
0.00799775
0.0107889
0.00809202
0.00573995
0.00305948
0.000742473
0.00133713
0.00287007
0.00404707
0.00508189
0.0054659
0.00550312
0.00559262
0.00523604
0.00464058
0.00339419
0.00198442
0.000519753
0.00171145
0.00451861
0.00703939
0.00931928
0.00684572
0.00501742
0.0027673
0.000763095
0.00109377
0.00236396
0.00352132
0.00410382
0.00460058
0.00485063
0.00476226
0.00452473
0.00382395
0.00278412
0.00173598
0.000235063
0.00179213
0.00394305
0.00613184
0.00828435
0.0058489
0.00441002
0.00246912
0.000588592
0.000868319
0.00186901
0.00308039
0.00353563
0.00394898
0.00415793
0.00406515
0.00367918
0.00326401
0.00257484
0.00127692
8.95355e-05
0.00136707
0.00326445
0.00536029
0.00694427
0.00468854
0.00329939
0.00201737
0.000694256
0.000654332
0.00165242
0.00225461
0.00258273
0.0029494
0.00330878
0.00323338
0.00303945
0.00231028
0.0018101
0.00110334
0.00013785
0.0012194
0.00272384
0.00413386
0.00543781
0.0034561
0.0021942
0.00143019
0.000510865
0.000227055
0.00112429
0.00188567
0.00205846
0.00225865
0.0024108
0.00222278
0.00208724
0.00163056
0.0012968
0.000620619
0.000150455
0.00101428
0.00199536
0.00326634
0.00384122
0.00223439
0.001511
0.000841583
0.000626825
0.000275121
0.00062294
0.000922191
0.00133683
0.00145982
0.00149076
0.00138175
0.00143098
0.000950236
0.000933244
0.000294314
6.33068e-05
0.00071721
0.00134568
0.00195405
0.00248897
0.000756684
0.000514971
0.000261396
2.7126e-05
5.76521e-05
0.000182303
0.000256036
0.000352585
0.000479734
0.000164251
0.000558957
0.00047205
0.000373642
0.000204747
0.000145138
9.69833e-05
0.000204468
0.000296175
0.000916171
0.00099001
0.0146991
0.0117062
0.0088677
0.00591646
0.00350741
0.00173001
5.23426e-05
0.000866379
0.00157374
0.00184402
0.00185547
0.00116137
0.000525334
0.000825006
0.00269265
0.00437491
0.00709079
0.00985196
0.0131066
0.0159207
0.0129098
0.0104546
0.00784307
0.00534716
0.00333883
0.00143719
0.000150033
0.000847628
0.00146101
0.00162363
0.00153152
0.00114598
0.000434407
0.000701559
0.00226756
0.00410231
0.00616664
0.00896923
0.0116524
0.0142476
0.0109866
0.00910692
0.00687006
0.00451408
0.00279886
0.00121087
0.000218745
0.00063499
0.00124556
0.00139786
0.0012508
0.000707842
0.000260525
0.000772506
0.00198448
0.00361056
0.00554252
0.0075957
0.0100358
0.0120287
0.00924967
0.00746562
0.00565939
0.00405839
0.00252863
0.00107275
0.000290855
0.000287027
0.00117998
0.00133523
0.00102056
0.000762703
0.000318128
0.000656592
0.00195368
0.00290149
0.00464927
0.00649543
0.00838096
0.0103387
0.00775003
0.00600242
0.0047299
0.00320555
0.00177967
0.0012011
0.000104612
0.000112552
0.000786171
0.000940612
0.000924381
0.000578094
0.000314487
0.000402592
0.00131502
0.00263348
0.00363343
0.00526811
0.00675723
0.00806083