/*--------------------------------*- C++ -*----------------------------------*\
| =========                 |                                                 |
| \\      /  F ield         | OpenFOAM: The Open Source CFD Toolbox           |
|  \\    /   O peration     | Version:  2212                                  |
|   \\  /    A nd           | Website:  www.openfoam.com                      |
|    \\/     M anipulation  |                                                 |
\*---------------------------------------------------------------------------*/
FoamFile
{
    version     2.0;
    format      ascii;
    arch        "LSB;label=32;scalar=64";
    class       volScalarField;
    location    "0";
    object      stateMean;
}
// * * * * * * * * * * * * * * * * * * * * * * * * * * * * * * * * * * * * * //

dimensions      [0 0 0 1 0 0 0];

internalField   nonuniform List<scalar> 
3200
(
341.244
341.97
342.792
343.571
344.203
344.782
345.213
345.508
345.603
345.689
345.613
345.372
345.075
344.602
343.98
343.363
342.53
341.63
340.658
339.841
335.893
336.584
337.269
337.935
338.52
338.982
339.35
339.639
339.873
339.807
339.711
339.501
339.24
338.84
338.278
337.678
337.016
336.247
335.426
334.786
330.54
331.069
331.668
332.244
332.702
333.203
333.4
333.694
333.707
333.849
333.788
333.501
333.326
333.028
332.6
332.105
331.454
330.81
330.067
329.514
325.035
325.472
325.998
326.446
326.897
327.179
327.407
327.69
327.71
327.757
327.631
327.535
327.46
327.083
326.773
326.294
325.772
325.266
324.825
324.283
319.581
319.884
320.284
320.598
321.008
321.197
321.476
321.605
321.608
321.603
321.597
321.518
321.37
321.226
320.926
320.594
320.173
319.745
319.278
318.886
314.007
314.286
314.571
314.838
315.056
315.235
315.339
315.438
315.531
315.497
315.47
315.401
315.287
315.133
314.874
314.74
314.389
314.193
313.813
313.556
308.343
308.631
308.795
308.883
309.049
309.15
309.222
309.337
309.269
309.367
309.328
309.19
309.205
309.081
308.953
308.901
308.636
308.581
308.316
308.153
302.838
302.891
302.859
303.041
303.008
303.081
303.108
303.092
303.093
303.155
303.114
303.117
303.056
303.066
303.006
302.98
302.922
302.844
302.802
302.83
342.255
342.994
343.913
344.673
345.418
345.919
346.388
346.684
346.876
346.874
346.731
346.581
346.254
345.793
345.169
344.496
343.651
342.744
341.806
340.915
336.757
337.455
338.229
338.884
339.423
339.984
340.328
340.613
340.739
340.774
340.644
340.551
340.245
339.73
339.304
338.662
337.929
337.145
336.347
335.538
331.207
331.823
332.392
332.968
333.53
333.894
334.207
334.478
334.559
334.533
334.522
334.416
334.137
333.774
333.371
332.803
332.183
331.53
330.946
330.199
325.638
326.11
326.534
327.077
327.455
327.941
328.095
328.239
328.282
328.361
328.311
328.225
328.006
327.687
327.261
326.928
326.34
325.941
325.335
324.761
320.016
320.284
320.692
321.191
321.389
321.669
321.878
322.048
322.09
322.13
322.065
321.963
321.737
321.645
321.331
321.002
320.579
320.238
319.742
319.37
314.337
314.486
314.834
315.093
315.343
315.566
315.675
315.802
315.809
315.854
315.79
315.717
315.638
315.441
315.258
315.047
314.816
314.455
314.069
313.832
308.545
308.779
308.894
309.117
309.223
309.353
309.379
309.438
309.522
309.509
309.468
309.467
309.384
309.302
309.179
309.026
308.843
308.637
308.454
308.376
302.853
302.937
302.952
303.027
303.095
303.194
303.177
303.198
303.214
303.183
303.152
303.112
303.133
303.113
303.102
303.081
302.967
302.853
302.792
302.85
343.557
344.419
345.323
346.18
346.865
347.455
347.908
348.186
348.36
348.451
348.406
348.139
347.775
347.331
346.787
346.018
345.159
344.232
343.248
342.247
337.914
338.635
339.448
340.086
340.748
341.274
341.654
341.943
342.075
342.154
342.016
341.898
341.506
341.119
340.598
340.067
339.185
338.44
337.57
336.858
332.247
332.738
333.49
334.027
334.569
335.011
335.324
335.553
335.735
335.798
335.618
335.529
335.298
334.844
334.426
333.884
333.231
332.549
331.88
331.207
326.36
326.797
327.437
327.907
328.368
328.662
329.025
329.124
329.259
329.308
329.212
329.121
328.832
328.578
328.221
327.847
327.211
326.699
326.188
325.629
320.628
320.972
321.351
321.719
322.08
322.333
322.604
322.755
322.828
322.802
322.737
322.739
322.472
322.285
321.997
321.653
321.27
320.783
320.302
319.979
314.739
314.986
315.315
315.579
315.733
316.025
316.109
316.276
316.359
316.413
316.321
316.192
316.089
315.955
315.743
315.475
315.2
314.899
314.589
314.261
308.822
309.012
309.184
309.357
309.491
309.622
309.765
309.747
309.826
309.834
309.852
309.683
309.69
309.616
309.465
309.294
309.16
308.941
308.795
308.569
302.97
303.069
303.125
303.102
303.198
303.2
303.24
303.254
303.297
303.29
303.266
303.247
303.193
303.266
303.15
303.145
303.068
302.974
302.911
302.854
345.06
345.946
346.885
347.761
348.48
349.12
349.622
349.95
350.139
350.154
350.079
349.937
349.541
348.986
348.376
347.62
346.753
345.818
344.696
343.849
339.178
339.925
340.742
341.509
342.139
342.641
343.107
343.389
343.556
343.596
343.456
343.331
342.98
342.629
342.046
341.422
340.669
339.747
338.909
338.077
333.284
333.811
334.6
335.165
335.744
336.104
336.526
336.817
336.924
336.937
336.901
336.763
336.487
336.102
335.674
335.094
334.478
333.744
333.006
332.262
327.214
327.81
328.301
328.84
329.38
329.698
329.935
330.167
330.238
330.285
330.223
330.198
329.912
329.588
329.209
328.825
328.273
327.694
327.009
326.572
321.285
321.558
322.103
322.505
322.747
323.035
323.361
323.434
323.622
323.598
323.565
323.416
323.291
323.009
322.8
322.494
321.964
321.493
321.052
320.633
315.26
315.555
315.741
316.051
316.361
316.523
316.716
316.857
316.872
316.841
316.794
316.76
316.641
316.533
316.27
316.039
315.729
315.442
315.053
314.824
309.166
309.297
309.51
309.622
309.778
309.917
309.921
310.124
310.114
310.172
310.167
310.087
310.019
309.913
309.807
309.639
309.493
309.251
309.124
308.816
303.088
303.132
303.283
303.246
303.268
303.332
303.335
303.4
303.387
303.345
303.398
303.44
303.318
303.294
303.366
303.246
303.188
303.099
303.049
302.948
346.561
347.465
348.459
349.428
350.194
350.794
351.232
351.707
351.853
351.908
351.79
351.554
351.298
350.709
350.107
349.271
348.39
347.379
346.341
345.409
340.466
341.277
342.126
342.904
343.515
344.103
344.545
344.927
345.012
345.104
345.042
344.816
344.503
344.024
343.539
342.921
342.079
341.173
340.243
339.439
334.382
334.933
335.686
336.345
336.929
337.415
337.832
338.086
338.284
338.231
338.187
337.944
337.729
337.367
336.883
336.284
335.685
334.926
334.139
333.442
328.202
328.677
329.291
329.785
330.266
330.662
330.898
331.166
331.252
331.348
331.315
331.117
331.063
330.632
330.337
329.717
329.229
328.59
328.013
327.479
321.937
322.288
322.792
323.197
323.647
323.853
324.032
324.3
324.371
324.456
324.373
324.289
324.169
323.877
323.559
323.19
322.718
322.272
321.774
321.425
315.758
316.003
316.314
316.596
316.928
317.038
317.229
317.361
317.489
317.479
317.408
317.325
317.241
317.046
316.861
316.595
316.17
315.954
315.543
315.251
309.4
309.655
309.822
310.013
310.138
310.292
310.415
310.435
310.464
310.496
310.435
310.405
310.366
310.25
310.097
310
309.846
309.571
309.363
309.188
303.204
303.225
303.246
303.324
303.46
303.47
303.512
303.523
303.487
303.504
303.598
303.468
303.461
303.474
303.445
303.316
303.252
303.184
303.137
303.054
348.022
348.97
350.026
350.946
351.795
352.426
352.941
353.353
353.568
353.571
353.555
353.333
352.977
352.344
351.767
351.023
350.062
348.943
347.898
346.929
341.794
342.565
343.472
344.237
344.922
345.554
345.998
346.336
346.55
346.526
346.43
346.3
346.013
345.533
344.978
344.302
343.491
342.475
341.628
340.746
335.434
336.127
336.847
337.542
338.147
338.652
339.059
339.246
339.435
339.499
339.441
339.237
339.05
338.614
338.138
337.585
336.866
336.039
335.292
334.577
329.042
329.554
330.188
330.841
331.299
331.611
331.99
332.164
332.357
332.345
332.315
332.189
331.964
331.675
331.278
330.767
330.221
329.52
328.94
328.318
322.6
323.005
323.489
323.978
324.364
324.667
324.888
325.011
325.214
325.219
325.173
325.071
324.812
324.647
324.372
323.958
323.566
323.042
322.547
322.079
316.187
316.472
316.835
317.125
317.403
317.58
317.843
317.887
317.964
318.066
318.013
317.921
317.799
317.629
317.403
317.126
316.764
316.483
316.112
315.812
309.715
309.891
310.151
310.278
310.484
310.59
310.734
310.716
310.851
310.832
310.777
310.768
310.702
310.653
310.515
310.326
310.136
309.939
309.668
309.589
303.302
303.312
303.434
303.456
303.482
303.549
303.555
303.624
303.644
303.633
303.602
303.595
303.526
303.503
303.519
303.493
303.365
303.279
303.296
303.089
349.483
350.441
351.584
352.523
353.392
354.016
354.587
355.054
355.227
355.309
355.232
355.03
354.561
354.091
353.42
352.623
351.687
350.565
349.395
348.326
343.024
343.825
344.756
345.611
346.298
346.982
347.419
347.776
347.956
348.055
347.956
347.8
347.418
347.009
346.394
345.656
344.819
343.894
342.903
342.057
336.395
337.119
337.966
338.678
339.327
339.751
340.212
340.443
340.688
340.774
340.687
340.505
340.204
339.861
339.362
338.772
338.029
337.28
336.399
335.788
329.92
330.436
331.036
331.684
332.217
332.637
332.954
333.228
333.297
333.408
333.321
333.163
332.945
332.633
332.201
331.772
331.151
330.505
329.826
329.221
323.295
323.781
324.247
324.703
325.128
325.39
325.655
325.81
325.98
326.006
325.993
325.834
325.681
325.353
325.136
324.734
324.247
323.805
323.225
322.829
316.622
317.013
317.371
317.63
317.988
318.209
318.381
318.543
318.559
318.578
318.621
318.453
318.362
318.222
317.883
317.681
317.329
316.961
316.63
316.332
309.974
310.239
310.399
310.596
310.78
310.976
311.044
311.095
311.169
311.165
311.158
311.079
310.997
310.929
310.765
310.623
310.476
310.224
309.974
309.808
303.414
303.42
303.539
303.586
303.541
303.696
303.712
303.726
303.778
303.71
303.755
303.754
303.751
303.647
303.646
303.553
303.482
303.419
303.344
303.269
350.882
351.82
353.001
354.011
354.813
355.623
356.115
356.582
356.749
356.949
356.79
356.608
356.158
355.672
354.9
354.149
353.198
352.045
350.862
349.758
344.222
345.014
346.052
346.865
347.705
348.321
348.822
349.171
349.376
349.424
349.368
349.116
348.872
348.409
347.699
346.981
346.093
345.232
344.126
343.304
337.498
338.22
339.088
339.825
340.437
340.952
341.388
341.68
341.892
341.9
341.832
341.663
341.368
340.983
340.458
339.883
339.18
338.327
337.504
336.788
330.75
331.307
332.024
332.594
333.163
333.551
333.905
334.18
334.283
334.305
334.289
334.125
333.862
333.617
333.162
332.701
332.047
331.357
330.725
330.078
324.002
324.323
324.89
325.359
325.765
326.202
326.477
326.623
326.716
326.784
326.744
326.652
326.423
326.1
325.84
325.418
324.962
324.512
323.968
323.489
317.122
317.451
317.857
318.074
318.368
318.671
318.912
319.007
319.059
319.158
319.073
319.011
318.91
318.684
318.478
318.24
317.931
317.544
317.168
316.842
310.348
310.5
310.727
310.882
311.066
311.276
311.358
311.456
311.508
311.57
311.459
311.45
311.371
311.237
311.129
310.912
310.759
310.495
310.277
310.106
303.52
303.505
303.618
303.623
303.713
303.763
303.784
303.873
303.863
303.849
303.808
303.838
303.873
303.707
303.742
303.578
303.645
303.55
303.414
303.396
352.165
353.2
354.372
355.372
356.362
357.051
357.654
358.075
358.362
358.524
358.397
358.193
357.768
357.193
356.491
355.584
354.565
353.476
352.248
351.182
345.354
346.235
347.162
348.156
348.95
349.557
350.063
350.442
350.615
350.784
350.717
350.617
350.234
349.699
349.02
348.346
347.484
346.475
345.356
344.465
338.491
339.275
339.973
340.792
341.47
342.046
342.47
342.806
342.936
343.089
343.042
342.788
342.469
342.057
341.581
341.014
340.312
339.355
338.46
337.716
331.582
332.103
332.837
333.403
333.963
334.451
334.806
334.99
335.176
335.31
335.252
335.156
334.889
334.56
334.08
333.578
332.989
332.249
331.48
330.929
324.545
325.001
325.542
325.988
326.448
326.849
327.051
327.254
327.463
327.473
327.367
327.357
327.148
326.84
326.572
326.096
325.679
325.118
324.498
324.083
317.574
317.891
318.247
318.638
318.959
319.21
319.369
319.543
319.611
319.665
319.635
319.547
319.48
319.205
319.045
318.681
318.304
318.016
317.576
317.297
310.555
310.847
310.986
311.227
311.407
311.595
311.682
311.738
311.763
311.859
311.823
311.791
311.69
311.527
311.385
311.212
311.041
310.778
310.526
310.39
303.545
303.592
303.754
303.796
303.814
303.877
303.898
303.937
303.957
303.977
304.007
303.909
303.94
303.894
303.826
303.821
303.739
303.578
303.523
303.502
353.38
354.546
355.656
356.792
357.708
358.455
359.12
359.464
359.87
359.836
359.89
359.625
359.259
358.619
357.883
357.032
355.993
354.859
353.565
352.488
346.405
347.311
348.306
349.296
350.076
350.782
351.286
351.692
351.97
352
351.943
351.736
351.418
351.01
350.356
349.603
348.613
347.567
346.632
345.645
339.434
340.141
340.946
341.774
342.53
343.047
343.508
343.778
344.031
344.131
344.1
343.864
343.637
343.148
342.65
341.931
341.272
340.385
339.536
338.738
332.317
332.848
333.587
334.231
334.775
335.289
335.639
335.946
336.057
336.144
336.13
336.049
335.752
335.434
334.926
334.388
333.782
333.128
332.31
331.69
325.115
325.622
326.184
326.707
327.156
327.51
327.793
327.961
328.143
328.184
328.135
328.015
327.872
327.538
327.192
326.813
326.357
325.814
325.179
324.734
317.983
318.309
318.728
319.04
319.412
319.736
319.845
320.039
320.055
320.169
320.113
320.049
319.903
319.719
319.489
319.131
318.753
318.449
318.048
317.638
310.836
311.06
311.251
311.47
311.675
311.791
311.935
311.979
312.055
312.058
312.052
312.025
311.953
311.903
311.673
311.544
311.295
311.032
310.827
310.573
303.679
303.695
303.829
303.845
303.874
303.938
303.988
303.936
304.074
304.083
304.098
304.089
304.006
303.993
303.936
303.89
303.799
303.722
303.632
303.595
354.558
355.726
356.903
358.072
359.024
359.819
360.424
360.966
361.186
361.328
361.164
361.035
360.59
360.01
359.291
358.403
357.31
356.165
354.835
353.679
347.421
348.33
349.458
350.355
351.259
351.972
352.566
352.886
353.112
353.254
353.177
352.975
352.594
352.154
351.501
350.685
349.762
348.683
347.583
346.653
340.231
341.001
341.841
342.766
343.46
344.024
344.531
344.803
345.009
345.175
345.114
344.879
344.595
344.185
343.587
342.954
342.159
341.231
340.396
339.625
332.891
333.619
334.302
335.027
335.614
335.993
336.427
336.712
336.948
336.921
336.98
336.823
336.515
336.177
335.737
335.211
334.555
333.894
333.038
332.411
325.678
326.201
326.723
327.283
327.685
328.107
328.286
328.56
328.701
328.717
328.768
328.655
328.458
328.128
327.896
327.445
326.93
326.323
325.728
325.248
318.373
318.677
319.12
319.516
319.795
320.056
320.327
320.412
320.533
320.577
320.61
320.425
320.413
320.178
319.912
319.608
319.188
318.81
318.38
318.05
311.095
311.27
311.418
311.715
311.912
312.137
312.208
312.295
312.372
312.365
312.36
312.435
312.237
312.08
311.991
311.787
311.522
311.32
311.069
310.828
303.707
303.76
303.842
303.921
303.968
304.034
304.095
304.103
304.146
304.188
304.211
304.019
304.135
304.033
304.042
303.978
303.828
303.754
303.7
303.556
355.575
356.779
358.08
359.241
360.175
361.006
361.641
362.137
362.369
362.526
362.51
362.263
361.844
361.33
360.526
359.63
358.554
357.374
356.018
354.819
348.42
349.358
350.46
351.361
352.299
352.992
353.553
353.927
354.218
354.246
354.297
354.086
353.745
353.213
352.484
351.807
350.785
349.758
348.651
347.606
341.027
341.793
342.721
343.603
344.273
344.868
345.292
345.762
346.001
346.001
346.038
345.763
345.511
345.084
344.575
343.837
343.023
342.224
341.253
340.459
333.639
334.24
334.942
335.696
336.294
336.865
337.179
337.461
337.71
337.735
337.73
337.577
337.333
336.974
336.477
335.945
335.283
334.536
333.866
333.113
326.187
326.651
327.279
327.85
328.273
328.652
328.866
329.183
329.302
329.358
329.349
329.308
329.061
328.78
328.442
327.972
327.513
326.919
326.378
325.746
318.682
319.084
319.553
319.826
320.247
320.471
320.696
320.904
320.92
321.053
321.054
320.952
320.79
320.58
320.32
320.012
319.635
319.284
318.793
318.405
311.275
311.44
311.674
311.95
312.126
312.296
312.443
312.575
312.624
312.606
312.63
312.66
312.43
312.377
312.215
312.016
311.803
311.591
311.368
311.097
303.758
303.828
303.883
304.011
304.076
304.087
304.163
304.253
304.254
304.262
304.279
304.239
304.213
304.077
304.05
304.047
303.959
303.853
303.789
303.748
356.551
357.827
359.058
360.279
361.253
362.15
362.793
363.321
363.715
363.718
363.647
363.469
363.065
362.46
361.667
360.709
359.642
358.403
357.083
355.871
349.231
350.154
351.287
352.284
353.179
353.979
354.527
354.963
355.244
355.377
355.303
355.113
354.775
354.284
353.516
352.747
351.797
350.742
349.563
348.525
341.681
342.626
343.442
344.301
345.11
345.676
346.213
346.597
346.814
346.905
346.873
346.737
346.402
346
345.346
344.69
343.902
342.924
341.981
341.148
334.153
334.944
335.69
336.37
336.933
337.453
337.946
338.16
338.458
338.436
338.391
338.293
337.979
337.597
337.27
336.622
335.945
335.248
334.417
333.767
326.679
327.176
327.74
328.232
328.824
329.103
329.489
329.757
329.896
329.935
329.964
329.766
329.644
329.345
328.948
328.529
328.043
327.384
326.791
326.311
319.147
319.378
319.801
320.201
320.557
320.913
321.14
321.256
321.433
321.358
321.406
321.376
321.149
321.02
320.695
320.432
320.083
319.58
319.174
318.865
311.498
311.63
311.911
312.103
312.391
312.535
312.642
312.728
312.776
312.814
312.839
312.758
312.669
312.556
312.436
312.263
312.1
311.795
311.492
311.304
303.888
303.923
304.041
304.048
304.151
304.193
304.214
304.266
304.329
304.361
304.391
304.293
304.269
304.223
304.198
304.066
304.024
303.905
303.902
303.766
357.413
358.743
360.024
361.224
362.27
363.205
363.84
364.365
364.655
364.86
364.788
364.479
364.186
363.529
362.723
361.794
360.695
359.371
358.088
356.859
349.999
351.011
352.127
353.123
354.154
354.796
355.445
355.981
356.147
356.276
356.279
356.022
355.66
355.191
354.493
353.593
352.681
351.56
350.455
349.312
342.402
343.276
344.186
345.062
345.85
346.444
347.072
347.434
347.639
347.751
347.681
347.533
347.114
346.725
346.176
345.409
344.709
343.654
342.65
341.852
334.74
335.428
336.186
336.843
337.472
338.107
338.442
338.799
338.945
339.067
339.009
338.851
338.624
338.268
337.779
337.273
336.592
335.809
335.025
334.308
327.076
327.538
328.174
328.792
329.236
329.617
329.963
330.235
330.406
330.446
330.351
330.31
330.141
329.825
329.532
328.983
328.46
327.922
327.238
326.787
319.318
319.691
320.212
320.59
320.966
321.249
321.472
321.622
321.72
321.779
321.795
321.648
321.551
321.348
321.066
320.715
320.338
319.932
319.515
319.119
311.673
311.759
312.08
312.377
312.567
312.738
312.863
312.943
313.061
313.077
313.034
313.012
312.952
312.821
312.672
312.479
312.277
311.946
311.711
311.453
303.909
303.966
304.058
304.106
304.204
304.273
304.336
304.369
304.342
304.351
304.394
304.357
304.35
304.285
304.21
304.198
304.091
303.943
303.96
303.942
358.357
359.533
360.779
362.064
363.182
364.04
364.778
365.299
365.678
365.815
365.792
365.566
365.102
364.514
363.727
362.758
361.53
360.33
358.891
357.696
350.69
351.67
352.856
353.958
354.868
355.667
356.211
356.727
357.001
357.136
357.039
356.852
356.499
355.945
355.26
354.406
353.457
352.272
351.185
350.142
342.969
343.787
344.787
345.683
346.517
347.105
347.624
348.114
348.296
348.371
348.379
348.173
347.877
347.457
346.857
346.145
345.341
344.332
343.338
342.455
335.186
335.881
336.707
337.397
338.07
338.566
339.047
339.358
339.575
339.683
339.607
339.46
339.252
338.862
338.394
337.817
337.145
336.295
335.54
334.869
327.452
328.004
328.665
329.145
329.625
330.08
330.539
330.679
330.73
330.819
330.877
330.735
330.609
330.232
329.894
329.439
328.987
328.341
327.648
327.148
319.634
320.051
320.503
320.891
321.22
321.54
321.661
321.966
322.067
322.079
322.071
321.986
321.878
321.68
321.385
321.076
320.679
320.264
319.799
319.4
311.845
312.017
312.246
312.505
312.786
312.933
313.008
313.178
313.194
313.23
313.303
313.261
313.102
313.004
312.851
312.657
312.484
312.229
311.864
311.674
303.963
304.013
304.12
304.153
304.279
304.372
304.339
304.471
304.368
304.468
304.452
304.444
304.476
304.411
304.313
304.225
304.1
304.032
304.058
303.971
359.073
360.214
361.584
362.818
363.914
364.851
365.564
366.117
366.501
366.604
366.605
366.348
365.916
365.281
364.53
363.535
362.315
361.098
359.667
358.427
351.284
352.312
353.503
354.574
355.554
356.322
356.935
357.459
357.707
357.776
357.808
357.625
357.302
356.703
356.007
355.264
354.23
352.986
351.852
350.85
343.544
344.338
345.32
346.225
347.073
347.702
348.269
348.604
348.87
349.005
348.974
348.843
348.507
348.013
347.484
346.775
345.868
344.913
343.952
343.046
335.655
336.271
337.093
337.901
338.561
339.054
339.599
339.861
340.078
340.188
340.156
339.986
339.769
339.428
338.853
338.297
337.638
336.824
335.951
335.285
327.768
328.326
328.877
329.447
330.022
330.471
330.775
330.968
331.148
331.298
331.273
331.178
330.878
330.628
330.29
329.851
329.274
328.644
328.051
327.521
319.858
320.334
320.671
321.062
321.392
321.766
322.086
322.202
322.308
322.379
322.319
322.253
322.064
321.897
321.604
321.271
320.9
320.489
319.989
319.734
311.904
312.173
312.437
312.561
312.899
313.06
313.199
313.364
313.429
313.452
313.417
313.42
313.243
313.202
312.957
312.833
312.533
312.279
312.034
311.824
303.996
304.083
304.178
304.286
304.314
304.369
304.407
304.448
304.495
304.404
304.524
304.493
304.455
304.391
304.358
304.266
304.216
304.168
303.961
303.925
359.542
360.845
362.136
363.475
364.607
365.489
366.304
366.803
367.174
367.331
367.335
367.023
366.678
366.021
365.136
364.289
363.045
361.776
360.334
359.096
351.774
352.827
353.978
355.095
356.029
356.91
357.544
358.041
358.359
358.467
358.434
358.246
357.893
357.347
356.614
355.757
354.802
353.576
352.4
351.298
343.971
344.772
345.736
346.748
347.531
348.254
348.748
349.164
349.46
349.556
349.505
349.272
349.033
348.555
347.984
347.248
346.389
345.484
344.449
343.608
336.029
336.753
337.518
338.218
338.889
339.522
339.909
340.203
340.574
340.662
340.555
340.432
340.213
339.785
339.223
338.762
338.017
337.234
336.442
335.659
327.945
328.614
329.153
329.778
330.368
330.668
331.125
331.272
331.548
331.627
331.621
331.48
331.339
331.027
330.631
330.085
329.637
328.975
328.364
327.842
320.046
320.432
320.903
321.31
321.675
321.951
322.269
322.407
322.54
322.618
322.629
322.49
322.391
322.119
321.87
321.56
321.142
320.782
320.319
319.9
312.071
312.257
312.486
312.789
313.028
313.223
313.362
313.462
313.503
313.539
313.56
313.523
313.403
313.341
313.123
312.979
312.79
312.425
312.189
311.955
304.117
304.182
304.207
304.301
304.354
304.434
304.482
304.544
304.569
304.533
304.557
304.499
304.461
304.46
304.379
304.351
304.269
304.14
304.044
304.021
360.012
361.377
362.787
363.999
365.109
366.083
366.823
367.381
367.737
367.936
367.937
367.642
367.182
366.659
365.758
364.854
363.604
362.297
360.914
359.639
352.224
353.278
354.412
355.495
356.552
357.327
357.988
358.533
358.81
358.961
358.934
358.739
358.373
357.885
357.127
356.294
355.209
354.106
352.868
351.789
344.223
345.109
346.105
347.08
347.992
348.56
349.185
349.583
349.806
349.935
349.982
349.794
349.495
349.01
348.406
347.662
346.767
345.849
344.843
343.901
336.36
336.987
337.81
338.553
339.29
339.824
340.259
340.657
340.886
340.991
340.991
340.782
340.457
340.098
339.682
338.986
338.361
337.632
336.72
335.85
328.285
328.836
329.376
329.99
330.584
330.912
331.284
331.591
331.829
331.874
331.89
331.725
331.561
331.259
330.889
330.353
329.795
329.234
328.636
327.998
320.217
320.541
320.997
321.472
321.8
322.15
322.478
322.681
322.75
322.828
322.796
322.74
322.574
322.353
322.082
321.69
321.353
320.926
320.453
319.988
312.183
312.417
312.669
312.92
313.159
313.301
313.459
313.598
313.665
313.639
313.676
313.678
313.503
313.432
313.208
313.113
312.821
312.544
312.298
312.052
304.122
304.168
304.202
304.311
304.366
304.443
304.528
304.576
304.535
304.595
304.595
304.619
304.611
304.534
304.485
304.39
304.347
304.178
304.077
304.075
360.381
361.63
363.032
364.404
365.537
366.522
367.305
367.772
368.197
368.372
368.325
368.079
367.685
367.065
366.233
365.269
364.015
362.756
361.261
359.951
352.487
353.554
354.744
355.855
356.859
357.709
358.379
358.864
359.155
359.37
359.31
359.081
358.763
358.179
357.548
356.651
355.626
354.462
353.257
352.144
344.449
345.377
346.409
347.279
348.257
348.814
349.468
349.829
350.14
350.291
350.235
350.129
349.724
349.358
348.709
348.085
347.103
346.113
345.023
344.182
336.461
337.199
338.077
338.745
339.452
340.009
340.515
340.825
341.041
341.207
341.19
341.046
340.798
340.415
339.938
339.271
338.578
337.842
336.98
336.224
328.387
328.944
329.57
330.18
330.673
331.183
331.517
331.821
332.013
332.031
332.008
331.957
331.744
331.441
331.104
330.593
329.992
329.439
328.791
328.226
320.357
320.697
321.166
321.543
321.959
322.241
322.66
322.719
322.815
322.937
322.909
322.866
322.711
322.48
322.239
321.893
321.517
321.106
320.617
320.228
312.201
312.452
312.682
312.991
313.257
313.402
313.473
313.693
313.776
313.819
313.737
313.784
313.628
313.488
313.334
313.169
312.926
312.654
312.312
312.142
304.045
304.253
304.264
304.359
304.436
304.527
304.503
304.559
304.628
304.62
304.662
304.568
304.599
304.502
304.435
304.442
304.371
304.236
304.169
304.096
360.619
361.851
363.242
364.621
365.706
366.665
367.471
368.072
368.459
368.548
368.597
368.376
367.903
367.376
366.465
365.444
364.299
362.959
361.524
360.215
352.669
353.702
355.007
355.967
357.038
357.89
358.559
359.006
359.431
359.561
359.531
359.284
358.97
358.444
357.735
356.828
355.855
354.748
353.377
352.284
344.643
345.551
346.507
347.5
348.367
349.072
349.631
350.09
350.301
350.5
350.432
350.288
349.962
349.521
348.945
348.178
347.315
346.236
345.286
344.383
336.589
337.291
338.126
338.924
339.603
340.178
340.608
341.052
341.236
341.347
341.325
341.214
340.937
340.512
340.006
339.423
338.751
337.973
337.013
336.371
328.602
329.059
329.695
330.263
330.767
331.327
331.628
331.953
332.045
332.201
332.236
332.073
331.795
331.574
331.181
330.774
330.138
329.491
328.872
328.356
320.402
320.797
321.218
321.653
322.04
322.376
322.61
322.804
322.9
322.995
323.023
322.928
322.809
322.55
322.347
321.975
321.606
321.117
320.664
320.261
312.246
312.509
312.786
313.015
313.264
313.466
313.617
313.727
313.809
313.747
313.773
313.777
313.669
313.537
313.47
313.156
312.92
312.711
312.428
312.152
304.14
304.176
304.267
304.344
304.407
304.521
304.571
304.656
304.608
304.68
304.593
304.592
304.539
304.572
304.443
304.452
304.353
304.283
304.172
304.049
)
;

boundaryField
{
    hotSide
    {
        type            fixedGradient;
        gradient        nonuniform List<scalar> 
400
(
321.511
322.87
325.591
329.677
335.133
341.965
350.181
359.788
370.794
383.208
397.037
412.289
428.971
447.088
466.647
487.651
510.105
534.011
559.372
586.191
323.738
325.08
327.767
331.802
337.194
343.949
352.078
361.591
372.498
384.81
398.537
413.687
430.268
448.289
467.755
488.672
511.043
534.872
560.161
586.913
326.149
327.47
330.116
334.091
339.406
346.071
354.099
363.503
374.296
386.491
400.101
415.136
431.606
449.52
468.885
489.706
511.988
535.735
560.948
587.63
328.704
330
332.597
336.503
341.73
348.292
356.205
365.485
376.15
388.215
401.695
416.604
432.954
450.753
470.009
490.73
512.919
536.579
561.714
588.325
331.33
332.599
335.142
338.97
344.099
350.546
358.332
367.477
378.003
389.928
403.271
418.047
434.27
451.949
471.095
491.712
513.807
537.382
562.439
588.978
333.918
335.158
337.643
341.389
346.414
352.74
360.392
369.397
379.779
391.562
404.765
419.407
435.503
453.065
472.101
492.618
514.622
538.114
563.096
589.569
336.321
337.531
339.959
343.622
348.544
354.751
362.274
371.142
381.385
393.031
406.101
420.618
436.595
454.047
472.983
493.409
515.33
538.747
563.663
590.076
338.36
339.543
341.92
345.509
350.339
356.44
363.847
372.595
382.718
394.244
407.2
421.608
437.485
454.844
473.695
494.045
515.897
539.253
564.114
590.478
339.852
341.015
343.352
346.885
351.645
357.665
364.985
373.643
383.675
395.113
407.984
422.312
438.116
455.407
474.197
494.491
516.294
539.606
564.428
590.758
340.643
341.795
344.11
347.613
352.334
358.311
365.584
374.193
384.176
395.567
408.393
422.679
438.443
455.699
474.456
494.722
516.498
539.788
564.589
590.901
340.643
341.795
344.11
347.613
352.334
358.311
365.584
374.193
384.176
395.567
408.393
422.679
438.443
455.699
474.456
494.722
516.498
539.788
564.589
590.901
339.852
341.015
343.352
346.885
351.645
357.665
364.985
373.643
383.675
395.113
407.984
422.312
438.116
455.407
474.197
494.491
516.294
539.606
564.428
590.758
338.36
339.543
341.92
345.509
350.339
356.44
363.847
372.595
382.718
394.244
407.2
421.608
437.485
454.844
473.695
494.045
515.897
539.253
564.114
590.478
336.321
337.531
339.959
343.622
348.544
354.751
362.274
371.142
381.385
393.031
406.101
420.618
436.595
454.047
472.983
493.409
515.33
538.747
563.663
590.076
333.918
335.158
337.643
341.389
346.414
352.74
360.392
369.397
379.779
391.562
404.765
419.407
435.503
453.065
472.101
492.618
514.622
538.114
563.096
589.569
331.33
332.599
335.142
338.97
344.099
350.546
358.332
367.477
378.003
389.928
403.271
418.047
434.27
451.949
471.095
491.712
513.807
537.382
562.439
588.978
328.704
330
332.597
336.503
341.73
348.292
356.205
365.485
376.15
388.215
401.695
416.604
432.954
450.753
470.009
490.73
512.919
536.579
561.714
588.325
326.149
327.47
330.116
334.091
339.406
346.071
354.099
363.503
374.296
386.491
400.101
415.136
431.606
449.52
468.885
489.706
511.988
535.735
560.948
587.63
323.738
325.08
327.767
331.802
337.194
343.949
352.078
361.591
372.498
384.81
398.537
413.687
430.268
448.289
467.755
488.672
511.043
534.872
560.161
586.913
321.511
322.87
325.591
329.677
335.133
341.965
350.181
359.788
370.794
383.208
397.037
412.289
428.971
447.088
466.647
487.651
510.105
534.011
559.372
586.191
)
;
    }
    coldSide
    {
        type            mixed;
        refValue        uniform 300;
        refGradient     uniform 0;
        valueFraction   uniform 0.991591;
        source          uniform 0;
        value           nonuniform List<scalar> 
400
(
300.024
300.024
300.025
300.026
300.027
300.028
300.029
300.03
300.03
300.031
300.031
300.032
300.033
300.033
300.033
300.034
300.035
300.035
300.034
300.035
300.024
300.025
300.026
300.026
300.027
300.028
300.029
300.029
300.03
300.031
300.032
300.032
300.033
300.033
300.034
300.034
300.035