/*--------------------------------*- C++ -*----------------------------------*\
| =========                 |                                                 |
| \\      /  F ield         | OpenFOAM: The Open Source CFD Toolbox           |
|  \\    /   O peration     | Version:  2212                                  |
|   \\  /    A nd           | Website:  www.openfoam.com                      |
|    \\/     M anipulation  |                                                 |
\*---------------------------------------------------------------------------*/
FoamFile
{
    version     2.0;
    format      ascii;
    arch        "LSB;label=32;scalar=64";
    class       volScalarField;
    location    "0";
    object      stateMean;
}
// * * * * * * * * * * * * * * * * * * * * * * * * * * * * * * * * * * * * * //

dimensions      [0 0 0 1 0 0 0];

internalField   nonuniform List<scalar> 
3200
(
379.888
378.7
379.704
378.782
380.529
379.851
378.74
382.566
382.378
383.023
382.574
380.778
378.939
382.079
380.448
378.211
377.315
374.439
376.359
374.862
372.767
369.034
372.021
372.647
371.623
371.556
373.981
374.929
373.356
373.371
374.343
375.972
372.721
374.365
371.708
372.558
370.981
371.934
366.849
369.046
366.3
362.789
364.837
363.306
365.066
366.021
363.588
365.236
366.492
366.095
367.205
364.559
365.127
367.177
365.168
363.421
365.175
361.987
361.997
363.229
356.554
354.576
356.001
355.541
358.384
356.838
355.532
356.524
357.866
358.661
357.835
356.56
358.517
356.416
354.929
355.13
354.757
355.398
353.83
354.009
345.536
348.609
346.57
345.295
348.137
347.043
349
345.599
348.215
349.509
347.036
346.342
349.147
344.644
345.617
344.859
347.333
346.097
345.101
347.692
337.893
336.671
336.673
333.661
334.796
336.268
337.088
334.639
339.046
336.949
336.589
336.204
335.247
338.172
336.273
336.357
334.111
334.649
334.367
333.871
322.464
323.518
323.629
324.342
325.38
323.213
323.4
324.212
322.595
323.12
323.296
324.869
323.467
321.378
322.221
323.766
321.925
322.704
322.419
322.208
309.275
308.893
308.65
309.494
309.261
310.962
307.779
309.82
306.323
309.043
309.163
309.008
307.508
310.967
306.152
307.851
308.394
308.449
307.863
308.95
379.684
377.288
377.466
379.362
379.032
378.9
381.789
382.828
380.735
384.032
381.593
380.239
381.95
381.171
380.369
380.296
377.06
378.241
376.639
375.028
371.871
370.816
370.407
372.734
372.252
374.128
373.701
376.488
376.841
377.158
377.049
375.052
376.027
375.165
373.547
371.563
371.955
369.637
370.295
369.65
367.309
362.895
365.154
364.362
367.207
366.217
363.643
367.769
366.927
367.923
366.369
365.178
365.907
365.899
365.828
364.84
362.549
364.849
363.636
363.151
357.523
354.854
357.898
356.589
358.186
356.868
357.586
359.014
358.054
357.822
360.674
358.696
356.536
356.927
356.759
354.689
354.19
354.153
356.075
353.216
345.076
345.852
346.337
347.839
346.012
347.343
346.578
347.749
347.789
349.33
347.242
348.886
349.238
345.444
348.1
346.964
348.27
347.791
346.282
343.733
337.717
336.272
333.952
337.13
337.939
333.793
336.506
336.279
337.39
339.221
338.066
336.42
335.732
337.848
334.774
336.468
335.379
334.905
336.511
333.506
324.861
323.227
324.12
323.079
324.822
324.65
323.563
324.641
326.057
324.301
323.669
323.104
326.515
321.589
323.703
321.81
321.047
322.784
323.693
323.264
309.18
308.093
307.67
307.333
309.508
309.522
308.293
309.458
309.608
307.757
311.355
310.313
307.124
310.141
308.235
309.33
311.006
307.312
309.505
309.084
378.399
377.264
379.145
379.376
380.215
381.219
382.101
381.64
384.249
382.69
384.612
379.443
382.966
382.312
380.739
380.385
377.477
376.144
377.316
376.734
374.301
372.182
373.415
372.282
371.572
373.267
374.787
374.359
373.852
375.275
375.867
374.43
375.331
375.488
371.715
371.909
370.359
372.306
370.039
370.14
364.187
363.133
367.031
363.792
365.315
365.368
365.538
366.683
365.629
369.277
367.77
366.579
367.699
365.196
365.367
365.081
364.829
363.56
363.07
362.459
356.223
357.119
357.18
356.336
357.27
356.643
357.5
358.406
358.943
357.842
357.907
358.303
359.119
360.552
356.505
356.104
357.223
356.434
354.506
353.716
346.412
347.356
345.598
346.556
349.988
345.774
350.551
348.404
348.95
346.836
348.349
346.878
349.662
347.896
348.518
349.456
346.273
346.221
345.945
347.06
336.408
333.722
336.387
337.213
334.722
337.794
335.598
336.967
338.488
334.727
337.913
337.568
336.971
333.775
336.707
336.289
337.903
336.303
335.497
336.866
323.435
322.532
325.252
323.711
321.847
324.398
323.933
323.576
324.786
322.301
321.301
324.032
324.321
322.138
325.379
325.358
322.139
322.938
321.816
324.681
308.867
308.953
309.144
310.757
309.019
308.552
308.032
310.357
308.458
308.97
308.006
308.954
310.075
309.717
308.072
306.608
308.785
307.688
309.088
308.037
380.16
377.01
379.339
378.818
380.608
381.243
381.956
383.089
384.847
384.216
381.67
381.809
384.039
384.489
381.376
378.731
378.073
380.567
376.437
376.604
372.439
370.684
370.169
372.647
371.458
374.814
374.823
375.752
375.724
376.435
377.329
374.744
376.131
373.518
374.298
371.819
373.444
370.354
370.376
371.523
364.247
365.892
363.205
364.146
365.652
366.086
366.887
367.744
367.285
366.879
367.257
366.808
368.843
366.634
366.761
364.559
364.165
364.064
360.961
362.381
358.492
356.577
356.273
355.965
357.203
356.207
359.726
359.821
360.291
358.004
355.849
357.473
358.175
357.883
355.523
357.737
356.592
356.183
356.117
354.604
346.567
349.006
345.547
345.85
347.185
347.958
346.86
349.965
348.058
349.347
349.393
349.237
350.313
348.098
346.913
347.037
347.967
346.798
345.787
345.954
335.165
336.234
333.448
336.576
335.441
338.809
337.112
336.757
336.265
336.737
338.294
336.882
338.263
339.763
335.886
335.865
336.566
335.366
334.644
333.323
322.928
323.351
326.242
322.184
323.933
325.539
323.365
322.86
323.851
323.153
322.849
324.471
324.221
325.125
324.776
321.957
325.4
321.018
322.327
322.296
310.397
308.232
308.917
308.412
307.006
309.502
308.371
308.521
308.825
310.234
310.824
309.472
309.973
307.279
309.201
309.446
309.955
309.332
309.418
308.47
379.621
377.148
380.324
379.621
378.658
382.139
383.565
382.586
386.251
383.242
384.35
383.087
383.613
382.435
382.857
380.089
377.278
380.317
375.37
376.48
375.913
371.646
372.564
371.779
374.346
374.333
375.14
374.768
375.143
377.258
377.095
375.406
376.918
375.312
373.533
373.403
370.727
371.827
372.434
368.417
364.901
363.401
364.639
365.313
365.549
367.729
369.147
367.204
369.308
366.033
368.602
370.022
367.74
367.434
364.058
365.086
363.572
363.492
363.323
362.511
358.738
355.335
356.266
357.121
356.804
356.273
358.021
356.084
360.492
355.512
358.34
357.688
358.944
358.143
358.135
356.35
355.944
356.186
354.14
356.509
346.032
347.86
344.573
346.766
347.299
347.853
345.564
347.386
351.744
348.955
347.882
349.148
349.944
349.147
349.784
347.508
346.32
346.044
343.267
344.198
337.076
334.92
338.383
337.461
335.011
338.77
336.082
334.875
336.379
337.137
336.137
338.239
336.252
334.813
335.962
336.759
336.528
335.263
335.319
336.607
325.481
324.374
322.63
322.891
322.002
325.066
326.609
323.449
325.581
323.263
326.246
323.476
324.784
324.356
324.292
323.807
322.842
326.029
322.965
322.052
308.47
309.823
308.776
307.895
309.027
308.422
308.621
307.776
310.847
308.838
307.941
309.66
311.419
310.601
307.958
309.062
307.945
309.378
309.673
307.882
380.38
376.689
379.15
378.122
379.499
384.495
382.417
381.573
383.741
386.443
386.107
383.919
383.052
380.854
382.016
379.374
379.23
379.841
376.352
374.209
371.188
371.529
370.226
373.276
371.276
374.865
373.759
376.124
379.382
376.625
376.452
376.3
375.363
376.933
374.802
373.731
372.818
372.489
372.116
371.181
363.525
364.082
363.796
365.287
367.778
364.468
367.873
367.313
369.708
368.825
369.493
370.087
365.924
366.61
365.6
365.925
362.1
366.858
363.388
363.17
355.984
354.268
354.264
357.364
356.258
357.884
356.742
360.025
359.074
359.779
359.669
359.772
361.117
358.863
357.206
357.497
355.609
355.982
353.17
355.978
346.031
345.239
346.57
345.453
347.055
347.141
346.906
347.971
350.08
349.939
349.411
350.089
348.029
344.641
349.166
346.532
345.89
347.845
347.774
347.341
337.178
335.13
333.704
333.471
335.613
336.356
333.846
336.395
337.89
339.311
336.531
338.294
335.352
337.124
336.036
337.166
336.565
336.325
335.884
335.188
323.617
324.088
323.669
324.75
324.486
322.098
323.347
323.711
324.106
323.661
322.496
325.203
325.025
322.999
323.266
321.501
320.712
322.982
321.98
322.984
309.034
306.328
309.963
307.837
308.424
308.355
308.695
309.036
309.527
308.787
309.668
309.066
310.928
308.24
309.243
308.288
306.691
307.719
308.238
306.795
376.679
377.871
379.16
380.55
381.662
382.168
383.575
384.397
384.614
387.647
383.859
386.276
383.291
385.867
380.222
380.14
380.531
380.173
378.21
379.025
372.599
374.649
372.872
374.111
374.005
374.454
374.699
376.208
374.178
378.081
378.783
375.912
376.523
379.027
372.87
373.377
373.184
372.282
371.025
369.084
364.532
365.235
365.847
365.265
366.376
364.806
365.14
367.847
367.926
368.829
369.555
369.33
367.293
369.988
367.718
368.406
363.873
363.881
364.141
362.996
357.159
356.495
354.682
357.055
359.303
359.468
356.964
357.472
359.142
361.63
361.195
360.088
361.01
359.077
355.641
358.22
355.146
355.796
356.342
355.197
346.374
346.055
347.729
349.451
348.134
349.51
346.456
349.062
347.48
348.727
349.221
348.81
349.294
351.089
349.515
348.099
347.709
347.678
345.679
345.117
333.792
334.027
336.612
336.276
337.104
337.21
338.071
337.189
338.846
338.421
336.666
336.716
338.256
337.335
337.103
335.537
335.072
335.218
337.262
334.804
324.632
323.525
322.808
321.727
327.406
321.706
322.742
321.949
324.769
325.282
323.556
321.548
324.241
322.973
325.193
321.887
323.521
321.77
321.804
323.056
307.794
310.206
307.723
308.089
307.55
310.984
307.981
308.216
309.405
309.216
308.032
308.083
306.561
309.292
308.252
309.411
309.05
310.106
310.227
308.255
381.676
381.313
379.732
383.337
381.886
383.282
382.022
382.003
384.977
387.152
387.083
384.771
385.306
384.922
382.801
381.114
379.648
378.09
379.274
376.347
370.804
372.085
373.183
373.444
371.928
375.092
377.73
376.373
377.225
376.516
376.734
378.007
375.57
378.214
375.25
374.982
372.933
370.637
371.922
369.328
364.541
364.672
364.755
365.23
366.734
366.536
365.661
367.874
367.511
371.975
369.864
369.285
371.447
367.602
367.603
366.105
367.378
365.849
367.389
362.018
359.455
357.879
357.898
356.193
357.681
357.736
359.208
361.102
360.584
359.306
361.54
361.971
361.472
361.25
357.505
359.566
358.752
357.103
355.419
355.171
349.215
346.603
347.311
345.389
349.325
348.118
350.75
348.201
348.702
349.692
348.658
349.142
349.671
349.124
347.589
348.881
348.169
348.505
345.094
344.656
336.625
336.387
336.72
338.098
338.681
335.828
335.732
337.928
336.933
338.769
339.149
338.532
337.071
336.95
337.921
336.243
335.631
335.657
335.641
335.421
323.851
325.221
322.864
324.237
323.809
324.507
324.49
324.182
322.046
324.391
324.391
323.647
322.647
324.094
322.749
323.31
324.373
321.953
323.446
323.108
307.525
308.583
307.739
308.653
307.398
309.542
306.44
308.977
308.843
307.14
308.759
309.775
309.909
308.385
310.075
310.529
309.184
309.016
305.657
308.824
378.676
381.135
379.994
382.087
381.394
381.921
385.612
385.897
387.432
386.198
388.135
387.615
386.724
383.76
385.366
380.038
382.665
379.872
378.791
377.644
373.212
375.732
372.808
372.149
372.934
374.444
377.186
378.525
378.023
378.494
380.002
377.839
380.214
376.422
375.681
376.65
373.932
371.738
372.675
367.515
365.911
367.207
365.524
366.123
367.76
366.982
367.884
369.482
367.997
371.522
371.286
369.236
368.888
368.82
367.095
368.381
365.183
365.306
364.146
363.318
356.776
357.701
357.879
356.134
359.497
358.932
358.605
357.889
361.273
359.6
360.286
359.934
359.241
356.705
358.91
357.607
358.037
357.969
356.052
355.164
344.62
346.254
347.918
347.55
345.871
348.421
350.416
348.576
350.563
350.601
350.398
349.642
348.009
351.84
349.342
350.639
347.46
346.537
345.71
347.294
336.504
336.024
335.624
336.315
336.735
336.177
335.343
336.997
338.274
337.244
338.335
334.892
337.983
335.091
337.512
338.949
336.588
337.304
335.98
333.564
326.192
323.791
323.425
323.203
324.516
323.538
325.508
323.536
326.183
326.126
322.828
324.142
324.311
323.597
324.147
323.891
324.349
323.802
323.033
322.963
309.054
309.782
308.53
309.592
308.692
307.758
310.256
307.87
310.615
308.486
309.056
307.544
309.41
310.444
309.124
310.056
307.624
308.867
306.545
308.821
380.07
382.049
378.179
382.001
381.038
384.48
386.003
389.479
386.745
387.996
388.006
385.958
386.658
385.47
383.237
384.386
382.399
379.881
378.963
378.117
371.414
372.33
374.277
373.828
375.529
374.948
375.614
376.304
381.044
375.968
376.413
379.181
376.921
377.991
375.19
376.84
373.468
371.433
372.835
372.38
364.771
365.147
366.846
365.904
367.965
368.268
371.908
368.792
370.5
369.378
369.586
370.088
369.751
369.126
369.101
366.529
365.63
365.451
366.019
365.226
356.458
356.556
358.175
358.45
356.121
357.8
360.189
361.226
359.452
361.73
361.576
361.013
357.814
360.685
357.639
358.859
357.492
359.051
356.37
358.362
345.607
346.772
345.845
348.666
348.562
349.497
348.497
349.543
350.482
349.802
349.284
349.942
348.922
349.12
348.439
348.31
347.812
347.916
348.432
345.583
335.557
335.252
335.822
336.351
337.002
335.204
336.356
338.395
337.997
336.406
336.865
337.964
337.229
338.096
337.359
337.022
336.996
337.864
336.54
338.359
322.685
323.789
320.935
323.092
323.17
323.623
323.986
321.869
323.496
324.71
325.721
322.447
324.719
324.715
326.762
323.871
324.805
323.692
324.437
323.053
310.898
308.784
308.832
307.853
308.79
308.679
308.084
308.976
310.914
309.751
310.295
308.548
309.249
310.321
309.629
309.327
309.107
307.414
308.333
308.799
383.333
379.701
379.998
381.055
382.783
382.6
383.867
385.445
388.264
387.425
390.528
388.318
386.298
385.433
383.738
385.438
384.044
381.004
380.675
381.088
376.742
373.66
374.222
374.196
378.958
375.749
379.914
376.919
380.285
377.007
377.566
380.228
376.617
379.051
374.701
375.487
374.402
373.994
372.914
372.571
364.296
365.309
363.445
363.881
367.644
368.424
368.577
369.311
371.863
369.78
370.768
373.258
369.651
371.33
368.763
368.227
366.684
365.958
365.986
367.093
356.551
356.232
356.659
359.042
358.437
357.509
361.344
360.141
360.169
360.05
361.215
359.194
359.525
359.114
358.79
357.857
356.776
357.393
355.717
356.586
349.144
345.654
347.649
346.147
348.614
349.843
349.811
349.125
348.309
349.906
350.613
351.818
350.795
349.529
350.081
348.628
348.488
346.326
347.478
347.008
337.016
334.749
336.355
338.801
336.134
336.938
336.053
339.044
336.972
336.994
337.674
338.112
337.978
338.188
337.554
337.793
336.313
335.675
334.908
335.645
323.885
323.394
325.134
325.105
323.683
323.489
323.979
321.807
325.132
322.158
324.957
324.75
326.247
323.236
324.477
324.437
322.698
323.907
323.841
325.469
309.638
309.837
310.199
309.942
307.91
309.467
308.356
308.345
309.314
310.698
309.348
308.72
309.646
310.25
307.854
309.489
305.778
308.481
309.431
308.331
383.405
383.888
382.693
382.984
383.929
383.844
385.385
385.628
386.415
389.711
388.729
386.205
386.125
384.577
383.432
382.382
385
382.264
378.294
382.119
375.126
373.036
373.973
373.314
375.7
376.51
375.793
376.981
376.874
380.416
382.332
379.586
378.723
378.774
377.086
376.499
377.072
374.136
374.558
372.971
365.798
367.134
365.036
365.813
365.962
367.109
369.497
369.812
369.216
371.389
371.377
371.257
370.926
368.995
368.993
368.553
368.33
365.571
366.848
366.219
358.762
357.329
358.925
359.521
356.739
358.5
359.74
359.604
359.917
361.601
361.623
360.449
358.168
363.354
360.025
359.712
357.467
357.313
357.818
356.714
348.54
348.245
346.357
349.134
349.202
348.693
351.525
347.619
352.876
352.073
350.993
350.644
350.152
348.222
349.203
348.932
348.183
348.703
347.668
349.445
337.569
335.046
337.032
337.854
333.299
337.643
337.186
336.026
338.56
337.602
339.63
337.289
338.954
336.709
336.903
336.936
335.93
337.228
335.081
335.53
321.342
324.654
325.373
324.814
323.399
323.683
324.218
324.338
324.466
326.534
325.037
325.465
322.623
323.187
322.413
325.478
323.114
324.977
323.518
324.724
309.517
307.948
308.276
309.261
308.874
309.074
307.998
308.418
307.507
309.268
307.578
310.094
309.782
310.133
309.337
308.28
308.473
308.713
309.885
311.267
382.021
383.307
380.721
382.662
383.608
384.723
385.552
385.964
387.48
386.424
389.086
388.626
388.437
387.848
382.11
383.469
384.782
382.649
382.397
379.886
376.276
374.723
375.166
375.464
375.611
376.369
374.489
377.173
377.029
377.478
377.169
383.195
377.02
379.895
375.923
375.326
375.63
375.445
374.778
373.962
367.325
367.861
368.319
368.202
368.371
367.844
370.074
368.887
369.221
370.54
371.004
370.578
366.681
371.641
368.635
366.905
368.361
365.418
368.184
365.384
357.37
355.297
356.227
358.84
357.374
359.806
359.611
359.476
362.168
361.903
360.046
359.762
361.656
361.807
359.221
360.245
358.726
357.654
358.704
359.085
347.681
349.054
347.9
349.413
349.247
348.913
349.871
350.219
350.087
348.851
349.031
351.703
348.556
350.622
349.43
347.473
349.452
347.294
349.471
348.909
335.901
337.634
336.426
336.93
337.609
338.66
337.867
337.249
336.947
339.824
337.931
339.879
339.085
337.314
337.586
337.584
337.39
335.999
335.234
336.417
325.125
323.479
322.533
323.784
325.875
325.922
322.109
323.87
323.742
326.681
325.16
325.372
325.384
322.992
323.811
322.536
323.396
322.548
324.133
326.593
309.373
309.415
308.608
310.357
311.183
307.819
309.592
308.82
310.045
307.048
308.65
308.235
310.275
310.174
308.806
310.208
310.293
309.052
310.272
309.73
384.246
384.518
383.726
384.917
385.944
384.539
383.702
386.799
386.803
388.688
388.393
388.784
387.865
385.332
383.024
382.587
384.179
384.239
382.813
379.967
374.923
376.882
377.364
378.047
378.18
377.88
376.977
378.93
378.98
380.299
380.86
379.937
378.437
379.164
376.948
378.175
375.315
375.43
374.264
374.398
365.855
367.156
368.532
367.543
367.446
369.72
371.147
368.431
370.119
369.722
370.999
371.904
369.941
368.339
367.497
366.868
366.33
367.084
364.892
367.799
356.56
357.61
358.158
357.763
360.3
359.051
360.486
360.468
361.621
361.727
363.753
361.825
361.324
361.203
356.474
357.929
358.983
358.507
358.053
356.687
349.087
347.896
348.163
349.798
351.067
351.486
350.701
349.118
349.636
351.589
349.06
351.391
348.887
348.51
346.88
348.21
347.772
348.221
348.137
347.93
336.323
336.857
336.638
337.656
337.13
337.149
336.124
339.632
339.789
338.819
339.779
337.419
336.708
337.183
337.497
337.177
338.362
336.573
337.367
338.494
323.322
322.616
324.235
325.24
324.129
323.107
324.108
322.745
325.049
323.644
326.626
325.356
323.778
321.963
325.015
325.512
324.36
323.365
325.927
324.726
308.829
307.747
310.608
308.644
307.806
309.692
308.993
307.228
306.582
309.922
307.83
308.346
309.554
311.188
307.046
308.621
309.007
309.087
310.434
310.773
382.715
382.358
384.932
382.627
382.519
385.906
386.373
385.686
387.906
388.426
387.213
387.554
387.258
386.704
386.664
384.691
383.552
384.577
383.148
384.002
377.266
375.477
375.76
376.549
378.252
377.286
378.143
377.877
378.824
378.088
378.855
380.83
377.678
378.399
377.065
377.853
376.56
376.498
375.351
374.775
368.939
367.998
365.791
369.234
366.965
370.663
369.8
368.932
372.637
370.659
369.199
370.243
369.379
370.788
369.684
367.016
366.21
368.307
369.721
369.681
358.866
360.357
356.537
359.267
360.949
359.603
360.589
360.037
363.495
361.059
361.965
359.077
360.906
358.945
359.865
358.661
358.743
358.845
356.623
357.653
344.948
348.291
347.214
348.798
349.438
348.788
350.513
351.177
350.027
349.052
350.429
349.047
350.423
348.921
351.308
346.432
348.196
347.853
347.582
347.876
337.661
336.323
337.405
335.96
339.603
335.955
337.384
337.252
340.183
340.27
337.995
337.302
338.104
338
336.043
338.363
337.363
337.702
337.831
337.829
324.694
325.321
323.892
324.808
325.652
324.656
323.599
325.379
324.921
325.471
324.748
326.061
323.868
325.681
324.287
324.476
324.539
324.116
323.801
325.227
309.743
308.873
306.829
309.454
309.034
310.755
311.104
309.566
309.664
310.021
309.34
309.774
310.058
309.091
307.149
309.072
308.166
308.951
310.52
309.076
384.795
386.232
382.544
384.919
384.196
386.234
386.539
389.796
388.739
390.409
389.258
386.968
386.227
387.597
385.853
388.231
384.321
383.773
384.497
382.581
378.605
376.822
374.518
378.222
377.02
378.837
379.716
381.555
380.99
380.157
380.619
380.145
378.325
380.065
378.402
377.165
376.554
374.117
377.127
377.208
369.408
370.798
368.076
367.095
367.605
369.301
371.036
371.625
371.974
370.315
371.233
371.414
371.86
367.412
369.16
369.56
368.151
368.382
367.896
368.652
358.237
357.847
360.747
359.103
359.977
360.826
359.705
363.057
362.976
363.552
360.013
360.39
361.597
359.23
358.088
359.815
359.824
358.901
357.071
359.014
349.95
347.75
346.592
349.717
347.87
347.231
349.921
351.155
352.875
350.02
350.16
350.043
351.425
350.731
348.927
350.416
348.646
349.865
347.214
348.336
335.245
337.535
335.998
338.029
338.919
339.465
337.657
341.413
339.968
338.168
338.292
337.463
337.579
338.714
336.707
338.204
337.836
336.714
338.739
334.819
323.787
324.461
324.246
324.273
326.125
323.865
325.596
323.744
322.326
323.871
324.241
325.652
322.666
323.83
323.727
322.224
324.351
324.114
323.06
323.023
308.675
310.295
309.969
308.64
307.507
308.265
310.292
308.407
307.342
309.616
308.397
309.701
309.37
309.219
309.48
311.447
308.42
309.217
308.618
307.483
384.593
384.557
381.307
386.511
383.52
386.65
387.693
386.508
387.275
388.881
387.917
387.341
384.249
386.959
384.466
386.366
384.989
384.285
383.075
384.734
376.223
377.456
377.364
379.031
376.727
378.822
378.287
379.083
382.384
379.579
379.425
378.716
378.92
379.37
378.539
377.806
377.87
374.619
377.548
375.365
368.77
371.836
368.907
368.73
369.968
368.914
369.935
371.55
370.696
369.485
371.195
366.964
368.112
368.915
369.362
368.63
370.704
366.315
367.334
369.816
362.174
359.544
358.553
358.766
359.623
359.18
356.724
362.01
361.408
361.155
359.096
360.17
360.634
360.83
358.298
360.63
357.134
359.591
360.488
358.054
348.419
347.766
348.141
347.005
349.697
351.707
349.288
350.43
351.895
351.559
349.094
351.366
349.263
348.727
349.823
350.457
349.807
350.93
349.175
349.394
337.474
337.243
337.453
337.781
337.216
339.376
337.107
338.651
338.613
338.202
338.038
338.898
336.048
337.955
338.331
336.822
340.113
337.144
335.88
336.178
324.708
323.679
324.012
326.958
324.541
324.139
324.494
325.868
325.217
323.926
325.066
323.447
323.29
326.496
325.096
323.257
324.81
324.061
326.584
322.677
308.748
308.631
306.48
310.664
310.295
309.257
308.731
308.415
309.91
309.192
309.419
307.821
311.65
309.97
308.964
309.321
307.701
307.725
309.298
309.12
385.206
385.716
388.001
387.849
386.701
386.477
387.471
388.472
387.978
387.736
390.105
386.995
385.897
386.483
386.303
386.789
386.506
381.641
380.905
384.139
377.015
376.774
379.252
379.016
378.974
378.295
380.57
379.078
378.033
380.145
381.141
380.281
378.581
378.646
378.265
375.725
378.248
378.878
377.275
375.423
369.404
370.232
368.387
368.705
372.453
369.656
370.575
368.194
368.928
369.542
369.015
369.834
366.708
369.304
368.871
369.727
369.334
370.146
367.379
368.822
360.819
360.571
359.027
357.409
361.054
360.126
361.858
361.093
361.361
361.121
362.606
359.754
360.205
361.658
357.527
358.712
360.435
361.065
358.117
357.194
350.875
350.873
350.943
348.601
349.471
349.349
351.014
349.492
352.656
349.845
349.377
348.788
348.176
347.989
349.745
349.845
348.211
346.523
348.726
347.283
339.376
338.586
336.333
337.612
336.744
337.141
336.296
338.057
340.375
337.984
338.813
339.604
337.127
338.351
336.244
336.799
336.353
338.634
338.308
335.793
325.298
323.005
324.548
323.97
324.984
324.577
323.442
323.788
325.021
326.29
324.129
324.204
323.267
321.898
324.672
325.858
323.166
325.821
323.447
324.978
309.365
310.053
308.361
309.659
307.083
308.518
310.235
309.54
307.534
311.324
308.986
308.015
309.741
307.693
311.223
308.882
309.039
308.519
309.421
308.545
385.861
387.304
385.75
386.991
385.68
387.841
385.88
389.56
386.862
389.553
387.39
388.894
385.239
386.893
387.203
387.065
388.993
384.232
382.993
385.339
378.42
378.967
378.733
380.165
379.147
380.189
381.373
380.721
381.055
381.345
380.254
378.373
381.138
379.526
380.396
379.559
379.965
375.629
379.089
375.803
369.767
372.064
369.204
369.005
367.532
371.229
370.738
371.686
370.536
371.408
371.477
371.155
370.823
370.79
370.6
369.074
368.451
369
368.251
366.941
358.565
358.882
358.568
361.533
361.392
359.962
359.772
360.488
362.039
361.587
359.827
360.377
359.389
360.635
360.013
361.546
358.198
360.505
358.225
361.164
350.208
349.82
348.713
349.119
347.337
351.512
349.432
350.656
351.872
350.808
350.667
347.881
349.986
349.982
348.934
350.809
349.491
350.061
348.248
348.035
337.58
337.468
336.56
336.674
339.408
337.65
336.723
338.698
338.355
339.9
337.474
337.377
337.476
336.637
336.055
338.145
336.155
335.826
338.35
337.346
325.085
323.342
325.58
323.349
324.651
324.677
324.903
325.278
323.31
324.67
321.869
326.44
323.856
324.142
322.876
324.826
325.043
324.149
323.64
323.511
308.34
307.69
306.479
307.235
307.379
309.671
309.511
308.388
310.017
310.459
308.839
309.945
308.611
307.276
310.025
309.386
310.001
306.618
309.295
308.365
385.314
387.132
386.629
387.437
386.898
385.625
387.092
389.283
387.762
388.164
390.081
389.248
387.633
387.043
385.482
385.057
382.453
386.183
385.411
386.615
378.031
378.675
377.338
376.958
378.012
381.878
380.104
380.996
382.263
378.722
381.3
380.238
380.257
377.987
378.881
378.916
378.91
378.482
377.944
376.91
367.586
370.772
370.491
366.969
370.209
368.345
372.859
370.393
372.382
368.334
373.202
370.858
369.189
370.603
370.844
371.67
366.754
368.828
367.038
367.433
359.753
360.403
359.469
357.64
360.874
361.069
361.206
358.346
361.782
361.141
361.411
361.764
360.493
362.516
362.433
362.553
357.085
358.193
361.078
359.306
349.887
350.145
350.429
348.858
350.292
347.058
350.402
350.174
348.847
350.225
351.207
350.288
350.7
350.547
348.965
348.77
348.872
349.408
348.709
349.999
338.022
338.364
337.662
335.094
337.57
339.51
338.73
337.439
339.392
339.713
339.117
337.07
337.639
337.583
338.842
337.299
336.567
335.415
339.691
336.653
326.608
325.038
322.523
324.607
324.476
323.349
325.477
325.485
322.14
324.908
325.387
322.775
324.986
324.204
326.375
325.193
323.778
326.866
324.506
325.931
309.738
309.482
307.655
308.959
309.977
310.961
308.79
307.932
307.354
308.619
309.935
308.396
311.337
309.694
308.782
307.139
309.609
309.902
308.665
308.993
)
;

boundaryField
{
    hotSide
    {
        type            fixedGradient;
        gradient        nonuniform List<scalar> 
400
(
321.511
322.87
325.591
329.677
335.133
341.965
350.181
359.788
370.794
383.208
397.037
412.289
428.971
447.088
466.647
487.651
510.105
534.011
559.372
586.191
323.738
325.08
327.767
331.802
337.194
343.949
352.078
361.591
372.498
384.81
398.537
413.687
430.268
448.289
467.755
488.672
511.043
534.872
560.161
586.913
326.149
327.47
330.116
334.091
339.406
346.071
354.099
363.503
374.296
386.491
400.101
415.136
431.606
449.52
468.885
489.706
511.988
535.735
560.948
587.63
328.704
330
332.597
336.503
341.73
348.292
356.205
365.485
376.15
388.215
401.695
416.604
432.954
450.753
470.009
490.73
512.919
536.579
561.714
588.325
331.33
332.599
335.142
338.97
344.099
350.546
358.332
367.477
378.003
389.928
403.271
418.047
434.27
451.949
471.095
491.712
513.807
537.382
562.439
588.978
333.918
335.158
337.643
341.389
346.414
352.74
360.392
369.397
379.779
391.562
404.765
419.407
435.503
453.065
472.101
492.618
514.622
538.114
563.096
589.569
336.321
337.531
339.959
343.622
348.544
354.751
362.274
371.142
381.385
393.031
406.101
420.618
436.595
454.047
472.983
493.409
515.33
538.747
563.663
590.076
338.36
339.543
341.92
345.509
350.339
356.44
363.847
372.595
382.718
394.244
407.2
421.608
437.485
454.844
473.695
494.045
515.897
539.253
564.114
590.478
339.852
341.015
343.352
346.885
351.645
357.665
364.985
373.643
383.675
395.113
407.984
422.312
438.116
455.407
474.197
494.491
516.294
539.606
564.428
590.758
340.643
341.795
344.11
347.613
352.334
358.311
365.584
374.193
384.176
395.567
408.393
422.679
438.443
455.699
474.456
494.722
516.498
539.788
564.589
590.901
340.643
341.795
344.11
347.613
352.334
358.311
365.584
374.193
384.176
395.567
408.393
422.679
438.443
455.699
474.456
494.722
516.498
539.788
564.589
590.901
339.852
341.015
343.352
346.885
351.645
357.665
364.985
373.643
383.675
395.113
407.984
422.312
438.116
455.407
474.197
494.491
516.294
539.606
564.428
590.758
338.36
339.543
341.92
345.509
350.339
356.44
363.847
372.595
382.718
394.244
407.2
421.608
437.485
454.844
473.695
494.045
515.897
539.253
564.114
590.478
336.321
337.531
339.959
343.622
348.544
354.751
362.274
371.142
381.385
393.031
406.101
420.618
436.595
454.047
472.983
493.409
515.33
538.747
563.663
590.076
333.918
335.158
337.643
341.389
346.414
352.74
360.392
369.397
379.779
391.562
404.765
419.407
435.503
453.065
472.101
492.618
514.622
538.114
563.096
589.569
331.33
332.599
335.142
338.97
344.099
350.546
358.332
367.477
378.003
389.928
403.271
418.047
434.27
451.949
471.095
491.712
513.807
537.382
562.439
588.978
328.704
330
332.597
336.503
341.73
348.292
356.205
365.485
376.15
388.215
401.695
416.604
432.954
450.753
470.009
490.73
512.919
536.579
561.714
588.325
326.149
327.47
330.116
334.091
339.406
346.071
354.099
363.503
374.296
386.491
400.101
415.136
431.606
449.52
468.885
489.706
511.988
535.735
560.948
587.63
323.738
325.08
327.767
331.802
337.194
343.949
352.078
361.591
372.498
384.81
398.537
413.687
430.268
448.289
467.755
488.672
511.043
534.872
560.161
586.913
321.511
322.87
325.591
329.677
335.133
341.965
350.181
359.788
370.794
383.208
397.037
412.289
428.971
447.088
466.647
487.651
510.105
534.011
559.372
586.191
)
;
    }
    coldSide
    {
        type            mixed;
        refValue        uniform 300;
        refGradient     uniform 0;
        valueFraction   uniform 0.991591;
        source          uniform 0;
        value           nonuniform List<scalar> 
400
(
300.078
300.077
300.075
300.087
300.071
300.076
300.066
300.063
300.076
300.092
300.081
300.08
300.079
300.074
300.082
300.073
300.074
300.079
300.07
300.082
300.075
300.068
300.075
300.069
300.083
300.053
300.086
300.072
300.082
300.074
300.083
300.067
300.079
300.065
300.075