/*--------------------------------*- C++ -*----------------------------------*\
| =========                 |                                                 |
| \\      /  F ield         | OpenFOAM: The Open Source CFD Toolbox           |
|  \\    /   O peration     | Version:  2212                                  |
|   \\  /    A nd           | Website:  www.openfoam.com                      |
|    \\/     M anipulation  |                                                 |
\*---------------------------------------------------------------------------*/
FoamFile
{
    version     2.0;
    format      ascii;
    arch        "LSB;label=32;scalar=64";
    class       volScalarField;
    location    "0";
    object      T;
}
// * * * * * * * * * * * * * * * * * * * * * * * * * * * * * * * * * * * * * //

dimensions      [0 0 0 1 0 0 0];

internalField   nonuniform List<scalar> 
3200
(
321.333
320.773
320.425
320.297
320.487
320.651
321.08
321.48
321.737
321.955
322.176
322.206
321.991
321.731
321.543
321.214
321.079
321.34
321.812
322.479
318.299
317.848
317.566
317.456
317.63
317.746
318.155
318.516
318.742
318.946
319.116
319.164
318.973
318.718
318.601
318.29
318.165
318.397
318.784
319.336
315.338
314.996
314.765
314.68
314.852
314.918
315.237
315.606
315.814
315.988
316.117
316.172
315.994
315.746
315.705
315.419
315.312
315.511
315.82
316.275
312.456
312.21
312.002
311.966
312.098
312.135
312.38
312.73
312.881
313.071
313.186
313.206
313.045
312.814
312.838
312.599
312.48
312.658
312.917
313.248
309.634
309.435
309.297
309.283
309.371
309.382
309.566
309.878
310.004
310.158
310.267
310.267
310.12
309.916
309.98
309.776
309.686
309.813
310.033
310.308
306.859
306.709
306.622
306.641
306.676
306.673
306.823
307.053
307.146
307.248
307.342
307.327
307.191
307.056
307.139
306.981
306.898
306.981
307.168
307.349
304.107
304.017
303.981
303.996
304
304.009
304.099
304.219
304.284
304.336
304.402
304.392
304.293
304.229
304.305
304.193
304.138
304.182
304.322
304.417
301.377
301.341
301.33
301.337
301.334
301.35
301.375
301.408
301.438
301.446
301.471
301.471
301.436
301.415
301.451
301.411
301.378
301.408
301.45
301.479
321.38
320.821
320.359
320.381
320.558
320.831
321.232
321.715
322.076
322.171
322.427
322.393
322.227
321.893
321.66
321.434
321.379
321.482
321.977
322.599
318.332
317.895
317.504
317.539
317.724
317.944
318.293
318.712
319.01
319.108
319.353
319.315
319.152
318.894
318.684
318.504
318.448
318.508
318.949
319.468
315.375
315.035
314.735
314.736
314.91
315.094
315.397
315.781
315.998
316.109
316.311
316.286
316.14
315.934
315.77
315.62
315.575
315.597
315.989
316.391
312.473
312.227
312.03
311.995
312.146
312.289
312.551
312.869
313.033
313.141
313.299
313.295
313.149
313.011
312.873
312.755
312.708
312.716
313.055
313.353
309.648
309.47
309.342
309.305
309.408
309.52
309.728
309.992
310.099
310.187
310.337
310.332
310.2
310.09
309.994
309.916
309.873
309.856
310.124
310.355
306.862
306.737
306.672
306.628
306.689
306.792
306.944
307.138
307.191
307.274
307.382
307.35
307.276
307.192
307.148
307.088
307.04
307.028
307.226
307.408
304.093
304.031
304.005
303.961
303.999
304.06
304.178
304.293
304.318
304.353
304.443
304.407
304.352
304.309
304.296
304.253
304.22
304.213
304.331
304.436
301.363
301.347
301.34
301.325
301.334
301.367
301.406
301.439
301.442
301.454
301.491
301.47
301.441
301.435
301.444
301.43
301.414
301.409
301.44
301.485
321.42
320.907
320.726
320.593
320.772
321.068
321.421
321.931
322.404
322.618
322.753
322.78
322.697
322.203
321.958
321.662
321.62
321.756
322.156
322.671
318.37
317.965
317.835
317.712
317.881
318.132
318.453
318.915
319.292
319.517
319.613
319.656
319.58
319.14
318.922
318.683
318.63
318.751
319.085
319.493
315.406
315.088
314.999
314.879
315.073
315.241
315.531
315.924
316.252
316.453
316.532
316.573
316.5
316.136
315.929
315.769
315.71
315.8
316.059
316.396
312.501
312.249
312.211
312.115
312.31
312.411
312.646
312.975
313.258
313.407
313.481
313.532
313.447
313.168
313.008
312.862
312.829
312.887
313.063
313.362
309.662
309.478
309.437
309.39
309.565
309.634
309.805
310.067
310.295
310.383
310.461
310.497
310.434
310.211
310.098
310.01
309.992
309.994
310.113
310.343
306.883
306.739
306.716
306.682
306.802
306.878
306.998
307.169
307.351
307.384
307.47
307.465
307.465
307.301
307.211
307.155
307.16
307.133
307.201
307.375
304.126
304.028
304.023
303.996
304.073
304.13
304.187
304.298
304.408
304.427
304.481
304.481
304.49
304.396
304.325
304.286
304.305
304.296
304.313
304.421
301.385
301.34
301.347
301.326
301.357
301.383
301.398
301.44
301.484
301.48
301.505
301.486
301.51
301.465
301.45
301.425
301.444
301.442
301.445
301.485
321.819
321.253
321.029
320.901
321.192
321.51
321.903
322.319
322.773
322.991
323.351
323.296
323.044
322.665
322.538
322.189
322.029
321.938
322.437
322.958
318.714
318.277
318.093
318
318.256
318.519
318.869
319.23
319.612
319.824
320.132
320.081
319.887
319.522
319.446
319.133
318.96
318.912
319.32
319.739
315.679
315.356
315.216
315.138
315.388
315.599
315.889
316.204
316.514
316.713
316.973
316.893
316.766
316.458
316.385
316.14
315.965
315.914
316.26
316.598
312.744
312.489
312.37
312.323
312.569
312.705
312.949
313.196
313.459
313.65
313.853
313.765
313.67
313.426
313.353
313.165
313.02
312.975
313.233
313.507
309.863
309.654
309.575
309.553
309.78
309.843
310.032
310.234
310.433
310.598
310.768
310.679
310.609
310.423
310.342
310.232
310.115
310.059
310.256
310.457
307.018
306.861
306.813
306.818
306.975
307.008
307.178
307.284
307.436
307.564
307.69
307.596
307.59
307.425
307.381
307.3
307.243
307.166
307.315
307.456
304.202
304.115
304.086
304.091
304.177
304.202
304.319
304.368
304.463
304.538
304.62
304.559
304.57
304.443
304.437
304.404
304.356
304.279
304.388
304.471
301.41
301.378
301.365
301.371
301.393
301.4
301.455
301.467
301.497
301.516
301.555
301.532
301.533
301.487
301.501
301.475
301.46
301.431
301.464
301.504
322.293
321.776
321.407
321.433
321.73
321.938
322.36
322.797
323.115
323.538
323.86
323.747
323.587
323.282
322.992
322.64
322.568
322.519
322.885
323.341
319.125
318.712
318.403
318.448
318.716
318.89
319.262
319.622
319.921
320.285
320.596
320.473
320.304
320.058
319.818
319.505
319.424
319.413
319.716
320.095
316.051
315.727
315.463
315.547
315.736
315.903
316.23
316.506
316.776
317.071
317.366
317.249
317.104
316.871
316.705
316.439
316.35
316.341
316.605
316.92
313.04
312.795
312.562
312.696
312.831
312.959
313.241
313.449
313.687
313.933
314.136
314.069
313.946
313.749
313.632
313.424
313.332
313.299
313.513
313.799
310.077
309.897
309.712
309.848
309.962
310.066
310.278
310.432
310.62
310.83
310.952
310.895
310.806
310.67
310.597
310.42
310.358
310.296
310.478
310.706
307.172
307.051
306.91
307.013
307.099
307.18
307.342
307.424
307.545
307.726
307.806
307.769
307.702
307.616
307.582
307.423
307.388
307.347
307.455
307.636
304.281
304.22
304.133
304.211
304.247
304.313
304.408
304.46
304.525
304.646
304.686
304.65
304.625
304.572
304.561
304.47
304.443
304.403
304.457
304.587
301.433
301.406
301.38
301.411
301.424
301.452
301.483
301.492
301.511
301.562
301.577
301.554
301.546
301.535
301.532
301.507
301.492
301.49
301.483
301.544
322.746
322.348
321.959
321.989
322.186
322.381
322.976
323.33
323.826
324.277
324.406
324.307
324.084
323.872
323.528
323.21
323.008
323.105
323.427
323.795
319.519
319.223
318.878
318.937
319.104
319.271
319.816
320.105
320.523
320.924
321.025
320.952
320.753
320.561
320.284
320.004
319.838
319.936
320.19
320.481
316.387
316.17
315.868
315.925
316.072
316.241
316.706
316.938
317.281
317.598
317.706
317.64
317.473
317.296
317.083
316.878
316.726
316.8
317.009
317.231
313.331
313.175
312.91
312.949
313.095
313.237
313.613
313.82
314.085
314.329
314.425
314.371
314.228
314.069
313.915
313.786
313.652
313.717
313.854
314.04
310.319
310.228
310.011
310.03
310.145
310.29
310.56
310.743
310.933
311.091
311.187
311.136
311.04
310.911
310.776
310.685
310.606
310.629
310.742
310.893
307.343
307.298
307.125
307.157
307.217
307.345
307.539
307.671
307.799
307.891
307.981
307.929
307.871
307.775
307.674
307.616
307.57
307.567
307.66
307.758
304.402
304.374
304.278
304.314
304.335
304.403
304.51
304.594
304.682
304.718
304.799
304.782
304.725
304.662
304.594
304.563
304.533
304.543
304.594
304.637
301.469
301.469
301.424
301.444
301.453
301.481
301.503
301.533
301.573
301.567
301.6
301.599
301.592
301.56
301.533
301.52
301.519
301.533
301.536
301.55
323.422
322.9
322.614
322.614
322.741
322.984
323.553
323.893
324.494
324.947
325.033
325.07
324.785
324.519
324.097
323.874
323.698
323.766
323.964
324.446
320.098
319.69
319.445
319.46
319.573
319.804
320.284
320.565
321.106
321.505
321.548
321.611
321.368
321.131
320.79
320.572
320.445
320.494
320.627
321.033
316.883
316.558
316.321
316.375
316.457
316.693
317.083
317.305
317.764
318.117
318.158
318.184
318.005
317.801
317.509
317.324
317.24
317.264
317.34
317.685
313.724
313.482
313.262
313.34
313.414
313.62
313.918
314.125
314.467
314.758
314.788
314.817
314.713
314.514
314.273
314.12
314.089
314.094
314.116
314.418
310.621
310.438
310.253
310.335
310.418
310.574
310.768
310.974
311.23
311.429
311.464
311.51
311.43
311.287
311.054
310.93
310.936
310.939
310.943
311.191
307.556
307.417
307.299
307.36
307.455
307.549
307.647
307.85
307.996
308.138
308.186
308.22
308.163
308.078
307.895
307.775
307.77
307.793
307.803
307.979
304.531
304.43
304.372
304.386
304.476
304.534
304.581
304.694
304.805
304.874
304.912
304.944
304.905
304.872
304.731
304.651
304.647
304.664
304.668
304.78
301.514
301.477
301.463
301.47
301.499
301.523
301.535
301.578
301.598
301.634
301.64
301.663
301.648
301.64
301.582
301.548
301.546
301.567
301.571
301.6
324.069
323.605
323.273
323.24
323.231
323.71
324.173
324.689
325.222
325.607
325.732
325.687
325.504
325.14
324.75
324.608
324.293
324.407
324.604
325.111
320.674
320.287
320.013
320.001
319.978
320.402
320.823
321.252
321.752
322.055
322.181
322.126
321.968
321.65
321.317
321.214
320.956
321.048
321.191
321.607
317.37
317.052
316.826
316.802
316.811
317.181
317.533
317.889
318.364
318.569
318.697
318.637
318.496
318.221
317.935
317.861
317.649
317.738
317.825
318.197
314.131
313.882
313.691
313.669
313.727
313.99
314.309
314.574
314.99
315.141
315.271
315.192
315.064
314.849
314.636
314.558
314.376
314.469
314.523
314.839
310.946
310.748
310.603
310.584
310.676
310.832
311.088
311.289
311.633
311.734
311.869
311.788
311.689
311.518
311.371
311.296
311.146
311.213
311.24
311.531
307.807
307.659
307.564
307.541
307.646
307.707
307.901
308.028
308.29
308.355
308.455
308.39
308.333
308.203
308.111
308.053
307.942
308.008
308.002
308.224
304.675
304.587
304.547
304.504
304.589
304.62
304.73
304.805
304.964
305.021
305.067
305.035
304.993
304.922
304.859
304.83
304.766
304.808
304.804
304.931
301.57
301.534
301.534
301.504
301.54
301.552
301.58
301.593
301.66
301.69
301.703
301.683
301.675
301.649
301.63
301.616
301.6
301.616
301.607
301.646
324.811
324.25
324.031
323.878
323.952
324.37
324.791
325.314
325.813
326.219
326.465
326.443
326.219
325.834
325.493
325.271
325.087
325.201
325.324
325.751
321.302
320.836
320.664
320.535
320.609
320.954
321.328
321.798
322.243
322.612
322.814
322.801
322.575
322.261
321.985
321.762
321.616
321.72
321.791
322.163
317.873
317.519
317.36
317.282
317.343
317.623
317.958
318.351
318.749
319.045
319.236
319.208
318.991
318.752
318.519
318.337
318.211
318.302
318.34
318.651
314.531
314.259
314.145
314.088
314.149
314.335
314.624
314.92
315.295
315.537
315.676
315.678
315.453
315.279
315.099
314.977
314.844
314.938
314.954
315.196
311.257
311.035
310.961
310.918
310.973
311.098
311.341
311.577
311.872
312.068
312.193
312.184
311.995
311.869
311.702
311.618
311.512
311.596
311.595
311.795
308.023
307.865
307.832
307.801
307.835
307.913
308.069
308.251
308.485
308.609
308.691
308.714
308.558
308.475
308.352
308.285
308.209
308.285
308.286
308.43
304.794
304.707
304.702
304.667
304.694
304.741
304.834
304.946
305.093
305.151
305.22
305.242
305.134
305.096
305.013
304.996
304.923
304.98
304.973
305.055
301.601
301.577
301.575
301.554
301.569
301.584
301.616
301.66
301.705
301.727
301.745
301.761
301.723
301.717
301.698
301.69
301.653
301.674
301.671
301.693
325.518
324.97
324.715
324.676
324.724
325.067
325.505
325.974
326.395
326.918
327.167
327.058
326.757
326.53
326.316
325.893
325.81
325.897
326.086
326.567
321.926
321.455
321.256
321.223
321.275
321.576
321.98
322.371
322.74
323.192
323.409
323.32
323.031
322.867
322.667
322.325
322.23
322.327
322.445
322.866
318.43
318.04
317.866
317.848
317.909
318.161
318.508
318.835
319.125
319.534
319.714
319.653
319.383
319.242
319.099
318.823
318.713
318.82
318.868
319.228
314.984
314.673
314.55
314.536
314.585
314.79
315.099
315.354
315.579
315.939
316.078
316.037
315.802
315.685
315.577
315.357
315.244
315.364
315.367
315.641
311.6
311.375
311.273
311.266
311.315
311.466
311.701
311.898
312.09
312.365
312.473
312.449
312.264
312.162
312.09
311.9
311.809
311.926
311.914
312.109
308.256
308.099
307.995
308.02
308.086
308.165
308.345
308.481
308.641
308.817
308.885
308.89
308.75
308.68
308.619
308.478
308.422
308.514
308.494
308.621
304.938
304.84
304.78
304.808
304.86
304.897
305.008
305.088
305.204
305.293
305.334
305.333
305.23
305.204
305.168
305.072
305.056
305.112
305.098
305.176
301.655
301.625
301.596
301.604
301.633
301.636
301.676
301.703
301.751
301.767
301.787
301.79
301.746
301.741
301.737
301.695
301.693
301.705
301.713
301.741
326.281
325.81
325.542
325.374
325.523
325.786
326.195
326.649
327.096
327.402
327.705
327.643
327.439
327.284
327.001
326.626
326.339
326.55
326.856
327.294
322.555
322.195
321.956
321.821
321.947
322.208
322.571
322.958
323.343
323.631
323.89
323.828
323.638
323.529
323.268
322.947
322.672
322.849
323.106
323.508
318.935
318.655
318.444
318.353
318.444
318.696
319.012
319.329
319.649
319.904
320.124
320.056
319.894
319.815
319.582
319.33
319.094
319.223
319.427
319.786
315.408
315.193
315.002
314.938
315.04
315.216
315.504
315.763
316.033
316.232
316.386
316.344
316.217
316.153
315.969
315.777
315.566
315.632
315.809
316.118
311.953
311.776
311.627
311.566
311.672
311.771
311.996
312.217
312.436
312.6
312.7
312.686
312.588
312.541
312.364
312.25
312.085
312.114
312.262
312.51
308.524
308.407
308.286
308.241
308.315
308.377
308.524
308.731
308.87
309.001
309.046
309.059
308.975
308.955
308.824
308.732
308.621
308.64
308.746
308.914
305.116
305.035
304.963
304.927
304.988
305.01
305.109
305.251
305.327
305.375
305.425
305.438
305.376
305.371
305.309
305.233
305.162
305.185
305.249
305.342
301.721
301.691
301.663
301.643
301.669
301.674
301.715
301.761
301.786
301.796
301.823
301.82
301.806
301.791
301.78
301.758
301.731
301.727
301.752
301.783
327.024
326.647
326.304
326.22
326.259
326.506
326.875
327.331
327.684
328.037
328.235
328.24
328.153
327.895
327.699
327.376
327.097
327.37
327.562
327.966
323.216
322.885
322.611
322.548
322.581
322.804
323.121
323.53
323.839
324.161
324.309
324.338
324.254
324.044
323.891
323.577
323.314
323.549
323.704
324.062
319.509
319.253
319.038
318.956
318.976
319.168
319.455
319.818
320.082
320.332
320.47
320.475
320.406
320.256
320.12
319.852
319.635
319.814
319.934
320.23
315.863
315.653
315.509
315.438
315.457
315.602
315.844
316.156
316.374
316.552
316.69
316.675
316.618
316.526
316.403
316.17
315.995
316.146
316.239
316.475
312.277
312.131
312.011
311.932
311.985
312.063
312.286
312.535
312.7
312.818
312.926
312.922
312.875
312.794
312.701
312.543
312.412
312.521
312.589
312.795
308.748
308.638
308.569
308.482
308.558
308.588
308.742
308.936
309.035
309.133
309.21
309.205
309.175
309.114
309.038
308.945
308.851
308.927
308.972
309.113
305.238
305.177
305.148
305.072
305.13
305.143
305.254
305.353
305.422
305.475
305.534
305.53
305.48
305.453
305.416
305.365
305.322
305.361
305.373
305.452
301.757
301.735
301.727
301.703
301.724
301.73
301.751
301.786
301.816
301.83
301.847
301.858
301.83
301.816
301.81
301.798
301.797
301.795
301.809
301.808
327.875
327.357
327.114
326.98
326.986
327.22
327.493
327.947
328.3
328.682
328.885
328.781
328.648
328.416
328.372
328.119
328.061
328.064
328.344
328.616
323.934
323.502
323.298
323.213
323.219
323.407
323.657
324.031
324.362
324.701
324.915
324.781
324.682
324.458
324.436
324.226
324.152
324.15
324.384
324.609
320.111
319.742
319.587
319.533
319.515
319.691
319.907
320.197
320.512
320.788
321.021
320.871
320.787
320.576
320.553
320.408
320.336
320.318
320.498
320.689
316.342
316.061
315.944
315.912
315.887
316.018
316.206
316.46
316.715
316.947
317.163
316.996
316.944
316.778
316.734
316.618
316.56
316.558
316.689
316.842
312.669
312.417
312.359
312.326
312.281
312.409
312.541
312.751
312.984
313.144
313.324
313.173
313.139
313.022
312.983
312.882
312.824
312.851
312.947
313.075
309.021
308.834
308.829
308.776
308.721
308.844
308.915
309.091
309.26
309.358
309.504
309.381
309.351
309.3
309.242
309.173
309.133
309.169
309.229
309.323
305.412
305.299
305.303
305.265
305.223
305.303
305.354
305.467
305.558
305.605
305.695
305.616
305.598
305.588
305.529
305.509
305.465
305.496
305.545
305.596
301.821
301.782
301.773
301.762
301.749
301.789
301.795
301.834
301.862
301.874
301.911
301.884
301.875
301.871
301.86
301.842
301.824
301.842
301.852
301.881
328.731
328.298
327.947
327.822
327.769
327.941
328.206
328.477
328.849
329.165
329.462
329.418
329.299
329.044
328.887
328.818
328.743
328.838
329.066
329.386
324.674
324.313
324.033
323.932
323.891
324.034
324.28
324.504
324.821
325.101
325.393
325.336
325.245
324.997
324.894
324.821
324.749
324.842
325.001
325.26
320.729
320.412
320.204
320.112
320.103
320.231
320.445
320.597
320.879
321.132
321.402
321.319
321.264
321.008
320.964
320.881
320.805
320.902
321.019
321.222
316.871
316.603
316.456
316.373
316.369
316.489
316.654
316.759
317.029
317.219
317.447
317.371
317.34
317.098
317.088
317.017
316.935
317.022
317.122
317.244
313.09
312.833
312.746
312.672
312.654
312.787
312.921
312.992
313.201
313.332
313.535
313.465
313.438
313.234
313.275
313.189
313.121
313.188
313.281
313.357
309.334
309.133
309.081
309.035
309.005
309.124
309.21
309.247
309.411
309.497
309.622
309.594
309.562
309.432
309.481
309.385
309.348
309.398
309.472
309.502
305.615
305.463
305.463
305.424
305.404
305.47
305.543
305.537
305.657
305.706
305.765
305.749
305.717
305.662
305.698
305.628
305.598
305.633
305.673
305.69
301.878
301.828
301.833
301.82
301.807
301.829
301.864
301.864
301.905
301.911
301.931
301.927
301.914
301.897
301.92
301.885
301.869
301.886
301.904
301.903
329.514
329.199
328.829
328.495
328.589
328.763
328.99
329.214
329.437
329.682
329.987
329.927
329.775
329.584
329.509
329.454
329.478
329.525
329.774
330.149
325.359
325.098
324.794
324.51
324.591
324.758
324.939
325.153
325.33
325.55
325.813
325.766
325.642
325.48
325.389
325.35
325.373
325.411
325.61
325.917
321.299
321.09
320.838
320.633
320.692
320.818
320.984
321.181
321.319
321.485
321.73
321.688
321.584
321.462
321.378
321.349
321.334
321.367
321.534
321.787
317.321
317.189
316.985
316.813
316.861
316.948
317.098
317.252
317.356
317.502
317.72
317.658
317.57
317.502
317.412
317.405
317.372
317.403
317.533
317.733
313.421
313.318
313.157
313.028
313.048
313.131
313.256
313.386
313.454
313.571
313.75
313.686
313.599
313.589
313.486
313.518
313.472
313.48
313.583
313.731
309.58
309.488
309.366
309.292
309.298
309.369
309.464
309.554
309.592
309.671
309.835
309.772
309.693
309.689
309.61
309.646
309.606
309.611
309.672
309.786
305.74
305.682
305.615
305.572
305.57
305.604
305.673
305.755
305.749
305.809
305.916
305.865
305.827
305.815
305.766
305.785
305.759
305.772
305.794
305.866
301.927
301.904
301.883
301.869
301.862
301.874
301.905
301.931
301.921
301.944
301.982
301.958
301.959
301.942
301.939
301.94
301.932
301.934
301.945
301.971
330.347
329.851
329.627
329.324
329.337
329.423
329.647
329.868
330.088
330.242
330.385
330.428
330.334
330.283
330.208
330.129
330.171
330.262
330.49
330.937
326.058
325.651
325.469
325.188
325.226
325.327
325.533
325.709
325.899
326.025
326.189
326.197
326.107
326.09
326
325.941
325.985
326.031
326.208
326.596
321.852
321.567
321.399
321.159
321.219
321.33
321.491
321.643
321.786
321.901
322.062
322.024
321.99
321.95
321.849
321.844
321.867
321.895
322.015
322.356
317.759
317.574
317.433
317.219
317.268
317.396
317.495
317.617
317.748
317.838
317.99
317.931
317.922
317.895
317.794
317.819
317.819
317.813
317.919
318.182
313.758
313.627
313.504
313.348
313.38
313.485
313.544
313.659
313.753
313.833
313.926
313.88
313.907
313.896
313.782
313.796
313.822
313.817
313.89
314.091
309.818
309.71
309.615
309.526
309.543
309.619
309.651
309.734
309.808
309.856
309.943
309.884
309.922
309.904
309.804
309.839
309.854
309.861
309.895
310.034
305.892
305.847
305.759
305.72
305.735
305.776
305.789
305.833
305.879
305.912
305.955
305.901
305.954
305.938
305.885
305.893
305.903
305.921
305.944
306.016
301.976
301.956
301.924
301.906
301.92
301.945
301.938
301.966
301.972
301.977
301.992
301.985
301.987
301.991
301.969
301.987
301.974
301.987
301.991
302.017
331.155
330.655
330.355
330.116
330.169
330.198
330.332
330.47
330.708
330.854
330.988
331.107
330.948
330.883
330.831
330.725
330.819
331.093
331.237
331.606
326.763
326.339
326.11
325.897
325.924
325.992
326.117
326.21
326.426
326.57
326.681
326.774
326.666
326.58
326.543
326.437
326.515
326.76
326.862
327.155
322.486
322.136
321.961
321.783
321.795
321.884
321.986
322.039
322.23
322.373
322.452
322.531
322.453
322.372
322.33
322.233
322.298
322.502
322.577
322.821
318.288
318.014
317.858
317.704
317.755
317.828
317.885
317.949
318.089
318.246
318.297
318.348
318.297
318.231
318.189
318.093
318.148
318.32
318.369
318.579
314.167
313.951
313.834
313.712
313.757
313.811
313.858
313.915
314.015
314.135
314.181
314.216
314.19
314.133
314.114
314.009
314.053
314.194
314.231
314.389
310.077
309.956
309.841
309.77
309.781
309.833
309.863
309.905
309.983
310.072
310.107
310.134
310.12
310.097
310.062
309.97
310.027
310.121
310.142
310.239
306.025
305.968
305.904
305.852
305.859
305.887
305.91
305.939
305.988
306.034
306.068
306.076
306.065
306.064
306.031
305.972
306.011
306.084
306.057
306.127
302.016
302.007
301.984
301.959
301.962
301.974
301.975
301.99
302.002
302.024
302.039
302.032
302.031
302.034
302.021
302.003
302.021
302.038
302.032
302.056
331.923
331.558
331.181
330.936
330.865
330.935
331.013
331.109
331.369
331.515
331.626
331.606
331.537
331.411
331.417
331.5
331.588
331.747
331.931
332.339
327.409
327.106
326.799
326.582
326.566
326.618
326.681
326.759
326.978
327.129
327.226
327.19
327.153
327.031
327.022
327.087
327.144
327.303
327.434
327.783
322.996
322.763
322.527
322.315
322.339
322.381
322.423
322.52
322.685
322.824
322.906
322.868
322.846
322.737
322.742
322.776
322.855
322.953
323.05
323.333
318.705
318.518
318.346
318.154
318.206
318.212
318.255
318.344
318.473
318.584
318.667
318.608
318.614
318.503
318.524
318.542
318.606
318.687
318.755
318.968
314.466
314.348
314.239
314.048
314.104
314.11
314.131
314.225
314.292
314.396
314.485
314.421
314.417
314.318
314.376
314.336
314.418
314.502
314.507
314.678
310.307
310.215
310.171
310.003
310.033
310.045
310.054
310.148
310.194
310.239
310.349
310.274
310.242
310.19
310.254
310.187
310.285
310.329
310.338
310.451
306.179
306.105
306.114
306.004
306.014
306.01
306.033
306.086
306.106
306.124
306.212
306.167
306.112
306.103
306.14
306.101
306.18
306.18
306.209
306.27
302.074
302.032
302.057
302.024
302.022
302.005
302.016
302.037
302.046
302.049
302.089
302.059
302.043
302.035
302.04
302.047
302.077
302.067
302.077
302.099
332.57
332.248
331.85
331.615
331.54
331.61
331.69
331.824
331.877
331.937
332.148
332.169
332.151
332.187
332.14
332.182
332.219
332.371
332.666
333.112
327.941
327.691
327.349
327.181
327.117
327.17
327.245
327.374
327.428
327.465
327.647
327.689
327.646
327.69
327.656
327.69
327.702
327.818
328.081
328.447
323.455
323.247
322.945
322.848
322.797
322.827
322.909
323.008
323.068
323.064
323.236
323.289
323.247
323.289
323.259
323.289
323.288
323.381
323.593
323.911
319.081
318.891
318.669
318.587
318.557
318.558
318.659
318.752
318.784
318.765
318.917
318.965
318.931
318.949
318.941
318.944
318.966
319.01
319.184
319.451
314.773
314.614
314.449
314.391
314.382
314.342
314.445
314.531
314.555
314.545
314.653
314.708
314.654
314.689
314.675
314.672
314.698
314.714
314.853
315.057
310.517
310.396
310.283
310.239
310.235
310.22
310.27
310.358
310.36
310.373
310.443
310.471
310.431
310.465
310.456
310.446
310.472
310.476
310.579
310.726
306.308
306.22
306.152
306.116
306.124
306.112
306.149
306.206
306.221
306.232
306.277
306.286
306.274
306.295
306.273
306.256
306.27
306.271
306.334
306.428
302.122
302.085
302.056
302.055
302.054
302.043
302.055
302.082
302.088
302.097
302.102
302.11
302.102
302.116
302.095
302.105
302.097
302.099
302.118
302.151
333.163
332.79
332.396
332.291
332.205
332.067
332.16
332.198
332.285
332.421
332.593
332.676
332.507
332.529
332.602
332.706
332.945
333.056
333.32
333.58
328.439
328.144
327.796
327.701
327.657
327.538
327.63
327.673
327.752
327.85
328.017
328.111
327.951
327.954
328.02
328.1
328.31
328.392
328.625
328.835
323.862
323.632
323.333
323.248
323.224
323.12
323.182
323.277
323.339
323.402
323.561
323.651
323.507
323.478
323.527
323.608
323.782
323.833
324.03
324.215
319.376
319.209
318.966
318.888
318.892
318.79
318.841
318.952
318.997
319.044
319.169
319.254
319.117
319.091
319.12
319.204
319.341
319.392
319.541
319.681
314.978
314.858
314.678
314.612
314.627
314.545
314.606
314.688
314.736
314.742
314.837
314.928
314.801
314.77
314.79
314.858
314.996
315.03
315.133
315.239
310.638
310.59
310.461
310.394
310.406
310.342
310.415
310.448
310.51
310.5
310.562
310.623
310.541
310.514
310.526
310.6
310.699
310.706
310.776
310.846
306.368
306.348
306.27
306.222
306.236
306.189
306.246
306.262
306.29
306.298
306.337
306.361
306.315
306.298
306.29
306.359
306.413
306.384
306.458
306.492
302.127
302.128
302.096
302.082
302.081
302.077
302.1
302.104
302.112
302.114
302.126
302.132
302.114
302.112
302.101
302.128
302.146
302.135
302.171
302.165
)
;

boundaryField
{
    hotSide
    {
        type            fixedGradient;
        gradient        nonuniform List<scalar> 
400
(
251.423
251.58
253.308
256.567
261.21
267.019
273.762
281.226
289.236
297.652
306.373
315.324
324.453
333.728
343.134
352.666
362.33
372.137
382.094
392.206
240.946
241.205
243.142
246.712
251.733
257.95
265.096
272.937
281.282
289.99
298.954
308.102
317.385
326.778
336.267
345.856
355.558
365.39
375.367
385.498
234.698
235.2
237.361
241.131
246.332
252.709
259.997
267.961
276.409
285.195
294.214
303.392
312.682
322.059
331.514
341.055
350.696
360.459
370.362
380.416
232.427
233.302
235.708
239.594
244.806
251.13
258.33
266.19
274.526
283.195
292.089
301.133
310.281
319.509
328.81
338.192
347.671
357.268
367.003
376.887
233.103
234.426
237.112
241.111
246.296
252.493
259.507
267.148
275.247
283.668
292.304
301.084
309.963
318.919
327.948
337.061
346.275
355.612
365.089
374.722
235.561
237.358
240.37
244.54
249.76
255.882
262.74
270.166
278.005
286.129
294.439
302.869
311.381
319.962
328.617
337.362
346.219
355.211
364.358
373.676
238.851
241.122
244.5
248.922
254.281
260.442
267.248
274.541
282.171
290.015
297.982
306.017
314.099
322.231
330.432
338.732
347.162
355.749
364.518
373.484
242.259
244.982
248.749
253.488
259.089
265.413
272.298
279.574
287.086
294.706
302.35
309.98
317.599
325.237
332.94
340.754
348.724
356.884
365.26
373.87
245.235
248.355
252.496
257.579
263.488
270.071
277.148
284.527
292.023
299.495
306.861
314.105
321.267
328.414
335.623
342.965
350.495
358.255
366.273
374.563
247.35
250.765
255.205
260.591
266.8
273.669
280.994
288.548
296.113
303.517
310.678
317.608
324.385
331.12
337.923
344.884
352.067
359.519
367.264
375.317
248.307
251.859
256.458
262.022
268.427
275.5
283.02
290.735
298.396
305.807
312.884
319.654
326.227
332.744
339.333
346.095
353.101
360.398
368.01
375.948
247.978
251.479
256.049
261.61
268.032
275.14
282.71
290.485
298.212
305.698
312.851
319.697
326.342
332.922
339.567
346.377
353.424
360.757
368.402
376.371
246.456
249.716
254.078
259.461
265.734
272.723
280.208
287.952
295.725
303.348
310.731
317.873
324.847
331.758
338.712
345.803
353.099
360.65
368.487
376.625
244.06
246.93
250.956
256.058
262.104
268.919
276.295
284.011
291.864
299.692
307.399
314.96
322.404
329.796
337.215
344.733
352.417
360.313
368.459
376.873
241.336
243.719
247.35
252.153
257.993
264.685
272.02
279.786
287.79
295.877
303.947
311.952
319.889
327.79
335.708
343.698
351.818
360.115
368.625
377.372
239.063
240.914
244.147
248.693
254.4
261.064
268.457
276.356
284.565
292.932
301.349
309.755
318.13
326.483
334.849
343.272
351.8
360.482
369.354
378.442
238.288
239.612
242.477
246.816
252.455
259.151
266.645
274.695
283.099
291.702
300.394
309.109
317.817
326.516
335.23
343.993
352.854
361.857
371.041
380.432
240.287
241.153
243.687
247.824
253.366
260.038
267.552
275.655
284.139
292.853
301.686
310.573
319.478
328.392
337.331
346.326
355.419
364.654
374.073
383.696
246.195
246.741
248.973
252.833
258.123
264.57
271.888
279.827
288.187
296.818
305.614
314.505
323.454
332.445
341.487
350.603
359.828
369.202
378.761
388.522
256.345
256.725
258.68
262.163
267.012
272.993
279.862
287.392
295.398
303.738
312.307
321.034
329.875
338.809
347.835
356.966
366.226
375.645
385.246
395.042
)
;
    }
    coldSide
    {
        type            mixed;
        refValue        uniform 300;
        refGradient     uniform 0;
        valueFraction   uniform 0.991591;
        source          uniform 0;
        value           nonuniform List<scalar> 
400
(
300.012
300.011
300.012
300.012
300.012
300.012
300.013
300.013
300.013
300.014
300.014
300.015
300.015
300.016
300.016
300.017
300.017
300.017
300.018
300.018
300.011
300.011
300.011
300.012
300.012
300.012
300.012
300.013
300.013
300.014
300.014
300.015
300.015
300.015
300.016
300.016
300.017
300.017
300.018
300.018
300.011
300.011