/*--------------------------------*- C++ -*----------------------------------*\
| =========                 |                                                 |
| \\      /  F ield         | OpenFOAM: The Open Source CFD Toolbox           |
|  \\    /   O peration     | Version:  2212                                  |
|   \\  /    A nd           | Website:  www.openfoam.com                      |
|    \\/     M anipulation  |                                                 |
\*---------------------------------------------------------------------------*/
FoamFile
{
    version     2.0;
    format      ascii;
    arch        "LSB;label=32;scalar=64";
    class       volScalarField;
    location    "0";
    object      relativeErrorField;
}
// * * * * * * * * * * * * * * * * * * * * * * * * * * * * * * * * * * * * * //

dimensions      [0 0 0 1 0 0 0];

internalField   nonuniform List<scalar> 
3200
(
0.00450264
0.00502792
0.00565502
0.00726475
0.00909391
0.0111249
0.0134039
0.0152534
0.0170016
0.0178249
0.0182042
0.0173636
0.0161554
0.0146056
0.0130376
0.0112363
0.00988404
0.00847448
0.00808654
0.00763848
0.00388968
0.00432221
0.00493179
0.00602764
0.00758073
0.00954904
0.0114716
0.013154
0.0145658
0.0154961
0.015671
0.0151787
0.0141698
0.0127931
0.0110151
0.00953082
0.00837227
0.00725783
0.00666229
0.00642071
0.00314672
0.00340787
0.00399695
0.0051967
0.0063043
0.00804044
0.00982457
0.0113245
0.0125028
0.013245
0.0133333
0.0127735
0.011929
0.0109604
0.00926983
0.00810456
0.00700034
0.00618981
0.00564937
0.00557175
0.00245139
0.002751
0.00324398
0.00401988
0.00528112
0.00661656
0.00802217
0.00913052
0.0100781
0.0107644
0.0108991
0.0106993
0.0100564
0.00884342
0.00762903
0.00640656
0.00561299
0.00504731
0.00453992
0.00428993
0.00179019
0.00192628
0.0025327
0.00320082
0.0041846
0.00531606
0.00630585
0.0074124
0.00802486
0.00858658
0.0084929
0.00801351
0.00775299
0.00682463
0.00624471
0.00497282
0.00444839
0.0038159
0.00347283
0.00338884
0.00141604
0.00149066
0.00177241
0.00228751
0.002788
0.00382126
0.00447591
0.00526371
0.00564409
0.00596604
0.00621147
0.00597497
0.00570191
0.00513053
0.00430525
0.00358497
0.0031
0.00265438
0.00256706
0.00233937
0.0010345
0.000869942
0.000905482
0.00139683
0.00181666
0.00233377
0.00266764
0.00302456
0.00362955
0.00388302
0.00379285
0.00353528
0.00347167
0.00330092
0.00265544
0.00219793
0.00186459
0.00154768
0.00131153
0.00162329
0.000134999
0.000374621
0.000209208
0.000472065
0.000591458
0.000957274
0.00113185
0.00099346
0.00126502
0.00139519
0.00120939
0.0014375
0.00116339
0.000904672
0.000976144
0.000929141
0.000594792
0.000454442
0.000346657
0.000499379
0.00269267
0.00273856
0.00382566
0.0050478
0.0067169
0.00894005
0.0109001
0.0128424
0.0144738
0.0153684
0.015416
0.0149709
0.0138624
0.0124024
0.0105505
0.00894743
0.00749727
0.00635482
0.0058908
0.00565775
0.00225365
0.00252409
0.00310999
0.00447105
0.00600919
0.00777201
0.00959597
0.0112648
0.0127059
0.0133769
0.0135578
0.0129785
0.0120291
0.0107715
0.00924264
0.00793101
0.00639028
0.00555191
0.00495632
0.00486485
0.00193006
0.00225808
0.00273335
0.00391474
0.00479837
0.00654861
0.00797707
0.00960797
0.010693
0.0114634
0.0114725
0.0110628
0.0105023
0.00927435
0.00795197
0.00657689
0.00562033
0.00461766
0.0041931
0.00418979
0.00159372
0.00143071
0.0021367
0.00300401
0.00401085
0.00540096
0.0066508
0.00791188
0.008864
0.00938449
0.00935591
0.0092685
0.00847124
0.00752489
0.00652093
0.00538213
0.00451225
0.00376733
0.00335419
0.0033382
0.00108882
0.00116338
0.00169435
0.00238007
0.00336403
0.00408605
0.00537438
0.00612109
0.00698367
0.00734935
0.00752305
0.00712357
0.0066443
0.00593784
0.00505456
0.0041271
0.00370227
0.00306732
0.00262685
0.0023538
0.000800355
0.00101492
0.00107456
0.00181116
0.00234524
0.00320285
0.00365499
0.00441211
0.00479143
0.00536531
0.00564525
0.00500124
0.00503967
0.0040587
0.00371037
0.00305964
0.00263538
0.00213225
0.00188724
0.00177539
0.000396378
0.000231254
0.000614634
0.00101976
0.00137286
0.00197385
0.00235018
0.00271449
0.00295493
0.00312346
0.00349888
0.00316417
0.00309667
0.00238296
0.00220617
0.00196489
0.00134777
0.001307
0.00117686
0.00130635
0.000173748
4.41886e-05
0.000409833
0.000512572
0.000550264
0.000723929
0.000789333
0.00101766
0.00106019
0.00124834
0.00126142
0.00113528
0.00095847
0.000901189
0.000532898
0.000653833
0.000683229
0.000520915
0.000669634
0.00036388
0.000458184
0.000537175
0.00121975
0.00245329
0.00404221
0.00594995
0.00821729
0.00970585
0.0112841
0.0119557
0.0123213
0.0118061
0.0107608
0.0093288
0.00780585
0.00613889
0.00469597
0.00392673
0.00355078
0.00339587
0.000146487
0.000339001
0.00110678
0.00207052
0.0034463
0.00524797
0.00688749
0.00869614
0.00975886
0.0102799
0.0106624
0.0103447
0.00936802
0.00836792
0.00672981
0.00524958
0.00389349
0.00348707
0.00310604
0.00300041
0.00014005
0.000319282
0.000674988
0.00180093
0.00284594
0.00424544
0.00573732
0.00729586
0.00819878
0.00895032
0.00920258
0.00876608
0.00802139
0.00684319
0.0056721
0.00465477
0.0035311
0.00285075
0.00248659
0.00248833
0.000258972
0.000319935
0.000595211
0.00149811
0.00253799
0.00351256
0.0046976
0.0060678
0.00695621
0.00759382
0.00760523
0.00725061
0.00650915
0.00569983
0.00472224
0.00382527
0.00283589
0.00222595
0.00208922
0.00186478
1.17814e-05
0.000127325
0.000303941
0.0007938
0.00207808
0.00247939
0.00357097
0.00487343
0.005377
0.00583959
0.0058221
0.00551159
0.00519739
0.00443161
0.0036279
0.00275701
0.00230115
0.00191189
0.00135351
0.00164935
4.36741e-05
5.3725e-05
0.000362812
0.000734666
0.00151508
0.00223765
0.00275095
0.00340882
0.00401127
0.00420723
0.00450313
0.00431036
0.00373408
0.00299884
0.00268682
0.00197139
0.00172668
0.00129641
0.00120608
0.00120502
2.27705e-05
3.69518e-05
0.000207504
0.00044565
0.000888042
0.00110516
0.00168816
0.00212619
0.00254542
0.00258272
0.0024392
0.00258058
0.00242055
0.00198787
0.00190605
0.00108261
0.000962473
0.000963027
0.000595257
0.000616578
9.44586e-05
0.000196551
0.000230627
0.000283442
0.000388501
0.000410168
0.0004956
0.000608934
0.000836821
0.000998494
0.000983531
0.000900736
0.00075404
0.000604097
0.000596337
0.000290533
0.000327441
2.48789e-05
0.000135405
0.000332478
0.00174635
0.00187511
0.00122133
0.000292768
0.00107857
0.0030082
0.00466378
0.00634038
0.00778949
0.00866753
0.00901336
0.00865681
0.00772347
0.00638228
0.00465348
0.00340338
0.00214893
0.00140645
0.00141967
0.00147216
0.00191415
0.00168025
0.00110296
0.00013437
0.00107711
0.00248126
0.00412751
0.0058611
0.00689761
0.00776838
0.00780931
0.00738374
0.00651059
0.00536335
0.00397525
0.00300628
0.00200313
0.00135008
0.0012128
0.00110417
0.00133991
0.00137258
0.00108757
0.000424983
0.000642489
0.00226819
0.00339427
0.00484386
0.00585187
0.00646861
0.00660404
0.00626159
0.00575215
0.00464912
0.00354331
0.00235463
0.0014889
0.000952716
0.000635644
0.000862598
0.00137214
0.00122678
0.000878093
0.000344514
0.000433165
0.00201152
0.00286352
0.00406111
0.00489423
0.00531123
0.00555848
0.00516241
0.00456169
0.00360618
0.00298149
0.00187599
0.00121417
0.000754194
0.000464422
0.000711317
0.000930217
0.000917217
0.000569255
1.90111e-05
0.000542949
0.00135429
0.00221731
0.00298226
0.0037987
0.00405938
0.00427474
0.00401484
0.0035955
0.00312185
0.00229568
0.00154099
0.00107378
0.000580303
0.000471224
0.000519416
0.000610985
0.000687251
0.000499025
0.0001385
0.000207401
0.000877748
0.00176327
0.0023341
0.00260999
0.00299217
0.003251
0.00324289
0.00277785
0.00204401
0.00155905
0.00116621
0.000583046
0.000438994
0.000407736
0.000357515
0.000650667
0.000468241
0.000425621
0.000114133
6.61951e-05
0.000700869
0.00115959
0.00124635
0.00171899
0.00180778
0.00194528
0.00164999
0.00169603
0.0013761
0.000959395
0.000494301
0.000342511
0.000166526
1.01398e-06
4.79457e-05
4.58906e-05
0.000280493
0.000140553
0.000125886
9.93539e-05
0.000299058
0.000307545
0.000419642
0.000518592
0.000670381
0.000764324
0.000718206
0.000646852
0.000545657
0.000443663
0.000243405
4.88604e-05
7.59402e-05
5.18674e-05
5.4339e-05
0.00371083
0.00382057
0.0032566
0.00252562
0.00128017
8.64904e-05
0.00179847
0.00365323
0.00468648
0.00554677
0.00579481
0.00515234
0.00434532
0.0033447
0.00209949
0.000696109
3.71376e-05
0.000661035
0.000802487
0.000557548
0.00325654
0.00342123
0.00321891
0.00242407
0.00110855
0.000174039
0.00179202
0.0029011
0.00390874
0.00473542
0.00458939
0.00456956
0.00422445
0.00270703
0.00153952
0.00070626
3.9528e-05
0.000662024
0.000812985
0.000816136
0.00296385
0.00287673
0.00275538
0.00222163
0.00105409
8.28928e-05
0.00140637
0.00236415
0.00335285
0.00396589
0.00398059
0.00387074
0.0034288
0.00239904
0.00132196
0.000575046
0.000294221
0.000638035
0.000716531
0.000764264
0.00242248
0.00255071
0.0024274
0.00172517
0.000692951
1.5187e-05
0.00113735
0.00221346
0.00298047
0.00325648
0.00337233
0.0034023
0.00267795
0.00205082
0.00113726
0.000304744
0.000114698
0.000629203
0.000495941
0.00068589
0.00210226
0.00191717
0.0018977
0.0014152
0.00079199
4.18228e-05
0.000695869
0.00163568
0.00219805
0.00260862
0.002732
0.00262909
0.00210533
0.0015331
0.000816182
0.000284018
0.000240848
0.000549751
0.000788003
0.000585756
0.00149317
0.00144459
0.00118141
0.00105285
0.000510119
7.95615e-06
0.000591583
0.00124794
0.00161597
0.00188841
0.00176635
0.00162121
0.0014381
0.00115432
0.000604892
0.00031881
0.000103093
0.000501438
0.000451418
0.00050595
0.000902095
0.00101275
0.00069577
0.000491105
0.000100193
0.000137591
0.000451013
0.000716847
0.00105313
0.00102324
0.00108955
0.00101495
0.000778092
0.000838718
0.000162456
2.82243e-05
9.91167e-07
0.000129788
0.000470112
0.000310313
0.000353079
0.000348811
0.000248232
0.000197252
9.44428e-05
3.61174e-05
2.12599e-05
7.41054e-05
0.000204808
0.000438801
0.000539487
0.00051863
0.000489974
0.000157906
2.1066e-05
6.39472e-05
9.09699e-05
0.000271487
4.71111e-05
9.36042e-05
0.00521771
0.00526705
0.0051864
0.00474493
0.00354937
0.00211678
0.000744812
0.000651635
0.00194788
0.00260059
0.00245988
0.0025854
0.00151152
0.000675106
0.000478669
0.00135309
0.00229863
0.00238571
0.00226176
0.00182624
0.00468493
0.00482388
0.00464447
0.00395623
0.00319308
0.00200217
0.000818201
0.000275408
0.00167337
0.00223825
0.00233737
0.00220332
0.00138402
0.000499283
0.000272408
0.00133382
0.00186806
0.00220274
0.00223037
0.00185157
0.00407133
0.00405312
0.00396053
0.00350164
0.00267481
0.00164024
0.000727374
0.000334527
0.00112001
0.00177398
0.00171499
0.00161334
0.00121977
0.00044388
0.000492418
0.001009
0.00178114
0.00190982
0.00181908
0.00152844
0.00346081
0.00339262
0.00350356
0.00295704
0.00225839
0.00149387
0.000597341
0.000284047
0.000901633
0.00132889
0.00145278
0.00125698
0.000770019
0.000580138
0.000529333
0.0012089
0.00125822
0.00162598
0.00163034
0.0015961
0.00268871
0.00274597
0.00256161
0.00269722
0.00159983
0.00119731
0.00059199
0.000419799
0.000679942
0.00115937
0.00129885
0.00121105
0.000585168
0.000179954
0.00025046
0.00079179
0.00133195
0.00126501
0.00147315
0.00110961
0.00188205
0.00183997
0.0017677
0.00189544
0.00147456
0.000933225
0.000364292
0.000119994
0.000394592
0.000913757
0.000758619
0.000488212
0.000315313
5.56981e-05
0.000371902
0.000522848
0.00115414
0.000895917
0.000900453
0.000980037
0.00105852
0.00112722
0.00128652
0.00124129
0.000608932
0.000724492
0.000315375
0.000107312
0.000190922
0.000429484
0.000575026
0.000446845
0.000262
0.00020099
8.06578e-05
0.000474497
0.000614932
0.000573534
0.000367019
0.000500942
0.000483086
0.000604595
0.000339193
0.000487042
0.000202691
0.000200844
0.000171205
0.000172242
1.84217e-05
9.80654e-05
8.96002e-05
7.05562e-05
9.0159e-05
9.22223e-05
0.000188418
0.00016528
0.000170759
0.0001629
0.000458284
0.000310403
0.00597248
0.00620042
0.00632274
0.00614369
0.00532843
0.00422277
0.00278653
0.00172769
0.000762134
0.000171123
0.000279804
0.000240694
0.000742947
0.00148009
0.00231959
0.00313793
0.00353849
0.00371866
0.00336565
0.00276978
0.0052663
0.00572415
0.00580518
0.00548135
0.00477239
0.00392141
0.00271943
0.00167804
0.000855988
0.000120654
0.000172136
0.00026006
0.000761839
0.00139046
0.00214529
0.00279807
0.0034304
0.00330208
0.00295715
0.00237405
0.00465002
0.00509552
0.00498559
0.00461699
0.00410853
0.00328774
0.00233094
0.00156703
0.000743175
5.56373e-06
0.000292112
0.000171122
0.00070664
0.00129778
0.00179046
0.00242144
0.00286123
0.00297879
0.00280146
0.00230005
0.00375918
0.00399264
0.00437358
0.00404282
0.00350397
0.00290203
0.00189236
0.00136974
0.00076045
9.08951e-05
1.2854e-05
0.000389601
0.000665658
0.00111784
0.00157402
0.00232781
0.00238136
0.00256908
0.00223679
0.0019944
0.00328677
0.00324177
0.00328207
0.00326687
0.00263577
0.00231004
0.0016055
0.00101294
0.000605741
0.000186452
2.35729e-05
0.000230337
0.000673976
0.00101997
0.00132772
0.00170475
0.00201125
0.00192044
0.00194661
0.00149066
0.002101
0.00262632
0.0024409
0.00213413
0.00199197
0.00170317
0.00100093
0.00103573
0.000296217
9.92303e-05
0.000140133
0.000112602
0.000471146
0.000510948
0.00106936
0.00135003
0.0013666
0.00151138
0.00143584
0.00113767
0.00130762
0.00157321
0.00149552
0.00133944
0.00128792
0.000983287
0.000946365
0.000418988
0.00044352
0.000227975
8.65024e-05
6.43337e-05
0.000311037
0.000301199
0.00067502
0.00080454
0.00122139
0.00105408
0.000922533
0.000666735
0.000448176
0.000470656
0.000676213
0.000596697
0.000487188
0.000348236
0.000248536
0.000211902
0.000135362
0.000113824
0.000142467
4.46976e-05
0.000129529
2.91328e-05
0.00047904
0.000351073
0.000312613
0.000362714
0.000467965
2.99374e-05
0.00655534
0.00734037
0.00731061
0.007235
0.00635669
0.00565766
0.00473342
0.00389631
0.00273091
0.0023123
0.00187724
0.00217995
0.00262906
0.00322658
0.00399472
0.00431596
0.00450972
0.0045705
0.00405905
0.00308474
0.00563932
0.00602215
0.00644193
0.00629282
0.0057461
0.00508231
0.00414963
0.00338502
0.00256184
0.00203918
0.00169824
0.0018732
0.00239466
0.00300761
0.00363871
0.00396976
0.00405801
0.00378647
0.00372434
0.00306041
0.00472306
0.00516157
0.00540765
0.00567229
0.00483779
0.00444232
0.00377962
0.00307199
0.00230039
0.00186949
0.00165704
0.00203555
0.00211734
0.00271013
0.00303989
0.0033743
0.00356324
0.00338258
0.00320183
0.00284194
0.00418599
0.00464567
0.00469159
0.00470139
0.00430364
0.00368927
0.00309278
0.00224563
0.00200647
0.001436
0.00153196
0.00162117
0.00196458
0.00216671
0.00258445
0.00293976
0.00320995
0.00293144
0.00258706
0.00213068
0.00332983
0.00352432
0.00385832
0.00372225
0.00327783
0.00293817
0.00234789
0.00194011
0.00139358
0.00145099
0.00133593
0.00135007
0.00154987
0.00165204
0.0021536
0.00224848
0.0024372
0.00245796
0.00208576
0.00163342
0.00269399
0.00242881
0.00283538
0.00259389
0.00255924
0.00212959
0.00193333
0.00148454
0.00113482
0.000935556
0.000918488
0.00099208
0.00129025
0.00131032
0.00143013
0.00186558
0.0016248
0.00176808
0.00171749
0.00160651
0.00167493
0.00153976
0.00151032
0.00171606
0.00152611
0.00134151
0.00118809
0.000870705
0.000506112
0.000574164
0.000407463
0.000633544
0.000567171
0.000645023
0.000996619
0.00111231
0.00124798
0.00117556
0.000722156
0.000649576
0.000512116
0.000640999
0.000653265
0.000689686
0.000566555
0.000344303
0.000550903
0.000485208
0.00036065
6.39065e-05
0.000276463
0.000111703
0.000194596
0.000227823
0.000195032
0.000331119
0.000380891
0.000289704
0.000439249
0.000154243
0.00631568
0.00703992
0.00764878
0.00790526
0.00737693
0.00665242
0.00601187
0.00492917
0.00445975
0.00399644
0.0036468
0.00361668
0.00421583
0.00452811
0.00497893
0.00496591
0.00505232
0.00458558
0.00419
0.00284386
0.00561054
0.00620397
0.00655872
0.00679675
0.00655631
0.00591054
0.00534376
0.00442857
0.00403755
0.00355481
0.0032641
0.00342259
0.00362256
0.00411502
0.00440514
0.00467705
0.00462235
0.00414435
0.00361552
0.00279526
0.00500359
0.00508002
0.00575105
0.00586071
0.00567335
0.00510794
0.00466111
0.00390323
0.00362058
0.00318706
0.0031465
0.00289886
0.00336737
0.00364219
0.0037609
0.00411225
0.00395813
0.00378169
0.0031981
0.00235814
0.00412146
0.00460271
0.00473525
0.00482928
0.0046861
0.00430734
0.00398576
0.00320232
0.0029656
0.00252578
0.00236342
0.00247937
0.00275553
0.00292135
0.00324917
0.00332797
0.00358605
0.00328757
0.00264622
0.002068
0.0033565
0.00352533
0.00381326
0.00391184
0.00373725
0.0034693
0.00297974
0.00265132
0.00249176
0.00201958
0.00225672
0.002151
0.0021208
0.00256167
0.00248885
0.00284953
0.00263203
0.00265822
0.00218432
0.00171619
0.00251203
0.00283956
0.00284089
0.00295195
0.00287882
0.00233721
0.00232902
0.00198316
0.00189121
0.00143234
0.00146042
0.00133987
0.00156664
0.00184881
0.00169002
0.00190356
0.00183632
0.00182572
0.00160394
0.00120482
0.00134851
0.00169347
0.0017421
0.0016898
0.00179876
0.00132598
0.00129665
0.00118549
0.00101358
0.000843422
0.00074633
0.000893309
0.00115236
0.000964726
0.00121148
0.00125453
0.00129482
0.00109328
0.000977728
0.000815416
0.00058638
0.000798567
0.000675225
0.000579487
0.00059261
0.000497119
0.000490669
0.000632046
0.000246932
0.000226257
0.000314146
0.000440459
0.000492219
0.000343661
0.000456309
0.000550125
0.0005494
0.000457613
0.000357598
0.000413767
0.00541173
0.00639074
0.00694422
0.00743916
0.00740672
0.00702559
0.00640968
0.00602447
0.00521997
0.00488215
0.00471241
0.00457023
0.00477423
0.00512543
0.00532991
0.00520276
0.00499425
0.00429534
0.00346925
0.00228352
0.00493165
0.0056962
0.00631252
0.00677078
0.00675307
0.0062083
0.00583212
0.00507549
0.0046565
0.00450325
0.00409637
0.00416707
0.00440735
0.00470446
0.00478742
0.00472096
0.00447497
0.00405897
0.00303693
0.00205324
0.00430873
0.00499153
0.00560021
0.00570377
0.00580657
0.00551144
0.00489435
0.00466973
0.00394472
0.00388641
0.00369185
0.0040022
0.00373103
0.00403477
0.00424368
0.00411588
0.00376045
0.00329056
0.00276972
0.00193351
0.00360888
0.00423141
0.00483421
0.00488845
0.00468599
0.00453343
0.00451016
0.00410997
0.00354673
0.00325799
0.00323909
0.00304375
0.00331819
0.0033655
0.00355492
0.00340485
0.00342237
0.00292712
0.00239147
0.00162969
0.00294876
0.0033815
0.00357206
0.00397066
0.00376999
0.00374421
0.00349235
0.00317046
0.00288372
0.00264332
0.00252827
0.00242083
0.00275923
0.00253628
0.00289655
0.00284465
0.00277969
0.00222001
0.00197707
0.00149066
0.00202341
0.00262802
0.00278703
0.0028397
0.00261896
0.00253755
0.00262833
0.00215285
0.00209192
0.00198607
0.00206766
0.00202274
0.00182521
0.00200037
0.00203367
0.00199363
0.00226105
0.00171977
0.00146604
0.000803767
0.00129817
0.00141492
0.00164208
0.00171578
0.00189288
0.00150278
0.00148212
0.00116066
0.0011087
0.0012161
0.00144856
0.00125288
0.00136261
0.00131946
0.00136005
0.00122109
0.00115625
0.000849237
0.00102055
0.00064667
0.000575125
0.000540137
0.000544415
0.000652453
0.000607963
0.000563709
0.000405933
0.000621057
0.000701631
0.000353948
0.000217599
0.00052199
0.000321289
0.000382025
0.000544657
0.000346314
0.000385823
0.000263683
0.000401918
0.000472286
0.00390015
0.0048982
0.0062408
0.00681231
0.0069127
0.00699727
0.0064036
0.00599088
0.00567554
0.00516987
0.00499027
0.00505754
0.00494053
0.00510177
0.00500872
0.00490374
0.00427103
0.00340278
0.00223137
0.000678385
0.0038574
0.00464883
0.00560876
0.00594935
0.00625085
0.00594204
0.0058288
0.00561425
0.00508489
0.0045446
0.00446402
0.0044497
0.0047198
0.00441942
0.00453231
0.00437382
0.00381779
0.00319608
0.00200217
0.000931732
0.00314349
0.00417987
0.00483378
0.00525528
0.00528924
0.00502835
0.00495935
0.00467528
0.00434024
0.00420229
0.00423728
0.00410174
0.00387056
0.00397023
0.00391488
0.00367092
0.00340318
0.0029134
0.00165689
0.0010447
0.00266554
0.00341834
0.00401312
0.00421499
0.00448377
0.00434829
0.00424029
0.00404667
0.00384354
0.00361265
0.00348877
0.00311212
0.00345917
0.00349882
0.00344114
0.00307784
0.0028682
0.00242762
0.00140105
0.000771288
0.00221462
0.00276971
0.00332825
0.00349001
0.00350987
0.00363551
0.00360844
0.0031646
0.00298123
0.00295356
0.00245191
0.00263417
0.00275242
0.00257983
0.00278733
0.002671
0.00228405
0.00200373
0.00117009
0.000617543
0.00166828
0.00193113
0.00220963
0.00261565
0.00263234
0.00265835
0.00234298
0.0025357
0.00216603
0.00210938
0.00218216
0.00208931
0.00212897
0.00207159
0.00186751
0.00200493
0.00168105
0.00136457
0.000744068
0.00041372
0.000926196
0.00108761
0.0014394
0.00143028
0.00160633
0.00150253
0.00159231
0.00152758
0.00142076
0.00131351
0.00125794
0.00131152
0.00118509
0.00117012
0.00119718
0.00125681
0.00092401
0.000791509
0.000630332
0.000286154
0.000250789
0.00052207
0.000536221
0.000602042
0.000580949
0.00058882
0.000685018
0.000516894
0.000352897
0.00037404
0.000484574
0.000399497
0.000395907
0.000556256
0.000397385
0.000325873
0.000108216
0.000338174
0.00032599
5.93e-05
0.00202694
0.00347168
0.00452041
0.00536034
0.00573482
0.00575172
0.00583315
0.00543211
0.00520351
0.00523293
0.00467178
0.00466635
0.0045049
0.00443308
0.00418253
0.00369669
0.00287814
0.0018439
0.000443475
0.00117533
0.00181356
0.00303579
0.00390967
0.00475889
0.00516264
0.00538692
0.00527687
0.00506687
0.00485836
0.00446873
0.00433811
0.00412388
0.00407445
0.00407744
0.00375374
0.00342849
0.00250347
0.00165647
0.000574261
0.000823755
0.00179837
0.00254483
0.00346693
0.00416887
0.00428765
0.0047949
0.00461031
0.00432407
0.00417943
0.00392998
0.00398546
0.00366329
0.00374884
0.00360129
0.00333628
0.00275438
0.00243638
0.0014367
0.000353505
0.000542356
0.00153814
0.00231702
0.00302401
0.00345049
0.00374246
0.00370894
0.00397391
0.00368432
0.00353807
0.00316925
0.00314219
0.00314627
0.00311988
0.002866
0.00283319
0.00248305
0.00210197
0.00151652
0.000510393
0.00055891
0.00118025
0.00181717
0.00242453
0.00269219
0.00300964
0.00302192
0.00297621
0.00287879
0.00294611
0.00263208
0.00241794
0.00245284
0.00260158
0.00245377
0.00239936
0.00199086
0.00157202
0.00124155
0.000299676
0.000277847
0.00092192
0.00107975
0.00178207
0.00196205
0.00217214
0.00220549
0.00239993
0.00226517
0.00213888
0.00211153
0.00210721
0.0019966
0.00166621
0.00190597
0.00160964
0.00156418
0.00135168
0.000916851
0.000468759
0.000266554
0.000655541
0.000766673
0.0011669
0.00129128
0.00132628
0.00138625
0.00132211
0.00158256
0.00123892
0.00136407
0.0013207
0.00131462
0.00110258
0.0011879
0.00101474
0.000890737
0.000790323
0.000436615
5.79645e-05
1.6836e-05
4.71625e-05
0.000314044
0.000432936
0.000509517
0.00032899
0.000482591
0.000516531
0.000601127
0.000470989
0.000360558
0.000313183
0.000189248
0.000468523
0.000442381
0.000526523
0.000254179
0.000455363
0.000381409
0.00012345
4.62934e-05
0.000807075
0.000908298
0.00221291
0.00318198
0.00402371
0.00413978
0.00435469
0.00414071
0.0041861
0.00406358
0.0036882
0.00360295
0.00336021
0.00313624
0.00266093
0.00198391
0.000870986
0.000167956
0.00198818
0.0036498
0.000432512
0.000721711
0.00195959
0.00305003
0.00339469
0.00392354
0.00386602
0.00370592
0.00392443
0.00353738
0.00332741
0.00344552
0.00281392
0.0027739
0.00244263
0.00175941
0.00111858
0.000315215
0.00167464
0.00297079
0.000303459
0.000655427
0.00155577
0.00255413
0.00328988
0.00338309
0.00355978
0.00321452
0.00314071
0.00306617
0.00300989
0.00302008
0.00271698
0.00244027
0.00219167
0.0015862
0.000787933
3.94198e-06
0.00138886
0.00243194
0.00017919
0.000686352
0.00159058
0.00228768
0.00277388
0.00287275
0.00305862
0.00285765
0.00275508
0.00285653
0.00256689
0.0024003
0.00200037
0.00207309
0.00209634
0.0012854
0.000936196
0.000254229
0.00111283
0.00212447
0.00025727
0.000379514
0.00125416
0.00160638
0.00221549
0.00227794
0.00246736
0.00227094
0.00222224
0.00204971
0.0020201
0.00194712
0.00184963
0.0016318
0.00154667
0.00118035
0.000683409
7.52732e-05
0.000820703
0.00159574
3.64382e-05
0.000455658
0.000877959
0.00133165
0.00148831
0.00158828
0.0016649
0.00173235
0.00174903
0.00146228
0.00155612
0.0013279
0.00141745
0.00124143
0.00134672
0.000979416
0.000386358
4.2425e-05
0.000654787
0.00121233
5.71497e-05
0.000455152
0.000607534
0.000991289
0.00124389
0.00103828
0.00119937
0.000958281
0.00091115
0.00110565
0.000713806
0.000918503
0.000914399
0.000915945
0.000912757
0.000446641
0.000470813
0.000118579
0.000247691
0.000554584
4.66166e-06
3.65929e-05
1.83865e-05
0.000236707
0.000343695
0.000248677
0.000455787
0.000449229
0.000449612
0.000559124
0.000404063
0.000227456
0.00018101
0.000370374
0.000250318
0.000241992
0.000251948
1.24778e-05
0.000507856
0.000231564
0.00389685
0.00217078
0.000759844
0.000731765
0.00159794
0.00197273
0.0024795
0.00238837
0.00222886
0.00217246
0.00219208
0.00159351
0.00155732
0.00107452
0.000141055
0.000402226
0.00165008
0.00317272
0.00502451
0.00687212
0.00306998
0.00188367
0.000574094
0.000495241
0.00158524
0.00202688
0.00200099
0.00230945
0.00202987
0.00194643
0.00179955
0.0015689
0.00142261
0.00106165
0.000369543
0.000355086
0.00135368
0.00281346
0.00447947
0.00608435
0.00276914
0.0016146
0.000381306
0.000541871
0.0013122
0.00177968
0.00189393
0.00200401
0.00190804
0.00183794
0.00147603
0.00160328
0.000967705
0.000842999
0.000472543
0.000359082
0.00101812
0.00243342
0.00346709
0.00512593
0.00235258
0.00124624
0.000399947
0.000671578
0.00101721
0.00146326
0.00152102
0.00164043
0.00176562
0.00150044
0.00118239
0.00125859
0.00101261
0.000714268
0.00027094
0.000154307
0.0010976
0.00182683
0.00315648
0.00413556
0.00177169
0.000895751
7.22268e-05
0.000419354
0.000807862
0.00109165
0.00123899
0.00134208
0.00149138
0.00143175
0.000982528
0.00110114
0.000946469
0.000641668
0.000175271
2.83757e-05
0.000636842
0.0015774
0.002205
0.00318865
0.00140713
0.000932245
4.58154e-05
0.000494778
0.000740398
0.000825717
0.000950139
0.000827885
0.000948232
0.000869839
0.00104704
0.000740231
0.000673194
0.000632819
0.000391042
0.000122403
0.000605806
0.00100151
0.00177863
0.0023472
0.000765862
0.000537805
0.000104013
0.000234675
0.000321342
0.000609338
0.000731427
0.000617767
0.000624705
0.000639603
0.000672431
0.00047856
0.000363397
0.000188533
0.000114131
1.97285e-05
0.000305423
0.000634595
0.0010451
0.00163456
0.000329785
0.000179136
0.000121166
5.99993e-05
6.57148e-05
3.18267e-05
0.000306568
6.11685e-05
0.000166929
7.07704e-05
0.000268311
0.00014208
0.000211893
6.54727e-05
0.000316867
4.31116e-05
7.23281e-05
0.000356495
0.000299717
0.000538991
0.00748398
0.00597501
0.00427385
0.00276941
0.00155358
0.000884845
0.000485278
0.000281406
6.72676e-05
0.00043524
0.000692249
0.000817808
0.00130257
0.00168361
0.00257686
0.00381641
0.00497925
0.00679897
0.00880383
0.0104885
0.00661474
0.00509553
0.00347349
0.00232497
0.00144771
0.000906339
0.000304337
0.000145309
0.000305679
0.000358616
0.00059989
0.000826816
0.00119025
0.00131171
0.00219711
0.00324856
0.00437209
0.00596564
0.0078034
0.00930239
0.00548485
0.00420668
0.0030441
0.00186318
0.00121815
0.00064235
0.000111492
0.000157885
4.2465e-05
0.000102555
0.000271089
0.000554937
0.000832175
0.00124914
0.00170163
0.00296762
0.00379453
0.00513253
0.00667846
0.0077628
0.0046602
0.00363531
0.00248251
0.00147527
0.000891456
0.000657539
0.000162943
3.01326e-07
3.82544e-05
0.000288679
0.00024542
0.0003413
0.000608974
0.00081731
0.00161471
0.00224643
0.00316267
0.00408282
0.00545848
0.00651766
0.00388485
0.00273883
0.00188346
0.00133702
0.000774757
0.000438794
0.000176932
8.82021e-05
9.9009e-05
0.000114221
0.000232238
0.000262448
0.00047681
0.000815216
0.00119462
0.0017006
0.00248684
0.00341236
0.00408682
0.00494001
0.00277822
0.00209387
0.00144478
0.000891703
0.000628159
0.000156155
1.53474e-05
4.12307e-05
2.24415e-05
0.000130628
2.95842e-05
5.11215e-05
0.000558699
0.000608088
0.000729779
0.00126651
0.0019054
0.0022178
0.00288666
0.00371013
0.00157235
0.00120511
0.000841589
0.00066838
0.000383404
3.59007e-05
5.00535e-05
4.59595e-05
1.10165e-05
8.0816e-05
0.00010229
0.00020747
0.000295646
0.000119985
0.000466482
0.000738338
0.000859845
0.00137648
0.00186734
0.00222261
0.000566295
0.000331862
0.000464033
0.000115668
0.000151126
0.000165328
9.97786e-05
5.157e-05
5.8712e-05
8.74726e-05
2.4478e-05
0.000119301
3.03341e-05
0.000208595
0.000333981
0.000110674
0.000340841
0.000540585
0.000678261
0.000682444
0.0122175
0.0103122
0.0086351
0.00669973
0.0054887
0.00459148
0.00409095
0.00363118
0.00365938
0.00360789
0.00372693
0.0040775
0.00449796
0.0053235
0.00617835
0.00747504
0.00915029
0.0109661
0.013011
0.0151841
0.0108779
0.00901855
0.00724016
0.00583011
0.00485199
0.00406032
0.00337817
0.00325077
0.00312732
0.00323804
0.00333604
0.00358978
0.00394882
0.00467815
0.00551746
0.00652369
0.00806104
0.00952362
0.0113396
0.0131619
0.00909991
0.00786697
0.00621667
0.0049374
0.00441849
0.00342436
0.00296053
0.00279679
0.0026542
0.00251228
0.00277759
0.00330955
0.00340623
0.00395855
0.00467541
0.00563877
0.00684602
0.0081956
0.00964003
0.0114754
0.00764874
0.00627067
0.00520836
0.00401176
0.00331381
0.00259501
0.00252974
0.00211845
0.00206055
0.0021883
0.00234564
0.00236553
0.00286916
0.00344149
0.00393362
0.00467058
0.00557956
0.00706402
0.00810027
0.00931158
0.00596199
0.00494932
0.00422821
0.00334369
0.00250376
0.00209855
0.00172143
0.0018075
0.00146669
0.00164333
0.00182461
0.00202714
0.0020988
0.00258463
0.00292758
0.00374934
0.00457123
0.00531893
0.00646434
0.00720551
0.00434915
0.00372553
0.00291054
0.00251637
0.00207143
0.00182215
0.00133493
0.00118878
0.00125016
0.00137614
0.00109265
0.00145007
0.00165262
0.00186585
0.00201108
0.00267231
0.00328813
0.00407407
0.00473798
0.00550461
0.00271387
0.0023009
0.00215353
0.00162604
0.00114226
0.00109288
0.000876831
0.000876103
0.000694518
0.000569618
0.000906328
0.00101581
0.00126958
0.000958581
0.00133609
0.00146947
0.0021286
0.00229143
0.00273039
0.00332197
0.000929063
0.000778176
0.000844537
0.000539951
0.000411086
0.000448554
0.000198248
0.000331349
7.11451e-05
0.000373471
0.00025169
0.000323941
0.000214446
0.00030574
0.00047685
0.000467702
0.000807776
0.000727036
0.000791083
0.00123901
0.0169598
0.0151441
0.0131561
0.0113471
0.0100658
0.00882762
0.00800125
0.00781781
0.00770042
0.0076192
0.00783028
0.00799079
0.00863636
0.0094969
0.0105681
0.0120658
0.0136982
0.0155134
0.0178008
0.020058
0.0148104
0.0133061
0.0115554
0.00999808
0.00869377
0.00767037
0.00711666
0.00659529
0.00658393
0.00673335
0.00663895
0.00720715
0.00759769
0.00835046
0.00926431
0.0103346
0.0119733
0.013788
0.0156209
0.0174915
0.0129824
0.0115589
0.0099378
0.00853284
0.00738904
0.00675357
0.00597226
0.00581029
0.00560244