/*--------------------------------*- C++ -*----------------------------------*\
| =========                 |                                                 |
| \\      /  F ield         | OpenFOAM: The Open Source CFD Toolbox           |
|  \\    /   O peration     | Version:  2212                                  |
|   \\  /    A nd           | Website:  www.openfoam.com                      |
|    \\/     M anipulation  |                                                 |
\*---------------------------------------------------------------------------*/
FoamFile
{
    version     2.0;
    format      ascii;
    arch        "LSB;label=32;scalar=64";
    class       volScalarField;
    location    "./ITHACAoutput/true/10.4";
    object      error;
}
// * * * * * * * * * * * * * * * * * * * * * * * * * * * * * * * * * * * * * //

dimensions      [0 0 0 1 0 0 0];

internalField   nonuniform List<scalar> 
3200
(
-2.61717
-1.29968
-0.0823372
0.546563
1.06745
1.1853
1.2679
1.20987
1.2065
1.14111
1.10494
1.17479
1.24991
1.43716
1.62623
1.70444
1.49132
1.0536
0.205773
-0.997137
-2.35193
-1.30063
-0.192179
0.399723
0.781723
0.888314
1.00524
0.900766
0.850043
0.76235
0.769259
0.781984
0.947503
1.16391
1.24602
1.31674
1.18734
0.811234
-0.0883433
-0.942638
-2.02003
-1.17331
-0.35326
0.279503
0.528847
0.696812
0.812047
0.695798
0.696936
0.611795
0.621122
0.568637
0.713116
0.882429
0.938497
0.992433
0.857823
0.52299
-0.161737
-0.976492
-1.70589
-1.0099
-0.280476
0.178135
0.443859
0.542045
0.5417
0.55983
0.47233
0.455406
0.417278
0.539734
0.500043
0.70596
0.690817
0.763449
0.661456
0.296848
-0.20556
-0.808864
-1.34146
-0.861136
-0.334255
0.110743
0.290132
0.377119
0.458015
0.382986
0.324118
0.326429
0.249581
0.328831
0.363876
0.445994
0.539421
0.436945
0.484783
0.18981
-0.228685
-0.703146
-0.976209
-0.587894
-0.204096
0.0541141
0.211395
0.200704
0.271903
0.277304
0.237484
0.294075
0.169328
0.213651
0.216578
0.330711
0.353079
0.368296
0.326144
0.0750921
-0.235854
-0.466398
-0.602059
-0.367533
-0.0720287
0.0798008
0.114642
0.154515
0.215588
0.1186
0.156902
0.128404
0.0804217
0.145193
0.0875529
0.124813
0.13599
0.162391
0.19792
0.00265122
-0.220456
-0.314121
-0.20609
-0.100486
-0.041589
-0.0598932
0.000283026
0.0132126
0.0602618
0.142574
0.0525708
0.00285363
0.0310622
-0.0375995
0.0410071
0.0105897
0.0824362
0.20789
0.133809
0.0639408
-0.045158
-0.0707629
-2.67095
-1.28245
-0.238638
0.522195
0.843787
1.00102
1.05694
0.90243
0.746256
0.637172
0.636002
0.752937
0.924687
1.17099
1.28334
1.4954
1.33315
0.920887
0.055399
-1.00652
-2.35845
-1.32954
-0.366861
0.306451
0.582678
0.680201
0.749052
0.621504
0.55169
0.500578
0.453008
0.490458
0.653881
0.833832
0.966617
1.15543
0.999224
0.658418
-0.136507
-1.04656
-2.00232
-1.16986
-0.33143
0.173125
0.52589
0.499376
0.624538
0.486914
0.384156
0.373638
0.337479
0.432366
0.419243
0.489168
0.766454
0.824261
0.794528
0.401078
-0.195314
-1.00655
-1.83027
-1.04142
-0.390065
0.0854918
0.36487
0.416714
0.360771
0.360104
0.28654
0.202978
0.186279
0.217358
0.237818
0.494886
0.439163
0.589793
0.542162
0.280963
-0.224379
-0.925801
-1.41647
-0.795917
-0.303896
0.0371813
0.203962
0.27966
0.258836
0.212982
0.25611
0.180125
0.153021
0.151304
0.256556
0.252185
0.314043
0.463287
0.380321
0.151003
-0.275743
-0.745072
-1.0656
-0.620037
-0.298416
0.0456307
0.104418
0.211559
0.134143
0.203092
0.12761
0.139657
0.0521274
0.11932
0.136147
0.191288
0.24532
0.296921
0.219205
0.0423091
-0.191094
-0.563898
-0.582731
-0.414066
-0.143584
-0.0248322
0.0817118
0.142034
0.124708
0.0337845
0.0549849
0.12262
0.0585389
0.047941
0.0234018
0.131184
0.149025
0.212371
0.081366
-0.0334254
-0.248306
-0.39906
-0.173789
-0.131336
-0.0163988
-0.0642182
0.0294262
0.00237878
0.10104
0.0394607
0.0710665
0.039518
-0.0290796
0.0738686
0.0161765
0.118227
0.0412261
0.0882412
0.0821048
0.0225349
-0.0207139
-0.0916716
-2.71208
-1.50413
-0.404385
0.24059
0.560016
0.634554
0.525726
0.321718
0.273925
0.0617125
-0.00261938
0.167536
0.218892
0.566528
0.936089
1.08099
1.07845
0.688169
-0.0421988
-1.18228
-2.43705
-1.4387
-0.519641
0.0919471
0.452736
0.483924
0.326535
0.246854
0.0928864
-0.0617236
-0.0694084
-0.00950376
0.15378
0.39889
0.678392
0.786257
0.681196
0.429978
-0.316823
-1.22039
-2.18123
-1.28453
-0.449344
0.03212
0.252588
0.300318
0.353837
0.123699
0.0413955
-0.0685839
-0.0779184
-0.0572035
0.0441944
0.244681
0.443068
0.594021
0.551254
0.198727
-0.454957
-1.13592
-1.83008
-1.15633
-0.446584
-0.0969473
0.205023
0.227372
0.126737
0.0910907
-0.0167225
-0.121132
-0.183794
-0.160153
0.0548031
0.142944
0.327396
0.368108
0.372673
0.161533
-0.438489
-1.01948
-1.45752
-0.890679
-0.332167
-0.100282
0.167397
0.115298
0.0751594
0.0874119
-0.071509
-0.159555
-0.175249
-0.111104
-0.0659553
0.0110354
0.148853
0.251012
0.254928
0.0319699
-0.360691
-0.773829
-1.16373
-0.656079
-0.32634
-0.0595604
0.0947141
0.0667306
0.139282
0.00324763
-0.0469992
-0.0967322
-0.109549
-0.116249
0.0630241
0.0847984
0.17224
0.189244
0.150421
0.0241133
-0.307239
-0.660587
-0.620363
-0.456867
-0.228271
-0.0680429
0.0639395
0.0319669
0.0226437
0.00797574
0.0180409
-0.0971389
-0.0619997
-0.0663531
-0.00788389
0.0417277
0.0567631
0.0781793
0.105478
-0.0537261
-0.206679
-0.424104
-0.159783
-0.0813028
-0.069724
-0.0185553
-0.065719
0.0986095
0.0186277
-0.0294215
0.0444197
-0.0296694
-0.00248086
0.0122616
9.94212e-05
-0.0157909
0.0235205
0.00609872
-0.00179689
0.0128627
-0.0921562
-0.110513
-2.95003
-1.81267
-0.74141
-0.113817
0.24653
0.146681
0.0772897
-0.232899
-0.350102
-0.70526
-0.722534
-0.632311
-0.410519
-0.00348876
0.337928
0.579492
0.661759
0.349849
-0.447025
-1.3925
-2.71136
-1.7691
-0.767068
-0.158387
-0.0195387
0.107056
-0.0641241
-0.316467
-0.486573
-0.642218
-0.70477
-0.639883
-0.429723
-0.153958
0.0533746
0.364198
0.365999
0.172005
-0.602375
-1.43586
-2.36699
-1.5079
-0.737214
-0.2357
-0.00221691
-0.0331799
-0.107601
-0.333458
-0.455595
-0.624915
-0.696598
-0.569944
-0.454732
-0.168295
0.0390328
0.191445
0.210395
-0.0407023
-0.62481
-1.40309
-1.91893
-1.30034
-0.641144
-0.208902
-0.155393
0.00450988
-0.118276
-0.215582
-0.397381
-0.516308
-0.561837
-0.602937
-0.416672
-0.266852
-0.0754152
0.143049
0.0804521
-0.0973476
-0.595452
-1.29328
-1.51422
-1.05654
-0.66005
-0.212759
-0.101967
-0.0274763
-0.17119
-0.266344
-0.269843
-0.404827
-0.473402
-0.380453
-0.37553
-0.167482
-0.0661654
0.0229048
0.0435581
-0.155499
-0.36985
-0.971669
-1.01894
-0.727729
-0.484114
-0.140756
-0.0770062
-0.021497
-0.126522
-0.209943
-0.273934
-0.272926
-0.306217
-0.379557
-0.223657
-0.13964
-0.0757503
0.0362926
0.00750693
-0.165035
-0.354291
-0.736658
-0.700745
-0.543844
-0.21765
-0.133367
-0.084878
0.0219121
-0.0677495
-0.0251675
-0.242811
-0.217926
-0.19732
-0.119219
-0.146395
-0.169282
-0.0286729
0.00754752
-0.0534031
-0.0834796
-0.207777
-0.414896
-0.197093
-0.141294
-0.117994
-0.06757
-0.041378
0.000265848
-0.0365915
0.0191233
-0.109087
-0.117566
-0.10676
-0.0664169
-0.0171314
-0.043006
0.00206278
0.049447
0.00730506
-0.0077548
-0.0869819
-0.122093
-3.18038
-2.02332
-1.1766
-0.556341
-0.315622
-0.270974
-0.43552
-0.868951
-1.12398
-1.32139
-1.48646
-1.34842
-1.17544
-0.636652
-0.331828
0.106118
0.152853
-0.0686681
-0.80535
-1.74152
-2.89962
-1.94191
-1.06557
-0.596223
-0.340189
-0.326056
-0.546652
-0.790299
-1.03119
-1.33848
-1.33334
-1.31265
-1.00834
-0.746996
-0.33116
-0.0991194
-0.0229729
-0.306292
-0.817343
-1.60881
-2.58251
-1.80009
-1.06169
-0.585561
-0.421735
-0.349576
-0.531458
-0.628144
-0.929589
-1.11531
-1.12642
-1.0382
-0.965356
-0.698895
-0.338909
-0.17034
-0.20766
-0.422558
-0.868172
-1.56171
-2.19722
-1.57854
-0.918185
-0.514708
-0.323853
-0.344102
-0.435714
-0.615028
-0.748846
-0.897808
-1.00807
-0.956143
-0.842281
-0.598997
-0.350637
-0.181983
-0.230439
-0.337367
-0.812175
-1.36518
-1.66431
-1.24069
-0.733974
-0.426519
-0.235768
-0.291889
-0.38761
-0.522535
-0.661074
-0.732796
-0.743284
-0.757816
-0.672685
-0.537101
-0.344881
-0.181955
-0.199665
-0.284919
-0.671722
-1.06923
-1.22513
-0.903479
-0.501632
-0.244399
-0.218245
-0.246192
-0.224659
-0.392776
-0.527999
-0.599924
-0.608492
-0.539749
-0.45527
-0.373921
-0.227876
-0.16105
-0.111315
-0.321818
-0.516279
-0.851185
-0.71845
-0.546744
-0.310751
-0.2437
-0.0288832
-0.140509
-0.248521
-0.184049
-0.294693
-0.331716
-0.389872
-0.329279
-0.283086
-0.269155
-0.189097
-0.0923704
-0.142937
-0.17471
-0.34359
-0.489695
-0.295373
-0.205961
-0.0705151
-0.0528879
-0.00366292
-0.0510546
-0.059883
-0.099564
-0.111076
-0.0332151
-0.0793268
-0.0887714
-0.138445
-0.0318595
-0.0750706
-0.0024419
0.00327684
-0.0724619
-0.17489
-0.182991
-3.54751
-2.42925
-1.55623
-0.918536
-0.79741
-0.837679
-1.13057
-1.40858
-1.82679
-2.14989
-2.173
-2.13923
-1.81596
-1.33005
-0.849764
-0.507044
-0.430148
-0.611645
-1.22206
-2.11844
-3.21547
-2.25535
-1.42069
-0.951899
-0.815177
-0.809279
-1.04703
-1.30667
-1.58799
-1.86182
-1.94153
-1.92498
-1.68798
-1.25731
-0.855263
-0.492731
-0.441152
-0.759593
-1.20077
-1.94028
-2.80946
-2.11872
-1.32708
-0.900778
-0.683052
-0.799939
-0.88311
-1.19427
-1.39786
-1.60743
-1.73628
-1.70859
-1.45451
-1.18197
-0.835969
-0.510506
-0.528698
-0.71383
-1.24401
-1.7818
-2.32229
-1.74083
-1.13083
-0.753111
-0.513541
-0.686326
-0.789005
-0.960609
-1.22432
-1.43691
-1.41884
-1.40937
-1.24544
-0.974364
-0.710314
-0.517007
-0.496375
-0.675207
-1.16073
-1.6063
-1.85519
-1.40438
-0.901446
-0.57443
-0.511448
-0.476229
-0.618333
-0.812258
-0.981157
-1.09406
-1.12382
-1.11295
-0.914859
-0.7536
-0.546271
-0.422162
-0.41768
-0.550069
-0.880958
-1.34144
-1.31643
-0.954939
-0.680014
-0.458721
-0.380234
-0.344341
-0.475001
-0.532373
-0.723147
-0.739663
-0.829256
-0.83273
-0.695692
-0.538137
-0.378009
-0.286113
-0.268574
-0.413723
-0.644461
-0.9794
-0.837634
-0.586947
-0.455927
-0.257027
-0.293254
-0.254297
-0.335994
-0.44631
-0.373037
-0.486639
-0.469411
-0.405749
-0.381856
-0.331126
-0.230577
-0.188636
-0.236613
-0.284973
-0.414262
-0.483077
-0.280875
-0.1577
-0.131526
-0.111799
-0.0100438
-0.11559
-0.131704
-0.107149
-0.130801
-0.164435
-0.202468
-0.136131
-0.0835027
-0.125895
-0.134031
-0.0718439
-0.082516
-0.0732334
-0.073583
-0.191924
-3.88013
-2.86241
-1.9921
-1.40798
-1.26074
-1.39862
-1.62563
-2.05082
-2.47063
-2.80572
-2.94661
-2.89385
-2.50924
-2.01114
-1.42366
-1.06455
-0.893443
-1.08764
-1.75209
-2.54157
-3.56745
-2.63895
-1.83223
-1.33459
-1.21608
-1.18915
-1.49487
-1.87017
-2.15824
-2.49806
-2.5802
-2.47295
-2.31334
-1.81052
-1.32758
-1.13197
-0.958256
-1.1719
-1.65313
-2.27507
-2.97151
-2.31857
-1.66848
-1.20443
-1.03229
-1.1109
-1.32733
-1.5865
-1.88385
-2.09688
-2.19785
-2.14906
-2.00923
-1.59827
-1.30576
-0.963253
-0.928388
-1.05083
-1.55517
-2.02091
-2.59531
-2.05129
-1.55769
-1.11607
-0.866573
-0.997407
-1.05078
-1.3485
-1.6068
-1.7744
-1.93032
-1.85541
-1.57348
-1.31609
-1.10359
-0.797133
-0.789173
-0.978081
-1.29144
-1.80363
-1.96974
-1.511
-1.11625
-0.763927
-0.701224
-0.808626
-0.88951
-1.00075
-1.21446
-1.36995
-1.43011
-1.44022
-1.30959
-1.08612
-0.864692
-0.663551
-0.618046
-0.828866
-1.10539
-1.46608
-1.45921
-1.05584
-0.804814
-0.614614
-0.670111
-0.594007
-0.634122
-0.754963
-0.90747
-0.989978
-1.03377
-0.991781
-0.914233
-0.865804
-0.641316
-0.458271
-0.482394
-0.671141
-0.824296
-1.0731
-0.916844
-0.705579
-0.478247
-0.38449
-0.341523
-0.366999
-0.386942
-0.384479
-0.52678
-0.556156
-0.716335
-0.640735
-0.582059
-0.462034
-0.385691
-0.296269
-0.326579
-0.416579
-0.424444
-0.639887
-0.399651
-0.218161
-0.157556
-0.150521
-0.17935
-0.122747
-0.111485
-0.158621
-0.187899
-0.298244
-0.306395
-0.176032
-0.165695
-0.12949
-0.0397013
-0.102555
-0.0543775
-0.028489
-0.156943
-0.226101
-4.30025
-3.31078
-2.39535
-1.86038
-1.66264
-1.83492
-2.16295
-2.54455
-2.94439
-3.41094
-3.61333
-3.5391
-3.12135
-2.57924
-2.03058
-1.58804
-1.37461
-1.54391
-2.08322
-2.83543
-3.83334
-2.89863
-2.22438
-1.76793
-1.48956
-1.69583
-1.93556
-2.27252
-2.62513
-3.12111
-3.18396
-3.07837
-2.79403
-2.35398
-1.82366
-1.45495
-1.39532
-1.49589
-1.9663
-2.58102
-3.27506
-2.63743
-1.93213
-1.54254
-1.33986
-1.46629
-1.57722
-1.96457
-2.31191
-2.50989
-2.70651
-2.55579
-2.35247
-2.04011
-1.63149
-1.35285
-1.28576
-1.44636
-1.8566
-2.25272
-2.71828
-2.17971
-1.58377
-1.26229
-1.18329
-1.20956
-1.3624
-1.65224
-1.8897
-2.20195
-2.16925
-2.19726
-2.02453
-1.80328
-1.33917
-1.1991
-1.11847
-1.27221
-1.60052
-1.93545
-2.13295
-1.77783
-1.27422
-1.05594
-0.910326
-0.926525
-1.03221
-1.22445
-1.48778
-1.59997
-1.83041
-1.80535
-1.59634
-1.36675
-1.06013
-0.951344
-0.924617
-0.982551
-1.30397
-1.52305
-1.51981
-1.23659
-1.00269
-0.730364
-0.785371
-0.72237
-0.816705
-0.900943
-1.04574
-1.20183
-1.28666
-1.21942
-1.08458
-0.925938
-0.821073
-0.687684
-0.712136
-0.703888
-0.984682
-1.17367
-0.967157
-0.762069
-0.615243
-0.45096
-0.39215
-0.453158
-0.561879
-0.60932
-0.706829
-0.711981
-0.741611
-0.737181
-0.677695
-0.635414
-0.50293
-0.356512
-0.447129
-0.466683
-0.519317
-0.750738
-0.339087
-0.237824
-0.195599
-0.194458
-0.0752398
-0.095874
-0.0777668
-0.155607
-0.105219
-0.335516
-0.272539
-0.214716
-0.320982
-0.18057
-0.198632
-0.0833229
-0.0658166
-0.189084
-0.216831
-0.23691
-4.47326
-3.52139
-2.78068
-2.28381
-2.07971
-2.21784
-2.55588
-2.92767
-3.44993
-3.96373
-4.10788
-3.948
-3.63357
-2.98787
-2.47355
-1.99329
-1.78571
-1.91927
-2.44518
-3.13367
-4.00262
-3.23687
-2.58775
-1.99039
-1.86485
-1.92453
-2.26543
-2.60469
-3.05422
-3.437
-3.64069
-3.53472
-3.15742
-2.75371
-2.25931
-1.88425
-1.66555
-1.90741
-2.29165
-2.92122
-3.42183
-2.74393
-2.16949
-1.8014
-1.64912
-1.75458
-1.89537
-2.24937
-2.67011
-2.98116
-3.0647
-2.95507
-2.76541
-2.32891
-1.95649
-1.73102
-1.53061
-1.69065
-2.12488
-2.57864
-2.87848
-2.34067
-1.83031
-1.51405
-1.4456
-1.42632
-1.5837
-1.88726
-2.20071
-2.30732
-2.58843
-2.50625
-2.23735
-1.93096
-1.69636
-1.4503
-1.30153
-1.51198
-1.75229
-2.18645
-2.32149
-1.80396
-1.47879
-1.20237
-1.0606
-1.1992
-1.24478
-1.43929
-1.68725
-1.90532
-1.92337
-1.96805
-1.78563
-1.51312
-1.25629
-1.16033
-1.07232
-1.21614
-1.40698
-1.77204
-1.56349
-1.34248
-1.10195
-0.905907
-0.789247
-0.84436
-0.934835
-1.12312
-1.28279
-1.36064
-1.47833
-1.36257
-1.297
-1.09818
-0.955783
-0.845214
-0.776902
-0.836462
-1.03837
-1.3076
-1.01017
-0.84875
-0.690693
-0.499189
-0.477467
-0.491779
-0.485627
-0.705146
-0.793165
-0.77119
-0.874618
-0.831669
-0.856679
-0.640675
-0.564594
-0.54632
-0.49706
-0.562928
-0.681585
-0.856331
-0.332081
-0.334663
-0.271661
-0.192514
-0.211886
-0.200479
-0.193
-0.215676
-0.224905
-0.268667
-0.323534
-0.336699
-0.256092
-0.305679
-0.168761
-0.152932
-0.076204
-0.140338
-0.208586
-0.257385
-4.71502
-3.80816
-3.06945
-2.56737
-2.43689
-2.55975
-2.84325
-3.25531
-3.79294
-4.22774
-4.36034
-4.31704
-3.95231
-3.43576
-2.74774
-2.29334
-2.18514
-2.25674
-2.64234
-3.33574
-4.18763
-3.45348
-2.72384
-2.31012
-2.23106
-2.21181
-2.53422
-2.8814
-3.3233
-3.65184
-3.92653
-3.85056
-3.43899
-3.00985
-2.5196
-2.13821
-2.06475
-2.09131
-2.49964
-3.0677
-3.57191
-3.01866
-2.38719
-2.0814
-1.84062
-2.02645
-2.11053
-2.456
-2.81118
-3.13047
-3.34163
-3.21818
-3.05
-2.67225
-2.20738
-1.91292
-1.73586
-1.93199
-2.31675
-2.69323
-3.05641
-2.48103
-2.05192
-1.7864
-1.62944
-1.6424
-1.80358
-2.04537
-2.39698
-2.59811
-2.62251
-2.65401
-2.47479
-2.14664
-1.82509
-1.65476
-1.4743
-1.59092
-1.91724
-2.40122
-2.35225
-2.08193
-1.55875
-1.33179
-1.27621
-1.28475
-1.48558
-1.60829
-1.8154
-2.07361
-2.10672
-2.09709
-1.90661
-1.73676
-1.49685
-1.3267
-1.2376
-1.37635
-1.60029
-1.82283
-1.64866
-1.5093
-1.17335
-1.07671
-0.950007
-0.905564
-1.04745
-1.12965
-1.33281
-1.45688
-1.48178
-1.52261
-1.43499
-1.31999
-1.03797
-0.906407
-0.905983
-0.888974
-1.21477
-1.37366
-1.04568
-0.885835
-0.705043
-0.612047
-0.50088
-0.520462
-0.588428
-0.73771
-0.738189
-0.873158
-0.878323
-1.02313
-0.810046
-0.653079
-0.649021
-0.639288
-0.498427
-0.66191
-0.657378
-0.816805
-0.340528
-0.257558
-0.175969
-0.206263
-0.130934
-0.121882
-0.161132
-0.240393
-0.282122
-0.302911
-0.348641
-0.32604
-0.323169
-0.275598
-0.227783
-0.187224
-0.227076
-0.252685
-0.20076
-0.252919
-4.88091
-3.98501
-3.30167
-2.83901
-2.54048
-2.65463
-2.97685
-3.3817
-3.97901
-4.24733
-4.5765
-4.43122
-4.11962
-3.48209
-2.92455
-2.51827
-2.36003
-2.43166
-2.79525
-3.43772
-4.28539
-3.45185
-2.85556
-2.43457
-2.38
-2.43206
-2.65842
-3.10398
-3.41757
-3.79302
-4.03647
-3.84801
-3.59679
-3.18927
-2.70241
-2.2367
-2.13755
-2.26372
-2.56265
-3.20834
-3.76674
-3.09001
-2.53972
-2.19967
-2.05955
-2.05999
-2.30107
-2.72342
-2.92143
-3.22734
-3.33829
-3.33817
-3.07095
-2.81954
-2.31546
-2.00703
-1.89183
-2.08427
-2.40438
-2.82018
-3.10012
-2.56021
-2.16966
-1.75947
-1.73612
-1.78039
-1.92428
-2.20996
-2.45511
-2.65889
-2.80183
-2.80258
-2.58318
-2.28676
-2.00265
-1.7469
-1.68354
-1.82908
-2.05657
-2.37509
-2.33037
-2.00356
-1.66062
-1.47152
-1.34147
-1.36119
-1.50384
-1.68861
-1.93192
-2.04716
-2.29679
-2.15293
-2.02988
-1.81646
-1.56679
-1.3546
-1.37647
-1.44487
-1.68686
-1.90334
-1.72825
-1.48174
-1.19433
-1.05567
-0.993889
-1.02151
-1.10514
-1.1963
-1.35027
-1.49982
-1.55565
-1.52253
-1.46825
-1.3344
-1.1019
-0.984365
-1.00955
-1.00492
-1.17531
-1.38209
-1.11467
-0.902941
-0.795559
-0.692377
-0.614682
-0.639071
-0.652892
-0.731307
-0.762358
-0.899968
-1.00208
-0.929131
-0.890141
-0.790201
-0.657896
-0.557599
-0.662041
-0.623289
-0.774321
-0.782653
-0.363531
-0.221536
-0.197889
-0.206368
-0.0831248
-0.200305
-0.181708
-0.259968
-0.279418
-0.32624
-0.303103
-0.282854
-0.272853
-0.217205
-0.304135
-0.25188
-0.238301
-0.26833
-0.31741
-0.288789
-4.82779
-4.01179
-3.32627
-2.85311
-2.64685
-2.72355
-3.0302
-3.40927
-3.89466
-4.21937
-4.50495
-4.3287
-3.96456
-3.47654
-3.00018
-2.575
-2.43338
-2.55512
-2.9126
-3.38705
-4.358
-3.66258
-2.96413
-2.52074
-2.48575
-2.4183
-2.78442
-3.22366
-3.45745
-3.83978
-3.9114
-3.82304
-3.50829
-3.18012
-2.67181
-2.40227
-2.24168
-2.3513
-2.71109
-3.24778
-3.7207
-3.06485
-2.65274
-2.28938
-2.16422
-2.1976
-2.2755
-2.65687
-2.9747
-3.16313
-3.32742
-3.25297
-3.0134
-2.6439
-2.38278
-2.07013
-1.95785
-2.05454
-2.33818
-2.8863
-3.07278
-2.64133
-2.25252
-1.85921
-1.77844
-1.85648
-1.87788
-2.26485
-2.41646
-2.6383
-2.79107
-2.69914
-2.49633
-2.24957
-1.96716
-1.79307
-1.69284
-1.7391
-2.13157
-2.41839
-2.48545
-2.07532
-1.80221
-1.57267
-1.34872
-1.4136
-1.56472
-1.73198
-1.93935
-2.06114
-2.14329
-2.03249
-1.95302
-1.76359
-1.60375
-1.46972
-1.36118
-1.50273
-1.66483
-1.92817
-1.78447
-1.5191
-1.26747
-1.01413
-1.06953
-1.07698
-1.17991
-1.20611
-1.40054
-1.46463
-1.61187
-1.57712
-1.42093
-1.31216
-1.06998
-1.00836
-1.01432
-1.0539
-1.21874
-1.3898
-1.05475
-0.880927
-0.796264
-0.609231
-0.637977
-0.524913
-0.663614
-0.760235
-0.83823
-0.932654
-0.917383
-0.910352
-0.841084
-0.749846
-0.771937
-0.614399
-0.608482
-0.625435
-0.734065
-0.867767
-0.343628
-0.207096
-0.269542
-0.241622
-0.137227
-0.270678
-0.202594
-0.173844
-0.231921
-0.343572
-0.379359
-0.330402
-0.261275
-0.272737
-0.277075
-0.201003
-0.267609
-0.259868
-0.232984
-0.380196
-4.82719
-4.09342
-3.27934
-2.90959
-2.7487
-2.69765
-2.92013
-3.33404
-3.7578
-4.09183
-4.17611
-4.12258
-3.74021
-3.39942
-2.83971
-2.43672
-2.36162
-2.38325
-2.85854
-3.34512
-4.25211
-3.59151
-2.8972
-2.58116
-2.412
-2.48894
-2.54844
-2.89755
-3.28131
-3.53413
-3.75059
-3.6816
-3.33064
-3.01047
-2.5752
-2.28852
-2.25217
-2.33484
-2.67723
-3.08683
-3.60145
-3.08429
-2.54531
-2.24454
-2.13612
-2.14672
-2.36882
-2.59019
-2.80238
-3.0685
-3.11962
-3.0699
-2.93376
-2.56799
-2.18949
-2.06726
-1.92138
-2.01509
-2.2802
-2.75359
-3.04403
-2.63934
-2.22267
-1.88749
-1.82318
-1.80311
-1.96076
-2.07704
-2.41896
-2.49823
-2.57856
-2.57026
-2.38385
-2.17371
-1.85931
-1.69394
-1.67338
-1.66548
-1.98762
-2.37103
-2.38133
-2.12056
-1.74336
-1.5733
-1.38273
-1.46067
-1.52599
-1.6402
-1.77161
-2.05466
-2.10351
-1.98209
-1.92346
-1.74225
-1.45761
-1.33282
-1.29276
-1.37425
-1.62285
-1.88977
-1.74967
-1.48196
-1.2257
-1.02195
-0.980497
-1.02319
-1.09965
-1.23101
-1.30785
-1.3847
-1.42501
-1.46276
-1.36281
-1.18983
-1.12327
-1.0857
-0.96482
-1.03589
-1.16733
-1.36228
-1.04615
-0.916929
-0.748889
-0.64847
-0.642894
-0.614508
-0.665454
-0.75839
-0.755384
-0.863371
-0.89873
-0.889536
-0.817489
-0.705965
-0.601341
-0.627402
-0.632177
-0.64284
-0.78946
-0.829338
-0.427464
-0.266314
-0.250243
-0.275848
-0.276573
-0.178237
-0.209087
-0.22783
-0.262899
-0.302802
-0.336437
-0.292769
-0.321496
-0.258298
-0.207486
-0.17435
-0.225991
-0.259886
-0.268829
-0.230716
-4.5962
-3.86128
-3.10031
-2.78333
-2.57363
-2.59019
-2.71815
-3.02562
-3.34208
-3.7345
-3.78041
-3.7409
-3.37267
-2.99009
-2.55704
-2.16572
-2.11126
-2.22479
-2.593
-3.18641
-4.13023
-3.44784
-2.80012
-2.41856
-2.31739
-2.20448
-2.41857
-2.68444
-2.95298
-3.35176
-3.32471
-3.26426
-2.95321
-2.61552
-2.36426
-1.98768
-1.96254
-2.05562
-2.43847
-2.90127
-3.49038
-3.02159
-2.53523
-2.12084
-1.95509
-2.12976
-2.08995
-2.38909
-2.59228
-2.82866
-2.86518
-2.82125
-2.62927
-2.39438
-2.04333
-1.84769
-1.84184
-1.97151
-2.22891
-2.59992
-2.97814
-2.50555
-2.0869
-1.84231
-1.7173
-1.68483
-1.71924
-1.90706
-2.18533
-2.27891
-2.33364
-2.38877
-2.24556
-1.92123
-1.77703
-1.59827
-1.5573
-1.62006
-1.89472
-2.23998
-2.32312
-1.94524
-1.6447
-1.52096
-1.31608
-1.3904
-1.38172
-1.51862
-1.70618
-1.81674
-1.88275
-1.81943
-1.71753
-1.55073
-1.3769
-1.25649
-1.25806
-1.28265
-1.48814
-1.78263
-1.66258
-1.34289
-1.19547
-1.07476
-1.0075
-0.946743
-1.0031
-1.07308
-1.17587
-1.32197
-1.2874
-1.28637
-1.21583
-1.13951
-1.04094
-0.959378
-0.84474
-1.01374
-1.1165
-1.39156
-1.05196
-0.851457
-0.758142
-0.640921
-0.572011
-0.578138
-0.625466
-0.627544
-0.712647
-0.714917
-0.848811
-0.790628
-0.724345
-0.69597
-0.565092
-0.601179
-0.555697
-0.642594
-0.735439
-0.778137
-0.321221
-0.423492
-0.200435
-0.216225
-0.117392
-0.16839
-0.165817
-0.237016
-0.207839
-0.251116
-0.273974
-0.245514
-0.273415
-0.240189
-0.216819
-0.181554
-0.198856
-0.23111
-0.230551
-0.272626
-4.23475
-3.51172
-2.89063
-2.49101
-2.27109
-2.17636
-2.33798
-2.63853
-2.85531
-3.06504
-3.26545
-3.14023
-2.84401
-2.51477
-2.1507
-1.91997
-1.71013
-1.82879
-2.21703
-2.81765
-3.94568
-3.16148
-2.61148
-2.28535
-1.99781
-2.02298
-2.05087
-2.33759
-2.56629
-2.70343
-2.82916
-2.78508
-2.578
-2.34219
-1.92215
-1.80807
-1.62698
-1.80817
-2.16817
-2.62342
-3.31055
-2.78764
-2.30312
-1.97548
-1.8093
-1.78057
-1.87027
-2.05789
-2.19115
-2.38609
-2.47455
-2.40648
-2.23692
-2.019
-1.78973
-1.56469
-1.54484
-1.65498
-2.00101
-2.36404
-2.79537
-2.38191
-1.9344
-1.60101
-1.49858
-1.49923
-1.61841
-1.73561
-1.82015
-1.92825
-2.00048
-2.04098
-1.89273
-1.69721
-1.46803
-1.38702
-1.29957
-1.32203
-1.68415
-1.98761
-2.14747
-1.84783
-1.52076
-1.31479
-1.26544
-1.1232
-1.26716
-1.36397
-1.35099
-1.56851
-1.67761
-1.50691
-1.5084
-1.39145
-1.17173
-1.0663
-1.06018
-1.15265
-1.39427
-1.59969
-1.69088
-1.36006
-1.10253
-0.885376
-0.857362
-0.860723
-0.926245
-0.916269
-1.08527
-1.1346
-1.06507
-1.11485
-1.08682
-0.981062
-0.857594
-0.774832
-0.827237
-0.836234
-0.928175
-1.18569
-0.99426
-0.84889
-0.654718
-0.598911
-0.58802
-0.491632
-0.476212
-0.569152
-0.66536
-0.689003
-0.687126
-0.766769
-0.624879
-0.538587
-0.529994
-0.50364
-0.453473
-0.555751
-0.589261
-0.70404
-0.267504
-0.30534
-0.253402
-0.265855
-0.208192
-0.191406
-0.131128
-0.162204
-0.168861
-0.210944
-0.195495
-0.245362
-0.169884
-0.193134
-0.170673
-0.307008
-0.244093
-0.107532
-0.162669
-0.199876
-3.84824
-3.18792
-2.52173
-2.05612
-1.70613
-1.6891
-1.81872
-2.0936
-2.26084
-2.42188
-2.49621
-2.4122
-2.16338
-1.85249
-1.59239
-1.27424
-1.25099
-1.38946
-1.82104
-2.36651
-3.48611
-2.94195
-2.25666
-1.88151
-1.65876
-1.6477
-1.70122
-1.8781
-2.00674
-2.13253
-2.19893
-2.22133
-1.99496
-1.75358
-1.48207
-1.36085
-1.25002
-1.41197
-1.78049
-2.26019
-2.98286
-2.50539
-1.98911
-1.66158
-1.46099
-1.37768
-1.47068
-1.73235
-1.76835
-1.8612
-1.93257
-1.8863
-1.75035
-1.59798
-1.31105
-1.1822
-1.12491
-1.34679
-1.64239
-2.05082
-2.5393
-2.08718
-1.67682
-1.40733
-1.20997
-1.28804
-1.25944
-1.3525
-1.49631
-1.59712
-1.64449
-1.63173
-1.47958
-1.42057
-1.19541
-1.07499
-0.957698
-1.10159
-1.43167
-1.78439
-1.96706
-1.65708
-1.3488
-1.10826
-1.0735
-0.912263
-0.984207
-1.09037
-1.22931
-1.25528
-1.29635
-1.21856
-1.1881
-1.09642
-0.995149
-0.825226
-0.906123
-0.972654
-1.18717
-1.42037
-1.45057
-1.15242
-0.963804
-0.827532
-0.704054
-0.709516
-0.682529
-0.771093
-0.861502
-0.906433
-0.930914
-0.844501
-0.820843
-0.808988
-0.71529
-0.651402
-0.72302
-0.707717
-0.827339
-1.02545
-0.818751
-0.663503
-0.66638
-0.525173
-0.426001
-0.378316
-0.468932
-0.490617
-0.559259
-0.512581
-0.553823
-0.508058
-0.497408
-0.42598
-0.397369
-0.382973
-0.377687
-0.449009
-0.565484
-0.611289
-0.331354
-0.248603
-0.274066
-0.156705
-0.0658889
-0.145328
-0.154079
-0.131486
-0.219426
-0.13245
-0.237409
-0.167424
-0.261255
-0.135054
-0.159957
-0.0900272
-0.188504
-0.147442
-0.133337
-0.26563
-3.379
-2.69931
-2.01395
-1.55008
-1.2668
-1.14548
-1.22828
-1.39567
-1.50176
-1.64063
-1.66141
-1.59272
-1.39826
-1.08912
-0.81304
-0.789696
-0.650937
-0.833376
-1.28462
-1.69666
-2.97802
-2.50578
-1.83491
-1.46104
-1.15951
-1.21284
-1.17284
-1.33398
-1.35546
-1.55808
-1.52363
-1.488
-1.24887
-1.0815
-0.906369
-0.780255
-0.820223
-0.903817
-1.36916
-1.67165
-2.58731
-2.09611
-1.63898
-1.34645
-1.0616
-1.02224
-1.04585
-1.12539
-1.20561
-1.44362
-1.32896
-1.34891
-1.1966
-1.08429
-0.892252
-0.762866
-0.803062
-0.902373
-1.22895
-1.57317
-2.21455
-1.8048
-1.41072
-1.14868
-0.923648
-0.871827
-0.82259
-1.00455
-1.04053
-1.19753
-1.14402
-1.15574
-1.00892
-0.935707
-0.843262
-0.68488
-0.658164
-0.778975
-1.10842
-1.496
-1.79111
-1.46605
-1.12696
-0.953042
-0.779728
-0.632995
-0.749157
-0.751895
-0.821024
-0.888451
-0.912101
-0.915017
-0.790707
-0.713101
-0.698914
-0.580523
-0.631925
-0.689526
-0.910243
-1.13677
-1.27446
-1.02356
-0.86961
-0.737309
-0.577334
-0.491174
-0.518115
-0.661594
-0.59775
-0.646956
-0.703705
-0.623968
-0.58089
-0.583973
-0.464283
-0.436393
-0.502729
-0.555186
-0.760612
-0.783272
-0.732501
-0.624614
-0.492162
-0.360527
-0.307533
-0.290542
-0.402507
-0.336341
-0.397871
-0.467348
-0.476772
-0.360365
-0.442982
-0.241466
-0.32583
-0.260594
-0.317581
-0.297302
-0.535067
-0.486274
-0.266753
-0.117837
-0.201778
-0.149196
-0.103994
-0.136979
-0.0953419
-0.14393
-0.160064
-0.1025
-0.0757633
-0.120524
-0.0762163
-0.131436
-0.0881902
-0.0691611
-0.0587112
-0.0255973
-0.0942408
-0.149319
-2.78171
-2.06299
-1.39188
-0.866075
-0.583058
-0.450718
-0.494327
-0.57466
-0.769881
-0.787813
-0.854221
-0.671357
-0.544004
-0.360754
-0.123568
0.0185106
-0.0339877
-0.168526
-0.616014
-1.13455
-2.51065
-1.94205
-1.291
-0.884776
-0.672967
-0.554055
-0.521679
-0.634765
-0.676988
-0.786434
-0.825044
-0.715378
-0.597716
-0.45996
-0.285612
-0.21982
-0.130227
-0.392823
-0.71758
-1.19654
-2.20136
-1.76668
-1.20696
-0.942251
-0.712333
-0.592148
-0.579036
-0.638408
-0.652396
-0.747528
-0.712034
-0.707453
-0.592774
-0.539617
-0.307216
-0.328183
-0.358338
-0.479774
-0.751648
-1.18888
-1.89576
-1.44509
-1.09296
-0.767771
-0.54394
-0.465437
-0.543109
-0.51712
-0.653375
-0.649658
-0.685929
-0.600497
-0.575588
-0.470652
-0.327512
-0.304272
-0.310946
-0.460464
-0.795299
-1.04472
-1.48971
-1.20766
-0.890546
-0.614296
-0.532121
-0.456266
-0.453772
-0.522296
-0.485756
-0.546957
-0.53233
-0.57003
-0.437658
-0.428914
-0.283296
-0.304952
-0.368719
-0.44155
-0.648892
-0.955224
-1.07326
-0.913305
-0.671841
-0.372444
-0.399819
-0.32175
-0.318912
-0.341119
-0.352226
-0.447824
-0.358379
-0.3449
-0.256642
-0.29877
-0.210564
-0.251492
-0.301664
-0.314714
-0.47582
-0.66675
-0.685006
-0.522103
-0.325722
-0.256955
-0.248105
-0.130865
-0.178405
-0.19769
-0.254303
-0.286291
-0.251782
-0.23228
-0.2111
-0.195861
-0.106791
-0.164453
-0.132764
-0.29859
-0.30416
-0.397978
-0.211813
-0.219484
-0.153917
-0.0499924
-0.0146888
-0.0679974
-0.0437938
-0.106148
-0.0676959
-0.0650688
-0.0885232
-0.121864
-0.0844403
0.00299627
-0.12021
-0.0498847
-0.0350928
-0.106349
-0.128022
-0.0440642
-2.15996
-1.4527
-0.933105
-0.244296
-0.0543469
0.177818
0.188929
0.0941868
0.16968
0.0833253
0.0560542
0.17885
0.304618
0.411817
0.618119
0.6875
0.678022
0.448238
0.0532686
-0.489285
-2.00031
-1.41049
-0.818632
-0.343457
-0.153075
0.0051446
0.0377486
-0.0125629
-0.00173482
0.0285469
-0.173141
-0.0193137
0.0782348
0.260604
0.306835
0.467546
0.379842
0.233628
-0.299139
-0.626169
-1.7481
-1.3598
-0.779131
-0.477659
-0.218461
-0.080943
-0.0599544
-0.0413623
-0.0547917
-0.104971
-0.129621
-0.106009
-0.0210404
0.115256
0.236809
0.235966
0.19779
0.0296894
-0.312871
-0.724464
-1.59496
-1.17988
-0.709221
-0.435659
-0.248442
-0.213578
-0.120219
-0.0994929
-0.139673
-0.124526
-0.206131
-0.132174
-0.0396142
-0.00401907
0.0928892
0.0738535
0.135346
-0.101348
-0.328953
-0.694505
-1.19505
-0.97453
-0.638608
-0.328499
-0.213491
-0.088734
-0.0615353
-0.0816793
-0.120724
-0.20725
-0.208769
-0.104267
-0.150047
-0.0238072
0.0317185
0.00301635
0.00213726
-0.16191
-0.331124
-0.606311
-0.954619
-0.591842
-0.461616
-0.354279
-0.194214
-0.148794
-0.0472669
-0.128896
-0.138418
-0.149835
-0.170652
-0.196284
-0.162721
-0.0511427
0.0493552
-0.0329853
-0.0158387
-0.162932
-0.385521
-0.446278
-0.551536
-0.371546
-0.317495
-0.230514
-0.091696
-0.0947755
0.0128681
-0.189809
-0.0909435
-0.190745
-0.0386097
-0.131016
-0.112641
-0.0524955
0.00459172
-0.0346182
-0.0557445
-0.125617
-0.210462
-0.20944
-0.0958658
-0.068282
-0.0606253
-0.0710231
-0.0275042
-0.0245478
-0.0140639
0.024703
-0.0996493
-0.037212
0.0651361
-0.0159581
0.013712
-0.0298482
-0.0514834
-0.0601156
0.104144
-0.0510956
-0.12299
-0.0700776
-1.6592
-0.876022
-0.303483
0.24569
0.584443
0.741543
0.763558
0.804551
0.738047
0.682714
0.762453
0.826206
1.04637
1.10906
1.19185
1.2998
1.24674
1.09187
0.559731
0.00385621
-1.64018
-1.00126
-0.44597
0.0491109
0.350674
0.432505
0.485823
0.510634
0.526396
0.468727
0.530591
0.515989
0.683376
0.720136
0.91137
0.93427
0.901192
0.564885
0.247256
-0.190387
-1.5502
-0.96734
-0.532572
-0.163869
0.0964168
0.212324
0.314993
0.385295
0.365552
0.27997
0.227574
0.326862
0.35245
0.53265
0.606358
0.549072