/*--------------------------------*- C++ -*----------------------------------*\
| =========                 |                                                 |
| \\      /  F ield         | OpenFOAM: The Open Source CFD Toolbox           |
|  \\    /   O peration     | Version:  2212                                  |
|   \\  /    A nd           | Website:  www.openfoam.com                      |
|    \\/     M anipulation  |                                                 |
\*---------------------------------------------------------------------------*/
FoamFile
{
    version     2.0;
    format      ascii;
    arch        "LSB;label=32;scalar=64";
    class       volScalarField;
    location    "0";
    object      relativeErrorField;
}
// * * * * * * * * * * * * * * * * * * * * * * * * * * * * * * * * * * * * * //

dimensions      [0 0 0 1 0 0 0];

internalField   nonuniform List<scalar> 
3200
(
0.00790245
0.00391911
0.000247861
0.00164229
0.00320133
0.00354815
0.00378889
0.00361025
0.00359639
0.0033996
0.00329184
0.00350188
0.00372974
0.0042947
0.00486804
0.00511167
0.00448106
0.00317167
0.000620495
0.00301082
0.00718912
0.00397108
0.000585891
0.00121665
0.00237539
0.00269487
0.003045
0.00272509
0.00256926
0.00230309
0.00232396
0.00236355
0.00286648
0.00352565
0.00378004
0.00400112
0.00361393
0.00247318
0.00026973
0.00288135
0.00625271
0.0036283
0.00109103
0.000862034
0.00162873
0.00214302
0.00249421
0.00213483
0.00213664
0.00187484
0.00190342
0.00174331
0.00218797
0.00271039
0.00288632
0.00305647
0.00264567
0.00161523
0.000500152
0.00302259
0.0053487
0.00316398
0.000877808
0.000556868
0.00138591
0.00169053
0.00168765
0.00174257
0.00146924
0.00141611
0.00129755
0.00167891
0.00155647
0.0021994
0.00215451
0.0023838
0.00206778
0.000929046
0.000644016
0.00253614
0.00426174
0.00273411
0.00106039
0.000351003
0.000918722
0.00119308
0.00144779
0.00120977
0.00102329
0.0010303
0.00078775
0.00103817
0.0011494
0.00140979
0.00170655
0.00138361
0.00153653
0.000602151
0.000726075
0.00223385
0.00314324
0.0018921
0.00065648
0.000173945
0.000679052
0.000644285
0.000872308
0.00088918
0.000761213
0.000942419
0.000542644
0.000684819
0.000694462
0.00106098
0.00113343
0.00118306
0.00104836
0.000241535
0.000759082
0.00150173
0.0019652
0.00119936
0.000234964
0.000260214
0.000373672
0.00050343
0.000702153
0.000386152
0.000510742
0.000417925
0.000261754
0.000472629
0.000285064
0.000406506
0.000443075
0.000529304
0.000645375
8.6485e-06
0.000719406
0.00102533
0.000682117
0.00033256
0.000137622
0.000198166
9.363e-07
4.37037e-05
0.000199305
0.000471487
0.000173836
9.43573e-06
0.000102709
0.00012433
0.000135609
3.50235e-05
0.000272677
0.000687738
0.000442726
0.000211587
0.000149451
0.000234211
0.00806233
0.00386602
0.000718172
0.00156865
0.00252993
0.00299584
0.00315782
0.00269235
0.0022241
0.00189795
0.00189446
0.00224401
0.00275875
0.00349859
0.00384077
0.00448367
0.00400472
0.00277138
0.000167003
0.00303822
0.0072071
0.0040583
0.00111816
0.000932537
0.00177018
0.00206311
0.00226857
0.00187992
0.00166723
0.00151204
0.00136835
0.00148219
0.00197786
0.00252533
0.00293184
0.0035102
0.00304066
0.0020068
0.000416675
0.00319815
0.00619642
0.00361684
0.00102339
0.000533841
0.00161932
0.00153555
0.00191797
0.00149372
0.00117757
0.00114486
0.00103407
0.00132535
0.00128613
0.00150225
0.00235681
0.00253806
0.00244997
0.00123845
0.000603848
0.0031149
0.00573758
0.00326212
0.00122057
0.000267211
0.00113909
0.00129946
0.00112382
0.00112075
0.000891222
0.000631104
0.000579184
0.000676047
0.00074016
0.0015416
0.00136946
0.00184129
0.00169457
0.000879174
0.000702841
0.00290222
0.00449934
0.00252667
0.000963942
0.000117831
0.000645777
0.000884652
0.000818099
0.000672699
0.000808504
0.000568477
0.000482937
0.000477647
0.000810324
0.000797078
0.000993418
0.00146684
0.00120527
0.000478972
0.000875354
0.00236668
0.00343068
0.00199533
0.000959763
0.000146662
0.000335386
0.000679073
0.000430321
0.00065117
0.000409004
0.00044753
0.000167042
0.000382433
0.000436526
0.000613635
0.00078744
0.000953698
0.000704548
0.000136074
0.000614955
0.00181546
0.00190198
0.00135112
0.000468356
8.09678e-05
0.000266321
0.000462742
0.000406145
0.000109995
0.000178978
0.000399087
0.000190524
0.00015605
7.61908e-05
0.000427237
0.000485517
0.000692173
0.000265302
0.00010903
0.000810236
0.0013025
0.000575193
0.000434646
5.42642e-05
0.000212471
9.73455e-05
7.86823e-06
0.000334167
0.000130493
0.000234993
0.000130668
9.61524e-05
0.000244258
5.34943e-05
0.000391009
0.000136363
0.000291913
0.00027165
7.45685e-05
6.85512e-05
0.000303408
0.00818143
0.00453155
0.00121629
0.000722336
0.00167827
0.00189822
0.00157007
0.000959463
0.000816107
0.000183762
7.79975e-06
0.000499141
0.000652805
0.00169192
0.00280024
0.00323952
0.0032379
0.00206984
0.000127134
0.00356654
0.00744325
0.00438918
0.00158303
0.000279665
0.00137481
0.0014672
0.000988577
0.000746433
0.000280619
0.000186386
0.000209592
2.87118e-05
0.000464997
0.00120763
0.0020568
0.0023876
0.00207191
0.00130988
0.000966561
0.00372731
0.00674693
0.00396955
0.00138689
9.90039e-05
0.000777475
0.000923141
0.0010863
0.000379367
0.000126858
0.000210093
0.000238687
0.000175302
0.000135538
0.000751184
0.00136194
0.00182842
0.00169914
0.000613365
0.00140595
0.00351361
0.00573474
0.00362072
0.00139692
0.000302914
0.000639864
0.000708817
0.000394689
0.000283432
5.2e-05
0.000376544
0.000571334
0.000498007
0.000170522
0.000445162
0.00102064
0.00114884
0.00116442
0.000505277
0.001373
0.00319465
0.00462832
0.00282665
0.00105332
0.000317717
0.000529874
0.000364639
0.000237505
0.000276035
0.000225704
0.000503471
0.000552994
0.000350676
0.000208278
3.48721e-05
0.000470761
0.000794549
0.000807673
0.000101378
0.00114468
0.00245727
0.00374576
0.00211086
0.00104935
0.000191396
0.000304163
0.000214159
0.000446738
1.04114e-05
0.000150618
0.000309938
0.000351004
0.000372544
0.000202045
0.000271985
0.000552772
0.000607732
0.000483376
7.75369e-05
0.000988509
0.00212628
0.00202454
0.00149059
0.000744503
0.000221834
0.000208373
0.000104137
7.37386e-05
2.5965e-05
5.87192e-05
0.000316129
0.000201772
0.000215964
2.5666e-05
0.000135885
0.000184914
0.000254779
0.000343878
0.000175227
0.000674319
0.00138405
0.000528815
0.000269053
0.000230708
6.13892e-05
0.000217398
0.000326156
6.16047e-05
9.72915e-05
0.000146877
9.81001e-05
8.20281e-06
4.05439e-05
3.28767e-07
5.22229e-05
7.77954e-05
2.01745e-05
5.94489e-06
4.2561e-05
0.00030497
0.000365749
0.00889099
0.00545619
0.00222808
0.000341444
0.000738252
0.000438483
0.000230678
0.000694175
0.00104249
0.00209896
0.00215037
0.00188282
0.00122358
1.04125e-05
0.00101019
0.00173533
0.00198524
0.00105136
0.00134556
0.00419682
0.00827425
0.00539287
0.00233501
0.000481405
5.92935e-05
0.000324383
0.000194025
0.000956431
0.00146928
0.0019384
0.0021272
0.00193222
0.00129872
0.000465843
0.000161726
0.00110522
0.00111242
0.000523596
0.00183626
0.00438181
0.00731636
0.00465664
0.00227391
0.000726051
6.81984e-06
0.000101937
0.000330181
0.0010222
0.00139559
0.00191353
0.00213303
0.00174587
0.00139397
0.000516424
0.000119919
0.000588938
0.000648102
0.000125545
0.00192952
0.00433695
0.00600965
0.00406931
0.00200442
0.000652386
0.000484742
1.40531e-05
0.000368191
0.000670541
0.00123525
0.00160443
0.00174591
0.00187422
0.00129601
0.0008307
0.000234999
0.000446236
0.000251246
0.00030434
0.00186343
0.00405025
0.00480614
0.00335151
0.00209215
0.000673801
0.000322643
8.68658e-05
0.000540789
0.000840828
0.000851468
0.00127708
0.00149341
0.00120049
0.00118552
0.000529075
0.00020918
7.24751e-05
0.000137947
0.000492883
0.00117322
0.00308408
0.00327863
0.00234063
0.00155619
0.000452183
0.000247228
6.8973e-05
0.000405716
0.000672897
0.000877695
0.000874305
0.000980951
0.00121612
0.000716853
0.000447781
0.000243045
0.000116517
2.41162e-05
0.000530509
0.00113952
0.00237033
0.00228639
0.00177401
0.000709726
0.000434728
0.000276563
7.13705e-05
0.000220593
8.19217e-05
0.000790198
0.000709134
0.000642081
0.000387983
0.000476524
0.000551182
9.33914e-05
2.45925e-05
0.000174074
0.000272215
0.000677764
0.00135372
0.000652247
0.000467551
0.000390402
0.000223538
0.00013687
8.7926e-07
0.000121008
6.32342e-05
0.000360688
0.00038871
0.000352979
0.000219603
5.66478e-05
0.00014222
6.82241e-06
0.000163561
2.41669e-05
2.56581e-05
0.000287828
0.000404047
0.00957329
0.00608293
0.00353183
0.00166718
0.000944195
0.000809278
0.00129872
0.0025879
0.00334432
0.00392979
0.00442069
0.00401213
0.00350068
0.00189849
0.000991022
0.000317457
0.000458052
0.000206123
0.00242121
0.00524217
0.00883903
0.00591338
0.0032404
0.00181043
0.00103143
0.000987134
0.00165277
0.00238675
0.00311172
0.00403728
0.00402179
0.00396106
0.00304526
0.00225851
0.00100259
0.000300524
6.97572e-05
0.00093143
0.00248892
0.00490419
0.00797498
0.00555389
0.00327188
0.00180228
0.00129637
0.00107321
0.00162973
0.00192437
0.0028459
0.00341321
0.00344722
0.0031784
0.00295745
0.00214318
0.00104047
0.000523607
0.000639151
0.00130222
0.00267861
0.00482269
0.00687578
0.00493619
0.00286845
0.00160629
0.00100959
0.0010716
0.00135561
0.00191198
0.00232664
0.00278862
0.00313109
0.00297071
0.00261846
0.00186363
0.00109195
0.000567323
0.00071915
0.00105395
0.00253971
0.00427206
0.00527925
0.0039333
0.00232512
0.00135003
0.000745632
0.000922361
0.00122392
0.00164893
0.00208516
0.00231083
0.0023439
0.0023903
0.00212274
0.00169595
0.00108981
0.000575445
0.000631986
0.000902583
0.00212952
0.00339163
0.00394031
0.00290463
0.00161184
0.000784829
0.000700412
0.000789634
0.000720175
0.00125853
0.00169125
0.00192131
0.00194875
0.00172889
0.00145877
0.00119866
0.000730888
0.000516856
0.000357462
0.00103406
0.00165981
0.00273761
0.00234352
0.00178299
0.00101306
0.000794179
9.40906e-05
0.00045756
0.000809026
0.000598981
0.000958874
0.00107923
0.00126843
0.00107141
0.000921289
0.000876199
0.000615782
0.000300908
0.000465809
0.000569559
0.00112049
0.00159734
0.000977395
0.000681472
0.000233291
0.000174952
1.21153e-05
0.000168845
0.000198019
0.000329205
0.000367244
0.000109813
0.000262263
0.000293499
0.000457762
0.000105352
0.000248269
8.07671e-06
1.08397e-05
0.000239731
0.000578667
0.000605521
0.0106617
0.00729225
0.0046646
0.00274878
0.00238241
0.00249875
0.00336756
0.00419059
0.00543008
0.00638758
0.00645623
0.0063588
0.00540259
0.00396174
0.0025348
0.00151489
0.00128724
0.00183333
0.00366845
0.00636677
0.00978835
0.00685863
0.00431476
0.00288693
0.00246874
0.00244747
0.00316251
0.00394257
0.00478773
0.00561106
0.00585129
0.00580372
0.00509305
0.00379763
0.00258654
0.00149222
0.00133793
0.00230696
0.00365161
0.00590647
0.00866556
0.00652945
0.00408524
0.00276957
0.00209756
0.00245358
0.00270575
0.00365579
0.00427621
0.00491564
0.00530966
0.00522678
0.00445242
0.00362141
0.0025641
0.00156769
0.00162556
0.00219743
0.00383377
0.00549583
0.00725998
0.00543845
0.00352951
0.00234824
0.00159962
0.00213571
0.00245302
0.0029843
0.00380152
0.00446033
0.00440423
0.00437609
0.00386918
0.0030293
0.00221036
0.00161041
0.00154772
0.00210744
0.00362618
0.00502165
0.00588011
0.00444887
0.00285357
0.00181695
0.00161643
0.00150396
0.00195134
0.00256181
0.00309319
0.00344835
0.00354217
0.00350868
0.00288541
0.00237822
0.00172515
0.00133425
0.00132114
0.00174127
0.00279074
0.00425175
0.00423154
0.00306837
0.00218385
0.00147233
0.0012197
0.00110394
0.00152205
0.00170516
0.00231548
0.00236798
0.0026548
0.00266636
0.00222826
0.00172436
0.00121188
0.000917785
0.000862027
0.00132866
0.00207076
0.00314819
0.00273134
0.00191346
0.00148585
0.000837351
0.000955036
0.000827878
0.00109351
0.00145215
0.00121351
0.00158292
0.00152688
0.00131993
0.00124244
0.00107766
0.000750657
0.000614326
0.000770848
0.000928721
0.0013505
0.00157521
0.000929313
0.00052173
0.00043509
0.000369789
3.32172e-05
0.000382238
0.000435477
0.000354255
0.000432427
0.000543601
0.000669332
0.000450045
0.000276076
0.000416269
0.000443218
0.000237604
0.000272932
0.000242257
0.00024344
0.000635006
0.0116394
0.0085768
0.00596058
0.00420641
0.00376073
0.00416582
0.00483541
0.00609328
0.00733465
0.00832591
0.00874402
0.0085911
0.00745532
0.00598211
0.00424039
0.0031755
0.0026692
0.00325433
0.00524987
0.00762404
0.0108418
0.00801223
0.00555603
0.00404157
0.00367771
0.00359156
0.00450959
0.0056362
0.00649975
0.00752032
0.00776763
0.00744752
0.0069718
0.00546181
0.00400967
0.00342336
0.00290192
0.00355365
0.00501914
0.00691411
0.00915226
0.00713541
0.0051293
0.00369847
0.00316619
0.00340348
0.00406246
0.00485156
0.00575737
0.00640637
0.00671485
0.0065679
0.00614428
0.00489168
0.0040005
0.00295445
0.00285083
0.0032305
0.00478605
0.0062244
0.00810385
0.0064009
0.00485639
0.00347626
0.00269655
0.00310079
0.00326395
0.00418582
0.00498509
0.00550359
0.00598721
0.00575637
0.00488418
0.00408809
0.00343091
0.00248047
0.00245807
0.00304936
0.00402984
0.00563185
0.00623733
0.00478223
0.00353042
0.0024143
0.00221446
0.00255176
0.00280514
0.00315421
0.00382626
0.00431524
0.00450472
0.00453754
0.0041276
0.00342515
0.00272869
0.00209549
0.00195327
0.0026215
0.00349851
0.00464246
0.00468729
0.00339033
0.00258298
0.00197148
0.00214832
0.00190333
0.00203088
0.00241693
0.00290431
0.0031679
0.00330804
0.00317415
0.00292681
0.00277288
0.00205491
0.00146918
0.00154736
0.00215397
0.00264684
0.00344703
0.00298838
0.00229926
0.00155798
0.00125214
0.00111184
0.00119439
0.00125892
0.0012506
0.00171316
0.00180853
0.00232941
0.00208376
0.00189327
0.00150323
0.00125522
0.000964512
0.00106354
0.00135709
0.00138313
0.00208566
0.00132211
0.000721659
0.000521128
0.000497804
0.000593079
0.000405859
0.000368584
0.000524379
0.000621129
0.000985863
0.00101281
0.000581902
0.000547763
0.000428111
0.000131271
0.000339133
0.000179838
9.42295e-05
0.000519154
0.000747979
0.0128711
0.0098989
0.00715228
0.00554694
0.00495021
0.00545556
0.00642281
0.0075481
0.00872765
0.0101067
0.0107063
0.0104905
0.00925911
0.00765895
0.00603731
0.00472811
0.00409857
0.00460994
0.00622862
0.00848672
0.0116271
0.00878395
0.00673279
0.00534448
0.00449725
0.00511381
0.00583029
0.00683902
0.00789501
0.00938345
0.00957239
0.00925812
0.00840849
0.00709065
0.00549927
0.00439276
0.00421808
0.00452779
0.00595863
0.00782864
0.0100703
0.00810342
0.00593047
0.00472955
0.00410367
0.00448617
0.00482104
0.00600032
0.00705723
0.00765932
0.00825933
0.00780167
0.00718507
0.00623593
0.00499163
0.00414343
0.00394224
0.00443942
0.00570434
0.00692673
0.00847597
0.00679235
0.00493122
0.00392675
0.00367767
0.00375605
0.00422736
0.00512337
0.00585698
0.0068231
0.00672177
0.00681022
0.0062778
0.00559536
0.00415854
0.0037268
0.00347933
0.00396116
0.00498752
0.00603499
0.00674669
0.00562065
0.00402583
0.00333385
0.00287206
0.00292117
0.00325237
0.00385612
0.00468367
0.0050359
0.00576119
0.00568341
0.00502728
0.00430647
0.0033424
0.00300147
0.00291923
0.00310433
0.00412255
0.00481751
0.00487803
0.00396761
0.00321563
0.00234108
0.00251609
0.00231311
0.002614
0.00288255
0.00334492
0.00384367
0.00411497
0.00390048
0.00347008
0.00296362
0.00262917
0.00220313
0.00228265
0.00225736
0.00315935
0.00376705
0.00315082
0.00248216
0.00200335
0.00146795
0.00127611
0.0014742
0.00182739
0.00198123
0.0022979
0.00231446
0.00241078
0.00239658
0.00220355
0.00206654
0.00163612
0.00116014
0.00145548
0.00151961
0.00169148
0.00244577
0.00112157
0.000786575
0.000646856
0.000643016
0.000248769
0.00031696
0.000257074
0.00051435
0.000347778
0.00110893
0.000900785
0.000709691
0.00106099
0.00059691
0.000656678
0.000275495
0.000217636
0.00062531
0.000717142
0.000783608
0.0133549
0.0105025
0.00828292
0.00679376
0.00617831
0.00658023
0.00757442
0.00866796
0.0102072
0.0117232
0.0121495
0.0116808
0.0107579
0.00885463
0.0073389
0.0059216
0.00531202
0.005717
0.00729271
0.00935557
0.0121133
0.00978744
0.00781605
0.00600472
0.00561937
0.00579268
0.00681182
0.00782539
0.00917043
0.0103165
0.0109279
0.0106132
0.00948598
0.00828003
0.00680034
0.00567783
0.00502473
0.00576115
0.00692935
0.00884062
0.0105012
0.00841473
0.00664682
0.00551353
0.00504234
0.0053596
0.00578464
0.00686011
0.00813909
0.00908479
0.00933935
0.00900771
0.00843392
0.00710779
0.00597636
0.00529276
0.00468474
0.00517975
0.00651631
0.00791359
0.00896106
0.00728247
0.00569016
0.00470302
0.00448664
0.00442326
0.00490776
0.00584498
0.00681283
0.00714127
0.00801133
0.00775872
0.00692923
0.0059839
0.00526068
0.00450124
0.00404289
0.00470052
0.00545186
0.00680668
0.00733371
0.00569616
0.00466655
0.00379176
0.00334247
0.00377687
0.00391817
0.00452829
0.00530663
0.00599145
0.0060482
0.0061898
0.00561794
0.00476281
0.00395667
0.00365674
0.00338164
0.00383772
0.00444267
0.00559796
0.00501359
0.00430347
0.00353084
0.0029013
0.00252646
0.00270164
0.00298989
0.00359084
0.00410034
0.00434864
0.00472477
0.00435537
0.00414679
0.00351231
0.00305815
0.00270562
0.00248814
0.00268018
0.00332859
0.00419304
0.00328911
0.00276296
0.00224782
0.00162411
0.00155298
0.00159908
0.00157868
0.00229182
0.0025775
0.0025059
0.00284198
0.00270263
0.00278432
0.00208271
0.00183585
0.00177693
0.00161718
0.00183202
0.00221878
0.0027882
0.00109818
0.00110665
0.000898233
0.000636475
0.000700451
0.000662678
0.000637902
0.000712799
0.000743265
0.000887864
0.00106918
0.00111272
0.000846374
0.00101033
0.000557835
0.00050556
0.00025194
0.000464022
0.000689742
0.000851167
0.0140361
0.0113258
0.00911813
0.00761716
0.00722109
0.0075762
0.00840641
0.00961636
0.0111976
0.0124772
0.0128685
0.0127448
0.0116753
0.0101582
0.0081326
0.00679574
0.00648313
0.00670387
0.00785855
0.00993016
0.012641
0.0104165
0.00820728
0.00695307
0.00670781
0.00664305
0.00760435
0.0086395
0.00995904
0.0109405
0.0117634
0.0115391
0.0103113
0.00903153
0.00756748
0.00642865
0.00621454
0.0063014
0.00753948
0.00926035
0.0109378
0.00923738
0.00729861
0.00635774
0.005617
0.0061786
0.00642983
0.00747742
0.00855475
0.00952408
0.0101665
0.00979331
0.00928588
0.00814112
0.00673025
0.00583765
0.00530228
0.00590689
0.00708948
0.00824716
0.00949765
0.00770541
0.00636807
0.00553972
0.00504906
0.00508546
0.00558084
0.00632556
0.00741007
0.0080302
0.00810564
0.00820467
0.00765358
0.00664236
0.00565114
0.00512752
0.00457189
0.00493737
0.00595441
0.00746167
0.00742016
0.00656459
0.00491212
0.00419433
0.0040168
0.00404132
0.00467062
0.00505424
0.00570336
0.00651351
0.00661751
0.00658831
0.00599173
0.00546033
0.00470852
0.00417574
0.00389767
0.00433734
0.0050459
0.00575011
0.00528115
0.00483323
0.00375588
0.00344499
0.00303824
0.00289489
0.00334721
0.00360875
0.0042568
0.00465253
0.00473204
0.00486298
0.00458415
0.0042181
0.00331816
0.0028988
0.00289875
0.00284559
0.00389007
0.00440027
0.00340255
0.00288187
0.00229312
0.00199012
0.00162821
0.00169143
0.00191186
0.00239643
0.00239766
0.00283585
0.00285263
0.00332315
0.00263141
0.00212192
0.00210923
0.00207813
0.00162067
0.00215283
0.00213864
0.0026578
0.00112587
0.000851499
0.000581713
0.000681794
0.000432756
0.000402801
0.000532477
0.000794351
0.000932196
0.00100086
0.00115196
0.00107731
0.00106788
0.000910739
0.00075279
0.000618804
0.00075059
0.000835317
0.000663721
0.000836215
0.0144833
0.0118145
0.00977789
0.00839811
0.00750646
0.0078353
0.0087779
0.00996386
0.0117172
0.0125037
0.0134727
0.0130488
0.0121381
0.0102677
0.00863198
0.00744084
0.00698122
0.00720137
0.00828717
0.0102009
0.0128995
0.0103826
0.00858085
0.00730844
0.00713746
0.00728668
0.00795815
0.00928552
0.0102186
0.0113383
0.012066
0.0115056
0.0107597
0.00954727
0.00809667
0.00670771
0.00641679
0.0068024
0.00770803
0.00965744
0.0115062
0.00943303
0.00774683
0.00670378
0.00627133
0.00626757
0.00699599
0.00827516
0.00887305
0.0098
0.0101369
0.0101388
0.00933113
0.0085723
0.00704487
0.00611142
0.00576561
0.00635758
0.00733999
0.00861478
0.00961384
0.00793541
0.00672034
0.00544591
0.0053698
0.00550299
0.00594415
0.00682327
0.00757751
0.00820492
0.00864602
0.00864994
0.00797559
0.00706387
0.00618998
0.00540315
0.00521088
0.00566544
0.00637437
0.00736544
0.00733928
0.00630746
0.00522508
0.00462745
0.0042161
0.00427579
0.00472164
0.00529968
0.00606163
0.00642228
0.00720541
0.00675508
0.00637076
0.00570316
0.00492163
0.00425738
0.00432855
0.0045462
0.00531045
0.00599439
0.00552961
0.00473951
0.00381873
0.00337398
0.00317523
0.00326221
0.00352805
0.00381799
0.00430852
0.00478522
0.00496333
0.00485818
0.00468592
0.00425995
0.00351893
0.00314481
0.0032266
0.0032131
0.00375938
0.00442205
0.00362444
0.00293545
0.00258575
0.00224982
0.00199685
0.00207559
0.00212003
0.00237424
0.00247475
0.00292126
0.0032527
0.00301612
0.00288991
0.00256589
0.00213673
0.00181141
0.00215124
0.00202583
0.00251731
0.00254485
0.00120163
0.000732232
0.00065402
0.000681984
0.000274679
0.000661838
0.000600348
0.000858861
0.00092308
0.00107774
0.00100131
0.00093443
0.000901429
0.000717626
0.00100491
0.000832317
0.000787516
0.000886828
0.00104912
0.000954576
0.0142748
0.0118524
0.00981721
0.00841183
0.00779559
0.00801365
0.0089082
0.0100155
0.0114356
0.0123858
0.0132241
0.0127101
0.0116467
0.0102204
0.00882758
0.00758399
0.00717435
0.00754124
0.00860498
0.0100148
0.0130769
0.0109825
0.0088803
0.00754493
0.00743338
0.00722548
0.00831303
0.00961835
0.0103114
0.011449
0.0116625
0.0114017
0.0104676
0.00949441
0.0079829
0.00718375
0.00670968
0.00704432
0.00812937
0.00974551
0.0113349
0.00933138
0.00807054
0.00695953
0.00657389
0.00667034
0.00690222
0.0080547
0.00901484
0.00958395
0.0100818
0.00985813
0.00913559
0.0080197
0.00723241
0.00628806
0.00595171
0.0062506
0.0071189
0.00879295
0.00950761
0.00816869
0.0069619
0.00574247
0.00548941
0.00572678
0.00578962
0.00697954
0.00744441
0.0081265
0.00859706
0.00831527
0.00769289
0.00693555
0.00606819
0.00553459
0.00522861
0.00537505
0.00659219
0.00748284
0.00781372
0.00652191
0.00566083
0.00493725
0.004232
0.00443341
0.00490525
0.00542767
0.006076
0.00645675
0.00671407
0.00636779
0.00612037
0.00552868
0.00502978
0.00461168
0.00427331
0.00472014
0.00523191
0.00606174
0.00570207
0.0048528
0.00404752
0.00323727
0.00341284
0.00343541
0.00376255
0.00384511
0.00446415
0.00466798
0.00513725
0.00502697
0.00452995
0.00418427
0.00341308
0.00321766
0.0032379
0.0033655
0.00389329
0.00444096
0.00342686
0.00286165
0.00258606
0.00197817
0.00207102
0.00170363
0.00215337
0.00246651
0.00271926
0.00302539
0.00297586
0.00295323
0.00272882
0.00243318
0.00250535
0.00199449
0.00197573
0.00203125
0.00238457
0.00281936
0.00113554
0.000684324
0.0008906
0.000798287
0.000453343
0.000894147
0.000669196
0.0005742
0.000766001
0.00113474
0.00125294
0.00109127
0.000862984
0.000900888
0.000915278
0.000664033
0.000884145
0.000858636
0.000769866
0.00125638
0.0142175
0.0120473
0.00964243
0.008547
0.00806671
0.00790989
0.00855553
0.00976199
0.0109978
0.0119726
0.0122192
0.0120654
0.0109513
0.00995976
0.00832641
0.00715113
0.0069373
0.0070076
0.00841291
0.00985237
0.0127153
0.0107329
0.00865102
0.00770079
0.0071901
0.00741367
0.00758565
0.00861998
0.00975779
0.0105074
0.011151
0.0109481
0.00990842
0.00896093
0.00767062
0.00682202
0.00671928
0.0069718
0.00800069
0.00923073
0.0109391
0.00936313
0.00772155
0.00680416
0.00647086
0.00649859
0.0071667
0.00783266
0.00847141
0.00927422
0.00942874
0.00928012
0.00887161
0.00776927
0.00662806
0.00626227
0.00582454
0.00611306
0.00692212
0.00836377
0.00939535
0.00814268
0.00685324
0.00581622
0.00561472
0.00554981
0.00603206
0.00638721
0.00743657
0.00767913
0.00792606
0.00790172
0.00733069
0.0066872
0.00572278
0.00521672
0.00515647
0.00513523
0.00613204
0.00731815
0.0074717
0.0066512
0.00546564
0.0049301
0.0043309
0.00457299
0.00477561
0.00513138
0.0055413
0.00642584
0.00657861
0.00619964
0.00601758
0.00545241
0.00456341
0.00417455
0.00405102
0.00430842
0.00509012
0.00592938
0.0055829
0.0047275
0.00390875
0.00325783
0.00312463
0.00325964
0.00350222
0.00391967
0.00416366
0.00440794
0.00453626
0.00465685
0.00433933
0.00378944
0.00357847
0.00345989
0.00307572
0.00330345
0.00372384
0.00434681
0.00339596
0.00297604
0.00243015
0.00210384
0.00208531
0.00199285
0.00215769
0.00245867
0.00244869
0.0027986
0.00291322
0.00288356
0.00265027
0.00228904
0.00195015
0.00203506
0.00205098
0.00208602
0.00256232
0.00269215
0.00141216
0.000879743
0.000826597
0.000911108
0.000913436
0.000588623
0.000690465
0.000752323
0.000868095
0.000999838
0.0011109
0.000966725
0.00106162
0.000852973
0.000685218
0.000575824
0.000746435
0.000858448
0.000888051
0.000762185
0.01348
0.0113168
0.00907878
0.00814338
0.00752337
0.00756571
0.00793389
0.00882634
0.00974557
0.0108876
0.0110215
0.0109085
0.00983873
0.00872765
0.00746889
0.00633094
0.00617704
0.00651496
0.00759964
0.00934532
0.0123048
0.0102657
0.00833092
0.00719013
0.00688414
0.00654414
0.0071752
0.00795995
0.00875314
0.00993338
0.00985321
0.00967585
0.00875692
0.0077595
0.00701844
0.00590469
0.00583444
0.00611589
0.00726033
0.00864346
0.0105676
0.00914363
0.00766696
0.00640952
0.00590475
0.00642839
0.00630487
0.00720416
0.00781451
0.00852574
0.00863582
0.00850474
0.00792843
0.00722325
0.00616749
0.00558037
0.00556635
0.00596218
0.00674492
0.00787157
0.00916728
0.00770941
0.00641785
0.00566254
0.00527541
0.00517309
0.00527638
0.0058507
0.0067027
0.00698882
0.00715666
0.00732669
0.00688919
0.0058963
0.00545618
0.00490979
0.00478652
0.00498219
0.00582994
0.00689509
0.00727355
0.00608846
0.00514565
0.00475643
0.00411397
0.00434451
0.00431589
0.00474216
0.00532677
0.00567135
0.00587744
0.00568033
0.00536328
0.00484379
0.00430233
0.00392767
0.00393428
0.00401293
0.00465776
0.0055813
0.00529679
0.00427732
0.00380659
0.00342115
0.00320604
0.00301183
0.00319028
0.00341214
0.00373845
0.00420262
0.00409274
0.00408975
0.00386607
0.00362414
0.00331148
0.0030529
0.00268895
0.00322792
0.00355621
0.00443335
0.00341156
0.00276094
0.0024579
0.00207747
0.00185375
0.00187327
0.00202631
0.00203278
0.00230824
0.00231549
0.00274915
0.00256082
0.00234635
0.00225471
0.001831
0.00194827
0.00180122
0.00208329
0.00238474
0.00252354
0.00106083
0.00139852
0.000661861
0.000713957
0.000387595
0.00055594
0.000547417
0.000782431
0.000686093
0.00082894
0.000904397
0.000810462
0.000902592
0.000792941
0.000715827
0.000599439
0.000656606
0.000763153
0.000761358
0.000900348
0.0123635
0.010246
0.00842736
0.00725651
0.00661071
0.00633039
0.00679621
0.00766598
0.00829285
0.00890035
0.00948232
0.00912034
0.00826298
0.00731013
0.00625577
0.00558868
0.00498174
0.00533164
0.00646856
0.0082262
0.0117077
0.00937567
0.00773933
0.00676804
0.00591243
0.00598312
0.00606223
0.00690668
0.00757999
0.00798375
0.00835508
0.00822623
0.00761699
0.00692336
0.00568491
0.00535091
0.00481828
0.00535866
0.00642989
0.00778427
0.00998831
0.00840675
0.00694154
0.00595042
0.00544667
0.00535723
0.00562444
0.00618625
0.00658507
0.0071699
0.00743572
0.0072322
0.00672444
0.00607171
0.00538481
0.00471031
0.00465328
0.00498806
0.0060345
0.00713259
0.0085798
0.00730798
0.00593212
0.00490725
0.00459101
0.00459091
0.00495389
0.00531095
0.00556836
0.0058984
0.00611933
0.00624397
0.00579172
0.0051951
0.00449538
0.00424926
0.00398329
0.00405419
0.00516717
0.00610055
0.00670816
0.00577046
0.00474723
0.00410264
0.00394712
0.0035022
0.00394982
0.0042505
0.00420928
0.00488657
0.00522647
0.00469509
0.00470058
0.00433723
0.00365351
0.00332597
0.00330819
0.00359815
0.00435405
0.00499703
0.00537794
0.00432483
0.00350493
0.00281378
0.00272398
0.00273394
0.00294138
0.00290917
0.0034453
0.00360166
0.00338095
0.00353919
0.00345067
0.00311546
0.002724
0.00246177
0.00262901
0.00265838
0.00295148
0.00377115
0.00322114
0.00274982
0.00212048
0.00193939
0.00190379
0.00159147
0.00154133
0.00184194
0.00215312
0.00222954
0.00222346
0.00248128
0.00202229
0.00174322
0.00171565
0.0016306
0.00146844
0.00179995
0.0019088
0.00228091
0.000883121
0.00100799
0.000836482
0.000877537
0.000687161
0.000631722
0.000432757
0.000535297
0.000557249
0.000696114
0.000645135
0.000809705
0.000560642
0.000637392
0.000563295
0.00101332
0.000805704
0.000354964
0.000537004
0.000659859
0.0111806
0.00925669
0.00731712
0.00596174
0.0049435
0.00489098
0.00526333
0.0060561
0.00653779
0.00700233
0.00721724
0.00697549
0.00625796
0.00536107
0.00461093
0.00369209
0.00362726
0.0040317
0.00528772
0.0068756
0.0102997
0.00868765
0.00665984
0.00554915
0.00488917
0.00485379
0.00500896
0.00552752
0.00590449
0.00627369
0.00646903
0.00653587
0.00587146
0.00516312
0.00436586
0.00401107
0.00368669
0.00416701
0.00525781
0.00667774
0.00896639
0.00752795
0.00597349
0.00498713
0.00438274
0.00413079
0.00440776
0.00519019
0.00529678
0.00557421
0.00578796
0.00565008
0.00524414
0.00478927
0.003931
0.00354641
0.00337636
0.00404455
0.00493488
0.0061647
0.00776978
0.00638419
0.00512672
0.00430081
0.00369602
0.00393289
0.0038442
0.00412706
0.00456494
0.00487201
0.00501651
0.00497809
0.00451483
0.004336
0.00365006
0.00328372
0.00292673
0.00336801
0.00437913
0.00545991
0.00612957
0.00516222
0.00420039
0.00345004
0.00334065
0.00283798
0.00306093
0.00339033
0.00382173
0.00390213
0.0040298
0.00378832
0.00369421
0.0034099
0.00309583
0.00256805
0.00282079
0.00302901
0.00369835
0.00442603
0.00460537
0.00365809
0.00305859
0.00262544
0.00223312
0.00224991
0.00216388
0.00244426
0.00273052
0.00287276
0.00295035
0.00267664
0.00260196
0.0025648
0.00226822
0.00206611
0.00229386
0.00224591
0.00262619
0.00325568
0.00264964
0.00214697
0.00215595
0.00169882
0.0013778
0.0012234
0.00151624
0.0015862
0.00180799
0.00165703
0.00179036
0.00164247
0.00160815
0.00137736
0.00128502
0.00123864
0.00122174
0.00145269
0.0018298
0.00197825
0.0010935
0.000820381
0.000904364
0.000517069
0.000217396
0.000479476
0.000508326
0.000433775
0.000723874
0.000436938
0.000783187
0.000552322
0.000861885
0.000445563
0.000527741
0.000297039
0.000621991
0.000486528
0.000440009
0.000876607
0.0097673
0.00779846
0.00581464
0.00447241
0.00365277
0.00330104
0.00353787
0.00401838
0.00432262
0.00472163
0.00478144
0.00458443
0.00402584
0.00313703
0.00234301
0.00227706
0.00187814
0.00240611
0.00371132
0.00490434
0.00875909
0.00736672
0.00539136
0.00429038
0.00340303
0.00355771
0.00343884
0.00390992
0.00397188
0.00456506
0.00446411
0.00436026
0.00366048
0.00317105
0.00265872
0.00228996
0.0024086
0.00265561
0.00402519
0.00491675
0.00774726
0.00627403
0.00490335
0.0040262
0.00317288
0.00305391
0.00312325
0.00335972
0.00359846
0.00430837
0.00396617
0.00402618
0.00357233
0.00323803
0.00266557
0.00228004
0.00240134
0.00269965
0.00367846
0.0047106
0.00675426
0.00550279