/*--------------------------------*- C++ -*----------------------------------*\
| =========                 |                                                 |
| \\      /  F ield         | OpenFOAM: The Open Source CFD Toolbox           |
|  \\    /   O peration     | Version:  2212                                  |
|   \\  /    A nd           | Website:  www.openfoam.com                      |
|    \\/     M anipulation  |                                                 |
\*---------------------------------------------------------------------------*/
FoamFile
{
    version     2.0;
    format      ascii;
    arch        "LSB;label=32;scalar=64";
    class       volScalarField;
    location    "0";
    object      stateMean;
}
// * * * * * * * * * * * * * * * * * * * * * * * * * * * * * * * * * * * * * //

dimensions      [0 0 0 1 0 0 0];

internalField   nonuniform List<scalar> 
3200
(
333.801
332.927
332.273
332.259
332.373
332.877
333.368
333.911
334.268
334.52
334.556
334.299
333.871
333.199
332.436
331.736
331.315
331.137
331.421
332.181
329.503
328.826
328.204
328.145
328.311
328.743
329.122
329.645
330.001
330.25
330.243
330.069
329.598
328.963
328.385
327.776
327.358
327.201
327.613
328.094
325.085
324.549
324.139
323.956
324.17
324.457
324.761
325.23
325.486
325.707
325.698
325.614
325.213
324.691
324.216
323.707
323.378
323.263
323.538
324.041
320.641
320.195
319.799
319.709
319.822
320.095
320.437
320.708
321.006
321.134
321.172
320.938
320.768
320.273
319.946
319.503
319.226
319.222
319.391
319.744
316.11
315.821
315.554
315.394
315.51
315.712
315.897
316.196
316.418
316.502
316.578
316.413
316.215
315.909
315.55
315.363
315.02
315.03
315.189
315.472
311.55
311.298
311.099
311.045
311.098
311.314
311.433
311.588
311.744
311.749
311.874
311.767
311.648
311.374
311.162
310.941
310.773
310.82
310.946
311.04
306.962
306.809
306.624
306.594
306.685
306.769
306.822
307.015
307.047
307.113
307.161
307.059
307.046
306.913
306.788
306.638
306.476
306.549
306.661
306.674
302.339
302.26
302.239
302.298
302.281
302.309
302.3
302.25
302.363
302.425
302.397
302.454
302.352
302.349
302.24
302.073
302.104
302.133
302.205
302.204
333.958
333.007
332.524
332.373
332.678
333.136
333.648
334.281
334.786
335.079
335.08
334.779
334.258
333.534
332.854
332.027
331.562
331.364
331.67
332.294
329.598
328.941
328.461
328.315
328.581
329.016
329.438
329.979
330.35
330.56
330.608
330.412
329.947
329.353
328.729
328.009
327.622
327.436
327.748
328.287
325.143
324.619
324.186
324.128
324.234
324.71
324.999
325.486
325.843
325.987
326.024
325.795
325.554
325.135
324.443
323.936
323.506
323.454
323.644
324.148
320.827
320.286
319.966
319.856
319.951
320.266
320.66
320.946
321.227
321.42
321.437
321.297
321.068
320.526
320.244
319.726
319.399
319.295
319.469
319.923
316.233
315.803
315.568
315.51
315.635
315.844
316.128
316.396
316.514
316.675
316.702
316.619
316.352
316.135
315.81
315.376
315.167
315.113
315.283
315.562
311.675
311.364
311.225
311.083
311.233
311.329
311.595
311.684
311.873
311.922
312.01
311.882
311.751
311.538
311.296
311.04
310.91
310.885
310.935
311.173
306.964
306.875
306.715
306.717
306.735
306.798
306.927
307.113
307.161
307.129
307.193
307.168
307.124
306.921
306.791
306.605
306.611
306.604
306.709
306.78
302.314
302.298
302.22
302.309
302.257
302.325
302.264
302.358
302.349
302.392
302.461
302.346
302.381
302.247
302.286
302.198
302.163
302.181
302.188
302.232
334.204
333.427
332.878
332.831
333.127
333.654
334.317
334.988
335.375
335.767
335.832
335.481
335.091
334.276
333.353
332.606
331.994
331.786
331.965
332.674
329.855
329.223
328.778
328.684
328.855
329.345
329.981
330.465
330.912
331.222
331.229
331.015
330.558
329.909
329.151
328.522
328.095
327.828
328.101
328.638
325.473
324.88
324.444
324.4
324.629
325.022
325.373
325.943
326.274
326.515
326.524
326.372
326.023
325.482
324.879
324.288
323.881
323.796
324.05
324.428
320.951
320.521
320.138
320.146
320.211
320.549
320.979
321.294
321.604
321.814
321.877
321.747
321.33
320.963
320.449
320.048
319.676
319.529
319.803
320.14
316.372
315.992
315.686
315.732
315.751
316.082
316.379
316.583
316.899
317.07
317.085
316.938
316.736
316.443
316.048
315.667
315.377
315.322
315.462
315.688
311.842
311.467
311.317
311.249
311.298
311.526
311.637
311.928
312.089
312.199
312.212
312.158
311.868
311.691
311.421
311.204
311.039
310.967
311.118
311.339
307.042
306.958
306.837
306.797
306.787
306.939
307.058
307.165
307.223
307.373
307.338
307.307
307.181
307.039
306.914
306.773
306.624
306.663
306.708
306.846
302.314
302.262
302.287
302.276
302.364
302.239
302.356
302.435
302.384
302.47
302.442
302.416
302.406
302.391
302.314
302.292
302.259
302.204
302.273
302.265
334.75
334.035
333.499
333.454
333.69
334.372
334.978
335.738
336.182
336.709
336.727
336.464
335.916
335.058
334.181
333.358
332.678
332.408
332.669
333.193
330.398
329.813
329.274
329.168
329.546
329.924
330.558
331.199
331.652
331.956
332.019
331.805
331.313
330.648
329.978
329.162
328.644
328.335
328.646
329.123
325.887
325.324
324.943
324.868
325.07
325.527
325.993
326.547
326.908
327.202
327.274
327.022
326.669
326.053
325.455
324.877
324.422
324.247
324.441
324.923
321.227
320.847
320.506
320.421
320.724
320.912
321.355
321.721
322.097
322.318
322.364
322.303
321.922
321.504
320.992
320.426
320.132
319.962
320.142
320.601
316.574
316.3
316.149
315.973
316.139
316.335
316.727
317.03
317.185
317.4
317.468
317.295
317.14
316.723
316.374
316.014
315.716
315.644
315.613
316.032
311.802
311.64
311.572
311.422
311.556
311.693
311.976
312.208
312.38
312.436
312.469
312.486
312.222
311.989
311.748
311.443
311.273
311.253
311.266
311.52
307.186
307.106
306.886
306.917
306.988
306.997
307.193
307.239
307.522
307.531
307.51
307.398
307.36
307.294
307.048
306.895
306.837
306.751
306.77
306.9
302.372
302.342
302.354
302.343
302.356
302.354
302.427
302.401
302.55
302.571
302.56
302.507
302.437
302.433
302.352
302.266
302.268
302.244
302.288
302.297
335.394
334.646
334.318
334.259
334.592
335.105
335.782
336.644
337.21
337.571
337.736
337.434
336.95
335.983
335.166
334.17
333.55
333.21
333.428
333.956
330.947
330.335
329.906
329.922
330.162
330.632
331.295
331.909
332.419
332.867
332.862
332.701
332.127
331.495
330.637
329.921
329.349
329.146
329.21
329.656
326.409
325.913
325.552
325.486
325.742
326.078
326.633
327.043
327.572
327.877
327.888
327.68
327.38
326.801
326.067
325.49
325.108
324.913
324.981
325.388
321.756
321.369
321.016
320.948
321.1
321.454
321.851
322.286
322.606
322.852
322.962
322.813
322.513
322.014
321.461
320.958
320.663
320.435
320.602
320.924
316.919
316.674
316.405
316.359
316.435
316.75
317.084
317.417
317.699
317.847
317.857
317.796
317.567
317.233
316.803
316.381
316.132
315.956
316.105
316.324
312.148
311.951
311.72
311.648
311.813
312.026
312.175
312.485
312.722
312.848
312.856
312.734
312.547
312.324
312.008
311.756
311.515
311.54
311.564
311.774
307.287
307.191
307.057
307.102
307.001
307.225
307.434
307.455
307.627
307.697
307.755
307.661
307.554
307.454
307.273
307.064
307.001
306.921
306.988
307.059
302.499
302.435
302.334
302.353
302.342
302.427
302.47
302.538
302.57
302.503
302.549
302.548
302.576
302.442
302.451
302.34
302.297
302.335
302.404
302.387
336.282
335.557
335.181
335.081
335.505
336.077
336.854
337.537
338.247
338.724
338.747
338.559
337.944
337.053
336.089
335.215
334.592
334.237
334.35
334.852
331.715
331.088
330.683
330.679
331.015
331.468
332.124
332.734
333.268
333.675
333.755
333.605
333.115
332.334
331.514
330.693
330.168
330.022
330.034
330.44
327.019
326.606
326.175
326.142
326.324
326.829
327.266
327.872
328.29
328.611
328.74
328.601
328.133
327.565
326.865
326.152
325.77
325.562
325.731
325.992
322.197
321.838
321.523
321.466
321.554
322.043
322.435
322.849
323.286
323.591
323.573
323.471
323.133
322.62
322.067
321.557
321.209
321.067
321.258
321.481
317.357
317.076
316.802
316.724
316.916
317.127
317.494
317.876
318.18
318.364
318.394
318.312
317.979
317.63
317.197
316.827
316.568
316.451
316.553
316.843
312.415
312.175
312.063
312.02
312.123
312.263
312.554
312.745
313.033
313.101
313.19
313.143
312.909
312.617
312.297
312.029
311.83
311.797
311.864
312.078
307.513
307.334
307.301
307.209
307.354
307.421
307.599
307.79
307.775
307.919
307.901
307.808
307.726
307.594
307.398
307.25
307.189
307.13
307.161
307.158
302.52
302.421
302.428
302.444
302.378
302.52
302.568
302.57
302.613
302.657
302.695
302.618
302.547
302.562
302.538
302.44
302.415
302.369
302.337
302.431
337.243
336.601
336.205
336.131
336.5
337.137
337.818
338.621
339.314
339.792
339.933
339.737
339.079
338.203
337.162
336.304
335.616
335.301
335.491
335.905
332.614
332.004
331.606
331.55
331.878
332.283
332.982
333.684
334.208
334.672
334.754
334.523
334.127
333.298
332.422
331.794
331.173
330.946
331.018
331.322
327.647
327.258
326.952
326.86
327.067
327.511
328.059
328.594
329.091
329.409
329.51
329.356
329.017
328.33
327.706
326.998
326.584
326.335
326.494
326.696
322.851
322.52
322.308
322.17
322.231
322.659
322.985
323.507
323.929
324.182
324.338
324.177
323.732
323.25
322.766
322.161
321.843
321.728
321.76
322.06
317.769
317.473
317.296
317.181
317.358
317.698
317.99
318.277
318.616
318.839
318.899
318.842
318.586
318.186
317.754
317.321
317.035
317.009
317.067
317.265
312.771
312.483
312.388
312.367
312.594
312.683
312.874
313.12
313.363
313.493
313.537
313.448
313.279
313.106
312.73
312.382
312.234
312.254
312.251
312.385
307.72
307.578
307.443
307.451
307.512
307.637
307.747
307.819
308.017
308.074
308.234
308.131
308.017
307.822
307.656
307.466
307.394
307.382
307.296
307.443
302.682
302.523
302.494
302.521
302.584
302.561
302.58
302.653
302.7
302.819
302.827
302.688
302.66
302.598
302.478
302.508
302.424
302.364
302.462
302.508
338.402
337.77
337.303
337.248
337.536
338.174
338.924
339.656
340.307
340.906
341.108
340.902
340.232
339.34
338.37
337.461
336.763
336.452
336.542
336.937
333.523
332.891
332.604
332.563
332.705
333.314
333.92
334.56
335.13
335.74
335.803
335.583
335.081
334.338
333.442
332.67
332.19
331.876
331.958
332.271
328.496
328.109
327.73
327.693
327.844
328.312
328.731
329.376
329.907
330.201
330.398
330.151
329.763
329.194
328.477
327.857
327.436
327.244
327.329
327.474
323.422
323.086
322.756
322.722
322.933
323.239
323.643
324.143
324.531
324.922
324.889
324.838
324.516
324.084
323.368
322.949
322.578
322.444
322.507
322.639
318.281
318.081
317.784
317.789
317.869
318.103
318.404
318.759
319.14
319.313
319.543
319.457
319.131
318.739
318.236
317.91
317.658
317.493
317.607
317.671
313.082
312.909
312.822
312.708
312.924
313.016
313.252
313.452
313.68
313.88
313.965
313.853
313.636
313.361
313.115
312.827
312.69
312.523
312.657
312.736
307.921
307.781
307.722
307.654
307.692
307.846
308.039
308.156
308.304
308.335
308.365
308.334
308.225
308.112
307.896
307.657
307.65
307.574
307.538
307.705
302.671
302.592
302.58
302.61
302.523
302.576
302.586
302.687
302.653
302.893
302.83
302.763
302.852
302.689
302.679
302.531
302.482
302.573
302.571
302.569
339.426
338.812
338.494
338.447
338.694
339.264
339.992
340.686
341.439
342.074
342.218
341.937
341.392
340.424
339.52
338.607
337.949
337.632
337.736
338.087
334.434
333.954
333.669
333.46
333.726
334.16
334.838
335.456
336.105
336.593
336.797
336.586
336.008
335.327
334.494
333.745
333.136
332.988
333.009
333.352
329.272
328.831
328.564
328.524
328.703
329.126
329.551
330.14
330.73
331.13
331.214
331.015
330.656
329.985
329.327
328.785
328.254
328.086
328.212
328.429
324.099
323.753
323.492
323.445
323.647
323.886
324.277
324.773
325.225
325.403
325.684
325.53
325.123
324.624
324.156
323.651
323.233
323.174
323.164
323.407
318.872
318.502
318.371
318.303
318.372
318.712
318.939
319.283
319.638
319.912
319.93
319.919
319.63
319.207
318.769
318.471
318.173
318.108
318.105
318.323
313.413
313.296
313.194
313.148
313.181
313.38
313.6
313.895
314.132
314.25
314.367
314.212
314.069
313.763
313.492
313.237
313.019
312.928
312.992
313.158
308.137
308.038
307.963
307.861
307.929
308.03
308.102
308.385
308.519
308.521
308.625
308.558
308.537
308.257
308.103
307.998
307.859
307.835
307.871
307.983
302.723
302.746
302.711
302.662
302.711
302.728
302.747
302.792
302.816
302.868
302.923
302.928
302.832
302.86
302.697
302.652
302.545
302.579
302.62
302.648
340.635
340.045
339.701
339.617
339.905
340.427
341.067
341.773
342.521
343.066
343.198
343.045
342.47
341.66
340.615
339.761
339.235
338.889
338.879
339.256
335.46
334.993
334.605
334.554
334.837
335.163
335.794
336.396
337.02
337.444
337.719
337.548
336.954
336.27
335.471
334.744
334.309
333.972
334.04
334.34
330.137
329.806
329.461
329.462
329.528
330.005
330.352
330.912
331.421
331.82
332.032
331.828
331.506
330.913
330.186
329.6
329.117
329.006
329.104
329.258
324.863
324.467
324.272
324.257
324.35
324.602
324.978
325.395
325.873
326.14
326.165
326.13
325.825
325.321
324.785
324.376
323.945
323.811
323.903
324.208
319.36
319.228
318.886
318.854
318.993
319.188
319.555
319.814
320.119
320.429
320.462
320.401
320.113
319.806
319.4
319.044
318.76
318.703
318.746
318.831
313.826
313.784
313.577
313.62
313.633
313.721
313.981
314.162
314.435
314.595
314.62
314.625
314.467
314.254
313.853
313.589
313.449
313.293
313.49
313.551
308.37
308.268
308.165
308.155
308.128
308.226
308.366
308.575
308.617
308.773
308.778
308.902
308.647
308.431
308.355
308.266
308.041
308.122
308.039
308.141
302.798
302.734
302.678
302.736
302.689
302.707
302.77
302.868
302.924
302.953
302.999
302.968
302.951
302.885
302.813
302.745
302.757
302.755
302.677
302.71
341.883
341.284
340.969
340.893
340.979
341.459
342.107
342.779
343.567
343.934
344.263
344.019
343.517
342.612
341.729
340.957
340.414
340.099
340.094
340.44
336.499
335.917
335.639
335.553
335.832
336.2
336.708
337.386
337.864
338.325
338.568
338.294
337.879
337.239
336.47
335.689
335.256
335.047
335.028
335.422
331.132
330.663
330.38
330.324
330.467
330.734
331.214
331.831
332.169
332.547
332.658
332.586
332.179
331.733
330.989
330.414
330.016
329.924
329.977
330.185
325.564
325.191
325.019
324.84
325.048
325.311
325.65
326.096
326.455
326.719
326.862
326.803
326.469
326.013
325.534
325.059
324.765
324.678
324.688
324.839
319.85
319.653
319.479
319.471
319.519
319.709
320.004
320.314
320.645
320.806
321.056
320.866
320.655
320.316
319.915
319.533
319.375
319.263
319.336
319.423
314.272
314.117
313.95
313.941
314.007
314.157
314.348
314.528
314.745
314.928
314.984
314.918
314.8
314.577
314.237
313.997
313.895
313.761
313.81
313.926
308.659
308.502
308.467
308.44
308.441
308.538
308.617
308.748
308.817
308.975
309.077
308.984
308.907
308.754
308.557
308.384
308.41
308.294
308.373
308.327
302.895
302.771
302.771
302.805
302.708
302.849
302.853
302.949
302.981
303.034
303.011
302.985
302.962
302.888
302.953
302.877
302.837
302.841
302.866
302.82
343.031
342.491
342.146
342.031
342.178
342.588
343.189
343.81
344.467
344.881
345.167
344.901
344.366
343.636
342.864
342.106
341.611
341.375
341.392
341.59
337.617
337.156
336.751
336.618
336.889
337.109
337.731
338.381
338.762
339.222
339.293
339.128
338.665
338.127
337.363
336.805
336.339
336.138
336.204
336.507
331.973
331.511
331.347
331.245
331.379
331.657
331.951
332.51
332.953
333.207
333.371
333.231
332.866
332.32
331.842
331.285
330.914
330.749
330.784
331.138
326.265
325.989
325.803
325.623
325.754
326.032
326.231
326.763
327.017
327.292
327.445
327.3
326.994
326.603
326.143
325.769
325.457
325.289
325.48
325.61
320.573
320.283
320.167
320.104
320.045
320.265
320.554
320.834
321.121
321.284
321.366
321.214
321.055
320.753
320.455
320.166
319.892
319.868
319.873
320.016
314.735
314.554
314.414
314.28
314.454
314.572
314.773
314.88
315.132
315.226
315.373
315.308
315.095
314.905
314.565
314.392
314.28
314.201
314.254
314.341
308.844
308.72
308.702
308.587
308.687
308.64
308.839
308.983
309.095
309.208
309.192
309.167
309.064
308.925
308.887
308.663
308.586
308.531
308.573
308.657
302.957
302.836
302.922
302.918
302.837
302.993
302.945
302.932
303.001
303.119
303.154
303.099
303.019
303.015
302.999
302.901
302.944
302.912
302.862
302.993
344.351
343.873
343.374
343.333
343.495
343.746
344.235
344.867
345.445
345.859
345.943
345.81
345.273
344.714
343.888
343.183
342.785
342.478
342.639
342.869
338.66
338.217
337.794
337.762
337.873
338.212
338.503
339.041
339.557
339.88
340.097
339.958
339.474
338.965
338.298
337.75
337.433
337.232
337.302
337.495
332.829
332.492
332.182
332.122
332.25
332.483
332.901
333.281
333.606
333.931
333.983
333.874
333.625
333.1
332.525
332.181
331.798
331.652
331.688
331.982
327.037
326.776
326.547
326.408
326.537
326.699
327.017
327.264
327.698
327.825
327.906
327.849
327.571
327.23
326.755
326.408
326.194
325.989
326.125
326.364
321.094
320.945
320.711
320.694
320.655
320.874
321.064
321.28
321.483
321.804
321.853
321.693
321.563
321.28
320.871
320.605
320.414
320.342
320.447
320.603
315.148
314.958
314.805
314.711
314.776
314.92
315.086
315.29
315.418
315.522
315.562
315.573
315.422
315.176
315.02
314.882
314.654
314.615
314.643
314.76
309.104
309.021
308.915
308.88
308.94
308.972
309.076
309.213
309.24
309.364
309.4
309.375
309.272
309.117
308.958
308.924
308.864
308.809
308.893
308.887
303.13
302.984
302.989
303.037
303.06
302.981
303.03
303.064
303.109
303.154
303.187
303.139
303.157
303.079
303.01
302.957
302.987
302.999
302.987
302.934
345.559
345.061
344.59
344.574
344.659
344.949
345.318
345.821
346.275
346.739
346.784
346.674
346.168
345.59
344.916
344.251
343.902
343.715
343.793
344.149
339.791
339.31
338.912
338.791
338.944
339.068
339.492
339.927
340.315
340.776
340.749
340.626
340.196
339.689
339.228
338.615
338.335
338.168
338.3
338.562
333.782
333.48
333.204
333.01
333.06
333.436
333.572
334.015
334.319
334.608
334.644
334.548
334.255
333.876
333.349
332.953
332.731
332.641
332.687
332.892
327.844
327.505
327.258
327.193
327.245
327.377
327.556
327.861
328.222
328.359
328.414
328.426
328.2
327.758
327.469
327.126
326.908
326.791
326.894
327.106
321.716
321.441
321.274
321.29
321.222
321.425
321.529
321.757
322.009
322.153
322.219
322.122
321.956
321.698
321.412
321.162
321.027
320.912
320.984
321.176
315.548
315.3
315.247
315.227
315.259
315.289
315.426
315.561
315.71
315.88
315.845
315.82
315.704
315.563
315.383
315.21
314.997
315.066
315.073
315.277
309.403
309.245
309.209
309.152
309.142
309.203
309.298
309.34
309.453
309.469
309.603
309.531
309.436
309.369
309.19
309.171
309.067
309.094
309.129
309.129
303.122
303.238
303.035
303.071
302.991
303.061
303.075
303.159
303.139
303.187
303.21
303.177
303.195
303.149
303.11
303.056
303.054
303.066
303.046
303.074
346.756
346.252
345.897
345.771
345.818
345.971
346.35
346.826
347.165
347.438
347.638
347.45
347.031
346.527
345.946
345.467
344.99
344.835
344.957
345.339
340.962
340.362
340.041
339.953
339.898
340.137
340.353
340.792
341.127
341.319
341.445
341.346
341.032
340.644
340.036
339.708
339.295
339.238
339.369
339.639
334.753
334.383
334.091
333.965
333.994
334.148
334.396
334.713
334.936
335.178
335.267
335.151
334.892
334.545
334.157
333.75
333.535
333.443
333.596
333.806
328.604
328.314
328.024
327.856
327.914
328.063
328.312
328.535
328.693
328.839
328.911
328.914
328.692
328.391
328.032
327.802
327.555
327.412
327.616
327.797
322.275
322.071
321.867
321.788
321.863
321.837
322.082
322.261
322.306
322.553
322.662
322.462
322.405
322.206
321.886
321.664
321.533
321.499
321.617
321.728
316.102
315.838
315.668
315.542
315.603
315.69
315.827
315.875
316.086
316.157
316.087
316.116
316.046
315.882
315.687
315.521
315.484
315.401
315.406
315.597
309.661
309.556
309.414
309.413
309.456
309.409
309.437
309.565
309.686
309.723
309.721
309.788
309.621
309.5
309.447
309.372
309.267
309.315
309.296
309.371
303.175
303.225
303.191
303.222
303.182
303.182
303.137
303.179
303.195
303.241
303.225
303.271
303.187
303.199
303.162
303.281
303.2
303.046
303.083
303.107
348.037
347.579
347.156
346.941
346.833
347.039
347.364
347.795
348.072
348.29
348.364
348.223
347.864
347.397
346.942
346.401
346.136
346.023
346.212
346.556
341.952
341.578
341.103
340.945
340.932
341.115
341.337
341.65
341.874
342.049
342.115
342.088
341.767
341.39
340.949
340.634
340.313
340.258
340.416
340.726
335.654
335.317
334.979
334.835
334.812
334.893
335.129
335.505
335.622
335.756
335.828
335.74
335.523
335.256
334.826
334.533
334.298
334.337
334.454
334.722
329.356
329.017
328.752
328.632
328.581
328.793
328.881
329.069
329.278
329.413
329.46
329.414
329.196
329.043
328.7
328.446
328.183
328.177
328.362
328.601
322.881
322.658
322.462
322.338
322.416
322.36
322.523
322.702
322.892
322.945
322.986
322.882
322.8
322.635
322.443
322.168
322.136
322.086
322.188
322.334
316.424
316.186
316.078
316.026
315.983
316.063
316.102
316.242
316.37
316.433
316.458
316.353
316.292
316.228
316.068
315.93
315.921
315.822
315.861
315.998
309.824
309.705
309.755
309.664
309.614
309.611
309.741
309.795
309.885
309.85
309.891
309.834
309.801
309.698
309.63
309.571
309.517
309.538
309.606
309.616
303.351
303.282
303.323
303.222
303.148
303.242
303.264
303.251
303.347
303.264
303.369
303.295
303.381
303.245
303.257
303.172
303.254
303.196
303.166
303.286
349.329
348.833
348.372
348.136
348.072
348.152
348.41
348.718
348.922
349.111
349.131
349.013
348.72
348.271
347.82
347.595
347.237
347.191
347.419
347.647
342.97
342.655
342.177
342
341.889
342.117
342.229
342.512
342.618
342.864
342.83
342.751
342.427
342.138
341.81
341.509
341.359
341.246
341.518
341.664
336.551
336.19
335.895
335.769
335.646
335.754
335.907
336.089
336.242
336.517
336.402
336.385
336.161
335.945
335.624
335.347
335.226
335.158
335.323
335.537
330.09
329.784
329.523
329.398
329.305
329.374
329.43
329.696
329.791
329.979
329.925
329.906
329.7
329.543
329.345
329.066
328.907
328.891
329.087
329.371
323.528
323.283
323.047
322.979
322.909
322.857
323.054
323.123
323.238
323.329
323.353
323.332
323.162
323.018
322.923
322.71
322.658
322.61
322.727
322.874
316.835
316.642
316.561
316.504
316.418
316.399
316.485
316.676
316.644
316.71
316.767
316.67
316.595
316.551
316.372
316.277
316.27
316.246
316.379
316.344
310.091
310.017
309.928
309.843
309.834
309.857
310.004
309.966
310.047
310.126
310.136
310.009
310.073
309.842
309.892
309.787
309.8
309.733
309.927
309.844
303.406
303.268
303.367
303.329
303.299
303.345
303.315
303.374
303.396
303.343
303.316
303.357
303.306
303.351
303.296
303.264
303.239
303.191
303.244
303.288
350.536
349.987
349.52
349.202
349.118
349.169
349.369
349.576
349.859
349.922
349.988
349.76
349.545
349.236
348.842
348.516
348.37
348.297
348.54
348.889
344.061
343.636
343.162
342.936
342.897
342.936
343.041
343.263
343.381
343.529
343.568
343.419
343.226
342.979
342.668
342.444
342.181
342.264
342.412
342.747
337.478
337.163
336.752
336.64
336.557
336.571
336.674
336.825
336.904
337.033
336.997
336.959
336.78
336.635
336.286
336.173
336.056
336.025
336.148
336.466
330.842
330.487
330.257
330.057
329.953
329.983
330.156
330.206
330.395
330.419
330.455
330.342
330.265
330.084
329.846
329.713
329.6
329.624
329.837
329.991
324.058
323.85
323.627
323.447
323.459
323.468
323.54
323.667
323.672
323.755
323.74
323.756
323.583
323.515
323.295
323.232
323.202
323.178
323.291
323.523
317.227
317.119
316.945
316.715
316.809
316.793
316.842
316.907
316.947
317.058
316.968
316.94
316.823
316.822
316.682
316.66
316.645
316.588
316.682
316.821
310.398
310.267
310.111
310.084
310.115
310.035
310.113
310.159
310.232
310.274
310.24
310.21
310.172
310.131
310.011
310.031
309.96
310.084
310.049
310.111
303.47
303.487
303.436
303.346
303.324
303.39
303.376
303.447
303.415
303.415
303.439
303.469
303.425
303.329
303.442
303.359
303.331
303.388
303.396
303.302
351.643
351.093
350.761
350.263
350.256
350.19
350.322
350.531
350.534
350.662
350.689
350.525
350.32
350.099
349.75
349.514
349.341
349.38
349.587
349.972
345.024
344.568
344.14
343.83
343.798
343.784
343.876
344.026
344.084
344.088
344.29
344.101
343.935
343.653
343.482
343.177
343.107
343.087
343.457
343.65
338.255
337.977
337.534
337.374
337.248
337.234
337.318
337.383
337.456
337.536
337.561
337.507
337.363
337.143
336.916
336.794
336.698
336.725
336.93
337.231
331.535
331.209
330.85
330.693
330.615
330.681
330.674
330.722
330.811
330.82
330.901
330.803
330.663
330.558
330.374
330.293
330.122
330.242
330.358
330.635
324.528
324.377
324.128
323.907
323.878
323.832
323.872
323.946
324.022
324.128
324.13
324.005
324.014
323.834
323.711
323.662
323.577
323.651
323.733
323.939
317.651
317.337
317.269
317.225
317.127
317.138
317.084
317.204
317.24
317.266
317.287
317.298
317.238
317.088
316.94
316.966
316.887
316.97
317.131
317.142
310.59
310.439
310.421
310.374
310.271
310.308
310.229
310.455
310.372
310.481
310.329
310.412
310.378
310.294
310.208
310.214
310.199
310.23
310.277
310.247
303.462
303.444
303.449
303.472
303.442
303.45
303.449
303.417
303.548
303.488
303.386
303.464
303.428
303.465
303.476
303.474
303.297
303.439
303.499
303.436
352.488
351.853
351.458
351.088
350.92
350.917
351.028
351.093
351.234
351.326
351.247
351.146
350.852
350.683
350.467
350.204
350.087
350.063
350.417
350.825
345.77
345.257
344.855
344.516
344.363
344.416
344.479
344.547
344.596
344.686
344.624
344.606
344.375
344.245
343.938
343.78
343.664
343.844
344.009
344.32
338.951
338.472
338.168
337.932
337.799
337.797
337.793
337.802
337.875
337.989
338.041
337.914
337.835
337.575
337.403
337.346
337.249
337.213
337.522
337.784
331.936
331.59
331.32
331.08
331.042
330.97
330.98
331.122
331.142
331.223
331.188
331.15
330.996
330.892
330.727
330.652
330.583
330.637
330.877
330.951
324.922
324.605
324.418
324.311
324.227
324.181
324.129
324.213
324.355
324.276
324.307
324.27
324.208
324.147
324.023
323.932
323.899
324.008
324.082
324.334
317.859
317.655
317.525
317.445
317.327
317.229
317.303
317.353
317.419
317.408
317.376
317.376
317.358
317.232
317.149
317.157
317.147
317.086
317.238
317.407
310.72
310.6
310.596
310.407
310.364
310.335
310.365
310.509
310.523
310.468
310.49
310.448
310.388
310.382
310.272
310.277
310.315
310.297
310.391
310.401
303.61
303.583
303.542
303.512
303.533
303.582
303.515
303.527
303.512
303.522
303.492
303.565
303.422
303.391
303.408
303.466
303.49
303.467
303.467
303.451
)
;

boundaryField
{
    hotSide
    {
        type            fixedGradient;
        gradient        nonuniform List<scalar> 
400
(
321.511
322.87
325.591
329.677
335.133
341.965
350.181
359.788
370.794
383.208
397.037
412.289
428.971
447.088
466.647
487.651
510.105
534.011
559.372
586.191
323.738
325.08
327.767
331.802
337.194
343.949
352.078
361.591
372.498
384.81
398.537
413.687
430.268
448.289
467.755
488.672
511.043
534.872
560.161
586.913
326.149
327.47
330.116
334.091
339.406
346.071
354.099
363.503
374.296
386.491
400.101
415.136
431.606
449.52
468.885
489.706
511.988
535.735
560.948
587.63
328.704
330
332.597
336.503
341.73
348.292
356.205
365.485
376.15
388.215
401.695
416.604
432.954
450.753
470.009
490.73
512.919
536.579
561.714
588.325
331.33
332.599
335.142
338.97
344.099
350.546
358.332
367.477
378.003
389.928
403.271
418.047
434.27
451.949
471.095
491.712
513.807
537.382
562.439
588.978
333.918
335.158
337.643
341.389
346.414
352.74
360.392
369.397
379.779
391.562
404.765
419.407
435.503
453.065
472.101
492.618
514.622
538.114
563.096
589.569
336.321
337.531
339.959
343.622
348.544
354.751
362.274
371.142
381.385
393.031
406.101
420.618
436.595
454.047
472.983
493.409
515.33
538.747
563.663
590.076
338.36
339.543
341.92
345.509
350.339
356.44
363.847
372.595
382.718
394.244
407.2
421.608
437.485
454.844
473.695
494.045
515.897
539.253
564.114
590.478
339.852
341.015
343.352
346.885
351.645
357.665
364.985
373.643
383.675
395.113
407.984
422.312
438.116
455.407
474.197
494.491
516.294
539.606
564.428
590.758
340.643
341.795
344.11
347.613
352.334
358.311
365.584
374.193
384.176
395.567
408.393
422.679
438.443
455.699
474.456
494.722
516.498
539.788
564.589
590.901
340.643
341.795
344.11
347.613
352.334
358.311
365.584
374.193
384.176
395.567
408.393
422.679
438.443
455.699
474.456
494.722
516.498
539.788
564.589
590.901
339.852
341.015
343.352
346.885
351.645
357.665
364.985
373.643
383.675
395.113
407.984
422.312
438.116
455.407
474.197
494.491
516.294
539.606
564.428
590.758
338.36
339.543
341.92
345.509
350.339
356.44
363.847
372.595
382.718
394.244
407.2
421.608
437.485
454.844
473.695
494.045
515.897
539.253
564.114
590.478
336.321
337.531
339.959
343.622
348.544
354.751
362.274
371.142
381.385
393.031
406.101
420.618
436.595
454.047
472.983
493.409
515.33
538.747
563.663
590.076
333.918
335.158
337.643
341.389
346.414
352.74
360.392
369.397
379.779
391.562
404.765
419.407
435.503
453.065
472.101
492.618
514.622
538.114
563.096
589.569
331.33
332.599
335.142
338.97
344.099
350.546
358.332
367.477
378.003
389.928
403.271
418.047
434.27
451.949
471.095
491.712
513.807
537.382
562.439
588.978
328.704
330
332.597
336.503
341.73
348.292
356.205
365.485
376.15
388.215
401.695
416.604
432.954
450.753
470.009
490.73
512.919
536.579
561.714
588.325
326.149
327.47
330.116
334.091
339.406
346.071
354.099
363.503
374.296
386.491
400.101
415.136
431.606
449.52
468.885
489.706
511.988
535.735
560.948
587.63
323.738
325.08
327.767
331.802
337.194
343.949
352.078
361.591
372.498
384.81
398.537
413.687
430.268
448.289
467.755
488.672
511.043
534.872
560.161
586.913
321.511
322.87
325.591
329.677
335.133
341.965
350.181
359.788
370.794
383.208
397.037
412.289
428.971
447.088
466.647
487.651
510.105
534.011
559.372
586.191
)
;
    }
    coldSide
    {
        type            mixed;
        refValue        uniform 300;
        refGradient     uniform 0;
        valueFraction   uniform 0.991591;
        source          uniform 0;
        value           nonuniform List<scalar> 
400
(
300.02
300.019
300.019
300.02
300.021
300.021
300.023
300.022
300.023
300.024
300.024
300.025
300.026
300.026
300.027
300.028
300.029
300.029
300.029
300.03
300.019
300.019
300.019
300.02
300.02
300.02
300.021
300.022
300.023
300.023
300.023
300.024
300.025
300.027
300.027
300.028