/*--------------------------------*- C++ -*----------------------------------*\
| =========                 |                                                 |
| \\      /  F ield         | OpenFOAM: The Open Source CFD Toolbox           |
|  \\    /   O peration     | Version:  2212                                  |
|   \\  /    A nd           | Website:  www.openfoam.com                      |
|    \\/     M anipulation  |                                                 |
\*---------------------------------------------------------------------------*/
FoamFile
{
    version     2.0;
    format      ascii;
    arch        "LSB;label=32;scalar=64";
    class       volScalarField;
    location    "0";
    object      T;
}
// * * * * * * * * * * * * * * * * * * * * * * * * * * * * * * * * * * * * * //

dimensions      [0 0 0 1 0 0 0];

internalField   nonuniform List<scalar> 
3200
(
346.876
345.655
345.197
345.099
345.366
346.154
347.033
347.7
348.423
348.808
349.022
348.848
348.25
347.603
346.735
345.703
345.174
345.131
345.733
346.604
340.498
339.492
339.082
339.024
339.244
339.978
340.716
341.297
341.933
342.251
342.457
342.283
341.788
341.225
340.484
339.579
339.135
339.099
339.631
340.306
334.163
333.366
333.024
332.963
333.178
333.801
334.415
334.919
335.487
335.724
335.93
335.75
335.333
334.86
334.225
333.466
333.122
333.087
333.539
334.031
327.883
327.263
326.971
326.944
327.077
327.637
328.144
328.582
329.035
329.224
329.386
329.261
328.894
328.506
327.988
327.341
327.098
327.082
327.43
327.805
321.626
321.189
320.931
320.932
321.021
321.501
321.876
322.23
322.59
322.739
322.848
322.757
322.458
322.147
321.769
321.268
321.078
321.08
321.307
321.591
315.396
315.128
314.944
314.953
314.988
315.369
315.648
315.896
316.145
316.269
316.329
316.276
316.026
315.823
315.571
315.2
315.074
315.063
315.2
315.423
309.233
309.08
308.975
308.966
308.995
309.247
309.417
309.564
309.693
309.773
309.831
309.783
309.644
309.517
309.35
309.143
309.06
309.066
309.115
309.251
303.087
303.046
303.016
303.002
303.01
303.108
303.16
303.218
303.251
303.271
303.302
303.281
303.24
303.205
303.137
303.079
303.047
303.051
303.048
303.088
346.872
345.86
345.295
345.257
345.605
346.409
347.352
348.22
349.012
349.43
349.57
349.453
348.996
348.161
347.13
346.174
345.575
345.281
345.807
346.766
340.476
339.659
339.188
339.15
339.476
340.178
340.959
341.723
342.415
342.783
342.891
342.821
342.442
341.718
340.801
340.017
339.504
339.235
339.675
340.468
334.155
333.484
333.115
333.08
333.374
333.976
334.603
335.257
335.859
336.155
336.232
336.2
335.875
335.283
334.499
333.834
333.42
333.188
333.549
334.208
327.898
327.354
327.074
327.028
327.274
327.791
328.301
328.825
329.321
329.539
329.635
329.586
329.34
328.843
328.194
327.662
327.328
327.142
327.444
327.951
321.649
321.242
321.049
321.024
321.189
321.611
321.991
322.404
322.801
322.963
323.031
322.98
322.815
322.433
321.928
321.518
321.245
321.1
321.364
321.747
315.452
315.155
315.026
315.013
315.112
315.429
315.698
316.013
316.279
316.399
316.446
316.415
316.299
316.006
315.663
315.377
315.175
315.081
315.276
315.553
309.271
309.103
309.021
309.014
309.069
309.259
309.436
309.62
309.762
309.845
309.882
309.863
309.797
309.619
309.415
309.224
309.129
309.056
309.166
309.35
303.105
303.054
303.026
303.02
303.038
303.104
303.159
303.219
303.27
303.298
303.317
303.307
303.274
303.232
303.157
303.088
303.06
303.032
303.069
303.139
347.077
346.226
345.564
345.56
346.071
346.821
348.056
348.926
349.803
350.309
350.4
350.313
349.743
348.792
347.871
346.77
346.132
345.814
346.208
347.222
340.649
339.972
339.437
339.438
339.871
340.507
341.607
342.333
343.096
343.528
343.607
343.543
343.033
342.244
341.454
340.492
339.969
339.685
339.996
340.851
334.271
333.772
333.318
333.332
333.702
334.245
335.153
335.779
336.43
336.771
336.822
336.807
336.376
335.714
335.055
334.24
333.801
333.56
333.812
334.501
327.963
327.601
327.237
327.233
327.565
328.001
328.727
329.272
329.79
330.056
330.087
330.087
329.75
329.176
328.664
327.993
327.645
327.462
327.677
328.206
321.724
321.433
321.18
321.196
321.436
321.775
322.31
322.783
323.173
323.351
323.372
323.39
323.121
322.681
322.29
321.745
321.473
321.369
321.539
321.945
315.53
315.286
315.137
315.146
315.302
315.553
315.93
316.283
316.563
316.667
316.68
316.712
316.515
316.2
315.92
315.529
315.342
315.281
315.396
315.67
309.342
309.175
309.1
309.102
309.174
309.345
309.553
309.776
309.942
310.014
310.01
310.029
309.91
309.737
309.562
309.326
309.213
309.169
309.244
309.412
303.135
303.082
303.069
303.05
303.076
303.144
303.204
303.279
303.334
303.357
303.349
303.358
303.314
303.263
303.201
303.127
303.089
303.076
303.089
303.158
347.717
346.751
346.183
346.175
346.768
347.622
348.809
349.819
350.67
351.319
351.564
351.259
350.728
349.865
348.671
347.76
346.999
346.615
346.929
347.769
341.218
340.438
339.958
339.951
340.465
341.215
342.248
343.146
343.816
344.417
344.618
344.348
343.92
343.172
342.129
341.374
340.725
340.397
340.651
341.344
334.768
334.185
333.773
333.761
334.197
334.817
335.703
336.51
337.022
337.532
337.683
337.481
337.115
336.495
335.615
335.01
334.445
334.166
334.374
334.952
328.382
327.957
327.611
327.62
327.946
328.442
329.177
329.853
330.255
330.689
330.797
330.626
330.345
329.851
329.13
328.629
328.192
327.969
328.113
328.581
322.054
321.723
321.459
321.481
321.742
322.087
322.672
323.226
323.513
323.86
323.932
323.794
323.58
323.219
322.643
322.261
321.93
321.771
321.867
322.223
315.747
315.487
315.332
315.352
315.526
315.756
316.172
316.585
316.764
317.023
317.078
317.002
316.832
316.571
316.149
315.915
315.652
315.582
315.621
315.865
309.451
309.283
309.205
309.21
309.333
309.444
309.699
309.947
310.056
310.209
310.246
310.208
310.094
309.926
309.667
309.573
309.408
309.378
309.391
309.527
303.17
303.121
303.083
303.086
303.13
303.154
303.258
303.329
303.364
303.42
303.431
303.418
303.388
303.33
303.231
303.194
303.156
303.139
303.145
303.194
348.47
347.5
347.015
347.044
347.57
348.616
349.716
350.825
351.76
352.539
352.788
352.455
351.864
350.907
349.764
348.709
347.861
347.6
347.816
348.477
341.876
341.066
340.639
340.688
341.154
342.061
343.029
343.989
344.785
345.457
345.678
345.403
344.864
344.064
343.077
342.175
341.455
341.242
341.388
341.932
335.328
334.69
334.312
334.386
334.768
335.551
336.369
337.209
337.835
338.415
338.609
338.374
337.933
337.249
336.393
335.677
335.067
334.89
335.006
335.432
328.846
328.359
328.036
328.108
328.402
329.058
329.749
330.447
330.915
331.406
331.569
331.365
331.012
330.44
329.735
329.176
328.697
328.537
328.645
328.968
322.419
322.066
321.787
321.859
322.065
322.572
323.122
323.698
324.019
324.415
324.554
324.388
324.117
323.654
323.105
322.673
322.321
322.178
322.269
322.536
316.008
315.785
315.558
315.619
315.757
316.115
316.503
316.941
317.147
317.444
317.529
317.415
317.215
316.882
316.492
316.198
315.944
315.833
315.909
316.094
309.599
309.487
309.352
309.365
309.462
309.658
309.903
310.201
310.298
310.484
310.517
310.449
310.333
310.122
309.903
309.728
309.579
309.514
309.536
309.655
303.215
303.186
303.148
303.135
303.168
303.224
303.315
303.415
303.457
303.521
303.509
303.506
303.459
303.39
303.314
303.257
303.199
303.193
303.189
303.233
349.445
348.463
348.09
348.099
348.67
349.693
350.744
351.883
352.979
353.776
354.039
353.916
353.154
352.178
350.971
349.912
348.995
348.75
348.883
349.534
342.71
341.915
341.569
341.604
342.083
342.997
343.923
344.871
345.827
346.503
346.726
346.64
346.008
345.156
344.097
343.21
342.435
342.213
342.295
342.845
336.045
335.398
335.118
335.15
335.534
336.34
337.13
337.921
338.73
339.293
339.457
339.407
338.899
338.164
337.26
336.533
335.876
335.691
335.754
336.204
329.422
328.922
328.706
328.728
329.044
329.693
330.363
331.013
331.67
332.108
332.264
332.236
331.803
331.177
330.471
329.869
329.322
329.19
329.231
329.602
322.842
322.496
322.3
322.342
322.561
323.07
323.607
324.104
324.613
324.955
325.082
325.064
324.744
324.226
323.688
323.221
322.793
322.701
322.708
322.999
316.296
316.076
315.928
315.956
316.116
316.474
316.871
317.229
317.572
317.81
317.92
317.909
317.695
317.309
316.921
316.599
316.3
316.222
316.206
316.419
309.779
309.664
309.573
309.589
309.682
309.886
310.148
310.34
310.544
310.695
310.759
310.758
310.635
310.403
310.152
309.962
309.791
309.746
309.722
309.862
303.275
303.236
303.212
303.228
303.244
303.306
303.397
303.47
303.532
303.587
303.601
303.613
303.565
303.488
303.406
303.336
303.295
303.276
303.245
303.314
350.474
349.63
349.127
349.292
349.755
350.731
351.909
353.151
354.322
355.097
355.456
355.187
354.635
353.548
352.292
351.137
350.153
349.937
349.991
350.752
343.589
342.917
342.478
342.655
343.046
343.876
344.914
345.975
347.012
347.643
347.957
347.75
347.25
346.333
345.25
344.271
343.395
343.21
343.268
343.888
336.772
336.235
335.894
336.034
336.374
337.083
337.955
338.854
339.704
340.232
340.509
340.375
339.919
339.153
338.263
337.442
336.672
336.514
336.586
337.047
330.002
329.608
329.347
329.431
329.731
330.298
331.018
331.76
332.442
332.855
333.099
333.037
332.641
331.967
331.296
330.633
329.962
329.838
329.922
330.241
323.308
323.002
322.803
322.842
323.12
323.552
324.119
324.705
325.229
325.548
325.703
325.684
325.392
324.844
324.356
323.84
323.284
323.186
323.266
323.491
316.643
316.432
316.281
316.304
316.523
316.836
317.23
317.643
318.025
318.259
318.356
318.358
318.154
317.739
317.396
317.054
316.622
316.538
316.619
316.763
309.985
309.862
309.771
309.774
309.94
310.141
310.354
310.594
310.841
310.965
311.026
311.043
310.903
310.658
310.441
310.252
309.977
309.913
309.99
310.069
303.346
303.305
303.271
303.278
303.333
303.401
303.473
303.552
303.643
303.666
303.697
303.703
303.646
303.576
303.504
303.432
303.344
303.327
303.357
303.377
351.695
350.796
350.308
350.487
350.999
351.956
353.114
354.414
355.646
356.48
356.8
356.649
355.98
354.864
353.63
352.472
351.484
351.329
351.411
351.952
344.641
343.916
343.495
343.653
344.095
344.923
345.944
347.06
348.137
348.853
349.102
348.997
348.442
347.487
346.417
345.419
344.534
344.418
344.493
344.934
337.657
337.082
336.725
336.866
337.254
337.939
338.813
339.736
340.673
341.273
341.481
341.401
340.959
340.127
339.234
338.419
337.631
337.535
337.572
337.977
330.743
330.267
329.99
330.132
330.455
331.01
331.7
332.49
333.264
333.736
333.892
333.83
333.49
332.787
332.07
331.419
330.754
330.663
330.708
331.026
323.856
323.51
323.285
323.414
323.702
324.135
324.631
325.259
325.869
326.204
326.356
326.29
326.038
325.491
324.935
324.433
323.913
323.824
323.868
324.088
317.022
316.784
316.611
316.699
316.946
317.267
317.58
318.036
318.492
318.698
318.824
318.771
318.6
318.195
317.813
317.476
317.084
317.001
317.064
317.163
310.216
310.071
309.964
310.018
310.175
310.376
310.553
310.817
311.118
311.238
311.301
311.267
311.151
310.925
310.691
310.502
310.259
310.196
310.25
310.308
303.42
303.385
303.336
303.35
303.402
303.473
303.545
303.622
303.725
303.779
303.784
303.773
303.737
303.669
303.588
303.52
303.434
303.423
303.44
303.457
352.994
352.1
351.656
351.774
352.373
353.259
354.308
355.722
356.912
357.684
358.174
357.989
357.305
356.238
355.158
353.969
353.067
352.739
352.874
353.437
345.798
345.01
344.66
344.755
345.272
346.039
346.98
348.181
349.228
349.892
350.321
350.153
349.565
348.685
347.755
346.723
345.926
345.642
345.763
346.209
338.679
338
337.712
337.78
338.229
338.907
339.692
340.705
341.595
342.145
342.511
342.373
341.87
341.144
340.39
339.502
338.821
338.584
338.666
339.011
331.615
331.024
330.786
330.844
331.218
331.82
332.441
333.273
334.008
334.456
334.751
334.633
334.21
333.628
333.033
332.302
331.757
331.549
331.588
331.859
324.567
324.076
323.896
323.953
324.243
324.745
325.195
325.85
326.449
326.779
327.022
326.91
326.589
326.133
325.7
325.114
324.678
324.521
324.525
324.753
317.53
317.182
317.037
317.105
317.327
317.675
317.985
318.451
318.887
319.135
319.307
319.224
318.988
318.646
318.362
317.922
317.613
317.507
317.526
317.656
310.524
310.284
310.231
310.268
310.404
310.611
310.792
311.074
311.346
311.48
311.605
311.522
311.404
311.187
311.042
310.753
310.569
310.5
310.542
310.589
303.528
303.448
303.44
303.448
303.484
303.563
303.613
303.718
303.801
303.847
303.883
303.856
303.822
303.754
303.697
303.59
303.539
303.521
303.536
303.549
354.294
353.459
352.957
353.109
353.796
354.565
355.635
356.899
357.905
358.906
359.366
359.259
358.444
357.524
356.487
355.331
354.521
354.253
354.352
354.88
346.897
346.186
345.766
345.909
346.522
347.194
348.124
349.191
350.087
350.939
351.35
351.26
350.525
349.776
348.89
347.906
347.2
346.964
347.015
347.455
339.574
338.978
338.653
338.746
339.284
339.867
340.626
341.55
342.348
343.04
343.408
343.289
342.672
342.06
341.338
340.509
339.9
339.681
339.739
340.084
332.314
331.82
331.575
331.643
332.104
332.571
333.197
333.953
334.647
335.186
335.495
335.382
334.868
334.379
333.805
333.096
332.606
332.446
332.481
332.758
325.114
324.712
324.527
324.558
324.956
325.293
325.801
326.385
326.961
327.349
327.593
327.502
327.107
326.703
326.286
325.727
325.328
325.221
325.244
325.429
317.93
317.648
317.509
317.522
317.821
318.063
318.406
318.827
319.272
319.542
319.708
319.633
319.354
319.052
318.781
318.369
318.063
318.01
318.014
318.143
310.769
310.599
310.512
310.511
310.697
310.86
311.047
311.302
311.586
311.737
311.833
311.798
311.631
311.433
311.283
311.016
310.829
310.816
310.816
310.887
303.609
303.555
303.526
303.519
303.58
303.646
303.701
303.791
303.882
303.94
303.974
303.955
303.895
303.825
303.775
303.685
303.628
303.624
303.629
303.651
355.533
354.876
354.415
354.489
355.141
355.904
356.893
358.128
359.066
359.986
360.487
360.312
359.737
358.742
357.83
356.652
355.97
355.675
355.764
356.343
347.978
347.394
347.017
347.102
347.7
348.334
349.206
350.275
351.106
351.883
352.298
352.133
351.655
350.819
350.049
348.99
348.431
348.179
348.244
348.694
340.485
340.018
339.698
339.784
340.301
340.807
341.569
342.464
343.151
343.855
344.173
344.016
343.607
342.918
342.299
341.405
340.931
340.717
340.77
341.129
333.04
332.681
332.443
332.513
332.952
333.315
333.95
334.695
335.259
335.854
336.105
335.95
335.615
335.074
334.583
333.843
333.454
333.285
333.329
333.596
325.672
325.39
325.209
325.257
325.593
325.878
326.39
326.948
327.418
327.875
328.073
327.951
327.671
327.265
326.905
326.324
326.01
325.858
325.895
326.099
318.338
318.119
318.008
318.026
318.251
318.476
318.842
319.234
319.591
319.926
320.047
319.968
319.753
319.486
319.215
318.827
318.568
318.479
318.49
318.625
311.012
310.857
310.81
310.804
310.943
311.095
311.316
311.563
311.777
311.961
312.037
311.977
311.844
311.695
311.535
311.312
311.145
311.097
311.102
311.176
303.687
303.629
303.624
303.613
303.667
303.712
303.795
303.877
303.953
304.015
304.038
304.014
303.972
303.92
303.873
303.804
303.733
303.712
303.72
303.752
356.871
356.214
355.803
355.857
356.485
357.196
358.171
359.363
360.138
360.944
361.471
361.359
360.787
359.818
359.005
358.091
357.389
357.124
357.314
357.833
349.09
348.565
348.227
348.31
348.833
349.47
350.293
351.334
351.999
352.697
353.145
353.062
352.559
351.724
351.035
350.254
349.652
349.416
349.606
349.99
341.395
340.968
340.706
340.783
341.231
341.781
342.478
343.345
343.91
344.52
344.886
344.802
344.377
343.683
343.102
342.472
341.942
341.753
341.935
342.221
333.814
333.482
333.266
333.312
333.687
334.13
334.673
335.407
335.885
336.382
336.663
336.607
336.26
335.695
335.222
334.716
334.244
334.134
334.283
334.5
326.278
325.996
325.858
325.86
326.174
326.491
326.933
327.509
327.866
328.28
328.477
328.425
328.191
327.764
327.359
326.969
326.586
326.531
326.655
326.828
318.759
318.553
318.447
318.446
318.669
318.899
319.241
319.649
319.884
320.198
320.327
320.289
320.117
319.832
319.538
319.274
318.982
318.933
319.024
319.16
311.251
311.127
311.076
311.065
311.203
311.344
311.552
311.807
311.925
312.122
312.205
312.176
312.06
311.904
311.726
311.586
311.41
311.355
311.401
311.505
303.767
303.737
303.713
303.708
303.759
303.802
303.874
303.957
303.983
304.059
304.094
304.09
304.032
303.985
303.928
303.875
303.819
303.804
303.825
303.867
358.395
357.671
357.236
357.272
357.753
358.515
359.3
360.404
361.238
361.978
362.34
362.335
361.823
360.959
360.066
359.364
358.68
358.586
358.747
359.195
350.417
349.834
349.447
349.503
349.939
350.601
351.261
352.214
352.932
353.577
353.924
353.895
353.446
352.724
351.958
351.355
350.76
350.683
350.833
351.19
342.532
342.05
341.725
341.777
342.195
342.726
343.272
344.071
344.688
345.233
345.564
345.524
345.132
344.547
343.894
343.396
342.884
342.824
342.966
343.245
334.709
334.325
334.07
334.121
334.488
334.915
335.353
335.981
336.503
336.959
337.243
337.2
336.863
336.411
335.878
335.451
335.034
334.983
335.125
335.348
326.95
326.642
326.454
326.498
326.782
327.116
327.447
327.948
328.361
328.742
328.959
328.923
328.646
328.305
327.871
327.526
327.235
327.19
327.302
327.474
319.227
319.007
318.848
318.901
319.121
319.366
319.597
319.947
320.238
320.528
320.692
320.666
320.467
320.213
319.896
319.638
319.465
319.426
319.497
319.621
311.545
311.399
311.301
311.338
311.484
311.619
311.775
311.967
312.155
312.322
312.429
312.404
312.316
312.138
311.939
311.799
311.695
311.663
311.697
311.796
303.873
303.812
303.784
303.802
303.842
303.889
303.95
304.014
304.079
304.131
304.168
304.154
304.137
304.08
304.011
303.963
303.927
303.91
303.915
303.958
359.88
359.072
358.671
358.622
359.071
359.674
360.408
361.388
362.265
362.921
363.292
363.317
362.887
362.134
361.158
360.559
360.027
360.057
360.301
360.787
351.699
351.036
350.706
350.644
351.054
351.593
352.231
353.077
353.851
354.404
354.712
354.779
354.388
353.748
352.896
352.368
351.917
351.94
352.17
352.555
343.585
343.07
342.789
342.749
343.119
343.563
344.126
344.818
345.484
345.951
346.216
346.262
345.937
345.427
344.704
344.25
343.861
343.88
344.101
344.363
335.565
335.153
334.921
334.941
335.233
335.581
336.052
336.613
337.163
337.55
337.766
337.769
337.549
337.133
336.533
336.177
335.855
335.859
336.052
336.245
327.587
327.303
327.094
327.136
327.364
327.652
328.012
328.45
328.88
329.199
329.341
329.344
329.17
328.873
328.408
328.118
327.86
327.861
328.024
328.168
319.674
319.481
319.325
319.37
319.524
319.74
320.009
320.3
320.632
320.865
320.95
320.942
320.836
320.641
320.293
320.08
319.902
319.89
320.009
320.098
311.779
311.672
311.597
311.618
311.715
311.846
311.996
312.182
312.388
312.529
312.566
312.561
312.518
312.399
312.185
312.062
311.963
311.948
312.016
312.067
303.94
303.9
303.887
303.893
303.919
303.969
304.013
304.086
304.153
304.2
304.214
304.201
304.19
304.151
304.079
304.039
304.013
304.003
304.027
304.05
361.346
360.629
360.177
360.014
360.44
360.912
361.619
362.47
363.203
363.84
364.171
364.212
363.807
363.169
362.49
361.822
361.429
361.387
361.718
362.127
352.98
352.385
352.004
351.855
352.237
352.65
353.267
354
354.641
355.207
355.49
355.532
355.208
354.633
354.042
353.453
353.125
353.078
353.384
353.68
344.696
344.226
343.893
343.751
344.107
344.449
344.962
345.584
346.161
346.621
346.869
346.911
346.636
346.146
345.633
345.158
344.862
344.819
345.09
345.306
336.474
336.101
335.842
335.729
336.038
336.277
336.706
337.232
337.701
338.088
338.278
338.322
338.113
337.712
337.293
336.917
336.653
336.588
336.855
337.015
328.316
328.039
327.823
327.743
328.032
328.151
328.511
328.918
329.298
329.606
329.728
329.767
329.605
329.332
328.99
328.68
328.46
328.433
328.654
328.764
320.196
320.005
319.851
319.806
320.02
320.068
320.349
320.639
320.919
321.141
321.209
321.239
321.137
320.952
320.7
320.477
320.315
320.287
320.459
320.543
312.113
312.008
311.912
311.894
312.015
312.038
312.219
312.406
312.556
312.684
312.709
312.732
312.672
312.593
312.422
312.302
312.191
312.18
312.285
312.324
304.058
304.033
303.986
303.981
304.019
304.032
304.086
304.15
304.2
304.242
304.264
304.263
304.249
304.218
304.163
304.126
304.09
304.085
304.111
304.13
362.806
362.091
361.722
361.582
361.76
362.106
362.726
363.578
364.265
364.641
364.967
365.073
364.77
364.173
363.537
363.043
362.78
362.85
363.153
363.577
354.231
353.642
353.334
353.23
353.39
353.686
354.236
354.962
355.595
355.891
356.181
356.265
356.013
355.481
354.936
354.513
354.297
354.349
354.595
354.976
345.737
345.283
345.022
344.943
345.079
345.351
345.806
346.419
346.986
347.208
347.437
347.515
347.321
346.846
346.388
346.015
345.872
345.893
346.111
346.449
337.313
336.995
336.779
336.704
336.825
337.049
337.423
337.904
338.414
338.565
338.749
338.821
338.685
338.288
337.895
337.589
337.477
337.482
337.667
337.952
328.966
328.761
328.563
328.509
328.587
328.766
329.07
329.433
329.863
329.987
330.103
330.152
330.063
329.758
329.463
329.189
329.106
329.095
329.271
329.498
320.661
320.555
320.388
320.337
320.408
320.534
320.735
321.006
321.339
321.425
321.491
321.53
321.452
321.236
321.045
320.828
320.778
320.744
320.891
321.059
312.4
312.34
312.234
312.207
312.263
312.327
312.446
312.613
312.814
312.861
312.89
312.935
312.865
312.745
312.652
312.509
312.471
312.438
312.548
312.627
304.152
304.135
304.106
304.084
304.113
304.133
304.173
304.221
304.306
304.305
304.319
304.336
304.316
304.272
304.244
304.196
304.175
304.16
304.203
304.221
364.151
363.531
363.11
363.005
363.013
363.35
363.968
364.677
365.319
365.618
365.878
365.9
365.711
365.269
364.76
364.307
364.062
364.181
364.587
365.16
355.377
354.884
354.538
354.468
354.465
354.772
355.273
355.916
356.476
356.732
356.964
356.988
356.819
356.425
355.997
355.579
355.396
355.492
355.849
356.323
346.726
346.308
346.03
346.005
345.983
346.255
346.658
347.218
347.694
347.915
348.117
348.147
347.98
347.646
347.301
346.926
346.815
346.878
347.159
347.541
338.132
337.803
337.581
337.581
337.557
337.784
338.119
338.573
338.963
339.136
339.314
339.34
339.184
338.93
338.64
338.338
338.266
338.318
338.528
338.85
329.605
329.36
329.186
329.181
329.177
329.357
329.61
329.971
330.275
330.427
330.539
330.566
330.433
330.242
330.011
329.772
329.743
329.779
329.96
330.19
321.118
320.95
320.846
320.814
320.841
320.953
321.113
321.386
321.614
321.74
321.789
321.801
321.716
321.59
321.419
321.253
321.235
321.261
321.413
321.549
312.677
312.574
312.518
312.485
312.516
312.582
312.656
312.84
312.973
313.066
313.08
313.083
313.038
312.948
312.856
312.77
312.745
312.753
312.859
312.939
304.261
304.216
304.197
304.18
304.197
304.22
304.245
304.307
304.356
304.378
304.391
304.38
304.372
304.338
304.305
304.287
304.267
304.274
304.318
304.336
365.637
364.979
364.518
364.344
364.349
364.726
365.289
365.812
366.254
366.516
366.744
366.737
366.561
366.139
365.847
365.598
365.456
365.696
366.029
366.581
356.665
356.122
355.718
355.605
355.597
355.926
356.443
356.899
357.248
357.472
357.677
357.689
357.504
357.184
356.928
356.714
356.6
356.789
357.069
357.541
347.777
347.375
347.01
346.917
346.92
347.204
347.663
348.059
348.343
348.52
348.702
348.717
348.525
348.312
348.056
347.917
347.785
347.938
348.188
348.57
338.98
338.683
338.361
338.3
338.289
338.555
338.952
339.274
339.495
339.613
339.774
339.78
339.62
339.457
339.269
339.163
339.045
339.166
339.385
339.677
330.263
330.03
329.769
329.718
329.742
329.953
330.281
330.519
330.684
330.753
330.914
330.901
330.765
330.639
330.522
330.44
330.323
330.415
330.606
330.82
321.605
321.416
321.245
321.188
321.231
321.368
321.63
321.785
321.911
321.949
322.059
322.045
321.968
321.854
321.785
321.741
321.651
321.683
321.861
321.999
312.968
312.849
312.766
312.714
312.749
312.826
312.987
313.064
313.152
313.172
313.23
313.227
313.196
313.107
313.07
313.067
312.995
313.005
313.135
313.215
304.345
304.309
304.272
304.25
304.271
304.295
304.364
304.368
304.407
304.418
304.426
304.436
304.42
304.386
304.386
304.382
304.356
304.356
304.402
304.426
367.029
366.328
365.792
365.529
365.541
365.935
366.465
366.84
367.2
367.496
367.712
367.677
367.393
367.187
366.955
366.833
366.711
366.954
367.384
367.98
357.849
357.231
356.787
356.593
356.603
356.964
357.423
357.764
358.07
358.317
358.522
358.465
358.21
358.048
357.87
357.735
357.651
357.845
358.247
358.716
348.77
348.263
347.895
347.745
347.765
348.059
348.462
348.75
349.027
349.22
349.401
349.339
349.125
348.986
348.857
348.728
348.641
348.827
349.176
349.545
339.793
339.381
339.092
338.963
338.997
339.248
339.555
339.831
340.05
340.176
340.354
340.279
340.129
339.991
339.919
339.796
339.727
339.872
340.162
340.451
330.897
330.585
330.342
330.226
330.28
330.481
330.708
330.941
331.111
331.211
331.358
331.284
331.164
331.064
331.021
330.913
330.858
330.979
331.185
331.415
322.061
321.834
321.651
321.539
321.613
321.735
321.914
322.084
322.205
322.294
322.371
322.328
322.229
322.175
322.14
322.074
322.016
322.093
322.279
322.41
313.259
313.114
313.015
312.913
312.969
313.04
313.134
313.267
313.311
313.375
313.42
313.419
313.335
313.315
313.278
313.27
313.221
313.246
313.375
313.453
304.441
304.396
304.365
304.323
304.347
304.374
304.403
304.43
304.461
304.481
304.484
304.492
304.464
304.472
304.446
304.441
304.435
304.436
304.494
304.506
368.079
367.391
366.824
366.488
366.493
366.631
367.154
367.544
367.891
368.29
368.425
368.345
368.14
368.022
367.883
367.754
367.655
367.851
368.309
368.828
358.682
358.107
357.641
357.379
357.367
357.491
357.973
358.328
358.643
358.98
359.111
359.03
358.843
358.746
358.604
358.53
358.402
358.595
358.989
359.378
349.408
348.952
348.568
348.387
348.359
348.479
348.904
349.22
349.502
349.777
349.89
349.823
349.657
349.556
349.433
349.393
349.285
349.433
349.752
350.035
340.255
339.917
339.618
339.476
339.447
339.567
339.917
340.204
340.408
340.616
340.741
340.668
340.563
340.437
340.347
340.328
340.259
340.327
340.598
340.804
331.202
330.973
330.759
330.637
330.618
330.731
330.994
331.24
331.361
331.538
331.653
331.572
331.498
331.387
331.303
331.309
331.273
331.294
331.485
331.644
322.223
322.104
321.946
321.85
321.848
321.908
322.11
322.318
322.358
322.505
322.594
322.521
322.468
322.401
322.322
322.338
322.33
322.317
322.455
322.559
313.329
313.267
313.18
313.104
313.119
313.158
313.253
313.39
313.418
313.51
313.554
313.504
313.477
313.46
313.385
313.394
313.404
313.39
313.46
313.517
304.469
304.445
304.423
304.379
304.396
304.413
304.438
304.488
304.49
304.532
304.545
304.519
304.515
304.505
304.477
304.491
304.489
304.492
304.506
304.523
)
;

boundaryField
{
    hotSide
    {
        type            fixedGradient;
        gradient        nonuniform List<scalar> 
400
(
518.196
518.134
520.995
526.697
534.944
545.307
557.33
570.601
584.777
599.598
614.874
630.476
646.329
662.401
678.701
695.269
712.168
729.471
747.235
765.486
500.195
500.447
503.825
510.228
519.294
530.516
543.37
557.395
572.225
587.584
603.28
619.188
635.238
651.412
667.731
684.253
701.065
718.263
735.925
754.09
490.483
491.356
495.314
502.243
511.779
523.418
536.634
550.961
566.027
581.552
597.339
613.265
629.263
645.322
661.472
677.782
694.347
711.27
728.639
746.5
488.515
490.3
494.915
502.244
511.969
523.652
536.825
551.055
565.98
581.323
596.887
612.545
628.237
643.955
659.734
675.647
691.788
708.257
725.137
742.481
492.22
495.093
500.476
508.24
518.12
529.751
542.733
556.681
571.257
586.195
601.301
616.456
631.605
646.749
661.934
677.236
692.748
708.566
724.77
741.415
499.231
503.275
509.547
517.905
528.106
539.83
552.723
566.432
580.643
595.1
609.622
624.104
638.51
652.863
667.229
681.7
696.377
711.357
726.725
742.54
507.571
512.81
520.082
529.223
539.989
552.069
565.117
578.784
592.752
606.77
620.67
634.373
647.881
661.26
674.615
688.067
701.741
715.745
730.17
745.082
515.691
522.089
530.419
540.496
552.058
564.773
578.265
592.148
606.071
619.763
633.065
645.937
658.445
670.723
682.938
695.26
707.843
720.816
734.275
748.288
522.337
529.767
539.113
550.175
562.666
576.219
590.4
604.749
618.84
632.351
645.125
657.178
668.665
679.817
690.884
702.092
713.63
725.639
738.221
751.44
526.488
534.693
544.857
556.774
570.14
584.552
599.509
614.458
628.871
642.353
654.737
666.104
676.717
686.914
697.028
707.337
718.054
729.327
741.256
753.9
527.406
535.99
546.597
559.022
572.953
587.96
603.5
618.949
633.696
647.282
659.53
670.566
680.73
690.435
700.065
709.928
720.246
731.174
742.805
755.195
524.767
533.241
543.798
556.232
570.225
585.34
601.023
616.644
631.588
645.391
657.868
669.136
679.523
689.437
699.257
709.29
719.764
730.833
742.596
755.111
518.777
526.659
536.687
548.653
562.236
577.003
592.425
607.922
622.943
637.074
650.126
662.155
673.399
684.182
694.828
705.617
716.77
728.446
740.753
753.757
510.201
517.11
526.269
537.474
550.404
564.637
579.676
595.002
610.136
624.717
638.55
651.619
664.054
676.074
687.923
699.838
712.021
724.631
737.786
751.561
500.324
506.02
514.152
524.527
536.821
550.607
565.399
580.709
596.101
611.239
625.917
640.065
653.73
667.042
680.176
693.323
706.661
720.346
734.5
749.204
490.941
495.321
502.416
512.05
523.875
537.428
552.196
567.682
583.457
599.191
614.668
629.784
644.534
658.991
673.281
687.558
701.987
716.718
731.875
747.541
484.408
487.492
493.628
502.65
514.167
527.643
542.508
558.234
574.384
590.627
606.744
622.614
638.205
653.556
668.763
683.957
699.294
714.925
730.975
747.528
483.542
485.497
490.775
499.224
510.404
523.716
538.539
554.324
570.629
587.13
603.609
619.939
636.073
652.03
667.884
683.75
699.773
716.104
732.869
750.144
490.836
491.978
496.489
504.235
514.783
527.54
541.895
557.309
573.358
589.726
606.198
622.644
639.005
655.283
671.529
687.839
704.341
721.169
738.438
756.211
507.063
507.743
511.569
518.43
527.972
539.697
553.073
567.623
582.953
598.765
614.849
631.068
647.349
663.676
680.077
696.622
713.405
730.53
748.082
766.108
)
;
    }
    coldSide
    {
        type            mixed;
        refValue        uniform 300;
        refGradient     uniform 0;
        valueFraction   uniform 0.991591;
        source          uniform 0;
        value           nonuniform List<scalar> 
400
(
300.026
300.026
300.026
300.027
300.027
300.028
300.028
300.029
300.03
300.03
300.031
300.032
300.033
300.033
300.034
300.035
300.036
300.037
300.037
300.038
300.026
300.026
300.026
300.026
300.027
300.027
300.028
300.028
300.029
300.03
300.031
300.031
300.032
300.033
300.034
300.035
300.035
300.036
300.037
300.037
300.025
300.025
300.026