/*--------------------------------*- C++ -*----------------------------------*\
| =========                 |                                                 |
| \\      /  F ield         | OpenFOAM: The Open Source CFD Toolbox           |
|  \\    /   O peration     | Version:  2212                                  |
|   \\  /    A nd           | Website:  www.openfoam.com                      |
|    \\/     M anipulation  |                                                 |
\*---------------------------------------------------------------------------*/
FoamFile
{
    version     2.0;
    format      ascii;
    arch        "LSB;label=32;scalar=64";
    class       volScalarField;
    location    "./ITHACAoutput/true/6.2";
    object      error;
}
// * * * * * * * * * * * * * * * * * * * * * * * * * * * * * * * * * * * * * //

dimensions      [0 0 0 1 0 0 0];

internalField   nonuniform List<scalar> 
3200
(
2.92968
2.71401
2.51294
2.58406
2.76536
3.092
3.50354
3.95557
4.34024
4.62989
4.71629
4.68243
4.59521
4.38494
4.23121
4.07006
4.13467
4.17395
4.4187
4.74896
2.16849
2.09845
1.90175
1.94971
2.19713
2.38259
2.80914
3.13904
3.43889
3.604
3.74609
3.74002
3.6415
3.46524
3.32907
3.26219
3.25589
3.32425
3.47381
3.84938
1.76188
1.63017
1.43659
1.54409
1.63672
1.88932
2.13593
2.42742
2.66919
2.85026
2.96696
3.03019
2.84962
2.70199
2.64911
2.60378
2.59481
2.63079
2.79123
3.07411
1.30556
1.18411
1.0576
1.0896
1.24483
1.38665
1.58249
1.86886
2.03095
2.21483
2.21108
2.31217
2.16981
2.13234
1.95312
1.92599
1.98768
2.01045
2.24744
2.37451
0.931534
0.773882
0.792322
0.744495
0.848463
1.02768
1.21207
1.38455
1.52614
1.63964
1.65817
1.66545
1.72532
1.59048
1.48459
1.50142
1.43792
1.56225
1.63739
1.78211
0.664207
0.587042
0.42955
0.509757
0.608094
0.679222
0.791146
0.939134
1.05394
1.11972
1.23422
1.17134
1.23177
1.08863
1.02291
1.05767
0.909576
1.02985
1.14453
1.25068
0.327343
0.292797
0.315047
0.326752
0.276653
0.356117
0.560179
0.494256
0.646733
0.648252
0.681286
0.715186
0.712499
0.669151
0.590214
0.654286
0.593366
0.596236
0.636188
0.748149
0.0576883
0.0802339
0.0717787
0.109971
0.0807066
0.139945
0.117798
0.196307
0.219067
0.234567
0.171783
0.22157
0.234762
0.259949
0.215431
0.16833
0.221892
0.154122
0.243299
0.227077
2.08801
1.81619
1.69143
1.75925
1.89127
2.13356
2.58385
2.89831
3.30788
3.60337
3.74675
3.70252
3.57755
3.33021
3.19563
3.1455
3.14544
3.29612
3.64879
3.92164
1.58091
1.43872
1.24085
1.28155
1.43633
1.65068
1.97447
2.22698
2.56927
2.83034
2.91942
2.98071
2.80042
2.63496
2.57467
2.51963
2.51569
2.64894
2.84256
3.2101
1.20334
1.03967
0.836558
0.931557
1.04976
1.19465
1.48461
1.74185
1.98294
2.24798
2.29206
2.30131
2.28205
2.11196
2.01164
1.97096
1.89125
2.08809
2.18294
2.5192
0.7952
0.713157
0.586093
0.674838
0.737619
0.919357
1.10985
1.3345
1.52134
1.69695
1.77082
1.78659
1.74855
1.62378
1.50654
1.42246
1.52287
1.60212
1.77063
1.96312
0.551835
0.577992
0.407901
0.423954
0.469167
0.68522
0.768065
1.00103
1.13932
1.25772
1.27201
1.33747
1.25248
1.16446
1.13358
1.08086
1.16655
1.17302
1.31234
1.42698
0.485073
0.325237
0.277996
0.227708
0.32591
0.431079
0.56581
0.660616
0.759473
0.91826
0.91119
0.897682
0.8918
0.817892
0.739455
0.787626
0.807619
0.838669
0.936948
1.0352
0.283793
0.258199
0.160918
0.142431
0.186692
0.20385
0.30436
0.372943
0.426932
0.501816
0.559389
0.581116
0.542407
0.426942
0.403368
0.451472
0.520133
0.420268
0.550429
0.54147
0.0892505
0.0573133
0.0656496
0.0606591
0.0466
0.07224
0.140465
0.160554
0.0801716
0.17352
0.232883
0.188001
0.166228
0.18753
0.12776
0.209741
0.129824
0.150156
0.145111
0.168119
1.11684
0.88242
0.681949
0.597075
0.798543
1.02756
1.35666
1.78508
2.05994
2.28123
2.36128
2.48471
2.23224
2.20427
2.06142
2.02408
2.09313
2.29651
2.60785
2.99548
0.750667
0.532704
0.397899
0.35219
0.419943
0.684604
0.939973
1.32945
1.52648
1.75156
1.83785
1.87263
1.82428
1.68648
1.55108
1.47446
1.57488
1.67516
2.11076
2.31966
0.492539
0.310496
0.165446
0.170191
0.253258
0.478966
0.67072
0.883619
1.08988
1.3389
1.38946
1.40115
1.37651
1.26878
1.1455
1.05442
1.14133
1.2832
1.57142
1.89882
0.269243
0.135049
0.0982146
-0.00855932
0.116466
0.273712
0.379828
0.649637
0.837247
1.02397
1.04526
1.1345
1.01056
0.971584
0.894977
0.915269
0.915177
0.998639
1.20369
1.38015
0.200959
0.122472
0.0586401
-0.0592163
0.0494538
0.109241
0.282864
0.485303
0.536895
0.674175
0.730774
0.721754
0.689819
0.581062
0.659646
0.547316
0.700773
0.789297
0.936593
1.04724
0.0969098
0.089089
-0.0210845
-0.0963642
-0.0438155
0.0940476
0.171043
0.25093
0.373758
0.458946
0.47295
0.531559
0.503543
0.531464
0.420479
0.436665
0.431253
0.488101
0.549814
0.655282
0.0377386
0.0256408
-0.0186082
-0.0346136
-0.0158197
0.0275816
0.077247
0.188758
0.208852
0.264276
0.347238
0.278785
0.257845
0.264445
0.322415
0.243412
0.238999
0.28373
0.332396
0.447567
0.0188791
-0.00265264
0.0465126
-0.0449451
0.0487237
-0.048028
0.115982
0.0603852
0.115765
0.0471454
0.120519
0.121636
0.0739941
0.0695558
0.130575
0.0639724
0.104491
0.0974946
0.0851103
0.133873
0.312395
-0.118904
-0.32847
-0.341686
-0.35312
-0.112546
0.194596
0.435015
0.752419
0.997333
1.15624
1.19276
1.17786
1.01352
0.913194
0.913505
1.04158
1.28946
1.74128
2.12184
-0.0269702
-0.34462
-0.511743
-0.558615
-0.454356
-0.376588
-0.0319634
0.258852
0.472854
0.645807
0.769909
0.766052
0.71905
0.651074
0.618623
0.617291
0.696618
0.970354
1.31432
1.64827
-0.141787
-0.348607
-0.511781
-0.588835
-0.586862
-0.421821
-0.155215
0.0334572
0.177769
0.353602
0.52282
0.508302
0.456656
0.418417
0.334797
0.358589
0.444064
0.677957
0.966578
1.24612
-0.0745818
-0.348829
-0.470456
-0.600534
-0.520286
-0.406688
-0.295919
-0.0271677
0.0735681
0.254986
0.267254
0.279173
0.323274
0.234052
0.221939
0.205236
0.254463
0.404012
0.700044
0.949972
-0.197258
-0.345583
-0.470094
-0.577732
-0.472237
-0.472171
-0.259198
-0.155864
-0.0178883
0.105336
0.23952
0.176193
0.123261
0.173207
0.0957498
0.122222
0.145161
0.340145
0.438489
0.715797
-0.196939
-0.320141
-0.310938
-0.418333
-0.361037
-0.248733
-0.226977
-0.190332
-0.0208967
0.0867066
0.124873
0.118694
0.0776777
0.0413862
0.0619797
0.046431
0.0989445
0.180571
0.34361
0.483169
-0.102387
-0.191501
-0.275012
-0.316242
-0.274054
-0.17262
-0.117707
-0.0347029
-0.0426473
0.0751662
0.0203011
0.0112137
-0.00350971
0.0250219
-0.0424547
0.0439964
0.0917225
0.0773849
0.134222
0.224942
-0.0782521
0.0217691
-0.0471322
-0.0433372
-0.039268
-0.100974
-0.0139225
-0.0564938
0.0441027
0.0707945
-0.0305009
0.0125473
0.00300138
0.0561638
0.0282591
0.0435795
-0.021472
-0.0232615
0.0486612
0.0953612
-0.411965
-0.86686
-1.18897
-1.31471
-1.24442
-1.18299
-0.954513
-0.669453
-0.411009
-0.171803
0.0219621
0.0953759
-0.0282959
-0.0626804
-0.0830477
-0.0427271
0.158891
0.469262
0.886868
1.36535
-0.612956
-0.924697
-1.19422
-1.31345
-1.2452
-1.17192
-0.9667
-0.763771
-0.528999
-0.337423
-0.145398
-0.235334
-0.289327
-0.237777
-0.305613
-0.185724
-0.0539015
0.182025
0.573791
1.00187
-0.593298
-0.926968
-1.10168
-1.23724
-1.27184
-1.12809
-0.997343
-0.798223
-0.601409
-0.395235
-0.328694
-0.306616
-0.297472
-0.356617
-0.323177
-0.300046
-0.170153
0.100721
0.350827
0.750185
-0.694773
-0.816656
-1.02709
-1.0687
-1.08836
-0.99836
-0.899696
-0.706032
-0.589156
-0.444248
-0.402838
-0.334396
-0.46338
-0.415612
-0.401487
-0.335511
-0.196532
-0.0637418
0.223806
0.513912
-0.602893
-0.771422
-0.828576
-0.952741
-0.906149
-0.89999
-0.726967
-0.730003
-0.501216
-0.403479
-0.328516
-0.396211
-0.323782
-0.387779
-0.354984
-0.319966
-0.183403
-0.0872401
0.124123
0.358282
-0.406685
-0.511916
-0.662151
-0.70722
-0.654872
-0.612101
-0.580995
-0.499793
-0.451109
-0.334168
-0.305564
-0.302409
-0.260498
-0.258647
-0.231032
-0.316626
-0.132124
-0.131386
0.0318259
0.217761
-0.287338
-0.316641
-0.433778
-0.404296
-0.438108
-0.446222
-0.374193
-0.347091
-0.255566
-0.216616
-0.190962
-0.129491
-0.16437
-0.178589
-0.190649
-0.186651
-0.149709
-0.073005
0.044893
0.0923549
-0.0365981
-0.115906
-0.133357
-0.126542
-0.180353
-0.141617
-0.0546317
-0.139463
-0.103714
-0.0940998
-0.0756784
-0.0406779
-0.042166
-0.035023
-0.00658519
-0.0108237
-0.0415969
-0.0128634
-0.0611911
0.0630043
-0.967491
-1.40648
-1.77667
-2.02786
-2.02012
-1.98652
-1.78557
-1.49946
-1.27737
-1.13886
-1.09596
-0.993891
-0.887282
-1.00867
-0.920611
-0.833526
-0.549152
-0.143476
0.280885
0.891279
-1.0928
-1.40877
-1.71177
-1.86287
-1.94613
-1.863
-1.71433
-1.54625
-1.39336
-1.25173
-1.11451
-1.08339
-1.09407
-1.09619
-0.998806
-0.872841
-0.6691
-0.3231
0.0862781
0.581052
-1.065
-1.29857
-1.57014
-1.80834
-1.7827
-1.7461
-1.65742
-1.4373
-1.31288
-1.18275
-1.09523
-1.01152
-1.03256
-1.01117
-0.987245
-0.927177
-0.687664
-0.341312
-0.0349561
0.347272
-0.905391
-1.17096
-1.43235
-1.45104
-1.57633
-1.54292
-1.46301
-1.31901
-1.15618
-1.04596
-0.944448
-1.00346
-0.94405
-0.890893
-0.822744
-0.875403
-0.677179
-0.434184
-0.170508
0.150911
-0.789509
-0.93349
-1.16633
-1.19954
-1.32361
-1.2144
-1.09112
-1.06726
-0.944419
-0.852469
-0.846863
-0.779672
-0.769482
-0.795662
-0.758449
-0.663491
-0.51291
-0.370477
-0.142353
0.100374
-0.576411
-0.734635
-0.780177
-0.892911
-0.935383
-0.945887
-0.792537
-0.7802
-0.744974
-0.679078
-0.591771
-0.574879
-0.598376
-0.638068
-0.565754
-0.477202
-0.367369
-0.269492
-0.12956
0.0475256
-0.33347
-0.415809
-0.52333
-0.519322
-0.570608
-0.520046
-0.511861
-0.494173
-0.404579
-0.332593
-0.364501
-0.35848
-0.319147
-0.383479
-0.3754
-0.241388
-0.30246
-0.115891
-0.108654
0.0262196
-0.117589
-0.107346
-0.132083
-0.19708
-0.162369
-0.15951
-0.11898
-0.152854
-0.127715
-0.162187
-0.152197
-0.102391
-0.136475
-0.139882
-0.146635
-0.103825
-0.118589
-0.0716377
-0.0336199
-0.0300684
-1.21639
-1.78259
-2.17514
-2.46632
-2.62288
-2.59892
-2.52242
-2.34779
-2.1348
-1.99529
-1.79048
-1.75886
-1.72501
-1.64251
-1.45743
-1.32586
-1.07793
-0.616727
0.00160876
0.628602
-1.22689
-1.61719
-2.04201
-2.34766
-2.48771
-2.49822
-2.3908
-2.17224
-1.97463
-1.85182
-1.81158
-1.71098
-1.75104
-1.68029
-1.49757
-1.35555
-1.0317
-0.733956
-0.164352
0.362614
-1.20491
-1.49223
-1.87398
-2.06534
-2.15334
-2.26346
-2.11427
-2.04283
-1.87918
-1.76744
-1.63144
-1.60247
-1.4798
-1.51537
-1.44312
-1.23674
-1.08536
-0.672296
-0.291175
0.120539
-1.12354
-1.32871
-1.60846
-1.82026
-1.9346
-1.93234
-1.82215
-1.67568
-1.61011
-1.55119
-1.48538
-1.36422
-1.41284
-1.35488
-1.2787
-1.14056
-0.97772
-0.678999
-0.286294
-0.0111045
-0.872575
-1.14008
-1.35627
-1.47124
-1.56357
-1.52638
-1.41389
-1.39615
-1.37463
-1.18574
-1.19738
-1.15946
-1.21455
-1.09818
-1.03837
-0.89981
-0.763742
-0.566813
-0.279144
-0.0387503
-0.643227
-0.820268
-0.9526
-1.03436
-1.0992
-1.11611
-1.00879
-1.07065
-0.998984
-0.877143
-0.761144
-0.820451
-0.788731
-0.843303
-0.746255
-0.621396
-0.568184
-0.475982
-0.22677
-0.0813504
-0.369382
-0.496799
-0.575611
-0.611616
-0.703392
-0.683105
-0.718562
-0.603345
-0.563879
-0.622694
-0.459533
-0.541961
-0.522157
-0.473137
-0.482903
-0.415692
-0.299149
-0.277624
-0.0965901
-0.0441597
-0.144932
-0.121588
-0.218855
-0.198861
-0.250913
-0.208186
-0.194616
-0.222192
-0.146995
-0.199064
-0.155169
-0.228121
-0.19699
-0.168929
-0.122702
-0.111199
-0.149501
-0.116787
-0.0636803
0.00336133
-1.28935
-1.72631
-2.31074
-2.68085
-2.88909
-2.97477
-2.88685
-2.76832
-2.65979
-2.53239
-2.40525
-2.30828
-2.21244
-2.09257
-1.93015
-1.62294
-1.27306
-0.693638
-0.0885105
0.622368
-1.28859
-1.76364
-2.19013
-2.5245
-2.71595
-2.76957
-2.74249
-2.65176
-2.46281
-2.39025
-2.29493
-2.19587
-2.16684
-2.03039
-1.88885
-1.57998
-1.31554
-0.856482
-0.257066
0.252526
-1.27819
-1.62407
-2.00258
-2.27248
-2.48028
-2.42684
-2.45703
-2.38025
-2.22295
-2.21182
-2.06855
-1.99097
-1.99094
-1.88456
-1.69086
-1.53612
-1.19474
-0.824576
-0.361576
0.121224
-1.10442
-1.4331
-1.76193
-1.91777
-2.06784
-2.11551
-2.08619
-2.1065
-1.88639
-1.84228
-1.83859
-1.7351
-1.62879
-1.5713
-1.52466
-1.34142
-1.01703
-0.701095
-0.344054
0.00381451
-0.935192
-1.14722
-1.40157
-1.54509
-1.63746
-1.69439
-1.68065
-1.61458
-1.55125
-1.49562
-1.4985
-1.48155
-1.34784
-1.31622
-1.23397
-1.08643
-0.868205
-0.626288
-0.331728
-0.0435583
-0.713924
-0.837896
-1.02426
-1.11739
-1.16613
-1.19099
-1.26339
-1.20895
-1.1613
-1.07472
-1.02808
-1.01884
-1.02727
-0.962118
-0.86275
-0.81442
-0.643461
-0.519086
-0.265274
-0.0743416
-0.482719
-0.545533
-0.539972
-0.718955
-0.767084
-0.720727
-0.767035
-0.772682
-0.678161
-0.645106
-0.701047
-0.598826
-0.586998
-0.584076
-0.516699
-0.429154
-0.43283
-0.278901
-0.150159
-0.0429978
-0.169371
-0.100953
-0.180169
-0.176101
-0.247911
-0.187946
-0.258411
-0.203651
-0.216273
-0.24751
-0.186757
-0.20236
-0.158421
-0.207782
-0.227337
-0.0936491
-0.170978
-0.113437
-0.0764623
-0.024951
-1.07552
-1.72957
-2.182
-2.67602
-2.98678
-3.07469
-3.11781
-3.09966
-2.97448
-2.84401
-2.78332
-2.64498
-2.46512
-2.28719
-2.07822
-1.71849
-1.23247
-0.596062
0.112627
0.718389
-1.07607
-1.6746
-2.13495
-2.48809
-2.78802
-2.89597
-2.93271
-2.89392
-2.82707
-2.68407
-2.58208
-2.46399
-2.42637
-2.18176
-1.96462
-1.66407
-1.28835
-0.732029
-0.127869
0.555919
-1.10553
-1.51616
-1.9844
-2.29302
-2.4896
-2.59787
-2.56539
-2.54287
-2.47695
-2.40615
-2.31441
-2.23279
-2.1425
-1.99523
-1.84174
-1.54737
-1.19158
-0.750579
-0.142313
0.234965
-0.963757
-1.27955
-1.64478
-1.94645
-2.09263
-2.19864
-2.24039
-2.20973
-2.18308
-2.04898
-2.03841
-1.93377
-1.85306
-1.70762
-1.57906
-1.36506
-1.02682
-0.680118
-0.204678
0.1313
-0.874098
-1.08464
-1.35516
-1.55654
-1.69311
-1.75763
-1.83685
-1.77155
-1.6972
-1.66441
-1.56405
-1.57378
-1.50235
-1.42729
-1.23027
-1.10971
-0.912765
-0.600109
-0.288867
0.109118
-0.584848
-0.834697
-0.951118
-1.17299
-1.24379
-1.27464
-1.34997
-1.28624
-1.2195
-1.20846
-1.17532
-1.17551
-1.09809
-0.984245
-0.95952
-0.881663
-0.698448
-0.408308
-0.137405
0.0217114
-0.372133
-0.480097
-0.560928
-0.695314
-0.712456
-0.820073
-0.835624
-0.820026
-0.796749
-0.779301
-0.70582
-0.696433
-0.703603
-0.650632
-0.569037
-0.506453
-0.404088
-0.252718
-0.158972
0.00924439
-0.140456
-0.131067
-0.194985
-0.237785
-0.319132
-0.262052
-0.340959
-0.275794
-0.271171
-0.206972
-0.266727
-0.22164
-0.228903
-0.191802
-0.265546
-0.202549
-0.194552
-0.144362
-0.0222379
-0.018385
-0.572628
-1.20771
-1.93184
-2.40317
-2.76371
-2.92425
-3.05286
-3.05014
-3.02097
-3.00019
-2.7916
-2.68902
-2.45099
-2.24521
-1.92927
-1.48041
-1.01906
-0.284634
0.543485
1.27534
-0.718309
-1.22457
-1.83587
-2.23478
-2.50572
-2.79058
-2.84839
-2.85173
-2.81653
-2.70261
-2.60031
-2.5617
-2.33069
-2.19609
-1.84471
-1.55766
-1.06321
-0.454371
0.261569
0.916137
-0.732343
-1.16849
-1.64364
-2.04196
-2.28345
-2.41228
-2.58002
-2.54597
-2.59235
-2.43872
-2.39261
-2.22087
-2.06005
-1.9406
-1.66973
-1.33776
-1.03152
-0.503991
0.0694859
0.662886
-0.673617
-1.01743
-1.41552
-1.73669
-1.99459
-2.14146
-2.17898
-2.1922
-2.17036
-2.10567
-1.97532
-1.94145
-1.79041
-1.65138
-1.42149
-1.23209
-0.89006
-0.467639
-0.0444443
0.431291
-0.629016
-0.8066
-1.11673
-1.44532
-1.58538
-1.7172
-1.80051
-1.67559
-1.70467
-1.65081
-1.60525
-1.6179
-1.48771
-1.34423
-1.18673
-1.03381
-0.748512
-0.420347
-0.0641595
0.285319
-0.502304
-0.646382
-0.846687
-1.02263
-1.12255
-1.16425
-1.30918
-1.26429
-1.25288
-1.24529
-1.21009
-1.16832
-1.15278
-0.953548
-0.870125
-0.687884
-0.569465
-0.367407
-0.0123221
0.161183
-0.244635
-0.418269
-0.512791
-0.694115
-0.700258
-0.708701
-0.763717
-0.743447
-0.780881
-0.724967
-0.701601
-0.727578
-0.646349
-0.578411
-0.549296
-0.446274
-0.360989
-0.156865
-0.0775823
0.0835454
-0.114679
-0.107237
-0.134616
-0.220874
-0.22861
-0.218797
-0.26968
-0.267351
-0.248842
-0.261848
-0.155397
-0.248039
-0.221972
-0.158293
-0.171328
-0.179573
-0.0721157
-0.0574163
-0.0484581
0.102642
0.237944
-0.494842
-1.25883
-1.84371
-2.30938
-2.53282
-2.73547
-2.69615
-2.71582
-2.69736
-2.47781
-2.42851
-2.18807
-1.82114
-1.57438
-1.02788
-0.465595
0.2669
1.23451
1.99961
0.0338947
-0.616094
-1.31327
-1.75686
-2.14498
-2.39049
-2.55017
-2.58134
-2.58575
-2.56544
-2.42262
-2.28663
-2.11027
-1.80402
-1.49035
-1.05918
-0.595894
0.123509
0.849939
1.61432
-0.139776
-0.620243
-1.17587
-1.65863
-1.94476
-2.22573
-2.23959
-2.30989
-2.30202
-2.3311
-2.18047
-2.10822
-1.88562
-1.79274
-1.34977
-1.0745
-0.598573
-0.0747173
0.583546
1.07222
-0.218731
-0.605157
-1.05495
-1.39944
-1.64567
-1.84666
-1.91819
-1.98349
-2.00201
-1.94664
-1.83889
-1.79342
-1.66437
-1.43912
-1.26623
-0.903545
-0.621188
-0.125843
0.404508
0.874088
-0.233292
-0.520201
-0.830002
-1.1992
-1.35041
-1.48867
-1.51622
-1.57784
-1.61564
-1.6026
-1.50343
-1.50994
-1.32678
-1.22684
-1.00977
-0.786688
-0.455534
-0.100591
0.246655
0.604485
-0.271197
-0.374343
-0.627952
-0.814957
-0.980097
-1.15178
-1.16796
-1.21303
-1.10698
-1.14807
-1.09672
-1.13927
-0.959265
-0.802305
-0.736512
-0.592398
-0.344907
-0.0708212
0.0792224
0.443318
-0.14421
-0.23795
-0.359819
-0.4953
-0.549081
-0.680348
-0.665148
-0.755062
-0.665689
-0.655928
-0.686565
-0.607981
-0.624384
-0.543557
-0.436379
-0.297144
-0.26905
-0.135648
0.132472
0.251433
-0.0398924
0.00223923
-0.136584
-0.198955
-0.188284
-0.212416
-0.239961
-0.217948
-0.245572
-0.249287
-0.231594
-0.182603
-0.142397
-0.101829
-0.0872533
-0.0607188
-0.0379396
-0.0587724
0.006386
0.0564365
1.26556
0.463927
-0.318392
-0.949243
-1.41597
-1.79861
-1.9836
-2.14058
-2.22611
-2.09362
-1.98049
-1.81234
-1.5489
-1.25489
-0.822123
-0.309868
0.426498
1.21327
2.19691
3.00638
0.845091
0.176178
-0.447665
-1.04945
-1.38884
-1.79136
-1.91537
-2.03244
-2.07144
-1.99548
-1.9067
-1.72936
-1.55825
-1.29882
-0.919018
-0.440676
0.11589
0.895749
1.66745
2.40582
0.60338
0.109493
-0.506205
-1.03524
-1.41624
-1.60159
-1.82764
-1.78969
-1.90058
-1.86329
-1.77201
-1.62651
-1.44145
-1.23865
-0.930269
-0.502124
-0.010182
0.660047
1.3304
1.91497
0.400729
-0.0591344
-0.49158
-0.907725
-1.23703
-1.44392
-1.55877
-1.6477
-1.6864
-1.61862
-1.49229
-1.44178
-1.31221
-1.10895
-0.832872
-0.438899
-0.0298826
0.415351
0.913613
1.48993
0.303881
-0.073207
-0.493315
-0.713359
-0.976104
-1.14903
-1.24445
-1.32394
-1.34084
-1.30577
-1.23416
-1.20937
-1.04252
-0.952005
-0.696566
-0.466179
-0.146703
0.299328
0.730726
1.03769
0.177605
-0.0873963
-0.357215
-0.563136
-0.713682
-0.850654
-0.97784
-0.931614
-1.00921
-0.956355
-0.936968
-0.839508
-0.865643
-0.6733
-0.533039
-0.339302
-0.0782373
0.165613
0.502212
0.745758
0.0876103
-0.010438
-0.205956
-0.334191
-0.495036
-0.417915
-0.535479
-0.593478
-0.64893
-0.577014
-0.597453
-0.488438
-0.504743
-0.38422
-0.313313
-0.306501
-0.0461614
0.170458
0.276108
0.456613
0.0131604
0.0251157
-0.0748732
-0.126504
-0.146985
-0.152586
-0.167783
-0.205868
-0.18816
-0.220709
-0.252066
-0.161411
-0.192596
-0.164788
-0.11125
-0.0390506
0.0496228
0.0167564
0.0877611
0.199301
2.54372
1.74811
0.890524
0.173687
-0.356698
-0.761372
-1.03579
-1.2933
-1.31426
-1.27158
-1.09412
-0.93222
-0.661849
-0.292244
0.163776
0.752437
1.49482
2.42877
3.41246
4.3674
2.03163
1.24766
0.565131
0.0199162
-0.522812
-0.932623
-1.15491
-1.2236
-1.37348
-1.2941
-1.17625
-1.0168
-0.739066
-0.55149
-0.10834
0.536557
1.1323
1.90214
2.74508
3.54362
1.51991
1.00559
0.338833
-0.11434
-0.573434
-0.838615
-1.1128
-1.19398
-1.26408
-1.21387
-1.15996
-0.985252
-0.832662
-0.545198
-0.169092
0.218327
0.789853
1.43911
2.22348
2.88533
1.20339
0.768313
0.234722
-0.280794
-0.620612
-0.784991
-0.930738
-1.07965
-1.10297
-1.10579
-1.04964
-0.880746
-0.723498
-0.497063
-0.220904
0.141889
0.593798
1.12662
1.69234
2.22055
0.842271
0.590783
0.132696
-0.230649
-0.460965
-0.680144
-0.787509
-0.867597
-0.917963
-0.918477
-0.867912
-0.799817
-0.639225
-0.454862
-0.232666
0.0855025
0.424129
0.826417
1.30486
1.67211
0.545165
0.369051
0.082031
-0.210463
-0.391637
-0.509081
-0.618485
-0.587688
-0.625165
-0.630224
-0.6502
-0.544961
-0.459462
-0.398376
-0.17291
0.0666921
0.303915
0.570417
0.901336
1.09805
0.342997
0.209198
-0.00664151
-0.0591252
-0.240419
-0.326776
-0.443818
-0.384534
-0.373423
-0.43807
-0.390281
-0.350098
-0.280474
-0.156739
-0.133408
-0.0596188
0.163613
0.381432
0.554696
0.748188
0.101835
0.151283
-0.0175846
-0.006315
-0.0943567
-0.0566205
-0.16955
-0.100917
-0.154162
-0.134333
-0.190008
-0.110217
-0.107546
-0.0462352
-0.0155149
-0.00659883
0.0475103
0.124556
0.130816
0.181787
4.23624
3.34221
2.50888
1.62417
0.981608
0.552405
0.109672
-0.00192639
-0.0747345
-0.0369575
0.0589512
0.264853
0.537051
1.05354
1.45372
2.12747
2.96553
3.97511
4.94438
5.96551
3.43661
2.68935
1.9633
1.22203
0.657002
0.255461
-0.0490374
-0.257643
-0.243982
-0.284556
-0.173028
-0.00536918
0.249875
0.683676
1.10331
1.71873
2.35988
3.17091
4.09644
4.86573
2.82267
2.15315
1.51005
0.901702
0.476637
0.175484
-0.111208
-0.341587
-0.352847
-0.392439
-0.230368
-0.175796
0.0798819
0.414273
0.748806
1.31237
1.95522
2.64599
3.38336
4.01457
2.18601
1.66843
1.15349
0.667164
0.259072
-0.024724
-0.319831
-0.317328
-0.362967
-0.346278
-0.259816
-0.223617
0.0317867
0.232999
0.541839
1.01816
1.45793
2.00235
2.65986
3.17605
1.60851
1.26326
0.805062
0.420108
0.243704
-0.080832
-0.263196
-0.313311
-0.317362
-0.377375
-0.353753
-0.245976
0.0134168
0.100227
0.3951
0.750415
1.08355
1.54665
1.99726
2.47905
1.12719
0.879966
0.601975
0.311633
0.109459
-0.0387913
-0.174588
-0.260802
-0.291965
-0.172682
-0.251626
-0.154631
-0.0556737
0.00904758
0.20988
0.490132
0.741276
1.0731
1.41643
1.7625
0.683643
0.536687
0.295087
0.301553
0.026777
-0.0127854
-0.115094
-0.163917
-0.203319
-0.137592
-0.153136
-0.137007
-0.00589023
0.0827361
0.180657
0.315523
0.43483
0.634868
0.80424
1.02858
0.225649
0.170728
0.111846
-0.00346285
0.00447593
-0.0706507
-0.00635553
-0.0695421
-0.0842198
-0.066795
-0.042219
-0.0215815
-0.0112555
0.0136646
0.00919396
0.103594
0.158209
0.149227
0.333338
0.37917
6.09249
5.18934
4.18888
3.39181
2.67987
2.13702
1.83631
1.58448
1.4945
1.39172
1.62243
1.77494
2.05202
2.54199
3.06846
3.85274
4.6405
5.73561
6.79693
7.7168
5.11562
4.38414
3.45846
2.77248
2.16331
1.66172
1.41889
1.08349
1.04937
1.09386
1.15018
1.36699
1.58894
2.00946
2.46204
3.23076
3.84833
4.77881
5.73229
6.52976
4.15807
3.5497
2.78191
2.21806
1.66761
1.34814
0.989962
0.925779
0.761475
0.811941
0.816511
1.00101
1.23072
1.48501
1.98755
2.50534
3.12209
3.86987
4.7186
5.39085
3.24313
2.79397
2.2663
1.63543
1.37295
0.950906
0.802355
0.647383
0.55355
0.549523
0.585474
0.735509
0.873075
1.18431
1.55776
1.94369
2.4535
3.07533
3.77036
4.33461
2.4757
2.13086
1.65479
1.26929
0.97988
0.678175
0.56971
0.373444
0.333464
0.334367
0.439614
0.562917
0.671784
0.909396
1.17624
1.42161
1.91103
2.4263
2.86354
3.31083
1.6925
1.50236
1.15965
0.916377
0.584455
0.448237
0.322246
0.332364
0.26393
0.222154
0.332274
0.334742
0.474595
0.601951
0.780597
1.02525
1.38296
1.64783
2.07716
2.36505
1.00679
0.884899
0.692684
0.540511
0.387263
0.231417
0.210891
0.151951
0.207377
0.0962272
0.185471
0.231076
0.197513
0.364074
0.442506
0.602301
0.797562
1.0565
1.19073
1.40119
0.319431
0.323773
0.163287
0.13422
0.149754
0.0360442
0.0869759
0.0991649
0.0348362
0.0109993
0.0202141
0.12919
0.110161
0.141634
0.172231
0.229079
0.248706
0.371165
0.388214
0.445015
8.34388
7.35833
6.39526
5.3899
4.73146
4.17751
3.65495
3.45567
3.30016
3.25016
3.46013
3.57612
3.95318
4.4615
5.14281
5.81532
6.702
7.78883
8.95042
9.9141
7.00517
6.20923
5.289
4.53095
3.93784
3.37905
2.99703
2.81885
2.72756
2.62178
2.71039
2.9191
3.23893
3.68912
4.19554
4.92016
5.5887
6.56951
7.54024
8.46112
5.71033
5.10111
4.36524
3.66287
3.07896
2.79507
2.42563
2.19026
2.15203
2.08609
2.13904
2.34288
2.71204
2.99065
3.41915
3.91427
4.58328
5.43875
6.25122
6.93723
4.63605
4.08128
3.49308
2.96789
2.56536
2.10967
1.87924
1.764
1.63085
1.65497
1.64266
1.82134
2.05052
2.43388
2.72885
3.19617
3.69998
4.3106
5.01941
5.6586
3.55066
3.21467
2.61754
2.21223
1.86834
1.67442
1.48227
1.31009
1.2185
1.0881
1.25635
1.38109
1.57622
1.70831
2.03695
2.4579
2.79022
3.32359
3.82857
4.26467
2.47298
2.24579
1.82265
1.58654
1.32744
1.14996
1.06884
0.925188
0.853357
0.823673
0.82141
1.01315
1.11139
1.32322
1.45217
1.77945
2.00549
2.30478
2.77187
3.05925
1.46173
1.35627
1.03378
1.00003
0.756859
0.640069
0.642067
0.527335
0.468222
0.511138
0.488128
0.529927
0.555456
0.747154
0.837541
1.03729
1.23087
1.41023
1.63607
1.82306
0.472658
0.401173
0.392482
0.338305
0.251588
0.190341
0.228299
0.198846
0.186786
0.150275
0.182404
0.165269
0.214533
0.23028
0.308094
0.316067
0.395733
0.538366
0.576497
0.623511
10.7674
9.7287
8.76344
7.74631
7.00662
6.41038
5.88659
5.62802
5.47036
5.41503
5.57723
5.78738
6.16234
6.60517
7.32437
8.06863
9.01856
10.1234
11.2508
12.4096
9.12112
8.30393
7.35282
6.58185
5.78158
5.22734
5.00494
4.63039
4.51611
4.43376
4.5794
4.7884
5.08374
5.4996
6.15768
6.80389
7.57358
8.53692
9.6111
10.5051
7.61057
6.82553
6.121
5.44063
4.79738
4.39551
4.10131
3.758
3.70433
3.68449
3.70223
3.91809
4.24727
4.57805
5.02512
5.70652
6.39147
7.1583
7.98459
8.7545
6.14746
5.53747
4.95545
4.28411
3.93841
3.50499
3.18151
3.04565
2.91215
2.94414
3.01045
3.11973
3.29975
3.6465
4.04582
4.5329
5.04922
5.71919
6.46972
7.09083
4.70465
4.25489
3.80621
3.31521
2.96984
2.64039
2.41674
2.29249
2.27644
2.18062
2.25363
2.34396
2.55934
2.72181
3.10415
3.49405
3.95491
4.36914
4.91545
5.42222
3.31395
3.02042
2.70331
2.31524
2.16451
1.79626
1.72065
1.62457
1.49
1.47993
1.62475
1.64246
1.83554
1.9913
2.19473
2.43154
2.78769
3.14168
3.54454
3.90054
1.97852
1.7644
1.49477
1.35223
1.18827
1.10906
0.961603
0.896604
0.807796
0.903143
0.956114
0.941144
1.06344
1.21464
1.30802
1.46721
1.68982
1.80188
2.05412
2.23486
0.758249
0.624904
0.442393
0.452263
0.460102
0.347105
0.384893
0.277571
0.295045
0.24922
0.340792
0.405235
0.322546
0.379938
0.46245
0.438117
0.511135
0.687224
0.697829
0.7176
13.4598
12.3815
11.2622
10.3443
9.51396
8.82705
8.37409
8.07302
7.76828
7.75806
7.89748
8.08599
8.44482
9.01871
9.74831
10.5159
11.5617
12.7255
13.8194
14.9313
11.3959
10.5036
9.58337
8.72631
7.97531
7.37912
7.02595
6.75014
6.51386
6.52513
6.56489
6.88995
7.11386
7.61942
8.21217
8.91366
9.78457
10.7638
11.7928
12.7639
9.53554
8.80385
7.88115
7.26451
6.60732
6.1634
5.75028
5.46802
5.37372
5.27876
5.39278
5.62929
5.91544
6.25424
6.81431
7.42058
8.10356
8.92833
9.84065
10.643
7.62303
7.02211
6.45118
5.84538
5.32018
4.86566
4.64163
4.45473
4.30135
4.22573
4.29996
4.48878
4.69699
5.06157
5.4071
6.00063
6.56851
7.30905
8.05047
8.56827
5.88158
5.44763
4.93988
4.4489
4.06937
3.74065
3.48515
3.36956
3.33767
3.25388
3.31852
3.39481
3.58921
3.87492
4.16321
4.59625
5.01714
5.60386
6.15846
6.68195
4.20568
3.88745
3.48477
3.19662
2.87827
2.62357
2.50283
2.32313
2.33676
2.23776
2.32296
2.39489
2.47996
2.75089
2.95101
3.30003
3.58605
3.98905
4.38693
4.73194
2.48189
2.2935
2.07738
1.81414
1.73376
1.59282
1.47291
1.41292
1.29322
1.4516
1.40371
1.43575
1.57204
1.70323
1.80168
1.94475
2.07164
2.32791
2.62364
2.80149
0.818894
0.747526
0.649954
0.691186
0.562142
0.528896
0.495884
0.441279
0.430984
0.505003
0.436182
0.520903
0.513407
0.590063
0.605658
0.651082
0.77965
0.812292
0.842172
0.992452
15.9993
15.0545
13.8834
12.8643
11.9355
11.2891
10.7632
10.3889
10.1527
10.1168
10.2411
10.5304
10.8998
11.4701
12.1748
12.9986
14.065
15.1548
16.4415
17.5835
13.5554
12.6679
11.7485
10.9807
10.0807
9.49433
9.11144
8.79911
8.59839
8.49591
8.64319
8.8885
9.25843
9.66219
10.3825
11.0527
11.921
12.8976
14.0131
15.012
11.2837
10.6129
9.73473
9.01404
8.37743
7.89788
7.52475
7.22639
7.099
7.04982
7.08537
7.37857
7.56323
7.97938
8.54915
9.11117
9.91775
10.747
11.6505
12.5437
9.13296
8.56597
7.9297
7.23057
6.73121
6.27971
6.00324
5.8384
5.67258
5.65529
5.70767
5.80972
6.09823
6.39199
6.8309
7.31228
7.92901
8.66448
9.42246
10.0884
7.02104
6.5848
5.99763
5.58966
5.13125
4.79703
4.55903
4.44797
4.35965
4.34669
4.34681
4.43539
4.59656
4.88933
5.27164
5.70943
6.12964
6.61365
7.20608
7.74525
4.96736
4.67107
4.30644
3.91597
3.57914
3.36671
3.21566
3.14812
3.0638
3.00208
3.04633
3.1783
3.30526
3.4626
3.76717
4.04685
4.35728
4.73807
5.14412
5.4521
2.93851
2.79059
2.54316
2.35986
2.15393
1.99869
1.89664
1.94037
1.84503
1.85368
1.82715
1.94048
1.98971
2.12126
2.16941
2.43165
2.54331
2.75864
3.10542
3.22263
1.06573
0.949115
0.855495
0.826227
0.707776
0.705883
0.654121
0.665945
0.554926
0.599231
0.645361
0.583368
0.67037
0.724447
0.776837
0.780506
0.86625
0.91548
1.0174
1.07844
18.1926
17.1025
15.9892
14.9518
13.9612
13.2757
12.8222
12.4215
12.2014
12.1736
12.2842
12.5629
12.9126
13.4662
14.1454
15.0932
16.0571
17.3131
18.5603
19.6903
15.3867
14.4647
13.4394
12.5665
11.8062
11.1707
10.6625
10.3652
10.1969
10.1652
10.232
10.4581
10.7947
11.3004
11.8505
12.7035
13.611
14.6248
15.7033
16.7014
12.7242
11.9445
11.1139
10.302
9.65249
9.30447
8.77046
8.53338
8.35208
8.38339
8.41482
8.64455
8.80638
9.35456
9.81265
10.4593
11.2044
12.0981
12.9584
13.7908
10.2397
9.64988
8.97529
8.31869
7.72158
7.30358
7.00851
6.80254
6.68006
6.63607
6.71111
6.85115
7.14138
7.45701
7.94897
8.38121
9.00235
9.79219
10.457
11.2101
7.91039
7.36488
6.94444
6.37142
5.98324
5.53526
5.38266
5.10053
5.05983
5.0696
5.04538
5.19723
5.38758
5.6981
6.06241
6.44276
6.87267
7.52457
8.06073
8.55471
5.56365
5.21659
4.80737
4.52036
4.23184
3.90204
3.73693
3.65764
3.60974
3.53166
3.65883
3.68921
3.77402
4.00496
4.24081
4.56556
4.90877
5.37035
5.701
6.08624
3.32698
3.17283
2.88512
2.68247
2.55574
2.35706
2.26439
2.16737
2.13887
2.1207
2.13144
2.1894
2.27631
2.38487
2.5206
2.72363
2.93348
3.16142
3.41199
3.60015
1.10941
1.00195
0.958478
0.838897
0.801931
0.818763
0.76656
0.721971
0.673503
0.737603
0.683727
0.677857
0.783544
0.806774
0.80612
0.905881
0.965826
1.12608
1.1228
1.22244
)
;

boundaryField
{
    hotSide
    {
        type            calculated;
        value           nonuniform List<scalar> 
400
(
4.20316
3.3642
2.39849
1.60231
0.889122
0.347789
0.116247
0.0639241
0.301864
0.832454
1.67448
2.73744
4.05495
5.79095
7.69491
9.99832
12.4783
15.2315
17.8363
20.0995
4.02891
3.13347
2.20452
1.21053
0.472542
-0.0543083
-0.414674
-0.339501
-0.320499
0.227169
0.969573
1.96179
3.28346
4.91925
6.81237
9.03175
11.457
14.1692
16.9061
19.0228
3.87266
3.05315
2.04772
1.04352
0.191571
-0.385043
-0.76965
-0.888375
-0.739501
-0.465702
0.23467
1.20641
2.45075
4.10881
5.83291
8.08791
10.5093
13.066
15.7497
17.9229
3.99129