/*--------------------------------*- C++ -*----------------------------------*\
| =========                 |                                                 |
| \\      /  F ield         | OpenFOAM: The Open Source CFD Toolbox           |
|  \\    /   O peration     | Version:  2212                                  |
|   \\  /    A nd           | Website:  www.openfoam.com                      |
|    \\/     M anipulation  |                                                 |
\*---------------------------------------------------------------------------*/
FoamFile
{
    version     2.0;
    format      ascii;
    arch        "LSB;label=32;scalar=64";
    class       volScalarField;
    location    "0";
    object      T;
}
// * * * * * * * * * * * * * * * * * * * * * * * * * * * * * * * * * * * * * //

dimensions      [0 0 0 1 0 0 0];

internalField   nonuniform List<scalar> 
3200
(
317.248
317.137
317.002
316.847
317.232
317.618
318.211
318.798
319.179
319.401
319.67
319.788
319.628
319.475
319.348
319.032
318.972
318.834
319.239
319.706
314.97
314.956
314.803
314.653
314.99
315.324
315.828
316.35
316.667
316.847
317.108
317.189
317.04
316.914
316.8
316.528
316.473
316.322
316.691
317.094
312.703
312.734
312.593
312.442
312.732
313.019
313.423
313.86
314.141
314.278
314.514
314.575
314.433
314.325
314.243
314.014
313.969
313.811
314.134
314.466
310.411
310.465
310.363
310.226
310.469
310.681
311.014
311.35
311.568
311.694
311.9
311.921
311.833
311.725
311.679
311.49
311.453
311.277
311.585
311.841
308.125
308.167
308.107
307.984
308.171
308.318
308.568
308.837
308.994
309.09
309.279
309.256
309.218
309.109
309.104
308.949
308.925
308.77
309.032
309.221
305.815
305.847
305.835
305.712
305.838
305.956
306.12
306.313
306.419
306.495
306.66
306.633
306.581
306.514
306.503
306.424
306.392
306.271
306.471
306.601
303.505
303.507
303.515
303.435
303.516
303.601
303.668
303.808
303.851
303.894
304.003
303.983
303.959
303.915
303.898
303.878
303.833
303.768
303.892
303.968
301.185
301.175
301.176
301.15
301.174
301.204
301.224
301.273
301.289
301.312
301.346
301.334
301.327
301.312
301.296
301.293
301.285
301.27
301.313
301.335
317.258
317.119
316.971
317.018
317.461
317.799
318.32
318.948
319.433
319.792
319.927
320.007
319.956
319.614
319.479
319.224
319.163
319.041
319.453
319.919
314.984
314.896
314.808
314.831
315.173
315.454
315.909
316.451
316.868
317.176
317.278
317.38
317.313
317
316.888
316.673
316.626
316.524
316.879
317.276
312.72
312.646
312.591
312.619
312.87
313.1
313.48
313.939
314.267
314.54
314.648
314.72
314.662
314.39
314.329
314.122
314.078
313.979
314.301
314.63
310.438
310.37
310.344
310.358
310.548
310.73
311.038
311.404
311.678
311.908
311.995
312.042
312.023
311.795
311.741
311.552
311.538
311.435
311.747
311.984
308.139
308.095
308.068
308.066
308.192
308.352
308.606
308.863
309.089
309.266
309.361
309.379
309.362
309.185
309.148
309.017
308.986
308.913
309.145
309.326
305.809
305.807
305.75
305.768
305.841
305.969
306.138
306.336
306.487
306.623
306.71
306.713
306.698
306.558
306.56
306.47
306.422
306.364
306.514
306.66
303.494
303.499
303.428
303.478
303.486
303.58
303.686
303.822
303.903
303.988
304.029
304.042
304.006
303.935
303.942
303.904
303.849
303.811
303.914
303.991
301.17
301.171
301.148
301.17
301.166
301.197
301.241
301.292
301.307
301.334
301.347
301.36
301.336
301.31
301.312
301.31
301.297
301.281
301.316
301.344
317.533
317.148
317.139
317.304
317.701
317.985
318.642
319.204
319.738
320.127
320.256
320.425
320.392
320.018
319.656
319.459
319.267
319.28
319.635
320.021
315.25
314.917
314.909
315.061
315.416
315.63
316.195
316.659
317.136
317.464
317.582
317.725
317.681
317.337
317.044
316.879
316.72
316.714
317.027
317.379
312.949
312.66
312.659
312.784
313.115
313.275
313.723
314.109
314.53
314.803
314.885
315
314.987
314.671
314.436
314.29
314.164
314.158
314.414
314.71
310.623
310.382
310.376
310.474
310.761
310.865
311.23
311.554
311.916
312.121
312.193
312.276
312.245
312.021
311.82
311.703
311.61
311.626
311.784
312.044
308.29
308.085
308.094
308.158
308.38
308.446
308.731
309.017
309.286
309.428
309.504
309.561
309.508
309.356
309.211
309.109
309.046
309.075
309.184
309.346
305.937
305.78
305.791
305.818
305.973
306.038
306.24
306.447
306.645
306.75
306.768
306.843
306.777
306.69
306.588
306.499
306.478
306.492
306.562
306.68
303.56
303.481
303.491
303.487
303.584
303.625
303.774
303.887
304.004
304.071
304.058
304.122
304.067
304.02
303.983
303.899
303.884
303.91
303.942
304.01
301.194
301.165
301.169
301.176
301.21
301.207
301.268
301.311
301.343
301.363
301.356
301.374
301.364
301.337
301.338
301.307
301.3
301.313
301.329
301.341
317.841
317.468
317.491
317.646
318.023
318.449
318.93
319.607
320.172
320.65
320.783
320.885
320.887
320.49
320.111
319.769
319.562
319.551
319.808
320.19
315.514
315.197
315.244
315.344
315.678
316.027
316.433
317.006
317.496
317.904
318.026
318.123
318.091
317.761
317.43
317.153
316.945
316.969
317.187
317.524
313.172
312.909
312.936
313.029
313.296
313.573
313.936
314.406
314.811
315.138
315.269
315.372
315.297
315.029
314.753
314.536
314.336
314.364
314.566
314.859
310.792
310.603
310.62
310.702
310.913
311.125
311.406
311.779
312.106
312.373
312.513
312.592
312.499
312.298
312.101
311.897
311.72
311.752
311.923
312.165
308.408
308.273
308.28
308.343
308.504
308.674
308.881
309.173
309.391
309.619
309.751
309.81
309.716
309.571
309.428
309.252
309.113
309.132
309.28
309.459
306.041
305.927
305.93
305.97
306.085
306.202
306.364
306.564
306.697
306.874
306.964
307.002
306.93
306.856
306.738
306.606
306.487
306.532
306.629
306.757
303.618
303.559
303.567
303.58
303.657
303.724
303.824
303.951
304.037
304.139
304.184
304.213
304.156
304.122
304.046
303.985
303.891
303.942
303.98
304.067
301.21
301.201
301.197
301.197
301.224
301.243
301.283
301.322
301.363
301.379
301.406
301.411
301.382
301.389
301.366
301.343
301.31
301.325
301.339
301.372
318.354
317.913
317.874
318.174
318.367
318.971
319.451
320.036
320.596
321.108
321.327
321.449
321.335
320.997
320.506
320.128
320.015
319.833
320.186
320.596
315.941
315.575
315.568
315.819
315.949
316.48
316.902
317.384
317.861
318.322
318.497
318.62
318.502
318.21
317.789
317.441
317.371
317.2
317.492
317.86
313.509
313.228
313.238
313.418
313.51
313.951
314.327
314.715
315.123
315.535
315.659
315.751
315.67
315.413
315.062
314.76
314.721
314.568
314.789
315.124
311.098
310.847
310.872
310.991
311.062
311.414
311.731
312.048
312.374
312.73
312.815
312.891
312.831
312.609
312.34
312.1
312.049
311.93
312.082
312.381
308.624
308.42
308.48
308.56
308.616
308.874
309.148
309.384
309.621
309.919
309.979
310.031
309.979
309.791
309.594
309.43
309.366
309.302
309.407
309.636
306.154
306.022
306.088
306.113
306.169
306.336
306.543
306.701
306.872
307.092
307.126
307.161
307.131
306.981
306.849
306.763
306.696
306.675
306.73
306.88
303.691
303.623
303.667
303.656
303.712
303.817
303.908
304.038
304.121
304.25
304.288
304.312
304.302
304.186
304.118
304.081
304.021
304.009
304.051
304.135
301.24
301.219
301.233
301.231
301.241
301.271
301.306
301.353
301.37
301.406
301.443
301.442
301.446
301.4
301.39
301.373
301.354
301.338
301.354
301.395
318.738
318.406
318.378
318.543
318.79
319.472
320
320.578
321.209
321.701
322.033
322.052
321.756
321.505
321.097
320.694
320.523
320.413
320.692
320.995
316.298
316.034
315.991
316.149
316.334
316.93
317.373
317.874
318.407
318.822
319.109
319.141
318.858
318.638
318.292
317.947
317.784
317.714
317.964
318.201
313.841
313.625
313.576
313.703
313.862
314.345
314.732
315.151
315.606
315.947
316.171
316.219
315.99
315.782
315.476
315.199
315.052
315.018
315.227
315.375
311.357
311.185
311.123
311.252
311.378
311.754
312.083
312.394
312.776
313.062
313.238
313.262
313.102
312.907
312.661
312.463
312.339
312.326
312.463
312.587
308.863
308.721
308.672
308.786
308.862
309.154
309.422
309.651
309.939
310.174
310.301
310.298
310.223
310.005
309.839
309.713
309.618
309.606
309.689
309.797
306.34
306.251
306.207
306.294
306.336
306.548
306.765
306.878
307.105
307.275
307.357
307.342
307.313
307.129
307.03
306.948
306.869
306.86
306.91
307.006
303.811
303.753
303.72
303.775
303.819
303.944
304.082
304.123
304.268
304.377
304.417
304.413
304.411
304.265
304.229
304.181
304.122
304.125
304.133
304.225
301.286
301.253
301.242
301.263
301.277
301.332
301.377
301.386
301.427
301.466
301.487
301.474
301.478
301.434
301.421
301.401
301.385
301.385
301.372
301.423
319.316
318.969
318.876
319.09
319.387
319.978
320.569
321.193
321.822
322.364
322.555
322.782
322.447
322.114
321.68
321.257
321.092
320.962
321.124
321.461
316.791
316.501
316.398
316.604
316.871
317.377
317.857
318.384
318.938
319.401
319.53
319.751
319.465
319.18
318.768
318.425
318.29
318.202
318.34
318.596
314.257
314.006
313.902
314.1
314.328
314.74
315.132
315.57
316.05
316.44
316.509
316.733
316.458
316.222
315.865
315.583
315.506
315.431
315.515
315.723
311.73
311.475
311.387
311.56
311.76
312.079
312.402
312.756
313.148
313.476
313.499
313.697
313.468
313.269
312.958
312.755
312.691
312.646
312.698
312.846
309.145
308.946
308.877
309.014
309.175
309.397
309.663
309.934
310.247
310.495
310.498
310.682
310.473
310.339
310.068
309.923
309.867
309.863
309.899
309.99
306.536
306.418
306.339
306.444
306.56
306.721
306.906
307.1
307.326
307.516
307.496
307.645
307.469
307.379
307.177
307.107
307.037
307.061
307.096
307.137
303.91
303.859
303.796
303.863
303.932
304.044
304.155
304.276
304.395
304.516
304.512
304.59
304.477
304.432
304.317
304.276
304.216
304.26
304.264
304.295
301.314
301.292
301.28
301.293
301.326
301.353
301.397
301.436
301.477
301.509
301.514
301.534
301.488
301.488
301.449
301.442
301.414
301.428
301.421
301.44
319.989
319.701
319.564
319.678
320.051
320.522
321.087
321.785
322.285
322.919
323.049
323.294
323.008
322.689
322.234
321.923
321.436
321.571
321.7
322
317.39
317.123
317.027
317.095
317.428
317.846
318.322
318.911
319.324
319.886
319.97
320.19
319.945
319.666
319.273
319.017
318.6
318.709
318.856
319.076
314.766
314.519
314.46
314.508
314.782
315.133
315.533
316.004
316.373
316.832
316.898
317.103
316.883
316.646
316.305
316.097
315.758
315.872
315.975
316.144
312.103
311.896
311.874
311.905
312.107
312.413
312.735
313.078
313.401
313.784
313.834
314.004
313.816
313.627
313.33
313.17
312.906
313.014
313.088
313.21
309.433
309.275
309.271
309.276
309.426
309.653
309.924
310.172
310.43
310.711
310.763
310.879
310.758
310.607
310.367
310.252
310.02
310.131
310.194
310.278
306.759
306.664
306.638
306.642
306.742
306.895
307.114
307.256
307.476
307.656
307.693
307.775
307.694
307.585
307.405
307.329
307.158
307.247
307.291
307.363
304.064
304.004
303.988
304.003
304.042
304.14
304.273
304.35
304.494
304.6
304.629
304.676
304.622
304.551
304.443
304.4
304.299
304.356
304.395
304.436
301.359
301.341
301.34
301.338
301.356
301.381
301.438
301.454
301.502
301.55
301.558
301.56
301.554
301.529
301.477
301.472
301.443
301.462
301.476
301.482
320.653
320.335
320.252
320.287
320.611
321.054
321.843
322.332
322.906
323.413
323.635
323.746
323.553
323.211
322.803
322.496
322.136
322.169
322.327
322.492
317.965
317.687
317.596
317.631
317.91
318.31
318.986
319.372
319.87
320.321
320.488
320.583
320.448
320.14
319.787
319.523
319.18
319.246
319.369
319.511
315.261
315.026
314.919
314.952
315.168
315.511
316.089
316.401
316.816
317.231
317.342
317.405
317.323
317.083
316.739
316.543
316.236
316.325
316.417
316.509
312.526
312.312
312.232
312.268
312.402
312.72
313.184
313.419
313.757
314.136
314.208
314.23
314.185
314.002
313.718
313.556
313.311
313.393
313.469
313.508
309.758
309.585
309.552
309.56
309.666
309.92
310.271
310.44
310.711
311.015
311.064
311.083
311.055
310.895
310.685
310.576
310.378
310.438
310.519
310.519
306.958
306.863
306.83
306.847
306.931
307.105
307.34
307.443
307.644
307.87
307.897
307.938
307.916
307.791
307.636
307.584
307.427
307.452
307.522
307.521
304.173
304.137
304.096
304.112
304.182
304.276
304.409
304.466
304.595
304.722
304.731
304.779
304.752
304.678
304.587
304.566
304.466
304.48
304.513
304.517
301.406
301.398
301.374
301.377
301.401
301.435
301.47
301.496
301.537
301.585
301.578
301.602
301.592
301.564
301.54
301.537
301.5
301.494
301.504
301.518
321.234
320.926
320.806
320.912
321.125
321.673
322.339
322.93
323.448
323.991
324.255
324.252
324.031
323.726
323.447
323.101
322.81
322.67
322.881
322.999
318.466
318.198
318.066
318.168
318.348
318.838
319.396
319.892
320.359
320.805
321.029
321.03
320.848
320.587
320.346
320.05
319.796
319.673
319.862
319.969
315.683
315.44
315.323
315.424
315.549
315.97
316.438
316.867
317.227
317.608
317.806
317.82
317.632
317.428
317.225
316.989
316.758
316.655
316.852
316.924
312.882
312.682
312.586
312.636
312.734
313.068
313.466
313.814
314.1
314.427
314.581
314.593
314.423
314.25
314.121
313.907
313.717
313.617
313.829
313.86
310.036
309.901
309.823
309.862
309.924
310.173
310.493
310.75
310.963
311.243
311.341
311.37
311.218
311.094
311.004
310.83
310.673
310.584
310.771
310.804
307.171
307.074
307.034
307.068
307.096
307.25
307.501
307.677
307.832
308.042
308.087
308.131
307.998
307.941
307.854
307.733
307.624
307.556
307.689
307.735
304.32
304.252
304.226
304.244
304.272
304.354
304.516
304.639
304.711
304.829
304.866
304.897
304.803
304.781
304.7
304.646
304.591
304.538
304.618
304.637
301.452
301.426
301.414
301.424
301.436
301.462
301.517
301.554
301.58
301.622
301.637
301.647
301.607
301.597
301.564
301.557
301.549
301.521
301.544
301.554
321.846
321.573
321.586
321.674
321.9
322.359
322.967
323.438
324.05
324.51
324.78
324.697
324.497
324.276
324.017
323.573
323.367
323.245
323.429
323.555
319.011
318.769
318.771
318.837
319.007
319.408
319.949
320.359
320.873
321.263
321.475
321.409
321.23
321.042
320.812
320.449
320.284
320.178
320.314
320.412
316.127
315.916
315.935
315.972
316.118
316.44
316.919
317.26
317.69
318.011
318.191
318.129
317.975
317.809
317.588
317.337
317.185
317.092
317.183
317.276
313.24
313.044
313.076
313.094
313.212
313.451
313.879
314.131
314.501
314.731
314.904
314.852
314.697
314.575
314.407
314.195
314.059
313.992
314.068
314.115
310.329
310.163
310.191
310.209
310.276
310.465
310.839
311.003
311.295
311.44
311.615
311.565
311.436
311.324
311.21
311.046
310.939
310.887
310.946
310.956
307.387
307.256
307.312
307.307
307.318
307.468
307.753
307.882
308.083
308.162
308.311
308.262
308.164
308.081
308.007
307.893
307.84
307.762
307.815
307.811
304.448
304.358
304.401
304.393
304.385
304.486
304.667
304.728
304.857
304.895
304.994
304.965
304.911
304.867
304.822
304.724
304.712
304.663
304.679
304.663
301.492
301.457
301.482
301.476
301.47
301.504
301.562
301.587
301.629
301.627
301.677
301.673
301.651
301.623
301.623
301.594
301.586
301.563
301.566
301.55
322.548
322.323
322.393
322.394
322.579
322.848
323.452
324.044
324.652
325.026
325.154
325.195
324.933
324.789
324.464
324.203
323.971
323.899
323.922
324.105
319.612
319.404
319.477
319.48
319.618
319.832
320.369
320.868
321.421
321.716
321.824
321.85
321.623
321.488
321.217
320.997
320.807
320.735
320.778
320.894
316.646
316.457
316.529
316.521
316.615
316.788
317.27
317.671
318.181
318.393
318.473
318.493
318.286
318.18
317.963
317.791
317.642
317.566
317.609
317.678
313.668
313.482
313.559
313.545
313.617
313.738
314.15
314.483
314.914
315.047
315.118
315.139
314.954
314.883
314.712
314.584
314.432
314.385
314.415
314.473
310.676
310.498
310.59
310.564
310.601
310.677
311.02
311.284
311.62
311.683
311.768
311.771
311.625
311.596
311.439
311.362
311.215
311.206
311.219
311.266
307.64
307.508
307.575
307.558
307.587
307.635
307.894
308.094
308.319
308.344
308.415
308.406
308.316
308.275
308.176
308.121
308.01
308.034
308.004
308.05
304.593
304.507
304.565
304.565
304.553
304.581
304.747
304.867
304.991
305.008
305.05
305.047
304.994
304.986
304.919
304.871
304.807
304.849
304.799
304.836
301.53
301.506
301.535
301.536
301.526
301.541
301.592
301.628
301.671
301.668
301.693
301.698
301.667
301.675
301.652
301.636
301.613
301.627
301.601
301.613
323.281
322.985
323.04
323.002
323.178
323.497
324.085
324.517
325.203
325.361
325.688
325.621
325.312
325.232
325.043
324.737
324.456
324.388
324.578
324.669
320.236
319.982
320.02
320.006
320.128
320.417
320.936
321.308
321.89
322.011
322.287
322.217
321.95
321.901
321.75
321.482
321.221
321.19
321.35
321.405
317.155
316.936
316.994
316.981
317.056
317.321
317.764
318.063
318.535
318.651
318.878
318.826
318.59
318.532
318.424
318.199
317.986
317.952
318.087
318.134
314.058
313.895
313.941
313.913
313.949
314.188
314.579
314.813
315.195
315.284
315.472
315.435
315.213
315.166
315.075
314.913
314.755
314.713
314.822
314.865
310.943
310.837
310.882
310.838
310.849
311.021
311.364
311.551
311.832
311.88
312.049
312.022
311.834
311.799
311.726
311.634
311.502
311.452
311.524
311.564
307.833
307.762
307.793
307.765
307.755
307.86
308.124
308.271
308.477
308.485
308.629
308.601
308.454
308.439
308.386
308.318
308.241
308.184
308.228
308.263
304.705
304.679
304.69
304.668
304.653
304.701
304.866
304.986
305.115
305.106
305.192
305.176
305.068
305.071
305.049
304.998
304.95
304.916
304.936
304.981
301.571
301.56
301.575
301.575
301.559
301.569
301.62
301.677
301.724
301.71
301.737
301.736
301.702
301.704
301.699
301.676
301.66
301.651
301.649
301.672
323.967
323.685
323.682
323.612
324.014
324.121
324.577
324.995
325.637
325.878
326.043
326.068
325.793
325.667
325.452
325.169
324.979
325.022
325.132
325.207
320.821
320.571
320.609
320.534
320.866
320.939
321.353
321.688
322.248
322.455
322.596
322.608
322.377
322.256
322.089
321.844
321.689
321.718
321.814
321.867
317.649
317.434
317.505
317.416
317.694
317.758
318.089
318.347
318.847
319.019
319.125
319.154
318.96
318.835
318.712
318.515
318.372
318.399
318.493
318.514
314.465
314.305
314.359
314.262
314.508
314.557
314.808
315.017
315.454
315.558
315.657
315.671
315.548
315.404
315.337
315.175
315.026
315.063
315.166
315.161
311.289
311.148
311.182
311.101
311.292
311.351
311.518
311.673
312.028
312.092
312.194
312.216
312.108
312.006
311.918
311.808
311.697
311.724
311.802
311.8
308.071
307.961
308.003
307.942
308.054
308.139
308.25
308.355
308.613
308.649
308.731
308.733
308.644
308.593
308.506
308.437
308.37
308.375
308.413
308.429
304.834
304.796
304.819
304.78
304.836
304.903
304.968
305.022
305.177
305.194
305.269
305.251
305.201
305.165
305.106
305.085
305.032
305.028
305.042
305.05
301.617
301.6
301.626
301.595
301.621
301.644
301.666
301.696
301.74
301.728
301.766
301.754
301.75
301.736
301.716
301.712
301.693
301.68
301.694
301.69
324.641
324.44
324.375
324.297
324.49
324.615
325.016
325.527
325.854
326.304
326.327
326.508
326.292
326.164
325.933
325.672
325.495
325.657
325.695
325.806
321.419
321.251
321.211
321.095
321.285
321.395
321.722
322.165
322.462
322.848
322.848
323.008
322.804
322.733
322.513
322.287
322.134
322.283
322.328
322.391
318.181
318.04
318.028
317.88
318.044
318.161
318.424
318.78
319.044
319.393
319.37
319.5
319.307
319.264
319.076
318.895
318.75
318.885
318.952
318.984
314.9
314.768
314.797
314.643
314.802
314.887
315.099
315.4
315.601
315.894
315.876
315.974
315.806
315.788
315.63
315.508
315.338
315.476
315.545
315.559
311.588
311.501
311.539
311.38
311.54
311.614
311.764
312.008
312.145
312.369
312.398
312.439
312.302
312.304
312.166
312.104
311.934
312.033
312.099
312.145
308.279
308.228
308.253
308.127
308.266
308.305
308.409
308.604
308.661
308.838
308.875
308.903
308.803
308.811
308.672
308.669
308.511
308.594
308.649
308.682
304.973
304.949
304.961
304.892
304.974
304.979
305.051
305.177
305.178
305.301
305.331
305.345
305.306
305.293
305.193
305.217
305.122
305.146
305.195
305.211
301.668
301.662
301.673
301.635
301.66
301.662
301.682
301.737
301.73
301.77
301.782
301.783
301.789
301.79
301.738
301.741
301.718
301.723
301.751
301.751
325.327
325.076
325.1
324.981
325.066
325.316
325.696
326.074
326.265
326.59
326.696
326.909
326.778
326.587
326.397
326.002
326.079
326.114
326.187
326.439
322.009
321.798
321.846
321.718
321.771
321.989
322.306
322.636
322.811
323.076
323.152
323.36
323.235
323.086
322.904
322.573
322.641
322.693
322.715
322.931
318.65
318.498
318.556
318.426
318.442
318.647
318.886
319.202
319.328
319.577
319.613
319.79
319.692
319.57
319.393
319.149
319.176
319.236
319.244
319.433
315.285
315.191
315.21
315.109
315.116
315.287
315.464
315.724
315.842
316.042
316.061
316.217
316.149
316.064
315.868
315.7
315.691
315.754
315.773
315.946
311.914
311.851
311.836
311.787
311.767
311.92
312.027
312.233
312.338
312.506
312.511
312.609
312.584
312.515
312.335
312.238
312.198
312.28
312.286
312.432
308.521
308.481
308.474
308.43
308.41
308.519
308.601
308.77
308.837
308.942
308.96
309.016
309.01
308.939
308.813
308.738
308.71
308.787
308.807
308.911
305.13
305.094
305.099
305.079
305.054
305.117
305.16
305.28
305.321
305.367
305.382
305.401
305.424
305.355
305.293
305.249
305.23
305.288
305.308
305.376
301.722
301.71
301.705
301.71
301.7
301.709
301.729
301.775
301.785
301.805
301.797
301.807
301.817
301.793
301.776
301.769
301.764
301.77
301.775
301.803
326.126
325.743
325.628
325.572
325.666
325.93
326.193
326.483
326.791
327.064
327.101
327.291
327.246
327.079
326.8
326.661
326.5
326.621
326.802
327.019
322.712
322.38
322.286
322.237
322.316
322.507
322.772
323.008
323.257
323.492
323.528
323.697
323.655
323.523
323.252
323.13
322.994
323.138
323.28
323.449
319.239
318.994
318.916
318.877
318.939
319.063
319.297
319.524
319.708
319.913
319.945
320.095
320.051
319.952
319.685
319.577
319.484
319.626
319.719
319.873
315.769
315.576
315.523
315.481
315.52
315.601
315.813
316.016
316.17
316.293
316.338
316.462
316.441
316.35
316.12
316.017
315.969
316.09
316.144
316.277
312.274
312.136
312.102
312.075
312.074
312.125
312.319
312.483
312.603
312.671
312.713
312.85
312.812
312.714
312.553
312.46
312.434
312.519
312.559
312.679
308.775
308.68
308.646
308.642
308.623
308.636
308.818
308.926
309.016
309.06
309.096
309.214
309.19
309.067
308.978
308.902
308.88
308.942
308.969
309.051
305.27
305.219
305.173
305.181
305.179
305.181
305.32
305.365
305.424
305.451
305.459
305.55
305.532
305.44
305.396
305.34
305.334
305.374
305.39
305.445
301.776
301.737
301.734
301.731
301.73
301.738
301.79
301.806
301.826
301.825
301.824
301.858
301.857
301.831
301.803
301.79
301.79
301.801
301.797
301.822
326.794
326.437
326.289
326.18
326.322
326.429
326.746
327.015
327.241
327.462
327.44
327.697
327.643
327.44
327.257
327.237
327.017
327.174
327.35
327.635
323.307
323.001
322.857
322.77
322.879
322.952
323.234
323.465
323.662
323.851
323.805
324.045
323.981
323.833
323.646
323.643
323.45
323.592
323.758
323.991
319.786
319.551
319.409
319.32
319.438
319.437
319.705
319.901
320.066
320.216
320.153
320.355
320.316
320.175
320.027
320.04
319.871
319.986
320.131
320.308
316.235
316.03
315.935
315.874
315.945
315.91
316.155
316.292
316.437
316.565
316.511
316.676
316.649
316.518
316.417
316.42
316.294
316.379
316.501
316.642
312.642
312.471
312.42
312.378
312.445
312.373
312.576
312.682
312.798
312.876
312.849
312.977
312.969
312.866
312.802
312.761
312.697
312.744
312.86
312.954
309.052
308.918
308.886
308.861
308.91
308.861
308.995
309.062
309.148
309.203
309.184
309.284
309.269
309.221
309.16
309.087
309.077
309.117
309.196
309.271
305.443
305.343
305.333
305.328
305.359
305.351
305.419
305.451
305.493
305.527
305.497
305.571
305.56
305.552
305.502
305.441
305.45
305.484
305.523
305.578
301.822
301.788
301.785
301.79
301.802
301.796
301.811
301.83
301.846
301.852
301.843
301.862
301.855
301.871
301.845
301.821
301.818
301.831
301.845
301.882
327.382
327.113
326.901
326.789
326.77
326.962
327.26
327.502
327.688
327.823
327.916
328.025
327.915
327.814
327.807
327.698
327.494
327.747
327.994
328.271
323.813
323.596
323.378
323.26
323.262
323.411
323.664
323.899
324.035
324.149
324.234
324.357
324.244
324.146
324.145
324.05
323.862
324.11
324.284
324.514
320.218
320.026
319.811
319.741
319.726
319.827
320.046
320.292
320.364
320.453
320.537
320.659
320.566
320.482
320.477
320.379
320.215
320.424
320.561
320.753
316.557
316.424
316.239
316.222
316.161
316.22
316.418
316.631
316.673
316.741
316.806
316.941
316.844
316.803
316.813
316.686
316.585
316.732
316.858
316.984
312.908
312.802
312.636
312.642
312.611
312.611
312.792
312.965
312.978
313.025
313.082
313.199
313.098
313.093
313.093
312.964
312.914
313.027
313.131
313.221
309.252
309.152
309.028
309.044
309.032
309.023
309.144
309.282
309.265
309.298
309.354
309.445
309.37
309.359
309.35
309.266
309.22
309.321
309.396
309.454
305.567
305.508
305.438
305.441
305.421
305.433
305.505
305.592
305.571
305.586
305.627
305.661
305.624
305.635
305.6
305.56
305.538
305.599
305.644
305.68
301.867
301.848
301.814
301.832
301.814
301.828
301.843
301.885
301.866
301.879
301.892
301.902
301.885
301.897
301.866
301.864
301.858
301.879
301.895
301.903
327.946
327.686
327.247
327.168
327.218
327.291
327.648
327.96
327.872
327.971
328.22
328.314
328.278
328.075
328.087
328.114
327.927
328.264
328.415
328.671
324.261
324.05
323.666
323.58
323.625
323.681
324.014
324.276
324.175
324.254
324.494
324.561
324.544
324.35
324.361
324.381
324.217
324.534
324.671
324.862
320.567
320.39
320.06
319.989
320.039
320.039
320.353
320.581
320.446
320.534
320.742
320.813
320.798
320.635
320.629
320.631
320.505
320.771
320.899
321.045
316.869
316.716
316.462
316.404
316.41
316.4
316.657
316.873
316.726
316.835
316.975
317.065
317.062
316.92
316.881
316.905
316.784
317.007
317.107
317.228
313.143
313.022
312.838
312.799
312.774
312.757
312.961
313.132
313.019
313.118
313.205
313.285
313.291
313.179
313.127
313.16
313.053
313.26
313.299
313.407
309.402
309.314
309.169
309.176
309.142
309.127
309.285
309.396
309.325
309.385
309.443
309.503
309.52
309.442
309.383
309.389
309.322
309.467
309.512
309.579
305.668
305.608
305.493
305.519
305.496
305.494
305.58
305.64
305.612
305.628
305.66
305.715
305.729
305.682
305.64
305.648
305.607
305.69
305.715
305.746
301.908
301.883
301.847
301.853
301.843
301.837
301.864
301.886
301.89
301.884
301.896
301.918
301.919
301.897
301.88
301.897
301.882
301.905
301.918
301.929
)
;

boundaryField
{
    hotSide
    {
        type            fixedGradient;
        gradient        nonuniform List<scalar> 
400
(
180.478
180.806
182.425
185.298
189.289
194.206
199.838
205.999
212.531
219.314
226.258
233.302
240.404
247.544
254.714
261.92
269.175
276.499
283.908
291.411
174.645
175.103
176.941
180.116
184.462
189.75
195.74
202.225
209.035
216.044
223.163
230.331
237.511
244.686
251.854
259.029
266.233
273.493
280.833
288.267
172.522
173.242
175.32
178.706
183.237
188.683
194.805
201.393
208.275
215.325
222.45
229.592
236.714
243.802
250.861
257.907
264.968
272.073
279.252
286.523
173.865
174.972
177.317
180.848
185.423
190.845
196.9
203.393
210.161
217.076
224.047
231.013
237.941
244.819
251.655
258.468
265.287
272.144
279.07
286.084
177.738
179.306
181.959
185.641
190.234
195.575
201.483
207.785
214.329
220.993
227.688
234.356
240.968
247.517
254.015
260.485
266.961
273.476
280.059
286.736
183.073
185.134
188.143
192.04
196.716
202.031
207.825
213.944
220.244
226.612
232.963
239.247
245.445
251.559
257.613
263.639
269.676
275.761
281.929
288.205
188.985
191.545
194.955
199.144
204.006
209.404
215.186
221.199
227.302
233.383
239.367
245.215
250.925
256.52
262.043
267.54
273.063
278.656
284.357
290.195
194.787
197.827
201.66
206.206
211.351
216.95
222.842
228.857
234.844
240.684
246.307
251.692
256.867
261.887
266.821
271.74
276.71
281.784
287.005
292.402
199.928
203.393
207.63
212.551
218.035
223.922
230.026
236.15
242.109
247.768
253.057
257.983
262.613
267.044
271.385
275.732
280.166
284.748
289.524
294.521
203.962
207.742
212.296
217.536
223.334
229.515
235.867
242.155
248.152
253.691
258.703
263.225
267.37
271.286
275.116
278.981
282.974
287.161
291.585
296.274
206.567
210.49
215.201
220.611
226.588
232.948
239.462
245.866
251.902
257.377
262.218
266.485
270.326
273.922
277.442
281.018
284.751
288.708
292.932
297.449
207.593
211.453
216.11
221.474
227.411
233.737
240.221
246.596
252.607
258.061
262.884
267.134
270.957
274.533
278.029
281.581
285.29
289.226
293.435
297.942
207.115
210.708
215.105
220.217
225.908
232
238.274
244.488
250.417
255.892
260.842
265.299
269.373
273.21
276.954
280.732
284.643
288.759
293.13
297.785
205.435
208.602
212.595
217.326
222.663
228.434
234.438
240.464
246.32
251.865
257.027
261.809
266.277
270.532
274.688
278.852
283.117
287.556
292.222
297.151
203.059
205.703
209.225
213.544
218.528
224.009
229.794
235.693
241.536
247.195
252.597
257.722
262.603
267.304
271.91
276.51
281.187
286.014
291.047
296.323
200.682
202.764
205.813
209.756
214.455
219.733
225.394
231.248
237.134
242.93
248.558
253.988
259.228
264.322
269.331
274.332
279.401
284.612
290.021
295.667
199.195
200.727
203.34
206.964
211.45
216.597
222.194
228.044
233.985
239.897
245.702
251.362
256.876
262.271
267.597
272.92
278.317
283.859
289.608
295.601
199.643
200.695
202.918
206.252
210.531
215.536
221.039
226.837
232.771
238.723
244.617
250.412
256.1
261.699
267.249
272.812
278.459
284.264
290.29
296.57
202.948
203.642
205.522
208.535
212.52
217.261
222.536
228.149
233.946
239.815
245.681
251.502
257.263
262.976
268.673
274.406
280.24
286.241
292.468
298.949
209.41
209.883
211.463
214.104
217.678
222.002
226.885
232.153
237.665
243.317
249.034
254.772
260.512
266.258
272.033
277.876
283.837
289.97
296.319
302.906
)
;
    }
    coldSide
    {
        type            mixed;
        refValue        uniform 300;
        refGradient     uniform 0;
        valueFraction   uniform 0.991591;
        source          uniform 0;
        value           nonuniform List<scalar> 
400
(
300.01
300.01
300.01
300.01
300.01
300.011
300.011
300.011
300.012
300.012
300.013
300.013
300.013
300.014
300.014
300.014
300.015
300.015
300.016
300.016
300.01
300.01
300.01
300.01
300.01
300.011
300.011
300.011
300.012
300.012
300.012
300.013
300.013
300.013
300.014
300.014
300.015
300.015
300.016
300.016
300.01
300.01
300.01
300.01
300.01
300.01