/*--------------------------------*- C++ -*----------------------------------*\
| =========                 |                                                 |
| \\      /  F ield         | OpenFOAM: The Open Source CFD Toolbox           |
|  \\    /   O peration     | Version:  2212                                  |
|   \\  /    A nd           | Website:  www.openfoam.com                      |
|    \\/     M anipulation  |                                                 |
\*---------------------------------------------------------------------------*/
FoamFile
{
    version     2.0;
    format      ascii;
    arch        "LSB;label=32;scalar=64";
    class       volScalarField;
    location    "0";
    object      stateMean;
}
// * * * * * * * * * * * * * * * * * * * * * * * * * * * * * * * * * * * * * //

dimensions      [0 0 0 1 0 0 0];

internalField   nonuniform List<scalar> 
3200
(
345.403
347.528
346.183
346.712
347.882
347.803
346.899
350.332
351.229
350.494
351.076
350.507
350.773
352.521
349.053
347.789
345.128
346.654
343.46
340.221
338.558
339.568
343.982
340.73
341.155
339.302
344.73
344.659
345.379
344.723
344.906
342.163
343.029
341.749
341.938
341.445
343.538
337.991
337.836
336.578
336.422
333.436
334.638
333.405
337.756
335.108
337.41
340.157
336.597
339.542
336.9
340.081
335.954
338.721
337.158
332.482
335.097
331.54
330.641
329.21
327.109
326.445
328.343
330.99
325.114
327.157
330.192
329.752
329.592
330.622
332.09
330.46
328.707
329.026
331.644
328.866
327.86
324.273
325.015
324.165
318.606
322.234
323.58
320.34
321.641
324.267
324.293
326.567
324.048
326.934
321.448
323.066
322.433
324.464
324.379
322.864
319.514
319.445
319.744
321.14
317.427
316.564
312.908
315.309
314.086
313.347
317.88
314.115
316.906
318.869
318.608
315.878
321.827
315.63
316.871
314.598
316.707
315.112
313.996
315.187
311.081
309.094
308.938
309.027
308.849
308.6
306.094
309.473
308.223
310.414
312.43
313.079
314.766
312.697
304.703
308.793
310.97
307.144
309.909
307.037
304.354
305.58
303.019
306.131
303.404
302.45
302.273
302.371
303.208
303.143
305.27
302.661
306.169
303.763
302.828
302.908
302.358
299.386
306.134
301.502
350.303
347.548
345.765
342.901
346.656
347.089
350.143
351.237
348.87
351.381
349.653
352.198
350.578
347.224
351.984
350.409
350.844
347.085
344.01
347.428
339.619
340.645
344.364
342.401
342.531
343.584
344.433
346.258
344.057
346.545
346.018
345.161
345.614
344.032
343.024
337.061
341.616
337.936
339.84
339.687
335.132
331.231
334.649
335.221
335.776
336.278
337.511
335.391
335.303
337.579
334.891
336.977
339.26
336.889
333.967
332.395
337.74
333.157
333.605
332.522
327.971
329.166
329.004
328.115
330.649
332.377
333.501
333.301
329.962
333.099
330.364
330.765
328.971
329.688
329.118
330.051
328.359
330.329
328.447
324.314
321.994
321.364
324.396
323.347
321.967
322.394
319.989
320.56
322.523
323.796
323.362
325.27
321.043
324.039
320.791
319.34
321.821
322.238
320.325
316.971
314.937
317.47
314.447
319.118
315.129
318.029
317.132
315.634
313.362
317.73
318.183
318.024
316.901
316.074
315.49
315.883
315.066
314.18
314.295
313.103
309.837
307.448
309.391
309.304
311.907
307.373
312.977
310.649
310.229
309.3
310.731
309.609
310.738
308.097
312.21
310.488
309.552
308.901
308.832
307.391
304.092
301.099
304.419
301.421
303.143
302.618
305.323
302.506
302.278
305.81
304.315
303.436
303.366
303.374
302.059
306.467
304.421
303.012
301.76
299.918
351.96
348.985
352.245
349.074
351.974
346.732
349.801
347.761
352.785
353.454
355.305
348.389
353.038
351.624
354.034
349.578
347.764
349.63
346.367
344.578
340.634
341.868
342.302
342.911
344.619
343.15
344.216
343.047
344.215
345.466
343.978
345.353
343.547
345.579
343.157
345.083
341.562
342.375
338.682
340.525
335.498
333.069
336.044
335.458
337.146
335.968
339.57
337.018
335.856
337.304
337.788
335.076
339.529
335.954
338.131
339.076
334.122
335.711
332.349
334.776
329.637
332.811
327.716
330.384
331.276
330.206
331.102
329.592
333.682
330.112
329.884
326.144
330.341
330.392
330.639
329.366
328.779
327.992
326.058
324.723
325.447
324.338
323.801
324.296
323.064
320.256
322.949
323.571
324.097
321.957
324.029
322.445
323.615
325.055
321.826
323.381
322.019
320.031
320.418
322.649
314.449
314.366
318.825
318.381
315.788
314.795
314.471
318.302
315.058
315.915
320.95
315.501
317.748
317.451
317.937
315.463
316.039
315.444
315.671
316.692
312.47
309.643
310.841
309.44
311.476
309.84
312.974
309.713
310.039
311.009
308.81
309.599
310.295
311.175
310.201
309.791
309.217
307.769
309.991
309.366
303.624
302.341
306.077
301.299
302.604
300.1
307.62
303.193
304.773
304.779
303.264
302.081
304.989
300.86
303.415
303.687
304.213
302.175
303.139
302.252
349.873
351.108
348.519
350.192
354.681
348.647
354.082
353.027
355.774
353.382
352.486
352.553
352.615
349.152
348.637
349.271
351.884
349.928
344.537
349.714
342.088
343.025
342.378
345.535
344.666
344.612
345.395
345.472
344.727
346.977
345.833
346.609
345.846
347.412
343.943
345.353
342.471
342.409
339.755
338.895
337.832
335.665
336.487
340.224
338.4
336.812
339.493
340.367
339
341.085
338.446
336.013
339.467
336.533
338.057
338.237
339.349
333.154
333.775
337.001
328.515
327.952
330.259
330.255
332.916
334.655
331.112
333.559
332.706
336.947
330.673
333.773
333.966
330.2
332.788
329.98
330.045
330.448
328.093
328.747
325.531
325.13
321.586
321.364
325.742
322.328
325.043
326.878
323.442
322.888
323.184
323.006
323.993
324.212
324.487
326.713
321.156
317.844
319.535
322.016
318.058
319.33
316.826
316.304
318.892
317.858
317.686
318.25
318.278
317.041
316.258
321.273
315.874
314.831
319.125
317.579
317.033
317.915
314.53
316.13
309.599
307.432
306.748
307.586
310.655
310.964
309.652
308.793
310.03
311.469
311.527
309.521
310.493
309.995
310.778
310.466
310.793
311.692
308.488
308.069
302.813
302.315
306.785
301.345
303.338
305.363
306.046
302.78
304.527
302.02
304.208
305.667
302.649
301.139
304.938
305.291
304.692
303.92
302.845
302.28
350.615
349.987
353.154
350.988
355.041
354.701
352.311
353.176
356.763
355.388
355.282
356.409
352.937
354.85
352.824
350.335
352.777
349.474
349.282
349.43
342.743
345.836
342.522
347.388
348.645
348.911
346.689
348.385
346.166
349.163
349.606
348.709
346.947
343.675
345.784
344.377
347.794
340.701
339.81
337.822
339.228
336.425
337.117
339.312
339.483
339.782
342.076
338.943
339.347
344.805
339.383
340.121
340.321
339.462
338.213
337.781
339.339
337.273
336.443
335.005
328.982
330.011
330.74
328.774
331.249
333.589
330.73
333.444
332.137
332.458
335.321
332.218
331.421
331.691
331.01
330.855
329.829
329.473
327.362
327.863
319.973
324.148
323.897
324.422
327.522
324.75
325.149
327.681
323.291
325.012
326.978
323.352
324.005
320.962
323.257
325.356
322.119
323.162
325.149
326.432
312.167
319.568
312.784
316.058
319.24
314.788
317.875
316.923
317.616
322.791
316.043
318.017
317.701
320.521
319.149
314.909
316.956
315.753
317.541
313.128
309.088
308.357
310.884
313.043
308.306
313.079
309.297
309.43
311.186
312.469
311.151
306.761
313.358
311.847
312.87
311.831
309.186
311.341
312.611
309.675
303.008
298.662
303.074
301.743
304.474
304.534
299.78
306.951
303.869
302.723
303.996
303.168
302.058
304.673
304.153
303.258
305.52
304.763
305.068
304.149
353.195
353.129
355.399
351.656
355.035
354.887
350.313
356.158
354.911
357.672
352.092
353.163
351.67
354.966
354.554
351.765
352.92
348.069
350.624
351.708
345.52
342.736
346.896
345.83
346.018
344.883
346.558
346.466
346.672
347.375
347.363
348.47
345.834
347.822
344.756
347.323
343.604
344.144
341.3
346.454
334.618
336.766
339.208
338.244
338.595
341.438
343.363
340.107
338.054
344.962
337.116
342.468
339.774
341.024
337.897
336.509
338.104
334.203
334.623
336.224
333.845
332.045
330.524
336.625
334.29
332.386
333.818
332.59
336.033
334.506
332.398
335.246
334.523
331.68
333.498
329.056
329.139
331.799
331.321
328.062
323.264
323.193
323.524
323.973
326.248
326.762
325.523
328.38
325.877
327.21
326.876
327.763
324.276
324.527
322.76
327.728
324.55
319.604
323.824
322.747
317.514
315.936
316.306
316.303
317.583
319.153
318.279
318.496
318.683
316.839
319.478
315.477
316.777
315.397
318.334
316.606
315.932
318.63
314.278
316.85
312.558
311.389
311.493
309.167
310.73
307.808
310.001
311.919
309.035
312.645
310.023
313.15
309.983
312.711
309.608
310.692
310.459
309.895
310.037
308.924
300.811
300.003
304.251
300.333
308.014
300.987
306.225
303.818
302.089
302.637
303.524
303.872
302.137
303.503
303.185
303.412
301.786
304.752
302.553
301.763
352.929
351.445
357.1
353.381
354.421
354.18
354.857
354.514
358.225
355.992
359.834
357.388
357.032
356.246
353.159
354.562
353.838
347.98
347.543
352.046
341.408
341.606
347.168
344.919
348.845
351.686
349.247
347.299
349.114
351.99
348.785
348.2
344.394
347.654
350.141
344.874
344.338
344.975
344.832
343.075
339.815
340.947
339.085
342.56
339.123
342.287
341.199
343.573
339.162
344.681
341.803
340.803
340.276
341.514
342.459
340.372
335.478
335.522
334.467
338.053
332.677
329.446
330.208
332.287
334.896
333.156
333.39
333.626
336.065
337.071
334.951
333.219
336.522
335.627
329.998
331.63
330.903
332.294
332.339
331.648
324.456
325.246
326.603
327.593
326.015
324.033
324.601
327.854
327.102
329.572
324.728
325.893
325.509
325.928
324.578
323.89
322.911
325.011
325.365
322.69
317.609
315.912
317.557
318.955
315.979
322.801
318.097
322.368
319.514
321.465
320.58
319.867
317.569
318.27
320.779
315.222
315.982
317.206
318.409
317.244
311.126
307.815
313.809
311.218
309.936
309.758
309.371
312.836
315.181
314.891
312.938
311.984
310.951
308.912
311.925
311.8
313.858
310.499
312.37
310.519
302.144
303.362
307.387
304.67
302.561
304.974
302.921
302.068
307.765
305.68
303.541
306.514
304.298
305.372
304.124
304.645
303.295
302.466
300.23
304.608
348.517
354.975
354.319
355.7
354.886
359.876
358.331
361.985
360.601
357.35
358.451
355.597
357.493
359.272
356.454
354.764
354.361
350.956
349.641
352.67
344.688
345.884
346.515
346.378
350.796
346.939
349.425
347.125
352.982
347.535
347.823
349.8
347.413
351.322
345.717
346.978
345.046
347.368
343.38
343.854
334.05
337.923
340.155
343.433
340.227
342.618
339.721
340.129
342
341.005
343.422
341.757
343.626
339.406
340.444
340.532
336.226
337.553
336.985
336.377
331.938
330.298
332.483
332.984
329.376
330.589
331.23
338.139
333.604
332.524
337.913
335.666
332.75
335.495
331.824
334.405
330.772
332.248
334.231
330.554
321.936
329.143
324.86
325.792
323.916
326.474
325.67
322.588
325.154
326.508
328.419
325.703
322.746
325.022
326.983
324.551
327.851
323.719
325.185
322.395
315.481
315.574
315.848
318.155
318.616
318.072
321.98
320.69
318.086
324.447
323.15
319.434
320.303
316.512
316.479
316.17
320.049
316.4
318.243
313.855
310.175
308.981
314.799
310.191
309.065
312.632
311.159
312.453
310.524
311.721
313.858
310.987
310.205
308.663
312.969
315.892
311.784
309.336
312.513
311.587
307.681
306.024
303.715
303.009
305.327
305.625
306.443
308.528
303.843
302.478
305.328
303.578
303.366
300.358
306.493
303.625
299.757
305.445
305.106
303.958
353.501
353.481
355.257
355.251
358.777
356.637
360.812
358.534
357.602
358.117
359.428
352.681
356.461
357.969
356.216
354.549
358.374
351.244
351.873
351.248
344.763
347.48
351.472
348.456
348.609
353.293
349.064
350.147
352.868
348.949
352.051
351.546
353.622
348.427
350.39
346.803
348.564
346.704
349.5
346.223
339.201
339.523
339.984
342.833
340.793
346.667
341.773
341.613
340.792
345.461
344.385
340.464
342.168
341.688
337.47
339.402
340.122
337.181
335.648
339.409
328.469
333.784
335.076
332.039
332.843
334.543
337.241
334.223
334.146
334.65
337.181
337.094
336.815
334.369
333.649
332.825
333.289
329.279
335.128
328.572
325.794
323.056
323.095
328.317
323.783
330.766
327.627
328.849
324.433
327.838
330.141
326.455
325.528
328.953
329.485
324.83
328.607
324.902
324.659
325.413
318.977
317.43
320.316
318.499
322.185
322.754
319.55
321.644
320.55
319.242
316.092
319.954
316.39
321.865
323.651
318.709
318.009
318.455
318.262
318.882
310.391
307.918
309.416
309.966
312.538
311.049
313.204
313.67
310.422
312.919
312.595
314.382
310.826
310.987
310.199
312.988
312.461
311.571
309.397
309.937
301.858
302.996
303.646
301.803
303.336
304.118
299.641
304.458
306.972
303.501
304.639
305.795
303.247
304.214
305.89
300.139
300.509
303.61
303.84
302.358
354.965
355.639
357.743
358.639
357.079
358.465
360.122
361.2
360.895
359.79
359.433
360.024
359.042
359.89
359.192
358.239
357.273
354.233
351.819
352.305
350.317
345.808
350.095
347.379
346.025
346.828
352.402
350.231
349.956
349.664
348.836
353.154
349.608
347.784
348.169
346.83
346.818
345.3
345.483
343.899
335.807
337.09
340.247
344.878
344.444
341.781
345.305
344.379
345.195
344.032
341.878
344.618
342.383
343.304
345.628
342.3
342.23
339.915
338.175
340.539
330.861
332.602
334.018
334.066
336.052
334.823
338.4
336.27
336.169
336.219
335.286
336.17
337.489
336.144
337.848
334.234
333.626
330.594
333.195
329.534
324.865
322.451
324.906
325.216
327.696
330.581
328.417
330.168
330.37
329.186
329.483
325.075
327.506
327.893
327.835
329.004
326.468
324.169
323.022
325.251
317.985
317.89
320.51
320.487
321.616
317.187
317.978
322.707
318.284
322.398
322.271
318.583
318.581
319.083
319.752
318.248
319.581
317.044
320.297
320.316
308.057
310.198
309.248
313.095
311.238
311.256
310.972
311.257
311.223
315.229
309.844
309.408
307.726
311.158
312.091
313.983
310.361
312.956
309.502
311.678
302.599
302.247
303.278
303.18
303.646
302.145
304.436
304.368
305.55
304.309
305.01
304.529
306.315
303.65
302.041
305.261
302.773
307.143
306.434
305.401
356.41
356.169
359.099
358.345
357.941
362.546
358.114
360.989
365.739
361.984
358.257
357.088
359.364
358.398
359.705
358.463
357.43
354.009
353.741
354.756
353.755
347.035
348.576
350.207
352.271
348.672
355.82
349.538
355.736
350.894
349.513
347.765
349.135
353.023
349.152
349.684
346.778
349.566
345.646
345.351
337.469
340.289
342.063
340.386
346.18
344.517
346.68
343.972
345.649
343.396
339.745
342.224
345.058
343.11
347.14
338.279
342.33
344.951
338.131
339.925
332.303
334.718
331.629
337.748
335.532
334.458
335.797
335.23
340.511
338.303
336.904
335.089
334.271
334.347
331.489
330.741
331.774
337.418
332.425
334.176
326.004
324.383
326.985
331.075
328.557
329.253
325.264
325.474
331.789
330.806
326.803
332.982
326.811
328.003
328.802
327.633
325.602
325.052
323.558
322.355
315.418
321.227
317.169
320.741
317.425
317.703
321.218
321.088
323.172
319.415
319.308
319.678
321.683
317.279
319.536
322.717
319.609
321.635
319.797
318.301
312.237
306.97
313.707
311.096
310.042
310.761
309.368
312.044
312.356
312.736
309.669
311.759
310.209
314.467
310.514
311.436
311.517
309.981
310.605
310.654
305.444
304.289
304.611
302.287
299.327
304.02
303.912
298.687
307.255
303.56
304.108
302.084
305.385
304.33
304.419
304.1
303.579
305.501
301.561
304.664
356.757
356.092
359.864
358.89
358.945
360.405
360.907
362.945
359.577
363.449
361.794
359.84
363.405
359.398
360.926
357.241
358.852
355.222
355.263
356.075
344.73
347.506
350.047
350.224
354.429
353.71
357.917
354.418
353.533
351.773
353.539
355.813
351.714
351.93
352.573
353.247
350.476
351.357
347.892
344.948
340.906
340.022
343.424
345.001
344.149
342.505
345.661
344.635
345.341
347.675
344.9
348.35
343.944
343.308
342.317
340.886
341.133
340.579
341.618
339.063
335.226
334.767
334.328
335.46
338.559
333.563
338.768
336.574
336.722
337.547
335.926
340.837
333.658
337.381
340.251
341.097
336.685
332.967
335.004
330.992
325.066
326.359
327.217
328.52
330.306
328.617
327.152
326.091
330.77
330.811
327.946
330.121
328.522
330.336
324.966
324.522
325.371
325.359
325.125
326.11
318.414
316.861
315.559
317.228
319.553
322.176
322.085
317.349
319.578
318.694
321.858
322.587
317.558
320.737
319.325
318.29
319.813
318.538
316.354
317.264
313.563
312.317
311.57
310.844
310.141
310.514
312.357
312.979
312.5
312.554
313.55
315.986
312.266
311.965
311.931
312.458
312.632
315.339
311.041
312.184
300.342
307.825
303.133
302.272
300.836
302.496
303.997
306.028
304.675
302.537
302.608
305.618
301.915
305.502
304.983
306.039
302.225
302.298
306.699
304.735
355.607
356.493
358.731
361.23
359.186
360.551
364.52
360.876
361.155
361.646
362.807
359.858
365.458
363.576
358.836
361.04
356.957
357.476
357.916
354.343
348.688
349.396
348.174
350.947
350.119
351.33
354.993
351.859
353.826
353.025
352.003
353.16
352.083
354.283
351.163
351.082
349.258
346.608
349.062
348.583
342.073
338.399
341.36
342.304
343.072
343.904
341.963
347.134
344.554
344.076
343.103
345.839
343.14
345.534
344.058
341.62
339.403
340.551
343.489
340.79
333.562
335.283
332.725
336.498
334.233
336.998
338.305
335.008
339.262
335.499
334.285
335.962
337.333
338.893
338.326
335.81
337.048
334.681
330.174
333.905
325.907
325.681
326.32
325.175
326.172
329.69
332.701
330.397
329.343
325.545
326.025
330.09
328.451
333.323
328.056
329.647
329.001
325.35
327.856
326.643
315.037
316.787
322.378
321.045
319.921
319.931
321.04
318.696
320.261
317.389
322.935
315.653
320.12
319.715
319.289
318.158
320.755
318.903
320.997
318.068
310.666
311.456
310.226
314.124
311.425
311.27
311.926
313.72
314.413
309.886
310.675
314.931
310.974
313.051
312.921
312.581
311.873
310.292
310.527
312.784
305.762
307.297
305.038
302.656
301.544
303.395
302.968
305.986
303.44
306.408
302.053
301.645
307.931
302.741
305.235
303.547
307.047
304.72
303.913
302.349
354.752
357.112
359.639
363.792
361.97
363.108
366.437
365.968
364.299
363.775
364.207
359.392
365.58
358.062
363.664
359.865
358.489
352.795
357.203
356.635
350.482
351.535
350.497
352.194
351.049
353.65
359.249
355.815
353.953
355.204
351.758
355.901
355.346
353.077
352.428
352.033
346.161
348.221
350.108
349.752
341.803
339.687
347.065
346.823
340.781
344.915
344.017
344.157
345.213
343.294
345.603
348.237
345.562
347.186
342.38
343.069
345.166
341.311
342.822
339.741
334.593
336.249
335.82
333.407
332.192
338.761
333.02
336.063
337.373
337.005
338.943
335.41
335.346
335.646
337.637
336.101
333.201
334.654
330.75
334.54
328.067
325.061
324.807
327.84
329.488
333.752
331.628
329.569
332.7
328.822
326.052
331.981
328.08
330.667
331.026
331.255
328.408
325.208
326.9
325.842
320.765
321.269
319.449
318.859
321.328
320.876
321.726
320.905
322.79
323.988
319.32
321.272
321.84
321.061
320.393
320.883
317.411
318.281
318.745
315.793
312.948
312.941
311.039
313.574
311.173
310.123
314.763
310.587
311.559
313.602
312.516
309.329
314.412
312.62
308.965
311.545
311.15
310.512
311.979
308.86
301.321
303.048
302.982
305.056
303.419
303.526
306.828
304.337
305.636
306.399
302.405
303.933
305.776
303.808
304.008
302.22
303.202
304.086
302.188
301.62
358.193
360.805
360.138
361.58
366.271
363.872
362.622
363.653
366.475
366.676
363.713
361.848
360.608
364.528
362.231
358.492
358.798
358.171
357.025
354.849
352.726
355.109
349.788
352.892
357.139
353.522
356.192
354.864
356.16
354.487
354.576
354.411
354.688
353.949
354.047
350.312
353.421
353.334
352.444
350.518
342.872
339.298
339.801
347.645
343.633
346.775
345.954
346.373
345.408
348.488
350.22
347.539
345.099
343.671
346.226
344.236
343.977
341.851
340.788
342.134
333.975
329.457
335.119
333.394
335.541
336.776
338.229
337.709
339.449
336.131
338.508
338.482
334.66
335.136
340.053
336.428
334.332
334.305
333.769
332.831
327.031
327.104
326.158
325.099
330.393
329.458
328.486
328.631
328.019
327.069
326.743
328.507
329.55
328.72
325.623
331.554
323.918
325.898
326.227
328.285
318.901
321.287
319.526
318.652
320.553
323.197
322.715
321.373
316.843
317.511
325.408
318.566
320.295
325.109
318.998
322.234
319.982
322.425
318.952
316.634
313.63
309.745
309.294
311.448
313.908
311.418
316.751
311.259
313.732
316.309
313.571
312.903
312.005
309.646
308.787
313.992
310.807
312.467
314.21
312.053
306.034
304.264
304.86
307.907
303.628
306.796
304.752
303.708
305.735
302.832
303.996
306.22
308.481
302.442
306.44
302.964
303.28
303.939
304.555
305.166
359.546
355.619
360.831
360.723
364.169
363.514
363.824
366.393
364.845
362.8
363.087
362.488
361.976
361.444
363.463
361.27
360.861
358.073
355.909
357.888
348.815
349.019
352.816
350.005
353.033
355.28
356.198
352.493
356.067
356.143
354.699
355.231
354.436
350.047
353.711
353.244
350.929
350.451
353.494
350.107
339.502
344.986
344.927
343.921
345.541
344.987
347.203
346.636
347.289
348.07
344.56
348.011
346.328
347.927
345.695
345.611
345.066
343.318
341.998
341.792
334.542
337.251
335.919
337.863
334.183
339.417
336.741
336.428
337.676
338.63
337.208
337.915
338.495
338.3
337.229
335.777
333.57
339.655
335.074
336.863
324.579
325.688
329.291
326.993
331.201
326.826
327.167
329.249
329.827
329.183
328.985
329.635
328.43
329.212
327.27
327.642
324.515
328.061
326.62
325.218
319.09
320.913
319.187
317.646
317.896
322.052
322.079
321.564
321.849
319.155
320.735
321.219
320.714
319.723
321.442
317.546
319.656
318.995
318.749
319.36
309.224
314.053
312.433
311.714
307.752
311.73
310.127
312.208
311.823
311.647
312.174
314.793
311.594
311.529
314.454
314.429
312.225
311.569
310.262
307.717
303.117
305.096
302.391
303.372
303.162
305.683
307.582
302.262
305.599
303.519
302.378
306.378
304.018
304.882
307.35
301.074
307.56
303.429
305.108
305.868
360.72
358.472
358.219
359.116
363.809
366.793
363.687
364.334
364.176
364.658
367.778
361.358
363.448
365.768
359.801
360.648
358.71
359.276
355.723
359.577
351.972
357.491
348.642
356.625
354.205
356.737
355.369
357.125
356.327
357.448
357.542
356.691
358.56
354.455
357.008
352.888
356.53
349.778
356.093
351.376
340.306
343.146
342.668
344.087
344.226
346.847
350.537
344.588
349.302
345.798
346.828
349.526
344.221
344.922
344.057
345.288
344.908
343.159
343.317
340.044
335.295
334.514
338.319
336.971
339.041
337.898
341.869
340.377
338.188
341.023
339.19
344.41
336.321
336.641
338.822
336.551
332.449
332.831
337.967
333.489
326.564
330.202
334.594
326.721
328.231
328.075
330.078
327.87
332.315
330.798
330.495
329.369
329.021
329.13
326.663
330.656
327.29
327.501
328.672
324.739
320.002
321.458
316.591
322.328
322.978
320.473
320.828
324.585
319.618
322.867
323.231
321.85
319.587
320.376
324.34
323.01
318.195
318.528
317.176
319.422
311.694
314.749
310.78
310.767
317.17
315.814
314.006
311.709
311.729
313.65
310.114
312.683
312.556
309.021
312.041
310.65
315.224
310.98
312.986
309.073
306.397
304.121
301.396
303.032
301.184
302.301
304.6
306.183
303.874
305.953
303.551
303.566
302.097
306.647
308.056
302.436
302.865
306.955
301.078
304.518
357.967
358.807
359.217
361.261
363.691
362.95
364.966
360.362
366.417
365.628
365.234
362.417
365.933
364.284
361.445
361.24
365.521
357.041
360.262
356.539
352.49
352.379
354.035
351.622
354.701
356.214
354.701
354.355
356.327
353.375
353.374
355.753
356.118
355.883
355.753
349.762
354.626
349.954
349.219
348.972
342.58
342.331
343.241
345.266
345.726
346.409
346.168
348.036
346.024
345.392
347.714
347
348.048
346.948
346.316
344.011
344.557
341.353
340.399
340.307
334.697
336.051
336.675
338.226
336.164
335.232
335.959
335.64
339.441
337.288
336.766
335.349
333.924
335.155
336.577
335.404
334.149
334.474
335.731
334.848
327.107
326.953
327.459
327.723
330.393
327.851
329.091
331.76
328.412
329.216
327.49
331.596
327.393
327.949
329.609
327.216
326.639
326.617
327.118
321.325
320.669
319.694
319.027
321.536
322.203
321.986
323.236
319.941
322.334
320.826
321.647
322.877
324.602
321.819
319.333
320.72
316.383
318.773
316.816
318.217
309.112
312.382
312.452
307.583
313.309
312.355
311.889
317.089
313.604
313.916
311.597
313.455
310.453
310.665
317.285
314.276
313.444
311.456
309.304
313.015
302.086
301.077
305.781
303.644
303.771
303.536
302.577
305.656
306.044
307.132
304.429
303.174
306.385
304.926
305.509
304.422
302.951
303.066
303.77
302.686
361.365
358.833
362.041
361.63
366.092
368.137
363.13
364.799
368.209
363.882
368.513
363.492
362.801
363.472
365.334
363.189
356.55
359.497
358.529
354.339
349.012
361.266
352.189
359.355
355.588
360.383
356.4
361.724
358.503
361.372
362.049
357.315
360.694
353.509
360.498
353.98
360.093
351.245
359.893
347.414
343.645
341.111
344.972
343.717
346.604
347.69
347.458
349.82
347.054
344.323
348.286
346.545
348.69
347.002
345.761
344.624
344.904
344.591
336.52
343.623
338.515
337.595
338.106
334.147
336.985
337.433
338.277
336.023
336.87
336.868
341.7
338.627
335.186
334.624
335.852
336.792
334.028
333.742
336.417
332.06
329.622
329.398
327.935
326.851
328.629
330.362
330.4
330.65
328.119
333.475
327.417
329.629
331.354
329.703
328.732
325.397
330.572
329.728
326.878
325.521
321.31
323.139
318.51
321.811
321.24
319.35
321.91
323.301
318.649
321.067
321.03
319.571
320.446
323.253
322.475
321.916
320.726
321.396
318.631
321.133
310.658
310.943
310.847
308.842
315.868
312.926
312.994
314.138
313.662
311.881
316.499
312.677
312.437
309.73
311.273
312.88
310.694
310.625
310.093
308.465
301.308
303.31
306.014
304.922
305.08
306.91
304.051
307.165
306.558
305.998
302.6
303.9
302.542
301.495
304.548
305.758
308.988
305.191
304.657
303.889
358.376
359.541
360.833
363.979
361.239
362.851
362.447
364.291
365.101
366.672
363.973
363.419
363.078
365
362.686
363.033
361.874
358.178
358.256
356.815
350.658
352.027
352.382
350.717
351.982
358.645
352.961
359.514
357.844
357.866
357.29
356.977
357.218
357.193
358.074
352.956
352.813
351.808
350.654
347.136
345.402
344.049
342.928
344.306
344.225
345.799
345.552
348.716
349.374
347.255
347.618
347.655
345.528
346.238
346.652
347.52
343.812
345.832
341.805
340.277
339.697
334.512
335.263
336.731
336.645
339.351
337.241
338.755
341.394
338.902
340.617
337.037
335.943
340.895
337.216
336.082
337.727
335.311
333.045
333.732
328.283
325.956
329.198
328.673
330.126
332.773
333.031
328.463
328.998
332.715
331.1
328.952
332.152
331.792
330.806
329.411
325.897
327.113
325.706
328.276
317.699
319.181
320.676
320.289
321.904
322.081
321.025
320.526
327.974
319.147
318.654
320.234
320.414
322.553
321.525
318.473
319.685
315.993
319.918
319.17
312.06
312.528
310.846
314.43
313.705
311.559
309.842
310.631
310.775
312.905
311.755
317.942
315.573
308.426
314.431
312.589
311.913
310.876
312.31
312.455
304.623
305.768
303.099
305.997
303.825
306.829
306.398
303.488
306.483
302.033
305.224
307.571
306.622
303.785
305.274
301.802
303.158
304.246
304.085
300.109
)
;

boundaryField
{
    hotSide
    {
        type            fixedGradient;
        gradient        nonuniform List<scalar> 
400
(
321.511
322.87
325.591
329.677
335.133
341.965
350.181
359.788
370.794
383.208
397.037
412.289
428.971
447.088
466.647
487.651
510.105
534.011
559.372
586.191
323.738
325.08
327.767
331.802
337.194
343.949
352.078
361.591
372.498
384.81
398.537
413.687
430.268
448.289
467.755
488.672
511.043
534.872
560.161
586.913
326.149
327.47
330.116
334.091
339.406
346.071
354.099
363.503
374.296
386.491
400.101
415.136
431.606
449.52
468.885
489.706
511.988
535.735
560.948
587.63
328.704
330
332.597
336.503
341.73
348.292
356.205
365.485
376.15
388.215
401.695
416.604
432.954
450.753
470.009
490.73
512.919
536.579
561.714
588.325
331.33
332.599
335.142
338.97
344.099
350.546
358.332
367.477
378.003
389.928
403.271
418.047
434.27
451.949
471.095
491.712
513.807
537.382
562.439
588.978
333.918
335.158
337.643
341.389
346.414
352.74
360.392
369.397
379.779
391.562
404.765
419.407
435.503
453.065
472.101
492.618
514.622
538.114
563.096
589.569
336.321
337.531
339.959
343.622
348.544
354.751
362.274
371.142
381.385
393.031
406.101
420.618
436.595
454.047
472.983
493.409
515.33
538.747
563.663
590.076
338.36
339.543
341.92
345.509
350.339
356.44
363.847
372.595
382.718
394.244
407.2
421.608
437.485
454.844
473.695
494.045
515.897
539.253
564.114
590.478
339.852
341.015
343.352
346.885
351.645
357.665
364.985
373.643
383.675
395.113
407.984
422.312
438.116
455.407
474.197
494.491
516.294
539.606
564.428
590.758
340.643
341.795
344.11
347.613
352.334
358.311
365.584
374.193
384.176
395.567
408.393
422.679
438.443
455.699
474.456
494.722
516.498
539.788
564.589
590.901
340.643
341.795
344.11
347.613
352.334
358.311
365.584
374.193
384.176
395.567
408.393
422.679
438.443
455.699
474.456
494.722
516.498
539.788
564.589
590.901
339.852
341.015
343.352
346.885
351.645
357.665
364.985
373.643
383.675
395.113
407.984
422.312
438.116
455.407
474.197
494.491
516.294
539.606
564.428
590.758
338.36
339.543
341.92
345.509
350.339
356.44
363.847
372.595
382.718
394.244
407.2
421.608
437.485
454.844
473.695
494.045
515.897
539.253
564.114
590.478
336.321
337.531
339.959
343.622
348.544
354.751
362.274
371.142
381.385
393.031
406.101
420.618
436.595
454.047
472.983
493.409
515.33
538.747
563.663
590.076
333.918
335.158
337.643
341.389
346.414
352.74
360.392
369.397
379.779
391.562
404.765
419.407
435.503
453.065
472.101
492.618
514.622
538.114
563.096
589.569
331.33
332.599
335.142
338.97
344.099
350.546
358.332
367.477
378.003
389.928
403.271
418.047
434.27
451.949
471.095
491.712
513.807
537.382
562.439
588.978
328.704
330
332.597
336.503
341.73
348.292
356.205
365.485
376.15
388.215
401.695
416.604
432.954
450.753
470.009
490.73
512.919
536.579
561.714
588.325
326.149
327.47
330.116
334.091
339.406
346.071
354.099
363.503
374.296
386.491
400.101
415.136
431.606
449.52
468.885
489.706
511.988
535.735
560.948
587.63
323.738
325.08
327.767
331.802
337.194
343.949
352.078
361.591
372.498
384.81
398.537
413.687
430.268
448.289
467.755
488.672
511.043
534.872
560.161
586.913
321.511
322.87
325.591
329.677
335.133
341.965
350.181
359.788
370.794
383.208
397.037
412.289
428.971
447.088
466.647
487.651
510.105
534.011
559.372
586.191
)
;
    }
    coldSide
    {
        type            mixed;
        refValue        uniform 300;
        refGradient     uniform 0;
        valueFraction   uniform 0.991591;
        source          uniform 0;
        value           nonuniform List<scalar> 
400
(
300.037
300.034
300.03
300.024
300.025
300.007
300.018
300.065
300.016
300.022
300.046
300.003
300.048
300.011
300.051
300.026
300.054
300.018
300.011
300.039
300.047
300.009
300.02
300.019
299.989
300
300.028
300.051
300.025
300.019
300.036
300.066
300.061
300.026
300.036
300.043
300.035
300.009
300.028