/*--------------------------------*- C++ -*----------------------------------*\
| =========                 |                                                 |
| \\      /  F ield         | OpenFOAM: The Open Source CFD Toolbox           |
|  \\    /   O peration     | Version:  2212                                  |
|   \\  /    A nd           | Website:  www.openfoam.com                      |
|    \\/     M anipulation  |                                                 |
\*---------------------------------------------------------------------------*/
FoamFile
{
    version     2.0;
    format      ascii;
    arch        "LSB;label=32;scalar=64";
    class       volScalarField;
    location    "0";
    object      T;
}
// * * * * * * * * * * * * * * * * * * * * * * * * * * * * * * * * * * * * * //

dimensions      [0 0 0 1 0 0 0];

internalField   nonuniform List<scalar> 
3200
(
346.06
345.164
344.749
344.782
345.3
345.918
346.552
347.532
347.933
348.356
348.451
347.788
347.183
346.156
344.759
343.522
342.415
341.892
341.898
342.494
339.9
339.177
338.841
338.83
339.266
339.815
340.374
341.246
341.573
341.942
342.033
341.459
340.926
340.071
338.827
337.757
336.806
336.355
336.348
336.846
333.765
333.187
332.904
332.873
333.231
333.7
334.189
334.944
335.219
335.501
335.572
335.109
334.682
333.947
332.882
331.989
331.175
330.795
330.785
331.179
327.647
327.184
326.975
326.913
327.183
327.615
327.997
328.641
328.852
329.06
329.099
328.744
328.435
327.82
326.94
326.223
325.552
325.196
325.205
325.519
321.512
321.145
321.001
320.933
321.138
321.507
321.771
322.31
322.47
322.61
322.633
322.361
322.154
321.687
320.976
320.433
319.91
319.582
319.632
319.862
315.371
315.116
315.031
314.938
315.093
315.369
315.537
315.954
316.038
316.171
316.177
315.986
315.858
315.511
315.01
314.624
314.249
313.993
314.041
314.186
309.241
309.069
309.036
308.975
309.044
309.241
309.334
309.579
309.625
309.711
309.724
309.599
309.542
309.322
309.015
308.788
308.575
308.409
308.439
308.517
303.1
303.037
303.026
303.01
303.018
303.104
303.133
303.199
303.223
303.258
303.256
303.227
303.213
303.127
303.017
302.95
302.875
302.825
302.832
302.853
346.036
345.204
344.84
344.835
345.256
346.111
346.97
347.974
348.515
348.855
348.905
348.35
347.632
346.416
345.088
343.774
342.647
342.044
342.074
342.505
339.932
339.21
338.894
338.884
339.231
339.971
340.713
341.598
342.081
342.371
342.398
341.899
341.309
340.252
339.12
337.975
337.017
336.467
336.511
336.862
333.835
333.196
332.947
332.935
333.194
333.822
334.45
335.23
335.627
335.861
335.879
335.453
334.983
334.092
333.135
332.159
331.351
330.886
330.918
331.216
327.723
327.196
326.996
326.948
327.177
327.682
328.203
328.855
329.152
329.369
329.361
329.006
328.645
327.92
327.143
326.37
325.663
325.28
325.305
325.551
321.575
321.209
321.016
320.958
321.137
321.53
321.969
322.47
322.694
322.856
322.838
322.553
322.295
321.747
321.15
320.552
319.991
319.673
319.674
319.878
315.427
315.182
315.042
314.966
315.124
315.389
315.732
316.084
316.233
316.322
316.335
316.115
315.959
315.576
315.127
314.708
314.291
314.075
314.059
314.202
309.268
309.121
309.042
308.992
309.099
309.238
309.468
309.656
309.754
309.802
309.819
309.68
309.605
309.368
309.094
308.835
308.591
308.466
308.441
308.522
303.111
303.06
303.036
302.998
303.049
303.094
303.18
303.234
303.264
303.281
303.284
303.236
303.222
303.144
303.047
302.957
302.872
302.841
302.827
302.85
346.179
345.346
344.974
345.004
345.693
346.423
347.486
348.481
349.154
349.55
349.665
349.158
348.315
347.038
345.651
344.26
343.026
342.288
342.302
342.617
340.045
339.352
339.035
339.016
339.613
340.239
341.177
342.041
342.61
342.943
343.038
342.61
341.885
340.785
339.593
338.415
337.341
336.695
336.728
336.965
333.889
333.352
333.048
333.038
333.519
334.054
334.83
335.61
336.069
336.343
336.414
336.06
335.484
334.536
333.527
332.538
331.623
331.108
331.119
331.327
327.739
327.331
327.056
327.032
327.442
327.88
328.495
329.154
329.523
329.747
329.814
329.519
329.08
328.283
327.454
326.652
325.901
325.487
325.511
325.663
321.588
321.287
321.065
321.03
321.357
321.696
322.162
322.666
322.97
323.156
323.19
322.971
322.66
322.029
321.38
320.75
320.165
319.857
319.851
319.968
315.408
315.223
315.053
315.042
315.267
315.489
315.821
316.195
316.401
316.545
316.563
316.405
316.212
315.77
315.29
314.841
314.432
314.195
314.187
314.268
309.237
309.152
309.036
309.048
309.184
309.296
309.498
309.743
309.862
309.942
309.938
309.856
309.748
309.475
309.181
308.921
308.661
308.538
308.511
308.555
303.089
303.07
303.03
303.032
303.092
303.113
303.182
303.264
303.307
303.331
303.337
303.304
303.274
303.172
303.081
302.997
302.896
302.856
302.854
302.87
346.517
345.803
345.363
345.536
346.238
347.176
348.039
349.094
349.911
350.498
350.662
350.141
349.279
347.89
346.27
344.904
343.666
342.878
342.838
343.182
340.31
339.724
339.326
339.501
340.124
340.894
341.627
342.535
343.238
343.758
343.904
343.468
342.728
341.538
340.123
338.951
337.865
337.208
337.206
337.44
334.089
333.641
333.29
333.46
333.992
334.58
335.218
335.975
336.584
337.013
337.153
336.801
336.161
335.187
333.963
332.961
332.07
331.51
331.516
331.695
327.875
327.56
327.262
327.403
327.822
328.303
328.803
329.433
329.943
330.269
330.403
330.103
329.606
328.834
327.794
326.992
326.248
325.796
325.796
325.956
321.675
321.449
321.227
321.337
321.634
322.037
322.411
322.877
323.304
323.536
323.633
323.416
323.025
322.458
321.618
321.009
320.444
320.088
320.084
320.208
315.48
315.348
315.167
315.256
315.455
315.748
316.004
316.334
316.66
316.803
316.877
316.728
316.461
316.064
315.445
315.035
314.632
314.352
314.382
314.444
309.277
309.232
309.112
309.165
309.292
309.46
309.608
309.794
310.009
310.084
310.135
310.043
309.9
309.644
309.292
309.04
308.789
308.617
308.639
308.679
303.105
303.102
303.048
303.075
303.116
303.175
303.215
303.278
303.357
303.381
303.402
303.371
303.321
303.228
303.119
303.028
302.946
302.882
302.901
302.908
346.908
346.186
345.994
346.198
346.909
347.814
348.829
349.983
350.812
351.512
351.755
351.182
350.308
348.806
347.272
345.708
344.418
343.659
343.488
343.793
340.646
340.051
339.889
340.087
340.665
341.442
342.307
343.319
344.015
344.613
344.848
344.343
343.605
342.286
340.994
339.632
338.532
337.879
337.748
337.997
334.409
333.915
333.783
333.955
334.408
335.054
335.795
336.647
337.235
337.725
337.949
337.532
336.906
335.781
334.711
333.557
332.649
332.065
331.988
332.188
328.182
327.789
327.66
327.816
328.152
328.685
329.286
329.972
330.467
330.847
331.037
330.721
330.199
329.301
328.412
327.466
326.751
326.248
326.194
326.372
321.956
321.628
321.537
321.651
321.888
322.315
322.771
323.299
323.72
323.991
324.143
323.888
323.513
322.804
322.104
321.358
320.837
320.427
320.39
320.539
315.725
315.468
315.391
315.488
315.632
315.962
316.273
316.645
316.949
317.133
317.254
317.073
316.828
316.307
315.788
315.276
314.922
314.6
314.579
314.687
309.447
309.296
309.246
309.304
309.375
309.597
309.771
310.001
310.191
310.292
310.355
310.264
310.101
309.823
309.471
309.177
308.978
308.773
308.754
308.828
303.166
303.118
303.105
303.114
303.142
303.225
303.281
303.36
303.419
303.453
303.473
303.446
303.382
303.291
303.178
303.078
303.012
302.94
302.943
302.969
347.481
346.846
346.77
346.91
347.552
348.5
349.655
351.008
351.902
352.564
352.806
352.292
351.309
349.821
348.169
346.67
345.373
344.493
344.164
344.565
341.162
340.615
340.585
340.657
341.224
342.042
343.033
344.193
344.967
345.541
345.753
345.311
344.459
343.198
341.762
340.471
339.367
338.592
338.316
338.668
334.857
334.392
334.37
334.416
334.874
335.583
336.426
337.388
338.049
338.505
338.713
338.371
337.622
336.562
335.339
334.26
333.346
332.679
332.456
332.756
328.543
328.161
328.132
328.168
328.524
329.135
329.8
330.594
331.128
331.461
331.685
331.391
330.788
329.916
328.924
328.048
327.313
326.777
326.582
326.836
322.23
321.926
321.886
321.918
322.201
322.676
323.167
323.805
324.197
324.468
324.655
324.427
323.954
323.268
322.51
321.823
321.26
320.854
320.678
320.904
315.894
315.678
315.633
315.659
315.884
316.198
316.565
317.021
317.296
317.461
317.605
317.465
317.123
316.631
316.068
315.612
315.207
314.919
314.784
314.949
309.539
309.421
309.404
309.405
309.541
309.729
309.948
310.244
310.396
310.476
310.561
310.479
310.281
309.981
309.65
309.365
309.129
308.972
308.881
308.979
303.202
303.16
303.154
303.151
303.193
303.252
303.339
303.444
303.482
303.505
303.534
303.501
303.448
303.339
303.23
303.139
303.056
303.011
302.978
303.013
348.209
347.675
347.498
347.704
348.321
349.345
350.533
351.851
353.045
353.676
353.832
353.466
352.321
350.945
349.176
347.586
346.322
345.443
345.063
345.368
341.766
341.348
341.189
341.371
341.889
342.749
343.781
344.925
345.953
346.48
346.627
346.318
345.33
344.165
342.612
341.275
340.17
339.431
339.082
339.351
335.339
335.008
334.878
335.039
335.468
336.179
337.022
338.013
338.861
339.31
339.439
339.202
338.352
337.389
336.03
334.968
334.009
333.39
333.088
333.317
328.921
328.675
328.55
328.698
329.026
329.607
330.29
331.093
331.791
332.155
332.283
332.077
331.402
330.611
329.481
328.633
327.853
327.315
327.085
327.286
322.507
322.337
322.214
322.326
322.601
323.034
323.563
324.185
324.734
325.023
325.126
324.952
324.425
323.833
322.941
322.283
321.683
321.235
321.081
321.259
316.094
315.983
315.883
315.953
316.166
316.463
316.849
317.275
317.674
317.886
317.942
317.836
317.454
317.03
316.391
315.932
315.508
315.166
315.069
315.219
309.689
309.607
309.546
309.594
309.726
309.898
310.12
310.384
310.595
310.739
310.753
310.721
310.482
310.237
309.838
309.58
309.314
309.105
309.049
309.151
303.253
303.214
303.199
303.212
303.251
303.319
303.393
303.486
303.545
303.598
303.599
303.594
303.512
303.444
303.292
303.212
303.122
303.048
303.027
303.073
349.101
348.574
348.385
348.61
349.198
350.317
351.49
352.807
353.984
354.685
354.941
354.486
353.533
351.973
350.246
348.658
347.262
346.522
346.068
346.236
342.541
342.105
341.941
342.127
342.647
343.599
344.596
345.737
346.735
347.348
347.569
347.191
346.379
345.038
343.57
342.186
340.97
340.363
339.955
340.111
335.99
335.631
335.499
335.652
336.094
336.873
337.71
338.667
339.504
340.033
340.214
339.911
339.238
338.114
336.873
335.702
334.703
334.179
333.829
333.981
329.484
329.173
329.065
329.185
329.545
330.177
330.819
331.623
332.309
332.737
332.886
332.625
332.119
331.199
330.161
329.225
328.43
327.984
327.687
327.839
322.947
322.694
322.629
322.712
322.997
323.484
323.98
324.604
325.142
325.444
325.575
325.373
325
324.271
323.452
322.723
322.132
321.771
321.542
321.69
316.397
316.199
316.179
316.237
316.434
316.775
317.134
317.581
317.966
318.183
318.261
318.115
317.868
317.337
316.752
316.224
315.834
315.545
315.396
315.508
309.846
309.723
309.712
309.756
309.892
310.069
310.287
310.567
310.774
310.918
310.967
310.881
310.747
310.423
310.057
309.752
309.537
309.335
309.26
309.313
303.298
303.259
303.248
303.269
303.323
303.383
303.442
303.535
303.604
303.655
303.684
303.648
303.605
303.502
303.373
303.273
303.202
303.134
303.101
303.126
350.054
349.581
349.312
349.666
350.164
351.246
352.341
353.662
354.745
355.719
355.904
355.496
354.518
352.984
351.242
349.682
348.407
347.526
347.029
347.166
343.365
342.97
342.749
343.051
343.483
344.425
345.346
346.47
347.398
348.263
348.421
348.058
347.254
345.933
344.417
343.065
341.975
341.226
340.789
340.896
336.69
336.377
336.188
336.423
336.789
337.582
338.343
339.314
340.095
340.811
340.946
340.646
339.983
338.877
337.588
336.467
335.525
334.932
334.533
334.624
329.995
329.792
329.613
329.773
330.093
330.741
331.363
332.15
332.786
333.368
333.473
333.244
332.727
331.816
330.77
329.876
329.082
328.614
328.265
328.353
323.352
323.206
323.031
323.14
323.411
323.926
324.392
324.986
325.501
325.951
326.029
325.865
325.467
324.751
323.929
323.263
322.668
322.286
321.984
322.068
316.677
316.585
316.454
316.515
316.734
317.1
317.42
317.825
318.197
318.523
318.612
318.49
318.221
317.699
317.093
316.629
316.23
315.938
315.728
315.768
310.011
309.963
309.881
309.911
310.071
310.27
310.448
310.703
310.913
311.116
311.191
311.11
310.936
310.64
310.279
309.996
309.762
309.582
309.448
309.461
303.35
303.334
303.311
303.312
303.389
303.44
303.501
303.589
303.667
303.722
303.752
303.731
303.665
303.573
303.443
303.361
303.275
303.222
303.165
303.164
351.007
350.482
350.256
350.629
351.101
352.162
353.234
354.488
355.528
356.598
356.759
356.383
355.381
353.961
352.252
350.686
349.427
348.555
348.032
348.281
344.219
343.781
343.58
343.902
344.282
345.203
346.107
347.173
348.078
349.032
349.15
348.819
347.979
346.725
345.273
343.944
342.868
342.135
341.663
341.854
337.449
337.073
336.886
337.174
337.48
338.249
339.012
339.878
340.641
341.471
341.569
341.269
340.577
339.504
338.304
337.197
336.303
335.691
335.287
335.436
330.669
330.35
330.189
330.412
330.657
331.289
331.92
332.622
333.232
333.909
333.98
333.727
333.199
332.337
331.331
330.446
329.728
329.231
328.908
329.008
323.875
323.618
323.488
323.666
323.846
324.317
324.833
325.374
325.834
326.365
326.419
326.206
325.832
325.175
324.373
323.679
323.142
322.767
322.507
322.603
317.047
316.888
316.781
316.893
317.06
317.347
317.742
318.134
318.449
318.836
318.885
318.729
318.454
318.004
317.397
316.918
316.547
316.292
316.088
316.173
310.22
310.154
310.081
310.145
310.268
310.411
310.653
310.888
311.085
311.297
311.354
311.258
311.079
310.821
310.44
310.141
309.942
309.796
309.663
309.707
303.426
303.4
303.394
303.4
303.443
303.483
303.56
303.653
303.725
303.79
303.809
303.769
303.71
303.624
303.495
303.4
303.329
303.287
303.236
303.253
352.065
351.451
351.239
351.401
351.996
353.05
354.068
355.268
356.312
357.332
357.492
357.05
356.09
354.67
353.119
351.578
350.432
349.626
349.261
349.232
345.105
344.618
344.409
344.59
345.066
345.989
346.828
347.86
348.756
349.675
349.78
349.402
348.6
347.373
346.037
344.729
343.749
343.04
342.745
342.666
338.165
337.754
337.586
337.744
338.129
338.919
339.62
340.462
341.224
342.01
342.108
341.774
341.12
340.095
338.942
337.87
337.047
336.441
336.21
336.108
331.234
330.906
330.766
330.893
331.185
331.85
332.41
333.092
333.698
334.357
334.423
334.159
333.632
332.822
331.844
330.997
330.325
329.841
329.646
329.537
324.3
324.06
323.937
324.031
324.249
324.79
325.235
325.731
326.199
326.705
326.771
326.56
326.141
325.546
324.769
324.1
323.625
323.211
323.06
322.988
317.375
317.197
317.113
317.158
317.301
317.712
318.032
318.371
318.708
319.063
319.118
318.976
318.668
318.276
317.707
317.216
316.903
316.587
316.489
316.452
310.439
310.324
310.28
310.331
310.37
310.645
310.829
311.04
311.231
311.441
311.477
311.397
311.212
310.98
310.659
310.332
310.152
309.957
309.905
309.893
303.499
303.457
303.449
303.463
303.469
303.568
303.638
303.703
303.771
303.828
303.839
303.817
303.756
303.675
303.576
303.456
303.404
303.331
303.316
303.319
352.942
352.425
352.215
352.337
352.868
353.879
354.866
356.037
357.104
357.772
358.094
357.696
356.851
355.46
353.886
352.573
351.296
350.416
350.286
350.301
345.883
345.442
345.242
345.378
345.786
346.726
347.531
348.537
349.467
350.047
350.325
349.965
349.259
348.083
346.709
345.566
344.479
343.725
343.63
343.605
338.817
338.457
338.294
338.384
338.737
339.548
340.211
341.06
341.842
342.33
342.546
342.247
341.673
340.696
339.53
338.547
337.668
337.023
336.945
336.92
331.755
331.457
331.34
331.381
331.678
332.349
332.915
333.592
334.238
334.611
334.792
334.549
334.076
333.314
332.337
331.534
330.854
330.295
330.248
330.207
324.697
324.455
324.371
324.381
324.627
325.166
325.637
326.113
326.654
326.903
327.041
326.862
326.491
325.926
325.133
324.521
324.032
323.565
323.552
323.494
317.641
317.481
317.409
317.414
317.591
317.99
318.356
318.661
319.053
319.222
319.315
319.2
318.931
318.524
317.96
317.526
317.193
316.837
316.864
316.796
310.603
310.507
310.463
310.46
310.551
310.808
311.035
311.204
311.451
311.542
311.603
311.538
311.375
311.146
310.787
310.53
310.341
310.083
310.151
310.079
303.545
303.521
303.508
303.519
303.538
303.619
303.699
303.752
303.848
303.869
303.883
303.867
303.807
303.743
303.622
303.532
303.475
303.384
303.397
303.371
353.868
353.425
353.18
353.299
353.854
354.713
355.77
356.764
357.644
358.353
358.474
358.113
357.349
356.043
354.679
353.273
352.101
351.365
351.182
351.228
346.667
346.302
346.109
346.215
346.674
347.413
348.32
349.2
349.941
350.538
350.646
350.31
349.694
348.562
347.401
346.197
345.169
344.559
344.389
344.442
339.483
339.186
339.032
339.124
339.481
340.129
340.86
341.619
342.239
342.744
342.844
342.54
342.04
341.089
340.107
339.106
338.265
337.749
337.593
337.632
332.309
332.06
331.956
332.025
332.282
332.859
333.426
334.04
334.544
334.949
335.048
334.795
334.391
333.614
332.793
332.007
331.321
330.905
330.769
330.816
325.13
324.944
324.861
324.933
325.091
325.574
326.002
326.481
326.866
327.159
327.272
327.065
326.75
326.147
325.509
324.909
324.379
324.046
323.937
323.963
317.95
317.835
317.761
317.818
317.919
318.277
318.586
318.936
319.192
319.389
319.484
319.346
319.126
318.687
318.211
317.812
317.423
317.185
317.115
317.112
310.774
310.721
310.67
310.695
310.759
310.997
311.162
311.393
311.543
311.639
311.693
311.614
311.493
311.242
310.929
310.702
310.459
310.319
310.273
310.273
303.615
303.593
303.577
303.583
303.611
303.687
303.738
303.821
303.864
303.922
303.919
303.884
303.862
303.774
303.66
303.581
303.504
303.447
303.436
303.446
354.861
354.447
354.15
354.329
354.786
355.519
356.419
357.365
358.097
358.813
358.976
358.526
357.72
356.659
355.247
353.983
353.069
352.37
352.167
352.227
347.521
347.182
346.945
347.105
347.479
348.105
348.88
349.701
350.327
350.974
351.097
350.694
350.021
349.09
347.873
346.808
346.021
345.416
345.247
345.313
340.21
339.905
339.748
339.86
340.177
340.702
341.342
342.044
342.593
343.139
343.221
342.899
342.321
341.524
340.495
339.64
338.973
338.463
338.307
338.363
332.915
332.635
332.529
332.596
332.89
333.283
333.813
334.419
334.851
335.307
335.378
335.105
334.628
333.982
333.133
332.468
331.91
331.496
331.369
331.408
325.629
325.394
325.294
325.342
325.591
325.867
326.28
326.789
327.126
327.495
327.514
327.308
326.933
326.432
325.804
325.288
324.814
324.527
324.431
324.425
318.338
318.167
318.072
318.102
318.268
318.484
318.763
319.143
319.4
319.654
319.67
319.526
319.263
318.865
318.44
318.088
317.708
317.517
317.462
317.471
311.026
310.913
310.848
310.872
310.942
311.106
311.262
311.495
311.648
311.816
311.804
311.729
311.576
311.322
311.082
310.861
310.621
310.514
310.49
310.514
303.696
303.668
303.627
303.653
303.665
303.73
303.784
303.84
303.9
303.964
303.952
303.924
303.884
303.8
303.72
303.631
303.556
303.517
303.512
303.525
355.891
355.366
355.048
355.291
355.626
356.212
357.003
357.989
358.568
359.202
359.209
358.889
358.193
357.1
355.821
354.818
353.876
353.315
353.168
353.301
348.448
348.004
347.723
347.932
348.202
348.724
349.388
350.233
350.729
351.307
351.306
351.024
350.419
349.473
348.399
347.522
346.709
346.244
346.143
346.218
341.001
340.633
340.407
340.546
340.78
341.228
341.78
342.51
342.92
343.414
343.395
343.166
342.657
341.848
340.998
340.223
339.537
339.159
339.079
339.124
333.561
333.245
333.058
333.165
333.365
333.734
334.177
334.774
335.093
335.52
335.511
335.303
334.889
334.213
333.573
332.938
332.347
332.055
331.994
332.05
326.115
325.86
325.719
325.8
325.971
326.241
326.583
327.068
327.302
327.627
327.621
327.466
327.138
326.627
326.14
325.622
325.148
324.938
324.895
324.941
318.664
318.468
318.379
318.442
318.568
318.749
318.987
319.345
319.499
319.725
319.732
319.635
319.391
319.045
318.694
318.298
317.983
317.831
317.788
317.829
311.222
311.085
311.04
311.086
311.172
311.261
311.401
311.634
311.711
311.832
311.861
311.789
311.629
311.435
311.227
310.997
310.809
310.734
310.687
310.723
303.767
303.721
303.704
303.71
303.748
303.774
303.812
303.897
303.926
303.975
303.97
303.945
303.886
303.843
303.764
303.677
303.622
303.612
303.574
303.59
356.92
356.322
355.982
356.221
356.538
357.03
357.738
358.533
359.099
359.537
359.693
359.389
358.651
357.517
356.573
355.731
354.706
354.123
354.098
354.225
349.294
348.801
348.525
348.732
348.984
349.436
350.035
350.713
351.191
351.585
351.716
351.472
350.821
349.838
349.039
348.299
347.427
346.933
346.929
347.008
341.708
341.286
341.073
341.254
341.437
341.841
342.34
342.893
343.318
343.638
343.751
343.541
342.979
342.181
341.513
340.876
340.159
339.73
339.733
339.794
334.156
333.791
333.639
333.751
333.909
334.233
334.656
335.073
335.453
335.69
335.801
335.618
335.149
334.521
333.985
333.467
332.884
332.518
332.536
332.601
326.587
326.286
326.179
326.266
326.394
326.625
326.967
327.27
327.572
327.758
327.862
327.699
327.332
326.863
326.443
326.04
325.621
325.337
325.33
325.408
319.012
318.779
318.703
318.78
318.859
319.032
319.264
319.482
319.683
319.813
319.916
319.78
319.526
319.192
318.904
318.622
318.332
318.137
318.136
318.161
311.433
311.274
311.232
311.27
311.331
311.437
311.563
311.713
311.817
311.902
311.978
311.878
311.714
311.528
311.358
311.205
311.003
310.892
310.894
310.923
303.84
303.77
303.759
303.776
303.798
303.83
303.872
303.926
303.956
303.987
304.024
303.982
303.93
303.855
303.814
303.753
303.689
303.646
303.648
303.668
357.972
357.389
357.014
357.057
357.404
357.816
358.462
359.226
359.661
359.977
360.015
359.811
359.157
358.191
357.297
356.502
355.611
355.156
355.089
355.293
350.224
349.75
349.398
349.464
349.737
350.102
350.633
351.303
351.66
351.96
351.992
351.856
351.256
350.408
349.663
348.994
348.236
347.829
347.774
347.978
342.486
342.115
341.811
341.856
342.069
342.397
342.851
343.382
343.702
343.952
343.986
343.888
343.371
342.651
342.024
341.487
340.82
340.496
340.466
340.625
334.767
334.464
334.234
334.252
334.419
334.687
335.082
335.498
335.754
335.948
335.993
335.911
335.497
334.899
334.373
333.963
333.405
333.142
333.135
333.263
327.065
326.8
326.638
326.667
326.774
326.997
327.304
327.6
327.824
327.978
328.005
327.93
327.605
327.159
326.738
326.429
326.011
325.785
325.795
325.889
319.359
319.151
319.035
319.073
319.129
319.298
319.527
319.722
319.897
319.985
320.011
319.96
319.731
319.408
319.115
318.901
318.603
318.406
318.452
318.511
311.635
311.512
311.446
311.466
311.463
311.613
311.721
311.842
311.96
312.007
312.013
311.992
311.85
311.649
311.494
311.376
311.166
311.051
311.101
311.115
303.896
303.851
303.836
303.839
303.839
303.899
303.923
303.961
304.002
304.038
304.023
304.023
303.974
303.902
303.861
303.813
303.737
303.703
303.731
303.74
359.011
358.421
358.063
357.939
358.282
358.607
359.214
359.891
360.248
360.388
360.485
360.285
359.611
358.837
357.864
357.216
356.384
356.23
356.082
356.313
351.135
350.619
350.319
350.208
350.507
350.771
351.311
351.903
352.198
352.323
352.399
352.245
351.67
350.979
350.135
349.596
348.878
348.738
348.654
348.854
343.266
342.839
342.577
342.469
342.738
342.951
343.401
343.912
344.149
344.264
344.325
344.215
343.722
343.132
342.434
341.985
341.378
341.251
341.211
341.376
335.402
335.054
334.846
334.76
334.965
335.142
335.518
335.902
336.122
336.209
336.265
336.196
335.808
335.276
334.743
334.362
333.873
333.768
333.729
333.883
327.545
327.263
327.111
327.044
327.21
327.34
327.611
327.92
328.098
328.175
328.211
328.139
327.868
327.443
327.038
326.732
326.362
326.284
326.253
326.35
319.693
319.488
319.378
319.323
319.445
319.535
319.714
319.943
320.062
320.13
320.156
320.11
319.919
319.605
319.324
319.096
318.847
318.801
318.77
318.828
311.827
311.701
311.634
311.608
311.67
311.739
311.832
311.96
312.046
312.089
312.094
312.09
311.975
311.767
311.614
311.474
311.314
311.287
311.266
311.316
303.966
303.921
303.907
303.893
303.908
303.937
303.956
304.003
304.049
304.051
304.052
304.055
304.011
303.944
303.896
303.837
303.787
303.783
303.781
303.799
359.963
359.309
358.939
358.871
359.141
359.456
359.938
360.395
360.711
360.809
360.927
360.61
360.147
359.28
358.511
357.889
357.254
356.949
356.973
357.223
351.96
351.382
351.053
350.986
351.243
351.507
351.938
352.312
352.586
352.682
352.767
352.487
352.11
351.368
350.674
350.187
349.624
349.373
349.421
349.604
343.955
343.46
343.187
343.139
343.347
343.544
343.936
344.255
344.496
344.575
344.639
344.378
344.096
343.471
342.862
342.465
341.979
341.798
341.842
341.984
335.967
335.553
335.343
335.285
335.462
335.595
335.945
336.184
336.43
336.482
336.53
336.294
336.077
335.565
335.06
334.741
334.348
334.182
334.246
334.369
327.986
327.656
327.498
327.435
327.584
327.664
327.961
328.127
328.348
328.377
328.434
328.211
328.066
327.679
327.271
327.027
326.724
326.598
326.648
326.756
319.989
319.766
319.651
319.592
319.712
319.767
320.004
320.076
320.262
320.286
320.321
320.151
320.05
319.782
319.51
319.313
319.107
319.013
319.053
319.121
312.01
311.869
311.805
311.773
311.837
311.869
312.017
312.046
312.168
312.178
312.185
312.096
312.039
311.889
311.726
311.602
311.477
311.429
311.442
311.497
304.018
303.98
303.955
303.941
303.962
303.979
304.032
304.039
304.085
304.084
304.083
304.053
304.027
303.983
303.926
303.886
303.843
303.842
303.842
303.859
360.763
360.006
359.701
359.552
359.629
360.026
360.563
360.894
361.044
361.308
361.226
361.058
360.515
359.723
359.098
358.523
357.922
357.642
357.689
358.031
352.581
351.952
351.676
351.557
351.631
351.949
352.439
352.732
352.853
353.09
353.026
352.878
352.419
351.714
351.174
350.69
350.191
349.915
349.97
350.282
344.439
343.917
343.679
343.579
343.642
343.909
344.344
344.594
344.696
344.915
344.85
344.725
344.359
343.705
343.251
342.874
342.457
342.223
342.276
342.534
336.359
335.902
335.722
335.618
335.697
335.891
336.263
336.476
336.531
336.768
336.677
336.586
336.305
335.735
335.378
335.071
334.746
334.514
334.598
334.805
328.271
327.927
327.773
327.685
327.771
327.893
328.191
328.371
328.393
328.618
328.523
328.461
328.262
327.792
327.53
327.295
327.043
326.819
326.937
327.069
320.194
319.942
319.829
319.792
319.837
319.913
320.144
320.278
320.275
320.457
320.355
320.336
320.201
319.857
319.668
319.494
319.334
319.152
319.26
319.349
312.115
311.967
311.887
311.887
311.913
311.978
312.115
312.182
312.184
312.283
312.217
312.217
312.142
311.925
311.807
311.689
311.611
311.477
311.575
311.628
304.059
304.015
303.982
303.975
303.988
304.028
304.057
304.085
304.085
304.121
304.09
304.084
304.072
303.997
303.951
303.903
303.889
303.841
303.87
303.891
)
;

boundaryField
{
    hotSide
    {
        type            fixedGradient;
        gradient        nonuniform List<scalar> 
400
(
491.666
490.608
491.851
495.318
500.751
507.787
516.041
525.167
534.882
544.977
555.305
565.778
576.361
587.061
597.93
609.054
620.546
632.52
645.072
658.245
478.696
478.006
479.777
483.91
490.093
497.89
506.858
516.609
526.836
537.316
547.902
558.509
569.107
579.719
590.411
601.292
612.502
624.188
636.47
649.408
472.751
472.722
475.109
479.802
486.481
494.71
504.039
514.073
524.5
535.09
545.693
556.227
566.668
577.047
587.442
597.976
608.796
620.061
631.9
644.384
473.32
474.23
477.339
482.528
489.511
497.903
507.297
517.32
527.668
538.111
548.498
558.75
568.848
578.832
588.79
598.845
609.146
619.843
631.06
642.874
478.589
480.622
484.584
490.343
497.648
506.168
515.546
525.443
535.569
545.703
555.698
565.48
575.043
584.44
593.769
603.159
612.757
622.705
633.121
644.088
486.466
489.724
494.682
501.186
508.996
517.812
527.302
537.145
547.063
556.839
566.336
575.495
584.336
592.934
601.413
609.919
618.606
627.618
637.078
647.073
495.154
499.681
505.756
513.201
521.766
531.141
540.989
550.976
560.808
570.265
579.218
587.638
595.584
603.181
610.597
618.014
625.609
633.541
641.94
650.9
503.177
508.948
516.203
524.741
534.283
544.487
554.972
565.349
575.277
584.504
592.909
600.504
607.417
613.852
620.047
626.239
632.641
639.432
646.749
654.693
509.281
516.165
524.547
534.209
544.843
556.059
567.403
578.397
588.604
597.715
605.603
612.341
618.16
623.374
628.312
633.278
638.524
644.244
650.582
657.634
512.401
520.116
529.395
540.012
551.639
563.841
576.087
587.789
598.391
607.496
614.966
620.947
625.791
629.936
633.806
637.764
642.088
646.985
652.595
659.008
511.75
519.853
529.596
540.752
552.981
565.825
578.697
590.93
601.876
611.063
618.342
623.912
628.215
631.772
635.07
638.504
642.367
646.869
652.147
658.287
506.971
514.917
524.557
535.661
547.888
560.768
573.709
586.04
597.109
606.442
613.886
619.63
624.104
627.827
631.28
634.86
638.867
643.514
648.943
655.242
498.279
505.532
514.518
525.008
536.658
549.01
561.505
573.535
584.529
594.075
602.019
608.486
613.804
618.4
622.696
627.06
631.786
637.094
643.137
650.012
486.477
492.619
500.563
510.086
520.85
532.415
544.273
555.893
566.798
576.644
585.274
592.735
599.238
605.091
610.628
616.173
622
628.332
635.333
643.113
472.892
477.671
484.396
492.856
502.72
513.558
524.889
536.234
547.176
557.407
566.766
575.24
582.947
590.098
596.952
603.78
610.841
618.354
626.492
635.37
459.322
462.642
468.142
475.63
484.764
495.093
506.128
517.4
528.511
539.171
549.206
558.57
567.321
575.606
583.63
591.632
599.855
608.523
617.815
627.849
448.046
449.948
454.322
460.993
469.584
479.595
490.495
501.8
513.113
524.147
534.728
544.786
554.349
563.524
572.482
581.442
590.645
600.324
610.67
621.796
441.722
442.391
445.774
451.712
459.795
469.471
480.176
491.41
502.782
514.011
524.923
535.441
545.571
555.396
565.062
574.771
584.761
595.271
606.5
618.556
442.682
442.442
444.965
450.111
457.484
466.544
476.738
487.586
498.711
509.844
520.815
531.54
542.009
552.284
562.488
572.8
583.435
594.619
606.535
619.279
451.7
450.908
452.692
456.941
463.331
471.41
480.703
490.786
501.314
512.037
522.787
533.473
544.074
554.627
565.23
576.024
587.185
598.894
611.294
624.46
)
;
    }
    coldSide
    {
        type            mixed;
        refValue        uniform 300;
        refGradient     uniform 0;
        valueFraction   uniform 0.991591;
        source          uniform 0;
        value           nonuniform List<scalar> 
400
(
300.026
300.026
300.026
300.026
300.027
300.027
300.027
300.028
300.028
300.029
300.029
300.03
300.03
300.031
300.032
300.032
300.033
300.033
300.034
300.034
300.026
300.026
300.026
300.026
300.026
300.027
300.027
300.027
300.028
300.029
300.029
300.03
300.03
300.031
300.031