/*--------------------------------*- C++ -*----------------------------------*\
| =========                 |                                                 |
| \\      /  F ield         | OpenFOAM: The Open Source CFD Toolbox           |
|  \\    /   O peration     | Version:  2212                                  |
|   \\  /    A nd           | Website:  www.openfoam.com                      |
|    \\/     M anipulation  |                                                 |
\*---------------------------------------------------------------------------*/
FoamFile
{
    version     2.0;
    format      ascii;
    arch        "LSB;label=32;scalar=64";
    class       volScalarField;
    location    "./ITHACAoutput/true/1.4";
    object      error;
}
// * * * * * * * * * * * * * * * * * * * * * * * * * * * * * * * * * * * * * //

dimensions      [0 0 0 1 0 0 0];

internalField   nonuniform List<scalar> 
3200
(
-7.02201
-1.46499
1.539
-0.152176
1.5745
2.16887
2.55989
5.06297
4.94073
4.97976
2.47472
2.60306
3.32015
3.62403
2.93709
3.06062
3.2777
-1.27688
-1.39075
-3.99182
-2.94843
-1.19333
-1.32575
-1.15714
2.91219
1.72564
0.517515
4.03945
4.43118
3.25516
1.60335
1.57471
4.45783
3.46063
4.30077
2.60558
0.508338
0.729305
-1.5416
-1.16746
-2.20857
-4.23379
-0.949023
-1.98725
1.31882
0.88907
1.80947
0.51746
1.25296
4.43735
2.45265
0.837378
2.40578
0.25283
1.82139
1.24545
1.75547
0.659832
-1.54209
-2.62559
-3.22247
-0.495559
-0.588021
0.189692
1.1125
1.33288
1.86883
2.821
-0.233186
2.46489
2.05585
1.82267
1.2492
2.67398
0.876025
0.265345
-0.455061
-0.725393
-1.06585
-1.53439
-4.57949
-2.2501
0.869113
-1.73643
0.980877
2.94479
3.79839
0.0408703
2.32374
1.55662
0.169121
3.57109
3.12819
0.365627
2.24817
2.95442
-0.244228
-0.924815
-2.64435
-0.308194
-0.989329
-1.12746
-0.00381347
3.00734
3.37543
0.0636926
3.67984
1.9701
2.68085
-1.00215
-0.709346
0.530231
-0.0265111
3.23116
0.577697
1.07371
1.60899
-0.104558
-1.92082
-1.61342
-5.4732
-0.659163
0.08634
-1.38682
-1.05868
1.89379
1.58456
1.78198
3.32744
0.0262336
2.87833
1.1627
-1.59
-0.236318
3.31565
-1.27824
3.28579
-1.62294
-0.579626
-0.913206
-1.01103
-2.404
1.02215
2.52019
-0.0894483
-1.21929
-0.243626
0.478495
0.0508218
1.70475
0.712298
-0.62103
-0.464127
2.13556
-0.318286
1.81148
0.0100333
0.0608246
-2.30844
0.265899
-6.83698
-1.66081
-0.212689
-1.107
1.50325
3.81344
2.52443
4.4073
2.93115
3.23299
4.91959
0.435258
2.05541
3.16974
1.72021
1.50883
1.22092
-2.45836
-2.00966
-2.66568
-4.98626
0.158113
-2.65742
-0.112839
0.623292
0.243167
1.82959
0.0174133
4.26717
-0.600708
0.506288
3.9959
0.537884
1.29263
-0.380145
1.21487
0.181452
-2.37652
-0.0390436
-4.32558
-3.79393
-1.81523
0.020194
0.338121
0.888768
1.3212
0.941916
0.679231
3.49169
1.54171
1.21046
1.09092
2.98615
1.51502
2.84932
2.64116
-0.99199
-0.250551
-0.627144
-5.24094
-0.732161
-0.414008
-1.57023
0.949189
-1.19079
0.609251
1.47324
1.82939
2.73227
2.27579
0.511699
0.903302
2.40148
1.75617
2.62903
0.486151
2.55767
-1.28568
-1.80216
-4.17394
-5.15142
-1.35602
0.132366
-0.265208
0.682834
-0.417248
1.53338
0.538931
2.45415
1.8893
-1.50257
3.65281
1.75314
2.2392
1.64383
0.233414
1.16619
0.982625
0.980337
-0.974724
-2.44129
-1.99026
-0.840331
-0.291493
-1.13644
0.942187
-1.98023
-0.237856
1.57782
1.91435
0.805513
0.31088
-0.261428
-1.10263
0.208047
-0.2293
1.67686
-1.11232
-0.0752624
0.37219
-0.0812094
-0.915893
-1.14741
1.31166
0.253062
1.67502
-0.127109
2.67122
1.9238
2.49528
1.34952
2.28451
1.37864
0.183985
-1.49671
-0.34415
3.48741
-1.57052
-1.13999
-1.9476
-2.92297
-0.777247
-0.941747
1.23963
2.36967
-1.70124
0.927859
2.82755
-0.679451
-1.14851
0.556128
-1.28349
0.0275006
0.0859436
1.21936
-0.248604
-0.283014
1.2172
0.671085
-0.357905
-5.34114
-2.96245
-1.42313
2.23564
0.893068
3.99272
1.50161
3.21669
5.57882
4.71002
3.50482
4.58839
-0.853814
0.826781
2.03696
0.84669
2.97293
0.828461
-4.68256
-2.93851
-4.94821
-1.75701
1.33878
0.74147
2.27347
0.319426
0.881802
2.60729
3.27694
1.84904
0.112394
2.32683
0.840045
1.54777
0.211953
1.05177
2.01439
-2.59555
-0.544376
-3.44436
-1.85979
-2.54882
-0.028239
0.213042
0.939559
-1.36154
0.155368
2.08018
-0.883118
1.92588
4.456
4.36758
2.52698
3.50827
1.5581
0.697537
0.688273
-2.37215
-2.029
-3.38857
-1.89119
-4.18935
0.0899548
0.971906
0.619049
1.02735
-0.241882
1.37014
1.34955
3.14527
1.19281
1.05432
2.45618
2.09172
0.66669
-0.979669
-0.1411
0.639004
-1.91462
-0.360844
-2.6754
-2.34167
0.719767
1.13228
-0.364596
2.92811
2.51928
-0.0392347
-0.117055
-0.483547
2.12729
1.48682
2.47994
2.70369
0.995141
0.859315
2.12706
-1.06829
0.618813
-1.31016
-1.73072
-0.508141
-1.87543
-1.47376
0.81678
0.203898
0.72002
0.301688
1.83577
0.414238
0.0961832
0.918115
1.36966
-0.196611
1.20221
1.17031
0.151033
0.134838
0.0263674
-0.579583
-0.882329
-0.855901
-2.04228
0.964661
-2.59312
0.786943
2.87643
2.08799
-2.07075
-0.0609795
0.131175
2.65989
3.65255
-0.0756527
-1.36811
0.528413
1.53079
1.15
-1.34357
1.45562
-0.757021
-0.989515
-0.200673
-1.16037
1.15588
-1.31302
0.834245
0.691363
2.18964
1.01701
1.1953
-1.10115
-0.311953
0.183434
0.570745
0.973825
1.10203
3.48842
0.0201672
-3.32555
-4.18997
-2.01111
0.620043
1.47876
0.587423
0.277576
1.10588
2.22598
1.72579
2.18876
1.1582
1.19939
-0.26098
1.89766
0.493063
0.860504
1.63549
1.04386
0.601656
-2.78247
-6.00675
0.442517
0.635978
0.0700216
2.32039
0.467069
1.80925
0.0313571
2.03272
0.222284
0.0604427
1.73708
0.479373
3.24962
-0.091588
0.918085
-0.146978
-0.632466
-0.332835
-2.32689
-2.16101
-1.53012
-0.155612
0.141829
4.4733
0.211997
1.01994
2.46633
0.789562
3.53835
-0.467501
-0.40634
1.35614
-0.333081
1.88835
0.957131
-0.0971805
-0.307985
-2.06659
-2.85474
-2.60539
-1.22669
-0.114445
1.65096
1.76571
0.459834
0.882924
0.569064
0.715601
1.8833
1.48863
3.55205
2.13869
-0.687514
2.52506
-0.43101
0.437152
-0.787898
-0.814056
-2.76196
-3.00748
-1.47909
1.77501
-0.662468
0.486259
2.53267
0.614336
1.84841
1.94808
2.98997
2.52811
1.93573
1.31221
0.64643
1.57441
-1.63329
-0.563535
0.369517
-0.76377
-1.99553
-0.884228
0.423106
-0.778204
0.822235
0.263314
1.93171
2.72763
0.856084
0.754901
-0.156529
-1.19524
-1.07221
-0.829705
-1.16722
1.03319
2.26872
-0.282032
-1.51584
-0.99414
-0.575189
-1.62611
-1.51227
-0.807594
1.34106
1.10588
0.600938
1.14852
0.857978
1.01782
-1.27201
0.902348
-0.9277
1.14814
-0.456024
-0.364121
0.769661
-0.166856
0.202979
-0.90876
-0.0245756
-2.04854
1.40147
-1.65444
-2.15754
-1.11452
0.759992
-0.974815
-0.713244
0.337284
-0.433741
-2.09536
1.46953
1.14953
1.24095
-2.4749
1.8436
0.183054
1.73455
-3.21612
-0.690317
-5.3325
-3.37235
-2.08643
0.349573
1.3783
0.555268
1.00906
1.66244
2.06828
0.563774
3.15972
-0.492385
0.460956
-0.139003
1.72955
0.777962
-0.720802
-1.54994
-1.6688
-5.60027
-3.17126
-2.85683
-2.02844
-1.58037
2.13936
1.49876
0.73145
-0.684805
1.79281
2.9149
1.55074
-2.24849
1.1426
1.97988
0.350409
1.69931
0.646238
-0.302054
-3.10702
-3.16841
-2.31306
-3.60652
-0.944642
-0.870341
-2.12455
1.80102
0.0528469
0.450158
0.968337
1.383
2.7507
-0.623412
-0.131587
0.699971
-0.0975701
1.80623
0.944156
-1.13301
0.543932
-2.35611
-3.478
-1.27856
-0.893824
-1.0951
-0.516478
1.5748
0.329513
-0.439009
1.58711
-1.24921
0.327104
0.0185668
1.50141
0.801884
2.04318
0.483084
-1.11423
-1.92695
-1.55831
-0.723853
-2.94261
0.0655362
0.892891
-1.77911
-0.382177
0.743146
-0.302098
2.87786
1.8289
-1.59621
0.218473
-1.40504
-0.661411
-1.29853
0.184225
-1.60794
0.958097
1.11148
-2.43415
-3.12947
-4.58863
-1.44376
-1.73753
-0.358815
1.2122
1.08295
-1.36018
0.275214
1.85536
-2.11016
0.266766
0.771279
-1.80896
0.829869
-1.45347
0.604091
-0.300924
-4.02024
0.833534
0.278174
1.96468
0.239674
-0.551488
-0.373341
-1.7338
0.335199
-2.66152
-0.344874
1.9273
-3.10884
0.848155
1.21003
0.689439
2.12847
-2.24979
0.246524
1.84257
-0.00096795
0.988723
-1.49161
-0.036937
1.64953
-0.399703
0.74964
0.269825
-3.06187
0.804248
-2.34832
2.80195
1.17385
0.840144
-1.48905
0.525392
-1.13824
0.567972
-0.949179
-1.00917
-0.0943326
2.55607
-0.0774339
-5.99622
-4.51482
-0.789049
-1.0127
0.668566
1.47149
0.960553
3.40641
-0.787152
1.77334
3.04525
1.11769
2.08702
1.0088
3.43359
0.812019
-1.41409
-0.0925801
-3.2492
-2.72049
-5.58808
-0.210792
0.321136
-0.217738
1.1817
0.302604
0.772471
-0.152318
0.342992
-0.231175
-0.0276543
2.72406
-0.330148
-1.79397
0.249906
0.612504
0.373697
-2.3791
-0.247651
-3.16843
-4.69017
-3.84359
-1.3586
1.52595
-0.677003
-0.0959286
0.266746
-0.112074
0.00616911
0.394194
2.41186
-0.482526
-0.555999
0.880209
-0.194832
0.210451
0.380874
-1.50975
-1.44542
-1.23506
-3.92186
1.45627
-0.685627
1.02358
0.936006
2.0274
0.802911
1.52332
0.307266
-1.64345
1.60161
-1.1001
-0.292769
-1.71906
2.39916
0.29828
-0.190424
0.553522
-0.0238713
-3.07947
-4.8466
0.984544
0.21189
-1.44995
0.436575
0.146945
-0.97059
1.30636
0.416662
-0.559044
1.71869
1.54225
-0.46637
0.133768
2.21999
-0.397647
-0.971309
0.982325
-0.176562
-1.00015
-3.18423
-1.64417
-0.712597
-0.748448
-0.77662
-0.779411
1.88955
-1.97355
-0.272298
0.19774
-0.474374
-1.9826
-1.304
-2.30746
1.0518
-0.30081
0.497805
0.967859
-2.11055
-1.54566
-0.620376
-0.589295
-1.89455
1.90984
0.240908
-0.492519
1.26466
1.3622
1.80471
-1.77103
-0.95635
-1.11611
1.95339
1.6841
-1.79318
-1.33854
-0.249712
1.41533
1.13042
-2.0017
1.03731
1.36694
0.499398
-2.23375
0.732506
1.84647
-0.411542
-0.136594
2.50257e-05
0.411947
-0.340176
-1.75244
-0.931816
1.16083
0.579247
-3.16914
-1.34196
1.13816
1.56431
1.08541
-5.7458
-3.11552
0.383412
-0.739249
0.0480192
0.00641783
-0.0386617
0.00533355
1.18733
-2.82413
-0.384625
-1.98343
-0.131808
-0.540474
-0.613035
-1.36416
0.278889
-1.68999
-3.66696
-6.2632
-3.10683
-1.3725
1.13787
-2.8359
-2.25637
-1.80799
0.704515
-1.6113
0.306898
-0.533155
-1.49306
0.133358
-0.913124
-1.08665
-2.00684
1.54152
-0.348706
1.42974
-1.4391
-2.87482
0.40349
-1.211
0.121966
1.12328
-1.49186
-0.66025
-0.71682
0.381906
1.3131
-0.686068
0.0866034
1.6753
-0.368033
-1.41737
1.25439
-1.05401
1.89788
0.749304
-1.81031
-2.52709
-3.62001
-3.32108
-1.53191
3.1274
-0.383916
1.08904
0.982836
1.46784
-0.586914
-1.42865
-0.0781656
-0.442484
-1.53972
2.72182
-0.52366
1.75487
-1.67813
-1.83847
-1.45093
-0.273212
-1.74651
-1.40504
1.3712
-2.15894
3.1642
-1.49132
0.39368
-0.544095
1.49577
-0.00876404
-1.57687
0.0618816
-1.46456
0.92233
0.210226
-0.144274
3.47464
-1.56378
-0.84554
-1.24069
-1.8291
-0.95634
-0.794364
-1.41184
0.91455
-1.90281
-0.172119
0.500122
1.87475
-1.58458
1.04911
-0.639999
-1.4254
-0.544056
1.31668
-0.474968
-1.92552
-1.07392
-1.40127
-1.03687
-2.21163
0.535491
-0.335948
0.162421
1.23127
0.0176883
1.38862
-0.917718
1.08951
0.353584
1.44243
-0.380864
1.65063
0.886222
0.583892
0.148136
2.67503
-0.275176
0.563715
-1.70139
2.8268
0.207597
0.924455
0.762089
0.517825
-0.0212148
2.26059
1.4586
-0.0774182
0.022122
-0.901021
0.713893
-1.67575
0.264117
0.728939
0.711165
-0.244044
-0.233316
-1.43461
0.646778
-6.02659
-3.33696
-2.504
-0.0190822
0.604017
-1.15935
-1.34693
-1.89587
-0.163042
-0.153153
-2.44197
-0.337316
0.926368
-1.16303
-0.503388
1.16529
-0.682056
-0.0139972
-1.06849
-4.26272
-3.01615
-0.601919
-2.96944
-0.622515
0.448408
-0.0508777
-1.14035
0.0956936
-3.18057
0.200855
0.120963
-1.41804
-0.0685271
-2.21911
-0.367615
-0.279651
0.185684
-1.96565
0.291999
-2.96539
-4.32246
-2.90931
-0.0867082
0.547268
1.21449
3.0873
-0.106267
-3.80279
1.19594
-1.43501
1.84867
0.367904
-1.38042
0.963084
-0.966172
-0.471425
-2.22643
-0.506685
-0.349553
-3.96348
-2.86601
-1.68258
-1.35707
-1.1781
-0.358552
1.73205
2.07645
-0.373227
-1.98766
-0.272655
0.214931
0.0751662
-2.952
-1.19112
1.10497
-0.773487
-1.46965
0.200622
-1.63646
-1.73203
-3.44046
-2.227
0.281258
-0.201905
-0.274689
1.1175
-2.55244
0.770199
-0.529744
-1.55682
-0.601339
-1.39785
-1.13735
0.390419
-0.26015
-0.682672
0.546839
-1.41426
-1.19766
-0.818439
-0.558787
-0.724457
-1.67397
-0.846191
-1.02305
0.147706
-2.82699
1.21748
-1.97437
2.7923
-1.79113
-3.8573
-0.575249
-1.03827
0.246176
-0.182951
0.226784
-0.810411
-0.989592
-3.89002
0.482019
-0.569637
0.0165181
-0.751284
-0.339039
2.26793
1.3812
0.428677
0.748976
-1.87577
-3.15901
0.270602
0.511236
-0.732675
-3.70934
0.0203822
-0.458534
-0.286901
1.25284
-1.87906
-2.60097
-0.0170246
2.28757
1.5668
-0.649527
0.105004
-2.30864
3.36586
1.10223
1.76861
1.66564
-0.480227
2.80667
1.28343
-0.277678
-0.849724
0.0352991
2.56458
-1.88577
2.17845
-6.27334
-3.82417
-2.67808
-2.94861
-2.95306
-0.513376
-0.896648
1.49208
0.111873
-2.67037
-4.84511
-3.52566
-1.87727
-3.52474
-2.49075
-1.6875
-3.44207
1.12624
-3.10716
-4.78363
-2.87166
-4.28494
-0.712606
-1.99366
0.897636
-0.203935
-2.36179
0.857631
-1.88464
-1.27988
-4.32511
-1.0906
-2.67512
-0.690949
-2.05764
0.322941
-0.964102
-0.309602
-3.12523
-2.73298
-5.45087
-5.02939
-1.90033
-3.15555
-0.0684654
-1.71376
-1.40933
0.531359
1.55629
-1.05246
-3.60536
-0.215044
-1.0933
-2.53328
1.22896
-0.537076
-2.08187
-0.631313
-2.30337
-0.00570769
-2.36975
-2.8881
-0.321861
1.45151
-0.396163
-1.66128
1.16558
0.975523
-2.98038
-0.862068
1.06572
-1.40094
-0.890174
-2.21381
-1.8473
-0.667646
0.993518
-0.57501
-1.75162
-3.50896
-2.5158
-0.318442
0.185481
-1.32616
-0.834315
-0.274238
-0.926861
0.0649413
-2.12598
1.78075
-0.853166
-0.918293
-0.928292
1.00003
-0.427362
0.608349
-1.65746
-0.718943
-3.23889
-2.88963
-3.56147
-2.76423
-1.08149
2.56756
-0.177328
-0.814226
-1.11441
-0.100464
-0.665304
-1.44243
-2.10806
-2.85797
-1.05955
0.113316
1.85682
0.434824
-1.98288
-1.03111
0.198749
-1.664
-0.982266
-3.00846
-0.591592
1.12245
0.377381
1.47325
-2.29265
-0.669204
0.25727
-0.248597
-1.18439
-0.211724
0.0710986
0.944381
2.56782
-1.60526
-0.392255
1.77519
-2.66963
-2.41715
-0.141689
-0.301422
-1.16698
0.220677
-0.4538
0.988641
0.93152
-1.18095
0.423822
0.83966
-0.17614
2.02481
0.163105
-0.159124
-1.16531
-1.03152
-0.45939
-0.193157
0.923448
-1.4254
-5.72662
-4.57659
-1.87617
-0.600496
-1.78694
1.4744
-1.58208
-0.572879
-1.18982
-2.01952
-2.86408
-3.35422
-4.31531
-0.0357954
-0.612997
-1.32069
-1.5719
-2.52505
-3.80933
-4.68462
-5.84374
-1.10462
-2.8632
-0.556059
-0.943798
-0.443036
-1.75106
-0.13524
-1.35651
-0.00328179
-0.303654
-1.70795
-0.723324
-2.51498
0.334635
-0.938604
0.327552
-0.640262
-0.322785
-4.99723
-5.41766
-2.85652
0.0342276
-2.08301
-1.30746
-1.31443
-0.788273
0.658977
-0.369966
-3.90373
-1.43697
-1.34576
-3.18518
-1.13874
0.185196
-0.385419
-1.81953
-1.15011
0.58606
-2.43959
-4.16889
-2.39325
-3.66331
1.02672
0.952923
1.61199
0.392235
0.630929
0.712563
-1.57673
-2.21479
-0.830862
-2.07368
-2.48667
-2.74786
-0.251871
-1.79687
-0.929271
-1.93106
0.09951
-1.32091
0.347258
-2.20167
-0.596395
-0.186544
0.916978
-2.16168
-1.38992
-0.30543
-0.0761573
-0.0888165
-0.777066
-1.78675
-0.691613
-2.44705
-1.5016
-2.08371
-2.73925
-0.103759
-1.49353
-2.58936
-1.31678
-0.641774
0.0938805
-0.717394
0.784322
0.683933
-1.16049
1.83574
-0.655459
-2.34
-0.227317
-3.40712
-0.58131
-0.0680982
-0.690041
0.840447
-0.85811
-1.71936
0.265938
-2.07107
-0.875469
-1.73707
-0.417734
0.937893
-0.551237
-1.21495
0.309114
-0.848354
-0.556659
0.226427
0.00863786
0.844117
0.912329
-1.39406
-0.865268
2.05669
-0.0615067
-0.396174
-1.21653
-1.60123
1.21623
-1.15802
-0.321859
0.963529
1.38026
-0.742222
0.561543
-0.765588
0.277022
-1.88729
-0.829258
0.15784
-3.26001
-0.331001
0.652686
-0.61171
0.186116
-0.921584
-2.47459
-5.22862
-4.59857
-1.84722
-0.979636
-1.50094
-0.425869
-0.808387
-1.39633
-2.03978
-4.87346
-2.95881
-5.55758
-3.62517
-1.67134
0.0545058
-0.805203
-2.89927
-0.991318
-1.99737
-4.68585
-5.17283
-0.289326
-2.78144
-0.183683
0.411808
0.0565848
-2.48625
-0.634672
-1.79107
-0.0633608
0.0395941
-2.8755
-0.6521
-0.423746
0.362917
0.962364
0.63839
-2.90175
-0.298855
-1.77846
-3.18791
-4.05193
-0.289079
-0.28363
-0.599129
-0.903249
-3.58008
-0.442219
-1.71594
-2.08439
-1.52613
-2.24161
-1.86058
-2.59197
-1.94522
-1.86561
-0.619201
-2.2453
-0.859803
-2.65102
-2.05889
-0.597838
-2.39759
-1.65167
-1.54044
-4.28949
-1.86713
-1.44146
-2.11238
-2.00003
-1.37293
-1.88486
-1.24727
-3.72304
-1.12162
-0.806261
-0.675789
0.745875
-1.68002
-4.54641
-3.12915
-3.307
-1.5137
-3.63269
-0.870822
-0.993396
-1.21784
-3.13569
-2.338
-0.750776
-1.55941
0.138491
-1.82667
-0.486465
-2.54204
0.269852
-0.599928
-1.37666
-2.68777
-1.72776
-1.32858
-2.23839
0.471986
-0.238693
2.146
1.12415
-1.61114
0.755853
-0.437298
-2.7939
-1.16304
-4.11428
-2.98684
-0.339703
0.154637
0.287699
0.973922
-1.72796
-1.12389
0.803453
1.08057
0.0792088
0.252647
0.998681
0.341254
-2.33095
0.156326
-0.599222
-1.07637
-0.185718
-0.994662
0.496387
-3.04505
-0.462558
0.983232
0.41997
0.105153
0.108619
-2.33147
0.17018
0.970406
0.055768
-1.54993
2.44553
-1.01586
-1.34736
-0.0219251
0.272459
-0.707366
-0.947971
-1.79442
0.0767598
-0.637052
0.40725
0.557617
2.18906
-0.0104844
-0.357226
0.673713
0.605615
-2.84567
-2.88134
-0.314617
-0.0262183
-2.46726
-1.50806
-2.14721
-2.0515
-1.42442
-3.85316
-4.37574
-2.80689
-2.94203
-0.940849
-2.57043
-2.42775
-1.875
-4.46434
-3.24783
-2.72853
-3.43048
-2.48618
-1.04455
-3.91652
0.356804
-1.75326
-0.41922
-1.81895
-1.27752
-2.49324
-0.89596
-2.79789
-3.02488
-4.8323
-0.931577
-0.0280708
2.86611
-1.6095
-0.355028
-3.86015
-3.81072
-4.00405
-4.43203
-1.03139
-0.0590348
-0.668925
0.34452
0.0665659
-1.73693
-2.64297
-3.37361
-2.74156
0.450941
-2.1378
-2.19145
-2.49807
-0.121286
-0.704733
-0.869437
-2.37526
-1.47818
-2.03311
-0.216645
-0.318242
-1.85338
1.73173
-0.688478
-0.641611
-0.434885
-1.01749
-2.68647
-3.41651
-2.26491
-0.891367
-2.86986
-1.20498
-1.19223
-0.301656
0.395241
-3.0056
-3.71914
-2.47394
0.133625
0.678369
-1.06046
1.91295
-0.643168
-2.64945
-1.10245
0.404923
1.0461
-2.56745
-1.24472
-0.594088
-2.25679
-0.663052
-2.63531
-1.65663
-2.89175
-3.41305
-0.614047
0.612117
-1.5299
0.624532
0.254214
-0.662534
-0.660157
-1.73781
-1.73656
-1.94158
1.24473
-1.1813
-0.379395
-1.445
-0.119149
-1.08079
-0.737862
0.552478
-1.40957
-0.735705
-0.231201
-1.25018
0.170991
0.181658
0.862976
-1.21746
-1.48434
-1.03335
-2.85792
-0.345954
1.40573
-1.11139
1.72474
-1.21597
-1.21006
-0.997217
0.884433
0.492816
-1.22076
-0.454463
-2.15421
1.79426
-0.521008
-0.183955
0.291761
-3.11735
1.65124
-0.631338
-0.698585
-1.23097
-0.459857
-1.45153
-0.624692
1.67279
0.351003
0.35239
-1.59859
-1.79765
0.772836
1.32487
-2.18234
-2.21003
-1.73552
-1.68956
-0.555592
-1.13258
-1.76595
-3.53787
-1.4164
-2.6531
-3.9683
-3.08326
-2.53439
0.463563
-0.443846
-1.3541
0.36584
-3.47546
-2.3764
-0.334002
-3.75766
-0.0326425
-1.16377
0.176203
-1.90419
0.594787
0.936331
-0.247784
-0.716917
-0.0337204
-0.788846
-1.67264
-0.592197
-1.71664
0.07645
-1.89039
-0.100895
-1.1136
-0.533525
-3.41121
-2.58983
-3.16485
0.730978
-4.41208
-1.24104
-1.57728
-1.80628
-2.15244
-1.77102
-3.15818
-2.55236
-5.74054
-2.63478
-0.78018
-1.60982
-0.245899
-1.93162
-0.896824
0.614245
0.127682
-3.77393
-0.48154
-2.49446
-1.70664
-0.520648
-0.505931
-0.972857
-1.18488
-0.0248785
-0.193722
-2.31305
-0.8363
-1.59167
-0.933636
0.680621
0.542136
0.435844
-1.2844
-0.683702
-0.170344
-2.4392
-0.272466
-1.9515
-1.22509
-1.25446
-1.67737
2.20659
-0.921769
-1.12071
1.66929
-0.25223
-0.91312
-1.24534
-0.863183
-0.445039
-1.34098
-0.45172
1.23132
0.572992
-1.98024
0.531415
-0.977936
-1.13914
-0.288547
0.377428
-1.62862
0.060268
-2.21444
1.12664
0.0250119
0.0974801
-1.28479
-1.63268
-1.74292
0.107009
-3.13487
0.553916
0.225111
-0.979642
-2.56823
-0.539915
0.327266
-0.241537
-0.256383
-0.502845
-0.643821
-1.11909
0.905118
0.544778
0.141807
0.0271421
0.68886
-0.860371
0.311499
-0.715277
-2.19417
0.871476
-1.87479
-1.31779
-1.33713
0.919129
-0.644896
-1.56418
-1.00767
-0.387258
0.729977
-2.16987
0.225603
1.80375
-0.111857
1.23963
0.258353
-1.39499
2.7054
-1.52915
2.54606
0.261883
-0.450276
-0.214814
-0.695073
-3.83045
-3.9469
-1.25208
1.10332
0.993994
-0.183804
0.238333
-1.29745
-3.16344
-3.32841
-2.0109
-3.58323
-1.28916
-2.04915
-3.8605
-0.445778
-1.92337
-0.320271
-0.384571
-3.51804
-1.23347
-2.98327
-3.40212
-0.272173
0.825713
-2.58715
-1.60047
0.105992
-3.77595
-4.10999
-2.5597
0.395209
-1.47294
-3.19644
-0.496663
-0.228682
0.353539
-3.21123
-2.22656
-3.42443
-3.05539
-2.48177
0.550759
0.0129858
1.07258
2.46117
0.457135
-0.586588
-0.735381
-1.98106
-1.97111
-2.79804
-1.63587
-0.395187
-1.72292
0.526928
0.125893
-0.536807
-1.64504
-2.14738
-1.12756
-0.546395
0.902372
-0.700559
-0.42806
2.26488
-1.13508
-1.23026
0.697149
-0.493675
0.438678
-1.13174
-0.0298335
-2.02381
0.696777
-3.7049
-1.12318
-1.02648
0.35221
-1.20331
-1.34893
-3.12364
-1.63543
-0.852514
0.221176
-2.7937
-1.73112
-1.90086
-1.99398
-0.666413
0.236775
-1.84943
0.0402779
-0.336458
-0.62226
-1.471
-0.851859
0.809456
-1.64155
-1.04204
-3.6961
-2.30761
-1.47073
0.603306
-0.451676
-0.00309503
0.349362
-0.834839
0.923696
-1.4804
0.527523
1.72532
1.47844
-0.504887
-0.682433
1.56021
-0.227153
-0.641141
-1.13655
-2.45511
-1.91803
-1.5415
-0.920582
-1.96453
0.417817
0.786437
-0.106239
-0.749886
-0.33577
-3.73191
0.259529
0.491712
-0.958077
-0.244499
-0.2688
-0.884338
1.72973
-3.15241
1.45417
-3.51673
-1.83793
0.59378
-0.769443
0.914737
0.00047803
0.438055
1.4872
1.13814
0.704442
1.5415
0.408716
2.01007
-1.17716
3.05183
0.0104109
0.549928
-0.577741
0.707333
-2.22974
-0.134113
-5.20981
-1.4552
-0.253013
-0.222094
2.42462
-1.07403
0.317731
1.50894
-1.40782
-1.00228
-0.669513
-0.898268
-2.59233
-1.67387
-0.177514
0.398366
0.0518614
-1.90136
0.375384
-3.95966
-2.87398
-0.186725
-1.31516
0.209951
-0.143992
-0.0877469
-2.0537
-0.454714
-0.137653
0.334889
0.453837
-2.88406
-0.212946
-1.92878
0.236995
-1.1877
-0.10166
0.789594
0.0525017
-3.62274
-1.40829
-0.499148
-1.25475
0.835373
2.02051
-0.463841
0.962714
-0.918976
-0.497538
2.66351
-2.10795
-2.17079
-0.362943
-2.48593
-0.814861
0.250774
0.486122
-1.93419
0.420278
-0.844516
-3.48534
-1.12087
-1.70747
-1.11191
-0.975901
-1.25968
-1.23739
-0.437044
-0.0868622
0.974532
0.461443
0.180475
-0.576372
-1.32501
1.40898
0.688805
-1.49313
-0.967276
-2.87774
-1.31705
-0.283852
0.55344
-2.21545
-0.685274
-0.0528225
-2.16778
0.130918
-2.3726
-2.5344
0.254047
0.0804242
-0.555655
-2.8113
-1.93773
0.485369
0.797348
1.38838
-0.853632
0.845047
0.578684
-1.16224
-1.05014
-1.21375
-0.293564
-1.02195
-2.50703
-0.0560787
-0.111553
-1.64491
-1.77151
0.300603
-0.890409
-0.426669
1.03521
-0.958976
-0.779818
-0.238181
-0.713876
0.0641447
-2.33324
-1.96372
-0.486029
0.454907
-2.2717
-2.00401
-1.43022
0.468862
-0.879669
-0.467931
-2.50547
0.412308
-0.945466
1.17115
-1.76505
-1.42903
1.56043
2.56744
1.22302
-0.204438
-1.51374
0.891031
0.488401
-0.426496
-0.404118
-0.356432
0.572291
0.486084
1.66187
-0.447295
0.354099
-1.064
2.26884
-0.835977
1.37212
-0.943889
-0.320559
1.07425
1.29212
0.17904
1.23592
-0.845096
-1.09396
-1.28044
-0.166388
-1.20934
-0.614118
0.710295
0.902548
-0.631558
0.353561
0.581531
1.14176
0.300449
0.0620182
1.49011
1.91437
3.27576
1.6532
-0.0269622
-0.907437
-1.5014
-2.0354
-1.40347
0.426473
0.182981
2.00143
-0.826153
-0.84005
3.506
-1.173
-1.17806
-2.1809
-0.154041
0.505343
-0.881909
0.365115
0.736642
-1.02745
0.550207
-0.33825
-1.56411
-0.368865
-0.862673
-0.225187
2.3494
-1.97138
-0.0640412
-1.0997
-0.982368
-1.60209
1.63272
0.173929
-1.63471
0.645071
-2.39311
0.775867
0.465782
-1.00903
-0.274214
-1.48622
-2.46559
-1.87555
-0.863358
-0.200574
0.582463
0.615437
-0.802858
-1.20691
-0.399134
-0.93229
-0.854343
0.636272
1.12114
-0.0872516
2.30877
0.00349067
-1.47003
-0.165266
-0.983071
0.722772
-0.489845
-2.70159
-0.418876
0.360283
0.636504
1.96981
0.126217
-0.473785
-0.0470543
1.98728
-0.227239
-0.0950222
0.826163
-1.73705
1.78092
0.0795216
1.98904
0.466696
-0.233375
-1.25915
-1.29321
0.766928
0.0130797
-1.06515
0.145831
2.7965
0.158903
-1.00429
0.0177995
0.451924
0.3569
-1.03252
0.49116
-0.235102
-1.85362
1.86804
1.01925
0.510141
0.591358
-0.708615
-0.774661
-1.19693
-2.06216
0.330269
-0.708739
-0.233327
0.515385
0.615704
0.523627
0.395526
-2.28266
-1.36457
-1.27849
-0.65871
0.950782
2.68741
0.546844
0.129145
-0.246419
-0.31683
-0.707212
-0.258659
-1.60843
-0.0478439
0.396216
-1.34917
1.20335
-0.44296
0.751058
-1.13157
-0.983668
-1.50653
-2.20394
2.52284
2.94108
1.71251
0.803231
1.40936
-0.784422
1.34762
-4.86964
-0.845038
1.01867
0.514783
2.12015
3.11237
-0.806694
0.462202
1.64663
0.777787
-0.569183
0.918834
0.20044
0.981219
1.08289
1.87224
0.735759
0.402302
1.10687
-0.130515
0.532105
-0.2487
0.88191
-0.0614551
1.21312
0.455795
0.939568
-0.0616055
1.1919
0.0533297
0.333979
0.692398
-0.0108462
-0.461541
0.373964
-0.271986
-0.0702801
0.742864
0.27921
0.108831
-2.09964
0.207492
-0.0962207
0.106856
2.18694
2.44638
-0.0795043
1.48543
1.90636
0.406016
-0.632737
-0.131266
0.423934
2.18203
1.54886
2.76528
0.550294
-0.807693
0.78296
-0.146027
-2.39289
-1.78496
-0.956385
2.21399
1.40787
-0.894242
1.66085
0.520232
-0.162188
2.04547
-0.0999746
1.66677
-0.0612415
-2.22092
0.82274
-0.653983
0.984306
2.46223
0.806536
0.378021
-1.32748
-1.05745
0.226682
-0.929711
-0.232912
-0.361498
0.451417
-1.86014
-0.35643
-0.216184
-0.105954
-0.182272
1.32487
-0.869359
-1.43642
0.0924953
3.68259
0.809143
-0.226046
-0.973357
0.405233
-1.25235
1.51523
2.56526
-1.51337
0.76424
0.721282
-2.13304
0.545549
2.72805
0.341391
-1.71586
1.71248
0.324887
-0.394492
0.498494
-0.442068
3.04741
1.05835
-1.58747
0.49234
-0.440653
-0.650252
1.72522
1.2406
2.09259
2.72176
0.00235705
-1.96645
2.86505
-1.07778
0.434119
0.11092
-2.11023
-0.273311
-0.558266
0.778622
0.438459
-0.145133
-0.336547
-0.00616763
-0.663074
3.52371
1.2267
0.04142
-0.124394
0.147315
0.0540714
-0.986383
0.0173101
0.809744
-0.087392
-1.21418
0.388059
-2.19708
1.89682
-1.31514
-0.352409
1.35102
-1.73228
-0.937075
0.962418
1.86302
1.67067
2.27103
3.48145
1.35963
-0.657184
1.62382
-1.54699
0.100319
3.58271
1.31861
1.29123
1.57089
1.47249
2.92183
0.954862
-0.855921
1.90819
-2.00348
-2.0009
2.80346
2.15509
1.48341
3.48898
3.14876
2.63472
3.29354
1.23951
0.568628
4.02496
-0.151766
-0.879655
3.80958
-1.4098
1.561
2.46845
0.919884
2.0794
-1.73121
-1.94602
1.14598
2.50635
0.144471
2.37962
3.95357
-0.0325921
2.51623
0.808101
0.758074
0.735248
2.02633
1.2338
0.707361
0.699262
0.0084375
2.17614
1.52093
-2.43411
-1.42361
-0.607918
1.24056
1.54878
-0.642774
0.979833
-0.120291
0.313464
-0.482687
2.12945
-0.102232
0.669921
0.0713662
2.99148
4.90907
1.39949
1.94347
2.58043
1.94841
-3.06192
0.391273
0.269857
-0.82186
1.41326
-0.949202
2.56164
0.960173
1.43221
-1.12197
1.55937
-0.575809
-0.892943
1.41457
-0.836999
-2.70321
-0.437347
0.754543
3.17496
-0.444192
0.436262
-0.509902
0.962262
0.224247
1.39058
0.162711
1.47014
0.0772264
-0.487878
3.82518
1.81353
-2.14004
3.23965
1.70459
0.30866
3.01863
1.39238
3.21002
0.361878
-0.699953
-0.415932
-1.88659
1.9532
1.03801
-1.24047
-0.387621
-0.978392
-0.379602
-0.0193715
2.23845
1.68694
-0.268634
-0.447708
0.361618
-1.08237
-0.286159
3.03786
0.863379
1.8856
-0.594018
-1.66147
-0.0451251
-1.71246
-1.58666
0.262389
1.20257
-0.487493
-1.23554
0.435815
-0.370547
0.21218
-0.616342
0.339617
1.78828
-1.31717
0.621229
-1.93691
0.245559
-0.854347
-0.572721
-0.426948
1.11765
0.167929
1.00143
2.77045
3.68071
-0.505809
3.27889
4.03216
3.76592
2.4525
1.8589
5.21092
1.8859
1.62161
1.82725
3.29102
2.79573
0.238273
0.79427
0.995342
-1.61209
0.456025
1.21351
-0.151999
3.00439
0.344555
2.19139
0.0406983
-0.743384
0.608778
-0.0734025
3.32642
-0.218958
2.98231
-0.0231451
4.01694
0.314729
1.95796
-0.00946424
0.127219
-2.05819
2.58366
1.82202
0.499634
0.466021
3.73922
2.74328
2.03155
1.13923
0.469152
0.990174
3.52888
0.586929
1.71234
2.94008
0.17715
1.46535
1.96319
-0.0545843
1.04597
0.367085
-1.06387
3.00518
2.48845
1.19837
1.91925
1.01201
1.591
0.332109
2.97461
-1.22849
1.94689
0.624333
0.684016
1.85378
1.07583
1.82482
3.22339
1.20149
-0.152204
-0.913438
-1.05537
-0.0512154
0.214024
2.4228
0.738399
3.08486
2.64457
-1.30028
3.80553
2.44131
0.119114
0.274943
1.34071
1.69881
-0.160174
3.37767
-1.13071
1.61166
0.393868
0.928508
-0.0805138
0.0150456
1.05263
2.117
3.47382
0.829317
0.572088
-0.66805
1.49544
0.746018
0.0625217
0.591666
0.549299
1.60549
0.273823
2.61088
-0.165243
0.639526
-0.151488
-0.293996
0.282829
-1.04982
-0.730933
-1.85434
1.89657
0.897063
0.959273
0.289912
0.810125
0.57595
0.498346
-0.17355
1.41232
2.0055
-1.33835
0.793031
-1.65893
-0.805198
-0.86884
0.189467
0.832634
-1.38176
0.170511
1.53639
-0.670645
1.44398
1.69482
-2.44033
0.764207
0.284633
-0.747777
-1.92123
2.20605
-0.526258
0.411945
1.24175
3.72304
-2.02287
1.23052
2.47886
1.94519
2.20551
2.64351
5.3071
3.99486
2.5183
3.34985
1.08274
2.50789
2.87114
2.77876
3.37898
4.91102
2.87074
4.12002
4.43111
1.58971
5.49862
1.26185
0.202335
1.91727
1.81777
5.50449
2.58285
3.15087
3.08834
4.14447
1.82122
1.15293
3.13434
1.96086
3.49923
4.18567
4.67018
2.42482
2.44235
1.2648
2.71148
2.7883
-0.928022
2.98802
0.048204
0.446459
1.84934
2.91413
0.786903
5.04746
0.656652
1.03231
1.16856
1.6061
4.76948
3.41633
3.65145
2.8184
1.99964
1.32163
2.98091
1.83296
0.316297
1.72048
0.136162
1.26162
3.13245
1.12484
1.53319
1.65901
-0.404254
1.17689
2.45334
3.66356
2.30985
3.50935
1.70217
0.601773
1.4676
4.3671
0.352915
2.08766
0.191323
0.339757
2.09098
1.65148
1.29196
0.613173
3.49211
2.38161
1.50407
-0.452519
1.59293
-0.205172
0.684536
2.89333
-0.472997
2.50289
0.200208
2.67045
2.41754
1.86389
-2.09763
0.594305
1.12133
2.63986
0.449655
-1.71914
1.07294
-0.315102
1.32896
0.83594
-0.270469
0.271246
0.806692
0.305831
0.466416
1.56963
2.13245
2.67385
0.551323
0.06919
0.419009
0.544657
-1.4228
1.26111
-1.98141
-0.318911
0.725897
2.54708
0.724985
0.759782
1.07401
-1.75212
0.719141
0.295532
1.31771
0.459884
0.00301563
-0.00111742
-2.59048
-0.544332
-0.762035
1.01303
-4.31095
0.969582
-0.38508
-0.284258
-0.815012
-1.26571
-0.940596
-1.32317
-0.382182
-2.73982
0.651973
2.75139
1.6053
1.4297
1.03617
2.81911
0.21603
-0.116625
)
;

boundaryField
{
    hotSide
    {
        type            calculated;
        value           nonuniform List<scalar> 
400
(
-6.24122
-6.05863
-4.56763
-3.42356
-4.57529
-5.2501
-5.0124
-5.30729
-5.56923
-5.03855
-4.55712
-2.19105
-1.54468
-3.20962
-4.60549
-0.256815
-4.29681
-0.378981
1.66179
3.0099
-0.608674
-0.807533
-2.11518
-1.17266
-2.54529
-3.70144
-2.3178
-2.55652
-3.06229
-3.83419
-3.87623
-2.17935
-1.52839
-3.28537
-0.813305
-0.471086