/*--------------------------------*- C++ -*----------------------------------*\
| =========                 |                                                 |
| \\      /  F ield         | OpenFOAM: The Open Source CFD Toolbox           |
|  \\    /   O peration     | Version:  2212                                  |
|   \\  /    A nd           | Website:  www.openfoam.com                      |
|    \\/     M anipulation  |                                                 |
\*---------------------------------------------------------------------------*/
FoamFile
{
    version     2.0;
    format      ascii;
    arch        "LSB;label=32;scalar=64";
    class       volScalarField;
    location    "0";
    object      relativeErrorField;
}
// * * * * * * * * * * * * * * * * * * * * * * * * * * * * * * * * * * * * * //

dimensions      [0 0 0 1 0 0 0];

internalField   nonuniform List<scalar> 
3200
(
0.0205004
0.00426345
0.00446082
0.000439163
0.00452352
0.00620388
0.00729296
0.0143753
0.0139937
0.014086
0.00700012
0.0073727
0.00942692
0.0103246
0.00840131
0.00879308
0.00945905
0.00370108
0.00404739
0.0116539
0.00875112
0.00353224
0.00391035
0.00339991
0.00852288
0.00503085
0.00150339
0.0116998
0.0128066
0.009397
0.00462854
0.00455107
0.0129115
0.0100532
0.0125383
0.00762556
0.0014936
0.00215111
0.0045631
0.00346509
0.00666664
0.0127505
0.00284942
0.00594698
0.00393324
0.00264277
0.00536228
0.00152953
0.00369666
0.0130788
0.00722903
0.00247054
0.00711112
0.000749248
0.0054141
0.00371443
0.00525334
0.00198113
0.00464415
0.00792543
0.00989601
0.00151897
0.00179786
0.000578382
0.00338248
0.00404135
0.00565193
0.00851337
0.000702627
0.00742105
0.00618953
0.00549201
0.00376991
0.00808695
0.00265613
0.000806766
0.00138751
0.00221787
0.00326701
0.00471201
0.0143127
0.00702209
0.00270693
0.0053965
0.00304154
0.00911133
0.0117287
0.000125986
0.00715429
0.00478936
0.000520345
0.0109946
0.00964288
0.00112899
0.00695594
0.00916119
0.000759015
0.00288042
0.00825244
0.000963225
0.00314798
0.00358369
1.21039e-05
0.00953006
0.0106791
0.000201186
0.0116065
0.00620614
0.00843753
0.00315261
0.0022315
0.00166882
8.35146e-05
0.0101913
0.00182478
0.00339697
0.00509881
0.000331864
0.00610546
0.00513381
0.0177369
0.00213475
0.000279372
0.00448302
0.00341884
0.0061097
0.00510749
0.00573946
0.0107112
8.44227e-05
0.00926279
0.0037428
0.00512111
0.000761719
0.0106969
0.00412788
0.0106216
0.0052514
0.00187717
0.0029594
0.0033381
0.00793549
0.00337305
0.00831375
0.000294977
0.00401956
0.000802897
0.00157652
0.000167414
0.00561509
0.00234616
0.00204575
0.00152918
0.00703796
0.00104927
0.0059738
3.30984e-05
0.000200719
0.00762004
0.000877913
0.0199552
0.00483221
0.000616362
0.00319419
0.00431836
0.0109074
0.00719185
0.0125141
0.0083025
0.00914576
0.013917
0.00123287
0.00583612
0.00903026
0.00492023
0.00433436
0.00352288
0.0071242
0.00584722
0.00778033
0.0147961
0.000467917
0.00783681
0.0003315
0.00182397
0.000708879
0.00531495
5.04367e-05
0.0123333
0.00173425
0.00146166
0.0115492
0.00155796
0.00375508
0.0011082
0.00355514
0.00053307
0.00700841
0.000115545
0.0128357
0.0114499
0.00546578
6.0623e-05
0.00101173
0.00265044
0.00392708
0.00279128
0.00200774
0.0103021
0.00454436
0.00356796
0.00321872
0.00882677
0.00448963
0.00846924
0.00787634
0.00296824
0.000752164
0.00188837
0.0158169
0.00224806
0.00126882
0.00480033
0.00289385
0.00362026
0.0018472
0.0044555
0.00552094
0.00823309
0.00685204
0.00154064
0.0027219
0.00724745
0.00531117
0.00797099
0.00147801
0.00779773
0.00393044
0.00552312
0.0128159
0.0160981
0.00423137
0.000412227
0.000824151
0.00211725
0.00129094
0.00473474
0.00166132
0.007556
0.00581318
0.00462326
0.0112465
0.00540424
0.00691418
0.00508594
0.000723741
0.00362401
0.00306018
0.00305907
0.003046
0.0077673
0.00632564
0.00266701
0.000923674
0.00359529
0.00297603
0.00624576
0.000749295
0.00496605
0.00602243
0.00253409
0.000978466
0.000823551
0.00347775
0.000657144
0.000725423
0.00531359
0.00353025
0.000239206
0.00118418
0.000263158
0.00296604
0.00371254
0.0042399
0.000817206
0.00540384
0.000409707
0.00860361
0.00619289
0.00803026
0.00434298
0.00735405
0.0044404
0.000593033
0.00482861
0.00111136
0.0112729
0.00508156
0.00369177
0.00631116
0.00965053
0.00256561
0.00310769
0.00408934
0.00781448
0.00560831
0.00305786
0.00931612
0.00223821
0.00378298
0.00183178
0.00422799
9.06079e-05
0.000283237
0.00401975
0.000819822
0.000933613
0.00401666
0.00221518
0.00118166
0.0155812
0.00861539
0.00412254
0.00644879
0.00256492
0.0114187
0.00427777
0.00913387
0.0158037
0.013326
0.00991615
0.012998
0.00242442
0.00235533
0.00582548
0.00243172
0.00857554
0.0023999
0.0136178
0.00857224
0.0146766
0.00519754
0.00394674
0.00217769
0.00665166
0.000931084
0.00256155
0.00755217
0.0094721
0.00533885
0.000324522
0.00672578
0.00243324
0.00449612
0.000617813
0.00307725
0.00591624
0.00765167
0.00161035
0.0102161
0.00561056
0.00767198
8.47492e-05
0.000637314
0.00280143
0.0040466
0.000460407
0.00614901
0.00260581
0.00567732
0.0131359
0.0128874
0.00746977
0.0103962
0.0046308
0.00207981
0.00205897
0.00711915
0.00610732
0.0102226
0.00580492
0.0128355
0.000274932
0.00296252
0.00188178
0.00311459
0.000731503
0.00413507
0.00406682
0.00947075
0.00359169
0.00317716
0.00741272
0.00632582
0.00202118
0.00297799
0.000430095
0.00195301
0.00586605
0.0011076
0.00835848
0.00730533
0.00224113
0.00351811
0.00113036
0.00905885
0.00777885
0.000120948
0.000360417
0.00148792
0.00654588
0.00457795
0.00764488
0.00834825
0.00307872
0.00266415
0.00660897
0.00332632
0.00193051
0.00409321
0.00550552
0.00161475
0.00595129
0.00466947
0.00258379
0.00064401
0.00227095
0.000950394
0.00577812
0.00130323
0.000302601
0.00288979
0.00431479
0.000620112
0.00379716
0.00370216
0.000478535
0.000427882
8.37893e-05
0.00184369
0.00285886
0.00277147
0.00660738
0.00311803
0.00837346
0.00253871
0.00927142
0.00672518
0.00666609
0.000196249
0.000422156
0.00856263
0.0117644
0.000243847
0.00441359
0.0017063
0.00494788
0.00372061
0.00435058
0.00471639
0.00249929
0.00326617
0.000662184
0.00382776
0.0038117
0.00432847
0.00274934
0.00227789
0.00721304
0.00334987
0.00393714
0.00362736
0.00102781
0.000604524
0.0018815
0.00321134
0.00363531
0.0115111
6.65673e-05
0.0109792
0.0122135
0.00584461
0.00179507
0.00426348
0.0016865
0.000793665
0.00315016
0.00632091
0.00488943
0.00619365
0.00327743
0.00339805
0.000741082
0.00540558
0.0014098
0.00247052
0.00471534
0.00302206
0.00174851
0.00811071
0.0178041
0.00130823
0.00187387
0.000205565
0.00678679
0.00136118
0.00525527
9.08301e-05
0.00587624
0.000641906
0.000174545
0.0050216
0.00138857
0.00943908
0.000266915
0.00268526
0.000431488
0.00186352
0.00098397
0.00689695
0.00651544
0.00460323
0.000466799
0.000424125
0.0133342
0.000629964
0.0030222
0.00729062
0.00232996
0.010432
0.00137832
0.00119909
0.00400884
0.00098696
0.00561137
0.00285305
0.000290608
0.000923881
0.00621715
0.00860705
0.00799325
0.0037567
0.000349649
0.00503084
0.00536618
0.00139386
0.00267
0.00171745
0.0021566
0.00567139
0.00448288
0.0107047
0.00645463
0.00207907
0.00765403
0.00130988
0.0013321
0.00240715
0.00249302
0.00847361
0.00939232
0.00461273
0.00552512
0.00205784
0.00150729
0.00783455
0.00189681
0.00569812
0.00599851
0.00920116
0.00777985
0.00596049
0.00404517
0.00199591
0.00487029
0.00506281
0.00175052
0.00115021
0.0023819
0.00623201
0.00281199
0.00134418
0.00246893
0.00260471
0.000832852
0.00610078
0.00860267
0.0026969
0.00237616
0.000492483
0.00376053
0.00337495
0.0026138
0.00368128
0.00326304
0.0071759
0.000893431
0.00480917
0.00315833
0.0018292
0.00526791
0.00489609
0.00261246
0.00433417
0.00357072
0.00193855
0.00370186
0.00276346
0.00327661
0.00409381
0.00290409
0.00298649
0.00369802
0.00146984
0.00117461
0.00248512
0.000539262
0.00065661
0.00294218
7.96143e-05
0.00676283
0.00462569
0.00545909
0.0071169
0.00367518
0.00250533
0.00321257
0.00234998
0.00111108
0.0014287
0.00690188
0.00484094
0.00378743
0.00408962
0.00815856
0.00607936
0.000603825
0.00572345
0.0106151
0.00227894
0.0155275
0.00979118
0.00603534
0.00100718
0.00395509
0.00158711
0.00287387
0.00472055
0.00586024
0.00159558
0.00894255
0.00139512
0.0013089
0.000395888
0.00494355
0.00223239
0.00207676
0.00448345
0.00484515
0.0163072
0.00939098
0.00843859
0.00597229
0.00463676
0.00625446
0.0043665
0.00212429
0.00198358
0.00518306
0.0084186
0.00447874
0.00650045
0.0033096
0.00575002
0.00102089
0.00496797
0.00189605
0.000889329
0.00917761
0.00938255
0.00696836
0.010842
0.00283193
0.00260132
0.00633048
0.00535045
0.00015657
0.00133066
0.00285768
0.00407789
0.00811063
0.00183977
0.000388968
0.00207382
0.000289861
0.00538199
0.00282194
0.00339664
0.00163518
0.00709806
0.0106633
0.00391316
0.00272935
0.00333558
0.00156912
0.00477253
0.000996348
0.00132492
0.00478327
0.00376219
0.000985122
5.59571e-05
0.0045312
0.00242465
0.00619199
0.00146766
0.00339383
0.00588408
0.00476939
0.00221929
0.00918495
0.000204284
0.00277818
0.0055246
0.00118435
0.00229845
0.000932665
0.00887143
0.00563174
0.00491238
0.00067236
0.00432654
0.0020389
0.00400895
0.000569784
0.00498293
0.00297514
0.0034583
0.00758753
0.0097682
0.014587
0.00458514
0.00551082
0.00113639
0.00383342
0.00341977
0.00428959
0.000866985
0.00584015
0.00663942
0.000839353
0.00242777
0.00569864
0.00261714
0.0045898
0.00191036
0.000953041
0.0127508
0.00264717
0.000884301
0.00636323
0.000775798
0.00178366
0.00120642
0.00559752
0.00108123
0.00857818
0.00111079
0.00620454
0.0100057
0.00272976
0.00389543
0.00222059
0.00686013
0.00725699
0.000795896
0.00595408
3.13061e-06
0.00320038
0.00483105
0.00012193
0.00544404
0.0013188
0.00247265
0.000889727
0.0100932
0.00265042
0.00773715
0.00923022
0.00386659
0.00276737
0.00490525
0.00173104
0.0037511
0.00187228
0.00312985
0.0033287
0.000311246
0.00843596
0.000255612
0.0174368
0.0130922
0.00228002
0.00291517
0.00191713
0.00420383
0.00273487
0.0096713
0.00223029
0.00501916
0.00861909
0.00316683
0.00592538
0.00287225
0.00980927
0.00232849
0.00407061
0.000267517
0.00942208
0.00791109
0.0165284
0.000621975
0.000944621
0.000638336
0.00345259
0.000881221
0.00224282
0.000441143
0.00099159
0.000667697
7.98731e-05
0.00787527
0.000956174
0.00520868
0.000727757
0.00178956
0.00109556
0.00699812
0.000730732
0.00937157
0.0141154
0.011544
0.00406959
0.00455773
0.00201617
0.000284875
0.000790106
0.000331252
1.82056e-05
0.00116235
0.00711182
0.00142398
0.00164334
0.00260719
0.000578585
0.000626738
0.0011376
0.00452236
0.00434123
0.00371699
0.0120141
0.00445366
0.00209219
0.00311595
0.00284242
0.0061422
0.00242728
0.00459691
0.000926033
0.00494965
0.00482364
0.00331548
0.000883485
0.00519689
0.00726849
0.000905804
0.000579683
0.00168907
7.30045e-05
0.00943355
0.015118
0.00306707
0.00065893
0.00450045
0.00135245
0.000454365
0.00299602
0.00402677
0.00128301
0.00172052
0.00528946
0.00474901
0.00143755
0.000412915
0.00686438
0.00123186
0.00301481
0.00305481
0.000550028
0.00311975
0.0101177
0.00521929
0.00225921
0.00236959
0.00245533
0.00246078
0.00595836
0.0062168
0.000857111
0.000622178
0.0014926
0.00624062
0.00410768
0.00727617
0.00332078
0.000951026
0.00157605
0.0030685
0.00669978
0.00491123
0.00200869
0.00190696
0.00612603
0.00617019
0.000777642
0.0015885
0.00407574
0.00438729
0.00580985
0.00570006
0.00307801
0.00359308
0.00629139
0.00542752
0.00578346
0.00432076
0.000806755
0.00457645
0.00365806
0.00648122
0.00342385
0.00451097
0.0016476
0.0073674
0.00241526
0.00608654
0.00135621
0.00045004
8.24398e-08
0.00135693
0.00112052
0.0057729
0.00307008
0.00382545
0.00190937
0.0104494
0.00442611
0.00375499
0.00516232
0.0035826
0.0166813
0.00902084
0.00110642
0.00212559
0.00013757
1.8322e-05
0.000110024
1.51382e-05
0.00336361
0.00799257
0.00108853
0.00561889
0.000374112
0.00153808
0.00175013
0.00390817
0.000801899
0.00487683
0.0106175
0.0181835
0.00917618
0.0040444
0.0033431
0.00830556
0.00658709
0.00526183
0.00204463
0.00466541
0.000887111
0.00153977
0.00431202
0.000385483
0.00264389
0.00315366
0.00584053
0.00450022
0.00102126
0.00420064
0.00424066
0.0084909
0.00121283
0.003633
0.000364973
0.00335214
0.00443975
0.00195967
0.00212244
0.00112852
0.00387457
0.00202285
0.000255347
0.00494331
0.00108753
0.00419672
0.00372313
0.00313672
0.00566372
0.00224222
0.00543094
0.00759606
0.0110781
0.0101471
0.00467068
0.00951351
0.00116517
0.00329788
0.00297027
0.0044286
0.00176864
0.00430245
0.000235399
0.00133341
0.00464547
0.00822572
0.00158577
0.00532598
0.00510485
0.00560535
0.0044331
0.000836092
0.00544346
0.00437373
0.00426128
0.00669724
0.0097977
0.00460962
0.00121491
0.00167686
0.00460546
2.69708e-05
0.00485273
0.000190533
0.00451368
0.00284634
0.000649802
0.000446735
0.0107786
0.00485975
0.00263206
0.00386692
0.00580841
0.00303417
0.00251723
0.00446805
0.00289041
0.00600608
0.000542644
0.00157523
0.00590074
0.00498563
0.00330085
0.00201439
0.00448957
0.00171526
0.00415601
0.00150113
0.00609369
0.00340311
0.00444578
0.00329262
0.00715837
0.00173227
0.00108596
0.000524607
0.00397366
5.70404e-05
0.00447474
0.00295553
0.00350728
0.00113798
0.00464233
0.00122605
0.00531589
0.0028558
0.0018829
0.000478077
0.00864013
0.000889512
0.00182357
0.00550689
0.00932929
0.000685002
0.00304964
0.00251332
0.00170727
6.99266e-05
0.00744937
0.00480556
0.000255028
7.28677e-05
0.00296788
0.00235167
0.00552099
0.000870348
0.00240267
0.00234472
0.000804842
0.000769674
0.00473374
0.00213456
0.0174626
0.00964456
0.00721413
5.47907e-05
0.0017284
0.00330666
0.00383037
0.00537824
0.000461712
0.000433309
0.00690897
0.000955232
0.00262794
0.00330739
0.00143575
0.00333451
0.00195838
4.03267e-05
0.00308818
0.0123516
0.00889312
0.00177088
0.00871191
0.00182091
0.00130769
0.000147947
0.0033074
0.000276946
0.0091906
0.000579923
0.000349254
0.00409759
0.000198324
0.00643615
0.00106899
0.000815547
0.000543141
0.00576691
0.000859077
0.00874346
0.0129736
0.00871602
0.000259147
0.00163143
0.00361106
0.00915672
0.000314475
0.0112326
0.00352783
0.0042301
0.00544948
0.00108526
0.00407746
0.00285004
0.0028656
0.0014017
0.00663708
0.00151434
0.00104723
0.0118962
0.00875994
0.005135
0.00413337
0.00358056
0.00108738
0.0052419
0.00627245
0.00112568
0.00598824
0.000820953
0.000647149
0.000226454
0.00890346
0.00359808
0.00334409
0.00234575
0.00446668
0.000611056
0.00499427
0.00529395
0.0107127
0.00692611
0.000873355
0.000625885
0.000850049
0.00345252
0.00787404
0.00237306
0.00163075
0.00479027
0.0018503
0.0043031
0.00350428
0.0012044
0.000803732
0.00211259
0.00169515
0.00439152
0.00372481
0.00254841
0.00177321
0.00229697
0.00530142
0.00267656
0.00323194
0.000466061
0.00891037
0.00383391
0.00621339
0.00878448
0.00563483
0.012139
0.0018115
0.00327251
0.000776763
0.000577962
0.000717332
0.00256656
0.00313761
0.0123443
0.00155948
0.00184199
5.33757e-05
0.00242582
0.00109388
0.00731191
0.0044501
0.0013804
0.00241085
0.00603659
0.0101663
0.00087103
0.00164625
0.00236061
0.0119591
6.57618e-05
0.00148056
0.000927077
0.00405121
0.00607932
0.00858272
5.61681e-05
0.00754539
0.00516664
0.00214131
0.00034608
0.00760727
0.0110888
0.00363082
0.0058255
0.00548633
0.0015819
0.00924659
0.00422906
0.000915192
0.0028013
0.000116401
0.0084591
0.00622158
0.00718846
0.0181364
0.0110293
0.00770081
0.00845191
0.00843784
0.00146245
0.00254732
0.0042294
0.000316602
0.00755089
0.0137003
0.0099777
0.00532124
0.0100136
0.00709537
0.00482175
0.00986636
0.00323851
0.00896139
0.0138296
0.00845024
0.012583
0.00208713
0.00582289
0.00261439
0.000592381
0.00684395
0.00248031
0.00544275
0.00369348
0.0124815
0.00314959
0.00773658
0.00200222
0.00597695
0.000940575
0.00281585
0.000906784
0.00917744
0.00804214
0.0163325
0.0150434
0.00567127
0.00939466
0.000203343
0.00507815
0.00416744
0.00156856
0.00458854
0.00310105
0.0106232
0.00063403
0.0032274
0.007491
0.00364161
0.00159512
0.00619811
0.00188407
0.00688959
1.7102e-05
0.0072328
0.00880232
0.000979127
0.00440675
0.00120033
0.0050238
0.00351869
0.00294074
0.00897528
0.00259469
0.00320764
0.00421887
0.00268345
0.00668311
0.00558634
0.00202289
0.00301631
0.00174923
0.00533855
0.0107098
0.00782475
0.000989324
0.000575395
0.00410744
0.00257995
0.000846732
0.00285783
0.00020001
0.00654241
0.00547767
0.00262438
0.00282592
0.002859
0.00308345
0.00131952
0.0018812
0.00513356
0.00223028
0.0100625
0.00898747
0.0112924
0.00875752
0.00342265
0.00811629
0.000559896
0.00256798
0.00351121
0.000316273
0.00209323
0.00453685
0.00663045
0.00899193
0.0033356
0.000357029
0.00585619
0.00137291
0.00626807
0.00326321
0.000629669
0.00527606
0.00317634
0.00972364
0.00191082
0.0036229
0.00121719
0.00474852
0.00738503
0.00215453
0.000827989
0.000799927
0.00381109
0.000681406
0.000228905
0.00304202
0.0082765
0.00517755
0.00126607
0.0057338
0.00862849
0.0078163
0.000467465
0.000994296
0.00384863
0.000727605
0.00149588
0.00325813
0.00306924
0.00389041
0.00139602
0.00276557
0.000580148
0.00666951
0.000537317
0.000524292
0.00384037
0.00340024
0.00151468
0.00063702
0.00304617
0.00470274
0.0165128
0.013167
0.0053828
0.00171778
0.00509675
0.0041936
0.00448869
0.00162206
0.00336394
0.00570539
0.00809137
0.00948328
0.0122184
0.000101559
0.00174354
0.0037669
0.00449658
0.00724444
0.0109596
0.0135082
0.0171566
0.00323679
0.00836928
0.00162118
0.0027445
0.00128516
0.00506829
0.000390733
0.00391416
9.46313e-06
0.000875593
0.00492823
0.00208982
0.00727939
0.000970707
0.0027294
0.000954971
0.00187152
0.000945834
0.0146714
0.016201
0.00852823
0.000101973
0.00619194
0.00387786
0.00389028
0.00232861
0.00194362
0.00108999
0.0114944
0.00423111
0.00396484
0.00939454
0.00336391
0.000548119
0.00114314
0.00540871
0.00342648
0.0017497
0.00729538
0.0127032
0.00728283
0.0111282
0.00311309
0.00288397
0.00486995
0.0011831
0.00190059
0.00214451
0.00474298
0.00666234
0.00250054
0.00624669
0.00750053
0.00830152
0.000762272
0.00544826
0.00282289
0.00587634
0.000303221
0.00410303
0.00107753
0.00682221
0.00184529
0.000576329
0.00282903
0.00666075
0.00427832
0.000939449
0.000234157
0.000273079
0.00239012
0.00549979
0.00213106
0.00754955
0.00463922
0.00644715
0.00848802
0.000321961
0.00463922
0.00820238
0.00416805
0.00202938
0.000296543
0.00226361
0.00247225
0.00215383
0.00365183
0.00577362
0.00206092
0.00735752
0.00071494
0.0107216
0.00183065
0.000214651
0.00217731
0.00265474
0.00271347
0.00544235
0.000842418
0.0066933
0.00282804
0.00560782
0.00134769
0.00302382
0.00177611
0.00391238
0.000994951
0.00272971
0.00179083
0.000728437
2.77936e-05
0.00271697
0.00293789
0.00449172
0.00278968
0.00663527
0.000198564
0.00127977
0.00393161
0.00528179
0.00401121
0.00381844
0.00106105
0.00317568
0.0045482
0.00244527
0.00184973
0.00252157
0.000912356
0.00621567
0.00273127
0.000519928
0.0107402
0.00109071
0.00215118
0.00201658
0.000613696
0.00303946
0.00816266
0.0150324
0.0131933
0.00528599
0.0027957
0.00427187
0.001209
0.00228972
0.00394771
0.00575927
0.0137506
0.00834839
0.0156917
0.0102491
0.004734
0.000154736
0.00229171
0.00827397
0.00283675
0.00573048
0.0134719
0.0151476
0.000845702
0.00811172
0.000534402
0.00119525
0.000163866
0.00718558
0.00183128
0.00516192
0.000182497
0.000114042
0.00828727
0.00188157
0.00122468
0.00105098
0.00279322
0.00185731
0.00846256
0.000873557
0.00520786
0.00951191
0.0120715
0.00085954
0.000841594
0.0017741
0.00266946
0.0105623
0.00130282
0.00505026
0.00613144
0.00448925
0.00659737
0.00548146
0.00764705
0.00574889
0.00552434
0.00183731
0.00667613
0.00256152
0.00790998
0.00626206
0.00181604
0.00727128
0.00500047
0.00465573
0.0129432
0.0056258
0.00433809
0.0063519
0.00601142
0.00412658
0.00566775
0.00375367
0.0112178
0.00338441
0.00243679
0.00204597
0.00226205
0.00510337
0.0138278
0.0097055
0.0102471
0.00468435
0.0112264
0.00268752
0.00306185
0.00374931
0.00964468
0.00718635
0.00230687
0.00479151
0.000425681
0.00561842
0.00149766
0.0078351
0.000832811
0.00185401
0.00426024
0.00832834
0.00535888
0.00420405
0.007078
0.00149107
0.000753308
0.006766
0.00354095
0.00507065
0.00237722
0.00137467
0.00878052
0.00365514
0.0129334
0.00939385
0.00106913
0.000487089
0.000907071
0.00307368
0.00545886
0.00355386
0.00254239
0.0034899
0.000255709
0.00081515
0.00322021
0.00109969
0.00750717
0.000503212
0.00192807
0.00346232
0.000597297
0.00319899
0.00159671
0.00979784
0.00148897
0.00316664
0.00135335
0.000339062
0.000350453
0.00752666
0.000549628
0.00320025
0.000183888
0.00510967
0.00806053
0.0033476
0.00443914
7.22234e-05
0.000897376
0.00232956
0.00312178
0.00590922
0.000252792
0.00209821
0.00134152
0.00183717
0.00721369
3.45568e-05
0.00117767
0.00222148
0.00199723
0.00815436
0.00824055
0.000897647
7.46174e-05
0.00700456
0.00427148
0.00606934
0.00578909
0.00401477
0.0108536
0.0123256
0.00791133
0.00830208
0.00265942
0.00728055
0.0068924
0.00533626
0.0127374
0.00928871
0.00781869
0.0100162
0.00724695
0.00303836
0.0113671
0.00103332
0.00506711
0.00120939
0.00523966
0.00367614
0.00717057
0.00257678
0.00805111
0.00871343
0.0139405
0.00269236
8.12939e-05
0.00831845
0.00468164
0.00103487
0.0112708
0.0113418
0.0119003
0.0131485
0.00305398
0.000174477
0.0019735
0.00101483
0.000195828
0.0051052
0.00776458
0.00991106
0.00805802
0.00132661
0.00629719
0.00646534
0.00738301
0.000359133
0.00209072
0.00258403
0.00706943
0.0044865
0.0061636
0.000655797
0.000961807
0.0055926
0.00521779
0.00207171
0.00192861
0.00130623
0.00305495
0.00806595
0.0102619
0.00680806
0.00268222
0.00864706
0.00363605
0.00360323
0.000913134
0.00119822
0.00912242
0.0115164
0.00765362
0.000412902
0.00209352
0.00326863
0.0058893
0.00197803
0.00814133
0.00338559
0.00124313
0.00321154
0.0078846
0.00382481
0.00182709
0.00694787
0.00204371
0.00813286
0.00511902
0.0089462
0.0105686
0.00194071
0.00193334
0.0048279
0.00196903
0.000800757
0.00208515
0.00207608
0.00546175
0.00545542
0.00609809
0.00390942
0.00371106
0.0011924
0.00454427
0.00037499
0.00340443
0.00232634
0.00174345
0.00445203
0.00232521
0.000746156
0.00403309
0.000551325
0.00058539
0.00277937
0.00391898
0.00477583
0.00332349
0.00918926
0.00111222
0.00451931
0.00357353
0.00554719
0.00391235
0.00389516
0.00321171
0.00285007
0.00158898
0.00393816
0.00146669
0.00710248
0.00591489
0.00171723
0.000606192
0.000961265
0.0102689
0.00543847
0.00207909
0.00230032
0.00405318
0.00151416
0.00477965
0.0020572
0.00550946
0.00115624
0.00116102
0.00526787
0.00592499
0.00254771
0.00436812
0.00623067
0.0062984
0.00493522
0.00479353
0.00157276
0.00319936
0.00497931
0.00996043
0.00398344
0.00745742
0.0111542
0.0086713
0.00713524
0.00130707
0.00125379
0.00383316
0.00103794
0.00988298
0.00677256
0.000953591
0.0109361
9.4854e-05
0.00337519
0.000509997
0.00550047
0.00171493
0.00269527
0.000712307
0.00205899
9.6798e-05
0.00226447
0.00480383
0.0017024
0.00494141
0.000220426
0.00546062
0.000292027
0.00322968
0.00155034
0.00992783
0.00768661
0.00938099
0.0021631
0.0130334
0.00365979
0.00464387
0.00531056
0.00632105
0.0051967
0.00926314
0.00748623
0.0168444
0.00773753
0.00229378
0.00473967
0.000725147
0.00570605
0.00265387
0.00182069
0.000378959
0.0114279
0.00145659
0.00753493
0.00514767
0.00156816
0.00152179
0.0029228
0.00355636
7.4621e-05
0.00058085
0.00693537
0.00250841
0.00477733
0.00280497
0.00204724
0.00163289
0.00131462
0.00387975
0.0020681
0.00051582
0.00753912
0.000841434
0.00602005
0.0037748
0.00386092
0.00515704
0.00677773
0.00282913
0.00343785
0.00511922
0.000773516
0.00280106
0.00382224
0.00265134
0.00136826
0.00412722
0.00139187
0.00379842
0.00176953
0.00612055
0.0016773
0.00308477
0.00359039
0.000908687
0.0011876
0.00512057
0.000189359
0.00695377
0.00353647
7.84951e-05
0.000305923
0.00403287
0.00512692
0.00547617
0.000336449
0.00986408
0.00174438
0.000709514
0.00309015
0.00810608
0.00174104
0.00105493
0.0007782
0.000825605
0.00161844
0.00207118
0.00359861
0.00290955
0.00175079
0.000455679
8.72177e-05
0.00221384
0.00276571
0.00100167
0.00230106
0.00706208
0.00280632
0.00604033
0.00424785
0.00431178
0.00302953
0.00212537
0.00515417
0.00331981
0.00127561
0.00240412
0.00714526
0.000742809
0.00593841
0.000368248
0.00408102
0.000850568
0.00459307
0.00890873
0.00503614
0.0083866
0.000862783
0.00148371
0.000707958
0.00229102
0.0108921
0.0112046
0.00354729
0.0031193
0.0028045
0.000517609
0.000670052
0.00364275
0.00887334
0.00933149
0.00563773
0.0100508
0.00361948
0.005761
0.0108715
0.00125774
0.00543775
0.000907366
0.00109174
0.0100037
0.00357707
0.0086392
0.00983461
0.00078533
0.00237822
0.00743903
0.00459517
0.000303957
0.0108192
0.0117713
0.00733115
0.00113239
0.00422397
0.00917743
0.00142809
0.00065865
0.0010201
0.00928281
0.00644787
0.00993089
0.00904065
0.00733448
0.0016252
3.82578e-05
0.00315504
0.00722913
0.00134102
0.001719
0.00215348
0.0057991
0.00576998
0.00819373
0.00479394
0.00115929
0.00506069
0.00154998
0.000370896
0.00158402
0.00486166
0.00635392
0.00340567
0.00164868
0.00271934
0.00210836
0.00128658
0.0067991
0.00340386
0.00368609
0.00208752
0.00147778
0.00131315
0.00338885
8.93869e-05
0.00606895
0.00209171
0.0111355
0.00338025
0.00309334
0.00106275
0.00363446
0.00416086
0.00962756
0.00503556
0.00262216
0.000679587
0.00857567
0.00530943
0.00582602
0.00610848
0.00204102
0.000725169
0.00566566
0.00012345
0.00103193
0.00191012
0.00451982
0.00262014
0.00249236
0.00505951
0.00321423
0.0116487
0.0072686
0.00462918
0.00189746
0.00141949
9.71997e-06
0.00109649
0.00261887
0.0028966
0.0046415
0.00165394
0.00541038
0.00463783
0.00158461
0.00214319
0.0049033
0.000714419
0.00201801
0.00357997
0.00773756
0.00617935
0.00496458
0.00296351
0.00632116
0.00134376
0.0025282
0.0003414
0.00240903
0.00107844
0.0119849
0.000833468
0.00157929
0.00307785
0.000785703
0.000864125
0.00284416
0.00556564
0.0101482
0.00468333
0.0113299
0.00605611
0.00195631
0.00253467
0.00301281
1.5742e-06
0.00144235
0.00489613
0.00374655
0.00231873
0.00507378
0.00134528
0.0066163
0.00387501
0.0100472
3.4279e-05
0.00181097
0.00190287
0.00233007
0.00734626
0.000441911
0.0147493
0.00411349
0.000713887
0.000625459
0.00681562
0.00301395
0.00089029
0.00422299
0.00393668
0.00280144
0.00187133
0.00251182
0.00725503
0.00469021
0.000498142
0.00111981
0.000146051
0.00536476
0.00106112
0.01121
0.0083023
0.000538701
0.00378807
0.000603709
0.000413369
0.000251522
0.00587903
0.0013003
0.00039334
0.000956562
0.00129632
0.00824112
0.000608942
0.00552143
0.000679335
0.00340964
0.00029232
0.00227427
0.000151467
0.0104653
0.00415311
0.00147037
0.00369103
0.0024538
0.00592663
0.00135877
0.00281695
0.00268649
0.00145353
0.00777873
0.00615624
0.00634188
0.00106101
0.00727394
0.00238705
0.000735579
0.00142792
0.00568969
0.00123804
0.00249051
0.0104977
0.00337293
0.00513215
0.00333802
0.00292627
0.00377303
0.00370273
0.00130679
0.000259583
0.00291153
0.00137861
0.00053934
0.00172339
0.00396492
0.00422025
0.0020654
0.00448249
0.00290735
0.00865975
0.0039669
0.000873622
0.00170212
0.00680739
0.00210361
0.000161998
0.00664245
0.000400851
0.00726008
0.00775184
0.000776866
0.000245934
0.00169955
0.0086025
0.00593303
0.00148726
0.00244534
0.00426196
0.00262295
0.00259897
0.00178104
0.00365701
0.00330259
0.00381454
0.000921958
0.0032073
0.00786308
0.000175788
0.000349524
0.0051523
0.00554793
0.000941413
0.00278899
0.00133686
0.00324503
0.00300774
0.00244739
0.000748022
0.00224356
0.000201729
0.00734163
0.00632028
0.0015638
0.00146307
0.00730304
0.00643975
0.00459412
0.00150555
0.0028239
0.00150185
0.00804067
0.0013232
0.00303453
0.0037596
0.0056677
0.0045903
0.00501435
0.00825378
0.00393345
0.000657784
0.00487201
0.00293501
0.00160859
0.00140451
0.00133061
0.00117343
0.00188382
0.00159986
0.00546924
0.00147196
0.00116522
0.00350128
0.00746629
0.00275121
0.00451609
0.00310701
0.00105533
0.00353712
0.00425512
0.000589685
0.00407107
0.00238119
0.00307813
0.00359675
0.00046658
0.00338555
0.00171658
0.00198277
0.00251674
0.00175976
0.000984775
0.00161974
0.00318137
0.000837795
0.000173122
0.00416515
0.00535929
0.00918575
0.00464385
7.58645e-05
0.00255684
0.00431912
0.00584824
0.00402656
0.00122168
0.0005234
0.00571712
0.00235712
0.0023945
0.00998691
0.00334018
0.00335459
0.00621234
0.000439083
0.00144181
0.00251919
0.00104438
0.0021102
0.00294775
0.00158089
0.000973051
0.004596
0.00108278
0.00252908
0.000659306
0.00686984
0.00575769
0.00018685
0.00320591
0.00286219
0.00466641
0.00475563
0.000506753
0.00476559
0.00188209
0.0069894
0.0022687
0.00136372
0.00295815
0.000804935
0.00436713
0.00740396
0.00562743
0.00258766
0.000600499
0.00174198
0.00183878
0.00239669
0.00360039
0.0011901
0.00277911
0.00254676
0.00189717
0.00334452
0.000260464
0.00689804
1.04396e-05
0.00440113
0.000495335
0.00294961
0.00217042
0.00150402
0.00828951
0.00128419
0.00110358
0.00194801
0.00602386
0.00038572
0.0014471
0.000143664
0.00606627
0.000693659
0.000290118
0.00252337
0.00530841
0.00544622
0.000243375
0.00609262
0.00143079
0.000716084
0.0038661
0.00406203
0.00240782
4.1039e-05
0.0033399
0.000456983
0.00875825
0.000497414
0.00314245
5.56795e-05
0.00141348
0.00111628
0.00322988
0.00153686
0.000735938
0.00580528
0.00585379
0.00319597
0.00160063
0.0018566
0.0022258
0.00249061
0.0038471
0.0066256
0.00106072
0.00227536
0.000748818
0.00165352
0.00197489
0.00167925
0.00126832
0.00731977
0.00437613
0.00410079
0.00211335
0.00305135
0.00862775
0.00175629
0.000414937
0.000792027
0.00101864
0.00232866
0.000851611
0.00529492
0.00015748
0.00130399
0.00443972
0.00395946
0.00145737
0.00247089
0.0037226
0.00323605
0.00495628
0.00725113
0.00830103
0.0096782
0.00563603
0.00264386
0.00463959
0.00258264
0.00443737
0.013652
0.00236605
0.00284782
0.0014369
0.00590902
0.00866245
0.00224254
0.00128366
0.00457006
0.00215793
0.00157917
0.00255014
0.000556674
0.00272771
0.00301394
0.00521807
0.0020537
0.00112469
0.00309916
0.0003659
0.00152393
0.000711487
0.00251958
0.000175332
0.00345642
0.00129707
0.00267093
0.000174978
0.00338335
0.000151337
0.000947752
0.00196545
3.08065e-05
0.00131203
0.0010642
0.000774945
0.00020051
0.00212234
0.000798772
0.00031169
0.00614609
0.000606807
0.000281068
0.000311762
0.0063732
0.00712174
0.000231235
0.00431713
0.00553764
0.0011791
0.00183751
0.000381306
0.00123209
0.00634633
0.00450894
0.00805862
0.00160553
0.00235933
0.00228975
0.000427453
0.00716279
0.00533896
0.00285784
0.00660914
0.00419867
0.00266452
0.00494494
0.00154796
0.000482384
0.00608236
0.000297282
0.00495737
0.000182225
0.00661247
0.00245147
0.00195037
0.00293832
0.00735755
0.00241241
0.00113156
0.00406561
0.00323665
0.000693295
0.0028412
0.000711231