/*--------------------------------*- C++ -*----------------------------------*\
| =========                 |                                                 |
| \\      /  F ield         | OpenFOAM: The Open Source CFD Toolbox           |
|  \\    /   O peration     | Version:  2212                                  |
|   \\  /    A nd           | Website:  www.openfoam.com                      |
|    \\/     M anipulation  |                                                 |
\*---------------------------------------------------------------------------*/
FoamFile
{
    version     2.0;
    format      ascii;
    arch        "LSB;label=32;scalar=64";
    class       volScalarField;
    location    "0";
    object      stateMean;
}
// * * * * * * * * * * * * * * * * * * * * * * * * * * * * * * * * * * * * * //

dimensions      [0 0 0 1 0 0 0];

internalField   nonuniform List<scalar> 
3200
(
349.552
345.081
343.464
346.667
346.496
347.43
348.449
347.136
348.126
348.545
351.05
350.464
348.879
347.385
346.662
345.01
343.237
346.28
345.007
346.522
339.869
339.034
340.363
341.501
338.779
341.286
343.713
341.22
341.577
343.149
344.801
344.433
340.801
340.77
338.711
339.085
339.836
338.308
339.383
338.088
333.496
336.284
334.007
336.149
333.981
335.527
335.636
337.796
337.692
334.841
336.825
338.108
335.907
337.192
334.595
334.055
332.407
332.398
333.592
333.913
328.855
326.743
327.656
327.78
327.788
328.479
328.784
328.54
332.11
329.684
330.093
330.054
330.112
327.979
328.936
328.635
328.425
327.793
327.313
327.167
324.539
322.682
320.2
323.506
321.512
320.256
320.056
324.363
322.48
323.459
324.847
321.233
321.276
323.488
320.953
319.539
322.014
321.994
323.076
320.268
315.263
315.735
315.066
312.556
312.704
316.521
313.371
315.473
315.048
318.881
318.588
317.199
317.47
313.82
316.007
315.005
313.954
315.167
316.529
315.887
314.051
309.436
308.964
310.737
310.719
308.07
308.658
308.697
307.323
310.715
307.863
309.487
312.069
310.479
306.648
310.938
306.064
310.673
309.357
309.491
303.887
305.347
302.012
300.615
303.327
304.559
303.678
303.035
303.519
301.896
302.889
304.191
303.977
301.298
303.658
301.427
303.125
302.973
305.251
302.61
349.454
345.356
345.284
347.675
346.605
345.806
348.489
347.781
350.113
350.263
348.576
352.609
350.133
347.843
347.899
346.599
345.347
347.529
345.705
345.283
341.983
337.751
341.752
340.503
341.1
342.787
342.405
345.233
341.722
346.981
345.874
341.993
344.712
342.942
343.41
340.508
340.209
341.472
337.948
341.323
335.145
333.923
333.087
333.863
334.439
335.111
336.507
337.627
335.437
337.716
338.048
337.838
335.32
335.934
333.583
332.687
335.193
333.358
332.735
336.592
326.417
326.708
328.678
327.053
330.114
329.216
329.183
329.526
329.132
329.857
331.621
330.961
328.954
328.9
327.196
328.437
325.444
328.394
328.096
329.859
325.152
321.825
320.968
322.06
321.827
323.628
322.323
323.861
322.341
323.114
326.506
321.142
322.647
321.617
321.567
322.277
320.629
320.117
319.489
320.976
316.744
316.624
315.924
315.871
317.227
315.65
319.032
317.678
316.144
315.957
317.065
317.411
317.701
318.155
316.384
316.32
313.903
316.196
314.709
313.931
308.677
309.709
310.21
308.049
309.414
308.293
310.371
307.806
308.722
308.24
309.385
308.361
309.098
310.06
311.465
310.011
305.874
310.634
309.933
310.544
305.805
303.725
303.98
301.898
300.871
305.043
302.506
300.684
304.248
304.748
303.043
304.852
303.484
303.348
302.123
303.49
303.421
301.821
302.277
303.24
348.135
346.817
346.63
344.44
347.293
345.671
349.523
348.955
347.427
348.736
349.941
348.418
353.026
350.198
347.627
347.339
343.703
344.379
348.538
345.733
342.097
339.804
337.874
339.743
339.517
342.75
343.364
342.63
342.68
344.488
346.225
343.63
344.397
342.698
342.857
340.738
338.47
341.809
338.591
340.593
333.34
334.774
333.235
334.068
334.445
337.827
337.303
336.215
339.786
337.297
334.767
334.535
335.768
333.95
334.907
334.687
333.593
335.579
334.254
334.869
327.681
330.578
327.1
327.095
328.351
328.825
330.906
329.977
330.493
328.959
330.911
330.789
328.891
328.572
329.185
329.95
328.208
326.551
328.304
326.151
322.757
322.885
320.443
320.713
322.912
320.304
321.344
324.432
324.895
325.465
322.854
323.291
321.913
321.159
322.237
321.688
319.718
322.231
319.924
321.392
316.092
315.195
317.005
317.09
315.3
316.403
316.337
317.133
315.874
317.441
317.759
316.792
316.065
317.254
315.405
314.947
315.465
314.995
314.661
314.941
309.512
309.681
311.132
308.417
312.276
309.19
307.371
308.386
312.71
310.787
310.595
307.979
306.821
310.323
311.345
309.155
307.851
307.94
310.169
307.174
303.651
303.949
303.249
304.305
302.09
304.658
302.601
302.82
301.377
302.579
302.401
304.668
303.823
303.252
302.774
302.272
302.043
299.56
302.939
306.22
347.251
346.108
344.795
345.365
347.722
349.462
349.949
349.935
351.238
351.198
352.229
351.765
352.422
349.157
349.247
347.448
345.209
344.371
343.495
345.843
343.387
337.814
338.757
340.56
339.578
342.669
342.464
345.197
343.889
346.065
346.227
344.185
344.749
341.023
343.228
340.98
340.777
340.025
338.59
339.707
333.836
333.932
333.516
334.262
331.003
336.31
336.462
335.822
338.083
335.644
339.65
339.279
336.932
337.815
334.634
334.519
334.501
333.668
334.469
334.53
328.554
327.761
327.429
326.517
327.278
329.439
329.8
330.773
331.104
330.188
330.582
328.268
329.203
331.371
327.374
329.475
327.731
328.103
327.348
328.711
323.213
322.134
319.486
322.586
322.119
320.736
323.264
322.542
322.813
321.966
322.428
322.825
323.078
323.232
321.695
324.238
322.488
320.891
321.419
322.202
315.333
314.345
315.977
314.851
315.896
314.701
314.34
316.577
316.943
317.994
319.032
318.77
318.263
318.235
315.6
313.89
315.955
316.715
315.762
315.024
310.309
310.385
309.94
308.075
308.602
309.392
309.105
309.615
309.614
311.988
309.814
311.56
309.325
310.71
310.357
308.938
309.583
308.929
309.782
308.708
304.96
301.574
304.715
305.315
304.37
302.59
304.413
304.224
303.227
304.026
305.687
302.094
302.361
302.197
305.825
301.411
302.974
301.326
306.191
303.601
348.756
347.799
347.788
346.73
347.11
349.305
350.107
350.508
350.866
352.772
350.176
353.426
351.709
351.255
348.13
347.71
347.801
347.252
346.096
349.023
340.863
341.4
341.67
342.414
339.914
341.741
343.595
345.922
344.104
343.33
344.694
348.145
344.094
342.346
342.89
340.354
340.188
339.944
341.65
340.86
334.251
336.25
334.514
335.447
337.732
334.809
337.475
337.847
337.886
337.764
336.396
339.477
338.429
336.828
336.708
333.801
333.633
334.702
332.099
334.294
329.642
328.011
328.38
329.405
329.668
328.396
330.391
331.788
330.217
333.293
331.717
331.785
329.848
329.919
327.928
328.669
329.424
329.413
328.29
326.888
323.316
320.743
320.501
323.813
323.071
322.582
324.21
321.518
322.92
326.531
324.717
326.154
325.057
325.207
323.141
324.297
321.076
320.283
323.243
323.502
319.158
316.321
317.032
316.11
315.007
315.591
318.45
317.163
315.835
319.933
317.556
316.919
319.247
316.26
318.127
315.615
316.052
319.314
314.043
314.291
306.79
308.699
309.74
309.836
311.478
309.682
312.929
310.821
308.7
313.816
309.859
309.417
309.787
308.139
312.267
309.497
307.62
309.19
307.95
310.247
302.972
301.347
303.481
302.423
302.997
306.42
302.638
305.86
300.761
302.415
302.749
305.052
302.987
304.58
302.79
304.216
304.182
303.175
300.441
303.012
349.879
349.364
346.861
348.403
348.063
348.564
350.263
348.812
353.724
351.542
350.27
351.819
350.131
350.215
346.601
347.92
348.804
346.165
348.098
346.603
343.678
339.119
339.642
341.321
341.083
343.089
343.648
345.432
345.558
346.459
346.256
343.177
345.61
346.214
343.142
341.652
340.729
342.342
339.156
341.258
336.964
336.796
335.2
333.279
336.464
336.835
337.341
338.446
338.852
338.74
336.722
339.341
338.89
336.728
336.934
335.577
334.424
335.351
334.397
333.509
330.36
325.528
328.394
327.472
328.363
328.05
329.984
329.857
331.502
333.677
330.432
332.909
331.673
332.506
327.678
329.001
328.686
327.154
327.008
329.517
325.432
320.02
321.355
323.629
322.366
323.261
324.931
323.114
324.336
325.487
323.209
323.211
324.886
323.826
321.188
323.201
323.15
320.585
321.182
321.585
317.904
316.661
316.131
316.603
317.077
317.512
315.236
319.429
317.965
317.62
318.292
319.676
318.759
319.433
315.681
316.601
315.357
314.45
317.128
316.266
309.466
309.612
311.158
307.616
309.552
310.546
309.024
309.125
308.824
312.475
311.66
311.745
308.534
308.605
311.846
311.132
309.776
307.848
307.893
310.848
301.929
301.658
302.607
305.427
302.55
301.524
303.861
303.652
303.563
303.176
303.928
305.315
304.447
302.288
302.791
306.452
304.535
301.968
301.461
301.881
350.191
348.485
346.152
348.525
349.006
350.274
351.433
352.318
351.806
356.169
353.73
354.976
352.455
351.934
350.893
350.418
347.507
348.225
349.036
350.708
341.683
340.73
339.225
344.282
344.8
345.413
343.864
346.983
345.645
346.789
347.749
345.819
346.285
345.656
345.612
341.002
341.795
338.933
340.797
341.451
332.281
334.544
334.057
333.971
337.515
337.579
338.451
338.031
337.589
339.845
339.072
337.227
338.781
339.151
335.665
337.077
333.196
333.43
335.143
335.211
330.393
330.616
329.517
325.606
329.876
329.136
329.908
329.978
332.432
333.484
332.133
332.287
332.986
328.169
330.749
327.737
330.411
329.823
328.746
327.046
322.593
322.651
320.411
324.522
319.789
325.014
323.647
325.016
323.286
324.954
326.522
324.72
325.937
323.119
323.313
323.097
318.888
323.346
322.092
322.087
316.735
316.146
316.365
317.398
315.493
318.718
317.357
316.992
315.839
319.415
316.781
318.354
318.917
317.729
315.498
316.883
317.912
316.645
316.591
315.943
311.169
308.592
309.692
309.443
308.627
310.084
308.935
311.427
309.552
310.358
309.27
311.023
308.858
309.438
309.518
309.71
306.93
309.631
308.563
310.658
300.176
302.852
302.212
302.458
302.787
303.408
301.2
302.064
303.645
303.569
304.492
302.854
305.199
303.197
302.658
302.594
303.464
303.369
304.495
302.356
351.142
349.331
349.6
348.294
348.861
351.769
352.993
354.403
353.288
353.602
355.891
353.462
351.581
352.809
351.113
348.3
348.957
347.11
347.062
349.378
342.171
340.5
343.818
342.493
342.452
343.942
345.928
345.436
349.248
346.147
346.227
347.485
345.601
347.007
344.259
343.18
341.684
342.815
339.606
342.12
337.495
336.698
334.678
334.906
335.11
334.075
338.026
342.352
337.805
340.673
337.389
338.633
339.929
336.957
338.128
336.795
337.679
335.098
334.139
337.136
330.038
329.351
329.678
330.204
330.098
328.692
328.967
331.93
333.915
332.393
331.905
331.852
334.509
332.234
329.319
330.512
330.496
328.12
329.304
328.904
324.596
323.763
321.762
322.793
323.42
322.56
326.711
323.789
325.376
326.553
325.597
326.244
325.696
323.769
323.938
323.828
322.044
323.457
322.734
321.974
315.686
316.121
317.432
316.995
317.568
316.777
320.096
316.338
319.734
315.075
319.658
321.617
318.13
318.307
316.679
316.728
315.922
316.568
316.387
319.017
308.608
309.821
309.451
310.454
310.279
307.901
308.994
310.117
309.92
312.61
313.893
310.398
310.035
311.108
313.878
309.92
310.162
309.755
307.998
310.969
305.649
303.118
300.886
301.686
303.982
303.304
305.787
300.17
302.475
301.829
301.932
304.057
300.729
302.195
303.687
304.182
303.218
300.609
304.987
300.87
352.171
350.552
350.444
351.818
352.931
351.552
352.893
351.295
353.242
356.32
358.495
356.88
354.664
355.521
353.53
351.666
352.311
346.64
349.835
350.682
342.704
344.819
342.142
344.378
342.446
344.467
347.453
344.918
348.152
347.803
350.848
347.358
348.451
345.782
346.321
343.021
343.348
341.739
343.659
342.565
339.195
339.355
336.98
339.044
336.768
339.191
339.586
338.225
337.614
340.439
342.992
339.385
339.849
340.71
336.248
337.237
337.97
335.711
336.629
333.75
330.009
330.995
329.044
327.93
330.442
332.343
330.088
330.751
335.046
333.105
331.177
333.467
332.617
333.468
332.529
330.714
328.388
329.297
329.859
331.148
324.034
322.196
322.17
324.194
324.218
324.152
325.25
324.626
327.08
323.311
325.945
325.872
325.619
323.323
324.305
322.776
324.525
323.074
325.117
324.408
318.947
318.405
317.062
313.779
316.893
317.883
318.501
317.749
318.502
319.378
320.044
320.695
318.709
317.274
315.212
316.281
318.33
317.012
315.442
317.05
310.227
312.405
310.193
308.699
309.666
308.782
312.739
311.272
310.459
311.024
311.959
310.928
310.532
309.502
307.687
311.648
310.213
307.826
312.067
311.662
303.242
303.452
304.386
303.072
303.821
302.449
302.57
304.736
303.168
302.772
303.788
301.567
303.392
303.661
304.603
304.399
303.752
303.412
302.228
304.525
352.526
352.156
350.426
350.177
352.391
350.108
354.041
353.754
354.888
355.987
356.831
357.052
357.496
352.495
352.195
351.925
351.149
351.075
351.388
351.484
346.455
342.375
344.971
343.553
344.831
345.176
347.244
346.253
347.922
346.801
347.102
348.273
346.841
348.008
344.398
344.826
342.669
342.748
341.593
345.608
339.82
337.806
335.62
338.49
338.466
339.189
339.305
338.387
339.793
343.525
341.058
340.769
342.231
339.656
337.69
337.544
338.227
336.804
334.363
336.842
332.345
331.009
332.854
328.779
329.468
329.395
331.14
331.334
331.56
334.011
334.649
333.104
334.039
334.019
333.755
330.673
331.603
330.12
330.547
328.076
323.256
321.926
324.922
323.794
323.863
323.215
326.702
326.266
325.421
325.317
325.33
325.893
326.663
325.232
326.579
325.178
325.282
325.459
322.377
323.429
318.273
317.24
316.883
316.489
317.641
316.466
316.858
318.942
316.117
318.697
320.382
318.18
321.189
318.123
317.318
317.614
315.743
317.099
317.642
315.418
311.495
310.442
311.495
310.381
309.23
310.914
311.754
310.374
311.634
311.396
310.613
310.777
309.839
309.627
311.757
311.033
307.906
309.82
309.963
310.641
304.761
301.991
304.429
303.662
302.445
302.094
304.275
303.019
304.382
303.357
305.521
304.445
303.423
306.793
303.805
302.756
303.952
303.085
304.129
305.635
353.052
353.151
351.303
351.388
352.855
352.676
353.858
355.102
356.213
359.29
357.376
359.731
357.331
354.721
352.195
352.159
353.307
350.447
350.549
352.509
346.669
342.402
345.673
343.901
344.124
345.255
348.491
347.208
348.769
347.251
347.148
349.854
347.225
346.429
344.949
343.574
343.079
345.794
342.412
343.274
338.337
339.713
336.607
337.299
338.307
339.267
342.53
339.873
341.489
342.035
341.477
342.015
341.292
341.542
340.309
339.574
337.634
338.563
336.521
337.8
330.846
329.796
332.132
331.955
332.41
335.697
333.754
333.721
334.671
334.705
334.078
334.444
333.527
335.61
332.53
331.676
330.979
328.988
330.878
333.333
325.539
326.033
324.655
327.217
324.896
325.436
326.034
328.257
327.677
326.203
327.011
325.201
326.948
325.302
326.985
323.755
324.184
324.518
325.414
324.138
317.352
318.484
316.07
317.098
315.028
316.348
319.35
317.201
318.549
320.987
319.356
322.226
320.944
318.079
317.317
316.886
315.885
318.27
317.37
315.22
308.547
309.682
309.686
309.13
309.977
312.828
310.501
311.387
311.957
311.116
311.925
310.385
313.833
311.12
309.514
309.898
310.024
309.83
312.092
309.458
302.258
303.216
304.882
300.95
304.475
304.866
303.595
303.345
304.355
304.612
305.458
303.571
304.254
303.166
302.961
301.27
303.406
303.689
302.598
302.622
351.821
352.535
350.806
351.395
354.703
354.562
355.927
356.424
356.218
358.866
359.389
357.601
357.315
354.721
355.624
354.664
353.244
354.955
352.902
351.704
345.922
345.552
344.834
348.466
344.943
347.761
347.056
348.97
348.794
350.198
348.601
350.314
350.176
351.469
346.94
345.328
341.683
345.398
343.421
346.352
339.801
340.47
341.508
338.749
338.413
339.622
339.14
339.853
341.965
343.031
343.762
342.97
339.469
341.623
341.144
340.852
337.839
337.781
337.335
338.365
330.952
331.89
330.57
331.197
333.252
330.157
333.012
333.322
333.367
334.08
335.749
336.349
334.945
333.215
334.759
332.604
332.071
330.655
329.462
332.48
326.663
325.712
323.489
323.354
325.496
322.905
325.799
328.081
326.731
325.325
324.684
328.196
326.677
325.75
327.075
325.099
326.667
325.28
326.13
326.357
317.018
316
318.417
316.553
317.213
318.403
318.642
319.917
320.056
320.334
317.147
319.5
318.558
319.427
317.859
318.548
317.916
316.335
318.022
317.14
310.087
311.231
309.974
310.138
309.631
311.875
312.287
311.955
313.864
311.395
309.643
312.117
309.197
312.019
311.868
311.491
309.436
309.652
311.202
310.31
305.458
301.552
303.922
303.644
303.226
306.69
301.971
304.292
304.389
304.935
304.164
305.142
304.286
301.949
303.222
303.166
305.059
305.199
302.573
301.979
352.439
353.097
353.397
354.157
353.815
355.135
356.424
358.731
356.987
358.42
359.735
358.654
357.727
354.194
354.446
354.613
352.101
355.136
353.263
350.591
347.359
344.167
345.965
345.323
348.09
346.234
346.462
348.109
348.906
348.392
349.147
349.862
348.453
349.115
346.753
348.076
345.6
345.915
344.668
347.012
339.517
340.534
337.2
342.934
340.344
341.224
341.935
342.672
342.568
344.099
343.493
346.538
343.155
340.909
341.257
339.349
340.454
338.828
336.755
336.799
334.013
331.076
333.547
333.243
332.532
332.963
333.824
334.356
333.423
333.709
335.828
334.234
334.763
333.785
331.776
331.469
331.1
332.337
331.278
330.409
325.978
324.083
326.119
325.768
326.166
326.936
323.358
326.736
327.112
324.413
326.334
326.904
327.059
326.428
325.704
326.253
324.995
322.936
323.238
325.519
316.297
317.999
318.414
317.832
317.43
319.684
318.214
320.666
317.451
318.618
318.546
319.863
320.085
320.017
317.948
320.942
316.989
317.05
318.001
319.396
310.651
309.899
310.621
310.796
311.201
311.491
312.098
310.18
310.616
311.058
311.173
310.472
311.945
310.668
311.562
312.892
309.669
312.254
311.544
311.448
302.471
304.073
305.043
304.541
303.974
302.906
305.85
303.49
301.938
303.867
302.515
303.484
305.111
300.975
305.165
301.041
303.271
303.929
303.643
304.085
355.504
356.203
354.22
352.604
353.434
355.285
355.455
357.469
359.674
360.014
358.697
360.094
357.461
357.742
358.961
354.874
355.63
353.288
352.641
355.192
346.059
348.301
349.335
346.844
346.372
350.368
349.894
348.603
352.779
353.264
351.714
348.608
350.182
351.49
348.278
347.427
346.218
349.144
347.545
348.25
341.017
340.852
338.337
339.416
338.885
337.991
340.429
341.824
342.22
343.595
343.585
344.283
342.873
341.281
342.175
339.431
339.303
339.425
340.015
340.109
332.212
331.959
330.933
332.978
333.138
330.849
334.605
334.987
333.263
334.559
333.626
335.092
333.787
335.494
332.417
336.415
333.4
332.861
331.061
332.287
325.544
327.572
326.41
325.972
325.235
328.564
327.777
328.171
328.422
327.176
326.273
328.277
326.23
326.382
326.392
326.927
325.971
323.966
326.09
325.237
320.993
319.784
319.18
317.352
318.648
318.423
318.269
319.613
317.966
320.429
318.421
317.165
317.3
319.123
319.102
316.636
318.182
318.35
318.613
319.752
312.311
312.04
311.56
312.752
310.513
310.28
311.291
312.031
311.685
315.116
311.124
310.857
312.239
311.429
311.335
311.815
309.057
313.791
309.045
313.91
305.322
302.926
304.336
302.701
303.665
303.272
302.263
302.644
303.101
302.275
303.407
301.795
304.959
300.698
303.7
303.115
304.194
302.86
305.75
303.618
358.435
355.217
354.669
355.312
353.32
357.427
356.567
355.806
359.025
358.776
358.444
358.515
359.907
358.559
356.531
355.347
355.038
356.317
353.387
357.185
349.041
346.808
348.5
347.559
348.481
348.952
351.38
350.153
350.098
349.761
349.642
352.844
349.911
351.255
348.627
349.525
347.871
346.395
346.568
349.79
340.502
339.97
341.201
339.605
338.9
341.831
340.795
342.992
342.793
339.745
344.517
344.466
342.436
344.244
342.182
340.67
339.954
341.88
339.051
339.939
335.494
333.433
334.407
334.216
334.473
335.123
335.419
334.877
334.709
333.74
334.254
334.442
335.016
335.507
332.454
332.808
334.597
333.667
335.19
333.326
325.198
324.594
327.662
326.446
326.121
328.52
326.469
329.174
329.476
326.761
326.935
327.498
329.612
328.538
325.867
325.271
324.373
326.301
324.302
324.335
318.972
319.025
319.403
318.708
319.654
321.343
319.069
319.269
320.903
321.082
319.009
320.148
319.584
317.978
319.795
319.412
318.652
318.903
317.911
320.143
312.665
311.285
310.472
313.334
313.198
312.746
310.953
312.389
312.037
314.105
311.188
312.514
310.338
313.187
312.745
309.634
308.495
309.704
311.003
312.215
302.696
303.132
304.089
304.112
304.109
303.221
303.343
302.196
304.325
303.535
304.953
301.609
304.694
302.457
304.737
304.074
302.634
302.371
303.441
302.351
355.75
356.493
357.278
356.779
358.416
358.37
357.524
357.715
359.52
358.673
358.445
357.746
358.318
358.172
356.266
355.293
353.337
354.345
355.426
355.812
349.119
350.072
349.956
348.66
349.418
348.076
351.318
351.665
347.553
352.352
352.357
353.24
350.979
349.987
350.959
349.236
348.349
349.58
347.487
347.956
341.884
341.035
341.965
341.777
339.639
344.362
342.806
344.124
344.204
344.926
341.691
343.048
344.659
342.097
344.784
341.212
341.086
342.111
340.94
341.806
335.476
335.164
334.507
334.213
333.787
334.084
335.789
336.424
335.778
336.395
336.317
334.743
334.096
335.073
332.39
334.366
335.482
333.809
334.271
332.287
326.181
328.607
326.599
326.107
326.108
325.031
327.099
327.878
327.577
325.608
327.822
327.625
326.578
328.962
325.22
326.665
324.478
325.713
326.138
326.95
319.658
317.749
318.7
319.982
318.97
316.502
319.3
320.591
319.659
319.272
319.367
320.71
319.096
319.694
321.153
317.248
317.898
318.203
317.925
319.074
311.808
312.321
313.303
311.034
312.193
311.827
311.175
311.151
311.297
311.453
314.132
313.186
313.045
312.349
310.643
308.797
310.817
311.112
311.37
311.35
304.406
303.988
305.377
303.858
303.454
305.236
302.716
304.388
303.212
305.104
304.956
305.47
306.149
301.396
300.946
302.137
303.007
302.36
304.513
302.351
361.567
357.997
356.681
357.745
356.679
356.182
360.53
359.605
358.661
359.654
361.001
359.389
359.867
358.742
358.211
356.927
357.524
357.298
356.045
356.828
348.633
349.798
349.14
350.568
349.762
350.948
350.836
352.137
351.092
352.338
352.057
351.592
352.086
352.238
351.03
351.247
350.577
349.279
349.27
349.056
343.722
341.734
342.436
342.643
340.959
341.063
343.905
342.592
342.348
343.939
344.978
344.385
343.653
341.643
341.96
340.381
342.2
343.148
341.158
341.768
336.465
336.113
335.609
332.775
333.905
336.505
334.208
335.556
336.383
334.25
336.395
334.554
336.137
338.09
334.788
335.967
334.005
332.191
333.521
333.694
327.841
327.768
326.737
328.155
327.71
328.069
327.459
329.931
328.539
328.457
328.347
328.365
326.746
328.779
329.144
327.385
323.542
326.155
326.937
327.487
318.547
320.343
317.756
316.893
321.151
319.039
319.226
322.195
319.597
317.456
319.843
321.859
318.35
319.622
320.197
319.14
319.9
316.224
318.033
320.539
310.894
311.91
312.227
309.964
310.556
309.803
309.261
312.05
314.066
309.26
313.203
311.666
311.941
314.093
312.169
312.355
310.91
311.139
311.614
311.723
303.823
304.508
300.357
302.691
303.914
304.112
303.87
303.986
305.042
304.048
303.255
304.143
305.254
303.629
306.185
302.058
305.233
304.233
302.494
305.549
359.493
358.012
357.613
358.316
358.205
357.443
359.95
362.276
360.21
363.492
361.845
358.251
360.3
360.019
359.353
359.004
357.065
358.521
359.83
356.648
352.763
353.115
348.745
349.836
350.932
349.314
349.99
350.772
350.3
352.45
353.121
349.569
353.559
354.019
348.993
353.825
350.43
349.08
350.194
348.681
344.692
345.2
342.474
341.489
344.211
342.304
341.014
345.228
342.837
344.627
344.677
344.618
343.169
343.734
343.977
343.656
343.987
341.444
341.733
345.395
336.583
336.003
334.453
334.452
336.938
335.585
336.918
336.671
337.596
335.051
337.282
336.443
336.913
333.807
331.656
334.896
334.058
333.114
333.447
338.221
326.964
327.267
328.59
326.594
329.185
325.884
327.668
327.34
329.995
327.366
329.501
329.766
327.357
329.465
331.149
328.673
327.252
324.593
327.981
326.919
320.06
318.716
319.62
318.623
320.015
318.858
320.381
321.049
316.809
318.857
322.811
317.394
318.856
320.149
317.309
318.786
316.804
319.482
320.378
319.966
313.631
309.867
310.881
313.262
312.508
313.188
312.668
312.37
310.156
310.729
312.685
312.842
311.989
313.37
312.496
309.082
311.159
310.033
312.414
313.405
303.982
305.674
305.582
303.768
302.86
304.58
305.355
303.704
304.526
303.95
304.778
303.815
302.352
305.436
303.472
306
303.784
304.849
304.535
304.364
359.241
360.577
360.208
358.908
358.444
363.039
359.605
359.131
359.592
361.006
361.599
358.147
361.277
361.262
360.706
358.834
358.882
360.971
359.951
359.364
353.901
352.16
351.803
353.576
350.809
353.823
352.282
354.675
355.628
354.363
355.045
351.559
354.935
351.491
354.191
349.796
353.109
351.059
352.625
352.162
346.288
341.918
343.018
344.685
345.049
342.076
343.331
344.249
345.285
346.029
345.508
342.895
345.694
344.362
342.875
345.338
343.72
342.877
344.557
343.184
335.814
337.463
333.67
334.47
336.031
335.556
336.676
336.266
337.642
335.06
339.263
336.027
337.233
337.004
335.621
336.153
335.133
333.452
335.198
336.333
329.052
329.362
328.573
328.528
326.53
328.407
326.225
326.797
330.834
325.775
327.14
329.415
329.167
327.969
327.446
329.113
325.364
329.653
326.695
327.745
319.175
320.304
320.361
319.481
318.568
317.348
320.112
320.463
321.768
319.639
320.388
321.037
320.443
320.392
319.217
320.411
317.923
320.541
319.583
320.255
312.368
311.862
313.287
313.063
314.276
310.608
311.679
311.674
312.382
311.883
312.117
312.174
312.807
311.164
310.499
313.76
311.539
313.896
312.95
312.943
303.858
303.238
305.484
303.962
302.628
304.862
302.771
302.539
306.688
303.49
303.969
304.996
306.155
302.009
304.717
303.752
302.891
300.379
306.094
302.816
359.305
360.202
360.377
360.379
358.134
359.827
361.63
361.058
363.505
362.172
361.809
361.809
361.029
359.237
360.951
359.321
358.592
360.993
356.648
360.522
353.249
351.843
352.32
349.017
352.303
352.067
352.415
351.585
354.065
354.814
352.833
353.925
352.23
351.317
350.548
352.461
352.079
352.873
351.049
350.663
346.093
342.433
345.693
345.621
344.528
343.745
346.114
342.047
346.571
346.265
346.128
345.622
342.325
343.485
343.008
343.559
344.067
344.419
342.44
343.332
336.598
335.401
337.247
336.388
334.773
337.012
336.803
336.835
339.008
337.484
336.208
334.94
336.184
334.827
336.435
337.303
336.182
333.016
336.768
334.826
328.5
328.511
326.963
327.612
328.17
329.03
326.306
327.54
328.503
330.505
328.459
330.212
329.237
326.905
330.116
326.959
329.063
326.384
326.433
326.827
322.587
320.008
319.627
318.257
320.59
322.888
320.208
321.684
320.102
320.626
321.732
321.16
320.562
320.975
320.703
319.47
318.765
318.074
320.051
320.42
311.883
311.824
313.88
311.285
314.613
313.029
312.051
310.283
312.142
312.126
311.812
314.619
312.111
312.481
311.392
312.172
312.543
312.458
314.959
312.846
304.885
303.132
308.486
303.235
304.619
304.544
305.097
305.566
305.253
305.642
304.701
307.052
303.648
301.531
302.655
302.804
303.169
301.356
303.929
304.24
)
;

boundaryField
{
    hotSide
    {
        type            fixedGradient;
        gradient        nonuniform List<scalar> 
400
(
321.511
322.87
325.591
329.677
335.133
341.965
350.181
359.788
370.794
383.208
397.037
412.289
428.971
447.088
466.647
487.651
510.105
534.011
559.372
586.191
323.738
325.08
327.767
331.802
337.194
343.949
352.078
361.591
372.498
384.81
398.537
413.687
430.268
448.289
467.755
488.672
511.043
534.872
560.161
586.913
326.149
327.47
330.116
334.091
339.406
346.071
354.099
363.503
374.296
386.491
400.101
415.136
431.606
449.52
468.885
489.706
511.988
535.735
560.948
587.63
328.704
330
332.597
336.503
341.73
348.292
356.205
365.485
376.15
388.215
401.695
416.604
432.954
450.753
470.009
490.73
512.919
536.579
561.714
588.325
331.33
332.599
335.142
338.97
344.099
350.546
358.332
367.477
378.003
389.928
403.271
418.047
434.27
451.949
471.095
491.712
513.807
537.382
562.439
588.978
333.918
335.158
337.643
341.389
346.414
352.74
360.392
369.397
379.779
391.562
404.765
419.407
435.503
453.065
472.101
492.618
514.622
538.114
563.096
589.569
336.321
337.531
339.959
343.622
348.544
354.751
362.274
371.142
381.385
393.031
406.101
420.618
436.595
454.047
472.983
493.409
515.33
538.747
563.663
590.076
338.36
339.543
341.92
345.509
350.339
356.44
363.847
372.595
382.718
394.244
407.2
421.608
437.485
454.844
473.695
494.045
515.897
539.253
564.114
590.478
339.852
341.015
343.352
346.885
351.645
357.665
364.985
373.643
383.675
395.113
407.984
422.312
438.116
455.407
474.197
494.491
516.294
539.606
564.428
590.758
340.643
341.795
344.11
347.613
352.334
358.311
365.584
374.193
384.176
395.567
408.393
422.679
438.443
455.699
474.456
494.722
516.498
539.788
564.589
590.901
340.643
341.795
344.11
347.613
352.334
358.311
365.584
374.193
384.176
395.567
408.393
422.679
438.443
455.699
474.456
494.722
516.498
539.788
564.589
590.901
339.852
341.015
343.352
346.885
351.645
357.665
364.985
373.643
383.675
395.113
407.984
422.312
438.116
455.407
474.197
494.491
516.294
539.606
564.428
590.758
338.36
339.543
341.92
345.509
350.339
356.44
363.847
372.595
382.718
394.244
407.2
421.608
437.485
454.844
473.695
494.045
515.897
539.253
564.114
590.478
336.321
337.531
339.959
343.622
348.544
354.751
362.274
371.142
381.385
393.031
406.101
420.618
436.595
454.047
472.983
493.409
515.33
538.747
563.663
590.076
333.918
335.158
337.643
341.389
346.414
352.74
360.392
369.397
379.779
391.562
404.765
419.407
435.503
453.065
472.101
492.618
514.622
538.114
563.096
589.569
331.33
332.599
335.142
338.97
344.099
350.546
358.332
367.477
378.003
389.928
403.271
418.047
434.27
451.949
471.095
491.712
513.807
537.382
562.439
588.978
328.704
330
332.597
336.503
341.73
348.292
356.205
365.485
376.15
388.215
401.695
416.604
432.954
450.753
470.009
490.73
512.919
536.579
561.714
588.325
326.149
327.47
330.116
334.091
339.406
346.071
354.099
363.503
374.296
386.491
400.101
415.136
431.606
449.52
468.885
489.706
511.988
535.735
560.948
587.63
323.738
325.08
327.767
331.802
337.194
343.949
352.078
361.591
372.498
384.81
398.537
413.687
430.268
448.289
467.755
488.672
511.043
534.872
560.161
586.913
321.511
322.87
325.591
329.677
335.133
341.965
350.181
359.788
370.794
383.208
397.037
412.289
428.971
447.088
466.647
487.651
510.105
534.011
559.372
586.191
)
;
    }
    coldSide
    {
        type            mixed;
        refValue        uniform 300;
        refGradient     uniform 0;
        valueFraction   uniform 0.991591;
        source          uniform 0;
        value           nonuniform List<scalar> 
400
(
300.033
300.049
300.031
300.042
300.025
300.016
300.001
300.048
300.027
300.04
300.019
300.046
300.021
300.045
300.023
300.037
300.032
300.033
300.032
300.041
300.045
300.031
300.033
300.013
300.011
300.014
300.024
300.026
300.029
300.017
300.027
300.013
300.034
300.025
300.026
300.034
300.038