/*--------------------------------*- C++ -*----------------------------------*\
| =========                 |                                                 |
| \\      /  F ield         | OpenFOAM: The Open Source CFD Toolbox           |
|  \\    /   O peration     | Version:  2212                                  |
|   \\  /    A nd           | Website:  www.openfoam.com                      |
|    \\/     M anipulation  |                                                 |
\*---------------------------------------------------------------------------*/
FoamFile
{
    version     2.0;
    format      ascii;
    arch        "LSB;label=32;scalar=64";
    class       volScalarField;
    location    "./ITHACAoutput/true/7.2";
    object      error;
}
// * * * * * * * * * * * * * * * * * * * * * * * * * * * * * * * * * * * * * //

dimensions      [0 0 0 1 0 0 0];

internalField   nonuniform List<scalar> 
3200
(
-3.66653
-1.49278
0.540552
1.84287
2.6566
3.16683
3.37101
3.48123
3.60192
3.60466
3.74106
3.84801
4.07066
4.37381
4.55082
4.70955
4.42319
3.57007
2.0277
0.00155015
-3.31127
-1.39935
0.341032
1.49445
2.16845
2.54375
2.90688
2.8477
2.90334
2.9631
3.01224
3.1299
3.36691
3.57812
3.73604
3.89825
3.59665
2.8255
1.4875
-0.127624
-2.84432
-1.24895
0.177653
1.17255
1.74137
2.06652
2.29897
2.27272
2.36519
2.29836
2.47158
2.52194
2.72371
2.95068
3.12973
3.12431
2.90585
2.2436
1.08672
-0.220125
-2.28442
-1.15475
0.0306032
0.814737
1.4108
1.673
1.78835
1.85913
1.8254
1.83699
1.94117
1.92642
2.10825
2.25684
2.50382
2.46734
2.27083
1.70163
0.828738
-0.238118
-1.82137
-0.913277
0.0351401
0.63886
1.01746
1.32388
1.35691
1.35008
1.34575
1.3419
1.43517
1.54514
1.59231
1.71106
1.8831
1.92237
1.70818
1.30909
0.660116
-0.168214
-1.25979
-0.645608
0.045909
0.436375
0.804134
0.957563
0.941678
0.988477
0.931858
0.96126
0.985669
1.07113
1.1274
1.22562
1.28387
1.24977
1.20647
0.914458
0.421833
-0.184429
-0.781521
-0.377379
-0.0515245
0.275255
0.439312
0.426656
0.638879
0.598076
0.52196
0.572179
0.569993
0.587873
0.694674
0.744101
0.807242
0.753185
0.656118
0.512697
0.263513
-0.109511
-0.244902
-0.152496
-0.0770213
0.121795
0.10206
0.13636
0.223122
0.20529
0.165457
0.164617
0.205423
0.221478
0.242764
0.218021
0.286088
0.245488
0.19307
0.176349
0.0818415
-0.043254
-3.76757
-1.55021
0.385359
1.73385
2.46092
2.81825
3.0156
3.10982
3.00755
3.1212
3.10667
3.24374
3.52928
3.90586
4.19871
4.35084
4.11244
3.28514
1.77361
-0.0502485
-3.27799
-1.45391
0.144646
1.27436
1.94763
2.34355
2.48628
2.50234
2.47701
2.49605
2.40582
2.73242
2.91394
3.28468
3.4519
3.54288
3.35595
2.65991
1.34904
-0.162703
-2.74902
-1.34585
0.00560026
1.06854
1.64605
1.82951
2.0543
1.97198
1.99767
1.99161
2.04443
2.20203
2.25478
2.63469
2.80045
2.90554
2.77646
2.07003
1.06226
-0.282025
-2.33103
-1.17546
-0.0260331
0.753674
1.24618
1.50064
1.66672
1.62233
1.5819
1.60207
1.59134
1.77927
1.85939
2.05059
2.1936
2.25149
2.08501
1.63722
0.683573
-0.29975
-1.83308
-0.859204
-0.0611637
0.500482
0.811102
1.17905
1.12969
1.23319
1.26148
1.14733
1.25225
1.24088
1.3476
1.58595
1.68645
1.68516
1.61903
1.26849
0.492459
-0.26811
-1.33138
-0.658438
-0.0620421
0.362788
0.709005
0.793864
0.826666
0.889445
0.848699
0.780577
0.813289
0.760327
0.974601
1.07164
1.1441
1.15655
1.1475
0.868708
0.36202
-0.156023
-0.746928
-0.336818
-0.029051
0.225935
0.401621
0.480301
0.458063
0.563377
0.475236
0.540035
0.460523
0.511474
0.58228
0.668511
0.765865
0.73953
0.652517
0.455708
0.207044
-0.155788
-0.208078
-0.126539
-0.0322064
0.0511155
0.150767
0.186708
0.206188
0.171487
0.211383
0.162283
0.234731
0.139768
0.230173
0.261468
0.267389
0.203895
0.216814
0.167329
0.0819178
-0.0746513
-3.77964
-1.72286
0.193088
1.39167
2.16151
2.4653
2.50638
2.38635
2.31231
2.24698
2.21586
2.46497
2.72346
3.13144
3.58482
3.7914
3.63792
2.84002
1.48114
-0.360523
-3.42123
-1.6524
-0.0394551
1.03968
1.72551
1.89442
1.92158
1.9525
1.89362
1.81997
1.84892
2.00689
2.20279
2.57513
2.87897
3.09806
2.95204
2.3709
1.12023
-0.470613
-2.96706
-1.44688
-0.13684
0.780353
1.3614
1.53443
1.59682
1.55935
1.49662
1.45466
1.39678
1.57517
1.7984
2.15096
2.32898
2.49823
2.39924
1.83821
0.842338
-0.438958
-2.4411
-1.31325
-0.207154
0.583826
0.973172
1.30721
1.27595
1.25729
1.17323
1.05658
1.10198
1.21608
1.36916
1.6312
1.90164
2.02757
1.85179
1.40737
0.524757
-0.444474
-1.89018
-1.03675
-0.113981
0.419851
0.808838
0.849036
0.916355
0.824451
0.760041
0.720572
0.849546
0.991927
0.98254
1.19553
1.39263
1.53766
1.4628
1.03604
0.34841
-0.372956
-1.31619
-0.664208
-0.148301
0.259104
0.477851
0.591758
0.63084
0.681084
0.567842
0.554624
0.523028
0.656828
0.76209
0.872705
0.996286
1.05615
0.987342
0.70476
0.228952
-0.312965
-0.810133
-0.443089
-0.0333537
0.157131
0.295878
0.35242
0.333335
0.349748
0.301974
0.299095
0.367095
0.30535
0.46052
0.505599
0.600551
0.557316
0.523455
0.397311
0.170056
-0.210829
-0.236274
-0.136875
-0.0337304
0.0183076
0.100463
0.109596
0.118807
0.270475
0.137738
0.222339
0.107782
0.117814
0.15504
0.166985
0.170909
0.196911
0.286312
0.0735848
-0.0138548
-0.00577977
-4.07105
-2.04462
-0.259636
0.932707
1.59263
1.78708
1.79531
1.65882
1.42112
1.3103
1.29227
1.48109
1.78359
2.2766
2.75804
3.11009
2.978
2.26547
0.969558
-0.762225
-3.652
-1.95902
-0.374898
0.722922
1.23749
1.47647
1.45021
1.31094
1.0666
1.0596
0.979554
1.08633
1.43923
1.81442
2.30311
2.47832
2.34507
1.7801
0.590746
-0.818928
-3.10718
-1.71829
-0.35269
0.460261
1.05053
1.19881
1.11433
0.992441
0.888049
0.766009
0.782784
0.965807
1.09465
1.41677
1.79523
1.99471
1.92916
1.4704
0.556976
-0.784686
-2.57987
-1.35992
-0.343357
0.374789
0.752315
0.928932
0.863896
0.713266
0.583164
0.551172
0.524376
0.689956
0.804591
1.17669
1.38907
1.65576
1.508
1.08344
0.282619
-0.646888
-2.04259
-1.20827
-0.364274
0.198601
0.630647
0.668232
0.6645
0.551238
0.499842
0.373872
0.401102
0.459601
0.606719
0.848381
1.03317
1.16351
1.1199
0.742633
0.17426
-0.614847
-1.43408
-0.809066
-0.230853
0.155118
0.353922
0.481538
0.485033
0.419517
0.3051
0.305682
0.169881
0.338122
0.429991
0.591402
0.758462
0.734059
0.762053
0.495069
0.139578
-0.499219
-0.823597
-0.532542
-0.225184
0.00984395
0.19654
0.249635
0.304531
0.236901
0.138322
0.114177
0.175895
0.168131
0.276954
0.262555
0.488988
0.472334
0.471493
0.293143
-0.0105488
-0.284291
-0.335212
-0.153936
0.00425958
0.0309374
0.0270661
0.110401
0.113452
0.116657
0.130773
-0.0476648
0.0723195
0.208276
0.0716648
0.0617761
0.0599219
0.194596
0.111808
0.107361
0.0627091
-0.0949252
-4.48968
-2.51646
-0.749547
0.414259
1.02084
1.15941
1.10532
0.761134
0.506728
0.321627
0.262881
0.429867
0.848029
1.39633
1.94144
2.28813
2.23909
1.58741
0.343506
-1.25639
-3.93518
-2.17846
-0.77625
0.217009
0.689533
0.908702
0.764577
0.657399
0.295716
0.188732
0.116149
0.199081
0.556416
1.06725
1.4359
1.70802
1.79765
1.24758
0.0969166
-1.19456
-3.36566
-1.98768
-0.768319
0.132384
0.551559
0.655734
0.655543
0.41533
0.158291
-0.0383686
0.0261586
0.062472
0.434941
0.700218
1.20301
1.39116
1.40008
0.90372
-0.00285626
-1.16928
-2.79221
-1.69751
-0.663445
0.0523235
0.413727
0.554079
0.441939
0.323776
0.15338
-0.0490434
-0.0573238
0.068318
0.180247
0.600304
0.840129
1.11577
1.0667
0.621743
-0.0251072
-0.957495
-2.2512
-1.27122
-0.578269
-0.0821639
0.265882
0.321597
0.338849
0.215122
-0.0023824
-0.0589006
-0.0107854
-0.00913297
0.226417
0.347159
0.647688
0.837775
0.713517
0.526573
-0.141294
-0.783175
-1.54215
-0.945679
-0.379941
0.0387238
0.147031
0.222697
0.193224
0.0618002
-0.0190586
-0.0729094
-0.0972669
-0.117922
0.14848
0.320395
0.423973
0.50716
0.537713
0.281987
-0.086928
-0.626916
-0.908186
-0.601944
-0.296952
-0.0690951
0.122181
0.141436
0.211353
0.0595742
-0.0636322
-0.0431642
-0.0529259
-0.0316152
0.0439013
0.131814
0.31505
0.367604
0.309275
0.231272
-0.0499147
-0.342432
-0.301472
-0.134705
-0.0501578
0.00860553
0.119458
-0.0113584
0.0921209
0.0218182
-0.00311613
0.00335973
0.0218476
-0.104778
0.000758091
0.121793
0.0212022
0.0629664
0.0115519
0.0460774
-0.0331083
-0.142487
-4.79672
-2.92117
-1.25589
-0.152683
0.3907
0.571218
0.442248
0.0158604
-0.377829
-0.695918
-0.786898
-0.608618
-0.192571
0.444114
1.11334
1.49112
1.42033
0.894005
-0.374842
-1.93235
-4.26824
-2.65778
-1.2561
-0.283955
0.164125
0.32341
0.117278
-0.0615208
-0.376877
-0.70224
-0.88943
-0.678231
-0.291237
0.188979
0.689683
1.07735
1.02818
0.525578
-0.512622
-1.83312
-3.61921
-2.35441
-1.13347
-0.32564
0.0869416
0.206766
0.060503
-0.212878
-0.450571
-0.609582
-0.68061
-0.624555
-0.310112
0.062868
0.491364
0.795464
0.77371
0.35761
-0.577678
-1.61365
-3.00126
-2.04415
-1.00819
-0.36099
0.0452513
0.150088
0.030378
-0.22558
-0.506199
-0.575646
-0.668224
-0.580327
-0.366215
-0.0561513
0.335966
0.534257
0.582206
0.134069
-0.504086
-1.36709
-2.34212
-1.58077
-0.818081
-0.278567
0.0266859
0.0257713
-0.026713
-0.102672
-0.388391
-0.557925
-0.615446
-0.524006
-0.332363
-0.0937325
0.166445
0.393558
0.410449
0.118194
-0.469777
-1.14602
-1.71244
-1.14821
-0.542655
-0.233117
-0.0255933
0.00327889
-0.0455064
-0.119693
-0.331653
-0.279829
-0.447676
-0.394257
-0.223318
-0.0280675
0.0892262
0.274376
0.240767
0.0559403
-0.392573
-0.80714
-0.960633
-0.659576
-0.347207
-0.171304
0.00899781
0.0396119
-0.00143769
-0.100865
-0.19365
-0.259183
-0.291858
-0.232779
-0.105803
-0.113524
0.0481233
0.145097
0.105642
0.00576979
-0.271316
-0.473722
-0.35022
-0.34107
-0.173648
-0.0713464
0.00304053
-0.0285928
0.0378854
0.013685
-0.154135
-0.109651
-0.0410518
-0.038476
-0.0162322
0.0937101
0.0675795
0.0771003
0.0559384
0.0479531
-0.0235173
-0.171626
-5.22743
-3.47381
-1.87104
-0.82937
-0.233315
-0.107846
-0.292464
-0.716427
-1.18464
-1.59799
-1.76353
-1.56684
-1.07367
-0.452097
0.0991931
0.552162
0.590507
0.0712254
-1.18973
-2.56249
-4.5531
-3.16365
-1.61725
-0.860551
-0.32825
-0.187559
-0.473581
-0.800963
-1.17234
-1.52073
-1.56309
-1.52389
-1.13687
-0.619945
0.0243249
0.260013
0.395055
-0.176782
-1.06014
-2.33342
-3.98882
-2.68752
-1.60741
-0.704261
-0.313966
-0.319587
-0.344669
-0.713363
-1.09088
-1.31474
-1.4721
-1.299
-1.13002
-0.643134
-0.177558
0.171927
0.153131
-0.26935
-1.09126
-2.06516
-3.27142
-2.26182
-1.32582
-0.683986
-0.367715
-0.316796
-0.371262
-0.61574
-0.966827
-1.18272
-1.27114
-1.22384
-0.969156
-0.520598
-0.15841
0.0201435
0.0818004
-0.249745
-0.935653
-1.7953
-2.53254
-1.81299
-1.01298
-0.600676
-0.330766
-0.204641
-0.334231
-0.498467
-0.857795
-0.871405
-1.01982
-0.920156
-0.724655
-0.404432
-0.191144
-0.00523025
-0.0388158
-0.277122
-0.833444
-1.37693
-1.82324
-1.3196
-0.826865
-0.437898
-0.2208
-0.175022
-0.279782
-0.403893
-0.592207
-0.694732
-0.768213
-0.598844
-0.573052
-0.323817
-0.101894
-0.0493215
0.000822409
-0.19977
-0.641456
-1.02195
-1.12373
-0.80302
-0.444471
-0.263813
-0.196856
-0.125453
-0.204187
-0.173142
-0.297449
-0.448168
-0.481955
-0.440782
-0.324884
-0.214864
-0.11845
-0.0602043
-0.0639931
-0.141601
-0.297022
-0.667887
-0.375485
-0.290807
-0.156282
-0.120771
-0.0897782
-0.0573709
-0.0206208
-0.0870971
-0.136014
-0.122985
-0.138052
-0.116091
-0.0506325
-0.0716566
-0.0354208
-0.0311911
-0.0311415
-0.0627537
-0.134561
-0.197303
-5.52133
-3.86312
-2.36559
-1.37446
-0.789266
-0.735576
-0.902481
-1.40141
-1.95701
-2.41054
-2.52999
-2.47795
-1.99543
-1.23737
-0.6398
-0.190063
-0.179739
-0.684926
-1.73879
-3.14182
-4.9269
-3.481
-2.07579
-1.26215
-0.814797
-0.747476
-0.978035
-1.32815
-1.804
-2.18249
-2.38213
-2.27015
-1.75363
-1.25773
-0.757948
-0.342643
-0.356671
-0.741247
-1.65861
-2.8837
-4.17803
-3.06978
-1.92229
-1.13726
-0.762512
-0.774499
-0.870785
-1.16049
-1.65876
-1.98031
-2.09312
-2.00174
-1.65988
-1.16498
-0.640589
-0.471838
-0.400608
-0.761282
-1.63035
-2.4831
-3.55206
-2.61076
-1.56371
-0.994323
-0.746296
-0.69837
-0.799579
-1.05819
-1.45084
-1.70485
-1.70492
-1.60976
-1.39051
-1.06138
-0.719145
-0.478152
-0.358374
-0.764012
-1.35355
-2.14631
-2.72106
-2.03652
-1.30982
-0.773782
-0.594635
-0.623005
-0.622098
-0.864456
-1.06303
-1.35777
-1.47011
-1.31773
-1.18048
-0.853762
-0.543056
-0.397039
-0.302351
-0.589984
-1.11655
-1.7199
-1.95274
-1.44843
-0.880855
-0.684656
-0.497286
-0.435943
-0.438354
-0.598588
-0.803076
-0.926226
-1.02743
-0.955853
-0.822812
-0.590184
-0.410624
-0.312461
-0.29679
-0.514707
-0.841051
-1.2387
-1.19462
-0.844501
-0.66646
-0.322399
-0.311288
-0.255707
-0.321208
-0.39353
-0.546206
-0.574586
-0.570115
-0.627598
-0.507182
-0.354478
-0.246478
-0.158482
-0.241872
-0.262543
-0.514912
-0.701877
-0.382618
-0.304866
-0.185095
-0.0547947
-0.110403
0.025969
-0.152585
-0.125811
-0.154498
-0.251539
-0.22407
-0.191483
-0.156606
-0.199033
-0.132204
-0.110685
-0.0834912
-0.069268
-0.150115
-0.301371
-5.77406
-4.27662
-2.73981
-1.7805
-1.30287
-1.19293
-1.46716
-2.03392
-2.53923
-3.06119
-3.275
-3.08836
-2.63659
-2.02281
-1.39699
-0.895995
-0.846274
-1.34732
-2.44023
-3.68578
-5.13367
-3.83884
-2.51349
-1.62329
-1.23755
-1.18414
-1.46251
-1.78141
-2.29753
-2.76034
-2.8957
-2.8065
-2.36073
-1.86198
-1.31651
-0.926467
-0.940493
-1.3002
-2.13222
-3.36204
-4.42554
-3.29896
-2.20928
-1.5253
-1.14296
-1.16635
-1.25601
-1.68908
-2.14478
-2.33185
-2.5828
-2.50741
-2.1457
-1.65824
-1.23323
-0.844494
-0.917878
-1.28309
-2.03338
-2.86228
-3.61905
-2.73152
-1.85029
-1.30286
-0.955243
-0.962389
-1.13391
-1.32232
-1.70686
-1.9986
-2.15544
-2.02546
-1.84832
-1.38109
-1.03034
-0.878636
-0.893993
-1.07794
-1.712
-2.44958
-2.85935
-2.17657
-1.4983
-0.945136
-0.809389
-0.854833
-0.888737
-1.11802
-1.40261
-1.58012
-1.6761
-1.65515
-1.43082
-1.0842
-0.875672
-0.75871
-0.617245
-0.935519
-1.33798
-1.95274
-2.04556
-1.68748
-1.08521
-0.666034
-0.622567
-0.546478
-0.660618
-0.795732
-1.00742
-1.15137
-1.22688
-1.09797
-1.09483
-0.790072
-0.588589
-0.559909
-0.482103
-0.7827
-1.0243
-1.42057
-1.23399
-0.919804
-0.617247
-0.456185
-0.369059
-0.246943
-0.432384
-0.469782
-0.588591
-0.745062
-0.793114
-0.711175
-0.671293
-0.451806
-0.43962
-0.329925
-0.365072
-0.392424
-0.702951
-0.844671
-0.417161
-0.294179
-0.192643
-0.130932
-0.147313
-0.126296
-0.0753025
-0.157678
-0.216253
-0.202117
-0.227697
-0.27956
-0.122088
-0.24276
-0.173605
-0.163923
-0.228906
-0.270713
-0.183268
-0.317974
-6.066
-4.48051
-3.04659
-2.05477
-1.66008
-1.5253
-1.77914
-2.24188
-2.96005
-3.38236
-3.61966
-3.5572
-3.10757
-2.4519
-1.78002
-1.39904
-1.40257
-1.86211
-2.82283
-4.08812
-5.19122
-4.01261
-2.86904
-1.98438
-1.578
-1.46732
-1.71746
-2.14801
-2.64243
-3.12619
-3.34829
-3.13713
-2.80546
-2.25502
-1.69649
-1.37309
-1.32812
-1.77459
-2.62242
-3.60705
-4.5993
-3.47169
-2.39631
-1.68006
-1.33957
-1.33188
-1.53032
-1.92013
-2.27032
-2.61645
-2.94542
-2.81917
-2.47724
-2.00539
-1.59201
-1.19274
-1.25473
-1.67592
-2.3609
-3.23962
-3.741
-2.85388
-2.0816
-1.50726
-1.15169
-1.16089
-1.35008
-1.62262
-1.97416
-2.24392
-2.40898
-2.39461
-2.05145
-1.75465
-1.38654
-1.07779
-1.13362
-1.39776
-1.94745
-2.73129
-2.8954
-2.25067
-1.69523
-1.12596
-0.960227
-0.924227
-0.984004
-1.24075
-1.57523
-1.80045
-1.87196
-1.86816
-1.60969
-1.33474
-1.11083
-0.83684
-0.88226
-1.10723
-1.63683
-2.13527
-2.14042
-1.66262
-1.20517
-0.857564
-0.692802
-0.686545
-0.783503
-0.897442
-1.14109
-1.44348
-1.32454
-1.46051
-1.15281
-1.04469
-0.780842
-0.686447
-0.695808
-0.83574
-1.14805
-1.55798
-1.24767
-0.971064
-0.740118
-0.469853
-0.430091
-0.390719
-0.442395
-0.511081
-0.676733
-0.742381
-0.758317
-0.802003
-0.74974
-0.570784
-0.48079
-0.425447
-0.483369
-0.461193
-0.698159
-0.990376
-0.44768
-0.28953
-0.186448
-0.101876
-0.157691
-0.181925
-0.169894
-0.19254
-0.280055
-0.196113
-0.273943
-0.294217
-0.310174
-0.184735
-0.138226
-0.0857049
-0.129965
-0.232048
-0.26047
-0.338982
-6.12421
-4.57798
-3.18671
-2.33147
-1.79849
-1.67679
-1.99063
-2.47142
-2.95578
-3.48886
-3.74766
-3.68762
-3.27181
-2.71824
-2.16309
-1.73157
-1.78026
-2.13413
-3.18082
-4.34528
-5.33877
-4.17585
-2.93547
-2.14191
-1.66805
-1.65266
-1.86352
-2.22788
-2.84732
-3.18882
-3.40454
-3.38415
-2.98098
-2.46588
-1.87489
-1.60599
-1.64528
-2.05873
-2.99266
-3.91606
-4.56224
-3.54347
-2.57556
-1.82375
-1.50521
-1.49388
-1.61623
-2.0106
-2.42246
-2.77051
-2.9626
-2.8669
-2.62962
-2.16461
-1.74732
-1.44402
-1.56597
-1.8975
-2.60834
-3.42527
-3.75371
-2.94852
-2.18005
-1.57248
-1.30399
-1.34358
-1.31396
-1.71775
-2.0282
-2.29792
-2.52439
-2.39329
-2.1789
-1.83229
-1.50523
-1.29809
-1.34009
-1.6411
-2.22725
-2.88942
-2.95079
-2.2509
-1.7221
-1.24977
-1.08302
-1.05422
-1.13231
-1.35125
-1.65005
-1.79371
-2.05663
-1.90281
-1.7946
-1.48401
-1.18606
-1.06089
-1.09018
-1.29072
-1.76647
-2.31831
-2.14701
-1.67747
-1.25253
-0.904432
-0.83771
-0.713776
-0.812102
-0.970321
-1.11035
-1.34064
-1.39285
-1.4351
-1.25883
-1.09802
-0.903265
-0.761769
-0.768913
-0.953719
-1.28537
-1.61337
-1.22155
-1.04747
-0.797773
-0.575951
-0.46885
-0.427155
-0.362878
-0.53273
-0.698756
-0.762791
-0.943568
-0.749545
-0.801212
-0.660176
-0.547728
-0.429097
-0.443901
-0.636821
-0.811905
-1.00462
-0.496101
-0.280947
-0.219277
-0.230096
-0.239337
-0.0842884
-0.166677
-0.254131
-0.287648
-0.255552
-0.273264
-0.374516
-0.276651
-0.262063
-0.167567
-0.134651
-0.208087
-0.157396
-0.337365
-0.348968
-5.97011
-4.62257
-3.30258
-2.25006
-1.89017
-1.79362
-1.98378
-2.41981
-2.93042
-3.41549
-3.59893
-3.62375
-3.21657
-2.68412
-2.16165
-1.85471
-1.85508
-2.48945
-3.29512
-4.35982
-5.28587
-4.11449
-2.97067
-2.16397
-1.67939
-1.65499
-1.79054
-2.2837
-2.7536
-3.07756
-3.20395
-3.22095
-2.89652
-2.54984
-2.07066
-1.86563
-1.84865
-2.31554
-2.95878
-3.93486
-4.46574
-3.50087
-2.56944
-1.91241
-1.58795
-1.40564
-1.60249
-2.00498
-2.33188
-2.63628
-2.89842
-2.8782
-2.60398
-2.22715
-1.83289
-1.59082
-1.66642
-1.93959
-2.627
-3.5094
-3.74556
-2.94974
-2.14299
-1.59911
-1.28707
-1.21226
-1.38785
-1.68239
-1.92658
-2.25547
-2.42866
-2.39628
-2.18453
-1.97753
-1.53865
-1.45881
-1.4548
-1.79296
-2.2759
-2.8805
-2.83999
-2.32235
-1.74087
-1.24175
-1.07428
-0.955827
-1.18619
-1.34677
-1.50324
-1.76063
-1.89507
-1.88955
-1.68666
-1.54014
-1.25076
-1.17653
-1.23202
-1.33913
-1.78483
-2.28388
-1.99608
-1.66168
-1.25628
-1.00614
-0.798188
-0.728259
-0.87846
-0.943245
-1.16684
-1.27118
-1.36657
-1.36809
-1.2817
-1.07485
-0.987195
-0.845479
-0.848146
-1.06382
-1.31936
-1.67165
-1.22676
-0.924067
-0.766199
-0.562477
-0.452788
-0.49729
-0.525996
-0.560092
-0.707023
-0.754042
-0.887824
-0.804366
-0.791153
-0.682319
-0.57137
-0.466836
-0.479837
-0.653967
-0.914087
-0.945837
-0.418295
-0.337625
-0.19228
-0.204249
-0.0985952
-0.146223
-0.242004
-0.189348
-0.2763
-0.20004
-0.300049
-0.229734
-0.245314
-0.233446
-0.171252
-0.212205
-0.260697
-0.158379
-0.365248
-0.344316
-5.77786
-4.417
-3.04251
-2.12431
-1.60817
-1.58062
-1.7042
-2.06695
-2.66337
-3.04051
-3.24283
-3.08501
-2.91503
-2.39462
-2.08426
-1.76864
-1.85006
-2.35635
-3.25235
-4.32505
-5.06609
-3.83195
-2.72715
-1.99545
-1.58885
-1.5355
-1.58858
-1.99777
-2.47411
-2.70086
-2.93782
-2.96118
-2.67035
-2.24365
-1.88951
-1.69127
-1.76711
-2.25019
-2.9332
-3.90288
-4.29661
-3.44409
-2.47558
-1.77123
-1.47782
-1.40377
-1.50512
-1.75684
-2.07971
-2.50689
-2.66225
-2.57601
-2.33012
-1.91286
-1.73553
-1.60447
-1.67434
-2.0081
-2.6727
-3.39403
-3.58802
-2.78862
-2.07576
-1.5639
-1.30386
-1.20882
-1.30132
-1.43025
-1.73017
-1.96705
-2.15115
-2.1453
-1.96126
-1.70381
-1.47639
-1.40382
-1.37822
-1.75199
-2.30101
-2.92527
-2.7588
-2.20059
-1.6637
-1.21478
-0.959944
-0.900477
-1.01451
-1.25301
-1.36169
-1.64265
-1.77986
-1.71337
-1.58869
-1.43225
-1.17929
-1.10318
-1.16158
-1.43354
-1.77871
-2.29241
-2.05548
-1.57783
-1.21639
-0.867351
-0.752921
-0.723108
-0.758796
-0.892807
-1.05992
-1.18526
-1.24489
-1.25379
-1.20147
-1.01164
-0.869072
-0.738768
-0.895465
-1.03439
-1.28784
-1.73251
-1.23336
-0.948132
-0.672226
-0.562226
-0.396681
-0.372976
-0.42147
-0.544992
-0.612883
-0.685182
-0.76684
-0.806922
-0.708188
-0.60599
-0.529413
-0.472893
-0.577207
-0.645001
-0.787015
-1.04858
-0.393295
-0.31012
-0.230731
-0.139872
-0.19919
-0.216755
-0.120074
-0.235692
-0.200305
-0.273733
-0.237071
-0.19317
-0.203768
-0.217209
-0.180725
-0.172103
-0.219977
-0.27551
-0.284797
-0.313
-5.28385
-3.92072
-2.6922
-1.77417
-1.31909
-1.15527
-1.2964
-1.60021
-2.01998
-2.44019
-2.59479
-2.51067
-2.31808
-1.93091
-1.58089
-1.47657
-1.5459
-2.09719
-3.00837
-4.08086
-4.6932
-3.57376
-2.54376
-1.6746
-1.24446
-1.17428
-1.30628
-1.56573
-1.85913
-2.24756
-2.3386
-2.35038
-2.16335
-1.79265
-1.52836
-1.43167
-1.62727
-1.92929
-2.78503
-3.69415
-4.04573
-3.09522
-2.22247
-1.52973
-1.12027
-1.00193
-1.14279
-1.40025
-1.64777
-1.98598
-2.12779
-2.10781
-1.90089
-1.77432
-1.38542
-1.36133
-1.49536
-1.76874
-2.50524
-3.23086
-3.35439
-2.68646
-1.86586
-1.34513
-1.00341
-0.933422
-0.954857
-1.22075
-1.45107
-1.64831
-1.7508
-1.79507
-1.71549
-1.41144
-1.29531
-1.1257
-1.21736
-1.5621
-2.01449
-2.67223
-2.62531
-2.05781
-1.43906
-1.11656
-0.764482
-0.770515
-0.780212
-0.966397
-1.14226
-1.33561
-1.45274
-1.42496
-1.31036
-1.11036
-1.05077
-1.00205
-1.03178
-1.31926
-1.67654
-2.05275
-1.84851
-1.5823
-0.963306
-0.828662
-0.609487
-0.585098
-0.61639
-0.771311
-0.871058
-1.05408
-1.04498
-1.02011
-0.942849
-0.875541
-0.735647
-0.732609
-0.767321
-0.974436
-1.19621
-1.55362
-1.15057
-0.94512
-0.581473
-0.436182
-0.41661
-0.302313
-0.323429
-0.382575
-0.482667
-0.619795
-0.679781
-0.563286
-0.640123
-0.55617
-0.522931
-0.480505
-0.424959
-0.594553
-0.716942
-0.892163
-0.379806
-0.298314
-0.202065
-0.169804
-0.111724
-0.113469
-0.144491
-0.0122598
-0.130783
-0.20036
-0.172646
-0.237735
-0.195134
-0.169913
-0.167701
-0.125333
-0.0974638
-0.199435
-0.246301
-0.389559
-4.66483
-3.42952
-2.14212
-1.26806
-0.737596
-0.580144
-0.600267
-0.898869
-1.2006
-1.48095
-1.70767
-1.7444
-1.49323
-1.24791
-0.948073
-0.810203
-1.14314
-1.6123
-2.48095
-3.49067
-4.08903
-3.0495
-2.02623
-1.28606
-0.804227
-0.613556
-0.685235
-0.928355
-1.19209
-1.51818
-1.66149
-1.62998
-1.36418
-1.27229
-1.00396
-0.830153
-1.10671
-1.62524
-2.34839
-3.18363
-3.59599
-2.72965
-1.80617
-1.11477
-0.781298
-0.644986
-0.597236
-0.840918
-1.15415
-1.36452
-1.52755
-1.47131
-1.35506
-1.12201
-1.03243
-0.916073
-1.04589
-1.47702
-2.12311
-2.76091
-2.89725
-2.16794
-1.50939
-0.910031
-0.643525
-0.552208
-0.60943
-0.790103
-0.968682
-1.20137
-1.31388
-1.25378
-1.18856
-0.998165
-0.880335
-0.855411
-1.00514
-1.2556
-1.84321
-2.42764
-2.26182
-1.76596
-1.23249
-0.81823
-0.567015
-0.445103
-0.573071
-0.681866
-0.798681
-0.883732
-1.02329
-0.999519
-1.00352
-0.813962
-0.696074
-0.687249
-0.842692
-1.03888
-1.4421
-1.87949
-1.66858
-1.29566
-0.894103
-0.558402
-0.417662
-0.352973
-0.387451
-0.520994
-0.657617
-0.747801
-0.691007
-0.772227
-0.713069
-0.641688
-0.524017
-0.498818
-0.546563
-0.717623
-1.06804
-1.41707
-1.04196
-0.728395
-0.538279
-0.438439
-0.237269
-0.173565
-0.280919
-0.183808
-0.352736
-0.389044
-0.452665
-0.37724
-0.484806
-0.363846
-0.331922
-0.374951
-0.286738
-0.466437
-0.640746
-0.818195
-0.296562
-0.264048
-0.240346
-0.104484
-0.0805142
-0.0762811
-0.0689938
-0.0745186
-0.0928721
-0.144023
-0.241708
-0.132947
-0.141658
-0.0794289
-0.154243
-0.165044
-0.0721739
-0.158844
-0.193725
-0.367444
-3.91762
-2.62859
-1.31989
-0.555397
0.00522327
0.230535
0.219245
0.00990669
-0.25729
-0.504503
-0.630612
-0.660345
-0.59017
-0.305173
-0.0654262
-0.141967
-0.421024
-0.994473
-1.89936
-2.79946
-3.44229
-2.42523
-1.39294
-0.586171
-0.103337
0.0171919
0.0175089
-0.178854
-0.37567
-0.581426
-0.745341
-0.752754
-0.656506
-0.4746
-0.338107
-0.291554
-0.55507
-0.95447
-1.75222
-2.63038
-3.02831
-2.07854
-1.18818
-0.523971
-0.232463
-0.0213726
-0.166494
-0.245384
-0.385494
-0.56078
-0.722393
-0.730037
-0.593143
-0.46053
-0.42196
-0.388268
-0.574983
-1.02728
-1.66523
-2.37752
-2.52096
-1.79008
-1.03055
-0.589508
-0.197529
-0.132218
-0.0512981
-0.238137
-0.404055
-0.555901
-0.585671
-0.676491
-0.628382
-0.505653
-0.382138
-0.388092
-0.560595
-0.917581
-1.46382
-2.00575
-1.9353
-1.48592
-0.878833
-0.462248
-0.34052
-0.115916
-0.147737
-0.242931
-0.341952
-0.505556
-0.618272
-0.502585
-0.45314
-0.484003
-0.393729
-0.39986
-0.432832
-0.828482
-1.22631
-1.54299
-1.42967
-0.985561
-0.682479
-0.364772
-0.144474
-0.156544
-0.169254
-0.266091
-0.260076
-0.394875
-0.3445
-0.38485
-0.328659
-0.344126
-0.320122
-0.352902
-0.327923
-0.526018
-0.897738
-1.16986
-0.867866
-0.643231
-0.381903
-0.181783
-0.124337
-0.113962
-0.0954541
-0.152393
-0.18647
-0.281948
-0.352005
-0.236027
-0.181988
-0.250323
-0.208745
-0.206952
-0.243791
-0.406091
-0.612548
-0.706202
-0.297634
-0.151744
-0.108732
-0.0859865
-0.0117934
-0.0370834
-0.0440112
-0.0147358
-0.0983002
-0.00827976
-0.0579011
-0.0949046
-0.12797
-0.0132653
-0.142192
-0.107384
-0.0370077
-0.142846
-0.208927
-0.248535
-3.02742
-1.7419
-0.512749
0.4285
0.960959
1.14161
1.21309
1.13583
0.886336
0.750426
0.584602
0.667256
0.627633
0.784816
0.906026
0.726528
0.486801
-0.0903828
-1.05146
-2.10352
-2.67939
-1.64225
-0.558431
0.193427
0.676937
0.857595
0.813183
0.776264
0.656455
0.435123
0.361381
0.354657
0.40303
0.489198
0.549588
0.530414
0.217965
-0.341924
-1.08386
-1.87876
-2.21598
-1.49322
-0.524186
-0.00684792
0.462517
0.585491
0.701258
0.57814
0.456942
0.261455
0.151141
0.143796
0.29546
0.283488
0.334335
0.289872
0.0719539
-0.410395
-1.11752
-1.72513
-1.9826
-1.28049
-0.592014
0.00182009
0.291164
0.406693
0.486505
0.416234
0.178383
0.148733
0.0597588
-0.00935967
0.0865473
0.149977
0.204152
0.244841
-0.0522723
-0.364917
-1.04247
-1.48967
-1.56075
-1.01715
-0.488396
-0.102394
0.209612
0.377166
0.322624
0.37155
0.241169
0.137803
0.025801
-0.0686641
0.011413
0.112727
0.164548
0.0252402
-0.0771982
-0.435742
-0.768139
-1.24812
-1.13463
-0.761806
-0.371512
-0.0874884
0.0698899
0.252382
0.209879
0.192979
0.106948
-0.0515219
-0.00602679
0.0160271
-0.061053
0.026165
-0.0125259
0.0242338
-0.129539
-0.356607
-0.54896
-0.93879
-0.632293
-0.489778
-0.196428
-0.0374208
0.0615595
0.0860919
0.190762
0.13434
0.0951793
0.00263582
-0.0228515
0.00925969
-0.0783813
-0.00842149
-0.0963355
0.0446752
-0.0278658
-0.156439
-0.359925
-0.559966
-0.164113
-0.152205
-0.0677024
-0.00342412
-0.0256229
0.0360102
0.0365626
-0.0285677
0.00949385
0.0148459
0.0179717
-0.094341
0.060077
0.0530225
-0.0194438
0.0094757
-0.0466268
-0.0696735
-0.130142
-0.175775
-1.90879
-0.71074
0.526866
1.41987
2.02546
2.41775
2.43899
2.26213
2.16477
2.05726
1.87503
1.88939
1.97292
2.01506
2.01251
1.75631
1.51918
0.893811
0.0219961
-1.11076
-1.75802
-0.642782
0.315878
1.14394
1.58533
1.78128
1.97093
1.87428
1.66212
1.56615
1.46735
1.50518
1.56454
1.58358
1.55653
1.49818
1.02768
0.585892
-0.27537
-1.06552
-1.56433
-0.725252
0.130413
0.74096
1.23216
1.46593
1.48587
1.49373
1.33337
1.28331
1.11995
1.13373
1.07807
1.16505
1.2644
1.07181
0.744289
0.300749
-0.38833
-0.968758
-1.40485
-0.686495
0.0079128
0.53444
0.838638
1.01103
1.19174
1.05606
0.99078
0.851009
0.784756
0.815111
0.880727
0.893831
0.85254
0.818281
0.517614
0.162317
-0.330902
-0.985355
-1.11724
-0.509233
0.0101516
0.445809
0.70475
0.849196
0.93293
0.832954
0.785174
0.66189
0.705128
0.589723
0.61737
0.626816
0.656677
0.516967
0.376239
0.122342
-0.466572
-0.778785
-0.79508
-0.364794
-0.0688503
0.247021
0.506744
0.491608
0.55213
0.586275
0.530677
0.363374
0.396241
0.434288
0.467929
0.414271
0.407524
0.39932
0.186433
0.0202055
-0.251626
-0.66344
-0.474637
-0.294966
-0.0983674
0.126651
0.258483
0.340597
0.331886
0.358576
0.246154
0.214827
0.272732
0.241371
0.145475
0.248946
0.260961
0.134055
0.141689
-0.00840877
-0.127256
-0.255748
-0.19754
-0.0838441
0.0249637
0.00765229
0.0923172
0.0651407
0.155969
0.156839
0.0900961
0.132998
0.0544103
0.0584797
0.149498
0.10876
0.0141382
0.0178356
0.114588
-0.0125124
-0.0560741
-0.114727
-0.788433
0.448678
1.63751
2.50639
3.08988
3.47473
3.6272
3.5589
3.42383
3.38275
3.34533
3.20759
3.25116
3.21039
3.21041
3.07821
2.54496
1.99719
1.01286
-0.00251087
-0.740272
0.231063
1.20912
2.10869
2.48642
2.80797
2.93893
2.94167
2.79881
2.66177
2.59705
2.60883
2.60899
2.65709
2.51327
2.3844
1.99736
1.43645
0.672782
-0.217701
-0.784304
0.0168803
0.885196
1.52614
2.00925
2.26761
2.37186
2.32077
2.29267
2.06752
2.14066
1.97909
2.05798
2.13184
1.94891
1.89167
1.58574
1.07317
0.412488
-0.2773
-0.737717
-0.0228491
0.660767
1.13053
1.52453
1.64319
1.80557
1.89121
1.75938
1.66119
1.59505
1.51033
1.52772
1.58012
1.59698
1.388
1.20631
0.749883
0.167292
-0.326265
-0.668283
-0.130627
0.530179
0.837771
1.10898
1.32008
1.38878
1.36885
1.3481
1.29462
1.15092
1.22543
1.16779
1.10609
1.16328
1.05263
0.835589
0.493405
0.120602
-0.324843
-0.501626
-0.0492401
0.254715
0.618784
0.777496
0.89519
0.923245
0.914877
0.832779
0.926467
0.762318
0.743911
0.742211
0.776587
0.743281
0.730875
0.534659
0.29702
0.0317164
-0.275852
-0.280801
-0.0657084
0.196053
0.312821
0.446863
0.556429
0.611668
0.532019
0.495832
0.483837
0.530456
0.48522
0.430615
0.450628
0.362425
0.40259
0.364565
0.232977
0.0818493
-0.150445
-0.146915
-0.0428856
0.0669423
0.0465353
0.138557
0.17629
0.112305
0.172297
0.193703
0.135801
0.142476
0.106987
0.176559
0.133975
0.220786
0.130165
0.144066
0.0172668
-0.073022
-0.0587475
0.103687
1.4058
2.47732
3.43044
4.0501
4.50222
4.56271
4.6157
4.50034
4.41961
4.42798
4.29141
4.31562
4.28267
4.10194
3.98692
3.47648
2.85954
1.87913
0.9343
-0.0223276
0.958938
1.9589
2.72458
3.2172
3.69021
3.76227
3.71662
3.65815
3.57402
3.53655
3.47214
3.48123
3.4226
3.3361
3.1377
2.7597
2.13941
1.30351
0.562757
-0.208838
0.595849
1.52078
2.05894
2.66987
2.7965
2.92911
3.03373
2.92572
2.9526
2.8803
2.75379
2.75786
2.65066
2.65947
2.51284
2.149
1.61958
0.983819
0.21851
-0.24386
0.345044
1.13164
1.65518
2.00881
2.3023
2.32732
2.33714
2.32898
2.2528
2.11132
2.10165
2.09384
2.14535
2.03303
1.90505
1.68628
1.18731
0.601919
0.11206
-0.269019
0.340729
0.781864
1.26227
1.58478
1.65031
1.7863
1.80502
1.72471
1.61332
1.53743
1.65013
1.51315
1.55265
1.43254
1.34406
1.1405
0.908329
0.436813
-0.0813825
-0.246833
0.124603
0.475755
0.84056
1.01946
1.15375
1.11497
1.15075
1.19083
1.1293
1.11906
1.07372
1.06608
1.11752
1.04783
0.946337
0.796328
0.60892
0.242011
-0.0713375
-0.169848
0.0900917
0.319285
0.484724
0.667478
0.654582
0.70497
0.77463
0.666017
0.602374
0.735644
0.676213
0.616853
0.563765
0.543222
0.515448
0.441255
0.308765