/*--------------------------------*- C++ -*----------------------------------*\
| =========                 |                                                 |
| \\      /  F ield         | OpenFOAM: The Open Source CFD Toolbox           |
|  \\    /   O peration     | Version:  2212                                  |
|   \\  /    A nd           | Website:  www.openfoam.com                      |
|    \\/     M anipulation  |                                                 |
\*---------------------------------------------------------------------------*/
FoamFile
{
    version     2.0;
    format      ascii;
    arch        "LSB;label=32;scalar=64";
    class       volScalarField;
    location    "0";
    object      relativeErrorField;
}
// * * * * * * * * * * * * * * * * * * * * * * * * * * * * * * * * * * * * * //

dimensions      [0 0 0 1 0 0 0];

internalField   nonuniform List<scalar> 
3200
(
0.0104803
0.00425952
0.001539
0.00523418
0.00752673
0.0089506
0.00950643
0.00979883
0.0101247
0.010125
0.0105082
0.0108164
0.0114579
0.0123344
0.0128623
0.0133432
0.0125629
0.0101643
0.00578587
4.43092e-06
0.00964696
0.00407071
0.000990131
0.00432969
0.00626866
0.00733789
0.00836888
0.00818491
0.00833475
0.00850092
0.00864191
0.00898515
0.00967723
0.0103014
0.0107772
0.0112693
0.0104201
0.0082034
0.00432714
0.000371816
0.00844955
0.00370552
0.000526197
0.00346666
0.00513868
0.00608697
0.00676012
0.0066734
0.0069377
0.00673797
0.00724577
0.00739748
0.00799765
0.00867649
0.00921864
0.00921967
0.00859119
0.00664539
0.00322419
0.000653918
0.00692272
0.00349571
9.25143e-05
0.00245921
0.00425166
0.00503412
0.00537358
0.00557958
0.00547361
0.00550583
0.00581808
0.00577653
0.00632724
0.00678126
0.00753406
0.00743573
0.00685431
0.00514407
0.00250879
0.000721594
0.00563293
0.00282218
0.000108469
0.00196961
0.00313293
0.00407145
0.00416836
0.00414344
0.00412731
0.00411402
0.00439995
0.00473882
0.00488686
0.00525628
0.00579127
0.0059193
0.00526634
0.00404085
0.00203987
0.000520235
0.00397803
0.00203742
0.000144764
0.0013748
0.00253111
0.00301135
0.00295897
0.00310388
0.00292461
0.0030161
0.00309268
0.00336171
0.00354011
0.00385118
0.00403754
0.00393382
0.00380097
0.00288355
0.00133123
0.000582369
0.00252083
0.00121681
0.000166052
0.000886607
0.00141425
0.00137275
0.00205453
0.0019225
0.00167731
0.00183838
0.00183136
0.00188912
0.00223301
0.00239291
0.00259727
0.00242468
0.00211338
0.00165231
0.000849665
0.000353231
0.000807294
0.000502626
0.000253819
0.000401294
0.000336206
0.000449113
0.000734743
0.000675921
0.000544713
0.000541915
0.000676249
0.000729142
0.000799305
0.000717945
0.000942251
0.000808685
0.000636132
0.000581145
0.000269749
0.000142583
0.0107638
0.00442126
0.00109664
0.0049224
0.00696945
0.00796233
0.00850112
0.00875046
0.00845128
0.00876442
0.0087236
0.00911499
0.00993076
0.0110108
0.0118625
0.0123218
0.0116752
0.00934879
0.00505839
0.000143558
0.00954579
0.00422761
0.000419785
0.00369062
0.00562825
0.00675804
0.00715571
0.00719013
0.00710889
0.00715905
0.00690024
0.0078419
0.00837282
0.00945358
0.00995419
0.0102382
0.00971899
0.00771946
0.00392269
0.000473805
0.00816336
0.00399153
1.65818e-05
0.0031581
0.00485587
0.00538724
0.00603903
0.00578884
0.00585827
0.00583731
0.00599213
0.00645755
0.00661901
0.00774519
0.00824631
0.00857138
0.00820591
0.00612912
0.00315047
0.000837487
0.00706172
0.00355731
7.86757e-05
0.00227426
0.00375459
0.00451437
0.00500696
0.00486787
0.00474248
0.00480077
0.00476863
0.00533419
0.00557915
0.00616013
0.00659898
0.00678347
0.00629166
0.00494793
0.00206871
0.000908076
0.00566774
0.00265444
0.000188754
0.00154265
0.002497
0.00362536
0.0034697
0.00378406
0.00386824
0.00351693
0.00383855
0.00380506
0.00413512
0.00487108
0.00518551
0.0051878
0.00499039
0.00391461
0.00152141
0.000828973
0.00420331
0.00207755
0.000195603
0.00114278
0.00223134
0.0024962
0.00259723
0.00279256
0.00266331
0.00244889
0.00255152
0.00238599
0.00305992
0.00336688
0.00359747
0.00363983
0.00361461
0.00273881
0.00114227
0.000492581
0.00240897
0.00108591
9.36152e-05
0.000727672
0.00129279
0.00154522
0.00147294
0.00181082
0.00152705
0.00173498
0.00147953
0.00164349
0.00187158
0.00214965
0.00246393
0.0023805
0.00210157
0.0014685
0.000667514
0.000502442
0.000685883
0.000417055
0.00010613
0.000168411
0.000496641
0.000614916
0.000678959
0.000564608
0.000695893
0.000534221
0.000772715
0.000460131
0.000757829
0.000860989
0.000880639
0.000671648
0.000714339
0.000551402
0.000269991
0.000246071
0.0107875
0.00490891
0.000548975
0.00394748
0.00611643
0.00695975
0.0070605
0.00671021
0.00649348
0.00630566
0.00621832
0.00692219
0.00765816
0.00882131
0.0101202
0.0107285
0.010319
0.00807457
0.00422019
0.00102897
0.00995421
0.00480068
0.000114411
0.00300862
0.00498269
0.00545915
0.00552691
0.00560689
0.00543152
0.00521706
0.00530007
0.00575641
0.00632564
0.00740668
0.00829634
0.00894617
0.00854259
0.00687508
0.00325459
0.00136927
0.00880419
0.00428803
0.000404881
0.0023048
0.00401362
0.00451567
0.00469158
0.00457519
0.00438675
0.0042615
0.00409195
0.00461696
0.00527655
0.00631967
0.00685393
0.00736514
0.00708625
0.0054389
0.00249638
0.00130252
0.00739051
0.00397185
0.000625678
0.00176075
0.00293049
0.00393051
0.00383126
0.00377089
0.00351584
0.0031649
0.00330087
0.00364427
0.00410642
0.00489796
0.00571783
0.00610557
0.00558477
0.00425074
0.0015871
0.00134566
0.00584136
0.00320138
0.000351585
0.00129354
0.00248898
0.00260958
0.00281343
0.00252896
0.00232984
0.00220808
0.0026033
0.00304067
0.00301389
0.00367057
0.00428037
0.00473171
0.0045068
0.00319577
0.00107586
0.00115257
0.00415384
0.002095
0.000467395
0.000815909
0.0015034
0.00186017
0.00198144
0.00213784
0.00178152
0.00173961
0.00164051
0.0020607
0.0023921
0.00274113
0.00313178
0.00332285
0.0031091
0.00222117
0.000722146
0.000987704
0.00261223
0.00142821
0.000107458
0.000505972
0.00095223
0.0011336
0.00107168
0.00112399
0.000970171
0.000960772
0.0011792
0.000981019
0.00147999
0.00162552
0.00193174
0.00179362
0.00168556
0.00128004
0.000548143
0.000679805
0.000778766
0.000451087
0.000111144
6.03139e-05
0.000330912
0.00036093
0.0003912
0.000890474
0.000453422
0.000731883
0.000354791
0.000387835
0.000510431
0.000549837
0.00056285
0.000648601
0.00094325
0.000242468
4.56601e-05
1.90503e-05
0.0116019
0.00581725
0.000737152
0.00264211
0.00450102
0.00503915
0.00505184
0.00465965
0.00398689
0.00367354
0.003623
0.00415515
0.00501014
0.00640615
0.00777702
0.00878957
0.00843588
0.00643207
0.00275853
0.00217223
0.0106116
0.0056842
0.00108578
0.00208953
0.00356951
0.00425034
0.00416707
0.00376109
0.00305668
0.00303484
0.00280557
0.00311321
0.00412917
0.00521362
0.00662998
0.00714866
0.00677819
0.00515554
0.00171408
0.00237956
0.00920947
0.00508672
0.00104243
0.00135802
0.00309413
0.00352481
0.00327122
0.00290954
0.00260098
0.00224241
0.00229152
0.00282873
0.00320919
0.00415907
0.0052784
0.00587507
0.00569208
0.00434599
0.00164884
0.00232575
0.00780323
0.00410922
0.00103614
0.00112936
0.00226361
0.002791
0.00259217
0.00213783
0.00174648
0.00164997
0.00156975
0.0020663
0.00241155
0.00353073
0.00417351
0.00498196
0.00454408
0.00326946
0.000853979
0.00195661
0.00630759
0.00372828
0.00112284
0.000611468
0.0019394
0.00205264
0.00203903
0.00169
0.00153145
0.00114511
0.00122851
0.00140816
0.00186009
0.00260327
0.00317362
0.0035781
0.00344804
0.0022891
0.000537704
0.00189867
0.00452339
0.00255054
0.000727196
0.000488218
0.00111298
0.00151303
0.00152284
0.0013163
0.000956853
0.000958444
0.000532648
0.00106041
0.00134916
0.00185681
0.00238315
0.0023084
0.00239849
0.00155949
0.000440013
0.00157464
0.00265475
0.00171598
0.000725261
3.16885e-05
0.000632349
0.000802762
0.000978833
0.000761151
0.000444295
0.000366685
0.000564896
0.000540041
0.00088984
0.000843912
0.00157246
0.00151969
0.00151778
0.00094414
3.3991e-05
0.000916373
0.00110474
0.000507259
1.40341e-05
0.000101912
8.91435e-05
0.000363546
0.000373532
0.000384032
0.000430461
0.000156889
0.00023804
0.000685573
0.000235919
0.000203393
0.000197321
0.000640911
0.00036831
0.000353724
0.000206642
0.00031284
0.0127694
0.00714579
0.00212412
0.00117139
0.00288016
0.00326406
0.00310562
0.00213501
0.00141969
0.000900525
0.000736041
0.00120435
0.00237876
0.00392327
0.00546567
0.00645568
0.00633144
0.00449851
0.000975427
0.00357338
0.0114143
0.00631008
0.00224446
0.000626253
0.00198596
0.0026122
0.00219404
0.00188372
0.000846451
0.00053992
0.000332278
0.000569845
0.00159436
0.0030626
0.00412769
0.00491937
0.00518772
0.00360727
0.000280726
0.00346491
0.0099604
0.00587551
0.00226764
0.000390071
0.00162241
0.00192566
0.00192219
0.0012163
0.000463132
0.000112206
7.64989e-05
0.000182783
0.00127373
0.00205319
0.00353281
0.00409212
0.00412535
0.00266727
8.443e-06
0.00346039
0.00843478
0.00512295
0.00199967
0.000157488
0.0012435
0.00166305
0.00132479
0.000969551
0.000458948
0.00014669
0.000171457
0.000204422
0.000539751
0.00179952
0.00252161
0.00335355
0.00321063
0.00187398
7.57716e-05
0.00289242
0.0069448
0.00391868
0.00178077
0.000252744
0.000816951
0.000987061
0.00103897
0.000659045
7.29427e-06
0.000180281
3.30114e-05
2.79627e-05
0.000693651
0.00106445
0.00198791
0.00257416
0.00219484
0.00162158
0.000435552
0.00241604
0.0048607
0.00297906
0.001196
0.000121799
0.000462078
0.000699317
0.000606321
0.000193805
5.97411e-05
0.000228488
0.000304821
0.000369637
0.00046563
0.00100537
0.00133136
0.00159387
0.00169128
0.000887656
0.000273839
0.00197598
0.00292608
0.00193876
0.000956002
0.000222333
0.000392951
0.000454654
0.000679103
0.000191347
0.000204325
0.000138582
0.000169922
0.000101518
0.000141007
0.000423535
0.00101275
0.00118227
0.00099518
0.000744553
0.000160767
0.00110328
0.000993388
0.00044382
0.000165232
2.83439e-05
0.000393389
3.73982e-05
0.000303266
7.18172e-05
1.02562e-05
1.10574e-05
7.19036e-05
0.000344859
2.49535e-06
0.000400949
6.98093e-05
0.000207355
3.80484e-05
0.00015179
0.000109084
0.000469514
0.0136086
0.0082748
0.00355066
0.000430766
0.00109995
0.00160487
0.0012402
4.44081e-05
0.0010567
0.00194517
0.00219947
0.00170217
0.000539184
0.00124543
0.00312799
0.004198
0.00400719
0.00252754
0.00106181
0.00548218
0.012353
0.00768186
0.00362437
0.000817813
0.000471809
0.000928018
0.000335971
0.000175998
0.00107709
0.00200591
0.00254061
0.00193835
0.000833169
0.000541375
0.00197903
0.00309706
0.00296125
0.00151651
0.00148165
0.00530538
0.0106903
0.00694658
0.00333937
0.000957851
0.00025532
0.000606256
0.000177147
0.000622544
0.00131652
0.00178034
0.00198778
0.00182489
0.000906898
0.000184072
0.00144072
0.00233603
0.00227582
0.00105357
0.00170442
0.00476634
0.00905183
0.00615949
0.0030342
0.00108497
0.000135821
0.000449897
9.0951e-05
0.000674711
0.00151296
0.00171987
0.00199647
0.00173451
0.00109535
0.000168116
0.00100708
0.00160356
0.00174985
0.000403486
0.00151893
0.00412317
0.00721612
0.00486687
0.00251626
0.000855914
8.1906e-05
7.90164e-05
8.18263e-05
0.000314252
0.00118809
0.00170618
0.00188208
0.00160293
0.00101728
0.000287118
0.00051033
0.00120793
0.00126113
0.000363543
0.00144635
0.00353091
0.00539247
0.00361381
0.00170671
0.000732614
8.03686e-05
1.02886e-05
0.000142693
0.0003751
0.00103891
0.000876383
0.00140205
0.00123502
0.000699842
8.80101e-05
0.000279977
0.000861601
0.000756654
0.000175939
0.00123556
0.00254168
0.00309331
0.0021232
0.00111719
0.000550936
2.89242e-05
0.000127276
4.61744e-06
0.000323833
0.000621565
0.000831796
0.000936662
0.000747159
0.000339688
0.000364607
0.000154624
0.000466427
0.000339758
1.85651e-05
0.00087338
0.00152542
0.0011538
0.00112353
0.000571934
0.000234951
1.00111e-05
9.41284e-05
0.000124701
4.50394e-05
0.000507234
0.000360828
0.000135089
0.000126619
5.34225e-05
0.000308451
0.000222474
0.000253857
0.000184211
0.00015794
7.74688e-05
0.000565421
0.0147859
0.00981135
0.00527479
0.00233352
0.000655148
0.000302247
0.000818224
0.00200142
0.00330595
0.00445704
0.00491875
0.00437255
0.00299942
0.00126483
0.000277997
0.00155047
0.00166146
0.000200797
0.00336024
0.00724806
0.0131424
0.00912024
0.00465469
0.00247248
0.00094144
0.000537014
0.00135385
0.0022868
0.003344
0.00433564
0.00445641
0.00434678
0.00324582
0.00177226
6.96464e-05
0.000745733
0.00113505
0.000508806
0.00305618
0.00673535
0.011755
0.00791165
0.00472535
0.00206722
0.000920178
0.000935275
0.00100733
0.00208256
0.0031821
0.00383351
0.00429234
0.00378919
0.00329893
0.00187962
0.000519624
0.000503888
0.000449486
0.000791817
0.0032125
0.00608602
0.00984772
0.00680258
0.00398286
0.00205216
0.00110185
0.000948101
0.00110986
0.00183901
0.00288565
0.00352879
0.0037926
0.00365276
0.00289454
0.0015563
0.000474088
6.03595e-05
0.000245426
0.000750252
0.00281404
0.00540425
0.00779092
0.00557348
0.00311125
0.00184305
0.00101386
0.000626648
0.00102257
0.00152391
0.00262105
0.0026619
0.00311528
0.0028116
0.00221541
0.00123734
0.000585316
1.60317e-05
0.000119098
0.000851143
0.00256217
0.0042359
0.00573496
0.00414872
0.00259783
0.00137478
0.000692686
0.00054868
0.000876522
0.00126467
0.00185359
0.00217405
0.00240399
0.00187436
0.00179434
0.00101448
0.00031943
0.00015473
2.58195e-06
0.000627637
0.00201668
0.00321452
0.00361602
0.00258323
0.00142922
0.000847927
0.000632431
0.000402858
0.000655431
0.000555593
0.000954254
0.00143759
0.00154597
0.00141408
0.00104251
0.000689703
0.000380369
0.000193416
0.000205682
0.000455325
0.000955489
0.00214918
0.00123674
0.000957737
0.000514623
0.000397625
0.000295539
0.000188829
6.78615e-05
0.000286598
0.000447526
0.000404637
0.000454212
0.000381974
0.000166609
0.000235817
0.000116583
0.000102677
0.00010253
0.000206642
0.000443161
0.00064986
0.0155622
0.0108734
0.00664675
0.00385476
0.00220941
0.00205542
0.00251772
0.00390435
0.005447
0.00670593
0.00703823
0.00689695
0.00555929
0.003452
0.0017878
0.000532046
0.000504088
0.00192448
0.0048941
0.0088554
0.0141771
0.0100046
0.00595677
0.00361599
0.00233049
0.00213454
0.00278894
0.00378283
0.00513372
0.00620805
0.00677593
0.00646028
0.00499467
0.00358651
0.00216445
0.000980029
0.00102184
0.00212712
0.00476694
0.00829782
0.0122796
0.00901314
0.00563658
0.00332996
0.0022295
0.00226144
0.00253943
0.00338079
0.00482883
0.00576265
0.00609095
0.00582728
0.00483566
0.00339736
0.00187044
0.0013796
0.00117301
0.00223225
0.00478686
0.00729803
0.0106685
0.00783477
0.00468747
0.00297711
0.00223182
0.0020861
0.00238594
0.00315492
0.00432291
0.00507811
0.00507832
0.00479643
0.00414572
0.00316715
0.00214816
0.00142993
0.00107301
0.00229024
0.00406194
0.00644637
0.00835591
0.00624972
0.00401611
0.00237029
0.00181978
0.00190487
0.00190052
0.00263913
0.00324377
0.00414209
0.0044848
0.00402098
0.00360392
0.00260826
0.00166042
0.00121507
0.000926178
0.00180898
0.0034265
0.0052815
0.00613429
0.00454789
0.00276402
0.0021469
0.00155827
0.00136513
0.00137186
0.00187238
0.00251111
0.00289564
0.00321203
0.00298883
0.00257375
0.00184702
0.00128585
0.000979112
0.000930652
0.00161509
0.0026408
0.00389122
0.00384106
0.00271453
0.0021414
0.00103546
0.000999347
0.000820575
0.00103039
0.001262
0.00175122
0.001842
0.00182767
0.00201218
0.00162646
0.00113711
0.000790959
0.000508784
0.000776833
0.000843578
0.00165511
0.00225674
0.00125989
0.00100376
0.000609339
0.00018036
0.000363343
8.54539e-05
0.000502035
0.000413898
0.000508235
0.000827427
0.000737071
0.000629901
0.000515209
0.000654857
0.000435032
0.000364272
0.000274817
0.000228033
0.00049425
0.000992357
0.0162089
0.0119896
0.00766866
0.00497495
0.00363409
0.00332191
0.00407944
0.00564837
0.00704543
0.00848976
0.00908275
0.00856907
0.00732202
0.00562446
0.00389016
0.00249918
0.0023646
0.00377112
0.00684127
0.0103467
0.0147194
0.0109944
0.00718829
0.00463532
0.00352839
0.00337119
0.00415817
0.00505936
0.00652008
0.00783025
0.00821425
0.00796446
0.00670466
0.00529393
0.00374802
0.00264147
0.00268559
0.00371841
0.00610666
0.00963972
0.0129669
0.00965677
0.00645903
0.00445347
0.0033327
0.00339659
0.0036535
0.00490858
0.00622868
0.00676957
0.0074981
0.00728182
0.00623556
0.00482353
0.00359136
0.00246241
0.00267995
0.00375122
0.00595212
0.0083865
0.0108416
0.00817642
0.00553289
0.0038916
0.00285011
0.00286838
0.00337635
0.00393426
0.00507552
0.00594127
0.00640752
0.0060229
0.00549927
0.00411237
0.00307089
0.00262154
0.00267032
0.00322333
0.00512462
0.00733824
0.00876258
0.00666606
0.00458501
0.0028897
0.00247246
0.00260908
0.00271049
0.00340763
0.00427311
0.00481277
0.00510511
0.00504246
0.004361
0.0033066
0.00267268
0.00231766
0.00188719
0.00286281
0.00409775
0.00598422
0.00641624
0.00529069
0.00340037
0.0020856
0.00194823
0.00170906
0.00206486
0.00248604
0.00314635
0.00359531
0.00383113
0.00342915
0.00342047
0.00246949
0.00184075
0.00175215
0.00150964
0.0024525
0.00321144
0.00445586
0.00396398
0.0029539
0.00198152
0.00146389
0.00118384
0.000791822
0.00138596
0.00150541
0.00188575
0.0023868
0.00254074
0.00227849
0.00215114
0.00144822
0.00140964
0.00105831
0.00117151
0.00125978
0.00225749
0.00271336
0.00137319
0.000968275
0.000633996
0.000430843
0.000484682
0.000415477
0.000247694
0.000518603
0.000711206
0.000664691
0.000748816
0.000919409
0.000401547
0.000798517
0.000571111
0.00053933
0.000753236
0.000890929
0.000603218
0.0010467
0.016951
0.0125052
0.00849021
0.00571703
0.0046115
0.00423066
0.00492798
0.00620274
0.00818321
0.00934679
0.0100025
0.00983403
0.00859789
0.00679144
0.00493716
0.00388634
0.0039024
0.00518931
0.00787857
0.011424
0.0148245
0.0114467
0.00817347
0.00564519
0.00448275
0.00416271
0.00486646
0.0060804
0.00747467
0.0088398
0.00946782
0.00887403
0.00794144
0.00638967
0.00481287
0.00390065
0.00377825
0.00505557
0.0074809
0.0103006
0.0134291
0.0101276
0.00698243
0.0048894
0.00389372
0.00386685
0.00443833
0.00556409
0.00657482
0.0075748
0.00852721
0.00816428
0.00717847
0.00581617
0.00462207
0.00346694
0.00365158
0.00488335
0.0068872
0.00945909
0.0111743
0.00851824
0.00620716
0.00448991
0.00342718
0.0034512
0.00401012
0.00481618
0.00585657
0.00665508
0.00714463
0.00710391
0.00608898
0.00521181
0.00412203
0.00320727
0.00337687
0.004168
0.00581273
0.00815834
0.00885249
0.00687727
0.00517607
0.00343511
0.00292708
0.00281516
0.00299514
0.00377446
0.00479001
0.00547372
0.00569111
0.00568076
0.0048968
0.00406271
0.00338354
0.00255096
0.00269162
0.00338073
0.00500159
0.00652845
0.00670239
0.00520404
0.00377009
0.00268109
0.00216468
0.00214391
0.00244544
0.00279988
0.00355896
0.00450138
0.00413048
0.00455521
0.0035966
0.00326063
0.00243837
0.00214482
0.00217538
0.00261443
0.00359344
0.00487858
0.00400374
0.00311531
0.00237359
0.00150628
0.0013783
0.00125169
0.00141679
0.00163633
0.00216631
0.00237622
0.00242723
0.00256731
0.00240045
0.00182796
0.00154024
0.00136342
0.00154961
0.00147906
0.00223979
0.00317808
0.00147313
0.00095264
0.000613396
0.00033512
0.000518659
0.000598293
0.000558666
0.000633076
0.000920768
0.000644762
0.000900643
0.000967328
0.00101986
0.000607468
0.00045458
0.00028189
0.000427516
0.000763415
0.000857024
0.00111545
0.017027
0.0127136
0.00883745
0.00645614
0.00497293
0.00463
0.00548978
0.00680879
0.00813732
0.00960132
0.0103135
0.0101521
0.00901386
0.00749638
0.00597279
0.0047879
0.00492976
0.0059184
0.00883353
0.0120811
0.0151775
0.0118598
0.00832666
0.0060677
0.0047192
0.0046699
0.00525995
0.00628273
0.00802445
0.00898388
0.00959163
0.00953735
0.00840649
0.00696015
0.00529786
0.00454361
0.00466085
0.00583974
0.00849942
0.0111329
0.0132692
0.0102975
0.00747672
0.00528826
0.00435969
0.00432226
0.0046718
0.00580721
0.00699293
0.00799536
0.00854969
0.00827587
0.00759513
0.00625693
0.00505555
0.00418245
0.00454077
0.00550835
0.00757998
0.00996235
0.0111759
0.00877257
0.00648038
0.0046699
0.0038689
0.00398279
0.00389188
0.00508456
0.00600072
0.00679708
0.00746695
0.0070809
0.00644958
0.00542715
0.00446197
0.00385138
0.00397976
0.0048783
0.0066266
0.00860263
0.00899848
0.00686045
0.005245
0.00380356
0.00329359
0.00320371
0.00343883
0.00410164
0.00500677
0.00544161
0.00623926
0.00577372
0.00544739
0.00450697
0.00360437
0.0032263
0.00331784
0.00393114
0.00538398
0.00706971
0.00671029
0.00524073
0.0039111
0.00282258
0.00261291
0.00222518
0.00253054
0.00302239
0.00345761
0.00417415
0.0043367
0.00446888
0.00392105
0.00342146
0.00281591
0.00237604
0.00239965
0.00297805
0.00401572
0.00504244
0.00391532
0.00335659
0.00255561
0.00184439
0.00150091
0.00136699
0.00116096
0.00170396
0.00223463
0.00243921
0.00301728
0.00239706
0.00256272
0.0021121
0.00175285
0.00137365
0.00142152
0.00204001
0.00260172
0.00322004
0.00163181
0.000924032
0.000721119
0.00075661
0.000786908
0.000277098
0.000547897
0.000835304
0.000945417
0.000839899
0.000898111
0.00123093
0.000909323
0.000861444
0.000550876
0.000442713
0.000684239
0.000517617
0.00110959
0.00114785
0.016506
0.0127669
0.00910948
0.00619791
0.0051996
0.00492781
0.00544416
0.0066347
0.00802951
0.00935548
0.00985794
0.00992927
0.00881927
0.00736614
0.00593893
0.00510206
0.00510992
0.00686665
0.00910069
0.0120539
0.0149528
0.0116286
0.00838626
0.00610159
0.00472965
0.00465571
0.00503205
0.00641278
0.00772785
0.00863448
0.00898908
0.00903946
0.00813361
0.00716594
0.00582505
0.00525415
0.00521251
0.00653682
0.00836226
0.0111311
0.0129329
0.0101308
0.00742811
0.00552291
0.00458118
0.00405128
0.00461466
0.00576966
0.00670703
0.0075806
0.00833436
0.00827838
0.00749338
0.00641348
0.00528268
0.00458944
0.00481249
0.00560723
0.00760199
0.0101633
0.0111116
0.00874515
0.00634814
0.00473288
0.00380605
0.0035819
0.00409777
0.00496449
0.00568272
0.00665137
0.00716211
0.00706816
0.00644624
0.00583887
0.00454631
0.00431391
0.00430575
0.00531125
0.00674739
0.00854534
0.00863583
0.00705827
0.00528752
0.00376893
0.00325838
0.00289722
0.00359339
0.00407793
0.00455022
0.00532839
0.00573524
0.00571954
0.00510711
0.00466564
0.00379118
0.0035685
0.0037394
0.00406731
0.00542458
0.00694483
0.00622549
0.00518066
0.00391485
0.00313377
0.00248481
0.00226604
0.00273225
0.00293274
0.00362705
0.00395088
0.00424735
0.00425263
0.00398507
0.00334308
0.00307174
0.00263203
0.00264167
0.00331511
0.00411339
0.00521364
0.00392696
0.00295736
0.0024514
0.00179904
0.00144775
0.00158958
0.0016809
0.00178948
0.00225858
0.00240859
0.00283593
0.00256954
0.00252771
0.00218045
0.00182637
0.00149267
0.00153472
0.00209232
0.00292542
0.0030277
0.00137527
0.00110996
0.000632065
0.000671336
0.000324033
0.000480513
0.000795195
0.00062213
0.000907774
0.000657208
0.000985774
0.000754782
0.000806011
0.000767073
0.000562762
0.000697411
0.000856874
0.000520626
0.00120077
0.00113204
0.0158773
0.0121259
0.00834263
0.00581769
0.00439883
0.00431856
0.00465152
0.005637
0.00725936
0.00828484
0.00883612
0.0084086
0.00794989
0.00653598
0.00569458
0.00483775
0.00506663
0.00646116
0.00892862
0.011885
0.0142538
0.0107724
0.0076585
0.00559755
0.00445217
0.00429832
0.00444294
0.00558331
0.00691103
0.00754239
0.00820415
0.0082716
0.00746303
0.00627506
0.00528932
0.00473918
0.00495703
0.00631908
0.00824582
0.010981
0.0123849
0.00992047
0.00712428
0.00509242
0.00424488
0.00402865
0.00431615
0.00503484
0.00595746
0.00717952
0.00762445
0.00737914
0.00667778
0.00548542
0.00498075
0.00460865
0.00481386
0.00577895
0.00769853
0.00978327
0.0106025
0.00823548
0.00612556
0.0046114
0.0038416
0.00355897
0.00382879
0.00420592
0.00508599
0.00578119
0.00632226
0.00630628
0.00576745
0.00501301
0.00434671
0.0041361
0.00406389
0.00517012
0.00679544
0.00864412
0.00836271
0.00666752
0.00503777
0.00367606
0.00290308
0.00272164
0.00306472
0.00378359
0.00411053
0.00495788
0.00537202
0.00517215
0.00479721
0.00432665
0.00356433
0.00333625
0.00351507
0.00434083
0.00538927
0.00694896
0.00639605
0.00490808
0.00378211
0.00269558
0.00233888
0.00224529
0.00235521
0.0027703
0.00328813
0.00367653
0.0038615
0.00388955
0.00372806
0.00313999
0.00269852
0.00229491
0.00278295
0.0032162
0.00400604
0.00539105
0.00394249
0.00303014
0.00214778
0.00179581
0.00126668
0.00119067
0.00134516
0.00173906
0.00195543
0.00218595
0.00244647
0.00257452
0.00225981
0.00193408
0.00169006
0.00151004
0.00184366
0.00206079
0.00251522
0.00335185
0.00129245
0.00101904
0.000758102
0.000459523
0.000654341
0.000711976
0.000394377
0.000774065
0.000657815
0.000898934
0.000778537
0.000634381
0.00066922
0.00071341
0.000593629
0.000565357
0.000722694
0.000905228
0.00093583
0.00102858
0.0144242
0.0106935
0.00733479
0.0048282
0.00358581
0.00313727
0.00351734
0.00433846
0.00547374
0.00661066
0.00702946
0.00680341
0.00628475
0.00523889
0.00429307
0.00401389
0.004207
0.00571372
0.00820512
0.0111402
0.0131275
0.00998853
0.00710287
0.00467126
0.00346801
0.00326946
0.00363406
0.00435303
0.00516635
0.00624429
0.00649722
0.0065315
0.00601451
0.00498714
0.00425528
0.00398971
0.00453923
0.0053871
0.00778407
0.010333
0.0116027
0.00887091
0.00636431
0.00437678
0.00320253
0.00286195
0.00326204
0.00399471
0.004699
0.00566229
0.00606663
0.00601091
0.00542298
0.00506473
0.00395738
0.00389166
0.00427844
0.005065
0.00718004
0.00926575
0.00987001
0.0079004
0.00548334
0.00395016
0.00294456
0.00273735
0.00279857
0.00357617
0.00424949
0.00482626
0.00512635
0.00525689
0.00502553
0.00413677
0.00379862
0.00330342
0.00357494
0.00459067
0.00592427
0.0078628
0.00793103
0.00621397
0.00434311
0.00336786
0.00230457
0.00232153
0.00234965
0.00290925
0.00343777
0.00401911
0.00437157
0.00428859
0.00394471
0.0033439
0.00316592
0.00302074
0.00311213
0.00398155
0.00506266
0.00620136
0.00573769
0.00490985
0.00298791
0.00256918
0.00188886
0.00181257
0.00190885
0.00238796
0.00269624
0.00326245
0.00323428
0.00315761
0.00291904
0.0027114
0.00227896
0.00227043
0.002379
0.00302243
0.00371183
0.00482237
0.00367222
0.00301591
0.00185503
0.00139115
0.00132839
0.000963709
0.00103081
0.0012191
0.00153787
0.00197466
0.00216577
0.00179473
0.0020398
0.00177258
0.001667
0.00153212
0.00135536
0.00189676
0.00228779
0.00284746
0.00124745
0.000979735
0.000663572
0.000557578
0.00036683
0.000372531
0.000474342
4.02446e-05
0.000429297
0.000657669
0.000566702
0.000780368
0.000640555
0.000557799
0.000550579
0.000411512
0.000320037
0.000654935
0.000808912
0.00127949
0.0126443
0.00928839
0.0057959
0.00342746
0.00199168
0.00156508
0.00161807
0.0024214
0.00323274
0.00398667
0.004597
0.00469696
0.0040225
0.00336385
0.00255766
0.00218773
0.00308982
0.00436238
0.0067193
0.00946172
0.0113658
0.00847032
0.00562313
0.0035658
0.00222788
0.00169828
0.00189533
0.0025663
0.00329401
0.0041942
0.00459013
0.00450402
0.00377109
0.00351908
0.00277889
0.00229969
0.00306854
0.00451031
0.00652291
0.00884913
0.0102568
0.00778103
0.00514471
0.00317281
0.00222199
0.00183302
0.00169625
0.00238716
0.00327518
0.00387146
0.00433403
0.00417521
0.00384669
0.00318671
0.00293413
0.00260528
0.00297676
0.00420714
0.00605206
0.00787489
0.00848595
0.00634666
0.00441594
0.00266067
0.00188027
0.00161249
0.00177865
0.00230498
0.00282512
0.00350319
0.00383129
0.00365659
0.00346743
0.00291319
0.00257065
0.00249936
0.00293875
0.00367345
0.00539602
0.00711048
0.006808
0.00531339
0.00370641
0.00245932
0.00170338
0.0013365
0.00172002
0.00204588
0.0023958
0.0026506
0.00306918
0.00299826
0.00301095
0.00244304
0.00209009
0.00206458
0.00253285
0.00312418
0.00433896
0.00565722
0.00516529
0.00400973
0.00276599
0.00172679
0.00129109
0.00109073
0.0011969
0.00160904
0.00203063
0.0023089
0.00213355
0.00238453
0.00220224
0.00198229
0.00161928
0.00154196
0.00169018
0.00222003
0.00330531
0.00438673
0.00332006
0.00232051
0.00171445
0.00139612
0.000755354
0.00055243
0.000893953
0.000584832
0.0011222
0.00123764
0.00144003
0.00120016
0.00154253
0.00115785
0.00105646
0.00119367
0.000913057
0.00148563
0.00204128
0.00260705
0.000973486
0.000866704
0.000788841
0.0003429
0.000264213
0.000250303
0.000226376
0.000244491
0.000304696
0.000472504
0.000792983
0.000436173
0.000464769
0.000260615
0.000506122
0.000541603
0.000236863
0.000521345
0.000635878
0.00120616
0.0105393
0.00706624
0.00354495
0.00149031
1.40031e-05
0.000617537
0.000586872
2.65028e-05
0.000688036
0.00134884
0.00168601
0.00176587
0.00157885
0.000816883
0.000175258
0.000380603
0.00112974
0.00267095
0.0051059
0.00753117
0.00950433
0.00669185
0.00384041
0.00161478
0.000284445
4.72878e-05
4.81287e-05
0.000491384
0.00103175
0.00159654
0.00204664
0.00206738
0.00180369
0.00130459
0.000929993
0.00080253
0.0015291
0.00263153
0.00483483
0.0072626
0.00858765
0.00589106
0.00336524
0.00148296
0.00065747
6.0409e-05
0.000470327
0.000692875
0.00108816
0.00158269
0.00203881
0.00206072
0.00167482
0.00130095
0.00119266
0.00109813
0.00162734
0.00290952
0.00471965
0.00674214
0.00734797
0.00521524
0.00300067
0.00171545
0.00057447
0.000384319
0.000149039
0.000691612
0.00117317
0.00161383
0.00170026
0.00196419
0.00182498
0.0014691
0.00111077
0.00112868
0.00163132
0.00267174
0.00426472
0.00584625
0.00580255
0.00445362
0.00263282
0.00138414
0.00101917
0.000346784
0.000441818
0.000726282
0.0010221
0.00151096
0.00184783
0.00150224
0.00135473
0.00144744
0.00117791
0.00119677
0.00129606
0.00248198
0.0036755
0.0046263
0.00441309
0.00304142
0.0021054
0.0011249
0.000445383
0.000482439
0.000521465
0.000819633
0.000800979
0.00121603
0.0010609
0.00118526
0.00101236
0.00106024
0.000986554
0.00108792
0.00101126
0.00162273
0.0027704
0.0036111
0.00276044
0.00204561
0.00121427
0.00057786
0.000395164
0.00036212
0.000303258
0.000484085
0.000592277
0.000895492
0.001118
0.000749682
0.000578096
0.000795276
0.000663294
0.000657727
0.000774972
0.00129118
0.00194803
0.00224623
0.000976411
0.000497781
0.000356659
0.000282028
3.86784e-05
0.000121613
0.000144323
4.83199e-05
0.000322324
2.71486e-05
0.000189853
0.00031119
0.000419623
4.35001e-05
0.000466309
0.000352182
0.000121382
0.000468556
0.00068536
0.000815336
0.00808044
0.00464613
0.00136652
0.00114104
0.00255684
0.00303528
0.00322326
0.00301643
0.002353
0.00199182
0.00155168
0.00177139
0.0016668
0.0020853
0.00240891
0.00193309
0.00129628
0.000240878
0.00280455
0.00561448
0.00734636
0.00450006
0.00152909
0.000529246
0.00185088
0.00234329
0.00222067
0.00211888
0.00179128
0.00118713
0.000985944
0.000967761
0.00110011
0.00133592
0.00150169
0.00145026
0.000596387
0.000936254
0.00296997
0.00515119
0.00624607
0.00420675
0.00147582
1.92675e-05
0.00130054
0.00164538
0.00196974
0.00162327
0.00128262
0.000733791
0.000424186
0.000403629
0.000829574
0.00079628
0.000939568
0.000815084
0.000202451
0.00115545
0.0031483
0.00486253
0.00574946
0.00371181
0.00171519
5.2703e-06