/*--------------------------------*- C++ -*----------------------------------*\
| =========                 |                                                 |
| \\      /  F ield         | OpenFOAM: The Open Source CFD Toolbox           |
|  \\    /   O peration     | Version:  2212                                  |
|   \\  /    A nd           | Website:  www.openfoam.com                      |
|    \\/     M anipulation  |                                                 |
\*---------------------------------------------------------------------------*/
FoamFile
{
    version     2.0;
    format      ascii;
    arch        "LSB;label=32;scalar=64";
    class       volScalarField;
    location    "./ITHACAoutput/true/16.6";
    object      error;
}
// * * * * * * * * * * * * * * * * * * * * * * * * * * * * * * * * * * * * * //

dimensions      [0 0 0 1 0 0 0];

internalField   nonuniform List<scalar> 
3200
(
0.176628
-0.247636
-0.803043
-1.23264
-1.56297
-1.64984
-1.73747
-1.75791
-1.61915
-1.41114
-1.38578
-1.06461
-0.796043
-0.594227
-0.134978
0.335957
0.779811
1.43791
2.16896
2.9148
-0.00833053
-0.415188
-0.925211
-1.3384
-1.49199
-1.62219
-1.7854
-1.73851
-1.64612
-1.52184
-1.25992
-1.16655
-0.949131
-0.705814
-0.399589
0.0494217
0.563258
1.08041
1.69427
2.24281
-0.114642
-0.524922
-0.909494
-1.26376
-1.44795
-1.55763
-1.59597
-1.65707
-1.49721
-1.38603
-1.31093
-1.13995
-0.934246
-0.762683
-0.437865
-0.0889546
0.295578
0.815999
1.29543
1.73773
-0.195578
-0.471328
-0.848042
-1.08871
-1.28131
-1.40596
-1.41994
-1.43373
-1.27822
-1.28894
-1.17708
-1.0741
-0.926604
-0.721304
-0.358347
-0.224504
0.171165
0.504942
1.01421
1.44833
-0.196079
-0.450611
-0.738439
-0.861429
-1.02188
-1.17262
-1.20683
-1.17518
-1.0771
-1.01118
-0.948653
-0.899997
-0.698972
-0.585377
-0.438146
-0.178805
0.0871227
0.404388
0.734871
1.11678
-0.133702
-0.387479
-0.488599
-0.705134
-0.747907
-0.829053
-0.848251
-0.870213
-0.823516
-0.811144
-0.695801
-0.629572
-0.580284
-0.413637
-0.323941
-0.133283
0.0163956
0.259932
0.551067
0.656969
-0.130876
-0.196488
-0.353033
-0.451115
-0.520842
-0.517434
-0.55057
-0.512748
-0.491205
-0.438457
-0.475215
-0.370352
-0.326125
-0.293487
-0.173545
-0.0586379
0.0115852
0.128836
0.351663
0.464877
-0.0796133
-0.0269063
-0.136871
-0.118218
-0.191474
-0.242692
-0.170899
-0.163774
-0.173664
-0.201277
-0.177571
-0.124566
-0.131119
-0.116542
-0.0478676
0.000131652
-0.0684241
0.0473381
0.120809
0.135892
-0.679547
-1.22321
-1.82377
-2.23633
-2.50714
-2.79397
-2.79559
-2.83641
-2.69747
-2.53154
-2.43564
-2.20596
-1.96197
-1.58341
-1.24253
-0.795421
-0.206698
0.560584
1.25942
1.98994
-0.74968
-1.16965
-1.65251
-2.07749
-2.40714
-2.51328
-2.56536
-2.65497
-2.5398
-2.45964
-2.27494
-2.05863
-1.87808
-1.5814
-1.22985
-0.795263
-0.326901
0.291798
0.912308
1.54779
-0.703175
-1.20542
-1.56
-1.88329
-2.11936
-2.26713
-2.32533
-2.25556
-2.207
-2.14058
-2.04065
-1.86362
-1.68666
-1.45412
-1.18903
-0.729755
-0.418448
0.152679
0.693799
1.26602
-0.667202
-1.04077
-1.28518
-1.55559
-1.80465
-1.90988
-1.90196
-1.96042
-1.80073
-1.85371
-1.74793
-1.60457
-1.41835
-1.18433
-1.00576
-0.656127
-0.290054
0.0643234
0.556162
0.938746
-0.557613
-0.852346
-1.0892
-1.21847
-1.48355
-1.54537
-1.54608
-1.5255
-1.55511
-1.42328
-1.39448
-1.30324
-1.15591
-1.0269
-0.832482
-0.607697
-0.253409
-0.0342988
0.333565
0.754795
-0.366183
-0.623806
-0.76688
-1.00691
-1.02482
-1.18741
-1.19302
-1.10431
-1.08231
-1.01238
-0.999907
-0.871538
-0.896562
-0.761264
-0.592701
-0.399549
-0.191174
-0.00989149
0.184406
0.500967
-0.307472
-0.404113
-0.490459
-0.546733
-0.598947
-0.618732
-0.721908
-0.710881
-0.677617
-0.591124
-0.683144
-0.592362
-0.457711
-0.447122
-0.351587
-0.224523
-0.147644
-0.0386014
0.189104
0.340289
-0.0764361
-0.138422
-0.163131
-0.176312
-0.194122
-0.230474
-0.299426
-0.251921
-0.301862
-0.227808
-0.179889
-0.199719
-0.17449
-0.193059
-0.117181
-0.138407
-0.030028
-0.060709
0.041582
0.055294
-1.72052
-2.33294
-2.94975
-3.48319
-3.7856
-3.97111
-4.17712
-4.08128
-4.02292
-3.87859
-3.73071
-3.55029
-3.19039
-2.89824
-2.48009
-1.96261
-1.36828
-0.666615
0.0921008
0.838573
-1.59333
-2.10214
-2.72703
-3.20476
-3.47561
-3.66139
-3.6797
-3.72926
-3.72974
-3.59067
-3.47662
-3.22626
-3.0056
-2.64001
-2.31658
-1.84713
-1.34203
-0.748437
0.0224902
0.659665
-1.50963
-1.87058
-2.34796
-2.72268
-3.03415
-3.14359
-3.27123
-3.20903
-3.14147
-3.05289
-2.97274
-2.82258
-2.62757
-2.34763
-2.11086
-1.60789
-1.19119
-0.668927
-0.0923788
0.405815
-1.28833
-1.63972
-2.04518
-2.18571
-2.53794
-2.5868
-2.65802
-2.68573
-2.63583
-2.61641
-2.51045
-2.37235
-2.18396
-1.97324
-1.7721
-1.47293
-0.998646
-0.599994
-0.0836447
0.297233
-1.03721
-1.24352
-1.61609
-1.7698
-2.10696
-2.10678
-2.09599
-2.11731
-2.1444
-2.08639
-1.98698
-1.85668
-1.7544
-1.56821
-1.31695
-1.15583
-0.882892
-0.453079
-0.149644
0.250772
-0.704582
-0.929009
-1.09993
-1.24331
-1.41426
-1.48101
-1.57335
-1.5439
-1.49468
-1.47826
-1.44822
-1.33988
-1.24647
-1.16011
-1.02445
-0.786891
-0.613437
-0.310139
-0.0348233
0.0948036
-0.419185
-0.577928
-0.750622
-0.756058
-0.811761
-0.856536
-0.951676
-1.02215
-0.91606
-0.963745
-0.841873
-0.889644
-0.760758
-0.658932
-0.624795
-0.419772
-0.415844
-0.173799
-0.110366
0.10159
-0.139098
-0.194249
-0.172291
-0.292097
-0.33331
-0.301443
-0.292911
-0.32463
-0.317517
-0.29232
-0.317053
-0.271593
-0.279684
-0.238474
-0.237683
-0.232648
-0.0861479
-0.108357
-0.0696925
0.0275345
-2.7134
-3.38214
-4.01254
-4.58771
-5.04031
-5.20809
-5.36291
-5.38058
-5.3747
-5.20423
-5.08968
-4.851
-4.58095
-4.14002
-3.73086
-3.30095
-2.57023
-1.80847
-0.901121
-0.209161
-2.60198
-3.09191
-3.69892
-4.0731
-4.52532
-4.64126
-4.74445
-4.82606
-4.77996
-4.67936
-4.52861
-4.38345
-4.05539
-3.74698
-3.43328
-2.85412
-2.338
-1.62283
-0.914249
-0.278272
-2.14875
-2.6787
-3.15662
-3.5389
-3.86262
-4.07773
-4.12297
-4.1456
-4.09462
-4.05724
-3.95048
-3.71386
-3.55226
-3.24511
-2.96134
-2.56365
-2.04633
-1.4191
-0.873189
-0.331854
-1.83684
-2.21894
-2.58192
-2.97253
-3.24128
-3.36318
-3.43828
-3.38602
-3.46602
-3.4708
-3.29638
-3.19333
-3.00619
-2.8375
-2.4505
-2.1163
-1.75365
-1.30333
-0.770446
-0.307604
-1.49094
-1.82396
-2.05677
-2.32892
-2.56571
-2.66077
-2.68148
-2.75028
-2.69839
-2.62351
-2.65462
-2.50309
-2.40276
-2.14428
-1.92264
-1.69912
-1.32603
-0.930458
-0.62537
-0.180656
-1.08763
-1.25793
-1.45818
-1.71177
-1.82153
-1.84983
-1.93331
-1.96983
-1.95481
-1.9037
-1.88928
-1.77446
-1.65845
-1.6358
-1.38643
-1.1966
-0.93237
-0.704468
-0.47123
-0.225895
-0.660579
-0.74483
-0.919178
-1.06601
-1.12298
-1.14422
-1.12655
-1.2494
-1.18052
-1.1515
-1.14095
-1.16043
-1.02129
-0.905014
-0.849439
-0.70498
-0.574901
-0.467936
-0.292572
-0.151625
-0.221831
-0.200552
-0.263062
-0.323459
-0.389383
-0.37754
-0.416208
-0.435834
-0.369137
-0.401733
-0.488729
-0.336841
-0.35078
-0.281334
-0.255023
-0.285448
-0.204559
-0.107021
-0.0606811
-0.0712328
-3.59899
-4.33489
-4.9827
-5.58893
-5.94447
-6.39561
-6.48765
-6.64983
-6.57982
-6.39419
-6.2579
-5.959
-5.68562
-5.3904
-4.90553
-4.31855
-3.60915
-2.79002
-1.9329
-1.02289
-3.23162
-3.90579
-4.4474
-4.99164
-5.42621
-5.59838
-5.71167
-5.88407
-5.81258
-5.725
-5.56437
-5.34733
-5.1361
-4.75604
-4.43326
-3.86505
-3.20456
-2.39731
-1.68756
-0.98955
-2.86
-3.3648
-3.84365
-4.32608
-4.61448
-4.81032
-4.98849
-5.01157
-5.01905
-4.94297
-4.81865
-4.56423
-4.43422
-4.11958
-3.73928
-3.35448
-2.77129
-2.18971
-1.58086
-0.976303
-2.43115
-2.78236
-3.19111
-3.62046
-3.83813
-3.9897
-4.11657
-4.15387
-4.16092
-4.12737
-3.99554
-3.8943
-3.6428
-3.44745
-3.21413
-2.78409
-2.37234
-1.85207
-1.27932
-0.848701
-1.86868
-2.18498
-2.48723
-2.80053
-3.06994
-3.14297
-3.21746
-3.25719
-3.27867
-3.17322
-3.14028
-2.99874
-2.82876
-2.66827
-2.50194
-2.20229
-1.79437
-1.49121
-1.03394
-0.683335
-1.31416
-1.60911
-1.85656
-1.97698
-2.1635
-2.26625
-2.39041
-2.35863
-2.30699
-2.37634
-2.24176
-2.22256
-2.10493
-1.96022
-1.80692
-1.60783
-1.37032
-1.04493
-0.735029
-0.431265
-0.846204
-0.987474
-1.05556
-1.20934
-1.28796
-1.35828
-1.44775
-1.4424
-1.47461
-1.35671
-1.39163
-1.2952
-1.27025
-1.17806
-1.09207
-0.95858
-0.855578
-0.70697
-0.444095
-0.292853
-0.293909
-0.254278
-0.347519
-0.393681
-0.445595
-0.455142
-0.44088
-0.469767
-0.473093
-0.426247
-0.437443
-0.383548
-0.362702
-0.408063
-0.363579
-0.29577
-0.309673
-0.203618
-0.190959
-0.0826758
-4.27244
-5.00097
-5.69865
-6.34416
-6.86282
-7.20985
-7.42463
-7.50188
-7.53082
-7.41364
-7.28573
-7.07974
-6.66768
-6.29418
-5.81121
-5.13755
-4.42071
-3.61707
-2.65354
-1.68731
-3.83219
-4.51861
-5.08861
-5.68802
-6.13481
-6.38631
-6.60994
-6.69999
-6.73873
-6.60634
-6.41075
-6.22673
-5.91476
-5.58359
-5.1978
-4.57528
-4.0041
-3.19382
-2.37282
-1.6471
-3.32798
-3.87143
-4.38521
-4.87244
-5.21355
-5.49084
-5.68558
-5.76188
-5.73649
-5.60064
-5.54905
-5.35913
-5.1028
-4.8419
-4.48061
-4.00442
-3.36873
-2.75248
-2.06756
-1.42038
-2.80685
-3.18633
-3.71716
-4.03387
-4.36023
-4.57629
-4.7168
-4.7813
-4.75065
-4.69558
-4.6649
-4.41903
-4.25071
-3.93474
-3.74245
-3.29145
-2.82965
-2.31129
-1.72587
-1.21526
-2.23184
-2.53151
-2.9485
-3.06905
-3.42243
-3.57863
-3.67605
-3.76818
-3.77164
-3.74604
-3.63611
-3.55086
-3.37567
-3.1861
-2.96091
-2.62544
-2.28763
-1.85259
-1.37326
-0.959972
-1.59605
-1.91056
-2.11659
-2.25518
-2.47362
-2.5715
-2.68758
-2.69511
-2.67767
-2.64818
-2.60516
-2.51766
-2.4411
-2.2723
-2.10501
-1.87375
-1.593
-1.32521
-0.955347
-0.737566
-0.927439
-1.07789
-1.28907
-1.38245
-1.52434
-1.48939
-1.56469
-1.57274
-1.65929
-1.56916
-1.54643
-1.55038
-1.43075
-1.36762
-1.20353
-1.1082
-1.00024
-0.80653
-0.618987
-0.401908
-0.287138
-0.353606
-0.440928
-0.423444
-0.418449
-0.512362
-0.573351
-0.582507
-0.537847
-0.484189
-0.52698
-0.587106
-0.441278
-0.476573
-0.46732
-0.351312
-0.324452
-0.236924
-0.271805
-0.134968
-4.70369
-5.43304
-6.27721
-6.98866
-7.50927
-7.92753
-8.22321
-8.33621
-8.34615
-8.21404
-8.10707
-7.83915
-7.47028
-7.06146
-6.49666
-5.9189
-5.01335
-4.19394
-3.15442
-2.17142
-4.23336
-4.86523
-5.58525
-6.14984
-6.58146
-7.04319
-7.24973
-7.33648
-7.3531
-7.32994
-7.13143
-6.90512
-6.65518
-6.20607
-5.8449
-5.17326
-4.5143
-3.67762
-2.8401
-2.00453
-3.63497
-4.21465
-4.82088
-5.27025
-5.78512
-5.94036
-6.20157
-6.32534
-6.37452
-6.23474
-6.12533
-5.99303
-5.6868
-5.42641
-5.00442
-4.43535
-3.90649
-3.23375
-2.4158
-1.83242
-3.06214
-3.52639
-3.9357
-4.3489
-4.74374
-4.92522
-5.17216
-5.27554
-5.19202
-5.12767
-5.09056
-4.90473
-4.74597
-4.45351
-4.06934
-3.74257
-3.16215
-2.69483
-2.0964
-1.50165
-2.38267
-2.7103
-3.14765
-3.40961
-3.74798
-3.82945
-4.05663
-4.0403
-4.12136
-4.02547
-3.97136
-3.95676
-3.68699
-3.47783
-3.21146
-2.85169
-2.49131
-2.12396
-1.66254
-1.18534
-1.73713
-1.99482
-2.25045
-2.43993
-2.65062
-2.78237
-2.99038
-2.99142
-2.95098
-2.95321
-2.85211
-2.77755
-2.64891
-2.52423
-2.31844
-2.06761
-1.8432
-1.45986
-1.16981
-0.936419
-0.967795
-1.20783
-1.35929
-1.4761
-1.64136
-1.64488
-1.69955
-1.74285
-1.80438
-1.78714
-1.65115
-1.6937
-1.60018
-1.43343
-1.42494
-1.26452
-1.10481
-0.915817
-0.731041
-0.460838
-0.324361
-0.402898
-0.450472
-0.509612
-0.594744
-0.62087
-0.614719
-0.685209
-0.581267
-0.63063
-0.532634
-0.575071
-0.547713
-0.541274
-0.467876
-0.420364
-0.419109
-0.285338
-0.307243
-0.144916
-4.89443
-5.80637
-6.52268
-7.30637
-7.93533
-8.36011
-8.68914
-8.88735
-8.91938
-8.83865
-8.70145
-8.36005
-8.01581
-7.56048
-6.97611
-6.35302
-5.4147
-4.45862
-3.41988
-2.51146
-4.35712
-5.0857
-5.84108
-6.49847
-6.98496
-7.38814
-7.6283
-7.84046
-7.85554
-7.82041
-7.63147
-7.4564
-7.0879
-6.70688
-6.16194
-5.61839
-4.8463
-4.03065
-3.12078
-2.30124
-3.82297
-4.41712
-4.96428
-5.60803
-6.06632
-6.38653
-6.50773
-6.73333
-6.76157
-6.73363
-6.58445
-6.40087
-6.10139
-5.76782
-5.26537
-4.72754
-4.18786
-3.46122
-2.65325
-1.9842
-3.15886
-3.59897
-4.17224
-4.5876
-4.97622
-5.28721
-5.43906
-5.53089
-5.50109
-5.47655
-5.38322
-5.25968
-4.94913
-4.82011
-4.45745
-3.97071
-3.46986
-2.8692
-2.2392
-1.72327
-2.46667
-2.82694
-3.28703
-3.57262
-3.89044
-4.11409
-4.34307
-4.34014
-4.38118
-4.24306
-4.27412
-4.10598
-3.94247
-3.71202
-3.46381
-3.16013
-2.69425
-2.22544
-1.72797
-1.34581
-1.81776
-2.10491
-2.32872
-2.5366
-2.83204
-2.95519
-3.01037
-3.07672
-3.12542
-3.11554
-3.02017
-2.93636
-2.81522
-2.60759
-2.42408
-2.22406
-1.97942
-1.66977
-1.26045
-0.93542
-1.16036
-1.27238
-1.44176
-1.54917
-1.66242
-1.86373
-1.86021
-1.83748
-1.84583
-1.88239
-1.83046
-1.74214
-1.65047
-1.59645
-1.52307
-1.32025
-1.21731
-1.03976
-0.843904
-0.638634
-0.340195
-0.506212
-0.481266
-0.527003
-0.520456
-0.588357
-0.621675
-0.592768
-0.590126
-0.684218
-0.673995
-0.64618
-0.544541
-0.456245
-0.426996
-0.472459
-0.43008
-0.336047
-0.236537
-0.138898
-4.82441
-5.70211
-6.63018
-7.35712
-8.04991
-8.56507
-8.91935
-9.10515
-9.16711
-9.09684
-8.97584
-8.70107
-8.35676
-7.83975
-7.21375
-6.42595
-5.59948
-4.57923
-3.54176
-2.47085
-4.42572
-5.06837
-5.82204
-6.55446
-7.11428
-7.6131
-7.86114
-8.07675
-8.16275
-8.10084
-7.88448
-7.7225
-7.34052
-6.90261
-6.39067
-5.67325
-4.92008
-4.08224
-3.09933
-2.26164
-3.76726
-4.43077
-4.99043
-5.60805
-6.09216
-6.52926
-6.73009
-6.95048
-6.99991
-6.96779
-6.77048
-6.55945
-6.32451
-5.966
-5.49077
-4.88911
-4.23287
-3.52506
-2.74394
-2.06692
-3.15494
-3.67279
-4.16626
-4.69835
-5.01937
-5.36787
-5.57473
-5.66215
-5.78245
-5.73648
-5.5937
-5.46559
-5.26488
-4.83447
-4.48513
-4.07571
-3.51025
-2.88662
-2.27465
-1.74118
-2.43582
-2.82973
-3.22487
-3.7216
-3.94929
-4.21657
-4.31466
-4.43522
-4.46124
-4.45217
-4.45424
-4.29996
-4.09113
-3.84641
-3.53183
-3.08381
-2.74809
-2.29657
-1.81171
-1.30168
-1.76029
-2.0688
-2.39991
-2.61694
-2.78831
-3.03138
-3.11039
-3.13855
-3.21839
-3.20564
-3.17598
-3.12821
-2.99893
-2.80884
-2.5364
-2.22171
-2.00557
-1.64154
-1.28576
-0.934591
-1.07771
-1.23522
-1.41776
-1.55467
-1.71377
-1.84945
-1.82613
-1.9454
-1.95342
-1.93819
-1.91674
-1.87728
-1.7816
-1.68487
-1.47599
-1.38794
-1.29001
-0.965674
-0.858835
-0.595785
-0.45294
-0.354367
-0.438986
-0.535792
-0.574837
-0.59877
-0.660661
-0.585134
-0.653042
-0.643875
-0.604882
-0.576377
-0.549434
-0.518527
-0.506059
-0.451454
-0.468282
-0.315226
-0.268376
-0.206942
-4.51493
-5.45711
-6.39384
-7.23351
-7.92842
-8.52301
-8.88062
-9.15788
-9.25519
-9.16881
-9.02783
-8.76241
-8.41663
-7.80956
-7.20266
-6.29585
-5.46428
-4.41418
-3.29003
-2.23404
-4.1048
-4.81753
-5.70719
-6.48007
-6.96989
-7.52389
-7.81574
-8.0359
-8.09254
-8.09323
-8.00944
-7.74923
-7.37665
-6.88255
-6.38161
-5.59154
-4.86147
-3.91204
-2.97999
-2.05264
-3.55817
-4.20221
-4.8689
-5.4958
-6.00562
-6.28886
-6.76405
-6.85543
-6.98203
-7.0184
-6.82025
-6.57867
-6.31844
-5.96688
-5.51453
-4.91855
-4.1621
-3.40531
-2.59508
-1.85186
-2.981
-3.51413
-4.07886
-4.57635
-4.97897
-5.27492
-5.58842
-5.69155
-5.75097
-5.77076
-5.60032
-5.47001
-5.18341
-4.9286
-4.52283
-4.03464
-3.51755
-2.86727
-2.11969
-1.53863
-2.29336
-2.77776
-3.21737
-3.62886
-3.89534
-4.20047
-4.39528
-4.45938
-4.54949
-4.48994
-4.34347
-4.28912
-4.06015
-3.87283
-3.49264
-3.14746
-2.76094
-2.25146
-1.69111
-1.32567
-1.65958
-1.94042
-2.32069
-2.60506
-2.80358
-3.0355
-3.14172
-3.13296
-3.18874
-3.21893
-3.16557
-3.05583
-2.87999
-2.74968
-2.53546
-2.315
-1.91575
-1.63674
-1.15616
-0.981611
-1.02146
-1.21967
-1.38342
-1.50859
-1.65912
-1.82133
-1.85636
-1.90759
-1.95488
-1.89114
-1.89242
-1.86549
-1.77301
-1.71424
-1.56138
-1.32358
-1.20741
-0.994796
-0.725624
-0.520311
-0.412194
-0.383822
-0.434705
-0.497468
-0.547244
-0.594285
-0.700285
-0.640466
-0.63531
-0.628985
-0.67174
-0.564851
-0.589979
-0.526483
-0.48533
-0.437221
-0.40424
-0.31411
-0.238807
-0.185812
-3.98425
-4.88732
-5.96044
-6.86902
-7.58002
-8.1711
-8.62119
-8.81415
-8.98065
-8.98015
-8.74514
-8.57667
-8.04936
-7.63992
-6.89995
-6.00007
-5.09967
-3.99236
-2.86593
-1.7677
-3.62121
-4.42438
-5.24612
-6.04282
-6.70189
-7.2385
-7.49679
-7.82856
-7.93207
-7.95554
-7.80952
-7.49109
-7.19908
-6.68708
-6.08649
-5.39495
-4.51925
-3.53322
-2.52256
-1.65656
-3.16795
-3.79553
-4.5253
-5.14431
-5.77952
-6.20978
-6.42927
-6.72817
-6.81592
-6.78526
-6.71821
-6.47035
-6.1423
-5.76809
-5.23254
-4.61109
-3.9171
-3.10347
-2.23263
-1.45967
-2.60659
-3.14167
-3.77071
-4.39307
-4.77418
-5.08955
-5.34929
-5.59807
-5.63224
-5.54559
-5.53966
-5.34756
-5.12962
-4.75375
-4.28896
-3.85336
-3.22738
-2.59336
-1.89602
-1.34457
-2.08845
-2.48249
-2.94531
-3.39146
-3.76429
-3.97629
-4.23111
-4.26359
-4.36099
-4.37907
-4.33788
-4.18943
-3.92969
-3.66748
-3.41682
-3.02493
-2.49857
-2.00483
-1.42258
-0.989917
-1.43271
-1.82401
-2.08313
-2.4286
-2.66019
-2.88779
-3.05592
-3.18095
-3.0912
-3.179
-3.15248
-3.07543
-2.83444
-2.68227
-2.37955
-2.19509
-1.85609
-1.43946
-0.998525
-0.742849
-0.873498
-1.04086
-1.29249
-1.54249
-1.59945
-1.7541
-1.84425
-1.93349
-1.89706
-1.86924
-1.86418
-1.82855
-1.72578
-1.64367
-1.5283
-1.2755
-1.11571
-0.856695
-0.660108
-0.419148
-0.252622
-0.362271
-0.380093
-0.446414
-0.582014
-0.561338
-0.660861
-0.676642
-0.602002
-0.641769
-0.645023
-0.600489
-0.575675
-0.529567
-0.475851
-0.421219
-0.398224
-0.213845
-0.260894
-0.146847
-3.09646
-4.16119
-5.18314
-6.07132
-6.91331
-7.48615
-7.96863
-8.31928
-8.45133
-8.46975
-8.31498
-8.03675
-7.54194
-7.04476
-6.31954
-5.40341
-4.43924
-3.31259
-2.12119
-0.897393
-2.82716
-3.60649
-4.58663
-5.40727
-6.15781
-6.69908
-7.01904
-7.29959
-7.48595
-7.43649
-7.38157
-7.10006
-6.67877
-6.22337
-5.57676
-4.87075
-3.98264
-2.9893
-1.94077
-1.02816
-2.51647
-3.13379
-3.95488
-4.74105
-5.26176
-5.68694
-6.07367
-6.26742
-6.41513
-6.4292
-6.33897
-6.15164
-5.77475
-5.33128
-4.83293
-4.19087
-3.48991
-2.58693
-1.73556
-0.932802
-2.09321
-2.61901
-3.33073
-3.88334
-4.35964
-4.69605
-5.0484
-5.19206
-5.32151
-5.33397
-5.16002
-5.03192
-4.80787
-4.43833
-3.97851
-3.43781
-2.8129
-2.22902
-1.42598
-0.87257
-1.66311
-2.11051
-2.5493
-3.05171
-3.43493
-3.70026
-3.93155
-4.03012
-4.16838
-4.1184
-4.10463
-3.91098
-3.71712
-3.43302
-3.11538
-2.74615
-2.23802
-1.62424
-1.0875
-0.622686
-1.23602
-1.50148
-1.86458
-2.20457
-2.42668
-2.67202
-2.80764
-2.90723
-2.94633
-2.99483
-2.9715
-2.74829
-2.71814
-2.48307
-2.23473
-1.98579
-1.58037
-1.2076
-0.859264
-0.482017
-0.74645
-0.889137
-1.11251
-1.27254
-1.48113
-1.62539
-1.71507
-1.69044
-1.7947
-1.79666
-1.74377
-1.6788
-1.65184
-1.46388
-1.34421
-1.25542
-0.974881
-0.697996
-0.494255
-0.275303
-0.21634
-0.315887
-0.311531
-0.426064
-0.480091
-0.481647
-0.597431
-0.609501
-0.617486
-0.611004
-0.565712
-0.59776
-0.622222
-0.503477
-0.528077
-0.43274
-0.259016
-0.23068
-0.165606
-0.0910523
-2.0176
-3.0427
-4.15275
-5.15273
-6.01829
-6.65252
-7.14411
-7.47137
-7.60735
-7.71292
-7.57091
-7.19649
-6.79046
-6.15674
-5.39759
-4.55054
-3.48683
-2.33257
-1.06789
0.00348608
-1.89877
-2.72604
-3.70708
-4.61259
-5.28266
-5.86784
-6.40739
-6.59998
-6.7585
-6.76785
-6.60448
-6.35966
-6.0583
-5.47284
-4.80596
-4.05069
-3.16758
-2.12909
-1.00739
-0.0246007
-1.69015
-2.43626
-3.23873
-3.93398
-4.54952
-4.95984
-5.45774
-5.65307
-5.764
-5.74198
-5.66227
-5.4989
-5.11874
-4.66443
-4.16567
-3.50025
-2.75829
-1.80814
-0.932868
-0.137668
-1.4336
-2.05816
-2.64048
-3.27695
-3.77695
-4.15797
-4.52042
-4.72832
-4.80873
-4.87289
-4.74654
-4.52523
-4.3398
-3.90568
-3.46069
-2.92894
-2.27863
-1.57332
-0.806954
-0.167705
-1.16365
-1.60293
-2.11829
-2.57441
-3.02902
-3.21916
-3.56038
-3.69577
-3.76801
-3.72723
-3.6758
-3.55784
-3.36916
-3.05622
-2.7203
-2.28519
-1.79579
-1.1874
-0.631157
-0.168088
-0.883295
-1.18443
-1.4805
-1.89747
-2.11866
-2.39103
-2.47686
-2.57023
-2.67497
-2.66342
-2.72441
-2.54953
-2.42565
-2.20742
-1.95962
-1.59931
-1.27841
-0.865299
-0.527462
-0.134079
-0.550998
-0.674314
-0.908004
-1.0927
-1.26225
-1.4001
-1.52784
-1.53858
-1.63362
-1.6337
-1.62218
-1.54951
-1.44774
-1.35511
-1.13798
-1.03033
-0.795956
-0.582885
-0.289103
-0.0539206
-0.0990382
-0.262366
-0.284047
-0.381105
-0.417979
-0.438493
-0.543976
-0.547372
-0.535424
-0.597138
-0.488738
-0.487775
-0.53685
-0.521861
-0.429002
-0.377726
-0.257224
-0.168774
-0.0841156
-0.0364554
-0.661415
-1.62984
-2.89468
-3.88062
-4.69156
-5.42618
-5.94079
-6.37925
-6.51797
-6.48706
-6.47327
-6.15648
-5.71942
-5.13793
-4.26882
-3.34866
-2.32378
-1.01152
0.194038
1.33704
-0.659828
-1.52695
-2.56414
-3.49963
-4.16835
-4.79808
-5.32366
-5.62075
-5.7812
-5.75392
-5.69911
-5.43616
-5.03322
-4.51853
-3.86453
-3.03912
-2.11609
-1.07856
0.101487
1.06091
-0.650951
-1.39033
-2.29006
-2.99749
-3.66055
-4.1528
-4.54691
-4.83438
-5.05826
-5.01204
-4.92368
-4.67628
-4.3166
-3.85655
-3.31145
-2.62618
-1.7959
-0.96841
0.0269425
0.833145
-0.577207
-1.1857
-1.82926
-2.53258
-2.99977
-3.48683
-3.75809
-4.0175
-4.16715
-4.07471
-4.04114
-3.92213
-3.63002
-3.2291
-2.77064
-2.19335
-1.54333
-0.740541
-0.0407003
0.666332
-0.440323
-0.978084
-1.53138
-1.94848
-2.3426
-2.6986
-2.97433
-3.15568
-3.15027
-3.21689
-3.1185
-3.06577
-2.79409
-2.59968
-2.07604
-1.75813
-1.2344
-0.60832
-0.0322588
0.526497
-0.403613
-0.664019
-1.15199
-1.38167
-1.70288
-1.96513
-2.12587
-2.30664
-2.28127
-2.33966
-2.27516
-2.16444
-2.01419
-1.81366
-1.56035
-1.27051
-0.888044
-0.445423
-0.0415032
0.333482
-0.200537
-0.369952
-0.604625
-0.833731
-1.06298
-1.13225
-1.28054
-1.37716
-1.33935
-1.37484
-1.49899
-1.2933
-1.21037
-1.04667
-0.928427
-0.77047
-0.498099
-0.22928
-0.0727828
0.245104
-0.0800147
-0.0875429
-0.219327
-0.274286
-0.378815
-0.356736
-0.442177
-0.447277
-0.502662
-0.488753
-0.579368
-0.408323
-0.414253
-0.393837
-0.327364
-0.231849
-0.189575
-0.114174
0.0295335
0.119306
1.13914
-0.0240597
-1.26743
-2.31282
-3.19894
-3.96681
-4.52162
-4.97176
-5.06313
-5.13187
-4.9941
-4.71779
-4.27379
-3.64561
-2.84662
-1.95989
-0.79474
0.401848
1.75483
3.02784
0.776975
-0.145752
-1.17597
-2.16672
-2.86613
-3.46675
-3.99899
-4.37079
-4.53205
-4.53726
-4.453
-4.2071
-3.78436
-3.29627
-2.57791
-1.78026
-0.762902
0.299117
1.4497
2.4323
0.512101
-0.174515
-1.04339
-1.82734
-2.54645
-3.0936
-3.49985
-3.76898
-3.9199
-3.96938
-3.89858
-3.58433
-3.31124
-2.81515
-2.2147
-1.56041
-0.724163
0.26012
1.13734
1.99207
0.435658
-0.220468
-0.858484
-1.5582
-2.13509
-2.55106
-2.88454
-3.15741
-3.34127
-3.2512
-3.26855
-3.01545
-2.63448
-2.39316
-1.92219
-1.29841
-0.608712
0.11641
0.921797
1.6331
0.275415
-0.239703
-0.756499
-1.28746
-1.66109
-2.03113
-2.31361
-2.4108
-2.54255
-2.55942
-2.46383
-2.38181
-2.12711
-1.84402
-1.54451
-0.999136
-0.470339
0.111209
0.76083
1.18298
0.126811
-0.2131
-0.534124
-0.920345
-1.20149
-1.42474
-1.58172
-1.7287
-1.8455
-1.91346
-1.80576
-1.64901
-1.53075
-1.28855
-1.03071
-0.724692
-0.429404
0.0474374
0.50421
0.818703
0.174635
-0.0945466
-0.283708
-0.527622
-0.768845
-0.882952
-0.96395
-1.15568
-1.06794
-1.05555
-1.17769
-1.0304
-0.976303
-0.844056
-0.645725
-0.502559
-0.211374
0.055985
0.337478
0.492018
0.125207
0.000579008
-0.154913
-0.226881
-0.241523
-0.212081
-0.293317
-0.451502
-0.395427
-0.444118
-0.348569
-0.30277
-0.259021
-0.318506
-0.135174
-0.192851
-0.0144978
0.041583
0.106864
0.150541
3.05088
1.92511
0.650282
-0.503712
-1.41517
-2.1477
-2.77419
-3.19286
-3.39701
-3.37465
-3.31005
-3.01183
-2.55039
-1.95925
-1.15486
-0.0986741
0.996444
2.23406
3.66669
4.87449
2.49988
1.5417
0.461205
-0.468807
-1.34034
-1.97385
-2.50109
-2.83161
-3.10727
-3.14052
-3.02262
-2.75663
-2.39445
-1.81608
-1.04581
-0.109592
0.69072
1.91876
3.09994
4.19833
2.08946
1.26333
0.390554
-0.45206
-1.16154
-1.74034
-2.16463
-2.55478
-2.68493
-2.67843
-2.62327
-2.3458
-2.06977
-1.60199
-0.96514
-0.208095
0.580905
1.53841
2.57169
3.44512
1.545
0.945176
0.244485
-0.442383
-1.00304
-1.38927
-1.77966
-2.13401
-2.18459
-2.28112
-2.24275
-2.02565
-1.71452
-1.31907
-0.85446
-0.253389
0.406642
1.2008
2.0485
2.77404
1.21677
0.765797
0.200461
-0.418052
-0.844297
-1.13067
-1.5036
-1.63494
-1.7198
-1.80328
-1.77541
-1.59719
-1.33184
-1.12378
-0.656656
-0.214588
0.398118
0.970566
1.56455
2.09375
0.838494
0.464245
0.0875707
-0.220866
-0.510674
-0.864165
-1.02272
-1.12338
-1.24922
-1.31014
-1.24646
-1.17131
-0.961607
-0.758834
-0.488287
-0.0621216
0.221344
0.698555
1.12536
1.47459
0.505024
0.374824
0.0637458
-0.160526
-0.400757
-0.503714
-0.623941
-0.759817
-0.730263
-0.704706
-0.732256
-0.681524
-0.578698
-0.523619
-0.275651
-0.132168
0.128643
0.416603
0.691927
0.852014
0.131987
0.0688807
0.0530317
-0.0638685
-0.0995791
-0.187185
-0.220551
-0.282555
-0.236799
-0.247035
-0.22526
-0.253732
-0.208627
-0.181032
-0.107596
-0.0204453
0.126957
0.143173
0.180291
0.363924
5.21181
3.98708
2.8362
1.66165
0.654117
-0.136942
-0.677702
-1.15543
-1.37313
-1.45722
-1.28429
-1.00161
-0.581671
0.0184606
0.92604
1.81456
3.0521
4.38879
5.73099
6.99645
4.37491
3.38409
2.2896
1.33936
0.474238
-0.250375
-0.721877
-1.1853
-1.34673
-1.43765
-1.20397
-0.993375
-0.653817
-0.097995
0.655242
1.58577
2.5253
3.66987
4.87267
5.93565
3.61394
2.8548
1.90355
1.05247
0.371879
-0.246209
-0.835635
-1.02628
-1.17795
-1.28364
-1.15137
-0.886803
-0.634632
-0.101499
0.491204
1.2331
2.1128
3.06822
4.02225
4.96887
2.95447
2.31247
1.45882
0.826588
0.255473
-0.266351
-0.676551
-0.970928
-0.948346
-1.11709
-1.05355
-0.761461
-0.549749
-0.153228
0.404011
0.954491
1.71132
2.45762
3.29623
4.02542
2.248
1.73628
1.16017
0.591818
0.161269
-0.255647
-0.513315
-0.759274
-0.870596
-0.882836
-0.738886
-0.658899
-0.419818
-0.120262
0.318051
0.709891
1.24304
1.88362
2.53507
3.10829
1.58695
1.18336
0.855007
0.416384
0.137168
-0.1475
-0.310999
-0.577935
-0.55915
-0.626291
-0.580938
-0.503365
-0.283595
-0.111626
0.142201
0.471446
0.807632
1.35128
1.88354
2.19044
0.974865
0.711704
0.495775
0.309119
0.0716754
-0.103602
-0.216306
-0.315705
-0.386741
-0.393682
-0.379722
-0.301708
-0.195552
-0.0975435
0.0839436
0.300628
0.615102
0.830192
1.11206
1.31547
0.305361
0.291509
0.224549
0.0671148
0.0127337
-0.0268986
-0.110794
-0.0596547
-0.137237
-0.128442
-0.0823959
-0.131691
-0.0831422
-0.0378877
0.0755562
0.125991
0.214842
0.300081
0.364047
0.46189
7.60365
6.41937
5.15228
4.04163
2.96994
2.10814
1.5096
1.01112
0.773327
0.674982
0.83487
1.12263
1.69305
2.32711
3.10751
4.11094
5.30786
6.59563
8.07633
9.34462
6.43516
5.48523
4.35677
3.30865
2.39296
1.70729
1.14596
0.781072
0.583113
0.489747
0.552557
0.826689
1.27099
1.83988
2.53109
3.47007
4.40364
5.6098
6.92528
7.95366
5.39039
4.5364
3.60505
2.74432
1.97844
1.34815
0.845459
0.598712
0.374937
0.319971
0.390331
0.609814
1.02313
1.443
2.11456
2.81323
3.70583
4.68359
5.68325
6.66876
4.34804
3.70821
2.92356
2.19614
1.56972
1.08574
0.658136
0.475287
0.307245
0.146324
0.317773
0.418733
0.714722
1.1767
1.70319
2.26479
3.01817
3.8607
4.65574
5.40911
3.2843
2.83839
2.23227
1.73298
1.22437
0.839768
0.457727
0.279485
0.194448
0.118191
0.104196
0.35858
0.603031
0.878124
1.30173
1.77314
2.30163
2.91233
3.63823
4.15949
2.44357
2.02649
1.64797
1.13049
0.823777
0.579945
0.37474
0.17511
0.18414
0.0725917
0.116627
0.1613
0.337931
0.623225
0.934306
1.22864
1.66547
2.12806
2.5838
2.97469
1.4277
1.11088
0.91663
0.729757
0.510549
0.323374
0.240847
0.095105
0.0755404
0.053765
0.0604544
0.19535
0.23025
0.335474
0.543611
0.819935
0.988396
1.26295
1.5108
1.69004
0.518225
0.419838
0.325595
0.235584
0.21445
0.0856054
0.0971408
0.0992777
0.00434552
-0.0163872
0.0481778
0.0963431
0.0994289
0.128445
0.223769
0.283631
0.333277
0.474502
0.498824
0.613387
9.92985
8.76951
7.48161
6.37807
5.27924
4.42222
3.84421
3.2135
3.04335
2.89617
3.07807
3.34236
3.84553
4.52068
5.3259
6.34974
7.58185
8.91677
10.3808
11.6732
8.49463
7.53209
6.41694
5.33248
4.40301
3.65891
3.11399
2.70091
2.49521
2.36785
2.4616
2.73835
3.10155
3.69101
4.50714
5.29225
6.40047
7.59537
8.87129
9.92027
7.07407
6.28299
5.25954
4.31868
3.5831
3.0048
2.55765
2.15134
1.97128
1.91546
2.00429
2.17763
2.51172
3.06972
3.72247
4.47062
5.32842
6.3021
7.33498
8.3081
5.61878
5.06156
4.2922
3.51196
2.85419
2.36334
2.00736
1.70729
1.57573
1.53319
1.58176
1.75969
2.03604
2.45345
2.9136
3.61352
4.40724
5.09521
5.95226
6.6799
4.37358
3.8756
3.19432
2.70816
2.19349
1.82167
1.4955
1.23471
1.12064
1.14454
1.12495
1.32751
1.59172
1.81812
2.2774
2.8017
3.34367
3.98995
4.57037
5.17728
3.1702
2.76612
2.31525
1.89162
1.54942
1.3088
1.05631
0.892277
0.807537
0.836055
0.776112
0.929074
1.08759
1.29996
1.62409
1.97281
2.33436
2.78283
3.25702
3.69587
1.83588
1.64087
1.41595
1.208
0.89456
0.761903
0.604182
0.482284
0.495634
0.450929
0.447062
0.566159
0.587162
0.811313
0.999176
1.13769
1.43583
1.74996
1.93252
2.22338
0.644077
0.520428
0.411669
0.337997
0.314548
0.261643
0.207539
0.187023
0.20606
0.180617
0.208131
0.211825
0.194097
0.241655
0.362995
0.332589
0.414327
0.572068
0.682726
0.685536
11.9162
10.681
9.35881
8.18353
7.12637
6.22754
5.54215
5.1639
4.87436
4.80092
4.88133
5.11282
5.64913
6.3117
7.14232
8.25207
9.39926
10.8005
12.2229
13.6012
10.019
8.94996
7.97207
6.80842
5.97454
5.23294
4.5574
4.11361
3.96046
3.83289
4.00391
4.1925
4.63447
5.28997
5.95021
6.88025
7.95038
9.09679
10.3301
11.5098
8.35176
7.51302
6.51252
5.6273
4.87157
4.16965
3.65862
3.38782
3.19222
3.12774
3.21748
3.35493
3.7644
4.28466
4.92361
5.67593
6.51423
7.54442
8.60932
9.49046
6.64596
5.99139
5.24986
4.49558
3.82297
3.3664
2.98926
2.58689
2.43156
2.37214
2.48228
2.71945
2.98697
3.39022
3.88142
4.51126
5.33914
6.07209
6.93481
7.70349
5.16009
4.60306
3.98529
3.39289
2.87639
2.50911
2.23417
1.98778
1.92567
1.74482
1.87367
1.99504
2.25549
2.55222
2.99157
3.41081
4.00482
4.65714
5.35931
5.94363
3.56904
3.27645
2.87881
2.43498
2.06406
1.80546
1.60615
1.40359
1.29516
1.28035
1.3852
1.39377
1.55109
1.78417
2.06847
2.48922
2.81227
3.35242
3.86609
4.20141
2.26552
1.9174
1.76328
1.46727
1.2498
1.05386
0.947573
0.840156
0.818195
0.702994
0.771608
0.837943
0.88649
1.12498
1.24598
1.46386
1.65086
1.95929
2.26446
2.50868
0.798529
0.716991
0.562874
0.496586
0.456329
0.336389
0.283553
0.290881
0.256664
0.193314
0.291324
0.258082
0.380097
0.329933
0.481699
0.424677
0.566559
0.63628
0.767665
0.816401
)
;

boundaryField
{
    hotSide
    {
        type            calculated;
        value           nonuniform List<scalar> 
400
(
0.882155
0.0289019
-1.00623
-1.99032
-2.86418
-3.52293
-3.9365
-4.10655
-4.01284
-3.67661
-3.11612
-2.19543
-1.08059
0.314709
2.1575
4.11461