/*--------------------------------*- C++ -*----------------------------------*\
| =========                 |                                                 |
| \\      /  F ield         | OpenFOAM: The Open Source CFD Toolbox           |
|  \\    /   O peration     | Version:  2212                                  |
|   \\  /    A nd           | Website:  www.openfoam.com                      |
|    \\/     M anipulation  |                                                 |
\*---------------------------------------------------------------------------*/
FoamFile
{
    version     2.0;
    format      ascii;
    arch        "LSB;label=32;scalar=64";
    class       volScalarField;
    location    "0";
    object      stateMean;
}
// * * * * * * * * * * * * * * * * * * * * * * * * * * * * * * * * * * * * * //

dimensions      [0 0 0 1 0 0 0];

internalField   nonuniform List<scalar> 
3200
(
341.842
342.504
343.363
344.124
344.795
345.217
345.613
345.894
345.945
345.838
345.813
345.391
344.932
344.47
343.702
342.896
342.111
341.122
340.087
339.104
336.54
337.148
337.92
338.619
339.068
339.488
339.918
340.097
340.168
340.131
339.869
339.689
339.307
338.839
338.266
337.527
336.718
335.915
335.039
334.289
331.111
331.688
332.292
332.889
333.323
333.677
333.941
334.192
334.17
334.132
334.057
333.813
333.469
333.108
332.557
331.964
331.329
330.567
329.868
329.258
325.615
326.025
326.582
327.02
327.416
327.741
327.939
328.108
328.065
328.136
328.024
327.861
327.601
327.24
326.693
326.36
325.76
325.229
324.54
323.971
320.006
320.364
320.79
321.067
321.386
321.693
321.87
321.958
321.948
321.928
321.866
321.771
321.482
321.248
320.958
320.543
320.119
319.648
319.178
318.693
314.309
314.635
314.836
315.162
315.318
315.51
315.631
315.739
315.756
315.776
315.661
315.562
315.449
315.197
315.005
314.703
314.441
314.087
313.697
313.518
308.653
308.761
308.978
309.142
309.28
309.342
309.437
309.451
309.467
309.433
309.47
309.346
309.264
309.179
308.999
308.818
308.679
308.496
308.213
308.057
302.938
302.899
303.029
303.032
303.128
303.202
303.151
303.161
303.184
303.217
303.194
303.135
303.128
303.097
303.007
302.937
302.982
302.845
302.751
302.722
342.874
343.653
344.555
345.295
345.904
346.521
346.829
347.126
347.175
347.109
347.013
346.684
346.252
345.616
344.97
344.192
343.266
342.17
341.171
340.204
337.434
338.054
338.797
339.504
340.126
340.519
340.834
341.147
341.194
341.199
341.014
340.713
340.37
339.85
339.236
338.514
337.754
336.852
335.972
335.136
331.828
332.496
333.07
333.632
334.115
334.505
334.786
334.904
334.992
334.998
334.898
334.649
334.335
333.915
333.427
332.726
332.167
331.357
330.597
329.859
326.192
326.7
327.122
327.589
328.039
328.342
328.516
328.727
328.68
328.792
328.686
328.484
328.185
327.798
327.438
326.89
326.323
325.773
325.103
324.586
320.45
320.847
321.222
321.503
321.926
322.141
322.283
322.382
322.498
322.411
322.382
322.246
322.012
321.764
321.428
321.05
320.538
320.167
319.661
319.137
314.6
314.93
315.172
315.52
315.65
315.922
316.029
316.025
316.065
316.027
316.015
315.855
315.818
315.597
315.328
315.025
314.704
314.415
314.122
313.733
308.864
309.004
309.149
309.272
309.391
309.477
309.64
309.68
309.684
309.617
309.709
309.598
309.427
309.365
309.21
309.017
308.873
308.698
308.411
308.217
302.946
303.022
303.067
303.102
303.142
303.2
303.29
303.26
303.322
303.255
303.207
303.22
303.182
303.184
303.087
303.086
302.956
302.965
302.842
302.815
344.267
345.111
346.024
346.879
347.512
348.021
348.525
348.68
348.805
348.757
348.609
348.332
347.789
347.246
346.53
345.689
344.764
343.741
342.686
341.707
338.582
339.288
340.168
340.925
341.482
341.947
342.224
342.49
342.649
342.593
342.479
342.145
341.767
341.184
340.603
339.853
339.062
338.189
337.164
336.329
332.894
333.418
334.11
334.72
335.273
335.62
335.965
336.086
336.151
336.133
336.053
335.833
335.505
335.042
334.587
333.847
333.188
332.431
331.639
330.978
327.025
327.509
328.089
328.422
328.972
329.214
329.463
329.641
329.699
329.737
329.631
329.435
329.139
328.778
328.399
327.907
327.235
326.644
325.953
325.44
321.094
321.402
321.91
322.214
322.704
322.855
322.982
323.119
323.23
323.217
323.118
322.943
322.756
322.454
322.065
321.753
321.327
320.747
320.308
319.806
315.057
315.352
315.62
315.87
316.151
316.325
316.516
316.57
316.581
316.596
316.566
316.426
316.272
316.103
315.868
315.524
315.24
314.83
314.458
314.257
309.047
309.249
309.48
309.549
309.671
309.78
309.934
310.054
309.984
310.051
309.929
309.958
309.793
309.641
309.548
309.279
309.209
308.903
308.781
308.526
303.032
303.102
303.099
303.241
303.304
303.293
303.305
303.354
303.359
303.339
303.364
303.313
303.309
303.25
303.23
303.204
303.035
303.035
302.978
302.865
345.786
346.682
347.601
348.489
349.262
349.744
350.187
350.447
350.617
350.538
350.424
350.093
349.647
348.964
348.267
347.523
346.471
345.396
344.201
343.282
340.05
340.732
341.588
342.232
342.962
343.349
343.701
343.993
344.099
344.078
343.928
343.702
343.222
342.704
342.141
341.291
340.497
339.512
338.554
337.726
333.922
334.611
335.299
335.909
336.468
336.912
337.168
337.367
337.445
337.474
337.367
337.064
336.773
336.29
335.795
335.169
334.416
333.561
332.805
332.105
327.893
328.403
328.937
329.515
329.975
330.284
330.531
330.623
330.808
330.868
330.693
330.535
330.243
329.93
329.372
328.85
328.296
327.658
326.954
326.364
321.797
322.228
322.594
323.011
323.397
323.638
323.791
323.972
324.002
323.971
324.002
323.807
323.625
323.254
322.9
322.53
322.008
321.467
321.029
320.487
315.617
315.857
316.152
316.509
316.726
316.858
317.036
317.153
317.196
317.176
317.161
317.015
316.841
316.739
316.394
316.101
315.729
315.398
315.07
314.755
309.396
309.521
309.752
309.961
310.082
310.166
310.206
310.376
310.343
310.332
310.321
310.322
310.148
309.984
309.871
309.664
309.47
309.301
309.069
308.887
303.151
303.144
303.225
303.306
303.393
303.403
303.461
303.497
303.441
303.48
303.567
303.409
303.412
303.326
303.28
303.289
303.188
303.069
303.004
303
347.377
348.333
349.26
350.167
350.831
351.583
351.951
352.343
352.441
352.343
352.207
351.82
351.379
350.853
350.093
349.206
348.187
347.067
345.931
344.801
341.292
342.152
342.934
343.74
344.441
344.873
345.225
345.596
345.67
345.658
345.497
345.204
344.848
344.269
343.708
342.88
341.953
340.884
339.934
339.05
335.152
335.811
336.493
337.196
337.709
338.125
338.504
338.697
338.826
338.814
338.69
338.371
338.119
337.636
337.054
336.449
335.641
334.839
334.027
333.268
328.912
329.388
329.962
330.571
330.974
331.306
331.597
331.772
331.878
331.897
331.766
331.611
331.261
330.927
330.53
329.92
329.323
328.623
327.885
327.33
322.506
322.918
323.348
323.802
324.214
324.427
324.629
324.776
324.875
324.81
324.777
324.595
324.348
324.08
323.786
323.346
322.795
322.352
321.767
321.32
316.081
316.443
316.783
317.003
317.292
317.494
317.709
317.754
317.758
317.856
317.722
317.674
317.5
317.279
317.035
316.736
316.396
315.971
315.569
315.198
309.723
309.905
310.029
310.242
310.382
310.512
310.657
310.697
310.763
310.662
310.697
310.583
310.525
310.387
310.246
310.053
309.889
309.68
309.362
309.17
303.271
303.245
303.357
303.423
303.496
303.525
303.529
303.573
303.588
303.546
303.557
303.499
303.466
303.496
303.434
303.346
303.339
303.213
303.182
303.06
348.932
349.873
350.839
351.772
352.585
353.217
353.693
353.988
354.174
354.14
354.012
353.723
353.154
352.562
351.818
350.86
349.849
348.757
347.526
346.347
342.659
343.525
344.326
345.175
345.876
346.374
346.823
347.101
347.277
347.215
347.02
346.765
346.316
345.797
345.186
344.316
343.491
342.431
341.379
340.474
336.27
336.961
337.67
338.368
338.925
339.411
339.796
340.031
340.12
340.046
339.994
339.743
339.372
338.952
338.401
337.715
336.865
336.037
335.158
334.362
329.821
330.32
331.01
331.499
332.001
332.388
332.684
332.878
332.942
332.936
332.905
332.61
332.348
331.902
331.554
330.932
330.295
329.604
328.86
328.229
323.284
323.676
324.215
324.47
324.96
325.25
325.468
325.661
325.738
325.75
325.64
325.517
325.269
324.978
324.632
324.163
323.689
323.12
322.517
322.012
316.66
317.04
317.333
317.567
317.884
318.076
318.279
318.358
318.393
318.39
318.347
318.233
318.104
317.863
317.61
317.284
316.905
316.541
316.084
315.802
309.983
310.173
310.436
310.587
310.787
310.809
310.937
310.988
311.106
311.032
311.009
310.997
310.846
310.74
310.524
310.371
310.205
309.954
309.714
309.458
303.324
303.404
303.509
303.51
303.524
303.638
303.716
303.74
303.706
303.657
303.7
303.755
303.598
303.62
303.593
303.457
303.411
303.305
303.322
303.172
350.425
351.357
352.456
353.442
354.24
354.927
355.466
355.783
355.939
355.884
355.777
355.432
354.917
354.304
353.496
352.65
351.466
350.373
349.078
347.892
343.982
344.785
345.725
346.527
347.199
347.893
348.311
348.573
348.717
348.761
348.562
348.269
347.892
347.267
346.695
345.791
344.891
343.818
342.76
341.754
337.359
338.081
338.872
339.522
340.24
340.592
341.032
341.304
341.461
341.377
341.267
341.079
340.666
340.256
339.656
338.89
338.158
337.285
336.282
335.556
330.717
331.296
331.857
332.434
332.995
333.337
333.73
333.955
333.959
333.941
333.904
333.672
333.425
333.012
332.481
331.994
331.247
330.616
329.866
329.157
323.935
324.349
324.905
325.294
325.761
325.967
326.309
326.386
326.535
326.475
326.421
326.371
326.033
325.73
325.349
324.865
324.375
323.881
323.302
322.737
317.158
317.478
317.817
318.097
318.401
318.621
318.91
318.978
318.987
319.015
318.914
318.814
318.636
318.444
318.157
317.818
317.5
317.027
316.653
316.357
310.239
310.516
310.717
310.888
311.109
311.166
311.27
311.354
311.444
311.442
311.306
311.334
311.211
311.003
310.946
310.733
310.517
310.274
310.039
309.732
303.433
303.524
303.588
303.666
303.77
303.814
303.824
303.908
303.814
303.869
303.771
303.808
303.771
303.75
303.661
303.595
303.575
303.423
303.428
303.254
351.857
352.961
353.919
354.961
355.85
356.526
357.082
357.468
357.636
357.627
357.489
357.077
356.597
355.953
355.142
354.268
353.07
351.855
350.575
349.474
345.184
346.076
347.039
347.92
348.632
349.252
349.689
350.064
350.197
350.223
350.034
349.797
349.312
348.768
348.026
347.265
346.268
345.229
344.111
343.128
338.461
339.19
339.913
340.746
341.395
341.899
342.186
342.549
342.677
342.701
342.551
342.316
341.917
341.446
340.777
340.057
339.326
338.41
337.426
336.622
331.564
332.113
332.829
333.399
333.943
334.404
334.692
334.897
334.948
334.966
334.872
334.707
334.315
334.073
333.574
332.938
332.281
331.526
330.753
330.128
324.603
325.046
325.617
326.023
326.461
326.802
327.137
327.221
327.325
327.22
327.251
327.05
326.823
326.506
326.152
325.731
325.144
324.555
323.947
323.482
317.656
318.003
318.306
318.599
318.981
319.187
319.318
319.447
319.54
319.555
319.459
319.351
319.185
318.916
318.656
318.373
318.041
317.647
317.158
316.773
310.682
310.829
311.046
311.205
311.37
311.622
311.663
311.678
311.714
311.764
311.712
311.61
311.491
311.399
311.281
311.028
310.873
310.644
310.401
310.161
303.533
303.711
303.702
303.765
303.775
303.86
303.909
303.893
303.899
303.998
303.988
303.955
303.845
303.743
303.699
303.727
303.668
303.557
303.442
303.332
353.209
354.268
355.424
356.392
357.328
358.076
358.639
358.998
359.185
359.18
359.059
358.719
358.25
357.56
356.725
355.704
354.634
353.373
352.108
350.856
346.489
347.284
348.234
349.176
349.946
350.646
351.076
351.442
351.635
351.629
351.412
351.194
350.706
350.118
349.424
348.505
347.542
346.494
345.315
344.325
339.453
340.245
340.969
341.764
342.426
343.033
343.387
343.734
343.875
343.89
343.692
343.434
343.109
342.623
341.995
341.223
340.389
339.504
338.558
337.753
332.419
333.039
333.667
334.344
334.81
335.299
335.631
335.822
336.016
336.009
335.867
335.7
335.425
334.89
334.416
333.867
333.156
332.388
331.641
331.005
325.241
325.713
326.213
326.822
327.163
327.539
327.734
327.935
328.019
328.04
328.042
327.858
327.591
327.265
326.854
326.298
325.848
325.285
324.695
324.107
318.077
318.442
318.847
319.145
319.397
319.717
319.866
319.952
320.072
320.082
320.052
319.982
319.812
319.565
319.222
318.831
318.534
318.089
317.659
317.252
310.887
311.078
311.305
311.491
311.698
311.88
311.898
312.052
312.085
312.083
312.062
312.009
311.889
311.757
311.507
311.372
311.226
310.853
310.702
310.405
303.743
303.655
303.755
303.868
303.923
303.963
304.039
303.974
304.051
304.046
304.007
303.974
303.938
303.897
303.87
303.799
303.8
303.631
303.569
303.497
354.504
355.617
356.766
357.831
358.75
359.559
360.11
360.545
360.755
360.728
360.587
360.262
359.804
359.039
358.239
357.118
356.061
354.786
353.45
352.223
347.562
348.419
349.491
350.459
351.144
351.884
352.342
352.699
352.854
352.905
352.821
352.51
352.04
351.409
350.742
349.766
348.84
347.696
346.581
345.51
340.426
341.19
342.011
342.803
343.478
343.918
344.534
344.741
344.95
345.029
344.831
344.547
344.204
343.737
343.144
342.391
341.469
340.547
339.583
338.72
333.214
333.843
334.534
335.166
335.704
336.128
336.556
336.755
336.882
336.937
336.766
336.601
336.246
335.897
335.376
334.76
334.108
333.322
332.449
331.772
325.853
326.412
326.948
327.465
327.836
328.241
328.525
328.663
328.806
328.774
328.627
328.546
328.264
328.003
327.534
327.088
326.597
325.982
325.325
324.886
318.517
318.849
319.3
319.659
319.933
320.236
320.406
320.45
320.543
320.593
320.54
320.41
320.197
320.014
319.735
319.444
318.97
318.616
318.065
317.839
311.155
311.385
311.59
311.761
311.956
312.161
312.234
312.318
312.387
312.335
312.336
312.297
312.183
312.092
311.901
311.621
311.459
311.202
310.891
310.654
303.81
303.793
303.858
303.935
304
304.061
304.18
304.131
304.133
304.131
304.174
304.063
304.081
304.006
303.952
303.89
303.842
303.737
303.648
303.584
355.761
356.823
358.094
359.211
360.13
360.917
361.542
361.879
362.148
362.201
361.966
361.744
361.114
360.561
359.646
358.55
357.442
356.126
354.802
353.545
348.631
349.569
350.561
351.539
352.377
353.084
353.494
353.951
354.142
354.213
354.067
353.701
353.321
352.684
351.932
351.07
350.015
348.848
347.668
346.667
341.353
342.093
342.966
343.738
344.525
345.099
345.447
345.851
346.014
346.022
345.955
345.668
345.265
344.786
344.122
343.356
342.511
341.544
340.53
339.645
333.919
334.544
335.291
336.038
336.543
336.977
337.341
337.676
337.771
337.717
337.711
337.487
337.208
336.746
336.176
335.622
334.872
334.113
333.298
332.657
326.489
326.952
327.506
328.049
328.518
328.822
329.159
329.259
329.403
329.446
329.405
329.231
328.925
328.595
328.263
327.779
327.157
326.566
325.893
325.391
318.892
319.332
319.656
320.071
320.371
320.664
320.891
321.064
321.008
321.113
321.086
320.992
320.717
320.517
320.156
319.906
319.498
319.012
318.507
318.202
311.369
311.566
311.856
312.147
312.246
312.44
312.565
312.683
312.667
312.65
312.645
312.599
312.476
312.365
312.214
311.922
311.721
311.421
311.185
310.915
303.773
303.891
303.922
304.002
304.152
304.144
304.256
304.282
304.214
304.257
304.26
304.212
304.181
304.125
304.059
303.991
303.954
303.756
303.79
303.667
356.844
358.057
359.263
360.343
361.375
362.127
362.769
363.249
363.473
363.54
363.385
363.059
362.472
361.845
360.961
359.865
358.711
357.393
356.017
354.645
349.549
350.454
351.593
352.58
353.495
354.192
354.649
355.043
355.309
355.3
355.246
354.923
354.422
353.853
353.07
352.208
351.156
349.995
348.789
347.75
342.153
342.876
343.83
344.757
345.417
345.973
346.477
346.765
346.981
347.03
346.94
346.718
346.273
345.734
345.119
344.346
343.506
342.462
341.478
340.57
334.596
335.206
336.026
336.694
337.285
337.728
338.175
338.397
338.582
338.623
338.449
338.292
338.013
337.565
337.011
336.363
335.624
334.924
334.013
333.376
326.991
327.503
328.026
328.618
329.09
329.438
329.745
329.903
330.084
330.057
330.044
329.827
329.59
329.246
328.853
328.401
327.804
327.101
326.48
325.951
319.358
319.669
320.093
320.497
320.782
321.087
321.276
321.418
321.488
321.553
321.529
321.29
321.229
320.951
320.65
320.341
319.872
319.436
319.027
318.604
311.64
311.81
312.071
312.269
312.515
312.695
312.817
312.818
312.941
312.953
312.9
312.825
312.78
312.566
312.414
312.289
311.971
311.656
311.415
311.169
303.869
303.978
303.987
304.113
304.18
304.194
304.32
304.342
304.355
304.352
304.307
304.336
304.354
304.226
304.24
304.133
303.946
303.906
303.828
303.744
357.921
359.084
360.363
361.54
362.578
363.376
364.011
364.455
364.673
364.822
364.68
364.262
363.774
363.024
362.121
361.111
359.874
358.543
357.109
355.9
350.494
351.437
352.564
353.623
354.444
355.17
355.833
356.128
356.359
356.405
356.241
355.96
355.586
354.899
354.108
353.212
352.178
350.986
349.718
348.62
342.915
343.758
344.684
345.508
346.251
346.781
347.384
347.665
347.837
347.846
347.766
347.572
347.131
346.59
345.987
345.201
344.332
343.253
342.255
341.363
335.238
335.94
336.622
337.365
337.969
338.448
338.896
339.174
339.305
339.395
339.269
339.021
338.786
338.282
337.751
337.121
336.367
335.555
334.689
333.972
327.506
328.004
328.597
329.135
329.672
329.938
330.346
330.536
330.647
330.626
330.575
330.437
330.209
329.842
329.439
328.928
328.357
327.666
327.032
326.51
319.73
320.073
320.425
320.901
321.181
321.507
321.641
321.773
321.906
321.908
321.969
321.781
321.629
321.371
321.076
320.661
320.282
319.81
319.416
318.981
311.881
312.029
312.297
312.517
312.721
312.891
313.048
313.083
313.194
313.203
313.191
313.11
312.992
312.875
312.629
312.489
312.22
311.972
311.644
311.384
303.899
304.07
304.103
304.212
304.261
304.292
304.407
304.418
304.412
304.476
304.368
304.365
304.408
304.385
304.283
304.221
304.088
303.988
303.892
303.836
358.902
359.998
361.419
362.567
363.536
364.417
365.062
365.605
365.818
365.825
365.811
365.456
364.945
364.259
363.26
362.193
361.01
359.536
358.174
356.904
351.285
352.26
353.432
354.508
355.313
356.071
356.709
357.097
357.321
357.327
357.272
356.976
356.509
355.904
355.138
354.184
353.124
351.947
350.632
349.564
343.598
344.426
345.439
346.265
347.045
347.645
348.134
348.498
348.777
348.759
348.671
348.395
347.981
347.444
346.803
346.01
345.064
344.117
343.009
342.114
335.792
336.473
337.208
338.009
338.571
339.147
339.496
339.818
340.012
339.943
339.909
339.767
339.431
338.967
338.431
337.764
337.019
336.12
335.328
334.549
327.881
328.474
329.099
329.591
330.06
330.485
330.82
331.051
331.08
331.165
331.066
330.996
330.689
330.446
329.862
329.475
328.877
328.176
327.528
326.915
320.037
320.336
320.876
321.159
321.533
321.844
322.049
322.265
322.263
322.335
322.27
322.146
321.972
321.737
321.439
321.101
320.665
320.169
319.714
319.3
312.004
312.196
312.462
312.723
312.984
313.082
313.257
313.374
313.351
313.395
313.519
313.305
313.207
313.023
312.878
312.691
312.387
312.086
311.899
311.558
304.038
304.054
304.195
304.261
304.376
304.364
304.458
304.47
304.531
304.52
304.61
304.436
304.437
304.41
304.334
304.229
304.177
304.09
303.936
303.839
359.618
360.898
362.285
363.478
364.508
365.409
366.081
366.625
366.782
366.885
366.747
366.437
365.927
365.205
364.289
363.269
361.96
360.616
359.119
357.729
352.033
353.056
354.209
355.328
356.152
356.868
357.501
357.955
358.173
358.208
358.124
357.848
357.368
356.798
355.979
355.066
353.924
352.734
351.46
350.378
344.287
345.056
346.028
346.92
347.745
348.391
348.882
349.22
349.42
349.494
349.424
349.084
348.762
348.197
347.512
346.759
345.817
344.725
343.744
342.807
336.296
337.019
337.742
338.53
339.193
339.689
340.094
340.422
340.646
340.576
340.594
340.32
339.899
339.602
339.06
338.356
337.581
336.768
335.877
335.099
328.347
328.913
329.495
330.095
330.536
330.968
331.306
331.447
331.61
331.642
331.547
331.449
331.163
330.836
330.482
329.874
329.278
328.628
327.912
327.439
320.351
320.727
321.095
321.531
321.86
322.128
322.324
322.502
322.642
322.72
322.613
322.445
322.304
322.031
321.734
321.384
321.04
320.514
320.01
319.659
312.135
312.427
312.644
312.918
313.188
313.328
313.433
313.644
313.569
313.564
313.686
313.531
313.464
313.313
313.091
312.922
312.601
312.304
311.995
311.818
304.003
304.134
304.3
304.382
304.406
304.385
304.474
304.64
304.587
304.638
304.543
304.495
304.447
304.5
304.308
304.357
304.169
304.103
304.028
303.977
360.389
361.623
363.029
364.318
365.359
366.212
366.943
367.446
367.709
367.718
367.653
367.324
366.803
366.128
365.219
364.043
362.818
361.445
359.881
358.566
352.638
353.688
354.882
355.929
356.913
357.651
358.269
358.673
358.999
359.059
358.941
358.649
358.235
357.584
356.723
355.683
354.769
353.424
352.13
350.94
344.681
345.583
346.551
347.492
348.298
348.964
349.466
349.918
350.091
350.107
350.052
349.752
349.433
348.903
348.189
347.344
346.459
345.404
344.274
343.325
336.802
337.463
338.242
339.009
339.648
340.106
340.56
340.965
341.051
341.165
341.127
340.892
340.546
340.099
339.571
338.898
338.16
337.285
336.36
335.573
328.662
329.16
329.786
330.467
330.954
331.297
331.719
331.89
332.002
332.099
332.071
331.879
331.587
331.339
330.823
330.325
329.651
329.015
328.361
327.785
320.539
320.946
321.365
321.719
322.052
322.446
322.64
322.768
322.913
322.985
322.921
322.835
322.607
322.376
322.07
321.603
321.277
320.754
320.285
319.902
312.345
312.495
312.832
313.084
313.35
313.477
313.618
313.771
313.753
313.734
313.761
313.705
313.59
313.518
313.249
313.081
312.794
312.479
312.178
311.998
304.177
304.247
304.271
304.397
304.442
304.537
304.578
304.646
304.604
304.616
304.594
304.621
304.572
304.538
304.458
304.362
304.206
304.181
304.136
303.945
361.047
362.372
363.643
364.939
366.066
366.965
367.6
368.152
368.423
368.534
368.361
368.052
367.579
366.904
365.902
364.905
363.549
362.09
360.628
359.263
353.205
354.28
355.478
356.535
357.503
358.321
358.874
359.403
359.611
359.725
359.491
359.257
358.872
358.25
357.416
356.391
355.349
354.098
352.791
351.644
345.221
346.05
347.088
348.03
348.797
349.495
350.154
350.399
350.59
350.716
350.583
350.299
350.008
349.419
348.758
347.936
346.969
345.924
344.883
343.866
337.081
337.779
338.704
339.409
340.052
340.638
341.106
341.445
341.454
341.64
341.577
341.267
341.024
340.582
339.968
339.353
338.525
337.705
336.795
336.01
328.944
329.499
330.13
330.755
331.241
331.709
332.01
332.292
332.428
332.453
332.309
332.216
331.953
331.617
331.135
330.692
330.104
329.406
328.7
328.084
320.727
321.162
321.529
322.009
322.327
322.648
322.843
323.136
323.134
323.21
323.165
323.078
322.842
322.644
322.359
321.993
321.617
321.033
320.461
320.124
312.438
312.719
312.959
313.17
313.431
313.629
313.76
313.875
313.957
313.969
313.955
313.872
313.755
313.642
313.441
313.202
312.864
312.625
312.319
312.098
304.193
304.212
304.287
304.453
304.515
304.562
304.653
304.607
304.687
304.68
304.634
304.682
304.63
304.58
304.459
304.402
304.305
304.212
304.14
304.036
361.537
362.813
364.19
365.412
366.591
367.551
368.234
368.801
369.086
369.208
369.048
368.736
368.119
367.417
366.551
365.45
364.146
362.746
361.156
359.796
353.629
354.657
355.88
357.025
358.034
358.805
359.44
359.863
360.102
360.216
360.153
359.858
359.373
358.746
357.981
356.957
355.93
354.627
353.217
352.11
345.537
346.455
347.466
348.409
349.254
349.956
350.522
350.817
351.076
351.149
351.079
350.841
350.393
349.924
349.189
348.419
347.447
346.387
345.308
344.258
337.392
338.083
338.933
339.728
340.418
340.961
341.441
341.664
341.861
342.036
341.864
341.749
341.424
340.922
340.344
339.723
338.906
337.996
337.135
336.331
329.229
329.714
330.371
330.922
331.482
331.912
332.333
332.544
332.651
332.739
332.753
332.486
332.22
331.913
331.45
330.933
330.353
329.691
328.914
328.354
320.812
321.258
321.672
322.227
322.569
322.846
323.079
323.302
323.309
323.428
323.384
323.332
323.139
322.831
322.492
322.164
321.692
321.192
320.7
320.281
312.549
312.883
313.099
313.308
313.549
313.757
313.856
314.015
314.044
314.071
314.065
313.925
313.88
313.762
313.536
313.24
313.05
312.753
312.483
312.287
304.169
304.272
304.374
304.471
304.5
304.635
304.63
304.632
304.731
304.752
304.688
304.639
304.632
304.599
304.497
304.43
304.374
304.225
304.193
304.074
361.967
363.212
364.601
365.808
367.005
367.951
368.606
369.299
369.511
369.68
369.498
369.212
368.666
367.929
367.047
365.934
364.604
363.166
361.601
360.224
353.917
354.952
356.154
357.329
358.343
359.164
359.776
360.243
360.486
360.632
360.538
360.243
359.842
359.199
358.316
357.454
356.261
354.976
353.613
352.492
345.809
346.659
347.756
348.773
349.581
350.225
350.729
351.181
351.392
351.464
351.375
351.185
350.82
350.217
349.508
348.693
347.764
346.714
345.607
344.575
337.699
338.304
339.135
339.977
340.694
341.239
341.642
341.979
342.135
342.192
342.143
341.951
341.65
341.196
340.688
339.934
339.082
338.332
337.414
336.638
329.353
329.888
330.617
331.151
331.713
332.126
332.488
332.778
332.912
332.898
332.918
332.705
332.421
332.166
331.671
331.104
330.515
329.821
329.194
328.55
320.946
321.376
321.861
322.318
322.694
322.965
323.244
323.428
323.527
323.506
323.566
323.406
323.232
323
322.65
322.27
321.876
321.393
320.885
320.42
312.656
312.866
313.111
313.34
313.673
313.824
313.998
314.132
314.127
314.176
314.18
314.057
314.027
313.791
313.587
313.43
313.112
312.777
312.574
312.269
304.215
304.344
304.459
304.54
304.569
304.628
304.688
304.713
304.697
304.723
304.696
304.691
304.706
304.654
304.527
304.551
304.464
304.299
304.181
304.173
362.128
363.442
364.86
366.131
367.281
368.262
369.02
369.455
369.784
369.877
369.797
369.545
368.97
368.25
367.348
366.155
364.916
363.418
361.9
360.443
354.152
355.289
356.35
357.598
358.511
359.325
360.064
360.556
360.745
360.89
360.719
360.512
360.036
359.331
358.608
357.606
356.456
355.225
353.909
352.661
345.952
346.847
347.917
348.874
349.697
350.461
351.025
351.338
351.564
351.643
351.554
351.401
350.962
350.399
349.707
348.893
347.987
346.886
345.751
344.814
337.792
338.492
339.291
340.103
340.832
341.34
341.761
342.197
342.376
342.449
342.339
342.089
341.797
341.36
340.825
340.144
339.26
338.469
337.548
336.735
329.413
330.005
330.667
331.305
331.866
332.272
332.581
332.854
332.935
333.126
332.997
332.866
332.587
332.263
331.789
331.331
330.693
329.995
329.249
328.629
321.138
321.456
321.885
322.362
322.764
323.051
323.275
323.496
323.619
323.641
323.536
323.52
323.349
323.097
322.788
322.339
321.985
321.412
320.866
320.506
312.575
312.939
313.112
313.428
313.664
313.877
313.998
314.117
314.147
314.267
314.198
314.127
314.071
313.821
313.685
313.45
313.244
312.916
312.592
312.332
304.176
304.263
304.423
304.496
304.543
304.669
304.726
304.723
304.76
304.825
304.727
304.759
304.634
304.68
304.523
304.574
304.426
304.35
304.212
304.159
)
;

boundaryField
{
    hotSide
    {
        type            fixedGradient;
        gradient        nonuniform List<scalar> 
400
(
321.511
322.87
325.591
329.677
335.133
341.965
350.181
359.788
370.794
383.208
397.037
412.289
428.971
447.088
466.647
487.651
510.105
534.011
559.372
586.191
323.738
325.08
327.767
331.802
337.194
343.949
352.078
361.591
372.498
384.81
398.537
413.687
430.268
448.289
467.755
488.672
511.043
534.872
560.161
586.913
326.149
327.47
330.116
334.091
339.406
346.071
354.099
363.503
374.296
386.491
400.101
415.136
431.606
449.52
468.885
489.706
511.988
535.735
560.948
587.63
328.704
330
332.597
336.503
341.73
348.292
356.205
365.485
376.15
388.215
401.695
416.604
432.954
450.753
470.009
490.73
512.919
536.579
561.714
588.325
331.33
332.599
335.142
338.97
344.099
350.546
358.332
367.477
378.003
389.928
403.271
418.047
434.27
451.949
471.095
491.712
513.807
537.382
562.439
588.978
333.918
335.158
337.643
341.389
346.414
352.74
360.392
369.397
379.779
391.562
404.765
419.407
435.503
453.065
472.101
492.618
514.622
538.114
563.096
589.569
336.321
337.531
339.959
343.622
348.544
354.751
362.274
371.142
381.385
393.031
406.101
420.618
436.595
454.047
472.983
493.409
515.33
538.747
563.663
590.076
338.36
339.543
341.92
345.509
350.339
356.44
363.847
372.595
382.718
394.244
407.2
421.608
437.485
454.844
473.695
494.045
515.897
539.253
564.114
590.478
339.852
341.015
343.352
346.885
351.645
357.665
364.985
373.643
383.675
395.113
407.984
422.312
438.116
455.407
474.197
494.491
516.294
539.606
564.428
590.758
340.643
341.795
344.11
347.613
352.334
358.311
365.584
374.193
384.176
395.567
408.393
422.679
438.443
455.699
474.456
494.722
516.498
539.788
564.589
590.901
340.643
341.795
344.11
347.613
352.334
358.311
365.584
374.193
384.176
395.567
408.393
422.679
438.443
455.699
474.456
494.722
516.498
539.788
564.589
590.901
339.852
341.015
343.352
346.885
351.645
357.665
364.985
373.643
383.675
395.113
407.984
422.312
438.116
455.407
474.197
494.491
516.294
539.606
564.428
590.758
338.36
339.543
341.92
345.509
350.339
356.44
363.847
372.595
382.718
394.244
407.2
421.608
437.485
454.844
473.695
494.045
515.897
539.253
564.114
590.478
336.321
337.531
339.959
343.622
348.544
354.751
362.274
371.142
381.385
393.031
406.101
420.618
436.595
454.047
472.983
493.409
515.33
538.747
563.663
590.076
333.918
335.158
337.643
341.389
346.414
352.74
360.392
369.397
379.779
391.562
404.765
419.407
435.503
453.065
472.101
492.618
514.622
538.114
563.096
589.569
331.33
332.599
335.142
338.97
344.099
350.546
358.332
367.477
378.003
389.928
403.271
418.047
434.27
451.949
471.095
491.712
513.807
537.382
562.439
588.978
328.704
330
332.597
336.503
341.73
348.292
356.205
365.485
376.15
388.215
401.695
416.604
432.954
450.753
470.009
490.73
512.919
536.579
561.714
588.325
326.149
327.47
330.116
334.091
339.406
346.071
354.099
363.503
374.296
386.491
400.101
415.136
431.606
449.52
468.885
489.706
511.988
535.735
560.948
587.63
323.738
325.08
327.767
331.802
337.194
343.949
352.078
361.591
372.498
384.81
398.537
413.687
430.268
448.289
467.755
488.672
511.043
534.872
560.161
586.913
321.511
322.87
325.591
329.677
335.133
341.965
350.181
359.788
370.794
383.208
397.037
412.289
428.971
447.088
466.647
487.651
510.105
534.011
559.372
586.191
)
;
    }
    coldSide
    {
        type            mixed;
        refValue        uniform 300;
        refGradient     uniform 0;
        valueFraction   uniform 0.991591;
        source          uniform 0;
        value           nonuniform List<scalar> 
400
(
300.025
300.025
300.025
300.026
300.028
300.028
300.029
300.03
300.031
300.032
300.032
300.033
300.033
300.034
300.034
300.035
300.035
300.035
300.035
300.035
300.024
300.025
300.026
300.026
300.027
300.029
300.03
300.031
300.031
300.032
300.033
300.033
300.034
300.034
300.035
300.036