/*--------------------------------*- C++ -*----------------------------------*\
| =========                 |                                                 |
| \\      /  F ield         | OpenFOAM: The Open Source CFD Toolbox           |
|  \\    /   O peration     | Version:  2212                                  |
|   \\  /    A nd           | Website:  www.openfoam.com                      |
|    \\/     M anipulation  |                                                 |
\*---------------------------------------------------------------------------*/
FoamFile
{
    version     2.0;
    format      ascii;
    arch        "LSB;label=32;scalar=64";
    class       volScalarField;
    location    "./ITHACAoutput/true/15";
    object      error;
}
// * * * * * * * * * * * * * * * * * * * * * * * * * * * * * * * * * * * * * //

dimensions      [0 0 0 1 0 0 0];

internalField   nonuniform List<scalar> 
3200
(
-0.492775
0.287871
0.880463
3.53163
5.39075
2.79875
2.27065
3.49821
3.62603
1.4244
1.4938
3.8099
1.73487
1.53461
0.790885
1.85407
2.81799
2.86721
-1.09141
-0.774249
-3.47994
-0.838961
0.0162943
3.98701
-1.0141
0.929453
0.179182
3.33099
1.35884
0.72494
2.14626
1.71312
3.5363
0.414244
0.507417
0.152979
3.27514
-1.10097
-1.43367
-1.70376
-1.41596
0.997404
3.67651
2.007
3.67676
-0.341284
3.64944
1.08377
2.00688
1.06703
1.09781
1.39474
-0.061841
1.0957
0.240103
1.17027
0.789894
0.0865032
-0.242804
-1.3709
-3.15831
0.187263
-0.856863
1.38846
2.7895
2.29868
4.74263
1.78594
-1.011
2.69494
-1.46582
-2.03472
4.32592
-0.170405
-0.091674
-1.2552
1.45718
-1.28812
-2.65913
0.0733962
-1.14978
-1.35183
0.163516
3.44787
2.2074
0.848313
0.757216
-0.143839
3.23804
0.820284
0.500742
0.274073
1.07614
2.11083
-0.38657
1.12866
0.286272
-1.06405
0.0924499
-1.20533
-1.14144
-0.346105
-0.158108
-0.948106
1.54097
0.772022
0.620089
-0.319499
0.158698
-0.88691
1.08526
-1.30807
0.872188
-1.16413
-0.0499111
0.285531
-0.0756363
-0.759166
0.240045
-0.12248
-0.865154
2.09998
1.49832
-0.38182
-0.64251
1.51608
1.32748
0.784492
1.85879
1.37019
2.45651
1.8332
-0.745249
-2.43554
-1.3887
0.264249
1.74554
-0.624757
-0.254653
-0.225879
-2.08863
-1.90262
-0.423804
-1.65071
0.565884
-1.39706
-1.86338
0.845839
-1.09102
-1.10952
-1.67611
-0.364559
0.190378
-0.458459
-1.29435
-0.141215
-0.633069
-1.01178
-1.70298
-1.61336
-3.45561
-1.11045
2.06681
2.81654
1.67908
2.58741
3.33154
0.671568
2.62771
0.655329
3.63889
1.68354
-0.120365
-0.53564
4.75847
-0.0933961
1.32632
0.363255
-1.30669
-3.07599
-0.383593
-0.301251
2.91011
-0.15972
-0.189511
0.0741822
2.30921
0.118703
0.0757716
0.529192
-0.196397
2.00709
0.0446616
0.466463
-0.298423
2.22838
-0.0146363
-0.768624
-1.02512
-2.26615
-2.13899
0.293922
1.74121
1.9743
1.09403
3.01048
2.67572
2.10133
1.44745
0.803496
1.32773
0.523104
2.57717
-0.804081
1.4387
-0.573806
-0.875103
0.0350376
-2.23982
-1.64438
-1.76764
1.57675
2.20837
0.120936
1.52707
1.72553
1.21807
-0.558716
0.960592
0.582596
1.80954
1.98017
1.72232
2.78665
-0.27623
0.377155
0.447051
1.19746
-0.652924
-1.90687
-0.771919
3.90806
-1.00327
2.62569
3.25108
0.887673
1.25219
2.37473
-0.333155
0.456186
0.793903
2.51734
0.26741
-1.90771
1.38372
-0.504201
0.956568
-1.73088
1.50779
-2.51371
1.15318
0.706549
0.103747
-0.457715
3.80892
-0.421625
0.492215
0.868248
0.705956
-0.337844
0.468917
0.943144
0.50974
0.946594
-0.304232
0.464119
-2.14491
0.0315906
0.542091
-1.15597
0.761489
1.57208
-0.113205
1.73044
-0.75733
1.19519
1.93126
0.435348
-1.17845
1.27982
-1.70313
-2.02938
-0.443167
1.6126
-1.17906
2.63001
1.2779
1.13848
-3.54039
0.0121894
-1.08786
-1.59807
-0.983695
-0.759446
-0.533086
2.32702
-0.326114
-0.315072
0.489086
2.0548
-0.633638
1.06545
-0.106696
1.38603
1.66619
-0.363228
1.01287
0.0507867
-1.63926
-3.39769
-2.60967
-3.16791
0.347491
0.453476
0.415748
1.76146
0.233979
2.94577
1.21463
3.6271
1.55785
3.29145
0.858833
1.63596
3.90493
1.72281
-1.48697
-3.48157
-5.33384
-2.66255
-1.6271
0.192571
-0.991067
4.07737
1.68141
1.29101
1.33386
-1.06578
0.787161
0.658057
1.56107
1.54192
1.20996
1.21821
1.19967
0.414482
-1.14042
-0.509798
1.70528
-3.06564
-1.54334
-2.32928
-0.562
0.125025
3.13327
1.4273
1.23743
2.3
-1.44431
-0.279472
1.97765
0.545155
1.37444
2.98889
1.25901
0.0804966
-0.130797
-0.511919
-0.273544
-2.02663
-0.926412
0.00338145
-0.803458
-2.36597
0.233506
-0.0866787
1.52883
0.317682
-0.0362271
-0.177244
2.45337
0.389157
2.33852
1.55432
3.00333
2.03651
-0.730514
1.89149
-2.46845
-4.56837
-0.566211
-2.90253
-1.33311
2.58131
0.446611
-2.52091
0.354704
0.973552
2.56005
2.59037
0.722481
-0.408521
-0.573189
1.47093
-0.637177
-0.0951951
-1.92873
-0.894418
-0.899555
-2.59845
-0.391523
1.81061
0.389309
-0.378821
-0.853058
0.616523
-0.524704
3.51654
0.0186537
1.36745
-0.218172
0.79903
1.64768
-0.292858
-1.29456
-0.728912
0.372153
0.955682
0.00154359
-1.57645
-1.41993
-1.9427
1.29392
0.895403
-0.927613
0.026271
0.0479377
-1.43728
0.35916
2.66605
0.777467
1.19853
1.53812
0.27998
1.03202
0.965257
0.702797
0.682259
-3.20362
-0.347279
0.880608
-0.510777
-1.09127
0.577588
-2.82546
-2.27496
0.57841
-1.32311
-0.676118
-2.28837
-0.231485
0.160005
-0.236473
-0.743166
0.0295802
0.521657
2.68866
-0.0794037
-0.300504
-0.586442
-6.2074
-0.989718
3.34284
1.95211
3.74716
2.55129
0.533185
1.91583
1.90281
2.1803
0.549976
1.15923
2.12399
0.312047
-0.82241
0.723116
2.31965
0.628193
1.24091
-2.27822
-2.19379
-0.0249302
0.85208
0.483044
2.2127
0.650984
1.34183
-0.764485
-0.735854
0.282677
0.540141
1.10848
0.294656
0.765228
0.0247335
0.650506
0.409176
-2.77313
-0.0433443
-3.31804
-3.51227
-0.119788
-0.547007
0.062316
1.9571
2.23902
1.23063
1.81236
0.81219
-0.408607
0.301313
1.82641
3.51331
-0.385438
0.418913
4.00852
1.6415
1.43404
-0.396307
-3.7865
-1.17239
1.2916
-0.0415636
-0.0266974
-0.120544
1.54339
0.139441
3.99872
1.92916
0.52331
1.45051
0.865339
-0.617983
1.40501
1.62492
2.64738
0.99497
-0.606489
-2.52844
-2.55425
0.0718662
0.0586381
-0.366754
1.52623
-0.0127676
1.46593
0.68631
1.38946
-1.54038
0.114713
-1.55705
0.487941
0.155466
-1.09266
0.0720745
0.925499
2.98928
0.00730659
-1.67746
-0.850322
-1.42019
1.11025
2.45663
-0.378294
1.65451
0.21392
0.290624
-0.173816
2.45009
0.0260762
-0.57868
-1.38726
-0.438781
-1.20919
-0.830524
2.45697
0.792761
1.17626
-1.80443
-1.16181
-0.0807029
-0.755888
-1.46544
-0.0986428
0.0694376
0.525458
0.178073
-0.258661
0.225977
-0.303735
-0.979896
0.00431662
-0.936288
1.94387
0.308796
-0.961602
0.384891
0.876351
1.31935
-1.48683
-0.319656
0.748065
2.33046
-0.0101887
-0.377562
0.0893044
-1.75611
-1.16166
0.786149
1.27394
0.490576
0.0713953
-0.631621
0.555594
1.26757
-1.82324
-0.489388
-1.041
3.78023
1.41924
-2.46868
-1.73344
-0.465669
0.83961
1.08725
-0.287746
2.85605
0.502039
0.468502
0.809975
2.49848
-2.05662
0.385686
-0.618216
-1.24627
0.961577
-0.7875
-1.0636
-0.845535
-1.94589
-1.56031
-1.17705
1.51202
1.52646
0.852695
0.358637
-0.125149
-0.814025
0.91353
1.4987
-0.0671881
1.03214
-1.1263
0.203128
0.0526826
0.898377
-1.29208
-0.604966
-2.11115
-3.47158
-1.20899
-0.953936
-0.444596
0.343977
1.86154
1.93195
1.00462
-0.187453
-0.085779
0.564454
-0.571759
-1.26682
-0.347029
-0.996379
0.494415
0.632055
-0.627124
-2.70562
-1.17571
-3.11664
-2.81238
-2.37611
-2.07932
-0.662952
0.634133
-1.18699
1.21475
1.2023
0.573275
-0.396727
1.8714
0.317079
-1.23972
0.255274
2.06835
-0.799756
-0.789818
-0.735938
-2.69213
-5.47131
-1.38543
-0.81719
0.421157
-1.42264
0.75245
1.74342
2.68238
-0.291489
-1.33012
-0.444453
1.21235
-0.893664
1.5698
-1.616
-0.572503
0.096002
0.362836
-0.504322
-0.413243
-2.92748
0.979382
0.615303
0.9602
-0.916884
0.565022
-0.31851
-0.377228
-0.095696
0.360873
-0.656944
0.182067
-1.19147
1.29304
-1.29398
-0.783968
2.39349
0.140043
-0.590512
-0.344779
-1.2306
-1.1333
0.596432
-0.975025
1.47615
0.524549
0.904106
1.53549
1.59055
-1.3959
2.25122
-2.75675
0.538278
-0.0129145
-1.99225
-0.265188
1.65966
0.856896
-0.0414471
-1.88498
0.434787
-0.446827
1.05482
-0.365715
1.35662
1.15063
2.62416
1.11317
1.5069
0.907057
0.958811
0.495277
1.63721
-0.416811
-0.687543
2.77579
1.34993
-1.47952
0.0637237
-0.168533
-1.5083
-4.75056
-1.80082
-0.70662
1.81266
0.33128
1.39619
-0.253667
1.42353
1.62443
0.199335
-1.04573
0.451023
-0.00361559
-2.15081
1.57226
0.814974
-1.86695
-0.886418
-2.20048
-2.29114
-0.781785
-0.385967
-1.97545
0.295373
1.58963
-0.181182
2.43023
0.2787
-0.390399
-0.502816
-0.0543507
0.978514
-0.095324
1.26632
0.484011
-1.00857
-0.0571891
-1.40553
-0.103659
-3.9793
-2.76901
0.892315
-2.94544
-0.92525
1.35313
0.717388
-1.18447
1.80794
-0.154582
-1.51017
-1.2042
-2.76208
0.582227
-0.328384
0.20327
2.68411
-2.1076
-0.346117
-2.2637
-2.58325
0.602454
0.196233
0.737347
-0.0946248
0.852026
0.919052
0.108833
-0.0280321
0.718131
1.05104
-0.262467
0.496133
-0.426368
-0.298123
-2.9661
-0.220016
-0.638515
0.396293
-2.32036
-2.05168
-1.61406
-0.609072
-1.2602
0.930368
0.415703
0.647024
0.319463
0.0623426
-0.00702542
0.651514
1.44261
-0.216604
-1.56613
0.862068
-0.110103
1.26859
-0.171121
1.02847
-0.509086
-2.348
-0.0660274
-1.07756
-2.56155
-3.28228
-1.44039
0.699261
0.849
-1.51738
0.152137
-1.03347
-1.02273
0.154906
-0.277861
0.19688
-1.69152
0.374412
-0.641767
-2.2752
-0.925598
-0.871217
1.0268
-2.88974
-0.830878
0.828809
-0.350989
-0.13095
-0.0383248
-0.462309
0.488007
2.51667
1.73236
0.38387
-0.0387804
-0.195196
1.72006
0.39843
1.49084
-0.108604
-0.411806
-0.659853
0.27331
1.21046
1.09184
0.583632
1.11914
0.364548
-1.80651
-0.455775
-0.632928
-0.180108
-0.234063
1.80864
-1.21571
1.19979
0.770305
0.704241
1.78449
-0.722073
-0.0248008
0.221033
-5.27912
-1.323
-2.06268
-1.62501
1.10497
-1.79457
0.402111
-1.26947
-1.63796
-0.542753
0.521121
0.441168
-1.12792
-0.742302
0.156095
1.14036
0.334401
-3.44134
-2.69061
-3.69742
-0.305298
-3.47305
-0.992388
0.0476562
-1.2674
-1.19909
1.58677
0.698338
-0.494927
-0.81721
1.25289
0.0991023
-1.01487
0.526131
-1.34239
-1.62176
-1.31929
-0.680826
-3.37529
-3.85429
-1.5825
-0.988465
1.72939
-1.75881
-2.55849
-0.282457
0.0131531
1.07595
-0.635305
-1.02471
-1.58492
-2.17819
-3.05605
0.361019
-0.697513
-1.21191
-1.2678
-2.81849
-3.77625
-2.34897
-2.67801
-1.6389
-1.41741
-0.0927391
2.70124
0.662475
-0.269174
0.295269
-0.659646
-0.153709
1.32601
-0.0666877
0.340765
1.61955
1.0061
-1.64851
-0.72012
-1.03147
-1.17409
-3.46593
-3.48804
-0.750774
-0.207215
-0.674843
0.997769
-0.586088
0.992959
-1.14185
-1.06324
-2.28564
0.556084
-0.176073
-2.74849
-0.270854
-1.5576
-0.270256
1.63707
0.581622
-1.60075
-4.38259
-3.71925
-2.74778
0.680684
3.14986
-2.82733
0.283689
0.400376
-2.38855
1.35111
2.67438
0.0159149
-1.25989
-1.36246
0.217536
0.0961433
1.34865
-0.832966
-0.784077
-0.666791
-1.0328
0.116432
-0.886326
0.246248
1.64164
-0.0984342
-2.43896
0.714029
-2.90591
2.16923
-1.34291
-2.74121
0.721459
-1.46886
1.61601
-3.5966
0.0526808
1.49347
-0.109118
-1.36517
-1.76906
-2.77219
-0.323545
-1.20958
0.375039
1.708
1.93396
0.56835
2.1913
0.282389
-1.12922
-1.74982
-2.2506
-1.61858
0.222419
-1.75484
0.425118
-0.845397
0.287821
0.31894
0.168013
-3.91519
-3.69718
-0.799353
-1.50297
0.130119
-0.462967
-0.0465032
-1.1885
0.854183
-0.388461
-0.758171
-1.83285
-1.19257
-1.72641
-2.24217
-0.66899
-0.220194
-0.534335
-1.8137
-4.36174
-7.46229
-0.128957
-1.89656
-0.0703298
-0.634738
0.119033
-1.60067
-0.671523
-0.640497
0.481117
-0.713564
-2.28864
-0.27031
-0.0040951
0.236035
-2.57546
0.0693589
-0.834975
-0.421553
-3.83586
-4.64556
-2.40086
-1.55099
-1.15527
-0.291122
-0.565968
1.14981
-1.34848
-0.149538
0.0591104
-0.933177
-0.841873
-2.35679
-1.74553
-0.68045
-1.51703
-1.96902
-3.02847
-2.71629
-5.08382
-0.688696
-3.0511
-0.601571
0.369495
0.44671
0.716124
0.943336
0.874823
0.927492
-0.729307
-1.97039
1.10184
-0.443036
-1.65278
-1.17889
0.453155
-2.68415
0.290968
-2.1837
-1.92972
-1.25063
-1.70708
-2.50706
-1.10808
0.823437
-0.307013
-0.613073
1.9077
2.16767
-1.53885
1.23952
0.958714
-1.70677
-0.442292
0.575598
-0.494696
-1.45255
-0.350133
-0.710789
-2.0288
-2.20479
-3.95966
0.299255
-0.732336
-1.53172
1.69431
-0.304418
-0.226707
-2.79778
-3.25816
-0.714014
-1.37119
1.27186
-0.641041
-1.00567
-0.889507
1.65006
-2.08537
-0.36487
0.475774
-0.654418
-0.260939
-0.493487
0.289953
-1.83517
-0.358881
0.235594
-1.03791
-0.558419
0.00699019
-2.44143
1.05289
-0.266247
-0.143863
-1.75131
-2.14916
-1.40866
1.13823
1.07498
-1.85692
-0.127286
-0.156833
2.76044
1.29013
-1.27555
2.09617
-1.95846
-0.797883
0.98402
2.02745
-0.340004
0.365873
0.476871
-1.04372
1.22725
0.736645
2.16507
0.488996
-2.02974
-0.00694755
-5.32689
-3.40532
-0.900469
1.30617
2.09398
-0.982719
-3.06955
-0.775191
-1.38929
-2.69745
-1.90767
-2.25457
-3.35676
-2.75116
1.41389
0.321201
-2.17419
0.167208
-2.62459
-3.3412
-3.61882
-1.52815
-2.51883
0.30746
-1.1106
0.0869277
0.409673
-1.65609
-1.08087
-4.61904
-0.37618
-2.26465
-1.28745
-1.10931
-2.57245
-0.614598
-1.26417
-2.48171
-1.52675
-4.08781
-2.94338
-2.09186
-3.90242
-0.893607
0.748931
1.181
1.19476
-1.53947
-1.74071
-1.42056
-3.76438
-1.3446
-0.316167
-1.66658
-0.599148
-1.30308
-0.615924
-0.162279
-2.95111
-6.32912
-3.5286
0.358732
-3.42837
0.194114
-0.48856
-1.15349
1.14051
-1.51797
-0.14628
0.543288
0.235434
-0.456952
-1.00465
-1.48795
-1.37011
-3.23053
-0.929
-1.79251
-2.71213
-3.1309
-0.491833
-1.77516
-1.77811
0.279827
0.0756255
-0.0881367
-1.77597
-1.10867
-0.348389
-1.87354
-1.94763
-1.30903
-1.4895
1.6108
-2.28878
-0.882534
1.07225
0.469687
-1.22703
-3.16518
-2.95143
0.840162
1.17753
1.32752
1.23343
1.13938
0.664137
-2.74977
-1.30859
-1.37579
-1.02135
-0.32056
-1.53676
-0.836763
-1.37799
0.835599
-3.81557
-2.21676
-3.50708
-1.43024
-0.789374
1.47114
-1.82249
-1.37283
0.673161
2.83069
-0.556625
-2.58389
-0.481456
-1.13866
-2.32256
0.91911
-0.294738
1.60917
1.66864
0.42128
0.0627055
-0.625551
-0.730529
-1.75683
1.18064
-0.466078
-1.81322
-3.05899
-2.51147
-1.16516
-0.454642
1.14446
-1.55999
0.344232
-0.973202
-0.24884
-0.275856
-0.286886
-0.475459
-0.306431
1.06001
-2.02891
1.42281
-0.384333
-6.86625
-3.15692
-2.22284
0.828825
-1.93749
-0.549328
0.25685
0.360533
-1.48558
-0.651645
-0.49566
-2.1699
-2.09277
-2.30361
-1.2984
0.0878217
-0.671071
-2.53266
-2.97366
-4.33022
-4.61578
-0.450173
-0.333627
0.352422
-0.472607
-0.502346
0.218786
-0.00763797
-0.74802
-0.287726
-0.310415
0.180396
-0.200147
-3.32932
-0.359797
-2.07724
-0.0337612
-2.30749
-0.105998
-4.40587
-2.90718
0.0742409
-2.24965
0.164306
2.15321
-2.47899
1.50677
-2.7887
-2.744
-1.20966
-2.17863
-0.434641
-1.5279
-1.36178
-0.300595
-1.09522
-0.735778
-3.41571
-1.84861
-3.99388
-1.33945
-2.98462
-1.40255
1.98406
-0.896199
0.586117
-1.47242
-0.421582
1.10396
-4.22199
0.462262
-0.992122
-3.51176
-1.11882
0.428412
-0.418575
-2.02639
-2.1814
-3.54323
-3.62049
-1.71873
-2.65609
-1.24434
-1.71951
0.969672
-1.40265
0.445578
-1.27681
-1.80745
1.42763
-0.943932
1.43115
-1.76895
-2.32253
0.788714
-1.61803
-0.30331
-2.12776
-2.68559
-1.37569
-2.13563
-0.0432878
0.779274
-1.15313
1.21248
-1.23398
-0.529643
-0.21307
-1.29596
0.58346
-1.60536
0.211087
1.38337
-0.379849
1.23729
0.496204
-1.71234
-0.310126
-0.490341
-0.731122
0.430538
0.829369
-0.0443208
-1.23348
0.148825
0.128615
2.66813
-1.20141
-0.899747
1.72519
0.0804701
-0.0938132
0.570874
0.624731
-0.566659
-1.05368
0.188597
-1.57431
-1.33253
-0.643558
-0.0673447
0.806576
-2.00706
0.114003
1.89018
1.35352
0.91536
-0.513498
0.253664
0.548734
-0.511659
0.988836
-0.34721
-1.97336
1.79098
-2.41412
1.04995
0.144279
2.14673
-1.39486
-5.15409
-1.52497
-1.67954
-0.33648
-2.25395
-2.30943
-1.22625
-0.525805
-1.08144
-0.419892
-1.34585
-2.22915
-1.48761
-0.930969
-1.98403
-2.15065
-3.70249
-2.74494
-2.88475
-5.53771
-4.57362
0.244268
-1.63057
-0.322042
-3.85426
0.0877952
-0.0682105
-0.273551
-1.15994
-0.253581
0.876085
-1.35035
-0.260073
-0.857028
-0.00430266
-0.913873
0.164912
-0.583694
-0.356987
-3.50235
-4.29763
-2.33745
-0.925428
-0.716993
-0.79615
-1.66193
1.77559
-0.282027
-1.1633
-1.49665
-1.45448
1.50284
-1.32058
-0.248389
2.00197
-2.0114
-1.9828
-2.19884
-3.3502
-3.14469
-5.40236
-1.53634
0.171038
-0.655347
-1.92833
0.119878
-1.08286
-1.59921
1.45801
-2.45517
-0.28217
-0.202172
0.0842733
0.297429
-0.712622
-0.107965
-1.89124
-2.07409
-3.16035
-1.80448
-2.96821
-0.921313
-1.12358
0.973217
3.2555
-0.722417
-2.64031
0.087972
-1.09217
0.203946
-0.2724
-1.56657
0.08585
-0.622902
0.953043
-1.20935
0.386112
0.844607
-1.71147
1.00341
-2.12399
-1.86781
-1.2526
2.03979
-0.361148
-0.672529
0.122506
-1.53196
-0.271694
2.67753
0.0149333
-0.559839
-0.34753
-1.06155
0.722513
-0.129362
0.252741
0.359071
-1.69701
0.214889
0.391971
-2.6845
-0.416185
0.0297811
-0.457139
0.312124
2.67772
-0.230006
1.81971
0.427848
0.692337
-0.623733
0.0821921
0.208298
-1.34116
-1.27193
-0.307735
-2.15901
1.67514
-0.901692
-2.33064
-0.108176
0.868365
2.22618
0.302857
-1.00324
-0.587814
2.42287
-0.401487
-0.177451
-1.24
-0.98774
-0.598463
-0.321439
0.670692
0.690021
-0.743196
1.15375
-0.67036
-2.26244
-3.83522
-5.75849
-2.10181
-0.329661
0.449083
1.31822
-0.393176
-0.69464
-1.95953
-0.720612
-1.23031
0.839483
-0.551783
-1.62312
1.95588
-0.36112
-3.91621
0.629623
-4.32668
-4.10285
-5.22723
-1.35905
-5.52879
-0.469537
1.32158
-1.50776
0.537637
0.776292
0.141569
-1.36116
-2.45045
-3.27598
-0.278186
-0.758561
-1.58988
-0.470678
-1.82319
-2.50022
-1.23869
-2.83094
-3.98617
0.0653817
-2.0139
-1.81972
0.0195504
2.69234
-0.352804
-1.12935
0.166418
-0.244023
-1.35059
-2.04018
-1.15436
-1.52379
-1.15674
-3.15201
-0.847957
-2.57347
-3.47703
-4.26783
-3.64483
-0.927944
-1.75312
-1.52699
-0.20251
0.59117
-1.26982
-0.0664352
-0.990764
-0.198377
-0.79736
-1.78699
-1.82056
1.4672
-0.41749
-1.46015
-1.11014
0.586567
-2.71812
-0.320959
-0.793147
-0.226576
-0.724622
-0.541429
-1.51747
-0.387451
-2.17276
0.0976405
-1.88069
-0.829917
-0.83101
-0.304967
1.03372
0.175519
1.03781
-1.19893
-0.21419
0.128195
-2.04018
-1.52875
-1.38208
-0.517487
0.262352
-2.31008
0.613588
1.73767
-0.262024
0.0792406
0.245967
-1.04593
-0.650942
-0.795519
-0.117588
0.703604
1.38321
-0.581145
-0.62788
-1.13055
-1.23614
-2.35893
-2.93468
1.94078
0.853105
-0.0715025
0.26537
-0.802174
-0.193221
0.163449
-1.46105
-1.1848
-0.839015
-0.112117
0.861294
-1.58947
-1.7399
0.250411
0.801901
-2.74816
0.732491
-1.71744
0.604835
-0.61226
0.209508
0.125409
-0.613273
1.95503
2.8029
0.838957
1.80102
-0.839846
-1.48753
0.204649
1.72013
-0.0418199
0.767446
-0.0712755
2.82104
2.2069
-1.1726
-0.643493
-6.37281
-1.48428
-2.48658
-1.42477
0.151701
1.06261
-0.340893
0.330308
0.0455381
-1.29543
0.219154
0.233037
-0.142011
-1.97695
-2.16734
-1.26482
-1.45609
-0.661081
-4.04039
-5.04819
-2.55965
-0.425976
-0.526452
-0.228675
-0.304681
0.0728485
-1.68303
0.349503
0.111913
-0.158748
-0.0617038
-2.08974
-0.271695
0.17796
0.158303
0.315792
0.215353
-1.09964
-0.29274
-5.77198
-1.24123
-1.52156
-2.15858
0.217281
-2.88318
0.635013
1.55437
-0.651527
0.0693242
-0.213745
-1.7777
-3.46962
-0.498105
0.158679
-1.45489
-0.362634
-0.899588
-3.42961
-0.923487
-4.46003
-3.5629
-1.46832
-3.37328
-2.48584
-1.32955
0.917406
0.217555
-1.53611
-0.266211
1.34167
-0.822196
-2.83302
-1.806
1.88985
0.631785
-1.992
0.316438
-2.94178
-2.49754
-3.08295
-4.98303
-1.20181
-1.96097
2.9787
-0.675163
-0.945085
0.498727
-2.71726
0.455411
-1.72554
-2.28337
0.0776897
-0.289644
0.215671
0.72375
-1.27886
-0.529059
-3.7608
-0.684379
-2.97605
-2.21203
-1.16681
-0.434023
0.160624
0.675081
0.236895
-0.355738
1.28617
0.378334
-0.894408
-2.60643
-0.89539
1.14375
0.810446
0.823463
0.280178
-0.338968
-1.87742
-2.71813
-2.61771
-2.97319
-2.32125
0.477284
1.34079
0.582405
-1.77087
-0.174554
-1.66877
-1.15432
0.562428
-1.48612
-0.0091962
0.636838
0.999107
0.737178
-1.86354
-0.614572
0.819635
-2.85505
0.642772
-1.90577
-0.363542
1.44009
-2.31463
0.624476
0.558355
-1.65744
-0.409324
1.21301
1.40451
-0.802426
-0.474054
-0.668204
2.11136
-0.069065
-2.18219
0.476445
-0.587972
-0.689474
-0.491525
-4.66549
-1.90509
-0.555435
-1.23519
0.0847413
-2.17902
-1.42702
-1.10642
-0.211205
0.0431386
-0.930053
-1.43282
-1.31304
0.366483
1.33697
0.732874
-0.184605
0.502964
-1.69874
-4.55817
-1.17877
-2.17531
-2.83619
-3.00077
0.797151
2.96662
-0.663214
-1.442
0.963315
-0.308502
-1.19085
-0.606669
1.3298
-1.10668
-0.108668
1.85784
0.449784
-1.0441
-3.56275
-2.76722
-3.51846
-3.49344
-4.24142
-0.588194
-0.473372
-0.402239
-1.37361
-1.46281
-1.56514
-0.205657
-0.73738
-2.0965
-1.72157
1.633
0.913135
-1.20861
0.0819561
-1.18496
-2.99789
-2.60681
-2.45429
-0.556525
-0.0537314
-0.521791
-1.65563
0.140213
-0.294418
-0.703198
-1.54966
0.847862
-0.170575
-1.15576
-0.542285
-1.71111
-1.68606
-1.68356
-2.22652
-2.79306
-2.21104
-1.68388
-0.199419
-3.50253
-1.72453
0.827861
-0.0120647
-0.757403
-1.3407
0.026125
-0.450766
-0.171007
0.391185
0.33718
-0.860892
0.154599
1.22071
0.606899
-1.06285
-2.35369
-0.631946
-2.65582
-0.329444
-2.05973
-1.57737
-1.48665
0.33109
-2.66104
-0.216601
0.324269
1.281
-0.0913916
1.59132
1.06424
0.912628
-0.476734
-1.17881
-0.339136
0.238285
-0.315468
-2.26694
-1.75655
-1.60193
-0.8106
3.89082
1.6343
-2.30986
-0.328741
0.0830771
-0.19638
0.0868546
0.303816
0.30404
-0.291342
-1.48056
1.7844
-1.14074
-0.128048
0.0175082
-1.90664
-0.817385
-1.66483
0.527035
-1.33075
0.124369
0.555392
0.593084
-0.0607094
1.37189
-0.950443
-0.1123
-0.185607
-1.11003
1.64468
-1.35449
-2.54568
2.18893
-0.176622
0.483016
-0.120093
-2.80554
-0.679636
-3.83729
-0.705717
0.30817
-2.31588
0.887222
1.70759
-0.358077
2.24931
1.90388
0.0134076
0.377562
-0.0481956
-0.449658
1.8625
1.12573
0.655536
-1.99619
1.12867
-1.20504
-2.06823
-3.36817
-0.514691
-4.14831
0.329151
-0.699977
0.0627815
1.26417
0.283074
-0.743742
0.040638
-0.0949761
0.591364
0.238028
-0.14104
-0.170074
-1.18521
0.252958
-0.683403
0.112052
-3.5801
-3.6678
-2.43824
3.89474
-2.79337
1.32392
-0.928134
0.303535
0.712432
1.62868
0.0993457
-0.941417
1.67726
1.45549
-0.0223975
-0.909624
0.22266
-1.77983
-0.144517
-0.56637
-2.10417
-3.37386
-0.712853
-1.78053
0.372547
1.09505
2.82518
1.86083
2.5074
0.208238
0.0768632
-0.243962
1.93077
0.893071
-1.34287
-0.401805
-0.672704
-0.491765
-0.861917
-4.25809
1.19404
-5.15988
-1.60221
0.835413
-0.582914
-1.32079
-3.01424
2.70172
0.196808
-0.0582741
-1.02301
2.01594
-0.458218
-1.31339
-0.467134
0.95849
0.92201
1.41731
-1.09844
-0.267197
-1.21259
-0.638814
-1.16523
-0.842835
0.138028
1.53235
0.0352348
-1.12011
1.39078
1.75581
0.541416
-0.823821
0.271231
-1.93601
1.27958
-0.437389
-1.89389
-1.72301
-2.8466
-1.72455
-0.136461
-0.736452
0.408072
0.368845
-0.519218
-1.58565
-0.026613
0.509148
0.100348
-0.372656
1.28786
-0.726179
0.45845
1.33137
0.987544
0.746993
-0.000844408
0.511036
0.330116
-3.06731
-0.486263
-1.09811
0.497322
-0.280769
-1.12501
1.47593
1.01312
-0.41971
1.20793
0.938682
2.32636
-1.15033
-0.651588
0.381925
-0.341745
0.292408
2.1463
1.03898
-1.70666
0.605207
-0.168657
-4.64022
-4.4394
-0.438137
-0.520889
3.39474
1.9769
0.244604
0.00330906
-0.229369
3.75641
3.49128
-0.457482
0.330704
-0.259466
-1.01984
-0.403988
-1.14585
-0.672599
-0.241835
-3.79711
-3.40956
-0.135252
-2.10432
0.710063
-0.500432
-1.48294
0.609419
5.02246
2.81942
1.43523
1.62047
3.00196
-0.242634
-0.0906457
1.25727
0.439488
-0.98591
1.04147
-1.44489
-3.5213
-0.5217
-0.859725
-0.753787
-0.624271
0.421625
0.789149
1.39203
-0.586619
-0.283171
0.446804
-0.0678815
2.678
0.902956
-0.128656
2.58223
-0.495339
-1.14585
-2.27806
-2.44412
-1.21043
0.722771
-1.87295
-1.97491
0.709831
1.13705
-0.218158
2.61765
-1.04262
0.591033
0.496763
-0.603634
0.891925
1.76755
0.999084
-0.31481
-0.884213
-0.890039
-1.21104
-0.773113
-1.40296
-0.483779
0.751935
0.652929
0.0776161
0.715238
0.0279164
1.95643
-0.194253
0.0273805
0.522638
1.41254
-1.42819
0.0243339
-0.417722
-0.234973
0.847139
-0.307144
1.66011
0.469729
-2.19413
-2.22579
-3.11828
-0.47192
0.425021
-0.486522
-0.620557
1.35347
-0.598823
3.16892
-0.317334
0.60999
-0.382894
1.10653
-0.483115
0.970985
-0.56258
1.59702
0.666541
0.700122
-2.05002
-0.447884
-0.972491
1.08537
-0.759401
-1.03815
0.127057
0.550263
1.11869
0.482637
1.76717
-0.990879
-0.320909
-0.235759
0.721094
0.894028
2.09506
-0.478139
-1.12512
3.06089
0.226552
0.136044
0.146019
1.31276
0.345944
0.253286
1.26384
2.5645
0.0506161
-0.0242034
-1.54
-0.222327
-0.205604
-0.993429
0.75012
-0.285346
-0.793583
0.41615
-0.7023
0.32876
-0.406896
-0.541733
-0.538991
-1.43368
1.37941
2.95083
1.03218
3.37803
5.45448
2.33333
3.73212
1.70311
4.22128
1.08758
2.19198
-0.122574
1.04442
0.46055
1.36879
-0.0832508
-2.36632
-0.865015
-0.211324
0.089073
-0.172535
2.64143
0.118316
4.07834
0.0809542
-0.428247
0.373435
-0.48983
3.17927
0.157774
2.44365
0.0702993
3.82895
0.380005
3.55735
0.0241479
-2.55957
-1.06747
1.16662
-1.5847
0.645864
1.9063
0.471564
2.32489
3.16496
3.67376
1.29247
3.68815
2.65655
2.35353
2.10566
1.8048
1.45495
1.22651
-0.717809
-1.42316
-1.70814
-1.70178
0.399217
-0.283624
2.23357
1.96303
1.94868
-0.607351
3.28138
-0.416147
2.09679
1.62562
-0.283254
0.659624
1.85743
0.439885
0.902499
-1.61279
-0.160268
-0.0602557
-3.24702
-0.538087
-0.0473917
-1.53557
2.06564
0.398191
-0.690206
-0.407264
0.326502
1.62272
1.47348
1.13422
1.52234
1.24215
3.08971
-0.166722
-0.22787
0.144751
1.038
-1.05924
-2.14271
-0.844374
0.546874
0.978413
1.76786
0.352643
0.856447
-1.26125
1.17385
0.388116
0.943504
3.07051
0.0851086
0.274838
-0.611213
-0.606304
0.695737
0.3807
-0.269511
0.0360704
-1.05089
-0.563719
1.54093
-0.235865
0.696739
-0.106743
0.170012
2.51879
-0.809424
2.31317
0.656453
1.25765
1.96613
-2.05089
1.18425
1.50053
1.58376
-0.342563
-1.05771
-0.969818
-2.06007
0.859996
2.77185
0.960115
0.436904
-1.38079
1.04593
1.63129
0.856598
2.62229
2.24615
-0.333124
0.308712
0.862574
1.06519
2.08336
1.05842
1.38893
0.29138
-0.344615
0.837024
0.590119
1.33333
0.405087
1.74851
-0.324485
2.18285
2.15122
2.50787
4.64008
0.327679
0.561195
3.88567
1.62911
2.25896
0.249001
1.93795
3.1386
3.90953
1.02758
-1.96275
0.490057
-0.156354
0.0977714
2.05855
-0.910962
2.0211
2.86211
0.10582
2.2256
2.67391
3.54467
3.93376
2.56661
1.1213
1.35166
2.09994
0.326676
1.27901
1.01268
-0.310209
-1.44019
-1.69928
-1.90524
0.652373
0.671338
0.758283
3.78557
3.47835
3.96991
2.86597
0.271701
4.41669
4.04262
3.39293
2.67069
0.282508
1.88335
2.49558
-0.0724276
-1.78324
-0.373456
-1.4061
-1.2953
1.58945
3.19918
1.94796
1.76304
1.11132
2.18189
2.99988
2.56368
4.24316
0.947168
-1.31048
2.96059
0.587676
-0.114354
1.11034
0.633374
0.127866
-1.54649
2.47948
0.627452
-0.532617
2.21602
-2.04882
-0.0569827
2.59336
0.216194
4.38832
0.666144
1.26642
2.30567
-0.816431
2.07357
1.04744
-1.75814
-0.0664662
-1.77574
-2.28179
-0.817778
-1.40199
0.482291
-0.602672
0.413851
0.125688
1.20295
2.20291
1.84174
0.756298
-2.94327
0.961185
2.57916
1.45772
1.86415
1.62114
1.42271
0.0841301
-0.211005
0.808706
0.806656
0.722697
1.77145
-0.00939767
-0.109269
1.47409
1.79954
0.661291
1.92262
2.2946
0.890228
-0.579437
2.38153
1.91653
1.73702
-1.38599
1.01298
1.23712
-0.81066
-0.212359
-2.34676
-0.412857
-0.255977
0.361925
2.0533
0.724023
2.52845
0.655906
0.647763
1.21526
-1.12587
1.33476
1.44001
2.42639
-1.55364
0.656508
-0.803369
-2.65441
2.79014
0.614779
0.508394
1.41677
1.44171
2.93123
1.77043
2.14845
4.76783
3.71252
6.15803
4.42617
4.23793
6.94174
4.50562
4.29262
1.59159
2.65832
3.44163
0.78544
-1.35972
-0.256972
-0.686442
0.470603
2.81187
0.347888
1.25712
0.0920513
2.63776
0.123779
1.5084
0.454049
0.519043
5.53746
0.413039
2.71573
0.511392
2.78787
0.203887
1.72963
-0.0967102
1.40464
-2.04592
-0.285212
3.14942
2.18543
2.05049
1.23278
3.4057
4.14923
4.30776
3.80625
2.339
4.06892
2.7386
1.14945
1.01099
3.15682
2.53703
1.01478
2.17824
0.194082
0.957311
-0.701769
2.14715
1.8608
1.58746
1.27644
4.26436
1.33513
2.48778
3.5141
3.62012
3.15046
0.256496
2.66629
3.2718
1.11245
-0.00109892
-0.754263
1.10137
-1.0179
-2.24847
0.400713
1.52649
0.249226
0.10338
2.00862
3.46083
1.55515
-0.720888
2.94848
1.16953
4.09356
1.89849
3.73328
1.21672
0.181749
1.09625
-0.202238
-0.424136
1.78384
-0.539838
0.993555
0.0571911
1.06376
0.670978
2.70878
3.6894
1.53305
1.97285
2.23388
0.136131
1.13033
2.69181
1.44366
1.58161
1.75423
1.6373
0.0277665
-0.406474
1.12005
0.60261
-1.80524
-0.0156826
-0.913143
2.7165
1.37719
2.2239
-0.403459
0.490218
-2.63248
3.79049
-0.438344
1.67036
1.35641
-0.765888
-1.06153
0.793335
0.766288
2.8613
-0.929396
-0.333782
2.25432
-0.387548
-0.49675
0.761232
-0.587675
0.945721
-2.44916
1.52817
1.16472
1.27802
3.13592
0.509351
1.92473
0.772789
0.815152
-1.19481
0.447352
2.22201
1.07965
0.809138
1.23349
3.01481
2.3381
5.56508
6.00674
4.47357
2.22502
6.98654
4.20775
8.43359
7.84526
6.86535
4.75876
5.7432
5.30392
4.64726
2.20944
3.46535
0.993262
0.495022
0.954649
2.87924
4.54094
1.93678
6.09381
5.49042
5.3957
7.28734
3.25179
1.12366
5.15734
5.96834
4.40725
3.65429
4.77589
5.03193
0.382858
3.42185
1.27957
0.577146
1.45686
1.40315
3.99219
5.03586
2.59815
2.43908
3.51366
4.13492
3.36061
2.87515
2.96246
6.1723
4.39311
3.06392
2.91332
4.29651
0.317209
0.962478
-0.401359
1.00961
0.936048
1.63562
3.13119
2.19302
2.28466
1.06832
3.38769
3.2627
2.44628
3.15179
1.78594
3.58498
3.5373
4.7541
2.06201
2.38561
1.45078
1.11413
1.01473
0.147122
2.70432
3.56999
2.12366
0.107085
1.9977
2.24753
1.95924
3.71451
1.39258
0.233039
0.741542
2.59341
-0.157654
2.69573
0.699348
3.37543
3.1875
1.40826
-0.56555
-0.561645
0.314005
1.08023
-0.74227
0.648008
0.666782
3.16166
0.0012363
0.595163
0.596043
0.235643
3.47939
0.61461
2.67366
1.47405
3.05462
2.06697
2.64338
3.29735
0.742755
-0.442691
-0.160065
0.331605
2.14058
-1.31326
0.70948
0.472665
-0.401959
0.703039
1.61148
3.04279
-0.920709
3.81177
-0.663021
1.96954
1.55843
1.37525
0.481347
0.829976
0.587492
-0.163114
1.69067
1.35634
-0.853644
-0.590793
-0.998308
1.33284
0.970275
0.474612
1.19507
0.702831
0.342144
0.660159
0.12417
-0.980588
-0.0457238
3.13205
1.01282
1.50239
0.412162
)
;

boundaryField
{
    hotSide
    {
        type            calculated;
        value           nonuniform List<scalar> 
400
(
0.257022
-2.70296
-1.8513
-5.44044
-1.69022
-3.95768
-4.46887
-3.08458
-4.47291
-5.98585
-4.24417
-2.89269
-5.39452
-3.64828
-2.77797
-3.53559
0.611431
1.79505
1.76834
2.12735
1.0467
-0.348835
-2.40072
-0.214133
-0.946621
-0.999894
-0.505054
-2.85926
-2.54443
-2.27002
-0.608979
-4.81029
-0.500728
-0.883017
0.358095
-3.33063
0.617979
2.54176