/*--------------------------------*- C++ -*----------------------------------*\
| =========                 |                                                 |
| \\      /  F ield         | OpenFOAM: The Open Source CFD Toolbox           |
|  \\    /   O peration     | Version:  2212                                  |
|   \\  /    A nd           | Website:  www.openfoam.com                      |
|    \\/     M anipulation  |                                                 |
\*---------------------------------------------------------------------------*/
FoamFile
{
    version     2.0;
    format      ascii;
    arch        "LSB;label=32;scalar=64";
    class       volScalarField;
    location    "0";
    object      relativeErrorField;
}
// * * * * * * * * * * * * * * * * * * * * * * * * * * * * * * * * * * * * * //

dimensions      [0 0 0 1 0 0 0];

internalField   nonuniform List<scalar> 
3200
(
0.00144751
0.000844916
0.0025815
0.0103429
0.0157692
0.00817757
0.00662749
0.0102014
0.0105673
0.00414968
0.00435185
0.0111031
0.00505915
0.00447916
0.00231086
0.00542356
0.0082529
0.00840662
0.00320333
0.00227433
0.0103893
0.00250293
4.85674e-05
0.011872
0.00301654
0.00276195
0.000531958
0.00988137
0.0040287
0.00214866
0.00636133
0.00507906
0.0104904
0.00122982
0.00150784
0.000455048
0.00975225
0.00328161
0.00427717
0.00508654
0.00429708
0.00302508
0.0111419
0.00607712
0.0111232
0.00103158
0.0110222
0.00327104
0.0060542
0.00321809
0.00331094
0.00420755
0.000186649
0.00330927
0.000725749
0.0035404
0.00239177
0.000262154
0.000736412
0.00416033
0.00974455
0.000577494
0.00264073
0.00427599
0.00858441
0.00706886
0.0145748
0.00548537
0.00310394
0.00827215
0.00449934
0.00624695
0.0132867
0.000523679
0.000281914
0.00386276
0.00448762
0.00396981
0.0082004
0.000226455
0.00360737
0.0042397
0.000512566
0.0108018
0.0069115
0.0026546
0.00236829
0.000449676
0.0101197
0.00256316
0.00156468
0.000856545
0.00336429
0.0066019
0.00120968
0.00353391
0.000896857
0.00333543
0.000289947
0.00378165
0.00364247
0.00110416
0.000504217
0.00302232
0.00491013
0.00245895
0.00197428
0.00101691
0.000504993
0.00282189
0.00345297
0.0041624
0.00277603
0.00370643
0.000158971
0.000909814
0.00024111
0.00242103
0.000765802
0.000390847
0.00280871
0.00681642
0.00486237
0.00123877
0.00208402
0.00491626
0.00430368
0.00254281
0.00602411
0.00444029
0.00796065
0.00594119
0.00241561
0.00789597
0.00450319
0.000857108
0.00566321
0.00202747
0.000826591
0.000733315
0.00690025
0.00628536
0.00139994
0.00545229
0.00186895
0.00461368
0.00615315
0.0027929
0.00360229
0.00366331
0.005534
0.00120369
0.000628614
0.0015139
0.00427447
0.000466393
0.00209102
0.00334219
0.00562587
0.00533008
0.0101458
0.00325767
0.00605704
0.00824493
0.00490952
0.00755681
0.00971998
0.00195762
0.00765485
0.00190841
0.010597
0.00490437
0.000350863
0.00156276
0.0138977
0.000273084
0.00388257
0.00106456
0.00383338
0.00903124
0.00114473
0.000898371
0.00867046
0.000475402
0.0005635
0.000220356
0.00685314
0.000352007
0.00022457
0.00156794
0.000581904
0.00594857
0.000132442
0.00138435
0.000886456
0.00662595
4.35647e-05
0.00229006
0.00305704
0.0067627
0.00648897
0.000891132
0.005275
0.00597608
0.00330865
0.00909671
0.00807878
0.00634031
0.00436525
0.00242259
0.0040032
0.00157759
0.00777609
0.00242776
0.00434731
0.00173535
0.00264887
0.000106146
0.00679082
0.00498849
0.00545219
0.00486108
0.00680392
0.000372336
0.00469813
0.0053049
0.00374232
0.00171562
0.00294845
0.00178785
0.00555304
0.00607794
0.00528864
0.00856153
0.000849231
0.00116034
0.00137637
0.00368934
0.00201294
0.00588163
0.00242129
0.0122539
0.00314418
0.00822416
0.0101771
0.00277719
0.0039156
0.00742251
0.00104099
0.00142518
0.00248024
0.00786575
0.000835825
0.00596538
0.00432914
0.00157834
0.00299615
0.00542447
0.00472772
0.0078848
0.00367931
0.00225368
0.000330801
0.00145884
0.0121348
0.0013427
0.00156691
0.0027631
0.0022461
0.00107477
0.00149175
0.00300075
0.00162219
0.00301337
0.000968854
0.00147864
0.00683634
0.000100727
0.00172911
0.00368819
0.00247191
0.00510237
0.000367336
0.00561367
0.00245621
0.00387534
0.00626053
0.00141099
0.0038189
0.00414707
0.00551873
0.00657641
0.00143633
0.00522755
0.00382302
0.00852977
0.00414561
0.00369423
0.0114907
3.95688e-05
0.00359385
0.0052791
0.00324931
0.00250836
0.00176057
0.00768454
0.00107684
0.00104032
0.0016148
0.00678412
0.00209202
0.00351778
0.000352293
0.00457673
0.00550228
0.00119959
0.00334537
0.000167757
0.00541516
0.0112246
0.00765475
0.00928477
0.00101742
0.00132627
0.00121455
0.00514014
0.000682081
0.00857993
0.00353556
0.0105543
0.00453312
0.0095808
0.00250146
0.00476905
0.011395
0.00503293
0.00434891
0.0101937
0.0156329
0.00780984
0.00485153
0.000573795
0.0029504
0.0121265
0.00499569
0.00383204
0.00395567
0.00315825
0.00233134
0.00194841
0.0046221
0.00456671
0.0035855
0.0036127
0.00356092
0.00123148
0.00339173
0.00151767
0.00508116
0.00914083
0.00467857
0.00705702
0.00170139
0.000378183
0.00946958
0.00431007
0.00373383
0.00693552
0.0043532
0.000842127
0.00595922
0.00164311
0.00414456
0.00901867
0.00380187
0.000243282
0.000395642
0.00154977
0.000828757
0.00614366
0.00285576
1.04187e-05
0.002474
0.0072802
0.000717996
0.000266338
0.00469462
0.000974992
0.00011114
0.000543652
0.00752509
0.00119389
0.00717711
0.0047729
0.00922835
0.00626197
0.00224783
0.00582427
0.00760564
0.0140825
0.0017752
0.00909673
0.00417596
0.00808152
0.00139745
0.00788361
0.0011087
0.00304174
0.00799605
0.00808945
0.00225623
0.00127597
0.00179086
0.00459768
0.00199263
0.000297866
0.00603844
0.00280176
0.00281927
0.00814673
0.00124875
0.00577335
0.00124091
0.001207
0.00271689
0.00196277
0.00166983
0.0111877
5.93324e-05
0.00434899
0.000693866
0.0025415
0.00524201
0.000932003
0.00412136
0.0023215
0.00118575
0.0030462
4.92193e-06
0.00502807
0.00460834
0.00630396
0.00419776
0.00290418
0.00300789
8.5166e-05
0.000155371
0.00465749
0.00116369
0.00863746
0.00251884
0.00388327
0.00498426
0.000907441
0.00334564
0.00312996
0.00227948
0.0022134
0.0103956
0.00112708
0.00290897
0.00168719
0.00360439
0.00190758
0.00933074
0.00751214
0.00190982
0.00436844
0.00223219
0.00755483
0.000764222
0.000528253
0.000780747
0.00245382
9.76767e-05
0.00172271
0.00887974
0.000262265
0.000992622
0.00193723
0.0181815
0.00289662
0.00977386
0.0057015
0.0109322
0.00743533
0.00155236
0.00557327
0.00553209
0.00633682
0.00159845
0.00337027
0.00617882
0.000908517
0.00239679
0.00210967
0.00677495
0.00183672
0.00363178
0.0066729
0.00653297
7.41906e-05
0.00253353
0.0014349
0.00656655
0.00193008
0.00397491
0.00226299
0.00217709
0.000836093
0.00159761
0.00327955
0.000872226
0.00226684
7.33316e-05
0.00193048
0.00121547
0.00824548
0.00012899
0.00988091
0.0106358
0.000362535
0.00165426
0.000188303
0.00590897
0.00675465
0.00370979
0.00546004
0.00244574
0.00123014
0.000907126
0.00549986
0.0105844
0.00116192
0.00126377
0.0121027
0.0049602
0.00433682
0.00119941
0.0114662
0.00361074
0.00397607
0.00012787
8.20792e-05
0.000370346
0.00473857
0.00042785
0.012263
0.00591399
0.00160393
0.00444575
0.00265276
0.00189519
0.00431103
0.00498887
0.00813356
0.00305896
0.00186586
0.00778355
0.00786665
0.000225157
0.000183647
0.00114806
0.00477509
3.99239e-05
0.00458145
0.00214387
0.00433855
0.00480836
0.000358027
0.00485966
0.00152313
0.000485437
0.0034132
0.000225254
0.002894
0.00935249
2.28721e-05
0.0052536
0.00266406
0.00452732
0.00353835
0.00782652
0.00120473
0.00526691
0.00068072
0.000924473
0.000552745
0.0077897
8.28962e-05
0.00183963
0.00441058
0.00139535
0.00384642
0.00264283
0.00782143
0.00252465
0.00374743
0.00575072
0.00370366
0.000261836
0.00245205
0.00475277
0.000319846
0.000225094
0.00170296
0.000576993
0.00083796
0.000731982
0.000983782
0.00317383
1.39823e-05
0.00303321
0.00629853
0.00100078
0.0031172
0.001248
0.00284221
0.00427988
0.00482394
0.00105583
0.00247074
0.00769655
3.36465e-05
0.00124673
0.000294864
0.00579787
0.00383501
0.00259522
0.00420541
0.00161944
0.000235689
0.00208519
0.00183431
0.00418522
0.00602045
0.00161612
0.003438
0.0124855
0.00468778
0.00721686
0.00506365
0.00135899
0.00244776
0.0031664
0.000837138
0.00830128
0.00145806
0.00135989
0.00235035
0.00724997
0.00596959
0.00112014
0.00179688
0.00362575
0.00280039
0.00229584
0.00310397
0.00246995
0.00568856
0.00463867
0.00349701
0.0044884
0.00452717
0.00252656
0.00106169
0.000370181
0.00240615
0.00269892
0.00442657
0.000198447
0.00304934
0.00332921
0.000600834
0.000155959
0.00266192
0.00383205
0.00179583
0.00627218
0.0103207
0.00365573
0.00288292
0.00134266
0.00103798
0.00561291
0.00582067
0.00302463
0.000564031
0.000257991
0.00169728
0.00171924
0.00381012
0.00104418
0.00299981
0.0014896
0.00190577
0.00189241
0.00817086
0.00355316
0.00942409
0.00865125
0.00730593
0.00638956
0.00203587
0.00194608
0.00364036
0.00372331
0.00368334
0.00175564
0.00121473
0.00573001
0.000971045
0.00379797
0.000782436
0.00634341
0.00245435
0.00242546
0.00226147
0.00827761
0.0168305
0.00433642
0.00255693
0.00131715
0.00444695
0.00235081
0.00544402
0.00837212
0.000909424
0.00414872
0.00138606
0.00378081
0.00278738
0.00489767
0.00504378
0.0017877
0.00029993
0.00113417
0.00157725
0.00129301
0.00916309
0.00311996
0.00195963
0.00305703
0.00291803
0.00179752
0.00101291
0.00119923
0.000304138
0.00114668
0.00208722
0.000578457
0.00378591
0.0041095
0.00411365
0.00249313
0.00761447
0.000445696
0.00188004
0.00109806
0.00392024
0.00367537
0.00193398
0.00316095
0.00478444
0.00169975
0.00292901
0.00497345
0.0051509
0.00451998
0.00728901
0.00892583
0.00174296
4.18227e-05
0.00645288
0.000859123
0.00537798
0.00277734
0.000134368
0.0061122
0.00141005
0.00147566
0.00348341
0.00120764
0.00447939
0.00379894
0.00866329
0.00367471
0.00497417
0.00299399
0.00316475
0.00163476
0.00540407
0.00137586
0.00226966
0.00916385
0.00445694
0.00488519
0.000210424
0.00055656
0.0049812
0.0138543
0.005248
0.00205737
0.00527248
0.000962627
0.00405308
0.000735731
0.00412573
0.00470548
0.000577248
0.00302831
0.00130647
1.04789e-05
0.00623819
0.00456422
0.00236813
0.00543039
0.00258086
0.0064127
0.00668174
0.00231927
0.00114431
0.00585211
0.000874255
0.00470089
0.000535338
0.00717499
0.000822294
0.00115131
0.00148247
0.000160244
0.00288571
0.00028125
0.00373868
0.0014301
0.00298256
0.00016927
0.00416375
0.000307326
0.0118051
0.00835775
0.00269188
0.00887947
0.00278722
0.00407308
0.00215783
0.00356039
0.0054314
0.000464205
0.00453405
0.00361542
0.00829446
0.00174912
0.000987083
0.000611414
0.0080795
0.00634893
0.00104342
0.006829
0.00779707
0.00185044
0.00060247
0.00226249
0.000290169
0.0026111
0.00281478
0.000333138
8.5766e-05
0.00219643
0.00321407
0.000802621
0.00151744
0.0013045
0.000912552
0.00908428
0.000674256
0.00195802
0.001216
0.00712391
0.00630177
0.00504606
0.00190351
0.00393667
0.0029049
0.0012973
0.00201822
0.00099604
0.000194304
2.18904e-05
0.00202975
0.00449437
0.000674913
0.00488117
0.00268781
0.000343436
0.00395896
0.000534292
0.00321278
0.00159103
0.00734059
0.000210158
0.00342893
0.0081485
0.0104374
0.00457869
0.00222201
0.00269696
0.00481886
0.000483059
0.0032811
0.003247
0.000491851
0.000882428
0.000625416
0.00537507
0.00119018
0.00204078
0.00723758
0.00294536
0.00277299
0.00332824
0.00936534
0.00269225
0.00268496
0.00113679
0.000424033
0.000124076
0.00149647
0.00157946
0.00814484
0.00560656
0.00124242
0.00012553
0.000631943
0.00556976
0.00129044
0.00482963
0.000351905
0.00133462
0.00213883
0.000902453
0.00399669
0.00360476
0.00192675
0.00369434
0.0012033
0.00596254
0.00150424
0.00208883
0.000594392
0.000772454
0.005969
0.00401235
0.00396002
0.00254263
0.00232474
0.00589115
0.00238396
8.18868e-05
0.00072984
0.0153513
0.00384455
0.00598877
0.00471364
0.00320216
0.00519583
0.00116327
0.00366992
0.00473284
0.00156786
0.00150537
0.00127474
0.00326073
0.00214741
0.000451943
0.00330472
0.000969995
0.00999158
0.00781871
0.0107518
0.000903413
0.0102711
0.00293261
0.000140714
0.0037391
0.00353473
0.00467415
0.00205584
0.00145638
0.00240418
0.00368593
0.00029162
0.00298769
0.00154982
0.00395718
0.00478454
0.00389545
0.00201192
0.00998195
0.0114053
0.00476612
0.00297553
0.00520249
0.00528725
0.00768568
0.000847911
3.94598e-05
0.0032262
0.00190422
0.00307078
0.00474958
0.00652875
0.00916343
0.00108307
0.00209387
0.00364056
0.00381121
0.00847879
0.0113675
0.00707453
0.00821069
0.00502275
0.00434158
0.000283896
0.00826419
0.00202561
0.000822607
0.000901962
0.0020144
0.000469312
0.00404864
0.000203648
0.00104094
0.00494941
0.00307629
0.00504345
0.00220445
0.00315941
0.00359824
0.0106264
0.0108892
0.00234306
0.00064641
0.0021042
0.00310963
0.00182576
0.00309194
0.00355433
0.00330883
0.00711203
0.00173032
0.000547941
0.00855548
0.000843403
0.00485216
0.000842275
0.00510448
0.00181438
0.00499571
0.0136818
0.0118257
0.00873477
0.00216312
0.0100064
0.00897872
0.000900607
0.00127067
0.00757859
0.00428614
0.00848315
5.0482e-05
0.00399675
0.00432292
0.000690389
0.00030522
0.0042829
0.00264615
0.00249169
0.00211963
0.00328388
0.000377162
0.00287069
0.000797411
0.00531493
0.000318621
0.00789304
0.00231034
0.00940102
0.00701697
0.00434376
0.0088667
0.00233376
0.00475196
0.00522881
0.0116394
0.000170522
0.00483522
0.000353352
0.0044216
0.00573054
0.00915166
0.00106804
0.00399264
0.00123786
0.00563706
0.00638237
0.00187553
0.00723078
0.000931783
0.00372594
0.00577366
0.00742618
0.00534094
0.00073397
0.00579124
0.00140305
0.00279034
0.000950054
0.00105284
0.000554652
0.0113468
0.010708
0.00231324
0.0043456
0.000375886
0.00133628
0.000134121
0.00342559
0.00246087
0.00111887
0.00218374
0.00528037
0.00343733
0.00497918
0.00647169
0.00193257
0.00063666
0.00154631
0.00525294
0.012641
0.0220166
0.000380259
0.0055884
0.000207073
0.00186741
0.000349935
0.00470251
0.00197171
0.00187986
0.00141178
0.00209387
0.00671713
0.000793679
1.20307e-05
0.000693901
0.00757706
0.000204215
0.00246033
0.00124304
0.0113172
0.0139558
0.00720902
0.00465425
0.00346448
0.000872442
0.00169501
0.00344154
0.00403424
0.000447215
0.000176747
0.00279031
0.00251775
0.0070508
0.00522461
0.00203787
0.00454629
0.00590477
0.00908793
0.00815616
0.0152724
0.00210706
0.00933121
0.00183884
0.00112882
0.00136395
0.00218539
0.00287738
0.00266732
0.00282708
0.00222266
0.00600503
0.00335852
0.00135081
0.00504132
0.00359761
0.00138363
0.00820019
0.000889412
0.00667844
0.00590396
0.00389777
0.00531875
0.00780808
0.00344954
0.00256228
0.000954921
0.00190615
0.00592948
0.00673595
0.00478133
0.00385128
0.00297917
0.00530494
0.00137516
0.00179032
0.00153934
0.00452189
0.00109047
0.00221461
0.00632308
0.00700182
0.0125721
0.000949867
0.00232377
0.00485872
0.00537279
0.000965066
0.000718538
0.00886595
0.010324
0.00226246
0.00434521
0.00403109
0.00203222
0.00318907
0.00282157
0.0052358
0.00661918
0.00115848
0.00151093
0.00211829
0.000844527
0.00159688
0.000938077
0.0059361
0.00116063
0.000761786
0.00335556
0.00180518
2.25958e-05
0.00789192
0.00340364
0.000860777
0.000465175
0.00566378
0.00695173
0.0045574
0.00368319
0.00347916
0.0060107
0.000420096
0.000517586
0.00910954
0.0042572
0.00420882
0.00691608
0.00646134
0.00263224
0.0032462
0.00668826
0.00112162
0.00120698
0.00157321
0.00344343
0.00404916
0.00243064
0.00714433
0.0016137
0.00669864
2.29296e-05
0.0153789
0.0098252
0.00259608
0.00376264
0.00602711
0.00282635
0.00882195
0.00222661
0.00398885
0.00774307
0.00547598
0.00647318
0.00964175
0.00790689
0.00406643
0.000924516
0.00626313
0.000482066
0.0075726
0.00964613
0.0106408
0.00449103
0.00739748
0.000902318
0.00325698
0.00025475
0.00119984
0.00484781
0.00316281
0.0135136
0.00110056
0.0066268
0.00376869
0.00324891
0.00753882
0.00180239
0.00371004
0.00728846
0.0044869
0.0120199
0.00881659
0.00626317
0.0116773
0.0026723
0.00223826
0.00352743
0.00356661
0.00459362
0.00519244
0.00423673
0.0112271
0.00401085
0.000943406
0.00497509
0.00178955
0.00389439
0.0018419
0.000485593
0.00883581
0.0189583
0.0107697
0.00109449
0.0104549
0.000591651
0.00148833
0.0035122
0.00347113
0.00461821
0.000444917
0.00165221
0.000715987
0.00138985
0.00305651
0.00452854
0.00417179
0.00984137
0.00283155
0.00546629
0.00827472
0.00955589
0.00152995
0.00552041
0.0055275
0.000869522
0.000234898
0.000273651
0.00551216
0.00344003
0.00108076
0.00581142
0.00604125
0.00406084
0.00462166
0.00499952
0.0071063
0.00274122
0.00333187
0.00146008
0.00381582
0.00984594
0.00935995
0.00266388
0.00373253
0.00420669
0.00390738
0.0036084
0.00210277
0.00870437
0.0041417
0.00435404
0.00323233
0.00101458
0.00486461
0.00264933
0.00436407
0.00264709
0.012091
0.00702667
0.0111198
0.00453576
0.00255297
0.00475731
0.00589253
0.00443784
0.00217568
0.00914726
0.00179842
0.00834732
0.00155521
0.00367794
0.00750203
0.00296893
0.000952159
0.00519914
0.00539214
0.00136159
0.000202704
0.00202255
0.00236236
0.0056819
0.00389545
0.00153773
0.005982
0.0100913
0.00828453
0.00384325
0.00149955
0.00377463
0.00514494
0.00113528
0.00320962
0.000820686
0.00090982
0.000946241
0.0015683
0.00101082
0.00349687
0.00669359
0.00469427
0.00126808
0.0197375
0.00906956
0.00638143
0.00237763
0.00555382
0.00157352
0.000735256
0.00103151
0.00424874
0.00186333
0.0014173
0.00620587
0.00598756
0.0065943
0.00371919
0.000251741
0.00192508
0.00727089
0.00854307
0.0124475
0.0135208
0.00131802
0.000976176
0.00103048
0.00138098
0.00146694
0.000638531
2.22811e-05
0.00218136
0.000838912
0.000905067
0.000526066
0.00058386
0.00971671
0.00105067
0.00606979
9.87177e-05
0.0067516
0.000310341
0.0129059
0.00867976
0.000221563
0.00671017
0.000489803
0.00641512
0.00738165
0.0044845
0.00829644
0.00816111
0.00359718
0.00647863
0.00129269
0.00454553
0.00405296
0.000895078
0.00326302
0.00219339
0.0101883
0.00551694
0.0119242
0.00407707
0.00908156
0.00426573
0.00603147
0.0027231
0.0017801
0.00447007
0.00127943
0.00334952
0.0128084
0.00140237
0.0030102
0.0106576
0.00339657
0.00130113
0.00127184
0.00616014
0.00663456
0.0107813
0.0110202
0.00533497
0.00824235
0.00386003
0.00533202
0.00300571
0.00434625
0.00138022
0.00395397
0.00559615
0.00441972
0.00292227
0.00443109
0.00547799
0.00719425
0.0024439
0.00501542
0.000940533
0.00660047
0.00833389
0.00427016
0.00676218
0.000137039
0.00246635
0.00364856
0.00383528
0.00390226
0.00167451
0.000673509
0.00409593
0.00184391
0.00507344
0.000667147
0.0043728
0.00120093
0.00391271
0.00156958
0.00541795
0.00098153
0.0015523
0.002315
0.0013911
0.00267944
0.000143164
0.00398369
0.000480569
0.000415242
0.00861295
0.00387779
0.00290387
0.00556767
0.0002597
0.000302776
0.00184261
0.00201668
0.00182949
0.00340243
0.000609099
0.0050853
0.00430499
0.00207939
0.000222127
0.00266026
0.00661937
0.000375965
0.00623318
0.00446321
0.00301823
0.00169309
0.000836349
0.00180919
0.00168696
0.00326027
0.00114481
0.00650681
0.00590572
0.00796095
0.00346259
0.00047584
0.00708037
0.00460076
0.0147447
0.00436028
0.00479907
0.000960774
0.00643138
0.00658536
0.00349461
0.00149774
0.0030794
0.00119543
0.00383163
0.00634749
0.00423741
0.00265311
0.00565748
0.00613662
0.010572
0.00784329
0.00824824
0.0158422
0.0133408
0.000712176
0.00475124
0.000937803
0.0112169
0.00025536
0.000198293
0.000794893
0.00336959
0.000736528
0.00254459
0.00392271
0.00075573
0.00249144
1.25146e-05
0.00265962
0.000480232
0.0017008
0.00104081
0.010216
0.0127846
0.00695075
0.00275051
0.00212988
0.00236377
0.00493179
0.00526672
0.000836237
0.00344839
0.00443596
0.00431095
0.0044549
0.00391564
0.000736767
0.00594086
0.00597183
0.00589004
0.00653528
0.0099623
0.00935483
0.0163942
0.00466076
0.000518656
0.00198639
0.00584231
0.000363046
0.00327816
0.00483985
0.00441157
0.00742787
0.000853678
0.000611718
0.000255045
0.000900415
0.00215815
0.000327103
0.00573247
0.00628948
0.00958748
0.00547595
0.00919137
0.00285222
0.00347725
0.00301086
0.0100681
0.00223343
0.00816037
0.000271827
0.00337415
0.000630014
0.000841474
0.00483974
0.00026527
0.00192519
0.00294643
0.00374007
0.00119452
0.00261389
0.0052984
0.00310716
0.00671366
0.00590282
0.00395762
0.00644311
0.00114047
0.00212327
0.000386684
0.0048347
0.000857332
0.0084484
4.7119e-05
0.00176657
0.00109677
0.00335072
0.00228108
0.000408513
0.000798339
0.0011345
0.00536303
0.000679236
0.00126514
0.00866363
0.00134294
9.60823e-05
0.00147463
0.00100669
0.00863532
0.00074166
0.00586725
0.00137944
0.00223219
0.00201109
0.000265031
0.000671736
0.00432564
0.00410296
0.000992839
0.0069667
0.00540612
0.00291033
0.00768449
0.00035666
0.00286288
0.00733902
0.000998372
0.00330703
0.00193754
0.00798595
0.00132329
0.000584868
0.00408697
0.00325557
0.00197257
0.00105952
0.00221083
0.00227466
0.00245008
0.00380375
0.0022102
0.00745961
0.0109141
0.0163791
0.00597461
0.000936491
0.00127494
0.00374015
0.00111496
0.001969
0.0055527
0.00204166
0.00348575
0.00237883
0.00156406
0.00460282
0.00554939
0.00102521
0.0111251
0.00178976
0.0123065
0.0116757
0.0151767
0.00394417
0.0160367
0.00136116
0.00382904
0.00436615
0.00155616
0.00224607
0.000409495
0.00393666
0.00708705
0.00947593
0.000804885
0.00219561
0.00460397
0.0013637
0.00528532
0.00725209
0.00359485
0.00821932
0.0118108
0.000193652
0.00596214
0.00538464
5.78225e-05
0.00795928
0.00104257
0.00333622
0.000491499
0.000720613
0.00398837
0.00602549
0.0034101
0.00450293
0.00341964
0.00932245
0.00250915
0.00761875
0.0102985
0.0126453
0.0110241
0.0028058
0.00529883
0.00461347
0.00061159
0.00178468
0.00383217
0.000200438
0.00298859
0.000598336
0.00240496
0.00539036
0.0054927
0.00442785
0.00126036
0.00440973
0.00335403
0.0017729
0.0082187
0.000970766
0.0024496
0.000699606
0.00223676
0.00167074
0.0046811
0.00119485
0.0066987
0.000300964
0.00579606
0.0025575
0.00256087
0.000939873
0.0031863
0.000541132
0.00320046
0.00369845
0.000660946
0.00039571
0.00629954
0.0047215
0.00436019
0.00163229
0.000827345
0.00728328
0.00193408
0.00547607
0.000825575
0.000249629
0.000774772
0.00329438
0.00205028
0.00250581
0.000370433
0.00221689
0.00435903
0.00183181
0.00197959
0.00356526
0.00389911
0.00744195
0.00946094
0.00625613
0.00274961
0.000230423
0.000855057
0.00258437
0.000622424
0.000526468
0.00470569
0.00381583
0.00270217
0.000361101
0.00277422
0.00512018
0.00560544
0.000806859
0.0025842
0.00885747
0.00236119
0.00553674
0.00199343
0.00201783
0.000690444
0.000413271
0.00202087
0.00644197
0.00923538
0.00276422
0.00593391
0.00276705
0.00490098
0.000674268
0.00566754
0.000137794
0.0025288
0.000234869
0.00929642
0.00727295
0.00386454
0.00212084
0.0180317
0.00419779
0.00702852
0.00402489
0.000428297
0.00299846
0.000961466
0.000931252
0.000128353
0.00365074
0.000617615
0.000656833
0.000400378
0.00557586
0.00611576
0.00357097
0.00411334
0.0018686
0.0114269
0.0142837
0.0073942
0.00123005
0.00151943
0.000659656
0.000878462
0.000209938
0.00484819
0.00100645
0.00032219
0.000456968
0.00017762
0.00601624
0.000782386
0.000512639
0.000456206
0.000910498
0.000621225
0.00317375
0.000845319
0.0166738
0.00366173
0.00448721
0.00636313
0.000640221
0.00849159
0.00186948
0.0045744
0.00191683
0.000203913
0.00062865
0.00522843
0.0102057
0.00146546
0.000466981
0.0042832
0.00106804
0.00265065
0.0101099
0.00272345
0.0131574
0.0107372
0.00442373
0.0101594
0.00748386
0.00400128
0.00275998
0.000654304
0.00461876
0.000800304
0.00403304
0.00247151
0.00851681
0.00543026
0.00568378
0.0019007
0.00599491
0.000952667
0.00885986
0.00752458
0.00929088
0.0153457
0.00370027
0.006036
0.00916587
0.00207697
0.00290651
0.00153341
0.008353
0.00139976
0.00530325
0.0070177
0.000238789
0.000890378
0.000663113
0.00222582
0.0039341
0.00162799
0.011576
0.00210715
0.009165
0.00696392
0.00367276
0.0013659
0.000505384
0.0021236
0.000745051
0.00111862
0.0040438
0.00118938
0.00281164
0.0081935
0.00281488
0.00359602
0.00254846
0.00258985
0.000881357
0.00106652
0.00590835
0.00855586
0.00824105
0.00957276
0.00747299
0.00153637
0.0043154
0.00187426
0.00569821
0.000561607
0.00536858
0.00371332
0.00180922
0.00478056
2.95833e-05
0.00204877
0.00321452
0.00237205
0.00599714
0.00197804
0.00263839
0.00919153
0.00206953
0.00627831
0.0011976
0.00474384
0.00762433
0.00205692
0.00183905
0.00545887
0.00134809
0.00399492
0.00462553
0.00264267
0.00156125
0.0022007
0.00695388
0.000227479
0.00718777
0.0015694
0.00193685
0.00227131
0.00161927
0.0131194
0.00535487
0.00156043
0.00346826
0.000237819
0.00611227
0.00400115
0.00310116
0.000591839
0.000120868
0.00260587
0.00401506
0.00368031
0.00102756
0.00375026
0.00205675
0.000518347
0.00141301
0.00477486
0.0128176
0.00338664
0.00624745
0.00814179
0.00861019
0.00228623
0.00850462
0.00190056
0.00413107
0.00275912
0.000883509
0.00341045
0.00173762
0.00380962
0.0031714
0.000311526
0.00532828
0.00129058
0.00299726
0.0102321
0.0079503
0.010331
0.0102544
0.0124451
0.00172517
0.00138784
0.00117885
0.00402437
0.00428455
0.00458342
0.000602196
0.00215917
0.00613948
0.00504246
0.00478432
0.00267615
0.00354343
0.000240377
0.00347688
0.0087998
0.0076542
0.00736737
0.00167017
0.000161199
0.00156489
0.00496369
0.000420238
0.000882169
0.00210654
0.00464153
0.0025393
0.000510863
0.00346172
0.0016245
0.00512703
0.00505336
0.00504743
0.00667752
0.00837945
0.0066355
0.00505472
0.000612223
0.0107507
0.00529193
0.0025397
3.7002e-05
0.00232236
0.00410997
8.00732e-05
0.00138143
0.000524038
0.00119876
0.00103333
0.00263864
0.000473931
0.00374297
0.00186135
0.00326061
0.00722259
0.00193971
0.00815345
0.0010348
0.00646879
0.00495295
0.00466718
0.00103922
0.00835091
0.000679632
0.00101733
0.00401853
0.000286684
0.00499176
0.00333855
0.00286319
0.00149586
0.00369936
0.00106447
0.000748069
0.000990574
0.00711957
0.00551743
0.00515054
0.00260602
0.0125073
0.00525291
0.00742338
0.00105639
0.000266936
0.000630939
0.000279036
0.000976035
0.000976754
0.000935989
0.00475681
0.00573346
0.0036657
0.000411517
5.62743e-05
0.00612899
0.00262783
0.0053528
0.00173542
0.00438177
0.000409495
0.00182859
0.00195261
0.000199866
0.00451636
0.00312883
0.000369681
0.000610994
0.00365409
0.00541414
0.00445894
0.00838055
0.00720634
0.000581492
0.0015903
0.000395416
0.00923781
0.0022379
0.0107192
0.0019706
0.000860114
0.00646056
0.00247391
0.00475933
0.000997639
0.00626487
0.0053016
3.73309e-05
0.00105126
0.000134207
0.0012524
0.00518911
0.00313759
0.00182788
0.00556873
0.00315015
0.00336489
0.00577742
0.00962042
0.00146961
0.0118399
0.000939043
0.00199615
0.000178967
0.00360248
0.000806446
0.00211843
0.000115739
0.000270498
0.0016844
0.000678116
0.000401917
0.000484818
0.00337992
0.00072167
0.00195053
0.000319945
0.0102258
0.0107154
0.00712126
0.0113711
0.00815253
0.00386251
0.0027069
0.000885
0.00207671
0.00474674
0.000289515
0.0027435
0.00488834
0.0042427
6.53032e-05
0.00265292
0.000649606
0.00519448
0.000421934
0.00165417
0.00614728
0.0100853
0.00213039
0.00531961
0.00111269
0.00326963
0.00843311
0.00555318
0.00748124
0.000621227
0.000229286
0.000727749
0.00575996
0.00266463
0.00400746
0.00119938
0.00200857
0.00146877
0.00257511
0.0127255
0.00356926
0.0157882
0.00490154
0.00255513
0.00178241
0.00403767
0.00921254
0.00825574
0.000601298
0.000178022
0.00312503
0.00615818
0.00139982
0.00401275
0.00142744
0.00292947
0.0028186
0.00433379
0.00335958
0.000817418
0.00371028
0.00200167
0.00365066
0.00264014
0.000432287
0.00479831
0.000110314
0.00350638
0.00435316
0.00549526
0.00169443
0.00257826
0.000848889
0.00605974
0.00400557
0.00136939
0.00593042
0.00539627
0.00891685
0.005403
0.000427589
0.00236431
0.00130997
0.00118392
0.0016664
0.00508852
8.53954e-05
0.0016336
0.000321943
0.00119552
0.00413149
0.00232959
0.00147075
0.0042714
0.00316853
0.00239694
2.70979e-06
0.00164014
0.00105961
0.00984653
0.0015611
0.003614
0.0016367
0.000923985
0.00370215
0.00485677
0.00333372
0.00138103
0.00397451
0.00308854
0.00765437
0.00378492
0.00214392
0.00125667
0.00112449
0.000962178
0.00706274
0.00341906
0.00561645
0.00199175
0.000555069
0.0128712
0.0123098
0.00121437
0.00144311
0.00940104
0.0054725
0.000676887
9.15459e-06
0.000634432
0.0103892
0.0096559
0.00126539
0.000914899
0.000718016
0.00282314
0.00111876
0.00317454
0.00186423
0.000670576
0.0105326
0.00967843
0.000383812
0.00596928
0.00201344
0.00141848
0.00420197
0.00172629
0.0142235
0.00798321
0.0040635
0.00458797
0.00850007
0.000687136
0.00025677
0.00356253
0.00124573
0.00279562
0.00295431
0.00410022
0.00999559
0.00151601
0.00249763
0.00218915
0.0018124
0.00122368
0.00228964
0.00403781
0.00170122
0.000821084
0.00129546
0.000196815
0.00776516
0.00261861
0.000373187
0.00749211
0.00143762
0.00332668
0.00661593
0.00710052
0.0035174
0.00215092
0.00557259
0.00587435
0.00211079
0.00338027
0.000648386
0.00777817
0.00309753
0.00175569
0.00147556
0.00179301
0.0026495
0.00525123
0.00296871
0.000935643
0.00262862
0.00264666
0.00360223
0.00230024
0.00417512
0.00147502
0.00229224
0.00199
0.000236505
0.00217893
8.50289e-05
0.00595793
0.000591477
8.33621e-05
0.00159113
0.00430038
0.00434823
7.40939e-05
0.00127209
0.00071569
0.00258077
0.000935904
0.0050597
0.00143195
0.00668983
0.00695629
0.0097444
0.00147449
0.00132774
0.00151962
0.00193798
0.00422631
0.00186967
0.00989345
0.000990687
0.00190433
0.00119541
0.00345485
0.00150856
0.00303236
0.00175718
0.00498897
0.00208257
0.00218783
0.00640697
0.0014356
0.0031169
0.00347835
0.00243345
0.00332634
0.000407069
0.0017628
0.00358357
0.00154599
0.0056605
0.00317393
0.00102794
0.000755223
0.00231007
0.00286431
0.00671279
0.00153216
0.00360574
0.00981037
0.000726166
0.00044749
0.000480289
0.00431782
0.00113781
0.000833031
0.0041565
0.00843387
0.000166458
7.95947e-05
0.00506438
0.000731135
0.000676144
0.00326702
0.00246691
0.000938443
0.00261001
0.00136872
0.00230995
0.00108137
0.00133841
0.00149167
0.00148365
0.00394486
0.00379404
0.00811313
0.00283692
0.0092816
0.0149833
0.0064085
0.0102494
0.00467719
0.0115938
0.00298753
0.00602278
0.00033689
0.00287157
0.00126673
0.00376631
0.000229159
0.00651571
0.00243958
0.000595825
0.000251055
0.000486122
0.0074398
0.000333144
0.0114803
0.000227833
0.00120505
0.00105073
0.00137823
0.0089462
0.00044403
0.00687876
0.000197942
0.0107846
0.00107068
0.0100265
6.80847e-05
0.00721869
0.00308471
0.00337042
0.0045769
0.0018648
0.00550245
0.00136078
0.00670731
0.00912921
0.0105954
0.00372735
0.0106362
0.0076617
0.00678868
0.00607484
0.00520806
0.00419966
0.0035413
0.00207317
0.00411158
0.00493604
0.00504085
0.0011823
0.000839754
0.00661146
0.00580919
0.00576545
0.00179658
0.00970499
0.00123066
0.00620043
0.00480711
0.000837657
0.0019509
0.00549438
0.00130146
0.00267077
0.00477393
0.000474521
0.000178449
0.00961802