/*--------------------------------*- C++ -*----------------------------------*\
| =========                 |                                                 |
| \\      /  F ield         | OpenFOAM: The Open Source CFD Toolbox           |
|  \\    /   O peration     | Version:  2212                                  |
|   \\  /    A nd           | Website:  www.openfoam.com                      |
|    \\/     M anipulation  |                                                 |
\*---------------------------------------------------------------------------*/
FoamFile
{
    version     2.0;
    format      ascii;
    arch        "LSB;label=32;scalar=64";
    class       volScalarField;
    location    "0";
    object      stateMean;
}
// * * * * * * * * * * * * * * * * * * * * * * * * * * * * * * * * * * * * * //

dimensions      [0 0 0 1 0 0 0];

internalField   nonuniform List<scalar> 
3200
(
340.923
340.422
340.186
337.922
336.463
339.448
340.339
339.418
339.512
341.832
341.762
339.328
341.181
341.075
341.456
340
338.636
338.199
341.801
341.204
338.435
336.03
335.482
331.847
337.195
335.591
336.655
333.767
335.931
336.667
335.246
335.577
333.562
336.42
336.013
336.028
332.559
336.599
336.625
336.659
330.932
328.715
326.294
328.248
326.871
331.176
327.45
330.238
329.478
330.504
330.473
330.09
331.384
330.003
330.595
329.378
329.465
329.884
329.955
330.887
327.268
324.081
325.336
323.323
322.16
322.885
320.657
323.797
326.726
323.09
327.251
327.75
321.257
325.57
325.276
326.205
323.254
325.767
326.927
324.037
319.88
320.203
318.85
315.747
317.174
318.715
318.974
320.016
316.737
319.209
319.528
319.701
318.796
317.62
319.95
318.252
318.909
320.078
318.759
319.935
314.511
313.802
313.73
314.649
312.293
313.192
313.464
314.504
314.099
315.184
313.212
315.566
313.313
315.248
314.014
313.548
313.777
314.331
313.216
313.492
308.89
305.976
306.648
308.606
308.946
306.865
307.126
307.73
306.699
307.211
306.124
306.725
309.259
310.889
309.77
308.039
306.478
308.771
308.331
308.251
304.778
304.609
303.154
304.407
302.216
304.205
304.696
302.007
303.959
303.985
304.551
303.233
302.663
303.291
304.102
302.923
303.389
303.742
304.409
304.302
344.05
341.981
339.157
338.792
340.326
339.807
339.42
342.382
340.646
342.735
339.751
341.59
343.174
343.288
337.636
342.098
340.283
340.861
342.178
343.67
335.48
335.631
332.725
336.128
336.501
336.573
334.647
337.098
337.331
336.979
337.704
335.4
337.172
336.49
336.945
334.083
335.983
336.404
336.355
337.362
331.774
329.536
328.346
328.394
329.563
327.931
328.527
329.322
330.137
330.865
330.34
331.061
328.846
332.007
329.502
331.231
331.243
330.052
332.07
331.279
325.975
322.786
322.365
324.682
323.512
323.545
324.267
326.224
324.835
325.282
324.055
323.816
323.943
322.698
325.547
324.662
324.356
323.376
325.016
326.114
319.577
315.017
320.091
316.64
316.199
318.742
318.544
317.561
320.371
319.635
319.297
317.521
319.669
321.704
318.246
319.954
318.309
320.819
317.417
321.319
312.271
312.802
313.521
314.21
310.074
314.434
313.639
313.362
313.597
314.679
313.872
313.36
313.72
313.184
314.316
313.419
315.897
313.593
312.967
314.58
307.296
306.536
308.291
306.524
309.09
307.215
306.55
308.106
309.763
307.328
310.311
310.614
308.984
306.868
309.589
305.703
306.976
307.04
311.648
308.045
303.788
304.315
303.724
303.525
303.325
300.491
303.168
303.177
302.388
300.829
303.518
301.812
302.969
301.456
301.152
303.155
301.753
302.689
304.356
306.098
343.532
344.362
341.195
341.466
341.891
340.926
342.803
340.386
342.331
340.032
342.101
340.255
342.473
341.401
338.782
340.584
343.406
345.024
346.528
343.585
337.006
335.416
336.9
332.159
334.891
335.609
335.869
338.524
336.856
337.082
336.179
336.101
336.248
335.985
335.7
336.158
337.376
336.419
333.904
338.445
331.417
332.394
330.88
330.469
327.745
329.728
330.174
329.326
333.226
332.143
329.886
331.237
330.252
328.422
329.896
330.798
330.725
330.83
330.339
331.901
325.327
324.552
325.564
327.353
324.985
325.533
324.126
325.512
325.994
326.202
323.572
325.569
323.491
324.101
322.443
323.182
325.718
322.87
327.023
328.969
319.522
321.977
320.567
316.828
319.143
322.287
319.573
319.09
317.604
317.626
319.494
320.573
320.637
318.457
320.403
319.685
321.338
320.128
319.974
321.554
313.923
311.804
313.34
314.233
314.836
313.492
314.75
310.805
314.374
313.063
314.648
313.594
312.674
314.518
315.404
314.712
313.482
312.773
313.613
315.107
309.542
310.115
306.946
307.42
309.321
308.442
308.49
310.033
308.28
305.995
307.884
307.44
307.058
308.258
307.436
307.428
307.612
307.558
311.376
308.469
301.841
303.249
303.852
302.208
305.637
305.113
302.283
304.203
303.571
305.19
303.133
302.735
303.116
303.604
302.808
302.29
300.097
302.84
303.039
303.308
347.621
342.67
338.676
340.434
339.016
340.579
342.935
341.837
342.056
341.888
343.518
342.8
341.629
343.156
343.952
342.04
340.066
341.391
340.439
343.692
337.997
336.054
335.469
336.156
334.752
336.632
336.233
338.585
338.735
337.81
337.553
336.891
337.526
336.81
337.258
336.314
336.23
339.094
336.072
339.121
333.744
330.539
331.212
330.872
329.252
329.239
330.494
330.12
331.271
332.571
331.861
330.257
328.419
332.11
331.059
327.2
329.293
329.231
330.815
334.019
325.866
323.552
325.087
325.291
325.61
324.166
325.772
322.081
324.274
325.745
324.817
325.338
326.698
324.506
324.084
322.842
324.269
325.651
327.372
327.248
319.111
319.239
319.821
318.098
319.812
318.504
319.441
318.87
321.894
320.289
321.961
319.866
320.104
321.22
319.898
318.874
316.635
319.447
320.975
320.033
315.113
312.665
311.429
314.386
312.478
314.041
314.076
314.634
312.079
314.538
315.143
315.916
314.899
315.576
315.086
311.676
313.215
312.71
315.579
314.855
308.3
309.024
309.799
308.506
308.414
308.031
308.445
308.938
308.494
309.046
309.722
308.716
309.615
306.679
308.247
309.445
308.022
307.458
306.949
309.706
303.074
302.022
300.463
302.827
303.22
302.778
304.645
304.07
302.136
301.655
302.438
302.851
303.54
302.333
301.599
304.665
303.306
303.834
298.99
301.335
344.54
344.062
343.123
342.171
342.286
344.014
341.193
343.818
344.047
343.809
342.121
346.573
343.934
344.667
344.972
342.411
343.798
343.721
343.175
344.017
337.931
337.766
335.36
335.652
336.639
337.438
338.201
339.124
337.566
337.07
338.636
337.448
339.436
337.873
337.744
336.594
338.47
337.477
338.7
339.843
331.919
331.846
331.575
331.045
329.792
329.979
331.142
332.532
332.574
332
333.136
333.755
332.692
333.143
331.417
331.022
332.016
333.836
332.068
333.827
327.896
327.606
327.503
326.299
325.218
327.25
325.041
325.215
325.961
326.993
324.725
326.217
327.657
326.001
323.995
326.652
326.426
326.16
327.922
330.555
320.871
320.415
319.327
321.336
319.329
318.502
317.713
320.811
321.941
321.103
319.447
321.505
318.95
322.011
320.818
319.985
319.55
320.252
320.011
322.413
312.93
313.374
313.136
315.13
313.769
314.77
314.935
314.743
314.351
315.403
314.564
315.903
313.354
315.852
315.235
311.941
314.073
314.687
314.334
315.14
309.482
307.8
309.435
307.055
308.078
307.769
307.203
307.2
310.226
306.6
311.608
308.292
308.804
310.73
308.938
306.943
307.674
308.501
310.281
307.914
303.245
301.758
303.201
301.502
301.732
300.282
301.815
301.439
302.052
302.007
302.471
301.322
303.363
303.616
300.13
301.533
304.339
302.771
302.982
304.306
347.646
344.945
344.165
341.984
343.811
343.08
345.036
343.613
343.598
345.12
346.365
344.771
345.041
346.933
342.904
343.327
345.664
344.344
345.344
345.186
337.864
337.678
339.538
337.562
336.565
338.626
336.279
338.651
339.48
339.677
339.228
338.111
339.025
337.443
337.961
339.164
337.914
338.969
337.396
341.061
334.079
330.592
334.658
332.886
330.86
331.741
333.865
331.06
333.158
334.584
334.278
335.765
332.286
333.009
332.255
329.529
334.069
332.059
333.748
333.893
324.971
325.518
325.163
326.197
325.457
325.59
326.583
326.872
326.236
325.961
327.274
326.458
327.27
326.99
329.475
326.529
326.741
325.504
328.034
327.625
321.479
320.582
321.378
319.345
320.02
319.944
320.414
320.789
320.944
320.33
319.539
321.154
322.417
319.871
320.701
319.167
320.446
319.09
320.482
322.213
314.246
315.334
316.921
317.754
316.026
313.999
313.95
316.4
314.793
316.01
316
314.79
315.161
314.602
316.39
314.212
315.114
316.634
315.182
315.051
307.484
311.447
309.449
307.857
309.106
308.952
308.92
309.395
308.482
306.472
307.257
308.586
308.972
309.077
307.101
308.357
307.195
308.727
308.969
309.171
302.579
301.657
301.796
302.326
301.815
302.591
304.783
303.449
303.639
303.192
303.246
301.197
304.209
301.776
302.186
302.23
301.126
303.61
302.892
302.631
349.166
345.447
346.487
346.37
343.966
347.181
345.271
347.18
347.722
346.717
345.653
345.643
347.039
346.415
345.23
343.931
344.411
347.865
346.815
347.584
338.243
341.612
339.389
338.627
340.225
340.429
337.891
338.987
340.329
340.729
338.659
339.735
340.7
338.952
340.572
340.58
339.994
339.078
341.514
341.792
333.615
333.186
330.687
334.41
335.448
333.403
333.317
332.429
334.265
334.721
335.281
335.808
336.561
332.969
333.819
334.102
333.919
335.234
335.974
334.381
328.84
327.935
327.891
326.759
324.16
326.388
327.49
327.068
328.126
327.674
326.194
327.533
327.022
325.601
326.044
328.51
327.386
327.505
327.47
329.628
323.81
321.176
320.77
321.387
319.866
321.597
320.151
322.397
322.398
323.662
320.82
321.511
324.003
321.415
322.569
321.134
319.075
319.981
322.026
324.705
318.225
317.327
313.996
311.634
317.719
314.713
314.692
317.56
313.877
312.584
315.242
316.488
316.533
314.874
314.901
313.543
315.617
315.461
315.246
315.539
308.591
309.636
308.563
307.231
309.036
311.44
308.344
312.012
306.971
310.501
311.899
308.419
310.575
307.442
312.598
308.885
307.38
308.918
310.115
310.476
305.689
303.256
304.162
302.598
301.287
301.082
302.467
300.86
302.781
304.198
304.819
305.314
304.67
302.813
304.771
302.57
303.818
302.664
302.613
302.749
348.962
348.97
346.355
347.362
346.035
346.922
346.772
348.135
346.252
347.577
347.947
348.939
348.14
348.451
348.701
346.834
346.079
346.09
347.087
349.409
346.401
339.259
341.272
339.707
340.537
340.038
341.988
341.251
341.356
340.307
341.502
343.005
340.849
340.391
339.921
342.477
339.568
340.21
339.552
342.775
337.522
335.436
334.792
334.617
333.977
334.468
332.947
335.606
334.525
334.376
335.368
335.217
336.615
335.843
334.582
335.203
335.431
336.269
335.751
337.96
327.54
330.029
327.748
326.959
327.064
326.971
326.903
327.104
327.147
328.852
330.093
326.972
328.422
329.499
328.866
327.058
330.012
326.855
329.162
328.781
322.108
322.662
323.592
322.334
320.546
321.813
322.242
319.824
319.638
323.384
320.605
320.847
323.439
322.071
320.93
321.864
322.679
321.435
321.666
322.886
317.093
318.917
314.751
315.882
316.784
313.656
315.742
315.739
318.362
318.85
316.306
316.935
314.24
316.079
316.356
316.142
313.5
317.135
315.322
314.412
309.59
309.238
309.526
308.803
310.989
309.572
309.03
310.348
309.9
309.351
311.799
308.289
309.576
309.41
310.964
311.303
310.502
307.895
307.902
310.793
303.121
303.165
300.267
301.757
304.343
300.991
305.063
303.918
302.146
301.109
303.476
302.764
302.643
304.149
301.86
302.33
300.882
302.538
305.038
303.001
351.704
349.995
347.757
345.835
345.332
348.682
351.014
348.923
349.683
351.067
350.278
350.549
351.505
350.695
346.285
347.105
349.315
346.69
349.215
349.718
343.707
341.796
343.017
340.437
342.102
341.14
341.03
343.272
342.823
346.427
342.184
344.007
342.903
342.549
343.799
341.606
342.008
342.98
341.795
344.176
336.788
336.086
338.09
335.29
333.855
333.623
333.789
336.672
336.981
336.716
339.059
336.585
335.449
336.651
335.403
335.907
335.012
334.35
336.945
340.174
331.17
327.402
331.348
327.895
328.749
329.576
327.43
330.21
328.925
328.282
328.59
329.236
329.697
330.059
329.793
331.491
329.018
329.713
330.473
330.772
321.962
323.338
323.463
321.537
321.874
322.165
323.968
323.395
322.702
324.263
324.337
323.663
323.775
320.581
324.366
322.833
320.745
321.215
322.79
324.635
318.276
314.55
314.3
314.244
314.434
314.619
315.175
318.657
317.264
317.357
317.002
316.276
317.444
316.676
317.136
314.831
319.388
317.695
318.897
316.755
309.987
307.766
311.111
310.719
308.73
306.627
310.064
312.131
310.057
310.73
311.914
308.657
309.842
307.898
307.789
308.982
309.283
309.915
309.968
310.955
301.901
303.561
304.926
306.191
305.662
304.334
303.64
302.055
304.769
302.87
304.187
303.458
303.475
303.472
303.644
303.457
302.072
305.142
301.672
303.466
354.745
351.236
350.552
347.764
350.794
349.657
349.077
349.158
351.138
350.373
350.217
351.822
351.612
351.638
350.406
348.769
349.264
350.862
351.053
352.209
346
342.003
342.103
341.645
342.699
342.946
342.42
342.808
343.663
343.263
343.285
342.735
343
345.968
342.804
344.303
342.031
344.076
341.659
345.79
337.845
335.004
337.51
335.289
333.493
338.31
334.489
338.921
338.973
337.49
338.459
336.664
337.66
337.358
336.132
336.741
336.189
338.676
336.927
338.932
329.872
331.631
330.197
326.968
330.006
328.675
330.868
329.929
328.483
333.85
329.166
330.579
333.019
330.515
328.833
329.529
330.978
330.975
332.189
332.153
323.882
324.905
323.608
324.207
321.64
324.13
322.386
324.196
324.787
321.585
323.957
321.549
324.688
325.155
321.938
324.228
322.79
324.492
324.935
323.539
317.955
315.923
315.183
317.203
314.926
317.456
316.827
316.571
317.698
315.842
318.03
316.191
314.975
316.677
314.985
315.642
317.762
316.272
316.37
316.55
309.063
308.702
309.624
310.866
309.537
309.607
307.113
311.019
310.744
308.133
309.778
309.938
309.247
309.156
310.303
310.74
309.444
311.154
310.864
310.138
303.248
302.387
305.217
303.114
301.355
301.908
302.362
303.803
303.045
302.754
303.815
302.31
303.637
305.25
301.471
305.659
302.178
303.066
301.047
304.576
354.708
351.266
351.653
350.554
352.715
353
352.123
351.591
352.267
351.668
352.594
353.415
352.553
351.828
352.675
352.612
353.92
352.718
352.626
355.092
347.403
342.744
344.819
343.722
347.465
343.722
344.057
344.409
345.399
344.547
343.417
345.589
344.395
344.846
343.814
344.525
343.235
343.772
343.345
346.331
340.455
338.625
337.382
337.353
337.61
338.645
335.358
337.539
338.508
338.888
338.845
335.842
338.578
337.382
334.981
338.825
338.619
338.656
339.638
339.302
334.93
331.169
329.6
330.573
331.991
330.081
331.408
332.025
329.04
332.99
330.817
330.7
330.342
330.028
330.914
330.171
331.809
331.845
332.793
331.332
325.902
323.937
324.246
322.263
320.094
324.179
326.193
323.544
324.78
323.513
323.989
325.255
323.546
324.176
322.504
324.559
322.85
322.277
324.727
321.931
318.493
318.295
317.756
314.544
317.027
317.415
316.688
318.399
317.179
314.25
316.913
317.467
317.215
317.873
316.019
316.795
316.331
316.144
318.124
316.154
309.433
312.544
310.321
309.924
310.459
309.736
307.411
310.353
308.327
309.732
309.468
310.771
310.041
309.881
311.389
311.274
310.262
312.064
308.184
310.727
305.623
303.411
302.451
301.109
303.048
304.37
303.969
300.969
303.801
303.581
304.644
304.388
303.99
303.702
302.696
302.661
304.078
302.165
303.973
305.554
355.236
357.334
353.893
352.347
351.791
351.132
353.029
353.484
354.857
353.674
354.183
352.058
353.341
354.259
350.494
352.601
355.933
351.161
355.903
355.504
349.652
345.931
350.287
345.423
343.825
346.837
344.952
344.846
345.574
347.126
348.215
348.992
345.9
346.249
346.919
345.618
346.776
347.258
345.811
347.256
341.488
337.559
339.795
339.766
338.09
335.572
338.753
339.641
338.426
338.877
339.984
340.632
339.666
339.924
339.421
341.262
338.794
340.354
341.101
341.77
334.27
331.652
332.604
332.513
331.323
330.655
332.628
331.516
332.506
331.746
332.345
333.302
333.271
329.891
331.663
332.58
332.096
330.264
333.442
330.946
324.579
324.089
324.686
324.607
325.687
324.655
326.528
324.328
326.358
325.333
325.334
324.782
323.392
324.179
323.23
325.369
324.28
323.833
325.902
325.315
318.359
317.548
316.839
319.486
316.637
315.583
317.645
317.355
317.224
318.535
318.14
318.266
317.552
316.679
315.938
317.832
317.804
318.232
318.267
319.336
313.124
308.28
309.411
310.381
310.088
311.197
310.626
310.3
311.946
311.681
311.335
310.597
309.602
312.022
312.135
310.103
309.507
313.012
309.489
311.906
302.809
304.037
303.229
303.329
304.082
301.528
300.693
302.667
301.712
304.357
305.005
303.308
301.786
303.538
302.716
303.54
300.633
301.232
304.598
304.057
359.796
355.069
356.271
355.416
354.043
353.323
354.896
354.362
354.743
356.135
354.621
354.556
354.834
356.532
356.553
355.46
355.447
354.445
357.625
358.471
348.73
346.733
347.005
346.887
347.14
346.927
348.829
346.915
347.238
347.552
347.455
349.44
347.537
346.968
346.842
346.519
346.443
347.579
346.6
351.942
340.215
340.609
341.391
339.167
342.416
339.038
338.243
340.55
339.9
340.22
341.784
343.439
340.396
339.638
341.128
339.896
340.284
342.662
340.01
343.434
335.389
333.386
335.408
334.646
333.612
331.479
332.28
334.116
332.904
331.327
333.491
335.471
334.386
330.608
331.764
334.274
331.844
334.977
334.416
334.909
329.702
325.991
326.841
321.998
325.747
326.106
324.741
328.021
324.894
327.099
327.656
325.271
325.594
325.024
324.437
326.351
325.506
328.641
325.473
327.695
319.854
318.859
318.191
317.665
317.219
317.721
318.37
316.774
317.714
319.003
320.715
318.987
316.916
317.204
317.135
317.614
318.165
319.634
320.41
320.26
313.561
312.939
310.18
309.357
310.157
312.548
310.986
312.508
312.012
310.306
312.354
310.867
310.202
309.812
310.04
312.603
311.313
309.837
313.473
309.945
305.454
303.922
302.131
305.9
302.974
303.053
305.28
304.041
302.425
302.237
304.444
304.112
304.3
301.512
303.68
305.78
303.109
304.159
304.247
304.04
360.284
357.673
356.506
357.376
356.242
358.679
358.079
357.881
357.073
356.864
357.837
358.295
358.088
356.286
355.163
355.594
356.326
355.448
357.467
360.177
349.244
350.367
351.186
351.515
347.878
345.858
349.62
350.505
348.176
349.487
350.369
349.746
347.733
350.064
348.934
346.817
348.064
349.394
351.755
350.832
344.09
344.17
345.051
341.537
341.558
341.614
342.697
342.877
343.043
341.717
342.248
343.574
343.136
339.69
340.299
342.294
340.867
341.995
343.675
343.179
335.584
333.771
333.377
333.958
335.204
333.512
334.037
334.52
335.419
333.048
334.067
335.025
334.359
335.454
335.338
335.232
335.663
336.116
335.425
334.814
325.929
329.298
327.604
325.14
326.066
326.892
327.547
326.238
326.755
326.496
325.934
325.967
327.125
326.051
324.914
325.447
327.031
328.233
326.427
328.386
318.693
320.47
320.047
320.02
318.264
321.314
318.92
318.421
317.493
318.88
317.198
317.71
317.832
319.18
319.832
318.934
318.295
318.785
320.677
320.121
312.623
311.86
307.194
309.489
313.47
311.523
311.142
311.446
311.18
310.972
310.972
311.558
312.731
309.441
312.335
311.288
311.105
312.992
311.866
312.686
303.166
305.033
303.59
303.172
303.146
303.812
302.389
304.719
303.887
303.964
304.888
302.13
305.123
306.307
301.562
303.916
303.244
303.834
306.508
304.373
361.821
358.828
357.982
360.78
357.745
357.081
359.283
356.787
357.21
359.141
358.776
359.162
359.486
357.062
357.663
357.976
360.46
357.161
359.327
360.052
353.474
350.738
354.516
350.189
351.364
350.737
349.654
350.731
351.826
351.075
351.211
350.491
350.776
351.059
350.97
351.849
350.265
351.051
350.111
353.686
345.96
344.827
338.616
345.431
341.438
343.805
342.673
342.346
341.486
343.046
344.086
341.438
341.603
342.999
343.787
342.539
344.418
342.656
342.955
344.396
337.907
335.324
336.492
334.442
333.821
332.185
333.231
332.651
334.997
335.152
335.473
333.274
334.265
336.435
335.412
335.589
335.307
335.573
338.869
333.339
331.979
328.481
326.121
327.62
328.437
330.203
324.551
327.108
327.399
328.383
325.344
327.799
328.618
327.72
326.231
326.194
325.62
328.054
327.146
328.032
319.78
320.348
320.081
319.158
317.82
319.369
320.57
318.096
317.757
318.985
320.35
319.242
321.423
318.17
319.841
321.246
321.019
322.085
320.908
319.277
312.223
311.104
311.176
312.099
313.2
311.672
311.164
311.595
312.084
310.431
312.445
311.253
310.364
310.685
310.898
311.615
311.069
311.215
314.579
311.973
304.947
303.36
304.149
305.005
302.415
302.889
304.331
302.711
302.985
301.6
305.076
304.576
303.537
304.253
303.61
301.745
302.841
305.575
303.252
304.018
365.151
365.077
361.23
361.47
357.707
359.266
361.121
361.462
361.763
357.814
358.079
361.991
361.134
361.625
362.263
361.506
362.095
361.465
360.88
364.308
355.695
352.527
354.629
351.952
353.294
354.399
352.414
348.087
350.35
351.765
351.58
350.167
353.352
353.114
351.659
352.355
353.648
351.484
353.837
355.806
344.649
345.077
345.083
345.068
344.134
343.871
343.358
345.41
345.157
344.453
344.968
342.196
343.92
344.879
342.078
345.051
345.59
346.607
346.661
345.337
335.306
337.974
338.167
335.577
335.242
336.682
333.92
337.64
336.048
336.163
337.264
335.747
334.829
335.539
336.779
337.263
337.177
337.403
336.874
337.432
328.464
327.283
327.452
328.101
327.536
328.289
326.418
328.614
328.426
327.946
327.056
329.881
328.396
328.792
328.552
327.404
328.486
326.445
327.565
330.174
322.194
323.125
320.529
319.685
320.648
320.829
318.896
320.881
317.136
320.634
319.707
320.688
319.175
320.732
319.237
320.724
318.513
319.39
319.307
322.018
312.431
312.978
310.952
312.827
313.137
312
311.602
311.053
311.703
310.426
313.184
312.507
312.408
311.431
311.233
310.004
312.546
313.162
308.945
311.756
303.879
303.877
302.72
303.698
303.801
302.799
301.507
304.027
304.107
305.625
304.307
304.289
305.071
303.322
304.348
304.848
303.628
304.735
303.694
304.422
363.713
363.827
364.863
362.194
360.76
362.807
360.571
358.584
361.766
360.399
362.428
359.878
362.95
361.757
363.962
362.667
363.112
362.06
363.371
365.537
355.44
354.885
354.706
355.093
352.399
355.032
351.168
355.242
355.805
355.031
355.894
352.198
355.165
352.802
355.08
351.211
354.54
351.238
354.65
357.135
347.121
344.969
347.823
345.698
344.54
346.067
344.295
343.52
343.057
345.462
343.066
344.074
344.331
344.514
344.734
344.991
345.117
346.956
347.559
347.762
339.299
337.264
338.031
335.599
335.954
336.044
338.667
334.832
338.566
336.072
336.543
338.433
337.453
336.203
337.553
337.015
339.446
337.907
337.723
340.844
329.732
329.292
330.846
327.311
329.044
330.191
329.96
329.268
328.001
328.166
328.505
328.102
328.353
326.463
329.668
329.67
329.232
328.272
330.304
331.337
321.677
320.322
319.937
319.195
320.657
320.196
322.35
319.945
320.751
320.206
318.079
321.054
320.844
321.7
321.658
320.314
320.582
321.185
320.833
321.884
313.066
310.982
312.787
311.883
312.715
312.463
310.137
313.482
310.373
312.036
311.434
310.72
314.724
311.472
311.132
311.024
312.923
313.609
313.493
314.562
303.329
301.424
303.245
303.778
305.605
303.187
302.609
303.389
301.628
302.007
304.586
303.941
303.383
303.175
302.15
303.166
302.826
303.914
304.541
303.352
365.311
364.675
365.732
364.519
366.718
364.326
364.458
364.18
362.103
366.444
366.211
362.857
365.059
364.35
366.26
364.456
363.129
362.227
364.98
367.864
356.423
357.16
357.018
355.171
358.25
355.418
354.663
357.488
355.416
354.993
354.122
353.708
355.027
356.404
356.087
355.239
356.903
355.837
355.991
357.223
349.453
349.787
350.087
347.627
347.7
347.698
344.743
345.109
344.658
345.783
348.377
344.211
344.544
345.136
345.785
348.088
346.396
345.686
348.16
349.796
339.56
340.653
340.619
337.814
336.28
337.6
337.845
338.545
337.507
336.706
337.142
335.446
338.709
340.918
336.587
338.891
339.517
338.214
338.614
339.059
331.968
327.989
329.901
331.122
328.432
332.751
330.806
328.193
330.596
326.438
330.16
329.546
328.48
331.565
328.628
329.601
332.347
330.594
332.244
332.704
322.523
323.14
321.299
322.428
321.453
321.78
320.736
319.763
320.142
321.238
324.937
321.023
319.387
320.481
320.042
320.246
320.402
321.697
321.949
320.896
312.217
312.321
311.298
313.104
313.23
311.67
311.364
312.519
311.268
310.902
312.307
313.77
310.798
311.247
311.407
314.507
312.082
311.832
313.855
313.236
306.71
304.783
304.635
304.025
302.343
303.68
301.882
303.76
303.771
303.206
305.547
303.084
302.976
301.984
305.958
303.739
305.19
307.033
301.58
303.748
368.019
367.209
367.303
365.935
367.211
366.938
364.408
365.535
363.14
364.897
365.085
362.356
364.742
364.883
367.494
366.323
365.424
367.96
369.986
368.784
359.823
358.75
356.512
359.08
358.271
359.528
357.06
359.637
358.296
359.372
359.307
354.267
359.348
356.982
359.109
356.74
359.224
357.594
359.318
357.732
351.901
350.21
346.863
347.916
348.136
349.03
346.923
346.234
346.111
346.632
348.099
346.35
347.644
349.18
349.252
347.029
347.564
348.997
347.747
349.661
339.71
341.426
338.648
339.006
339.35
339.724
336.791
339.763
338.641
337.63
337.524
337.979
340.842
338.389
337.728
339.825
340.868
341.549
339.623
341.685
333.805
331.199
330.129
331.463
331.663
329.807
328.397
330.337
332.637
328.98
330.758
327.822
329.994
328.125
330.599
331.584
330.616
331.857
332.024
329.773
323.048
321.544
322.521
321.554
321.986
319.983
319.034
321.214
320.791
320.539
322.637
321.634
320.055
321.279
321.11
320.903
320.981
322.55
322.944
321.388
312.899
315.325
313.56
314.481
310.875
312.236
311.407
314.049
313.166
316.293
309.871
314.094
311.976
312.275
314.379
314.654
312.775
312.778
310.659
314.431
304.857
302.275
304.925
305.042
303.792
305.148
303.62
307.02
303.047
303.411
303.298
301.439
304.062
302.641
303.787
303.738
305.74
304.09
302.307
303.443
369.782
369.452
367.782
368.572
365.453
365.108
366.725
369.041
364.325
367.128
362.902
363.467
364.401
366.44
365.372
365.714
366.263
368.588
367.22
369.598
360.323
359.942
358.116
356.552
359.25
355.178
355.856
356.008
354.157
358.213
360.341
356.287
355.436
356.939
357.618
356.411
356.061
360.612
357.475
359.538
350.629
349.815
349.951
347.445
346.481
348.992
349.213
348.188
347.601
348.393
348.879
348.774
345.53
347.259
348.526
348.604
347.14
351.037
350.31
351.607
340.716
340.843
340.21
338.784
339.788
339.755
341.024
338.744
338.898
339.729
339.023
340.375
338.547
338.555
337.286
339.919
339.529
340.395
340.665
340.711
332.206
329.69
328.876
330.376
332.444
330.6
330.39
330.711
328.977
331.31
332.47
331.95
330.077
332.796
329.902
331.852
329.125
329.258
330.986
332.919
323.625
322.778
322.049
323.909
322.556
322.57
320.104
323.288
322.71
322.717
323.077
319.826
322.674
320.592
321.763
320.149
321.1
320.486
319.795
322.32
314.273
314.007
313.538
311.752
315.228
313.226
313.479
314.368
313.272
312.369
310.937
314.896
310.154
314.615
311.965
312.357
312.518
313.389
313.017
313.243
304.795
302.947
303.289
305.507
305.252
305.665
303.34
303.708
304.206
303.488
303.98
304.339
304.018
304.549
305.648
304.707
301.521
303.632
303.136
304.22
)
;

boundaryField
{
    hotSide
    {
        type            fixedGradient;
        gradient        nonuniform List<scalar> 
400
(
321.511
322.87
325.591
329.677
335.133
341.965
350.181
359.788
370.794
383.208
397.037
412.289
428.971
447.088
466.647
487.651
510.105
534.011
559.372
586.191
323.738
325.08
327.767
331.802
337.194
343.949
352.078
361.591
372.498
384.81
398.537
413.687
430.268
448.289
467.755
488.672
511.043
534.872
560.161
586.913
326.149
327.47
330.116
334.091
339.406
346.071
354.099
363.503
374.296
386.491
400.101
415.136
431.606
449.52
468.885
489.706
511.988
535.735
560.948
587.63
328.704
330
332.597
336.503
341.73
348.292
356.205
365.485
376.15
388.215
401.695
416.604
432.954
450.753
470.009
490.73
512.919
536.579
561.714
588.325
331.33
332.599
335.142
338.97
344.099
350.546
358.332
367.477
378.003
389.928
403.271
418.047
434.27
451.949
471.095
491.712
513.807
537.382
562.439
588.978
333.918
335.158
337.643
341.389
346.414
352.74
360.392
369.397
379.779
391.562
404.765
419.407
435.503
453.065
472.101
492.618
514.622
538.114
563.096
589.569
336.321
337.531
339.959
343.622
348.544
354.751
362.274
371.142
381.385
393.031
406.101
420.618
436.595
454.047
472.983
493.409
515.33
538.747
563.663
590.076
338.36
339.543
341.92
345.509
350.339
356.44
363.847
372.595
382.718
394.244
407.2
421.608
437.485
454.844
473.695
494.045
515.897
539.253
564.114
590.478
339.852
341.015
343.352
346.885
351.645
357.665
364.985
373.643
383.675
395.113
407.984
422.312
438.116
455.407
474.197
494.491
516.294
539.606
564.428
590.758
340.643
341.795
344.11
347.613
352.334
358.311
365.584
374.193
384.176
395.567
408.393
422.679
438.443
455.699
474.456
494.722
516.498
539.788
564.589
590.901
340.643
341.795
344.11
347.613
352.334
358.311
365.584
374.193
384.176
395.567
408.393
422.679
438.443
455.699
474.456
494.722
516.498
539.788
564.589
590.901
339.852
341.015
343.352
346.885
351.645
357.665
364.985
373.643
383.675
395.113
407.984
422.312
438.116
455.407
474.197
494.491
516.294
539.606
564.428
590.758
338.36
339.543
341.92
345.509
350.339
356.44
363.847
372.595
382.718
394.244
407.2
421.608
437.485
454.844
473.695
494.045
515.897
539.253
564.114
590.478
336.321
337.531
339.959
343.622
348.544
354.751
362.274
371.142
381.385
393.031
406.101
420.618
436.595
454.047
472.983
493.409
515.33
538.747
563.663
590.076
333.918
335.158
337.643
341.389
346.414
352.74
360.392
369.397
379.779
391.562
404.765
419.407
435.503
453.065
472.101
492.618
514.622
538.114
563.096
589.569
331.33
332.599
335.142
338.97
344.099
350.546
358.332
367.477
378.003
389.928
403.271
418.047
434.27
451.949
471.095
491.712
513.807
537.382
562.439
588.978
328.704
330
332.597
336.503
341.73
348.292
356.205
365.485
376.15
388.215
401.695
416.604
432.954
450.753
470.009
490.73
512.919
536.579
561.714
588.325
326.149
327.47
330.116
334.091
339.406
346.071
354.099
363.503
374.296
386.491
400.101
415.136
431.606
449.52
468.885
489.706
511.988
535.735
560.948
587.63
323.738
325.08
327.767
331.802
337.194
343.949
352.078
361.591
372.498
384.81
398.537
413.687
430.268
448.289
467.755
488.672
511.043
534.872
560.161
586.913
321.511
322.87
325.591
329.677
335.133
341.965
350.181
359.788
370.794
383.208
397.037
412.289
428.971
447.088
466.647
487.651
510.105
534.011
559.372
586.191
)
;
    }
    coldSide
    {
        type            mixed;
        refValue        uniform 300;
        refGradient     uniform 0;
        valueFraction   uniform 0.991591;
        source          uniform 0;
        value           nonuniform List<scalar> 
400
(
300.04
300.032
300.015
300.026
300.027
300.022
300.048
300.026
300.016
300.027
300.047
300.024
300.046
300.027
300.042
300.033
300.028
300.056
300.041
300.04
300.039
300.036
300.027
300.017
300.015
300.014
300.027
300.027
300.03
300.02
300.029
300.034
300.033
300.042
300.028
300.033
300.012
300.04
300.019
300.025
300.027
300.031
300.032
300.004