/*--------------------------------*- C++ -*----------------------------------*\
| =========                 |                                                 |
| \\      /  F ield         | OpenFOAM: The Open Source CFD Toolbox           |
|  \\    /   O peration     | Version:  2212                                  |
|   \\  /    A nd           | Website:  www.openfoam.com                      |
|    \\/     M anipulation  |                                                 |
\*---------------------------------------------------------------------------*/
FoamFile
{
    version     2.0;
    format      ascii;
    arch        "LSB;label=32;scalar=64";
    class       volScalarField;
    location    "0";
    object      relativeErrorField;
}
// * * * * * * * * * * * * * * * * * * * * * * * * * * * * * * * * * * * * * //

dimensions      [0 0 0 1 0 0 0];

internalField   nonuniform List<scalar> 
3200
(
0.0088112
0.00922843
0.00989711
0.0111688
0.0124278
0.0137669
0.015132
0.0162624
0.0168806
0.0176837
0.0180111
0.0176972
0.0171733
0.0161779
0.0151606
0.0142168
0.0131011
0.0123603
0.0116273
0.0111924
0.00777157
0.00811525
0.00877488
0.00966691
0.010847
0.0116599
0.0130936
0.0141901
0.0148174
0.0155813
0.0154056
0.0153216
0.0147639
0.0139412
0.0132406
0.0122294
0.011382
0.010755
0.0100087
0.00999693
0.00634845
0.00677256
0.00744851
0.00820645
0.00907284
0.0102741
0.0108793
0.0118725
0.0125632
0.0131089
0.0129293
0.0131303
0.0125498
0.0120349
0.0110441
0.0104849
0.00971681
0.00898052
0.00851231
0.00816423
0.00546974
0.00562765
0.00597812
0.00672968
0.00752783
0.00827148
0.00908404
0.00995881
0.0102791
0.0108012
0.0106005
0.0106214
0.0103253
0.00968336
0.00911648
0.00860173
0.00782323
0.00748456
0.00698828
0.00689693
0.00401342
0.00431642
0.00477667
0.00525284
0.00588646
0.00636928
0.00732133
0.00775839
0.00818279
0.00836732
0.00832969
0.0084763
0.00793544
0.00761871
0.00710297
0.00675079
0.00623808
0.00561281
0.00532404
0.00529194
0.00292215
0.00329651
0.00337015
0.00387222
0.00409872
0.0046829
0.00522836
0.00541591
0.00580872
0.00592833
0.00604297
0.0059467
0.00560635
0.00537941
0.00517806
0.00488719
0.0042762
0.00426686
0.00390713
0.00378863
0.00198063
0.00199102
0.00202149
0.00211913
0.00270668
0.00281014
0.00322516
0.00358906
0.00366901
0.00389387
0.00380115
0.00373496
0.00364649
0.00322729
0.00302378
0.0028801
0.00285505
0.00245763
0.00246082
0.00240488
0.000521186
0.000567416
0.000977069
0.000699697
0.000885658
0.00106415
0.00108136
0.00107116
0.00131014
0.0012666
0.00140343
0.00110777
0.00134178
0.000991129
0.00101247
0.000964913
0.00108076
0.000920833
0.000825676
0.000763399
0.00681127
0.00717696
0.00820971
0.00919619
0.0101979
0.0115119
0.0127315
0.0138186
0.0147602
0.0151994
0.0156031
0.0152859
0.014663
0.0137906
0.012713
0.0117915
0.0110572
0.0102354
0.00955856
0.0091554
0.00575807
0.0065007
0.00706839
0.00807903
0.00909709
0.0099885
0.01103
0.0119538
0.0130013
0.0134463
0.0134645
0.0134513
0.0128594
0.0121441
0.0113307
0.0102953
0.00962055
0.00885054
0.00820309
0.00804471
0.0050368
0.00519551
0.00619006
0.00679581
0.00753196
0.00875962
0.00958643
0.0102454
0.0110124
0.0112934
0.0115045
0.0111555
0.0109721
0.010265
0.00954634
0.0089973
0.0081291
0.00741769
0.0068686
0.00681201
0.00412661
0.00439042
0.00516777
0.00543462
0.00618632
0.00708004
0.00780409
0.00870185
0.00915858
0.0095185
0.00941644
0.00935704
0.00903363
0.00851091
0.00786037
0.00726666
0.0069496
0.00623616
0.0059748
0.00575824
0.00327484
0.00354959
0.00404118
0.00423229
0.00507772
0.00568293
0.00602667
0.00655536
0.00716679
0.00757032
0.00740199
0.00746502
0.00699485
0.00670419
0.0064333
0.00556748
0.00538048
0.0047989
0.00471348
0.00444794
0.00259355
0.00260319
0.00303573
0.00329824
0.00362689
0.00417297
0.00454686
0.00487902
0.0051534
0.00523694
0.00538006
0.00522733
0.0048623
0.00455907
0.0043932
0.0040834
0.00377343
0.00340685
0.0032662
0.00336085
0.00121661
0.00147148
0.00163093
0.00195775
0.00208661
0.00249515
0.00259335
0.00291983
0.00332055
0.00316259
0.00334097
0.00327625
0.00321699
0.00270652
0.00285788
0.00262142
0.00220706
0.00194927
0.00192156
0.00198727
0.000336764
0.000524283
0.000617763
0.000373372
0.000633192
0.000738353
0.0010664
0.00104557
0.00120383
0.000887974
0.000963439
0.000987922
0.00108778
0.000922713
0.000760851
0.000639963
0.000797152
0.000708184
0.000763027
0.000621982
0.00431451
0.00486875
0.00563404
0.00650922
0.00723704
0.00853376
0.00958527
0.0107365
0.011724
0.0121688
0.0122168
0.0120126
0.011381
0.0104301
0.00954597
0.00880773
0.00794597
0.00710723
0.00667751
0.00622964
0.0041432
0.00429513
0.00492121
0.00571935
0.00651959
0.00755143
0.00845459
0.00959883
0.0100383
0.0106773
0.0107957
0.0107982
0.00984311
0.00939945
0.00858045
0.00766149
0.0069322
0.00641526
0.0058388
0.00569907
0.00332504
0.00374483
0.00419805
0.00504548
0.00563984
0.00645459
0.00767253
0.00803822
0.00861294
0.00913584
0.00928175
0.00912251
0.00842627
0.00784705
0.00738355
0.00658546
0.00584986
0.00546435
0.00502367
0.00491517
0.00261507
0.00294105
0.00345019
0.00392114
0.0046069
0.0055764
0.00611574
0.00678305
0.00725995
0.0075861
0.0077957
0.00736304
0.00712288
0.00669955
0.0060917
0.00544486
0.00479832
0.00445525
0.00405194
0.00419695
0.00219848
0.00247173
0.0028345
0.0029839
0.00354533
0.00425109
0.00479274
0.00539845
0.00570535
0.00585684
0.00602917
0.00586981
0.00549122
0.00524887
0.00483339
0.00426311
0.00381463
0.00377079
0.00345505
0.00320953
0.00157476
0.00174441
0.00197147
0.00229211
0.00280285
0.00298889
0.00345718
0.00374916
0.00409696
0.00426697
0.00420961
0.00403635
0.00397792
0.00397258
0.00341216
0.00316256
0.00294774
0.00240242
0.00224775
0.00227945
0.00100126
0.000818907
0.00131962
0.00125989
0.00170034
0.00180803
0.0022524
0.00221702
0.00248884
0.00250908
0.002723
0.00256279
0.00234749
0.00231028
0.00210534
0.00206694
0.00176455
0.00178524
0.00126348
0.00143725
0.000576929
0.000539905
0.000369945
0.000390454
0.000550095
0.000555425
0.000754196
0.000754556
0.000879112
0.00085956
0.00103108
0.000861363
0.000930178
0.000917409
0.000725225
0.000494802
0.000406866
0.000613697
0.000503599
0.000379122
0.00186596
0.00222352
0.00257712
0.00338887
0.00432809
0.00533274
0.00644826
0.00745873
0.00814355
0.00881886
0.00871914
0.00848995
0.00786406
0.00721097
0.00632455
0.00542096
0.004539
0.00414221
0.00371074
0.00333712
0.00161698
0.00206488
0.00245175
0.0031737
0.00398816
0.00505537
0.00583083
0.00636423
0.00715718
0.00767074
0.00772857
0.00745564
0.00691847
0.00655695
0.00559537
0.00483568
0.00415007
0.00372335
0.00325341
0.00324893
0.00141391
0.00153572
0.00232085
0.00267731
0.00347828
0.00425964
0.00503211
0.00565089
0.00618517
0.00660756
0.00667071
0.00647253
0.00588981
0.00546593
0.00494697
0.00423705
0.0038667
0.00316234
0.0028185
0.00269515
0.00136938
0.00140187
0.00181845
0.00235039
0.00302004
0.00337101
0.00400737
0.00486331
0.00512365
0.00542287
0.00579069
0.00538505
0.00506496
0.00474049
0.00427858
0.00358124
0.00302785
0.00267896
0.00249612
0.00220051
0.00098152
0.00133039
0.00118436
0.00209003
0.00241615
0.00268398
0.00334326
0.00354408
0.00398847
0.00433017
0.00417302
0.00433548
0.00410221
0.00370559
0.00338204
0.00287384
0.00257256
0.00217038
0.00183838
0.00196403
0.00078503
0.000878856
0.00102577
0.00126756
0.0017992
0.00196809
0.0021874
0.00265253
0.00308274
0.00319238
0.00319898
0.00308231
0.00298616
0.00268687
0.0020822
0.00194561
0.00176233
0.00150335
0.00134926
0.00114445
0.000489674
0.000300474
0.000740781
0.000815714
0.00106476
0.00123901
0.00158761
0.00140152
0.00150665
0.00199239
0.00167383
0.00176253
0.00169483
0.00153947
0.0015225
0.0011369
0.00138984
0.000861993
0.000668268
0.000741172
0.000177141
0.000204402
0.000405971
0.000383264
0.000413262
0.000355344
0.000462199
0.000695051
0.000388073
0.000618543
0.000805891
0.000662065
0.000504632
0.000506546
0.000321273
0.00040657
0.000327738
0.000372336
0.000162201
0.00038362
0.000595227
0.000113446
0.000157393
0.000786273
0.00139948
0.00220502
0.00337644
0.0039714
0.00487137
0.00509344
0.00533254
0.00500159
0.00431978
0.00356399
0.00311509
0.00255153
0.00151164
0.00123939
0.000892847
0.0006271
0.000367223
0.000372179
4.00634e-05
0.000523788
0.00134864
0.00205057
0.00283166
0.00366695
0.00422643
0.00443883
0.00460836
0.00426292
0.00407338
0.00345234
0.00270959
0.00232416
0.00157516
0.00088754
0.000815081
0.000545609
0.000243762
0.000223665
0.000284057
0.000516164
0.00123145
0.00186557
0.00268995
0.00299967
0.00358149
0.00387955
0.00391262
0.00374368
0.00335706
0.00302806
0.00257068
0.00182341
0.00149417
0.00110622
0.000636482
0.000587143
0.000297274
0.000176191
0.000182958
0.000690518
0.000894797
0.00149241
0.00218345
0.00271107
0.00306191
0.0033635
0.00332886
0.00339192
0.00300158
0.00263509
0.00199216
0.00163581
0.00130206
0.00077867
0.000768183
0.000416874
0.000154631
0.00014491
0.000416444
0.00038693
0.00121653
0.00129672
0.001823
0.00211678
0.00254059
0.00252081
0.00263319
0.00252943
0.00242191
0.00194541
0.00172417
0.00144631
0.00108366
0.000728566
0.000498713
0.000335389
0.00039456
1.16811e-05
2.66616e-05
0.000249254
0.000562585
0.000936526
0.00113722
0.00161932
0.00183633
0.00198543
0.00172442
0.00196785
0.00174849
0.00139452
0.00125164
0.000853586
0.0010975
0.000719517
0.000398983
0.000385279
3.37547e-05
3.19675e-05
0.000142026
0.000246658
0.000497799
0.000591714
0.000566171
0.000752427
0.000787589
0.00115486
0.00101885
0.00109671
0.000996713
0.000810031
0.000753677
0.000686516
0.000225505
0.000342043
0.000198086
0.000182814
0.000138827
0.000103918
0.000101019
9.8764e-05
0.000120088
4.64777e-05
0.000236583
0.000195656
0.000354273
0.000374274
0.000193466
0.000488612
0.000394576
0.000277227
0.000259285
0.000207798
0.000133386
6.02969e-05
0.00020986
1.26619e-05
0.00291231
0.00271509
0.00258764
0.00197595
0.0014027
0.000668177
0.000102507
0.000909264
0.00112085
0.00157216
0.00167942
0.00153784
0.00138721
0.000540645
0.000207658
0.000946868
0.00126374
0.00171474
0.00169152
0.00208725
0.00248236
0.00239352
0.00223789
0.00169125
0.00134959
0.000678822
1.36088e-05
0.000667371
0.00133794
0.00170944
0.0016718
0.00136939
0.00111775
0.000538623
0.000251882
0.000619953
0.000929959
0.00138408
0.00174676
0.00158351
0.00180474
0.00202472
0.00187753
0.00146466
0.000836798
0.000468811
0.000137261
0.000833742
0.00103429
0.00151333
0.00157196
0.00115911
0.000743632
0.000631326
6.55684e-05
0.000423359
0.000895695
0.000928485
0.0014153
0.00123091
0.00160692
0.00140546
0.00117528
0.00103603
0.000626167
0.000359446
0.000200538
0.000713727
0.00108948
0.00121174
0.00125499
0.00110082
0.000916875
0.000725804
0.000229296
0.000123542
0.000562022
0.000728629
0.000913666
0.000881857
0.00118741
0.00102871
0.000952053
0.000582715
0.000518301
0.000128516
8.5211e-05
0.00061576
0.000811531
0.000845579
0.00102966
0.00101151
0.000492862
0.00027315
0.000238323
0.000289434
0.000577505
0.000908075
0.000792976
0.000873705
0.000780086
0.000863373
0.000772008
0.000754865
0.000297898
5.52178e-05
0.000111751
0.000125097
0.000590665
0.000709742
0.000672249
0.000712669
0.000425147
0.000270836
0.000243947
0.000189719
0.000534025
0.000338461
0.00036126
0.000516631
0.00043635
0.000374498
0.000443007
0.000234645
0.000128355
0.000125104
4.41101e-05
0.000199448
0.000309846
0.000401385
0.000496918
0.000422182
0.000202316
0.000177478
4.26397e-06
1.8887e-05
0.000120143
1.98956e-05
0.000302464
0.00051207
7.74751e-05
0.000153329
0.000299852
3.54274e-05
6.23735e-05
0.000139456
7.88427e-05
0.000104745
0.000196829
7.87448e-05
8.42165e-05
1.9374e-05
2.15111e-05
6.09832e-05
9.83084e-05
0.00020753
0.000365724
0.000351575
0.000184565
0.00020228
0.00501412
0.00510457
0.00503252
0.00434273
0.00405513
0.00341471
0.00297017
0.00207104
0.00207602
0.0014711
0.00145827
0.00179301
0.00199926
0.00271619
0.00319162
0.00356035
0.004049
0.00445738
0.00444187
0.00435994
0.00406418
0.00432398
0.00398856
0.00397052
0.00361244
0.00272303
0.00268017
0.00208563
0.00177072
0.00159238
0.0011826
0.00146553
0.0015857
0.00224801
0.00283099
0.00324034
0.0034568
0.00380677
0.00386365
0.00383578
0.00368393
0.00365584
0.00355026
0.0029375
0.002988
0.00240031
0.00205696
0.00170536
0.00160618
0.00121129
0.0010035
0.00101014
0.00141752
0.00184185
0.00229933
0.00271323
0.00284314
0.00299071
0.00312695
0.0029977
0.00301245
0.00294425
0.00275811
0.00267761
0.00216113
0.00203233
0.00161633
0.00117437
0.000920297
0.000705135
0.000917102
0.000879168
0.00099912
0.00145324
0.00174599
0.00225987
0.00230384
0.00250102
0.00231401
0.00242485
0.00208497
0.00222465
0.00207205
0.0019792
0.00189567
0.00146711
0.00133745
0.000969271
0.000812907
0.000686751
0.000742282
0.000636373
0.000943051
0.0012238
0.00128741
0.00151399
0.00175317
0.00198213
0.00178902
0.00197643
0.00148375
0.00162269
0.00143725
0.00155211
0.00131451
0.000983822
0.00104691
0.000626824
0.000703241
0.000402447
0.000579438
0.00040614
0.000647708
0.000780948
0.00100155
0.00102963
0.00127255
0.00149959
0.00154174
0.00145588
0.00107126
0.00108703
0.00106566
0.00109714
0.00100809
0.000579306
0.000387425
0.000475113
0.000313294
0.000124816
0.000235038
0.000215623
0.000158771
0.000357022
0.00060996
0.00056245
0.000808318
0.000823665
0.000851754
0.000899587
0.000248048
0.000452074
0.000450118
0.000478253
0.000358238
0.000127751
0.000190807
0.000129943
0.000236418
0.000331831
0.000145595
0.000123399
0.000234676
0.000279915
0.000239134
0.000281535
0.000439465
0.000323096
0.000245925
0.000435808
0.00666721
0.0069781
0.00706201
0.00680461
0.00649114
0.00596833
0.00562731
0.00516664
0.00477205
0.00463944
0.00479122
0.00468432
0.00517325
0.00565998
0.0061421
0.00643334
0.00652743
0.00684703
0.00652079
0.00648641
0.00592693
0.00590535
0.00591903
0.00583133
0.0055958
0.00524906
0.00476772
0.00446441
0.00415854
0.00383702
0.0039203
0.00417641
0.00454232
0.00470531
0.0050455
0.00556142
0.0057892
0.00583436
0.0057995
0.00554199
0.00504417
0.00496786
0.00470466
0.00500518
0.00461425
0.00430135
0.00409549
0.00378122
0.0035586
0.00322172
0.00319496
0.00336287
0.00359737
0.0039659
0.00420198
0.00462166
0.00483746
0.00499049
0.00480129
0.00487635
0.00398503
0.0041674
0.00406789
0.0039724
0.00382713
0.00358303
0.00326344
0.00290037
0.00277685
0.0025589
0.00258308
0.00309879
0.00329541
0.00303845
0.00365605
0.00381837
0.0040917
0.00388316
0.00389855
0.00389805
0.00325542
0.00314925
0.00315027
0.00302583
0.0031833
0.00277676
0.0026952
0.00219764
0.00237431
0.00232832
0.00197209
0.00211401
0.00224621
0.00266131
0.00257348
0.00299173
0.00323355
0.00298023
0.00304683
0.00304345
0.00251911
0.00228603
0.00238162
0.00241664
0.00212963
0.00196802
0.00183346
0.00163823
0.00153018
0.00125258
0.00156765
0.00147143
0.00170871
0.00203871
0.00213894
0.00214476
0.00218644
0.00219036
0.00209263
0.00230978
0.00114094
0.00146777
0.00152916
0.00128609
0.00138359
0.00111005
0.000922398
0.00100583
0.00103489
0.000893248
0.000850336
0.000903418
0.0010034
0.000971783
0.00116198
0.00145213
0.00144122
0.00148033
0.00137661
0.00112586
0.000532654
0.000544695
0.000447124
0.000607388
0.000590331
0.000261927
0.000363191
0.000185398
0.000602618
0.000351996
0.000216492
0.000279228
0.000266481
0.000472524
0.000364797
0.000577551
0.00038787
0.000579468
0.000510244
0.00055509
0.00842473
0.00849244
0.00880929
0.00867723
0.00889199
0.00840381
0.00825649
0.00778947
0.00736532
0.00753947
0.00715721
0.00770826
0.00772071
0.00814486
0.00856601
0.00863059
0.00902292
0.00905799
0.00857797
0.00838822
0.00710213
0.00737996
0.0077345
0.00764914
0.00773016
0.00724088
0.00704577
0.00667347
0.00649924
0.00642959
0.00646042
0.0065704
0.00685573
0.00724468
0.00760566
0.00747775
0.00756178
0.00768931
0.00751703
0.00737682
0.00604924
0.00644255
0.00641726
0.00640804
0.00632454
0.00629258
0.00596357
0.00577278
0.00552065
0.00543083
0.00544563
0.00559488
0.00570099
0.00591966
0.00606805
0.00642196
0.00649137
0.00652616
0.00638981
0.0062701
0.005115
0.00502171
0.00537197
0.00533469
0.00509229
0.00488127
0.00477147
0.00475375
0.00459413
0.00436737
0.00423271
0.0046688
0.00480902
0.00493183
0.00512852
0.00530487
0.00542057
0.0053623
0.00536668
0.00504065
0.00399518
0.00413143
0.00410348
0.00442928
0.0040489
0.00363506
0.00390019
0.003452
0.00356259
0.00350721
0.00318361
0.00355789
0.00340842
0.00368689
0.00389383
0.00397706
0.00401042
0.00419206
0.00395503
0.0039572
0.00272753
0.00285945
0.00306042
0.0030943
0.0028587
0.00274433
0.00267683
0.00269123
0.00264485
0.00218477
0.00254195
0.00236301
0.0026863
0.00264357
0.00279888
0.00286606
0.00301053
0.00298022
0.00287156
0.00291141
0.00169559
0.00181633
0.00166597
0.00175012
0.00171042
0.00159108
0.00163231
0.00144298
0.00146478
0.001608
0.001655
0.00161464
0.00149486
0.00169
0.00186363
0.00182263
0.0019353
0.00178013
0.00182041
0.0015804
0.000489657
0.00064104
0.000616272
0.000473298
0.000658797
0.00057693
0.000511556
0.000651531
0.000478841
0.000542159
0.000333302
0.000359921
0.000562114
0.000503105
0.00062825
0.000615654
0.000623186
0.000558075
0.000415513
0.000726502
0.0095261
0.0100938
0.0104321
0.0104652
0.0107248
0.0105493
0.0101434
0.0102984
0.0100229
0.00979406
0.0100989
0.00994158
0.0104373
0.0104387
0.010847
0.0108141
0.0111364
0.0108954
0.0103996
0.01009
0.00823838
0.00853259
0.00897537
0.00940773
0.00915386
0.00910976
0.00892743
0.00879053
0.00872266
0.00854055
0.00867676
0.00876455
0.00883575
0.00916171
0.00929517
0.00940594
0.00943187
0.00937715
0.00899471
0.0086206
0.00698864
0.00733774
0.00752041
0.00774106
0.00791418
0.00779187
0.0076111
0.00757105
0.00725035
0.00720195
0.00724767
0.00734896
0.00752936
0.007522
0.00780262
0.00761336
0.00779398
0.00771155
0.00762933
0.00758137
0.00563067
0.00601483
0.00628921
0.00647714
0.00636232
0.0063428
0.00632517
0.00612614
0.00593245
0.00574569
0.00604087
0.00592717
0.00628211
0.0064712
0.00640416
0.0064896
0.00650974
0.00630464
0.0062414
0.00572425
0.00457396
0.00474813
0.00509241
0.00497964
0.00479698
0.00481763
0.00463186
0.0046954
0.00479578
0.00461593
0.00491437
0.00469853
0.00470052
0.00489428
0.00507422
0.00504447
0.00516439
0.00522418
0.00476037
0.00471462
0.00328212
0.00348107
0.00350414
0.00366343
0.0034603
0.00345827
0.00336842
0.00351978
0.00339593
0.00334097
0.00318857
0.00348773
0.00334257
0.00353118
0.00355667
0.00351041
0.00371298
0.00356005
0.00356687
0.00352455
0.00229814
0.00187987
0.0021942
0.00192856
0.00213263
0.00215141
0.00199243
0.00200326
0.00208157
0.00200965
0.00208465
0.00201379
0.00235755
0.00206282
0.00214732
0.00221421
0.00219412
0.00213967
0.00231603
0.00202923
0.00053755
0.000664644
0.00069178
0.000744537
0.000740826
0.000827958
0.000737704
0.000654633
0.000311604
0.000620828
0.000717943
0.000790102
0.000604604
0.000847897
0.00068277
0.000758157
0.000534956
0.000892179
0.000504409
0.00101912
0.0106255
0.0110012
0.0116563
0.0120154
0.0122974
0.0122042
0.0123717
0.0121812
0.0119288
0.0120152
0.0121645
0.0122689
0.0124306
0.0126893
0.0125867
0.0128133
0.0125885
0.0123825
0.0118699
0.0113157
0.00894204
0.00937103
0.0101346
0.0104059
0.0105904
0.0104724
0.0106605
0.0105115
0.0103443
0.0104266
0.0105883
0.010727
0.0107458
0.0107951
0.0110409
0.0109986
0.0108973
0.0106515
0.0103615
0.00982313
0.00778677
0.00808185
0.00864364
0.00886143
0.00902318
0.00904567
0.00900273
0.00897811
0.00868769
0.00872995
0.00884663
0.00890626
0.00919421
0.00909743
0.00959008
0.00923206
0.00912483
0.00897121
0.00868537
0.00822506
0.00616658
0.00681061
0.00699417
0.00720084
0.00753846
0.00712229
0.00734707
0.00736988
0.00720185
0.00705132
0.00732161
0.00729692
0.00759214
0.00758037
0.00773606
0.00764422
0.00745794
0.00740352
0.00712085
0.00686602
0.00509283
0.00519812
0.00546441
0.00564616
0.00574416
0.00566514
0.00575549
0.00579944
0.00558504
0.00576902
0.00569945
0.00567933
0.00571323
0.00603078
0.00585728
0.00594169
0.00584361
0.00577365
0.00560013
0.00550126
0.00341171
0.00370098
0.00405485
0.00412936
0.00427014
0.00435331
0.00425884
0.00398563
0.00396525
0.00411635
0.00400174
0.00402282
0.00405964
0.00425378
0.00420441
0.00415734
0.00417303
0.00401743
0.00412042
0.00367394
0.00216695
0.00235084
0.00205836
0.00251886
0.00241327
0.00243122
0.00241984
0.00268979
0.00291811
0.00245219
0.00244135
0.00234201
0.00248591
0.00265224
0.00257973
0.00285285
0.00255891
0.00230269
0.00237164
0.00211222
0.000635396
0.00104659
0.000829459
0.00077939
0.000987204
0.000872066
0.00078089
0.000980724
0.000877652
0.000589633
0.000789338
0.000679424
0.000729817
0.000853576
0.000888023
0.00109896
0.000570561
0.000595253
0.000913059
0.000517703
0.010832
0.0116595
0.0123962
0.0130348
0.0133181
0.013605
0.0138298
0.0137781
0.0137223
0.0137442
0.0138454
0.0141224
0.0141955
0.0144198
0.014409
0.014216
0.0136476
0.0134463
0.0132293
0.0125813
0.00943887
0.00992958
0.0107405
0.0113595
0.0116534
0.0119238
0.0119295
0.0118274
0.0121105
0.0119423
0.0120861
0.0121897
0.0123336
0.0124674
0.0123596
0.0122773
0.0120954
0.0116867
0.0111232
0.0106791
0.00830639
0.00845639
0.00928762
0.00944879
0.00974064
0.0100251
0.00999315
0.0101418
0.0102415
0.0100884
0.0101395
0.0103442
0.0104537
0.010647
0.0103855
0.0103007
0.0105405
0.00997541
0.00960862
0.00899639
0.00668928
0.00696264
0.00738306
0.00792838
0.00796217
0.00824949
0.00833004
0.00831123
0.0085255
0.00835257
0.00839289
0.00854666
0.00846528
0.00865521
0.00856143
0.00855621
0.0082606
0.00797557
0.00779958
0.00740843
0.00513089
0.0056382
0.00564814
0.00607388
0.00611404
0.00657442
0.00658161
0.0065469
0.00654254
0.00640881
0.00668854
0.00667029
0.00654538
0.00681152
0.00673775
0.00679464
0.00645822
0.00651553
0.00620549
0.00608096
0.0036773
0.00391703
0.00431167
0.00452849
0.00462234
0.00468643
0.00470911
0.00448252
0.00482231
0.00482702
0.00493732
0.00492204
0.0048247
0.00456608
0.00493112
0.0048599
0.00455783
0.00466095
0.00427026
0.00416069
0.00222909
0.00247235
0.00257708
0.00288573
0.00261489
0.00277633
0.00289641
0.00279676
0.00292
0.00291896
0.00280582
0.00301542
0.00323214
0.00303593
0.00302256
0.00291268
0.00290703
0.00271507
0.00261327
0.00263959
0.000662678
0.000787914
0.000930067
0.000719349
0.000811281
0.000842409
0.00119435
0.000822438
0.000815179
0.00101945
0.00105876
0.00118333
0.00103193
0.00108241
0.00101116
0.000979234
0.00111929
0.000931387
0.000801966
0.000863104
0.0109916
0.0120361
0.0130345
0.0135888
0.0142348
0.0146371
0.0148807
0.0149014
0.0150842
0.0152999
0.0153336
0.015499
0.0151633
0.0154448
0.0155416
0.015323
0.0149241
0.0143304
0.0135346
0.0129043
0.0097337
0.0105052
0.0112565
0.0119364
0.0121942
0.0125864
0.012997
0.0130727
0.0134486
0.013128
0.0133224
0.0134246
0.0135133
0.0133086
0.0135185
0.0130153
0.0129858
0.012377
0.0119023
0.011161
0.00818638
0.00872957
0.00952643
0.0100918
0.0105751
0.0107032
0.0109784
0.0109217
0.0111711
0.0111127
0.0112259
0.0113686
0.0113153
0.011264
0.0114315
0.0111841
0.0108767
0.0104426
0.00993862
0.00962592
0.00669325
0.00723527
0.00786182
0.00816755
0.00850859
0.00873391
0.00898305
0.00903007
0.0089883
0.00926665
0.00940136
0.00941707
0.00932417
0.00937614
0.00909139
0.00928687
0.00896599
0.00871257
0.00819489
0.00765852
0.00533525
0.00565421
0.00612471
0.00631539
0.00677326
0.00694033
0.00687334
0.00690321
0.00706078
0.00719422
0.00733338
0.00738126
0.00724121
0.00726036
0.00702283
0.00725317
0.00703058
0.00668024
0.00641344
0.00611641
0.00380163
0.00394054
0.00444009
0.00465839
0.00496361
0.00498658
0.00508906
0.00502078
0.00495862
0.00523324
0.00516401
0.00536016
0.00518031
0.00535928
0.0054061
0.00526497
0.00504527
0.0047663
0.00447637
0.00434181
0.00232269
0.00231415
0.00246252
0.00278334
0.00294194
0.00308868
0.00292903
0.00325941
0.00316235
0.00320125
0.00267944
0.00338513
0.00314135
0.00332264
0.00303955
0.00310053
0.00302007
0.00284315
0.0027971
0.0027322
0.000782584
0.000776103
0.000722358
0.000915341
0.000954527
0.00094094
0.00118899
0.000977179
0.000963021
0.000986819
0.00114714
0.00127788
0.000973232
0.000966898
0.000954079
0.00112323
0.00103486
0.00106578
0.000732603
0.000952882
0.011025
0.0120009
0.0131857
0.0137775
0.0148523
0.0152557
0.0156735
0.0159728
0.0159125
0.0164006
0.0165072
0.0163455
0.016497
0.0164604
0.0161737
0.0160971
0.0156324
0.014871
0.0138143
0.0131025
0.00948529
0.0103459
0.0112659
0.0120763
0.0127982
0.0132757
0.0135425
0.013783
0.0138944
0.0141696
0.0143031
0.0139483
0.0142321
0.0143167
0.0141068
0.0137391
0.0134945
0.0128387
0.0120552
0.011377
0.00810751
0.00889379
0.0094823
0.0102253
0.0108384
0.0110878
0.0115542
0.0113399
0.0117036
0.0117989
0.0121016
0.0118521
0.0121204
0.0121486
0.0120674
0.0116721
0.0113802
0.0111125
0.0103306
0.00968865
0.00665696
0.00711614
0.00788629
0.00847579
0.00896197
0.00904326
0.00957846
0.00985376
0.00970541
0.00991822
0.009829
0.00988088
0.00996648
0.00982713
0.0097417
0.0094142
0.00928035
0.00880682
0.00837128
0.00812922
0.00530168
0.00554307
0.00596819
0.00657208
0.00683798
0.00724308
0.0074684
0.00729047
0.00756834
0.0078305
0.00778807
0.00773563
0.00759468
0.00764635
0.00758941
0.00762663
0.00729529
0.00726294
0.00647651
0.00631518
0.00374617
0.00404563
0.00428332
0.00466525
0.00477475
0.00510619
0.00518819
0.00537
0.0053271
0.00554688
0.00562465
0.00548428
0.00565426
0.00573895
0.00550091
0.00550116
0.00514257
0.00515313
0.00482104
0.00461
0.0020317
0.00249664
0.00258939
0.0028385
0.00295197
0.00314655
0.00315091
0.00336245
0.00325939
0.00326555
0.00342318
0.00340339
0.00339023
0.00331367
0.00306623
0.00337208
0.00323018
0.00304535
0.00292878
0.00270954
0.000649773
0.000829034
0.000712106
0.00107401
0.000993553
0.00104083
0.00115353
0.00101641
0.00106041
0.00127862
0.00124177
0.00111585
0.00114264
0.00128003
0.00118125
0.00118409
0.00111029
0.000945836
0.00102404
0.000940507
0.0104097
0.0115902
0.0128198
0.0137282
0.0147743
0.0153521
0.0157211
0.0162769
0.0165683
0.016731
0.0170221
0.0168573
0.0172375
0.0166703
0.016652
0.0163083
0.0156995
0.0147199
0.0138659
0.0130515
0.0090161
0.0101868
0.0110781
0.0122491
0.0128592
0.0131082
0.0137532
0.01408
0.0143204
0.014462
0.0145305
0.0147397
0.0146345
0.0145893
0.0143626
0.0141066
0.0136684
0.0126832
0.0119529
0.0113103
0.00770961
0.00867578
0.00934617
0.0100373
0.01071
0.0115042
0.0116976
0.0121862
0.0121873
0.0124173
0.0123258
0.0124513
0.012515
0.0126057
0.0123245
0.0119851
0.0112824
0.010947
0.0102354
0.00974375
0.00627472
0.00723486
0.00796265
0.00837187
0.00892175
0.00925608
0.00969443
0.00990462
0.00994083
0.010239
0.0103162
0.0103277
0.0103619
0.0103118
0.0101715
0.00977569
0.00960805
0.00905431
0.00853327
0.00779515
0.0048322
0.00546944
0.00608323
0.00653131
0.00675079
0.00741548
0.0074275
0.00801539
0.00786647
0.00788877
0.00796797
0.00795881
0.00807363
0.00772818
0.00769269
0.00780172
0.00726357
0.00701362
0.0063713
0.00592435
0.0034746
0.00400367
0.00456188
0.00464074
0.00503077
0.00547481
0.00527885
0.00544825
0.00571478
0.00576994
0.00578837
0.00594374
0.00589022
0.00576243
0.00576174
0.00549626
0.00527879
0.00513569
0.00477466
0.00428751
0.00248021
0.00237883
0.00268155
0.00287961
0.00293028
0.00328414
0.00332147
0.0033575
0.00338965
0.00331236
0.00363549
0.00349971
0.00349364
0.00368964
0.00359451
0.00319206
0.00342817
0.00307398
0.00289798
0.00260563
0.000858564
0.000806377
0.000723788
0.000892044
0.000918587
0.00116656
0.00103689
0.00103077
0.000939176
0.00116846
0.0011152
0.000921331
0.00113294
0.00116384
0.00121367
0.00130535
0.00117113
0.000987155
0.00110563
0.000787568
0.00955988
0.0109232
0.0121334
0.0134749
0.014254
0.0150198
0.0156614
0.0162264
0.0166726
0.017019
0.0169183
0.0167997
0.0171666
0.0168807
0.016663
0.0162088
0.0154897
0.0146432
0.0134522
0.0122781
0.00830664
0.00929839
0.0104499
0.0112674
0.012474
0.0130625
0.0137022
0.0140447
0.0143992
0.0147477
0.0146721
0.0147576
0.0148811
0.0146264
0.0145076
0.0139049
0.013482
0.0125413
0.0115571
0.0106859
0.00688923
0.00786249
0.00889818
0.00979086
0.0103053
0.0113014
0.0115009
0.0116831
0.011991
0.0122734
0.0124235
0.0125483
0.0125267
0.0121476
0.0120179
0.0117956
0.0112894
0.0103996
0.00981449
0.00914321
0.00585155
0.00666944
0.00746294
0.00823811
0.00833781
0.00894504
0.00939028
0.00972642
0.0100236
0.0101828
0.0102664
0.0103981
0.0100469
0.0100783
0.0101432
0.0095523
0.00915892
0.00868727
0.00794621
0.00726136
0.00451125
0.00512034
0.00559391
0.00634054
0.0067753
0.00708024
0.0074876
0.00754853
0.00775061
0.00806263
0.0080232
0.00795495
0.00799017
0.00799989
0.00784204
0.00759744
0.00721631
0.00662058
0.0062722
0.00601831
0.00327479
0.003561
0.00412749
0.00446607
0.00473993
0.00508769
0.00548354
0.0056151
0.00561966
0.00564126
0.00559934
0.00574907
0.00605016
0.00568189
0.00581164
0.00543626
0.00510606
0.00490616
0.00440684
0.00420012
0.00198808
0.00225857
0.00238938
0.00271707
0.0028396
0.00306953
0.00335373
0.00333395
0.00343451
0.00351712
0.00316624
0.00353721
0.00343907
0.00349203
0.00342722
0.00318632
0.00301928
0.00277707
0.00266578
0.00260995
0.000760951
0.000759703
0.000990306
0.000869059
0.000970745
0.000976174
0.00117857
0.00114424
0.00103216
0.00132823
0.00120007
0.0012921
0.00112065
0.00123394
0.00131125
0.00102371
0.00082501
0.00103195
0.00127313
0.000660946
0.00835109
0.00985053
0.0111944
0.012524
0.0136196
0.0142809
0.0151485
0.0156985
0.0159692
0.0163596
0.0165743
0.0166895
0.0169001
0.0164511
0.0162783
0.0156828
0.0147708
0.0137532
0.012568
0.0115215
0.00717713
0.00830174
0.00967208
0.0107816
0.0117498
0.0124509
0.0131078
0.0136698
0.0141076
0.014176
0.014448
0.014523
0.0145285
0.0141001
0.0139215
0.0135287
0.0128043
0.0120052
0.0110293
0.00973791
0.00613843
0.00711648
0.00800494
0.00911759
0.00992354
0.0106706
0.0111325
0.011414
0.0118265
0.0121836
0.0124822
0.0120423
0.0120866
0.0119922
0.0117744
0.011466
0.0107497
0.010064
0.00918686
0.00832649
0.00516907
0.00600088
0.0066566
0.00729399
0.00804239
0.00874544
0.0089724
0.00937984
0.00984968
0.00993316
0.00994989
0.010031
0.00995436
0.00977792
0.00977562
0.00948422
0.00874921
0.00800425
0.00766273
0.00684656
0.00386564
0.00458715
0.00518386
0.00586059
0.00635118
0.00684975
0.00710026
0.00753727
0.00776376
0.00790572
0.00803464
0.0079247
0.00785665
0.00782309
0.00763671
0.00721393
0.00680067
0.00631885
0.0056492
0.00528235
0.00288348
0.00331081
0.00369594
0.00452017
0.00458166
0.0049353
0.00513249
0.00539864
0.0055447
0.00557293