/*--------------------------------*- C++ -*----------------------------------*\
| =========                 |                                                 |
| \\      /  F ield         | OpenFOAM: The Open Source CFD Toolbox           |
|  \\    /   O peration     | Version:  2212                                  |
|   \\  /    A nd           | Website:  www.openfoam.com                      |
|    \\/     M anipulation  |                                                 |
\*---------------------------------------------------------------------------*/
FoamFile
{
    version     2.0;
    format      ascii;
    arch        "LSB;label=32;scalar=64";
    class       volScalarField;
    location    "0";
    object      T;
}
// * * * * * * * * * * * * * * * * * * * * * * * * * * * * * * * * * * * * * //

dimensions      [0 0 0 1 0 0 0];

internalField   nonuniform List<scalar> 
3200
(
319.612
319.048
318.647
318.616
318.572
318.861
319.288
319.47
319.888
320.099
320.256
320.441
320.229
320.135
320.033
319.903
319.832
320.042
320.709
321.211
316.992
316.53
316.178
316.166
316.113
316.362
316.729
316.899
317.265
317.418
317.567
317.717
317.55
317.471
317.409
317.283
317.211
317.426
317.966
318.359
314.365
313.997
313.708
313.693
313.618
313.854
314.156
314.303
314.619
314.725
314.876
314.98
314.875
314.808
314.763
314.647
314.589
314.772
315.224
315.533
311.716
311.45
311.214
311.204
311.132
311.331
311.569
311.714
311.976
312.06
312.189
312.246
312.184
312.129
312.111
312.026
311.972
312.097
312.478
312.7
309.098
308.893
308.732
308.726
308.67
308.806
308.993
309.116
309.332
309.395
309.487
309.518
309.471
309.433
309.419
309.381
309.302
309.428
309.712
309.867
306.5
306.343
306.247
306.253
306.2
306.299
306.429
306.519
306.673
306.748
306.781
306.797
306.762
306.741
306.731
306.711
306.654
306.757
306.943
307.037
303.895
303.797
303.754
303.764
303.76
303.792
303.854
303.94
304.012
304.063
304.066
304.089
304.061
304.045
304.039
304.047
303.979
304.062
304.184
304.221
301.308
301.271
301.26
301.261
301.27
301.283
301.291
301.321
301.348
301.366
301.351
301.367
301.355
301.354
301.348
301.366
301.332
301.366
301.406
301.411
319.516
319.007
318.784
318.669
318.715
319.088
319.516
319.786
320.036
320.269
320.557
320.613
320.489
320.402
320.268
319.996
320.001
320.162
320.67
321.411
316.893
316.474
316.325
316.178
316.224
316.55
316.925
317.158
317.377
317.55
317.808
317.87
317.792
317.696
317.586
317.363
317.351
317.516
317.944
318.556
314.281
313.957
313.829
313.665
313.727
314.015
314.324
314.535
314.702
314.837
315.06
315.12
315.064
314.961
314.902
314.738
314.678
314.852
315.2
315.691
311.683
311.403
311.311
311.145
311.254
311.465
311.717
311.896
312.022
312.146
312.333
312.368
312.343
312.244
312.191
312.079
312.006
312.154
312.45
312.833
309.079
308.874
308.797
308.635
308.769
308.909
309.124
309.272
309.346
309.457
309.594
309.605
309.598
309.528
309.476
309.42
309.337
309.466
309.694
309.979
306.489
306.343
306.302
306.138
306.27
306.365
306.529
306.642
306.686
306.761
306.852
306.854
306.858
306.805
306.752
306.715
306.679
306.801
306.924
307.145
303.899
303.811
303.794
303.686
303.771
303.842
303.926
303.984
304.007
304.067
304.122
304.102
304.104
304.077
304.055
304.019
304.01
304.106
304.17
304.279
301.309
301.277
301.277
301.244
301.279
301.293
301.309
301.334
301.345
301.36
301.384
301.367
301.368
301.36
301.36
301.336
301.354
301.369
301.4
301.428
319.72
319.216
318.974
318.92
319.019
319.381
319.729
320.197
320.402
320.743
320.907
320.939
320.921
320.772
320.674
320.331
320.289
320.482
320.925
321.674
317.075
316.678
316.44
316.378
316.461
316.828
317.084
317.512
317.688
317.947
318.122
318.162
318.142
318.007
317.939
317.64
317.595
317.761
318.143
318.781
314.453
314.137
313.915
313.845
313.923
314.25
314.439
314.838
314.971
315.181
315.323
315.375
315.346
315.214
315.181
314.942
314.885
315.042
315.363
315.871
311.823
311.583
311.398
311.324
311.374
311.655
311.805
312.165
312.275
312.431
312.523
312.59
312.556
312.434
312.424
312.245
312.179
312.309
312.553
312.977
309.193
309.021
308.871
308.789
308.842
309.078
309.174
309.467
309.563
309.683
309.736
309.79
309.772
309.66
309.691
309.534
309.463
309.581
309.746
310.093
306.582
306.447
306.344
306.267
306.31
306.491
306.553
306.754
306.843
306.919
306.956
306.992
306.971
306.897
306.923
306.832
306.753
306.855
306.963
307.202
303.954
303.885
303.824
303.771
303.798
303.906
303.935
304.042
304.097
304.16
304.168
304.203
304.176
304.137
304.156
304.09
304.053
304.133
304.17
304.33
301.324
301.303
301.273
301.276
301.273
301.321
301.317
301.343
301.379
301.39
301.403
301.405
301.393
301.377
301.393
301.362
301.359
301.393
301.398
301.455
320.23
319.441
319.202
319.269
319.303
319.682
320.086
320.53
320.855
321.314
321.428
321.391
321.474
321.201
321.049
320.825
320.685
320.833
321.319
321.932
317.506
316.837
316.651
316.712
316.706
317.058
317.41
317.787
318.084
318.484
318.555
318.534
318.621
318.375
318.26
318.063
317.922
318.087
318.498
318.993
314.794
314.223
314.07
314.158
314.111
314.431
314.69
315.057
315.306
315.635
315.684
315.677
315.779
315.528
315.472
315.301
315.169
315.319
315.662
316.066
312.083
311.626
311.501
311.577
311.523
311.814
311.983
312.32
312.511
312.764
312.814
312.825
312.938
312.682
312.694
312.54
312.406
312.555
312.807
313.148
309.397
309.048
308.943
308.996
308.939
309.201
309.308
309.584
309.719
309.915
309.952
309.964
310.071
309.881
309.884
309.766
309.658
309.769
309.931
310.23
306.676
306.468
306.379
306.4
306.391
306.581
306.661
306.857
306.937
307.087
307.104
307.098
307.203
307.071
307.077
306.972
306.879
306.983
307.09
307.301
304.002
303.872
303.828
303.849
303.834
303.939
303.996
304.111
304.167
304.24
304.275
304.239
304.328
304.246
304.255
304.185
304.126
304.209
304.252
304.382
301.352
301.302
301.286
301.287
301.29
301.323
301.345
301.377
301.396
301.426
301.431
301.416
301.453
301.425
301.421
301.397
301.381
301.415
301.428
301.479
320.602
319.921
319.582
319.633
319.672
320.143
320.526
320.992
321.334
321.842
322.046
321.98
322.124
321.769
321.576
321.338
321.206
321.287
321.805
322.386
317.844
317.239
316.952
317.029
317.069
317.481
317.797
318.193
318.487
318.944
319.103
319.033
319.178
318.838
318.721
318.502
318.392
318.46
318.899
319.374
315.065
314.572
314.339
314.416
314.439
314.817
315.073
315.407
315.643
316.03
316.143
316.1
316.23
315.916
315.859
315.662
315.586
315.639
315.977
316.375
312.317
311.903
311.755
311.806
311.787
312.141
312.33
312.605
312.816
313.098
313.195
313.156
313.272
313.025
312.977
312.792
312.753
312.817
313.038
313.385
309.588
309.242
309.143
309.185
309.151
309.431
309.576
309.817
309.977
310.159
310.241
310.211
310.337
310.149
310.078
309.936
309.916
309.988
310.138
310.415
306.867
306.579
306.518
306.581
306.519
306.742
306.846
307.017
307.148
307.25
307.317
307.261
307.395
307.265
307.217
307.106
307.1
307.137
307.24
307.421
304.118
303.936
303.905
303.953
303.9
304.049
304.116
304.223
304.305
304.347
304.407
304.349
304.428
304.369
304.339
304.275
304.268
304.291
304.346
304.438
301.381
301.313
301.307
301.33
301.311
301.359
301.392
301.424
301.45
301.459
301.476
301.457
301.48
301.469
301.467
301.434
301.43
301.443
301.453
301.477
321.034
320.564
320.141
320.114
320.112
320.718
321.13
321.567
321.932
322.438
322.678
322.706
322.645
322.391
322.179
322.062
321.852
321.977
322.447
323.05
318.203
317.813
317.459
317.427
317.422
317.96
318.327
318.713
318.99
319.437
319.626
319.669
319.643
319.386
319.217
319.128
318.964
319.057
319.46
319.967
315.383
315.082
314.765
314.734
314.734
315.197
315.514
315.82
316.055
316.453
316.576
316.63
316.63
316.417
316.248
316.184
316.066
316.138
316.455
316.884
312.574
312.342
312.095
312.067
312.058
312.439
312.682
312.933
313.137
313.477
313.556
313.598
313.582
313.446
313.282
313.253
313.183
313.223
313.441
313.81
309.778
309.597
309.427
309.379
309.369
309.67
309.869
310.051
310.226
310.495
310.549
310.594
310.56
310.468
310.307
310.344
310.257
310.301
310.457
310.751
306.985
306.842
306.756
306.696
306.717
306.901
307.044
307.175
307.32
307.501
307.525
307.573
307.554
307.482
307.362
307.391
307.333
307.374
307.485
307.678
304.204
304.116
304.059
304.008
304.046
304.134
304.233
304.323
304.41
304.498
304.508
304.549
304.542
304.509
304.42
304.426
304.398
304.425
304.499
304.611
301.407
301.383
301.362
301.331
301.354
301.386
301.417
301.448
301.492
301.512
301.512
301.518
301.521
301.518
301.478
301.491
301.471
301.471
301.51
301.549
321.636
321.11
320.844
320.851
320.869
321.232
321.792
322.239
322.608
323.174
323.442
323.413
323.269
323.036
322.881
322.74
322.531
322.705
323.112
323.707
318.739
318.292
318.068
318.07
318.088
318.386
318.9
319.258
319.585
320.087
320.308
320.289
320.164
319.975
319.856
319.714
319.536
319.67
320.025
320.558
315.839
315.478
315.296
315.304
315.276
315.544
315.984
316.273
316.561
316.99
317.123
317.148
317.055
316.891
316.808
316.684
316.535
316.626
316.949
317.412
312.94
312.652
312.516
312.523
312.497
312.707
313.06
313.306
313.539
313.911
313.997
314.011
313.955
313.805
313.735
313.648
313.531
313.605
313.87
314.257
310.06
309.838
309.745
309.739
309.722
309.863
310.144
310.326
310.508
310.832
310.862
310.87
310.852
310.737
310.674
310.61
310.522
310.57
310.815
311.069
307.186
307.022
306.978
306.952
306.94
307.04
307.238
307.378
307.497
307.749
307.745
307.76
307.735
307.666
307.621
307.592
307.518
307.54
307.736
307.907
304.306
304.224
304.206
304.161
304.159
304.225
304.338
304.432
304.493
304.658
304.654
304.671
304.649
304.594
304.581
304.591
304.514
304.512
304.658
304.745
301.442
301.418
301.418
301.392
301.385
301.415
301.455
301.486
301.509
301.562
301.559
301.561
301.559
301.541
301.534
301.55
301.513
301.503
301.564
301.59
322.263
321.765
321.624
321.508
321.532
321.831
322.399
322.738
323.308
323.828
324.186
324.103
323.981
323.667
323.611
323.487
323.37
323.548
323.917
324.457
319.271
318.851
318.716
318.642
318.637
318.9
319.396
319.686
320.174
320.637
320.957
320.857
320.782
320.506
320.456
320.368
320.245
320.399
320.72
321.207
316.291
315.948
315.824
315.777
315.757
315.979
316.391
316.647
317.034
317.465
317.718
317.618
317.56
317.351
317.31
317.252
317.106
317.255
317.515
317.94
313.311
313.039
312.945
312.904
312.888
313.063
313.401
313.628
313.912
314.283
314.479
314.393
314.362
314.208
314.171
314.132
313.987
314.096
314.33
314.67
310.361
310.115
310.064
310.048
310.006
310.138
310.411
310.6
310.795
311.103
311.274
311.181
311.159
311.074
311.019
311.023
310.866
310.97
311.146
311.427
307.414
307.224
307.198
307.178
307.133
307.242
307.433
307.559
307.701
307.906
308.072
307.983
307.98
307.923
307.872
307.907
307.737
307.835
307.964
308.178
304.46
304.328
304.336
304.296
304.282
304.345
304.464
304.538
304.626
304.747
304.837
304.8
304.796
304.762
304.738
304.776
304.643
304.705
304.777
304.915
301.492
301.452
301.466
301.444
301.446
301.456
301.5
301.52
301.547
301.597
301.617
301.602
301.603
301.603
301.598
301.608
301.556
301.576
301.606
301.651
323.005
322.637
322.395
322.253
322.281
322.569
322.967
323.447
323.984
324.483
324.694
324.753
324.557
324.496
324.183
324.184
324.133
324.288
324.732
325.296
319.933
319.616
319.398
319.294
319.328
319.554
319.888
320.303
320.79
321.202
321.381
321.424
321.26
321.22
320.958
320.963
320.91
321.04
321.429
321.912
316.84
316.59
316.379
316.325
316.34
316.539
316.807
317.187
317.58
317.93
318.065
318.085
317.972
317.951
317.742
317.737
317.703
317.779
318.132
318.525
313.767
313.561
313.398
313.374
313.376
313.514
313.736
314.065
314.374
314.645
314.741
314.766
314.688
314.679
314.533
314.512
314.478
314.526
314.822
315.131
310.707
310.527
310.409
310.415
310.419
310.517
310.67
310.918
311.157
311.386
311.438
311.469
311.413
311.411
311.311
311.282
311.249
311.276
311.518
311.752
307.656
307.487
307.412
307.433
307.454
307.515
307.624
307.796
307.964
308.122
308.15
308.174
308.155
308.155
308.086
308.061
308.026
308.029
308.221
308.379
304.599
304.49
304.442
304.456
304.483
304.524
304.561
304.67
304.768
304.871
304.881
304.898
304.899
304.898
304.879
304.845
304.81
304.812
304.923
305.034
301.54
301.503
301.484
301.478
301.512
301.508
301.535
301.567
301.588
301.629
301.635
301.636
301.643
301.642
301.646
301.619
301.614
301.612
301.636
301.695
323.653
323.34
323.04
322.892
323.015
323.315
323.684
324.178
324.654
325.059
325.265
325.345
325.219
325.208
325
324.949
324.99
325.135
325.414
325.833
320.484
320.218
319.957
319.842
319.954
320.206
320.512
320.931
321.356
321.682
321.883
321.929
321.823
321.842
321.66
321.619
321.659
321.79
322.015
322.379
317.318
317.093
316.883
316.786
316.889
317.081
317.334
317.691
318.073
318.312
318.509
318.551
318.415
318.47
318.314
318.294
318.314
318.442
318.633
318.945
314.173
313.962
313.795
313.749
313.829
313.952
314.166
314.461
314.788
314.952
315.144
315.169
315.021
315.096
314.965
314.944
314.944
315.118
315.24
315.505
311.045
310.835
310.712
310.693
310.762
310.825
311.003
311.248
311.496
311.612
311.782
311.786
311.662
311.746
311.627
311.611
311.59
311.787
311.845
312.071
307.92
307.736
307.664
307.639
307.698
307.719
307.847
308.027
308.217
308.268
308.418
308.399
308.336
308.415
308.297
308.288
308.277
308.436
308.465
308.61
304.767
304.635
304.588
304.576
304.627
304.647
304.704
304.815
304.936
304.951
305.056
305.04
305.022
305.052
304.988
304.983
304.972
305.073
305.063
305.166
301.601
301.553
301.527
301.533
301.555
301.562
301.582
301.604
301.65
301.648
301.695
301.684
301.69
301.68
301.671
301.677
301.664
301.7
301.695
301.733
324.408
324.05
323.809
323.696
323.776
324.032
324.341
324.882
325.389
325.653
325.918
325.996
326.091
325.938
325.832
325.762
325.815
325.999
326.222
326.656
321.127
320.83
320.646
320.535
320.59
320.839
321.061
321.562
321.991
322.218
322.449
322.497
322.572
322.48
322.381
322.302
322.364
322.515
322.713
323.056
317.855
317.619
317.459
317.383
317.399
317.649
317.795
318.251
318.595
318.769
319.007
319.043
319.091
319.017
318.899
318.86
318.919
319.042
319.216
319.476
314.609
314.395
314.272
314.233
314.224
314.447
314.54
314.929
315.197
315.337
315.542
315.576
315.604
315.556
315.455
315.437
315.477
315.563
315.732
315.916
311.357
311.193
311.103
311.059
311.072
311.22
311.304
311.622
311.802
311.906
312.092
312.09
312.133
312.08
311.999
312.02
312.04
312.11
312.229
312.385
308.106
307.985
307.927
307.908
307.919
308.04
308.065
308.294
308.434
308.497
308.64
308.622
308.665
308.616
308.562
308.586
308.614
308.649
308.727
308.85
304.859
304.783
304.76
304.751
304.766
304.851
304.834
304.993
305.069
305.091
305.191
305.181
305.214
305.171
305.138
305.164
305.169
305.185
305.233
305.319
301.632
301.603
301.593
301.593
301.599
301.625
301.613
301.674
301.709
301.708
301.74
301.73
301.755
301.726
301.718
301.736
301.727
301.737
301.754
301.792
325.224
324.802
324.517
324.536
324.585
324.838
324.97
325.504
325.997
326.382
326.632
326.694
326.77
326.81
326.705
326.545
326.609
326.779
327.057
327.539
321.845
321.493
321.204
321.273
321.292
321.499
321.615
322.091
322.518
322.832
323.076
323.126
323.185
323.221
323.137
323
323.048
323.187
323.422
323.848
318.456
318.182
317.915
317.989
318.006
318.157
318.276
318.676
319.063
319.302
319.518
319.545
319.595
319.651
319.543
319.458
319.496
319.631
319.787
320.145
315.09
314.878
314.636
314.706
314.721
314.838
314.939
315.282
315.603
315.783
315.949
315.978
316.003
316.084
315.953
315.919
315.949
316.056
316.184
316.452
311.732
311.559
311.377
311.427
311.434
311.519
311.606
311.89
312.143
312.26
312.422
312.399
312.435
312.517
312.392
312.383
312.43
312.455
312.569
312.781
308.37
308.257
308.139
308.156
308.162
308.238
308.294
308.512
308.675
308.758
308.877
308.835
308.886
308.957
308.857
308.838
308.91
308.871
308.971
309.125
305.024
304.951
304.906
304.884
304.899
304.962
304.985
305.109
305.215
305.282
305.332
305.293
305.332
305.388
305.329
305.299
305.363
305.315
305.393
305.485
301.689
301.663
301.642
301.629
301.633
301.659
301.666
301.72
301.752
301.783
301.788
301.768
301.782
301.801
301.783
301.78
301.804
301.78
301.809
301.838
326.007
325.584
325.335
325.184
325.296
325.324
325.746
326.108
326.62
327.106
327.269
327.317
327.34
327.493
327.276
327.364
327.428
327.616
327.968
328.474
322.514
322.142
321.938
321.824
321.899
321.916
322.291
322.589
323.055
323.479
323.591
323.646
323.671
323.817
323.611
323.708
323.758
323.916
324.222
324.619
319.027
318.704
318.545
318.459
318.519
318.514
318.836
319.107
319.488
319.858
319.934
319.966
320.022
320.11
319.97
320.076
320.118
320.229
320.49
320.797
315.566
315.313
315.155
315.099
315.154
315.127
315.383
315.627
315.93
316.239
316.288
316.309
316.384
316.421
316.339
316.453
316.476
316.525
316.76
316.993
312.115
311.92
311.795
311.733
311.777
311.754
311.931
312.164
312.377
312.641
312.645
312.671
312.755
312.772
312.7
312.828
312.834
312.832
313.031
313.207
308.656
308.52
308.41
308.375
308.419
308.4
308.524
308.694
308.83
309.041
309.02
309.036
309.104
309.145
309.056
309.183
309.161
309.168
309.31
309.436
305.2
305.132
305.068
305.029
305.035
305.036
305.111
305.224
305.304
305.428
305.407
305.417
305.488
305.49
305.436
305.54
305.478
305.513
305.602
305.677
301.744
301.725
301.693
301.686
301.681
301.675
301.705
301.744
301.781
301.834
301.802
301.822
301.837
301.835
301.823
301.86
301.839
301.849
301.873
301.894
326.71
326.356
326.054
325.992
326.109
326.169
326.594
326.907
327.21
327.704
327.93
327.939
327.926
328.13
328.123
328.125
328.256
328.464
328.795
329.342
323.088
322.83
322.551
322.512
322.599
322.643
323.04
323.294
323.572
323.988
324.169
324.162
324.149
324.354
324.356
324.353
324.458
324.655
324.93
325.387
319.485
319.31
319.083
319.021
319.098
319.146
319.47
319.698
319.936
320.306
320.429
320.416
320.407
320.585
320.603
320.576
320.669
320.84
321.078
321.453
315.924
315.785
315.591
315.547
315.627
315.665
315.899
316.11
316.31
316.634
316.713
316.654
316.674
316.815
316.857
316.84
316.894
317.036
317.238
317.55
312.38
312.255
312.127
312.088
312.155
312.161
312.338
312.518
312.663
312.945
312.961
312.923
312.959
313.056
313.104
313.109
313.149
313.255
313.404
313.643
308.843
308.744
308.647
308.631
308.662
308.669
308.82
308.952
309.019
309.268
309.254
309.219
309.245
309.316
309.358
309.37
309.401
309.464
309.58
309.742
305.31
305.246
305.194
305.177
305.191
305.192
305.291
305.383
305.418
305.567
305.568
305.53
305.558
305.595
305.615
305.629
305.648
305.664
305.763
305.84
301.784
301.752
301.744
301.737
301.731
301.742
301.769
301.815
301.822
301.865
301.877
301.859
301.863
301.871
301.879
301.882
301.902
301.893
301.938
301.957
327.559
327.13
326.86
326.899
326.807
327.033
327.28
327.552
327.89
328.285
328.626
328.59
328.56
328.771
328.784
328.972
329.11
329.402
329.603
330.082
323.855
323.49
323.244
323.292
323.229
323.418
323.628
323.864
324.16
324.491
324.808
324.759
324.69
324.893
324.912
325.106
325.217
325.462
325.618
326.016
320.141
319.847
319.618
319.676
319.653
319.804
319.974
320.16
320.412
320.71
320.981
320.939
320.853
321.024
321.047
321.239
321.303
321.53
321.63
321.976
316.467
316.204
316.007
316.085
316.083
316.209
316.337
316.479
316.7
316.947
317.153
317.12
317.036
317.151
317.204
317.343
317.41
317.59
317.679
317.944
312.83
312.578
312.404
312.511
312.503
312.602
312.689
312.8
312.98
313.176
313.342
313.294
313.263
313.312
313.388
313.473
313.534
313.659
313.744
313.937
309.179
308.977
308.831
308.918
308.946
308.987
309.08
309.144
309.265
309.404
309.525
309.48
309.468
309.509
309.566
309.615
309.683
309.743
309.81
309.939
305.52
305.371
305.285
305.358
305.391
305.395
305.462
305.482
305.561
305.633
305.724
305.668
305.694
305.715
305.73
305.767
305.836
305.846
305.888
305.962
301.853
301.798
301.764
301.792
301.808
301.82
301.828
301.841
301.862
301.885
301.916
301.903
301.906
301.911
301.929
301.93
301.956
301.96
301.961
301.997
328.47
328.078
327.783
327.724
327.69
327.725
327.92
328.274
328.636
328.924
329.199
329.256
329.202
329.431
329.518
329.775
329.946
330.344
330.628
330.926
324.648
324.305
324.062
324.007
323.995
323.984
324.174
324.477
324.801
325.059
325.286
325.309
325.263
325.47
325.539
325.807
325.921
326.275
326.508
326.765
320.845
320.552
320.348
320.293
320.31
320.243
320.427
320.678
320.979
321.207
321.395
321.368
321.349
321.525
321.564
321.84
321.906
322.207
322.399
322.622
317.041
316.819
316.639
316.572
316.604
316.545
316.712
316.911
317.183
317.363
317.514
317.443
317.468
317.592
317.613
317.873
317.918
318.153
318.312
318.496
313.244
313.082
312.919
312.87
312.925
312.859
312.969
313.144
313.366
313.505
313.631
313.555
313.589
313.664
313.695
313.878
313.942
314.095
314.251
314.372
309.464
309.335
309.223
309.195
309.238
309.178
309.252
309.365
309.546
309.663
309.763
309.691
309.721
309.754
309.803
309.897
309.951
310.065
310.175
310.276
305.684
305.613
305.533
305.501
305.545
305.5
305.539
305.607
305.726
305.811
305.87
305.801
305.852
305.833
305.903
305.939
305.969
306.053
306.097
306.173
301.901
301.883
301.85
301.834
301.854
301.849
301.854
301.878
301.918
301.966
301.962
301.938
301.955
301.956
301.979
301.987
302.002
302.041
302.036
302.067
329.265
328.845
328.592
328.523
328.457
328.437
328.695
328.893
329.278
329.65
329.837
329.939
329.953
330.14
330.261
330.581
330.766
331.065
331.426
331.748
325.295
324.971
324.747
324.67
324.657
324.621
324.831
325.019
325.36
325.663
325.834
325.908
325.926
326.091
326.194
326.472
326.621
326.914
327.225
327.46
321.347
321.123
320.902
320.852
320.871
320.823
320.995
321.128
321.465
321.691
321.835
321.892
321.911
322.049
322.139
322.372
322.494
322.753
323.022
323.213
317.424
317.281
317.072
317.063
317.072
317.018
317.141
317.284
317.573
317.732
317.84
317.889
317.922
318.046
318.091
318.289
318.405
318.607
318.828
318.959
313.529
313.426
313.277
313.288
313.286
313.209
313.295
313.444
313.654
313.794
313.858
313.897
313.928
314.023
314.061
314.212
314.327
314.487
314.657
314.728
309.652
309.577
309.484
309.5
309.507
309.429
309.475
309.618
309.742
309.852
309.907
309.92
309.952
309.993
310.054
310.158
310.24
310.382
310.475
310.511
305.815
305.732
305.692
305.7
305.709
305.655
305.673
305.78
305.848
305.921
305.948
305.955
305.985
305.998
306.054
306.089
306.16
306.249
306.295
306.294
301.951
301.913
301.909
301.908
301.912
301.9
301.898
301.936
301.966
301.981
301.996
301.996
302.003
302.004
302.036
302.047
302.07
302.098
302.113
302.103
330.098
329.732
329.413
329.284
329.259
329.196
329.383
329.606
329.953
330.287
330.375
330.619
330.728
330.926
331.006
331.259
331.44
331.836
332.278
332.65
326.05
325.761
325.457
325.333
325.328
325.249
325.39
325.617
325.907
326.223
326.279
326.487
326.593
326.788
326.834
327.072
327.208
327.568
327.924
328.253
322.029
321.788
321.517
321.383
321.405
321.314
321.449
321.642
321.894
322.166
322.208
322.37
322.451
322.642
322.697
322.866
322.979
323.322
323.58
323.883
318.006
317.805
317.585
317.466
317.5
317.417
317.526
317.691
317.895
318.134
318.143
318.28
318.35
318.513
318.568
318.685
318.798
319.05
319.247
319.502
313.984
313.851
313.675
313.587
313.626
313.518
313.617
313.745
313.926
314.129
314.086
314.221
314.266
314.383
314.453
314.515
314.614
314.803
314.95
315.16
309.985
309.887
309.758
309.711
309.742
309.63
309.716
309.821
309.936
310.116
310.06
310.161
310.199
310.272
310.324
310.353
310.431
310.574
310.674
310.835
305.991
305.92
305.852
305.834
305.854
305.772
305.795
305.902
305.966
306.082
306.035
306.102
306.132
306.15
306.214
306.221
306.241
306.359
306.417
306.503
302.007
301.984
301.963
301.952
301.963
301.926
301.931
301.981
301.993
302.049
302.028
302.054
302.068
302.053
302.091
302.095
302.087
302.134
302.149
302.191
330.92
330.444
330.159
330.062
329.897
329.878
330.044
330.322
330.633
330.797
330.818
331.176
331.498
331.65
331.745
331.827
332.124
332.546
333.028
333.392
326.732
326.333
326.09
326.014
325.892
325.855
325.985
326.214
326.513
326.642
326.665
326.987
327.254
327.422
327.454
327.528
327.806
328.166
328.577
328.885
322.573
322.236
322.034
321.982
321.888
321.856
321.938
322.123
322.403
322.501
322.529
322.789
323.039
323.189
323.192
323.257
323.503
323.818
324.15
324.402
318.44
318.177
318.015
317.962
317.916
317.872
317.924
318.073
318.294
318.395
318.42
318.609
318.849
318.969
318.946
319.012
319.208
319.49
319.72
319.936
314.331
314.14
314.005
313.959
313.942
313.888
313.921
314.054
314.219
314.289
314.319
314.452
314.669
314.752
314.705
314.771
314.914
315.174
315.314
315.502
310.209
310.105
310.027
309.989
309.957
309.928
309.918
310.037
310.187
310.202
310.209
310.315
310.467
310.544
310.492
310.536
310.626
310.813
310.929
311.061
306.117
306.088
306.019
306.004
305.965
305.962
305.959
306.041
306.12
306.135
306.139
306.205
306.272
306.317
306.297
306.335
306.341
306.472
306.562
306.642
302.047
302.037
302.013
302.007
301.988
301.991
301.993
302.026
302.059
302.072
302.055
302.076
302.112
302.111
302.103
302.12
302.114
302.17
302.19
302.234
331.459
331.036
330.741
330.578
330.503
330.595
330.615
330.827
331.05
331.258
331.273
331.566
331.897
332.059
332.2
332.379
332.704
332.946
333.397
333.871
327.202
326.813
326.554
326.428
326.377
326.461
326.47
326.638
326.82
327.003
327.042
327.278
327.57
327.723
327.842
327.995
328.252
328.488
328.874
329.267
322.936
322.639
322.412
322.323
322.286
322.375
322.349
322.482
322.655
322.8
322.833
323.021
323.278
323.411
323.507
323.652
323.844
324.064
324.398
324.701
318.702
318.495
318.309
318.234
318.209
318.3
318.271
318.364
318.54
318.606
318.656
318.792
319.011
319.12
319.191
319.319
319.471
319.641
319.926
320.159
314.517
314.37
314.238
314.166
314.152
314.189
314.206
314.273
314.428
314.428
314.489
314.593
314.754
314.875
314.901
314.996
315.105
315.245
315.484
315.651
310.339
310.252
310.165
310.104
310.1
310.126
310.131
310.205
310.318
310.275
310.329
310.41
310.527
310.598
310.616
310.721
310.764
310.864
311.041
311.153
306.176
306.147
306.111
306.066
306.056
306.074
306.093
306.122
306.193
306.168
306.204
306.23
306.323
306.367
306.354
306.443
306.453
306.506
306.639
306.691
302.062
302.059
302.047
302.038
302.036
302.028
302.051
302.059
302.068
302.053
302.089
302.089
302.116
302.142
302.126
302.168
302.163
302.177
302.225
302.246
)
;

boundaryField
{
    hotSide
    {
        type            fixedGradient;
        gradient        nonuniform List<scalar> 
400
(
210.925
211.365
213.237
216.507
221.038
226.632
233.076
240.175
247.769
255.731
263.967
272.41
281.013
289.748
298.604
307.579
316.683
325.927
335.323
344.873
201.921
202.47
204.551
208.122
213.018
219.004
225.836
233.299
241.22
249.468
257.946
266.588
275.351
284.211
293.16
302.203
311.356
320.639
330.068
339.652
196.789
197.578
199.884
203.66
208.742
214.897
221.884
229.485
237.526
245.873
254.428
263.125
271.921
280.794
289.737
298.76
307.881
317.121
326.501
336.031
195.296
196.448
199.001
202.907
208.026
214.16
221.096
228.633
236.604
244.877
253.353
261.963
270.665
279.437
288.275
297.186
306.189
315.305
324.551
333.94
196.502
198.087
200.921
204.957
210.081
216.131
222.93
230.304
238.096
246.182
254.465
262.877
271.376
279.942
288.574
297.279
306.075
314.982
324.017
333.191
199.339
201.382
204.542
208.766
213.953
219.971
226.665
233.883
241.481
249.341
257.373
265.514
273.727
282
290.336
298.748
307.256
315.88
324.637
333.541
202.937
205.441
208.966
213.451
218.802
224.893
231.582
238.722
246.177
253.832
261.603
269.437
277.312
285.227
293.199
301.251
309.409
317.697
326.134
334.734
206.64
209.588
213.501
218.312
223.922
230.203
237.008
244.182
251.581
259.086
266.62
274.143
281.653
289.175
296.745
304.402
312.182
320.115
328.221
336.513
209.946
213.289
217.578
222.742
228.675
235.238
242.267
249.586
257.027
264.458
271.8
279.035
286.192
293.327
300.503
307.78
315.202
322.805
330.61
338.628
212.459
216.106
220.708
226.191
232.445
239.319
246.628
254.165
261.729
269.163
276.387
283.404
290.278
297.103
303.968
310.948
318.099
325.455
333.037
340.854
213.902
217.714
222.505
228.199
234.685
241.802
249.351
257.1
264.82
272.333
279.553
286.498
293.258
299.949
306.68
313.532
320.565
327.813
335.296
343.022
214.155
217.962
222.775
228.522
235.084
242.3
249.965
257.843
265.702
273.36
280.728
287.818
294.716
301.534
308.377
315.326
322.44
329.753
337.286
345.048
213.291
216.923
221.599
227.244
233.738
240.92
248.588
256.521
264.507
272.375
280.035
287.476
294.749
301.938
309.127
316.386
323.769
331.312
339.038
346.958
211.597
214.916
219.339
224.79
231.149
238.252
245.904
253.901
262.05
270.194
278.238
286.144
293.927
301.629
309.308
317.015
324.796
332.686
340.707
348.876
209.564
212.479
216.592
221.833
228.074
235.144
242.846
250.978
259.354
267.827
276.29
284.687
293.003
301.249
309.455
317.655
325.883
334.169
342.535
351
207.909
210.373
214.168
219.231
225.419
232.539
240.373
248.709
257.359
266.171
275.035
283.883
292.681
301.419
310.108
318.768
327.42
336.09
344.797
353.56
207.611
209.619
213.116
218.039
224.222
231.435
239.43
247.973
256.871
265.968
275.154
284.355
293.527
302.651
311.724
320.756
329.76
338.753
347.753
356.776
209.872
211.481
214.701
219.474
225.61
232.845
240.904
249.541
258.558
267.801
277.161
286.562
295.959
305.324
314.648
323.93
333.179
342.405
351.621
360.84
215.765
217.095
220.055
224.59
230.512
237.558
245.453
253.956
262.87
272.049
281.383
290.797
300.241
309.682
319.104
328.5
337.871
347.221
356.559
365.894
225.601
226.788
229.497
233.684
239.192
245.8
253.267
261.376
269.946
278.835
287.935
297.169
306.48
315.832
325.201
334.573
343.942
353.306
362.668
372.032
)
;
    }
    coldSide
    {
        type            mixed;
        refValue        uniform 300;
        refGradient     uniform 0;
        valueFraction   uniform 0.991591;
        source          uniform 0;
        value           nonuniform List<scalar> 
400
(
300.011
300.011
300.011
300.011
300.012
300.012
300.012
300.013
300.013
300.013
300.014
300.014
300.015
300.015
300.016
300.016
300.016
300.017
300.017
300.017
300.011
300.011
300.011
300.011
300.011
300.012
300.012
300.012
300.013
300.013
300.013
300.014
300.015
300.015
300.015
300.016
300.016
300.017
300.017