/*--------------------------------*- C++ -*----------------------------------*\
| =========                 |                                                 |
| \\      /  F ield         | OpenFOAM: The Open Source CFD Toolbox           |
|  \\    /   O peration     | Version:  2212                                  |
|   \\  /    A nd           | Website:  www.openfoam.com                      |
|    \\/     M anipulation  |                                                 |
\*---------------------------------------------------------------------------*/
FoamFile
{
    version     2.0;
    format      ascii;
    arch        "LSB;label=32;scalar=64";
    class       volScalarField;
    location    "0";
    object      T;
}
// * * * * * * * * * * * * * * * * * * * * * * * * * * * * * * * * * * * * * //

dimensions      [0 0 0 1 0 0 0];

internalField   nonuniform List<scalar> 
3200
(
316.188
316.124
316.304
316.567
316.313
315.947
316.161
316.077
315.632
315.508
315.351
315.149
314.899
314.607
314.357
314.102
313.589
313.279
313.051
312.705
314.159
314.083
314.218
314.517
314.278
313.92
314.117
314.095
313.696
313.598
313.408
313.261
313.078
312.827
312.599
312.424
311.967
311.625
311.429
311.092
312.097
312.038
312.123
312.397
312.191
311.857
312.067
312.014
311.702
311.657
311.427
311.305
311.257
310.917
310.745
310.695
310.289
309.949
309.756
309.45
309.972
309.953
309.929
310.242
310.041
309.765
309.955
309.913
309.651
309.634
309.396
309.279
309.333
308.983
308.841
308.888
308.513
308.225
308.015
307.836
307.825
307.831
307.717
308.056
307.842
307.662
307.784
307.745
307.548
307.558
307.332
307.25
307.351
307.036
306.932
307.013
306.705
306.447
306.286
306.189
305.619
305.63
305.494
305.809
305.606
305.487
305.583
305.532
305.44
305.434
305.28
305.228
305.291
305.068
304.964
305.044
304.821
304.649
304.528
304.478
303.394
303.405
303.302
303.502
303.385
303.283
303.356
303.323
303.29
303.301
303.176
303.149
303.208
303.068
302.989
303.022
302.933
302.8
302.68
302.709
301.148
301.137
301.119
301.178
301.126
301.102
301.134
301.107
301.107
301.128
301.062
301.06
301.075
301.018
301.003
301.026
300.973
300.954
300.888
300.913
316.867
317.05
317.147
317.247
317.007
316.737
316.833
316.933
316.493
316.456
316.27
315.937
315.599
315.44
315.215
314.913
314.276
314.181
313.768
313.493
314.662
314.836
314.981
315.072
314.83
314.575
314.708
314.805
314.402
314.38
314.199
313.877
313.667
313.493
313.345
313.051
312.501
312.383
312.036
311.844
312.454
312.597
312.718
312.838
312.645
312.422
312.534
312.623
312.219
312.264
312.106
311.781
311.636
311.47
311.419
311.144
310.731
310.564
310.233
310.111
310.222
310.341
310.448
310.572
310.416
310.23
310.338
310.357
310.049
310.116
309.952
309.67
309.566
309.441
309.475
309.202
308.857
308.692
308.387
308.336
307.955
308.072
308.185
308.269
308.152
307.966
308.141
308.104
307.849
307.948
307.778
307.537
307.466
307.411
307.412
307.194
306.966
306.792
306.546
306.549
305.682
305.723
305.855
305.926
305.803
305.714
305.833
305.785
305.601
305.71
305.629
305.404
305.347
305.301
305.325
305.161
304.981
304.848
304.666
304.724
303.425
303.416
303.504
303.585
303.456
303.42
303.517
303.472
303.355
303.478
303.425
303.218
303.184
303.181
303.193
303.092
302.987
302.886
302.807
302.853
301.147
301.153
301.163
301.202
301.151
301.133
301.161
301.15
301.114
301.175
301.141
301.098
301.068
301.065
301.074
301.041
300.983
300.98
300.946
300.964
318.068
318.086
318.305
318.122
318.073
318.135
317.916
317.857
317.85
317.398
317.154
317.124
316.651
316.589
316.095
315.785
315.541
315.157
314.75
314.483
315.713
315.758
315.923
315.817
315.742
315.793
315.617
315.578
315.549
315.191
314.985
314.947
314.558
314.469
314.074
313.777
313.585
313.257
312.886
312.677
313.316
313.385
313.533
313.478
313.402
313.394
313.265
313.219
313.207
312.886
312.784
312.71
312.387
312.303
312.001
311.756
311.576
311.312
310.95
310.842
310.941
311.003
311.133
311.12
311.047
310.986
310.899
310.812
310.841
310.616
310.539
310.453
310.179
310.15
309.904
309.664
309.526
309.306
308.946
308.926
308.543
308.575
308.692
308.696
308.649
308.523
308.504
308.412
308.427
308.29
308.22
308.219
307.938
307.971
307.731
307.559
307.423
307.22
306.932
306.963
306.126
306.147
306.193
306.216
306.204
306.081
306.074
306.014
306.026
305.926
305.89
305.951
305.662
305.724
305.571
305.445
305.284
305.158
304.917
304.999
303.675
303.707
303.741
303.74
303.733
303.616
303.623
303.621
303.599
303.556
303.546
303.612
303.396
303.456
303.366
303.301
303.185
303.125
302.937
303.014
301.219
301.231
301.264
301.259
301.253
301.195
301.209
301.22
301.201
301.179
301.199
301.206
301.134
301.149
301.113
301.116
301.062
301.075
300.981
301.032
319.043
319.078
319.295
319.347
319.37
319.02
319.129
319.046
318.976
318.598
318.432
318.127
318.038
317.652
317.265
316.983
316.631
316.113
315.838
315.444
316.588
316.589
316.772
316.815
316.854
316.588
316.66
316.597
316.499
316.204
316.096
315.854
315.717
315.381
315.091
314.86
314.497
314.112
313.796
313.498
314.121
314.08
314.231
314.305
314.319
314.127
314.168
314.135
313.999
313.804
313.704
313.528
313.408
313.116
312.88
312.675
312.343
312.041
311.739
311.485
311.617
311.589
311.666
311.736
311.772
311.633
311.612
311.614
311.514
311.337
311.253
311.112
310.999
310.809
310.633
310.434
310.136
309.941
309.626
309.441
309.095
309.066
309.134
309.156
309.169
309.116
309.062
309.1
308.942
308.846
308.793
308.652
308.608
308.439
308.305
308.156
307.896
307.79
307.489
307.379
306.57
306.507
306.558
306.556
306.534
306.566
306.496
306.51
306.4
306.366
306.311
306.174
306.171
306.034
305.982
305.842
305.647
305.597
305.356
305.308
303.962
303.909
303.953
303.95
303.931
303.916
303.919
303.913
303.832
303.82
303.818
303.687
303.722
303.66
303.615
303.527
303.351
303.348
303.237
303.199
301.321
301.339
301.317
301.32
301.313
301.315
301.326
301.301
301.284
301.293
301.293
301.232
301.244
301.232
301.201
301.203
301.124
301.115
301.091
301.072
320.134
320.12
320.28
320.459
320.566
320.375
320.342
320.366
320.236
319.822
319.73
319.438
319.269
318.836
318.28
318.138
317.645
317.098
316.965
316.525
317.525
317.525
317.665
317.784
317.906
317.706
317.703
317.694
317.571
317.269
317.227
316.941
316.775
316.437
315.911
315.835
315.318
314.91
314.796
314.437
314.891
314.873
315.02
315.124
315.199
315.05
315.084
315.038
314.901
314.648
314.63
314.355
314.277
313.936
313.559
313.511
312.999
312.736
312.604
312.266
312.237
312.198
312.344
312.347
312.437
312.376
312.407
312.356
312.227
312.045
311.989
311.785
311.754
311.435
311.178
311.096
310.693
310.522
310.348
310.077
309.553
309.53
309.627
309.623
309.686
309.683
309.708
309.651
309.548
309.42
309.32
309.174
309.214
308.936
308.734
308.667
308.362
308.256
308.063
307.892
306.832
306.82
306.839
306.882
306.947
306.912
306.969
306.88
306.854
306.782
306.624
306.546
306.609
306.394
306.249
306.235
306.017
305.931
305.755
305.683
304.097
304.068
304.075
304.156
304.164
304.124
304.197
304.115
304.136
304.098
303.971
303.938
303.989
303.846
303.734
303.771
303.643
303.599
303.447
303.442
301.344
301.362
301.335
301.38
301.398
301.395
301.39
301.372
301.406
301.377
301.33
301.316
301.349
301.289
301.253
301.267
301.233
301.23
301.16
301.135
321.077
321.319
321.54
321.514
321.917
321.716
321.527
321.532
321.297
321.243
320.847
320.718
320.638
320.28
319.525
319.407
318.807
318.285
318.197
317.938
318.289
318.513
318.73
318.71
319.047
318.907
318.717
318.756
318.517
318.472
318.169
318.053
317.988
317.62
317.052
316.954
316.42
315.927
315.861
315.703
315.521
315.692
315.889
315.923
316.17
316.074
315.868
315.941
315.748
315.68
315.449
315.354
315.298
314.937
314.535
314.483
313.938
313.529
313.471
313.367
312.676
312.854
313.027
313.083
313.257
313.215
313.032
313.08
312.975
312.895
312.718
312.634
312.567
312.285
311.961
311.932
311.416
311.112
311.035
310.958
309.866
310.057
310.135
310.204
310.359
310.317
310.177
310.189
310.136
310.046
309.931
309.865
309.834
309.601
309.352
309.327
308.93
308.702
308.574
308.6
307.04
307.202
307.214
307.296
307.43
307.383
307.319
307.279
307.244
307.209
307.103
307.055
307.083
306.889
306.723
306.684
306.441
306.236
306.094
306.149
304.232
304.357
304.329
304.379
304.452
304.415
304.42
304.353
304.392
304.349
304.285
304.236
304.255
304.18
304.049
304.011
303.905
303.75
303.61
303.693
301.411
301.462
301.457
301.487
301.498
301.48
301.476
301.482
301.463
301.45
301.438
301.399
301.404
301.401
301.348
301.356
301.319
301.25
301.219
301.232
322.262
322.304
322.812
322.851
322.961
322.676
322.671
322.761
322.57
322.373
322.134
321.937
321.453
321.403
321.006
320.559
320.205
319.577
319.375
319.117
319.353
319.394
319.787
319.885
319.94
319.696
319.725
319.783
319.606
319.478
319.26
319.108
318.704
318.625
318.299
317.927
317.608
317.039
316.879
316.688
316.436
316.432
316.736
316.879
316.885
316.717
316.763
316.775
316.625
316.532
316.412
316.224
315.899
315.802
315.582
315.235
314.982
314.485
314.327
314.205
313.456
313.465
313.702
313.862
313.85
313.721
313.742
313.788
313.625
313.555
313.484
313.359
313.061
312.952
312.832
312.5
312.313
311.936
311.783
311.673
310.494
310.509
310.67
310.79
310.807
310.68
310.7
310.785
310.612
310.541
310.535
310.435
310.216
310.071
310.042
309.787
309.598
309.343
309.197
309.082
307.494
307.52
307.631
307.749
307.772
307.647
307.673
307.74
307.618
307.542
307.514
307.515
307.331
307.202
307.207
307.042
306.873
306.679
306.592
306.507
304.522
304.549
304.58
304.661
304.669
304.626
304.591
304.64
304.577
304.53
304.503
304.536
304.387
304.336
304.348
304.221
304.104
304.02
303.952
303.939
301.532
301.529
301.561
301.56
301.571
301.546
301.532
301.555
301.514
301.509
301.513
301.524
301.471
301.438
301.461
301.398
301.379
301.338
301.315
301.323
323.33
323.617
323.806
323.839
324.052
324.159
324.109
323.896
323.672
323.769
323.632
323.235
322.992
322.677
322.135
321.8
321.389
320.952
320.214
319.951
320.297
320.536
320.694
320.741
320.874
321.049
320.957
320.772
320.624
320.634
320.561
320.296
320.008
319.758
319.306
318.997
318.619
318.239
317.606
317.39
317.25
317.456
317.552
317.561
317.717
317.845
317.818
317.631
317.519
317.483
317.409
317.251
316.992
316.83
316.426
316.177
315.821
315.5
314.94
314.819
314.15
314.321
314.399
314.386
314.546
314.623
314.589
314.485
314.399
314.339
314.297
314.166
313.985
313.836
313.524
313.309
312.988
312.734
312.293
312.199
311.025
311.147
311.231
311.218
311.365
311.394
311.362
311.315
311.236
311.155
311.117
311.047
310.922
310.781
310.595
310.404
310.115
309.92
309.567
309.55
307.921
307.977
308.041
308.007
308.153
308.159
308.177
308.177
308.053
307.976
307.911
307.869
307.826
307.713
307.638
307.443
307.221
307.149
306.822
306.882
304.765
304.785
304.849
304.839
304.902
304.875
304.926
304.919
304.844
304.809
304.718
304.694
304.704
304.631
304.628
304.486
304.298
304.328
304.051
304.147
301.589
301.592
301.636
301.645
301.639
301.629
301.651
301.655
301.642
301.599
301.579
301.567
301.561
301.556
301.578
301.525
301.437
301.454
301.347
301.398
324.437
324.714
324.819
324.846
325.021
325.379
325.383
325.085
324.834
324.786
324.796
324.432
323.95
323.928
323.464
322.896
322.488
322.067
321.375
321.032
321.257
321.503
321.562
321.556
321.746
322.085
322.073
321.778
321.608
321.543
321.557
321.305
320.883
320.881
320.49
319.94
319.587
319.273
318.643
318.328
318.041
318.245
318.294
318.242
318.429
318.798
318.759
318.514
318.366
318.305
318.279
318.14
317.754
317.771
317.43
316.928
316.647
316.396
315.849
315.59
314.818
314.951
314.974
314.94
315.165
315.435
315.396
315.22
315.075
315.014
314.926
314.947
314.562
314.619
314.311
313.89
313.677
313.503
312.976
312.817
311.604
311.656
311.705
311.614
311.81
312.043
311.998
311.874
311.77
311.694
311.605
311.706
311.355
311.396
311.174
310.839
310.618
310.547
310.13
310.016
308.365
308.368
308.352
308.265
308.486
308.645
308.572
308.48
308.447
308.352
308.263
308.394
308.153
308.182
308.04
307.763
307.592
307.57
307.274
307.159
305.029
305.067
305.011
304.953
305.113
305.189
305.126
305.112
305.082
305.013
304.961
305.067
304.902
304.923
304.815
304.642
304.544
304.553
304.387
304.322
301.68
301.724
301.682
301.651
301.714
301.735
301.705
301.704
301.687
301.685
301.651
301.695
301.62
301.638
301.612
301.545
301.517
301.524
301.49
301.451
325.458
325.638
325.891
326.093
326.15
326.375
326.527
326.404
326.119
326.047
325.775
325.413
325.114
324.916
324.359
324.088
323.517
322.949
322.361
321.931
322.151
322.305
322.487
322.683
322.715
322.935
323.11
322.948
322.744
322.659
322.448
322.096
321.893
321.706
321.22
320.965
320.469
320.001
319.468
319.157
318.796
318.937
319.046
319.256
319.258
319.484
319.645
319.509
319.294
319.231
319.081
318.73
318.593
318.454
318.056
317.795
317.443
317.002
316.547
316.336
315.448
315.559
315.623
315.798
315.781
315.97
316.123
316.012
315.846
315.77
315.671
315.356
315.26
315.153
314.813
314.598
314.345
313.979
313.595
313.463
312.057
312.151
312.197
312.326
312.304
312.396
312.569
312.486
312.327
312.294
312.192
311.983
311.913
311.83
311.55
311.361
311.237
310.931
310.634
310.563
308.619
308.751
308.734
308.82
308.842
308.829
309.026
308.934
308.812
308.809
308.74
308.595
308.551
308.47
308.274
308.093
308.046
307.851
307.607
307.574
305.131
305.264
305.255
305.307
305.332
305.274
305.402
305.354
305.273
305.315
305.263
305.148
305.158
305.105
304.945
304.828
304.83
304.727
304.582
304.585
301.706
301.781
301.777
301.774
301.787
301.76
301.814
301.79
301.763
301.785
301.761
301.711
301.727
301.732
301.65
301.602
301.605
301.582
301.546
301.552
326.343
326.908
327.241
327.301
327.3
327.659
327.596
327.499
327.155
327.205
327.148
326.633
326.225
326.294
325.554
325.413
324.742
324.09
323.495
322.993
322.927
323.385
323.633
323.714
323.761
324.086
324.008
323.86
323.606
323.68
323.649
323.166
322.837
322.919
322.267
322.112
321.576
321
320.498
320.03
319.455
319.861
319.961
320.094
320.149
320.497
320.372
320.251
320.017
320.045
320.095
319.667
319.429
319.446
318.896
318.79
318.362
317.862
317.412
317.011
315.964
316.29
316.295
316.491
316.496
316.833
316.726
316.618
316.434
316.451
316.502
316.136
315.977
315.933
315.524
315.452
315.123
314.708
314.31
313.946
312.465
312.706
312.658
312.913
312.856
313.131
313.042
312.949
312.795
312.804
312.891
312.562
312.493
312.369
312.158
312.066
311.85
311.501
311.133
310.878
308.93
309.095
309.018
309.243
309.221
309.385
309.382
309.229
309.173
309.135
309.253
309.004
308.977
308.825
308.714
308.651
308.501
308.241
307.945
307.763
305.404
305.469
305.416
305.555
305.526
305.67
305.633
305.56
305.541
305.504
305.58
305.426
305.451
305.299
305.24
305.19
305.118
304.985
304.782
304.682
301.812
301.839
301.811
301.869
301.856
301.907
301.888
301.886
301.886
301.862
301.906
301.827
301.838
301.779
301.752
301.75
301.704
301.664
301.593
301.567
327.176
327.654
327.906
328.47
328.348
328.714
328.769
328.496
328.409
328.204
328.045
327.875
327.541
327.128
326.713
326.279
325.866
325.134
324.685
323.996
323.682
324.043
324.243
324.776
324.606
324.991
325.015
324.804
324.713
324.547
324.413
324.279
323.956
323.601
323.205
322.9
322.511
321.967
321.492
320.924
320.148
320.365
320.576
321.027
320.901
321.232
321.262
321.076
320.956
320.85
320.735
320.616
320.334
320.024
319.734
319.452
319.085
318.713
318.201
317.793
316.539
316.678
316.869
317.237
317.176
317.435
317.47
317.327
317.19
317.11
317.054
316.937
316.686
316.435
316.178
315.965
315.657
315.375
314.911
314.599
312.883
312.95
313.132
313.407
313.378
313.571
313.647
313.542
313.403
313.312
313.277
313.254
313.051
312.85
312.578
312.404
312.198
311.991
311.578
311.379
309.202
309.257
309.4
309.591
309.595
309.688
309.801
309.679
309.609
309.537
309.501
309.492
309.309
309.216
309.013
308.869
308.747
308.57
308.27
308.125
305.518
305.588
305.626
305.744
305.745
305.836
305.878
305.83
305.796
305.756
305.718
305.669
305.556
305.514
305.403
305.299
305.229
305.154
304.96
304.869
301.849
301.887
301.89
301.92
301.911
301.974
301.978
301.953
301.948
301.942
301.945
301.909
301.857
301.856
301.82
301.778
301.74
301.713
301.664
301.634
328.095
328.645
328.828
329.3
329.492
329.706
329.684
329.611
329.51
329.059
329.208
329.007
328.668
328.298
327.733
327.533
326.925
326.234
325.635
325.295
324.416
324.931
325.049
325.508
325.618
325.811
325.824
325.792
325.697
325.268
325.385
325.261
324.943
324.661
324.14
323.975
323.454
322.836
322.291
322.045
320.707
321.162
321.24
321.646
321.762
321.895
321.894
321.883
321.806
321.431
321.562
321.473
321.196
320.935
320.524
320.369
319.931
319.402
318.923
318.722
316.986
317.349
317.421
317.77
317.883
317.928
317.994
317.914
317.89
317.579
317.719
317.611
317.367
317.165
316.831
316.707
316.346
315.887
315.543
315.386
313.237
313.533
313.564
313.858
313.929
313.921
314.033
313.944
313.964
313.701
313.847
313.749
313.547
313.381
313.138
313.028
312.737
312.335
312.157
312.038
309.501
309.692
309.687
309.922
309.955
309.934
310.037
309.951
309.983
309.802
309.925
309.872
309.68
309.574
309.396
309.328
309.102
308.809
308.699
308.628
305.719
305.86
305.821
305.954
305.968
305.962
306.036
305.982
305.977
305.896
305.975
305.94
305.853
305.747
305.628
305.599
305.442
305.274
305.268
305.2
301.929
301.968
301.956
301.999
301.992
302.001
302.017
301.99
302.018
301.982
302.002
301.978
301.969
301.927
301.875
301.867
301.82
301.767
301.798
301.743
328.994
329.448
329.711
330.009
330.45
330.603
330.651
330.729
330.533
330.347
330.351
329.902
329.657
329.186
328.646
328.319
327.755
327.018
326.483
325.903
325.223
325.591
325.798
326.106
326.458
326.597
326.658
326.688
326.566
326.43
326.359
326.003
325.802
325.406
324.915
324.643
324.196
323.552
323.042
322.578
321.396
321.737
321.867
322.128
322.433
322.532
322.622
322.616
322.56
322.472
322.352
322.11
321.893
321.597
321.167
320.905
320.575
320.014
319.537
319.205
317.524
317.816
317.914
318.168
318.379
318.474
318.557
318.502
318.503
318.446
318.33
318.175
317.948
317.736
317.361
317.193
316.905
316.431
316.016
315.786
313.617
313.909
314.011
314.222
314.315
314.383
314.459
314.409
314.416
314.404
314.273
314.194
313.979
313.832
313.57
313.413
313.181
312.793
312.509
312.34
309.721
309.961
310.044
310.177
310.207
310.314
310.331
310.33
310.306
310.308
310.2
310.156
310.011
309.906
309.758
309.599
309.449
309.19
308.968
308.844
305.878
306.016
306.06
306.132
306.118
306.184
306.207
306.241
306.198
306.169
306.113
306.096
306.031
305.954
305.879
305.786
305.674
305.518
305.382
305.316
301.97
302.022
302.018
302.033
302.044
302.075
302.089
302.086
302.107
302.064
302.043
302.056
302.008
301.978
301.991
301.938
301.9
301.849
301.808
301.788
329.85
330.413
330.721
330.752
331.434
331.457
331.618
331.654
331.583
331.282
331.337
330.875
330.506
330.037
329.664
329.21
328.616
327.86
327.256
326.791
325.995
326.438
326.699
326.721
327.311
327.33
327.518
327.499
327.468
327.203
327.253
326.876
326.515
326.13
325.798
325.399
324.888
324.258
323.655
323.321
322.077
322.404
322.61
322.654
323.168
323.151
323.387
323.364
323.277
323.117
323.127
322.817
322.49
322.208
321.908
321.506
321.151
320.614
320.037
319.811
318.124
318.323
318.515
318.552
319.011
318.988
319.189
319.148
319.092
318.997
318.947
318.723
318.451
318.257
317.983
317.616
317.351
316.968
316.407
316.221
314.105
314.27
314.415
314.453
314.808
314.837
314.96
314.908
314.896
314.79
314.733
314.576
314.388
314.258
314.044
313.693
313.498
313.241
312.785
312.583
310.077
310.172
310.335
310.344
310.587
310.628
310.699
310.686
310.675
310.582
310.501
310.42
310.308
310.213
310.089
309.783
309.642
309.478
309.133
308.947
306.05
306.114
306.252
306.178
306.338
306.38
306.459
306.411
306.461
306.347
306.277
306.299
306.193
306.101
306.077
305.894
305.813
305.701
305.47
305.395
302.034
302.04
302.12
302.068
302.122
302.135
302.18
302.147
302.175
302.118
302.106
302.105
302.065
302.057
302.047
301.976
301.943
301.914
301.835
301.809
330.673
331.055
331.192
331.695
332.114
332.374
332.436
332.393
332.338
332.347
332.02
331.96
331.552
331.145
330.57
330.127
329.692
328.953
328.174
327.69
326.714
326.996
327.025
327.568
327.93
328.098
328.147
328.114
328.141
328.135
327.855
327.798
327.469
327.107
326.589
326.193
325.885
325.166
324.514
324.141
322.69
322.9
322.838
323.389
323.728
323.823
323.817
323.834
323.918
323.884
323.623
323.577
323.346
322.991
322.559
322.232
322.018
321.363
320.827
320.476
318.618
318.771
318.725
319.176
319.49
319.56
319.474
319.57
319.631
319.601
319.361
319.33
319.152
318.835
318.491
318.215
318.094
317.559
317.091
316.77
314.524
314.655
314.633
314.936
315.221
315.275
315.143
315.258
315.292
315.295
315.08
315.011
314.953
314.657
314.437
314.196
314.12
313.695
313.326
313.108
310.39
310.507
310.525
310.684
310.918
310.924
310.82
310.926
310.937
310.93
310.806
310.681
310.724
310.448
310.359
310.172
310.12
309.784
309.585
309.406
306.273
306.333
306.363
306.412
306.585
306.539
306.525
306.545
306.577
306.511
306.496
306.413
306.48
306.296
306.229
306.107
306.112
305.864
305.77
305.646
302.118
302.106
302.153
302.157
302.215
302.194
302.18
302.19
302.215
302.178
302.163
302.142
302.178
302.102
302.092
302.038
302.053
301.96
301.935
301.887
331.353
331.759
331.808
332.408
333.072
333.203
333.205
333.173
333.318
333.13
333.103
332.804
332.377
331.965
331.444
330.926
330.375
329.71
329.07
328.353
327.278
327.57
327.619
328.161
328.721
328.854
328.805
328.822
328.98
328.817
328.803
328.538
328.182
327.829
327.354
326.895
326.436
325.868
325.335
324.705
323.118
323.367
323.443
323.891
324.354
324.536
324.391
324.431
324.601
324.466
324.436
324.246
323.893
323.607
323.252
322.754
322.511
321.968
321.565
320.958
318.968
319.148
319.227
319.591
319.931
320.174
319.997
320.016
320.183
320.107
319.998
319.901
319.623
319.361
319.107
318.641
318.464
318.046
317.725
317.183
314.768
314.922
314.953
315.276
315.527
315.758
315.59
315.604
315.69
315.674
315.556
315.495
315.305
315.08
314.889
314.52
314.403
314.085
313.798
313.367
310.54
310.653
310.665
310.928
311.062
311.23
311.162
311.166
311.237
311.206
311.115
311.053
310.983
310.798
310.654
310.383
310.343
310.113
309.875
309.551
306.329
306.419
306.412
306.545
306.622
306.744
306.702
306.692
306.753
306.71
306.672
306.628
306.602
306.492
306.451
306.232
306.23
306.076
305.937
305.728
302.127
302.191
302.152
302.196
302.214
302.259
302.254
302.233
302.275
302.249
302.224
302.219
302.198
302.159
302.173
302.086
302.085
302.066
301.99
301.927
331.768
332.271
332.675
333.279
333.609
334.028
333.874
334.052
333.919
333.931
333.931
333.548
333.214
332.657
332.57
331.761
331.083
330.37
329.557
329.021
327.59
327.986
328.401
328.938
329.219
329.562
329.41
329.584
329.459
329.521
329.541
329.155
328.897
328.394
328.295
327.609
326.997
326.421
325.77
325.266
323.395
323.759
324.048
324.54
324.82
325.058
324.958
325.074
324.985
325.06
325.106
324.714
324.513
324.09
324.009
323.386
322.915
322.461
321.887
321.493
319.174
319.486
319.657
320.119
320.391
320.555
320.453
320.555
320.456
320.586
320.581
320.224
320.113
319.747
319.707
319.151
318.791
318.421
317.999
317.66
314.913
315.176
315.283
315.659
315.865
316.035
315.963
316.015
315.933
316.048
316.029
315.75
315.682
315.406
315.382
314.927
314.65
314.378
314.004
313.762
310.62
310.841
310.92
311.161
311.327
311.489
311.453
311.47
311.398
311.448
311.459
311.252
311.179
311.018
311.014
310.649
310.487
310.289
310.038
309.88
306.373
306.543
306.567
306.724
306.828
306.915
306.861
306.896
306.875
306.867
306.906
306.747
306.681
306.616
306.624
306.403
306.326
306.199
306.028
305.967
302.12
302.202
302.207
302.263
302.319
302.332
302.315
302.328
302.308
302.288
302.332
302.272
302.237
302.215
302.229
302.162
302.13
302.072
302.025
302.007
332.187
332.681
333.157
333.848
334.165
334.548
334.462
334.508
334.69
334.628
334.439
334.111
333.628
333.27
333.04
332.134
331.631
330.871
330.286
329.806
327.983
328.39
328.791
329.423
329.687
330.015
329.946
329.954
330.211
330.119
329.935
329.671
329.23
328.913
328.735
327.98
327.529
326.875
326.343
325.918
323.692
324.09
324.387
324.906
325.156
325.433
325.382
325.399
325.646
325.602
325.431
325.156
324.763
324.547
324.395
323.744
323.355
322.848
322.404
321.946
319.416
319.773
319.939
320.404
320.579
320.831
320.784
320.792
321.024
320.969
320.887
320.606
320.284
320.135
320.063
319.496
319.098
318.77
318.443
318.001
315.111
315.414
315.478
315.874
315.976
316.199
316.154
316.197
316.359
316.32
316.234
316.004
315.775
315.698
315.635
315.269
314.869
314.639
314.432
314.034
310.808
311.004
311.069
311.353
311.425
311.579
311.559
311.579
311.704
311.622
311.615
311.437
311.277
311.247
311.185
310.959
310.603
310.488
310.355
310.072
306.505
306.612
306.641
306.87
306.881
306.986
306.957
306.923
307.056
306.965
306.987
306.883
306.772
306.791
306.711
306.598
306.35
306.298
306.234
306.024
302.186
302.231
302.23
302.301
302.306
302.338
302.339
302.321
302.371
302.335
302.336
302.298
302.269
302.27
302.241
302.226
302.129
302.095
302.099
301.998
332.569
332.951
333.753
334.055
334.411
334.574
334.791
334.782
335.073
335.174
334.684
334.293
334.221
333.787
333.38
332.629
332.033
331.443
330.704
330.137
328.253
328.589
329.309
329.549
329.873
329.968
330.24
330.156
330.48
330.59
330.106
329.79
329.74
329.359
328.996
328.36
327.811
327.358
326.717
326.168
323.876
324.216
324.815
325.003
325.29
325.389
325.677
325.509
325.857
325.956
325.524
325.256
325.231
324.912
324.594
324.008
323.581
323.196
322.698
322.178
319.515
319.826
320.291
320.457
320.676
320.801
321.063
320.865
321.18
321.289
320.94
320.728
320.7
320.419
320.184
319.699
319.235
319.074
318.615
318.158
315.206
315.482
315.786
315.942
316.052
316.178
316.394
316.226
316.5
316.552
316.414
316.151
316.14
315.872
315.74
315.387
314.93
314.881
314.529
314.121
310.854
311.117
311.248
311.423
311.425
311.571
311.684
311.603
311.806
311.815
311.763
311.533
311.539
311.377
311.276
311.019
310.679
310.643
310.396
310.121
306.514
306.694
306.737
306.869
306.844
306.919
307.002
307.012
307.104
307.107
307.076
306.93
306.934
306.815
306.769
306.63
306.458
306.438
306.227
306.087
302.177
302.247
302.271
302.314
302.295
302.308
302.34
302.375
302.388
302.387
302.36
302.312
302.329
302.279
302.257
302.217
302.183
302.158
302.102
302.044
)
;

boundaryField
{
    hotSide
    {
        type            fixedGradient;
        gradient        nonuniform List<scalar> 
400
(
160.6
172.148
183.777
195.435
207.07
218.628
230.052
241.287
252.277
262.966
273.299
283.223
292.687
301.64
310.035
317.83
324.983
331.459
337.224
342.251
161.02
172.881
184.833
196.823
208.798
220.701
232.475
244.062
255.405
266.446
277.128
287.397
297.198
306.481
315.196
323.299
330.748
337.504
343.533
348.807
160.909
173.051
185.295
197.586
209.87
222.087
234.181
246.091
257.758
269.123
280.128
290.715
300.83
310.42
319.435
327.827
335.553
342.573
348.853
354.363
160.304
172.695
185.197
197.756
210.314
222.814
235.194
247.395
259.354
271.013
282.311
293.189
303.592
313.463
322.753
331.412
339.395
346.663
353.177
358.908
159.25
171.854
184.58
197.371
210.169
222.915
235.547
248.004
260.223
272.143
283.702
294.84
305.5
315.625
325.164
334.065
342.283
349.776
356.507
362.443
157.793
170.575
183.488
196.475
209.476
222.432
235.279
247.956
260.398
272.544
284.329
295.695
306.58
316.929
326.687
335.803
344.231
351.927
358.852
364.974
155.986
168.909
181.971
195.115
208.281
221.408
234.432
247.291
259.919
272.252
284.229
295.786
306.863
317.402
327.349
336.651
345.261
353.134
360.231
366.517
153.878
166.904
180.077
193.34
206.631
219.889
233.051
246.052
258.826
271.31
283.439
295.15
306.383
317.079
327.181
336.638
345.4
353.422
360.665
367.093
151.52
164.611
177.857
191.198
204.574
217.923
231.181
244.283
257.164
269.757
282
293.827
305.178
315.994
326.217
335.795
344.677
352.82
360.181
366.726
148.959
162.077
175.355
188.735
202.155
215.554
228.867
242.029
254.974
267.636
279.951
291.855
303.286
314.184
324.492
334.156
343.127
351.358
358.81
365.444
146.239
159.345
172.616
185.994
199.418
212.825
226.15
239.33
252.297
264.986
277.333
289.273
300.743
311.685
322.041
331.756
340.781
349.07
356.581
363.277
143.397
156.453
169.678
183.014
196.399
209.772
223.069
236.223
249.171
261.845
274.181
286.116
297.586
308.533
318.898
328.628
337.673
345.986
353.526
360.256
140.465
153.434
166.573
179.826
193.133
206.43
219.655
232.743
245.628
258.245
270.53
282.418
293.848
304.76
315.097
324.805
333.834
342.138
349.676
356.411
137.468
150.311
163.327
176.458
189.645
202.826
215.938
228.917
241.698
254.216
266.407
278.208
289.557
300.396
310.666
320.316
329.295
337.557
345.062
351.772
134.423
147.105
159.959
172.93
185.958
198.982
211.941
224.77
237.405
249.783
261.84
273.513
284.743
295.469
305.636
315.191
324.085
332.272
339.712
346.369
131.342
143.827
156.483
169.256
182.086
194.915
207.68
220.319
232.769
244.966
256.849
268.356
279.427
290.003
300.03
309.455
318.23
326.311
333.656
340.231
128.229
140.483
152.906
165.444
178.04
190.634
203.168
215.578
227.804
239.783
251.454
262.756
273.63
284.021
293.872
303.134
311.758
319.701
326.922
333.388
125.084
137.074
149.23
161.498
173.824
186.149
198.414
210.559
222.523
234.247
245.669
256.73
267.373
277.543
287.185
296.251
304.693
312.468
319.538
325.868
121.9
133.595
145.452
157.418
169.44
181.461
193.423
205.267
216.936
228.369
239.507
250.294
260.673
270.589
279.991
288.83
297.061
304.641
311.533
317.704
118.668
130.039
141.567
153.2
164.887
176.571
188.198
199.71
211.05
222.16
232.983
243.464
253.547
263.179
272.312
280.896
288.889
296.249
302.939
308.928
)
;
    }
    coldSide
    {
        type            mixed;
        refValue        uniform 300;
        refGradient     uniform 0;
        valueFraction   uniform 0.991591;
        source          uniform 0;
        value           nonuniform List<scalar> 
400
(
300.01
300.01
300.01
300.011
300.011
300.012
300.013
300.013
300.014
300.014
300.015
300.016
300.016
300.017
300.017
300.018
300.018
300.018
300.018
300.018
300.01
300.01
300.01
300.011
300.011
300.012
300.013
300.013
300.015
300.015
300.015
300.016
300.017
300.017
300.017
300.018
300.018