/*--------------------------------*- C++ -*----------------------------------*\
| =========                 |                                                 |
| \\      /  F ield         | OpenFOAM: The Open Source CFD Toolbox           |
|  \\    /   O peration     | Version:  2212                                  |
|   \\  /    A nd           | Website:  www.openfoam.com                      |
|    \\/     M anipulation  |                                                 |
\*---------------------------------------------------------------------------*/
FoamFile
{
    version     2.0;
    format      ascii;
    arch        "LSB;label=32;scalar=64";
    class       volScalarField;
    location    "0";
    object      T;
}
// * * * * * * * * * * * * * * * * * * * * * * * * * * * * * * * * * * * * * //

dimensions      [0 0 0 1 0 0 0];

internalField   nonuniform List<scalar> 
3200
(
340.909
341.721
342.759
343.558
344.325
345.013
345.209
345.865
346.147
346.206
346.404
346.067
345.763
345.388
345.088
344.144
343.188
342.46
341.558
340.636
335.605
336.247
337.184
337.907
338.56
339.204
339.343
339.946
340.186
340.253
340.365
340.077
339.815
339.432
339.281
338.399
337.563
336.954
336.228
335.416
330.212
330.724
331.581
332.181
332.725
333.295
333.435
333.95
334.108
334.186
334.258
334.015
333.803
333.43
333.396
332.569
331.854
331.409
330.837
330.099
324.838
325.216
325.931
326.405
326.847
327.285
327.465
327.864
327.942
328.039
328.089
327.897
327.749
327.378
327.405
326.733
326.137
325.764
325.35
324.729
319.405
319.674
320.228
320.607
320.949
321.295
321.454
321.758
321.769
321.847
321.871
321.724
321.658
321.356
321.391
320.82
320.386
320.109
319.787
319.316
313.931
314.099
314.471
314.775
314.986
315.301
315.363
315.561
315.526
315.641
315.635
315.493
315.483
315.288
315.318
314.9
314.604
314.392
314.197
313.834
308.388
308.49
308.68
308.912
309.015
309.237
309.255
309.347
309.273
309.411
309.394
309.307
309.332
309.194
309.236
308.968
308.762
308.628
308.56
308.336
302.825
302.865
302.916
302.995
303.026
303.119
303.12
303.14
303.125
303.147
303.123
303.142
303.128
303.082
303.106
302.999
302.941
302.887
302.86
302.82
341.66
342.548
343.619
344.361
345.303
345.758
346.401
346.735
346.964
347.17
346.985
346.891
346.514
346.245
345.521
344.934
343.973
343.3
342.335
341.278
336.245
337.007
337.952
338.534
339.377
339.765
340.374
340.617
340.809
340.977
340.841
340.801
340.415
340.207
339.643
339.054
338.212
337.698
336.847
335.91
330.764
331.402
332.232
332.662
333.414
333.708
334.268
334.455
334.596
334.75
334.646
334.581
334.279
334.102
333.649
333.139
332.422
332.039
331.26
330.547
325.246
325.754
326.453
326.801
327.39
327.624
328.117
328.261
328.346
328.495
328.42
328.331
328.086
327.972
327.585
327.163
326.59
326.289
325.675
325.13
319.718
320.083
320.63
320.882
321.328
321.502
321.921
322.034
322.068
322.167
322.136
322.036
321.881
321.819
321.486
321.171
320.719
320.5
320.011
319.69
314.156
314.392
314.78
314.912
315.265
315.37
315.69
315.789
315.74
315.882
315.837
315.773
315.673
315.638
315.38
315.139
314.795
314.686
314.318
314.141
308.517
308.65
308.926
308.984
309.186
309.226
309.432
309.484
309.416
309.54
309.5
309.512
309.407
309.412
309.235
309.089
308.853
308.858
308.559
308.48
302.871
302.908
303.01
303.017
303.086
303.099
303.168
303.178
303.143
303.2
303.184
303.212
303.16
303.155
303.082
303.055
302.971
302.972
302.856
302.841
342.642
343.485
344.626
345.378
346.124
346.808
347.348
347.721
348.108
348.231
348.035
347.951
347.676
347.235
346.753
345.933
345.158
344.195
343.294
342.262
337.083
337.791
338.795
339.425
340.07
340.676
341.138
341.494
341.762
341.924
341.756
341.699
341.447
341.086
340.655
339.911
339.247
338.426
337.612
336.746
331.472
332.024
332.895
333.469
333.997
334.471
334.914
335.206
335.388
335.544
335.431
335.389
335.1
334.843
334.475
333.821
333.269
332.624
331.911
331.184
325.854
326.275
326.968
327.451
327.879
328.224
328.565
328.839
329.021
329.115
329.112
328.982
328.768
328.616
328.255
327.748
327.28
326.77
326.139
325.589
320.153
320.481
321.032
321.377
321.673
321.953
322.191
322.442
322.615
322.677
322.7
322.615
322.393
322.331
322.022
321.636
321.236
320.858
320.367
319.965
314.441
314.692
315.11
315.266
315.479
315.707
315.833
316.075
316.174
316.201
316.224
316.181
315.996
315.974
315.774
315.503
315.175
314.907
314.568
314.33
308.683
308.842
309.141
309.178
309.295
309.444
309.504
309.67
309.72
309.713
309.749
309.746
309.598
309.603
309.491
309.347
309.077
308.98
308.739
308.627
302.931
302.976
303.079
303.084
303.125
303.167
303.181
303.239
303.256
303.251
303.278
303.268
303.22
303.225
303.173
303.147
303.054
303.03
302.903
302.873
343.535
344.365
345.723
346.416
347.145
347.775
348.523
348.619
349.171
348.994
349.365
349.17
348.76
348.394
347.591
346.945
346.089
345.236
344.275
343.251
337.861
338.54
339.754
340.318
340.937
341.476
342.213
342.241
342.716
342.535
342.868
342.717
342.353
342.051
341.331
340.785
340.092
339.323
338.513
337.644
332.145
332.688
333.739
334.185
334.742
335.164
335.789
335.814
336.205
336.063
336.357
336.245
335.906
335.681
335.067
334.581
334.055
333.394
332.748
331.929
326.423
326.825
327.683
327.977
328.467
328.779
329.314
329.337
329.653
329.522
329.778
329.767
329.412
329.282
328.758
328.344
327.962
327.399
326.921
326.226
320.623
320.91
321.578
321.761
322.171
322.392
322.869
322.873
323.087
323.004
323.172
323.219
322.925
322.828
322.45
322.07
321.834
321.382
321.005
320.466
314.771
314.967
315.459
315.556
315.819
316.002
316.397
316.371
316.494
316.435
316.576
316.63
316.392
316.306
316.082
315.779
315.649
315.283
315.053
314.672
308.903
308.997
309.264
309.337
309.5
309.589
309.892
309.854
309.891
309.905
309.942
310.019
309.842
309.819
309.692
309.491
309.42
309.194
309.057
308.85
302.978
303.012
303.09
303.13
303.17
303.215
303.331
303.298
303.313
303.337
303.354
303.365
303.278
303.285
303.243
303.175
303.167
303.091
303.039
302.953
344.629
345.608
346.695
347.201
348.147
348.796
349.514
349.806
349.939
350.248
350.369
350.25
349.813
349.376
348.739
347.992
347.199
346.267
345.256
344.335
338.82
339.618
340.588
340.96
341.792
342.34
343
343.241
343.404
343.638
343.776
343.63
343.268
342.918
342.333
341.733
341.033
340.213
339.358
338.562
332.96
333.536
334.427
334.688
335.404
335.868
336.491
336.64
336.788
336.998
337.132
336.942
336.69
336.43
335.94
335.391
334.796
334.12
333.413
332.711
327.031
327.467
328.22
328.418
329.026
329.329
329.89
329.986
330.147
330.305
330.459
330.287
330.067
329.859
329.473
329
328.538
327.959
327.399
326.806
321.035
321.368
321.969
322.142
322.614
322.833
323.293
323.334
323.542
323.574
323.742
323.586
323.411
323.262
322.98
322.574
322.259
321.8
321.374
320.906
315.031
315.28
315.691
315.836
316.203
316.31
316.643
316.635
316.861
316.857
316.994
316.834
316.72
316.633
316.438
316.127
315.939
315.613
315.302
314.988
309.04
309.181
309.406
309.508
309.722
309.778
309.985
309.98
310.171
310.136
310.236
310.078
310.046
309.995
309.86
309.708
309.578
309.389
309.177
309.019
303.014
303.098
303.153
303.175
303.265
303.272
303.344
303.343
303.434
303.389
303.436
303.375
303.362
303.352
303.307
303.246
303.224
303.137
303.071
303.027
345.387
346.474
347.515
348.258
349.283
349.907
350.537
350.832
351.332
351.4
351.345
351.236
350.867
350.484
349.91
349.039
348.153
347.103
346.203
345.294
339.464
340.353
341.28
341.916
342.792
343.372
343.887
344.126
344.676
344.67
344.616
344.522
344.162
343.875
343.343
342.592
341.856
340.892
340.168
339.429
333.466
334.183
335.014
335.555
336.256
336.785
337.205
337.42
337.9
337.859
337.849
337.72
337.412
337.236
336.799
336.104
335.522
334.723
334.079
333.461
327.434
327.993
328.715
329.121
329.693
330.146
330.488
330.67
331.08
331.025
331.048
330.901
330.629
330.538
330.195
329.598
329.188
328.537
327.871
327.437
321.394
321.789
322.413
322.666
323.111
323.516
323.755
323.892
324.267
324.169
324.188
324.123
323.795
323.795
323.571
323.045
322.773
322.298
321.679
321.397
315.298
315.589
316.043
316.209
316.513
316.825
317.02
317.082
317.384
317.32
317.339
317.322
317.024
317.001
316.87
316.473
316.318
316.009
315.478
315.339
309.189
309.37
309.635
309.725
309.901
310.118
310.216
310.265
310.469
310.431
310.421
310.417
310.227
310.223
310.168
309.895
309.83
309.642
309.333
309.215
303.076
303.147
303.225
303.242
303.32
303.406
303.43
303.444
303.513
303.512
303.472
303.501
303.424
303.434
303.418
303.32
303.285
303.234
303.152
303.076
346.288
347.35
348.392
349.088
350.163
351.289
351.561
351.749
352.262
352.361
352.346
352.231
352.005
351.365
350.717
350.064
349.296
348.068
346.917
346.237
340.238
341.126
341.998
342.658
343.554
344.563
344.743
344.903
345.386
345.507
345.445
345.397
345.186
344.634
344.097
343.494
342.829
341.781
340.808
340.22
334.142
334.88
335.623
336.179
336.962
337.758
337.906
338.081
338.458
338.595
338.557
338.508
338.296
337.879
337.435
336.91
336.336
335.456
334.607
334.17
328.089
328.577
329.198
329.666
330.316
330.963
331.062
331.212
331.537
331.652
331.58
331.601
331.386
331.067
330.724
330.281
329.836
329.05
328.383
328.046
321.914
322.299
322.772
323.171
323.632
324.136
324.191
324.34
324.557
324.626
324.595
324.633
324.463
324.177
323.948
323.623
323.275
322.617
322.15
321.89
315.692
315.916
316.342
316.644
316.891
317.275
317.323
317.39
317.577
317.603
317.605
317.596
317.488
317.283
317.14
316.908
316.625
316.18
315.894
315.666
309.399
309.538
309.814
310.044
310.201
310.376
310.429
310.458
310.559
310.588
310.579
310.562
310.508
310.375
310.31
310.18
309.975
309.756
309.582
309.464
303.14
303.208
303.277
303.363
303.431
303.459
303.513
303.502
303.543
303.548
303.549
303.549
303.506
303.485
303.461
303.415
303.349
303.278
303.217
303.185
347.054
348.226
349.319
350.071
351.112
352.217
352.489
352.86
353.155
353.254
353.265
353.107
352.917
352.235
351.578
350.905
350.187
348.823
347.693
346.755
340.9
341.916
342.862
343.5
344.4
345.361
345.606
345.885
346.125
346.288
346.324
346.158
345.96
345.385
344.815
344.237
343.557
342.406
341.465
340.671
334.73
335.535
336.388
336.907
337.661
338.487
338.656
338.889
339.11
339.286
339.296
339.136
338.925
338.466
338.054
337.558
336.891
335.963
335.158
334.505
328.532
329.123
329.84
330.283
330.896
331.562
331.658
331.881
332.016
332.234
332.242
332.067
331.894
331.556
331.232
330.812
330.226
329.513
328.858
328.303
322.26
322.679
323.265
323.603
324.046
324.603
324.66
324.805
324.895
325.118
325.141
324.987
324.884
324.548
324.341
324.052
323.542
322.993
322.508
322.077
315.923
316.224
316.636
316.888
317.168
317.593
317.666
317.723
317.782
317.972
317.97
317.898
317.789
317.563
317.4
317.216
316.85
316.481
316.125
315.813
309.6
309.756
309.99
310.146
310.349
310.57
310.626
310.631
310.686
310.795
310.783
310.758
310.677
310.535
310.446
310.372
310.128
309.906
309.676
309.514
303.218
303.285
303.364
303.397
303.462
303.533
303.56
303.572
303.57
303.606
303.61
303.625
303.584
303.524
303.511
303.492
303.397
303.327
303.233
303.187
348.136
348.95
350.085
351.135
352.157
352.811
353.23
353.73
354.015
354.283
354.126
353.873
353.759
353.225
352.481
351.791
350.956
349.828
348.537
347.575
341.861
342.54
343.512
344.387
345.3
345.874
346.186
346.666
346.919
347.157
347.022
346.796
346.676
346.26
345.581
345.019
344.271
343.299
342.193
341.412
335.481
336.07
336.889
337.641
338.366
338.886
339.135
339.518
339.762
339.974
339.903
339.7
339.531
339.235
338.686
338.142
337.528
336.72
335.78
335.176
329.078
329.553
330.258
330.884
331.403
331.857
332.055
332.345
332.598
332.761
332.705
332.547
332.366
332.17
331.715
331.257
330.776
330.094
329.332
328.818
322.586
322.974
323.549
324.081
324.466
324.825
324.979
325.19
325.406
325.532
325.429
325.379
325.181
325.058
324.723
324.374
324.007
323.441
322.848
322.452
316.111
316.393
316.818
317.229
317.512
317.79
317.883
318.042
318.138
318.268
318.159
318.178
317.999
317.929
317.687
317.428
317.154
316.765
316.344
316.061
309.667
309.832
310.114
310.337
310.571
310.712
310.753
310.884
310.895
310.975
310.905
310.922
310.804
310.753
310.609
310.451
310.293
310.067
309.812
309.667
303.223
303.306
303.381
303.468
303.538
303.595
303.599
303.651
303.649
303.686
303.654
303.688
303.621
303.624
303.559
303.486
303.462
303.376
303.282
303.238
348.643
349.617
350.966
351.749
352.711
353.369
354.022
354.441
354.992
355.252
354.886
354.773
354.58
353.9
353.252
352.588
351.557
350.508
349.379
348.208
342.29
343.066
344.311
344.952
345.727
346.333
346.916
347.314
347.779
348.022
347.694
347.583
347.448
346.82
346.266
345.676
344.779
343.9
342.958
341.953
335.859
336.483
337.592
338.137
338.692
339.275
339.764
340.117
340.52
340.688
340.47
340.35
340.245
339.675
339.225
338.744
337.967
337.253
336.45
335.61
329.367
329.872
330.824
331.252
331.692
332.161
332.628
332.889
333.222
333.285
333.169
333.1
333.01
332.51
332.104
331.766
331.15
330.561
329.881
329.194
322.909
323.243
324.023
324.319
324.675
325.046
325.424
325.67
325.871
325.899
325.817
325.83
325.7
325.302
325.019
324.729
324.283
323.822
323.328
322.705
316.413
316.589
317.198
317.412
317.648
317.946
318.19
318.37
318.495
318.5
318.459
318.505
318.366
318.094
317.887
317.706
317.372
317.039
316.74
316.231
309.872
309.973
310.317
310.489
310.598
310.813
310.933
311.043
311.084
311.098
311.133
311.105
311.01
310.891
310.744
310.627
310.394
310.241
310.084
309.775
303.313
303.363
303.485
303.51
303.544
303.62
303.655
303.714
303.722
303.72
303.731
303.739
303.685
303.663
303.597
303.561
303.475
303.443
303.372
303.281
349.252
350.275
351.498
352.436
353.145
353.94
354.767
355.157
355.62
355.78
355.598
355.47
355.392
354.631
353.667
353.031
352.12
351.084
350.163
348.843
342.811
343.648
344.779
345.532
346.127
346.823
347.581
347.915
348.234
348.473
348.37
348.18
348.125
347.476
346.642
346.062
345.313
344.397
343.605
342.506
336.309
336.972
337.965
338.619
339.132
339.675
340.361
340.599
340.852
341.099
341.061
340.847
340.79
340.236
339.534
339.061
338.395
337.672
336.951
336.086
329.752
330.26
331.086
331.682
332.082
332.511
333.077
333.221
333.474
333.653
333.637
333.522
333.451
332.996
332.367
332.053
331.535
330.955
330.273
329.618
323.154
323.561
324.203
324.671
325.011
325.296
325.765
325.866
326.057
326.213
326.177
326.143
326.036
325.707
325.174
325.034
324.574
324.139
323.593
323.081
316.571
316.868
317.323
317.637
317.901
318.096
318.453
318.498
318.605
318.749
318.702
318.715
318.64
318.361
317.992
317.927
317.617
317.273
316.879
316.48
309.946
310.116
310.397
310.618
310.768
310.845
311.114
311.105
311.183
311.251
311.215
311.26
311.234
311.04
310.82
310.792
310.568
310.339
310.143
309.898
303.336
303.384
303.499
303.545
303.609
303.618
303.755
303.729
303.743
303.793
303.757
303.761
303.795
303.697
303.642
303.625
303.539
303.464
303.399
303.328
349.975
350.937
351.979
353.041
353.814
354.62
355.418
355.873
356.272
356.483
356.276
356.258
355.777
355.208
354.379
353.591
352.663
351.537
350.665
349.318
343.47
344.281
345.146
346.051
346.733
347.402
348.191
348.499
348.888
349.079
348.951
348.834
348.475
347.956
347.254
346.577
345.743
344.808
344.068
342.902
336.946
337.559
338.279
339.006
339.59
340.152
340.875
341.119
341.465
341.641
341.549
341.35
341.095
340.624
340.127
339.549
338.83
338
337.393
336.409
330.321
330.794
331.404
331.983
332.394
332.886
333.517
333.682
334.013
334.128
334.044
333.886
333.682
333.25
332.938
332.432
331.899
331.196
330.645
329.866
323.664
323.963
324.475
324.946
325.204
325.609
326.104
326.258
326.479
326.586
326.539
326.393
326.246
325.874
325.66
325.31
324.89
324.363
323.871
323.257
316.968
317.138
317.515
317.854
318.037
318.311
318.666
318.8
318.901
319.022
318.998
318.891
318.807
318.527
318.348
318.125
317.817
317.459
317.042
316.631
310.207
310.35
310.54
310.721
310.875
311.009
311.245
311.296
311.359
311.403
311.417
311.343
311.303
311.124
310.998
310.907
310.695
310.532
310.233
309.98
303.429
303.468
303.521
303.595
303.663
303.698
303.775
303.787
303.806
303.812
303.816
303.789
303.8
303.738
303.683
303.645
303.593
303.522
303.443
303.329
350.202
351.372
352.604
353.525
354.601
355.186
355.891
356.43
356.737
357.145
356.932
356.559
356.174
355.623
355.061
354.237
353.299
352.053
350.795
349.817
343.613
344.623
345.681
346.441
347.439
347.901
348.521
349.017
349.3
349.667
349.448
349.133
348.768
348.313
347.855
347.112
346.298
345.224
344.165
343.361
336.993
337.816
338.733
339.335
340.199
340.587
341.068
341.557
341.877
342.131
341.944
341.648
341.337
340.975
340.617
339.944
339.238
338.377
337.479
336.781
330.324
331.005
331.736
332.203
332.901
333.213
333.609
334.065
334.337
334.536
334.358
334.155
333.872
333.57
333.337
332.755
332.157
331.49
330.684
330.183
323.599
324.169
324.72
325.077
325.594
325.858
326.166
326.523
326.74
326.903
326.779
326.65
326.411
326.156
325.98
325.566
325.04
324.517
323.841
323.52
316.866
317.287
317.725
317.935
318.299
318.501
318.728
318.944
319.08
319.221
319.155
319.081
318.911
318.705
318.592
318.292
317.895
317.534
317.048
316.804
310.124
310.402
310.656
310.787
310.997
311.16
311.276
311.402
311.441
311.546
311.5
311.487
311.35
311.247
311.149
311.027
310.752
310.548
310.243
310.073
303.396
303.522
303.591
303.623
303.694
303.758
303.794
303.819
303.841
303.875
303.85
303.836
303.795
303.777
303.736
303.694
303.6
303.561
303.43
303.379
350.576
351.612
352.803
353.769
355.086
355.832
356.458
357.236
357.336
357.508
357.365
356.897
356.623
356.198
355.465
354.717
353.8
352.5
351.239
350.138
343.916
344.846
345.887
346.682
347.872
348.544
349.072
349.712
349.824
349.996
349.872
349.45
349.181
348.816
348.209
347.549
346.778
345.631
344.539
343.595
337.283
338.014
338.916
339.585
340.591
341.165
341.62
342.174
342.27
342.422
342.301
341.93
341.673
341.409
340.925
340.378
339.679
338.72
337.793
337.009
330.581
331.147
331.858
332.434
333.233
333.732
334.123
334.581
334.643
334.77
334.704
334.354
334.173
333.957
333.554
333.102
332.533
331.758
330.985
330.362
323.844
324.225
324.812
325.258
325.873
326.277
326.621
326.962
326.978
327.048
327.016
326.773
326.631
326.457
326.14
325.759
325.361
324.73
324.186
323.665
317.072
317.344
317.751
318.047
318.496
318.806
319.073
319.291
319.308
319.337
319.33
319.156
319.047
318.893
318.713
318.396
318.182
317.708
317.343
316.936
310.302
310.453
310.683
310.824
311.113
311.327
311.45
311.574
311.585
311.628
311.629
311.516
311.439
311.382
311.292
311.056
310.952
310.629
310.43
310.182
303.451
303.52
303.571
303.628
303.747
303.815
303.84
303.886
303.878
303.93
303.911
303.849
303.822
303.831
303.775
303.717
303.692
303.571
303.494
303.42
350.93
351.868
353.129
354.297
355.378
356.155
356.583
357.407
357.688
357.74
357.799
357.497
357.048
356.538
355.858
355.089
354.181
353.026
351.469
350.385
344.281
345.092
346.101
347.134
348.114
348.768
349.129
349.892
350.116
350.219
350.231
349.965
349.534
349.188
348.552
347.902
347.132
346.105
344.734
343.79
337.616
338.224
339.029
339.914
340.759
341.376
341.714
342.323
342.497
342.586
342.608
342.376
341.973
341.756
341.19
340.667
339.982
339.12
337.937
337.141
330.871
331.294
331.916
332.681
333.389
333.885
334.245
334.716
334.828
334.909
334.976
334.776
334.393
334.225
333.773
333.364
332.759
332.064
331.082
330.51
324.065
324.369
324.845
325.433
325.996
326.383
326.733
327.024
327.133
327.138
327.292
327.124
326.798
326.701
326.35
326.014
325.501
324.969
324.253
323.805
317.247
317.431
317.757
318.142
318.595
318.874
319.164
319.317
319.392
319.38
319.484
319.413
319.186
319.155
318.849
318.641
318.28
317.862
317.38
317.058
310.394
310.476
310.68
310.896
311.187
311.34
311.56
311.588
311.646
311.652
311.708
311.65
311.551
311.515
311.346
311.199
311.021
310.757
310.483
310.288
303.502
303.517
303.585
303.667
303.764
303.801
303.877
303.876
303.882
303.901
303.938
303.882
303.889
303.859
303.805
303.767
303.688
303.607
303.518
303.474
351.164
352.137
353.177
354.291
355.729
356.459
357.063
357.578
357.829
357.897
357.98
357.618
357.056
356.863
356.033
355.198
354.372
353.061
351.782
350.85
344.489
345.285
346.167
347.112
348.426
349.079
349.563
350.009
350.24
350.264
350.357
350.072
349.586
349.391
348.67
347.982
347.234
346.148
344.975
344.243
337.736
338.404
339.095
339.933
341.069
341.604
342.055
342.357
342.635
342.631
342.68
342.532
342.077
341.867
341.263
340.706
340.138
339.155
338.189
337.558
330.905
331.438
332.021
332.763
333.652
334.079
334.498
334.627
334.987
334.957
334.97
334.877
334.485
334.337
333.848
333.39
332.908
332.152
331.337
330.777
324.059
324.489
324.932
325.511
326.188
326.531
326.876
326.925
327.276
327.222
327.267
327.179
326.852
326.73
326.384
326.008
325.658
325.071
324.452
323.931
317.21
317.534
317.851
318.263
318.715
318.993
319.24
319.248
319.528
319.477
319.517
319.478
319.187
319.119
318.871
318.575
318.365
317.966
317.504
317.062
310.341
310.554
310.761
310.983
311.269
311.422
311.562
311.541
311.756
311.69
311.73
311.727
311.506
311.503
311.352
311.139
311.069
310.829
310.514
310.214
303.438
303.54
303.625
303.679
303.779
303.83
303.898
303.865
303.96
303.921
303.937
303.925
303.856
303.844
303.806
303.723
303.729
303.656
303.537
303.424
351.236
352.205
353.404
354.609
355.852
356.504
357.095
357.467
357.935
358.169
358.036
357.809
357.346
356.921
355.995
355.273
354.386
353.238
352.025
350.938
344.522
345.279
346.343
347.41
348.511
349.062
349.629
349.912
350.313
350.547
350.454
350.206
349.845
349.449
348.675
348.049
347.291
346.262
345.25
344.284
337.826
338.342
339.273
340.215
341.123
341.584
342.102
342.299
342.637
342.841
342.767
342.549
342.294
341.899
341.288
340.727
340.108
339.245
338.448
337.562
331.029
331.418
332.155
332.989
333.675
334.088
334.539
334.678
334.92
335.1
335.027
334.81
334.686
334.372
333.868
333.364
332.878
332.209
331.512
330.762
324.199
324.492
324.997
325.684
326.251
326.566
326.975
326.988
327.196
327.329
327.225
327.113
327.087
326.736
326.427
326.007
325.623
325.096
324.504
323.954
317.329
317.537
317.827
318.347
318.763
319.016
319.316
319.333
319.454
319.546
319.422
319.389
319.388
319.109
318.957
318.594
318.35
317.934
317.511
317.12
310.398
310.591
310.679
311.013
311.247
311.436
311.586
311.627
311.666
311.776
311.643
311.639
311.674
311.471
311.431
311.18
311.037
310.777
310.512
310.278
303.475
303.564
303.577
303.682
303.749
303.849
303.879
303.901
303.925
303.948
303.909
303.902
303.914
303.84
303.814
303.735
303.706
303.614
303.508
303.451
351.133
352.32
353.477
354.779
355.765
356.552
357.298
357.554
358.068
358.114
358.1
357.939
357.539
357.161
356.288
355.279
354.376
353.298
352.094
350.921
344.422
345.436
346.465
347.531
348.42
349.176
349.729
349.976
350.465
350.5
350.483
350.289
350.024
349.658
348.922
348.026
347.249
346.335
345.307
344.308
337.669
338.513
339.374
340.263
341.07
341.714
342.098
342.379
342.817
342.81
342.84
342.618
342.475
342.077
341.48
340.729
340.062
339.296
338.467
337.617
330.89
331.586
332.265
333.001
333.697
334.197
334.492
334.754
335.124
335.111
335.127
334.912
334.806
334.502
334.022
333.425
332.83
332.198
331.56
330.867
324.056
324.626
325.134
325.701
326.258
326.612
326.894
327.069
327.384
327.359
327.339
327.192
327.083
326.841
326.53
326.059
325.576
325.081
324.604
324.001
317.196
317.633
317.979
318.404
318.809
318.979
319.236
319.393
319.592
319.556
319.531
319.442
319.358
319.17
318.962
318.643
318.283
317.901
317.613
317.168
310.336
310.641
310.8
311.062
311.338
311.376
311.558
311.634
311.748
311.749
311.715
311.674
311.633
311.534
311.394
311.219
310.987
310.744
310.564
310.34
303.473
303.58
303.616
303.706
303.787
303.809
303.861
303.905
303.941
303.948
303.935
303.903
303.926
303.877
303.805
303.752
303.669
303.62
303.522
303.477
351.21
352.311
353.611
354.809
355.755
356.46
357.061
357.56
358.055
358.214
358.212
357.843
357.421
357.091
356.434
355.316
354.388
353.235
351.926
350.718
344.525
345.437
346.553
347.601
348.415
349.086
349.525
349.993
350.475
350.552
350.58
350.268
349.913
349.622
349.044
348.071
347.277
346.3
345.169
344.109
337.741
338.498
339.49
340.337
341.069
341.635
341.991
342.381
342.827
342.843
342.873
342.644
342.357
342.055
341.619
340.787
340.111
339.274
338.311
337.45
330.956
331.574
332.358
333.067
333.646
334.134
334.391
334.743
335.119
335.104
335.173
334.938
334.797
334.446
334.075
333.452
332.879
332.187
331.372
330.722
324.109
324.645
325.214
325.747
326.203
326.562
326.816
327.041
327.412
327.331
327.437
327.253
327.131
326.832
326.543
326.114
325.634
325.062
324.468
323.969
317.247
317.645
318.019
318.392
318.738
318.969
319.186
319.356
319.642
319.534
319.644
319.516
319.385
319.174
318.997
318.718
318.333
317.929
317.552
317.19
310.394
310.615
310.852
311.056
311.273
311.345
311.537
311.634
311.833
311.742
311.821
311.699
311.642
311.521
311.423
311.242
311.02
310.818
310.56
310.386
303.497
303.565
303.645
303.717
303.788
303.782
303.867
303.909
303.978
303.939
303.949
303.928
303.906
303.864
303.826
303.78
303.678
303.65
303.55
303.511
350.985
352.16
353.416
354.69
355.598
356.384
357.055
357.821
358.037
358.306
358.32
357.965
357.32
356.757
356.143
355.083
354.339
353.139
351.817
350.64
344.33
345.334
346.403
347.54
348.306
348.943
349.535
350.226
350.431
350.67
350.66
350.389
349.807
349.335
348.834
347.866
347.204
346.19
345.062
344.037
337.611
338.434
339.326
340.335
341.005
341.52
341.98
342.565
342.713
342.974
342.955
342.699
342.259
341.855
341.458
340.644
340.041
339.216
338.261
337.377
330.81
331.469
332.224
333.073
333.662
334.03
334.389
334.91
335.034
335.282
335.195
335.013
334.654
334.331
333.996
333.36
332.851
332.144
331.352
330.675
323.999
324.467
325.084
325.762
326.294
326.482
326.793
327.16
327.298
327.549
327.432
327.288
327.022
326.79
326.519
326.014
325.579
325.056
324.411
323.921
317.152
317.47
317.938
318.464
318.82
318.896
319.172
319.432
319.533
319.758
319.663
319.519
319.348
319.158
319.011
318.623
318.262
317.93
317.484
317.152
310.338
310.497
310.771
311.125
311.31
311.312
311.527
311.699
311.756
311.889
311.828
311.74
311.628
311.489
311.435
311.189
310.988
310.781
310.515
310.307
303.474
303.511
303.62
303.733
303.803
303.784
303.878
303.926
303.947
303.954
303.954
303.938
303.897
303.853
303.84
303.767
303.694
303.616
303.537
303.44
)
;

boundaryField
{
    hotSide
    {
        type            fixedGradient;
        gradient        nonuniform List<scalar> 
400
(
417.075
428.86
440.243
451.174
461.603
471.482
480.763
489.402
497.356
504.585
511.052
516.724
521.572
525.568
528.692
530.925
532.256
532.675
532.18
530.77
428.327
440.442
452.146
463.387
474.113
484.274
493.822
502.711
510.897
518.339
524.999
530.843
535.839
539.962
543.189
545.501
546.886
547.334
546.843
545.412
438.45
450.863
462.855
474.374
485.367
495.783
505.571
514.686
523.081
530.715
537.55
543.548
548.68
552.917
556.237
558.621
560.055
560.531
560.043
558.594
447.38
460.055
472.302
484.067
495.295
505.935
515.936
525.25
533.83
541.634
548.622
554.757
560.009
564.347
567.75
570.197
571.675
572.175
571.692
570.227
455.063
467.964
480.43
492.405
503.836
514.669
524.852
534.336
543.075
551.025
558.145
564.399
569.753
574.179
577.653
580.155
581.671
582.192
581.712
580.234
461.457
474.544
487.191
499.341
510.939
521.932
532.266
541.892
550.763
558.833
566.063
572.414
577.853
582.352
585.885
588.432
589.98
590.518
590.042
588.553
466.525
479.759
492.548
504.836
516.566
527.684
538.137
547.874
556.848
565.014
572.329
578.757
584.263
588.818
592.397
594.98
596.552
597.104
596.63
595.132
470.242
483.582
496.474
508.861
520.686
531.894
542.433
552.25
561.298
569.532
576.91
583.392
588.946
593.541
597.153
599.762
601.351
601.912
601.439
599.934
472.592
485.996
498.951
511.398
523.28
534.543
545.134
554.999
564.092
572.367
579.781
586.297
591.879
596.498
600.13
602.752
604.351
604.917
604.444
602.933
473.564
486.992
499.968
512.436
524.339
535.621
546.228
556.11
565.218
573.507
580.933
587.459
593.05
597.676
601.313
603.939
605.54
606.106
605.631
604.117
473.159
486.567
499.525
511.975
523.86
535.124
545.715
555.582
564.675
572.949
580.362
586.876
592.456
597.073
600.701
603.32
604.915
605.476
604.998
603.482
471.382
484.73
497.629
510.021
521.851
533.062
543.603
553.422
562.47
570.703
578.079
584.558
590.108
594.698
598.304
600.905
602.487
603.038
602.555
601.039
468.246
481.493
494.293
506.59
518.328
529.451
539.908
549.648
558.623
566.787
574.1
580.524
586.024
590.571
594.141
596.714
598.274
598.812
598.323
596.808
463.775
476.88
489.542
501.706
513.315
524.316
534.656
544.287
553.159
561.229
568.456
574.802
580.234
584.722
588.243
590.777
592.308
592.828
592.331
590.82
457.994
470.919
483.406
495.399
506.845
517.69
527.883
537.373
546.116
554.066
561.183
567.431
572.776
577.191
580.65
583.135
584.631
585.129
584.624
583.117
450.942
463.648
475.923
487.711
498.96
509.617
519.63
528.953
537.539
545.344
552.33
558.46
563.702
568.028
571.414
573.841
575.295
575.768
575.253
573.754
442.66
455.112
467.14
478.69
489.709
500.147
509.953
519.08
527.484
535.122
541.956
547.949
553.071
557.295
560.596
562.957
564.363
564.807
564.283
562.793
433.201
445.365
457.113
468.392
479.151
489.34
498.912
507.818
516.016
523.465
530.127
535.966
540.953
545.061
548.268
550.555
551.908
552.32
551.787
550.31
422.625
434.468
445.905
456.883
467.354
477.268
486.578
495.24
503.211
510.45
516.921
522.591
527.429
531.41
534.513
536.718
538.015
538.394
537.851
536.389
410.997
422.491
433.588
444.238
454.394
464.008
473.034
481.429
489.151
496.163
502.427
507.913
512.59
516.434
519.423
521.542
522.777
523.121
522.571
521.127
)
;
    }
    coldSide
    {
        type            mixed;
        refValue        uniform 300;
        refGradient     uniform 0;
        valueFraction   uniform 0.991591;
        source          uniform 0;
        value           nonuniform List<scalar> 
400
(
300.024
300.024
300.025
300.025
300.025
300.026
300.026
300.027
300.027
300.028
300.028
300.029
300.029
300.029
300.029
300.029
300.029
300.029
300.029
300.029
300.024
300.024
300.025
300.025
300.026
300.026
300.027
300.028
300.028
300.028
300.028
300.029
300.03
300.03
300.03
300.03
300.03
300.03
300.03
300.03
300.025
300.025