/*--------------------------------*- C++ -*----------------------------------*\
| =========                 |                                                 |
| \\      /  F ield         | OpenFOAM: The Open Source CFD Toolbox           |
|  \\    /   O peration     | Version:  2212                                  |
|   \\  /    A nd           | Website:  www.openfoam.com                      |
|    \\/     M anipulation  |                                                 |
\*---------------------------------------------------------------------------*/
FoamFile
{
    version     2.0;
    format      ascii;
    arch        "LSB;label=32;scalar=64";
    class       volScalarField;
    location    "0";
    object      T;
}
// * * * * * * * * * * * * * * * * * * * * * * * * * * * * * * * * * * * * * //

dimensions      [0 0 0 1 0 0 0];

internalField   nonuniform List<scalar> 
3200
(
324.92
324.094
323.446
323.493
323.628
323.861
324.394
324.854
325.244
325.644
325.828
325.697
325.504
325.255
324.869
324.591
324.488
324.708
325.187
325.916
321.469
320.772
320.235
320.264
320.395
320.584
321.043
321.409
321.762
322.101
322.261
322.17
322.005
321.779
321.465
321.193
321.127
321.285
321.731
322.298
318.06
317.486
317.079
317.065
317.218
317.373
317.734
317.999
318.334
318.614
318.746
318.699
318.537
318.344
318.121
317.863
317.81
317.92
318.313
318.76
314.696
314.258
313.946
313.941
314.066
314.153
314.461
314.637
314.96
315.179
315.281
315.269
315.13
314.94
314.805
314.586
314.519
314.612
314.943
315.302
311.394
311.073
310.841
310.823
310.907
310.951
311.222
311.337
311.629
311.807
311.864
311.866
311.743
311.577
311.501
311.317
311.261
311.326
311.601
311.878
308.132
307.917
307.724
307.722
307.79
307.789
307.999
308.077
308.289
308.425
308.47
308.477
308.392
308.246
308.213
308.063
308.014
308.061
308.256
308.479
304.879
304.749
304.641
304.642
304.685
304.65
304.786
304.84
304.971
305.041
305.085
305.099
305.048
304.93
304.921
304.828
304.801
304.839
304.939
305.101
301.629
301.588
301.553
301.551
301.568
301.557
301.605
301.627
301.672
301.678
301.703
301.712
301.698
301.645
301.649
301.62
301.616
301.614
301.658
301.716
325.022
324.305
323.682
323.604
323.777
324.169
324.732
325.113
325.571
325.926
326.06
326
325.84
325.506
325.144
324.732
324.62
324.812
325.378
326.034
321.573
320.976
320.433
320.36
320.52
320.836
321.317
321.634
322.016
322.359
322.455
322.402
322.257
321.972
321.669
321.311
321.207
321.382
321.883
322.416
318.164
317.689
317.217
317.165
317.298
317.538
317.939
318.217
318.523
318.833
318.901
318.858
318.732
318.484
318.238
317.95
317.852
317.997
318.442
318.863
314.788
314.412
314.069
314.013
314.129
314.301
314.615
314.828
315.093
315.345
315.416
315.383
315.271
315.075
314.865
314.631
314.528
314.656
315.049
315.372
311.457
311.168
310.923
310.887
310.984
311.069
311.335
311.514
311.719
311.905
311.966
311.956
311.85
311.706
311.529
311.33
311.248
311.348
311.69
311.93
308.161
307.953
307.798
307.75
307.849
307.886
308.111
308.214
308.369
308.483
308.545
308.541
308.47
308.374
308.215
308.078
308.026
308.087
308.356
308.529
304.883
304.763
304.675
304.647
304.699
304.724
304.882
304.929
305.037
305.098
305.136
305.117
305.097
305.036
304.92
304.838
304.819
304.844
305.024
305.136
301.627
301.597
301.565
301.563
301.568
301.579
301.648
301.65
301.692
301.708
301.726
301.713
301.713
301.686
301.642
301.632
301.611
301.627
301.69
301.714
325.286
324.451
323.955
323.873
324.078
324.561
325.148
325.584
326.153
326.46
326.515
326.519
326.46
326.08
325.602
325.215
325.041
325.152
325.673
326.377
321.772
321.104
320.661
320.592
320.786
321.166
321.661
322.041
322.531
322.779
322.858
322.848
322.79
322.445
322.038
321.699
321.578
321.661
322.137
322.686
318.307
317.793
317.404
317.345
317.523
317.829
318.25
318.53
318.964
319.173
319.241
319.228
319.178
318.885
318.538
318.245
318.159
318.231
318.662
319.085
314.886
314.51
314.171
314.152
314.284
314.553
314.86
315.094
315.429
315.626
315.682
315.662
315.638
315.388
315.107
314.852
314.785
314.847
315.23
315.544
311.522
311.26
311.003
311.005
311.047
311.3
311.493
311.713
311.945
312.14
312.166
312.129
312.145
311.94
311.693
311.506
311.461
311.507
311.826
312.067
308.192
308.025
307.852
307.865
307.877
308.06
308.175
308.367
308.5
308.657
308.676
308.647
308.679
308.495
308.333
308.214
308.188
308.192
308.434
308.607
304.902
304.818
304.708
304.739
304.723
304.843
304.909
305.028
305.099
305.184
305.186
305.19
305.192
305.078
305.005
304.924
304.913
304.904
305.072
305.161
301.648
301.622
301.565
301.599
301.581
301.63
301.651
301.689
301.71
301.738
301.736
301.747
301.729
301.69
301.683
301.651
301.641
301.645
301.706
301.718
325.683
324.953
324.527
324.376
324.564
325.114
325.654
326.222
326.879
327.137
327.166
327.266
327.118
326.656
326.285
325.808
325.606
325.694
326.262
326.87
322.152
321.505
321.157
321.041
321.161
321.646
322.092
322.58
323.185
323.355
323.407
323.483
323.38
322.973
322.672
322.211
322.048
322.121
322.648
323.123
318.666
318.099
317.819
317.746
317.819
318.219
318.611
318.998
319.546
319.657
319.712
319.765
319.711
319.345
319.093
318.692
318.56
318.622
319.076
319.427
315.205
314.752
314.509
314.492
314.501
314.863
315.163
315.472
315.939
316.007
316.067
316.097
316.057
315.773
315.563
315.22
315.13
315.181
315.548
315.808
311.791
311.455
311.235
311.265
311.236
311.539
311.755
311.99
312.349
312.396
312.463
312.453
312.456
312.214
312.066
311.8
311.738
311.774
312.04
312.248
308.393
308.176
308.001
308.028
308.011
308.238
308.376
308.555
308.778
308.821
308.881
308.874
308.898
308.7
308.595
308.419
308.371
308.393
308.58
308.719
305.029
304.903
304.806
304.808
304.807
304.962
304.994
305.146
305.253
305.287
305.313
305.325
305.321
305.213
305.131
305.048
305.02
305.047
305.173
305.23
301.685
301.637
301.609
301.617
301.614
301.659
301.668
301.732
301.739
301.777
301.778
301.784
301.781
301.74
301.708
301.69
301.679
301.693
301.739
301.758
326.226
325.419
325.155
325.026
325.184
325.664
326.356
326.83
327.57
327.731
327.886
327.98
327.847
327.493
326.898
326.57
326.346
326.265
326.745
327.475
322.573
321.902
321.701
321.589
321.702
322.133
322.718
323.096
323.763
323.893
323.998
324.081
323.992
323.674
323.161
322.884
322.681
322.621
323.054
323.644
319.015
318.434
318.298
318.213
318.255
318.642
319.148
319.438
320.006
320.124
320.175
320.269
320.198
319.913
319.496
319.274
319.079
319.033
319.415
319.883
315.497
315.027
314.919
314.848
314.87
315.189
315.602
315.866
316.308
316.414
316.438
316.506
316.442
316.235
315.9
315.721
315.544
315.508
315.812
316.194
312.005
311.635
311.561
311.534
311.518
311.784
312.097
312.309
312.645
312.732
312.752
312.796
312.744
312.584
312.346
312.21
312.065
312.051
312.241
312.552
308.537
308.305
308.239
308.225
308.201
308.418
308.64
308.787
309.017
309.073
309.101
309.14
309.093
308.976
308.811
308.719
308.598
308.593
308.732
308.946
305.116
304.97
304.936
304.934
304.918
305.055
305.207
305.277
305.425
305.443
305.458
305.497
305.455
305.371
305.283
305.235
305.141
305.153
305.231
305.388
301.71
301.654
301.652
301.65
301.648
301.699
301.752
301.763
301.818
301.821
301.834
301.856
301.819
301.797
301.764
301.754
301.726
301.729
301.749
301.804
326.934
326.163
325.817
325.778
325.984
326.4
327.132
327.559
328.207
328.523
328.702
328.8
328.603
328.171
327.609
327.294
327.155
327.136
327.482
328.1
323.201
322.552
322.27
322.234
322.384
322.742
323.387
323.723
324.284
324.545
324.706
324.792
324.613
324.255
323.763
323.522
323.399
323.368
323.657
324.21
319.53
318.962
318.768
318.723
318.836
319.159
319.691
319.951
320.455
320.65
320.779
320.864
320.722
320.421
320.001
319.834
319.682
319.686
319.88
320.378
315.92
315.421
315.3
315.258
315.354
315.631
316.045
316.253
316.671
316.808
316.912
316.988
316.899
316.642
316.306
316.168
316.013
316.022
316.167
316.583
312.365
311.957
311.881
311.829
311.897
312.129
312.463
312.592
312.915
313.022
313.107
313.17
313.106
312.908
312.652
312.542
312.426
312.419
312.518
312.86
308.82
308.533
308.475
308.442
308.49
308.667
308.896
308.952
309.213
309.284
309.334
309.385
309.343
309.2
309.017
308.943
308.874
308.847
308.928
309.154
305.276
305.111
305.098
305.062
305.09
305.197
305.35
305.36
305.53
305.565
305.587
305.636
305.593
305.536
305.404
305.374
305.346
305.294
305.364
305.461
301.759
301.71
301.714
301.693
301.702
301.732
301.796
301.802
301.855
301.866
301.869
301.89
301.869
301.86
301.809
301.8
301.788
301.77
301.798
301.83
327.586
327
326.602
326.578
326.736
327.243
327.846
328.383
328.929
329.328
329.648
329.65
329.542
328.934
328.448
328.225
327.925
327.904
328.347
328.883
323.749
323.261
322.912
322.905
323.019
323.453
323.997
324.431
324.917
325.241
325.506
325.519
325.454
324.888
324.476
324.307
324.033
324.013
324.391
324.851
319.969
319.583
319.293
319.276
319.371
319.733
320.214
320.576
320.998
321.238
321.447
321.48
321.432
320.935
320.597
320.458
320.203
320.217
320.493
320.89
316.256
315.934
315.719
315.708
315.769
316.075
316.489
316.793
317.118
317.305
317.457
317.491
317.462
317.061
316.762
316.67
316.454
316.493
316.671
317.008
312.603
312.364
312.189
312.178
312.217
312.477
312.779
313.046
313.28
313.426
313.526
313.534
313.535
313.23
312.992
312.94
312.767
312.791
312.898
313.168
309
308.823
308.695
308.691
308.715
308.9
309.124
309.306
309.485
309.556
309.633
309.633
309.655
309.439
309.272
309.225
309.104
309.109
309.165
309.38
305.409
305.307
305.241
305.224
305.226
305.35
305.483
305.571
305.674
305.735
305.771
305.766
305.781
305.671
305.575
305.526
305.46
305.457
305.489
305.627
301.812
301.791
301.76
301.754
301.746
301.793
301.846
301.862
301.895
301.928
301.936
301.929
301.934
301.9
301.876
301.85
301.835
301.824
301.836
301.886
328.45
327.989
327.497
327.453
327.578
328.06
328.725
329.221
329.882
330.278
330.54
330.762
330.378
329.882
329.492
329.042
328.792
328.884
329.279
329.77
324.495
324.106
323.687
323.625
323.753
324.188
324.748
325.162
325.714
326.039
326.269
326.483
326.151
325.703
325.387
325.021
324.792
324.873
325.217
325.622
320.611
320.28
319.951
319.867
319.979
320.372
320.844
321.157
321.619
321.9
322.106
322.289
321.991
321.6
321.365
321.063
320.878
320.932
321.242
321.536
316.787
316.5
316.29
316.161
316.27
316.61
316.992
317.23
317.608
317.851
318.01
318.168
317.902
317.569
317.401
317.15
317.009
317.062
317.297
317.53
312.991
312.789
312.641
312.522
312.613
312.876
313.186
313.369
313.667
313.848
313.949
314.097
313.879
313.615
313.472
313.297
313.2
313.255
313.405
313.586
309.256
309.099
309.032
308.924
308.979
309.179
309.394
309.53
309.735
309.884
309.929
310.051
309.896
309.719
309.604
309.491
309.395
309.424
309.546
309.669
305.554
305.453
305.425
305.345
305.367
305.496
305.628
305.719
305.819
305.928
305.95
306.034
305.933
305.848
305.747
305.693
305.632
305.641
305.711
305.806
301.853
301.827
301.816
301.792
301.787
301.836
301.892
301.92
301.944
301.991
301.988
302.028
301.98
301.971
301.932
301.9
301.878
301.891
301.912
301.953
329.361
328.774
328.374
328.429
328.538
328.909
329.514
330.14
330.763
331.199
331.407
331.576
331.311
330.805
330.372
329.973
329.777
329.77
330.073
330.64
325.271
324.774
324.451
324.492
324.579
324.887
325.43
325.925
326.484
326.857
327.019
327.16
326.949
326.526
326.169
325.783
325.649
325.638
325.879
326.362
321.258
320.846
320.587
320.619
320.684
320.948
321.417
321.802
322.286
322.595
322.743
322.83
322.675
322.317
322.035
321.708
321.587
321.57
321.762
322.169
317.3
316.981
316.789
316.797
316.844
317.086
317.461
317.772
318.153
318.394
318.503
318.589
318.471
318.193
317.95
317.677
317.579
317.59
317.739
318.062
313.397
313.146
313.017
313.025
313.038
313.265
313.539
313.766
314.083
314.258
314.334
314.414
314.301
314.115
313.896
313.688
313.621
313.647
313.761
314.004
309.546
309.37
309.272
309.28
309.283
309.461
309.665
309.798
310.046
310.159
310.194
310.27
310.182
310.064
309.909
309.746
309.711
309.742
309.808
309.98
305.72
305.614
305.547
305.569
305.562
305.677
305.8
305.884
306.019
306.094
306.105
306.165
306.084
306.029
305.934
305.859
305.821
305.843
305.886
305.988
301.914
301.881
301.854
301.875
301.855
301.894
301.934
301.98
302.013
302.045
302.049
302.069
302.038
302.018
301.985
301.963
301.95
301.956
301.968
302.007
330.466
329.856
329.417
329.424
329.418
329.743
330.351
330.912
331.584
332.1
332.269
332.306
332.12
331.613
331.271
330.888
330.801
330.804
331.046
331.543
326.226
325.721
325.345
325.342
325.31
325.607
326.13
326.583
327.168
327.637
327.773
327.804
327.612
327.214
326.911
326.584
326.494
326.548
326.694
327.126
322.043
321.663
321.343
321.328
321.27
321.542
322.014
322.342
322.862
323.255
323.361
323.392
323.218
322.894
322.637
322.382
322.277
322.355
322.447
322.813
317.944
317.663
317.394
317.345
317.299
317.547
317.96
318.205
318.627
318.958
319.025
319.069
318.858
318.634
318.424
318.244
318.131
318.233
318.278
318.588
313.896
313.697
313.494
313.415
313.425
313.606
313.908
314.124
314.43
314.694
314.766
314.813
314.594
314.429
314.304
314.147
314.04
314.146
314.165
314.39
309.888
309.761
309.628
309.541
309.596
309.693
309.903
310.06
310.29
310.481
310.526
310.562
310.403
310.265
310.199
310.081
310.002
310.075
310.095
310.236
305.922
305.853
305.766
305.72
305.762
305.816
305.953
306.03
306.164
306.3
306.297
306.351
306.267
306.156
306.119
306.044
306.013
306.035
306.055
306.146
301.981
301.968
301.924
301.923
301.922
301.948
302.003
302.017
302.064
302.103
302.106
302.131
302.11
302.052
302.045
302.025
302.003
302.02
302.034
302.062
331.466
331.019
330.527
330.39
330.398
330.789
331.313
331.854
332.519
332.951
333.265
333.174
332.882
332.516
332.147
331.86
331.744
332.027
332.113
332.592
327.098
326.722
326.309
326.161
326.164
326.492
326.97
327.403
327.989
328.33
328.629
328.538
328.275
327.974
327.658
327.432
327.324
327.571
327.615
328.037
322.82
322.506
322.151
321.982
322.008
322.265
322.697
323.045
323.533
323.816
324.068
323.99
323.793
323.522
323.266
323.075
322.982
323.223
323.203
323.57
318.574
318.356
318.05
317.864
317.897
318.114
318.48
318.772
319.15
319.398
319.598
319.516
319.362
319.131
318.953
318.773
318.703
318.908
318.875
319.184
314.382
314.233
314.001
313.824
313.845
314.058
314.32
314.542
314.85
315.038
315.198
315.131
315.005
314.796
314.691
314.535
314.484
314.637
314.604
314.872
310.25
310.166
309.975
309.836
309.855
310.017
310.208
310.345
310.589
310.709
310.826
310.785
310.697
310.546
310.466
310.364
310.311
310.408
310.403
310.6
306.144
306.122
305.973
305.875
305.91
306.013
306.112
306.187
306.352
306.419
306.485
306.474
306.42
306.327
306.264
306.228
306.172
306.232
306.238
306.364
302.058
302.048
301.997
301.965
301.973
302.007
302.038
302.074
302.131
302.147
302.17
302.173
302.151
302.118
302.103
302.091
302.063
302.088
302.091
302.133
332.365
332.096
331.669
331.499
331.598
331.86
332.247
332.777
333.33
333.816
333.931
333.974
333.74
333.372
332.992
332.782
332.665
332.84
333.092
333.656
327.87
327.668
327.268
327.111
327.195
327.414
327.774
328.201
328.675
329.119
329.196
329.233
329.009
328.699
328.406
328.207
328.086
328.266
328.479
328.963
323.434
323.313
322.955
322.808
322.873
323.08
323.376
323.71
324.11
324.491
324.538
324.569
324.386
324.13
323.895
323.717
323.613
323.775
323.962
324.357
319.051
318.997
318.707
318.559
318.619
318.822
319.029
319.307
319.644
319.924
319.971
319.99
319.85
319.63
319.423
319.292
319.219
319.336
319.515
319.82
314.763
314.743
314.507
314.377
314.429
314.612
314.731
314.958
315.245
315.455
315.48
315.498
315.388
315.201
315.054
314.947
314.878
314.96
315.147
315.342
310.511
310.509
310.352
310.233
310.281
310.418
310.492
310.656
310.867
311.023
311.021
311.043
310.966
310.848
310.721
310.638
310.608
310.659
310.784
310.916
306.292
306.284
306.216
306.122
306.166
306.237
306.28
306.405
306.518
306.615
306.618
306.629
306.582
306.515
306.425
306.371
306.351
306.383
306.459
306.542
302.106
302.108
302.091
302.05
302.076
302.09
302.11
302.145
302.184
302.225
302.213
302.22
302.206
302.181
302.16
302.118
302.127
302.142
302.158
302.185
333.479
333.085
332.652
332.501
332.621
332.908
333.218
333.638
334.042
334.422
334.595
334.702
334.52
334.204
333.877
333.704
333.551
333.678
334.115
334.56
328.82
328.495
328.134
327.975
328.103
328.362
328.598
328.955
329.33
329.617
329.782
329.851
329.679
329.432
329.131
328.992
328.881
328.976
329.342
329.72
324.237
323.971
323.712
323.52
323.669
323.88
324.058
324.365
324.691
324.912
325.078
325.09
324.94
324.763
324.491
324.369
324.301
324.372
324.672
324.977
319.71
319.536
319.327
319.172
319.269
319.458
319.594
319.863
320.11
320.267
320.432
320.436
320.281
320.154
319.937
319.825
319.784
319.858
320.105
320.319
315.278
315.15
314.99
314.878
314.924
315.085
315.181
315.419
315.603
315.709
315.842
315.832
315.72
315.63
315.432
315.366
315.338
315.412
315.597
315.723
310.878
310.806
310.687
310.611
310.64
310.764
310.808
311.02
311.111
311.196
311.297
311.262
311.205
311.125
310.976
310.96
310.944
310.99
311.114
311.202
306.526
306.472
306.388
306.369
306.385
306.457
306.488
306.627
306.668
306.724
306.77
306.747
306.719
306.658
306.573
306.567
306.58
306.593
306.652
306.713
302.188
302.165
302.134
302.13
302.135
302.16
302.174
302.226
302.233
302.256
302.271
302.256
302.255
302.223
302.194
302.195
302.201
302.209
302.223
302.249
334.481
334.165
333.667
333.537
333.673
333.885
334.131
334.386
334.901
335.186
335.438
335.35
335.244
335.14
334.769
334.604
334.663
334.81
335.104
335.667
329.684
329.437
328.987
328.877
328.979
329.191
329.378
329.596
330.038
330.258
330.486
330.397
330.286
330.246
329.926
329.754
329.825
329.963
330.192
330.686
324.974
324.782
324.37
324.293
324.381
324.566
324.71
324.894
325.268
325.454
325.655
325.58
325.469
325.45
325.155
325.002
325.076
325.18
325.365
325.788
320.319
320.189
319.819
319.777
319.856
320.032
320.135
320.289
320.591
320.737
320.907
320.827
320.743
320.733
320.469
320.355
320.417
320.499
320.644
320.962
315.747
315.65
315.337
315.339
315.392
315.522
315.599
315.742
315.977
316.069
316.227
316.159
316.063
316.065
315.838
315.782
315.831
315.883
315.98
316.241
311.217
311.143
310.917
310.928
310.967
311.051
311.092
311.219
311.389
311.437
311.582
311.519
311.432
311.452
311.268
311.255
311.291
311.333
311.384
311.584
306.72
306.668
306.549
306.56
306.576
306.612
306.644
306.712
306.825
306.85
306.947
306.895
306.837
306.866
306.755
306.744
306.783
306.789
306.824
306.952
302.253
302.236
302.194
302.201
302.194
302.205
302.218
302.239
302.285
302.286
302.323
302.307
302.282
302.307
302.266
302.254
302.271
302.273
302.277
302.33
335.431
335.13
334.674
334.499
334.655
334.761
335.023
335.22
335.719
335.986
336.039
336.147
336.006
335.886
335.746
335.608
335.646
335.728
336.08
336.55
330.528
330.242
329.844
329.697
329.84
329.919
330.165
330.324
330.732
330.968
331.017
331.085
330.96
330.855
330.753
330.621
330.666
330.741
331.043
331.456
325.698
325.453
325.105
324.986
325.121
325.173
325.395
325.51
325.857
326.061
326.076
326.134
326.043
325.955
325.869
325.714
325.779
325.854
326.111
326.452
320.929
320.74
320.444
320.368
320.462
320.516
320.703
320.778
321.05
321.235
321.229
321.27
321.216
321.131
321.087
320.916
320.977
321.041
321.247
321.532
316.235
316.056
315.849
315.808
315.856
315.9
316.034
316.105
316.297
316.458
316.459
316.485
316.441
316.376
316.346
316.175
316.267
316.298
316.461
316.654
311.597
311.444
311.269
311.264
311.296
311.337
311.423
311.478
311.596
311.74
311.714
311.756
311.694
311.673
311.668
311.508
311.59
311.597
311.732
311.849
306.957
306.872
306.751
306.754
306.761
306.786
306.837
306.888
306.932
307.036
307.013
307.053
307.01
306.998
306.999
306.896
306.932
306.951
307.058
307.101
302.328
302.304
302.255
302.265
302.265
302.269
302.277
302.308
302.325
302.343
302.334
302.355
302.341
302.346
302.338
302.311
302.316
302.324
302.367
302.38
336.69
336.285
335.852
335.51
335.563
335.646
335.871
336.255
336.415
336.686
336.725
336.885
336.798
336.691
336.606
336.52
336.646
336.797
337.127
337.645
331.567
331.248
330.866
330.566
330.619
330.671
330.885
331.199
331.367
331.545
331.591
331.733
331.654
331.564
331.523
331.429
331.527
331.643
331.923
332.392
326.564
326.304
325.944
325.711
325.753
325.803
326.004
326.241
326.396
326.54
326.557
326.708
326.617
326.536
326.515
326.407
326.504
326.578
326.837
327.221
321.621
321.434
321.119
320.926
320.953
321.025
321.174
321.354
321.489
321.622
321.613
321.758
321.689
321.61
321.568
321.499
321.556
321.626
321.854
322.153
316.763
316.606
316.368
316.207
316.237
316.297
316.425
316.548
316.637
316.765
316.738
316.847
316.819
316.747
316.718
316.671
316.689
316.76
316.948
317.161
311.964
311.83
311.668
311.535
311.56
311.6
311.692
311.794
311.847
311.947
311.934
312.015
312.013
311.935
311.914
311.878
311.881
311.939
312.072
312.233
307.177
307.095
306.991
306.919
306.927
306.937
306.99
307.07
307.094
307.174
307.153
307.19
307.227
307.156
307.149
307.115
307.107
307.156
307.237
307.341
302.411
302.374
302.342
302.31
302.313
302.314
302.336
302.374
302.381
302.405
302.402
302.408
302.422
302.39
302.395
302.394
302.374
302.399
302.425
302.468
337.7
337.321
336.963
336.544
336.507
336.559
336.764
337.036
337.206
337.489
337.582
337.708
337.648
337.636
337.44
337.417
337.555
337.701
338.168
338.622
332.429
332.116
331.825
331.433
331.401
331.476
331.648
331.886
332.036
332.226
332.336
332.44
332.381
332.397
332.215
332.166
332.308
332.437
332.839
333.213
327.273
327.029
326.774
326.443
326.409
326.49
326.628
326.829
326.938
327.091
327.184
327.291
327.195
327.259
327.101
327.027
327.185
327.293
327.615
327.918
322.198
322.027
321.798
321.515
321.494
321.581
321.691
321.835
321.925
322.045
322.113
322.222
322.114
322.2
322.061
321.988
322.11
322.239
322.488
322.728
317.175
317.079
316.909
316.669
316.679
316.699
316.818
316.924
316.975
317.092
317.135
317.22
317.118
317.198
317.08
317.018
317.107
317.236
317.434
317.636
312.237
312.166
312.053
311.879
311.903
311.904
311.991
312.073
312.081
312.173
312.21
312.254
312.183
312.252
312.163
312.126
312.171
312.302
312.412
312.569
307.348
307.289
307.23
307.128
307.137
307.125
307.199
307.24
307.23
307.292
307.32
307.331
307.289
307.341
307.296
307.275
307.287
307.379
307.428
307.534
302.467
302.443
302.415
302.398
302.395
302.382
302.409
302.432
302.424
302.444
302.45
302.444
302.437
302.447
302.443
302.429
302.443
302.474
302.487
302.519
338.587
338.302
337.949
337.625
337.559
337.574
337.693
337.894
338.006
338.295
338.453
338.4
338.447
338.368
338.351
338.261
338.54
338.744
339.074
339.596
333.174
332.986
332.674
332.383
332.335
332.339
332.445
332.595
332.689
332.958
333.092
333.031
333.089
332.998
332.995
332.917
333.158
333.322
333.615
334.05
327.88
327.762
327.481
327.234
327.187
327.212
327.302
327.384
327.501
327.722
327.832
327.778
327.814
327.757
327.758
327.692
327.878
328.047
328.254
328.601
322.675
322.626
322.4
322.175
322.104
322.161
322.246
322.285
322.389
322.571
322.647
322.62
322.623
322.608
322.611
322.558
322.693
322.85
323.003
323.259
317.566
317.551
317.39
317.184
317.094
317.17
317.229
317.278
317.338
317.48
317.53
317.517
317.525
317.542
317.532
317.486
317.583
317.721
317.824
318.02
312.518
312.521
312.417
312.251
312.177
312.239
312.271
312.307
312.357
312.447
312.47
312.464
312.472
312.492
312.502
312.466
312.513
312.626
312.699
312.837
307.514
307.516
307.458
307.342
307.291
307.344
307.357
307.38
307.413
307.463
307.463
307.482
307.488
307.5
307.498
307.498
307.511
307.562
307.601
307.68
302.525
302.513
302.5
302.459
302.447
302.462
302.461
302.466
302.492
302.496
302.492
302.517
302.52
302.515
302.506
302.53
302.521
302.536
302.539
302.58
339.597
339.279
338.802
338.547
338.43
338.528
338.513
338.644
338.771
338.902
339.184
339.053
339.164
339.145
339.105
338.999
339.355
339.691
340.031
340.512
334.079
333.781
333.386
333.16
333.042
333.149
333.126
333.247
333.33
333.484
333.701
333.569
333.667
333.673
333.601
333.525
333.841
334.134
334.417
334.839
328.665
328.386
328.08
327.871
327.768
327.85
327.851
327.975
328.024
328.173
328.314
328.203
328.288
328.324
328.233
328.143
328.445
328.7
328.915
329.271
323.333
323.101
322.876
322.683
322.585
322.634
322.663
322.783
322.815
322.936
323.035
322.946
323.029
323.066
322.967
322.918
323.158
323.329
323.529
323.822
318.074
317.897
317.755
317.556
317.471
317.496
317.567
317.673
317.674
317.773
317.829
317.784
317.838
317.858
317.787
317.75
317.951
318.065
318.248
318.46
312.868
312.755
312.666
312.504
312.436
312.464
312.508
312.605
312.59
312.655
312.699
312.685
312.699
312.725
312.67
312.647
312.78
312.871
313.012
313.145
307.715
307.637
307.596
307.483
307.463
307.468
307.494
307.555
307.544
307.587
307.636
307.595
307.613
307.631
307.59
307.584
307.678
307.715
307.814
307.876
302.595
302.56
302.531
302.503
302.498
302.506
302.509
302.527
302.529
302.55
302.562
302.539
302.544
302.55
302.53
302.529
302.582
302.586
302.621
302.637
340.251
339.863
339.387
339.134
339.01
339.077
339.144
339.272
339.416
339.491
339.762
339.71
339.708
339.737
339.718
339.555
340.112
340.499
340.66
341.183
334.571
334.262
333.83
333.64
333.526
333.579
333.645
333.757
333.883
333.95
334.196
334.114
334.109
334.14
334.118
333.935
334.487
334.805
334.938
335.375
329.037
328.808
328.4
328.277
328.193
328.207
328.279
328.362
328.462
328.535
328.751
328.668
328.663
328.667
328.659
328.521
328.98
329.27
329.361
329.693
323.621
323.441
323.105
323.007
322.966
322.933
323.014
323.086
323.136
323.235
323.395
323.342
323.313
323.298
323.314
323.212
323.589
323.806
323.893
324.122
318.313
318.148
317.896
317.825
317.775
317.749
317.841
317.873
317.913
317.999
318.102
318.1
318.029
318.041
318.055
317.969
318.295
318.418
318.513
318.656
313.035
312.933
312.742
312.684
312.642
312.625
312.703
312.734
312.747
312.824
312.874
312.932
312.839
312.846
312.86
312.796
313.034
313.124
313.198
313.284
307.813
307.759
307.64
307.585
307.567
307.561
307.607
307.633
307.626
307.671
307.716
307.759
307.687
307.699
307.733
307.663
307.821
307.86
307.903
307.972
302.621
302.603
302.561
302.525
302.539
302.529
302.546
302.554
302.547
302.566
302.577
302.6
302.574
302.573
302.59
302.575
302.619
302.631
302.649
302.659
)
;

boundaryField
{
    hotSide
    {
        type            fixedGradient;
        gradient        nonuniform List<scalar> 
400
(
280.988
282.016
285.01
289.921
296.556
304.636
313.861
323.959
334.702
345.911
357.452
369.226
381.165
393.222
405.371
417.601
429.91
442.304
454.79
467.37
269.311
270.496
273.787
279.12
286.264
294.888
304.65
315.246
326.435
338.028
349.891
361.926
374.069
386.279
398.537
410.838
423.19
435.606
448.101
460.685
262.946
264.47
268.074
273.69
281.085
289.934
299.895
310.664
321.993
333.695
345.63
357.703
369.848
382.031
394.233
406.457
418.715
431.025
443.406
455.871
261.564
263.594
267.538
273.325
280.759
289.559
299.422
310.069
321.262
332.813
344.584
356.475
368.424
380.395
392.376
404.37
416.393
428.464
440.607
452.836
263.843
266.474
270.804
276.76
284.18
292.837
302.476
312.852
323.745
334.975
346.407
357.943
369.524
381.119
392.72
404.336
415.985
427.693
439.481
451.368
268.284
271.55
276.324
282.526
290.014
298.595
308.049
318.158
328.72
339.565
350.566
361.633
372.718
383.802
394.888
405.996
417.152
428.386
439.724
451.188
273.663
277.565
282.836
289.388
297.079
305.731
315.136
325.084
335.38
345.862
356.409
366.95
377.456
387.931
398.401
408.902
419.476
430.16
440.986
451.976
279.053
283.564
289.362
296.349
304.377
313.261
322.785
332.726
342.877
353.068
363.188
373.188
383.073
392.884
402.679
412.524
422.475
432.581
442.877
453.388
283.736
288.784
295.089
302.544
310.994
320.236
330.03
340.117
350.255
360.255
370.008
379.494
388.767
397.918
407.05
416.257
425.616
435.181
444.993
455.073
287.148
292.595
299.308
307.176
316.036
325.668
335.801
346.131
356.365
366.279
375.762
384.829
393.588
402.188
410.775
419.469
428.36
437.508
446.951
456.708
288.89
294.53
301.462
309.576
318.704
328.614
339.012
349.562
359.928
369.855
379.226
388.082
396.57
404.878
413.177
421.605
430.256
439.193
448.452
458.05
288.791
294.371
301.274
309.388
318.543
328.503
338.968
349.598
360.055
370.082
379.557
388.516
397.101
405.496
413.872
422.364
431.069
440.052
449.349
458.98
286.963
292.233
298.864
306.745
315.701
325.499
335.849
346.434
356.95
367.159
376.942
386.3
395.329
404.169
412.964
421.834
430.873
440.146
449.695
459.544
283.818
288.579
294.767
302.273
310.922
320.481
330.676
341.216
351.832
362.312
372.529
382.449
392.113
401.605
411.028
420.478
430.04
439.776
449.734
459.943
280.059
284.182
289.846
296.95
305.312
314.694
324.821
335.414
346.222
357.043
367.743
378.261
388.592
398.778
408.882
418.976
429.132
439.408
449.851
460.496
276.686
280.11
285.245
291.995
300.166
309.49
319.673
330.425
341.495
352.681
363.844
374.905
385.833
396.639
407.362
418.053
428.772
439.573
450.502
461.593
275.04
277.769
282.409
288.871
296.929
306.273
316.567
327.501
338.816
350.309
361.84
373.319
384.706
395.993
407.203
418.374
429.557
440.803
452.156
463.647
276.744
278.864
283.056
289.234
297.144
306.433
316.735
327.724
339.135
350.771
362.491
374.206
385.866
397.457
408.988
420.49
432.004
443.577
455.251
467.055
283.244
284.928
288.707
294.505
302.07
311.05
321.083
331.848
343.09
354.615
366.285
378.01
389.736
401.437
413.116
424.79
436.494
448.264
460.137
472.136
294.972
296.414
299.811
305.102
312.077
320.442
329.881
340.106
350.881
362.022
373.393
384.9
396.482
408.106
419.762
431.456
443.209
455.045
466.99
479.057
)
;
    }
    coldSide
    {
        type            mixed;
        refValue        uniform 300;
        refGradient     uniform 0;
        valueFraction   uniform 0.991591;
        source          uniform 0;
        value           nonuniform List<scalar> 
400
(
300.014
300.014
300.014
300.014
300.014
300.015
300.015
300.016
300.016
300.017
300.017
300.018
300.018
300.019
300.02
300.02
300.021
300.021
300.022
300.022
300.013
300.013
300.014
300.014
300.014
300.014
300.015
300.015
300.016
300.017
300.017
300.018
300.018
300.019
300.019
300.02
300.021
300.021
300.022
300.022
300.013
300.013
300.013