/*--------------------------------*- C++ -*----------------------------------*\
| =========                 |                                                 |
| \\      /  F ield         | OpenFOAM: The Open Source CFD Toolbox           |
|  \\    /   O peration     | Version:  2212                                  |
|   \\  /    A nd           | Website:  www.openfoam.com                      |
|    \\/     M anipulation  |                                                 |
\*---------------------------------------------------------------------------*/
FoamFile
{
    version     2.0;
    format      ascii;
    arch        "LSB;label=32;scalar=64";
    class       volScalarField;
    location    "0";
    object      relativeErrorField;
}
// * * * * * * * * * * * * * * * * * * * * * * * * * * * * * * * * * * * * * //

dimensions      [0 0 0 1 0 0 0];

internalField   nonuniform List<scalar> 
3200
(
0.00560623
0.00518748
0.00502864
0.00523451
0.00560189
0.00633151
0.0073427
0.00802839
0.00880293
0.00946193
0.00976495
0.00974719
0.00919271
0.0089367
0.00862255
0.0084275
0.00804745
0.00820902
0.00893111
0.00927911
0.00464988
0.0039796
0.00389809
0.00424526
0.00460014
0.00532703
0.00586076
0.00673164
0.00711923
0.00788619
0.00812606
0.00815283
0.00755258
0.00745482
0.00710493
0.00688168
0.00651447
0.00668757
0.00718907
0.00756948
0.00363914
0.00311799
0.00329798
0.00332438
0.00362562
0.00394823
0.00486939
0.00540168
0.00603832
0.00640144
0.00648147
0.00647126
0.00624787
0.00584791
0.0056955
0.00555505
0.00547359
0.00561544
0.00562325
0.00615065
0.0026397
0.00248939
0.00282995
0.00247363
0.00263895
0.00316118
0.00368374
0.00426508
0.00475978
0.00480371
0.00517924
0.00498151
0.00485922
0.00467767
0.0043086
0.00423197
0.00411841
0.00443641
0.00468664
0.00491801
0.00197677
0.00187791
0.00191628
0.00184785
0.00216069
0.00230299
0.0028665
0.00312825
0.00366618
0.00347138
0.00395885
0.00388686
0.00377159
0.00338729
0.00333334
0.00327663
0.00332661
0.00303844
0.00337337
0.00387145
0.00153314
0.00127954
0.00126524
0.00134802
0.00143369
0.00162786
0.00218573
0.00221231
0.00280694
0.00273949
0.00290095
0.00273312
0.00259702
0.00238631
0.00246894
0.00231394
0.0022636
0.00231363
0.00236996
0.00255898
0.000770275
0.000901447
0.000739531
0.000842883
0.000786557
0.000819216
0.00108963
0.00144865
0.00158091
0.00152955
0.00154738
0.00147943
0.00166416
0.00132656
0.00153114
0.00140399
0.00120163
0.00126221
0.00123406
0.00137308
0.000121239
0.000128494
0.000269724
4.12486e-05
0.000265369
0.000425196
0.000252016
0.000353707
0.000448659
0.000567327
0.000511067
0.000436696
0.000365948
0.000541112
0.000582092
0.000487704
0.000395828
0.000647248
0.000484556
0.000757707
0.00293579
0.00270846
0.00249659
0.00255865
0.00292348
0.00356458
0.00457434
0.00524716
0.00576917
0.00657854
0.00675177
0.00666841
0.00659851
0.00640065
0.00548489
0.00541844
0.0053556
0.00546624
0.00601843
0.00667831
0.00246699
0.0020458
0.0018198
0.00202217
0.00245798
0.00279556
0.00351944
0.00436218
0.00480503
0.00546476
0.00549998
0.00538296
0.00534847
0.00494391
0.00465643
0.00437883
0.00441928
0.00463233
0.00500632
0.00552857
0.00194475
0.0016849
0.00150639
0.00166795
0.00175275
0.00203189
0.00282644
0.00339011
0.00390659
0.00433055
0.00458461
0.00450121
0.00442917
0.00409692
0.00366813
0.00357096
0.0036172
0.00352767
0.00412017
0.00414317
0.00125289
0.0010986
0.000886493
0.00099206
0.0011859
0.00185069
0.00221245
0.00275146
0.00316356
0.00339807
0.00358297
0.0034626
0.00310686
0.00307948
0.0026461
0.0025529
0.00285484
0.0027547
0.00312404
0.00335193
0.0009699
0.000946002
0.00082806
0.00082841
0.000926039
0.00126257
0.00166576
0.00204896
0.00224427
0.00250141
0.00240214
0.00280673
0.00256556
0.00243294
0.00204641
0.00206273
0.00208137
0.00208891
0.00244066
0.0026485
0.000866885
0.000775107
0.000494227
0.000688329
0.000445365
0.000881866
0.0010419
0.00126748
0.00156774
0.00179679
0.0018207
0.00199017
0.00176879
0.0015307
0.00159311
0.00131219
0.00151689
0.00143518
0.00128298
0.00189849
0.000228062
0.000246901
0.000407281
0.000354119
0.000220379
0.000446241
0.000706925
0.000901168
0.00100868
0.00122354
0.00111056
0.000858003
0.000950028
0.00117036
0.000998306
0.000745639
0.00086501
0.00100892
0.000876754
0.00112551
3.45558e-05
1.3545e-05
4.70133e-05
0.000149135
0.000272658
0.000114576
0.000224865
0.000298256
0.000641922
0.000392369
0.000276717
0.000381732
0.000307673
0.000193867
0.000354863
0.000322522
0.00012286
0.000277365
0.000493589
0.000392892
9.043e-06
0.000471507
0.000843534
0.000702032
0.000549291
0.000130735
0.000615993
0.0015676
0.00225287
0.0025756
0.00288759
0.00279774
0.00261487
0.00229165
0.00213685
0.00178367
0.00171686
0.00221758
0.00287897
0.00344731
0.000155267
0.000765777
0.000879654
0.000905357
0.000774459
1.52747e-05
0.000267843
0.00107238
0.00158977
0.00188399
0.00242148
0.00225824
0.00196801
0.00176725
0.00150056
0.00132948
0.0012849
0.00165229
0.00223482
0.00289197
0.000457403
0.000491289
0.000846496
0.000911636
0.000677727
0.000351287
0.000165215
0.000620629
0.000995782
0.00142434
0.00171847
0.00170606
0.00128331
0.00116449
0.00119118
0.000770607
0.00105075
0.00123677
0.00163346
0.00209037
0.000286941
0.000694267
0.00086318
0.000971556
0.00104056
0.000579924
0.000133051
0.000268548
0.000955058
0.000930129
0.00125231
0.0012024
0.000951104
0.00093269
0.000716103
0.000529846
0.000513809
0.000711463
0.00125163
0.00176485
0.000219371
0.000634878
0.000764787
0.000748459
0.000694676
0.000553648
6.83222e-05
0.00021392
0.000507373
0.000743039
0.000999527
0.000826195
0.000778491
0.00052014
0.000315095
0.000324746
0.000404002
0.00064377
0.00080395
0.00134353
0.000274859
0.000678065
0.000588824
0.000643752
0.000591323
0.00042517
4.05097e-05
0.000121506
0.000204353
0.000566609
0.000474572
0.000606939
0.000174045
0.00037442
0.00041927
1.24365e-05
0.000311823
0.000361645
0.000530726
0.000651941
0.000340727
0.000485063
0.00036463
0.000462338
0.000481416
0.000175561
0.00013205
0.000122083
0.000335951
0.000479671
0.000107001
0.00044924
0.000308801
0.000181078
0.000111199
0.00025939
8.52584e-05
0.000414838
0.00038804
0.000324257
8.54409e-05
3.66424e-05
0.000152187
7.73731e-05
0.00011402
7.59137e-05
6.62515e-05
0.000119747
7.40071e-05
0.000113524
9.18905e-05
0.000103479
6.82122e-05
0.000154366
4.11223e-05
8.84677e-05
6.24548e-06
8.56071e-06
0.000100427
0.000118299
0.00259442
0.00377621
0.00401627
0.00435744
0.00390776
0.00358366
0.00302658
0.002281
0.00202273
0.00126196
0.00118846
0.00127085
0.00140627
0.00141706
0.00158126
0.00197595
0.00162839
0.00121432
0.00048664
0.000510471
0.00286539
0.00316083
0.003793
0.00412121
0.00393058
0.00331086
0.00305305
0.00222921
0.00173828
0.00153358
0.00129054
0.00122553
0.0014334
0.00169942
0.00165113
0.00184215
0.00151685
0.00133074
0.000624614
0.000114408
0.0024949
0.00285863
0.00313655
0.00357111
0.0033666
0.00308268
0.00284561
0.00222212
0.00186798
0.00150762
0.00134363
0.00132292
0.00135262
0.00171777
0.00171817
0.00185091
0.00150803
0.00152183
0.000524688
0.000169765
0.00203367
0.00250421
0.00287474
0.00291152
0.00296081
0.00269371
0.00241868
0.00209512
0.0014617
0.00146852
0.00131311
0.00131078
0.0012506
0.00152846
0.00148792
0.00175133
0.00133106
0.00127633
0.000792586
0.00016832
0.00160594
0.00218366
0.00216185
0.00250642
0.00235877
0.00224399
0.00204887
0.00171706
0.00123015
0.00126238
0.00118484
0.00103031
0.000997122
0.00129936
0.00152877
0.00133643
0.00129381
0.000889677
0.00060375
0.000146664
0.00127815
0.00134083
0.00171417
0.00185229
0.00170577
0.0018031
0.00151597
0.00131304
0.000886803
0.000832308
0.000828378
0.000776608
0.000942292
0.000775997
0.00121341
0.00107856
0.00102451
0.000646801
0.00044354
0.000285708
0.000484374
0.000976765
0.000991574
0.00123196
0.00127881
0.00119889
0.000904542
0.000575552
0.00062166
0.000500612
0.000550935
0.000315634
0.000561608
0.000707698
0.000669381
0.000634054
0.000480235
0.000462348
0.000299022
0.000266689
8.31936e-05
0.000149592
0.000391039
0.000472492
0.000339918
0.000368606
0.000417473
0.000302466
0.000108531
0.000344959
0.000374642
1.77242e-06
0.000101072
0.000106862
0.000289244
0.000138854
0.000204846
0.000152196
0.000123368
0.000104663
0.00543241
0.00639906
0.00695535
0.00743928
0.00741063
0.00696095
0.00667484
0.00609062
0.00553943
0.0051641
0.00519826
0.00490211
0.00512304
0.00517756
0.00523526
0.00517226
0.00484861
0.0043458
0.0035038
0.00228986
0.00489231
0.00574292
0.0063977
0.00668796
0.00675876
0.00649117
0.00609467
0.00569724
0.00510447
0.0047139
0.00473234
0.00455052
0.00464687
0.00476388
0.00481855
0.00471769
0.00457644
0.00408149
0.00325659
0.00216241
0.00451151
0.004879
0.00552002
0.00594184
0.00593085
0.00565993
0.00540296
0.00501999
0.00455131
0.00422559
0.00425158
0.0041835
0.00439904
0.00430259
0.00450913
0.00430805
0.00404965
0.00365638
0.00297421
0.00194092
0.00368714
0.00430854
0.00480525
0.00503165
0.00487317
0.00479728
0.00432913
0.00436595
0.00411752
0.00367326
0.00363617
0.00360515
0.00347168
0.00382059
0.00380815
0.00381256
0.00339708
0.00310074
0.00254782
0.00189017
0.00295069
0.00351187
0.00366405
0.00392329
0.00381887
0.0037071
0.00385427
0.00343438
0.00298576
0.00273201
0.00300724
0.00289588
0.00287843
0.00304109
0.00317606
0.00296316
0.00286617
0.00236742
0.00228587
0.00154409
0.0022012
0.00250637
0.00294582
0.00288323
0.00321936
0.00300092
0.00289121
0.00245505
0.00229448
0.00216738
0.00207284
0.00236895
0.00253388
0.00240376
0.00235622
0.00239316
0.00215529
0.00191056
0.00152738
0.00133395
0.00130598
0.00153562
0.00177779
0.00164672
0.00174216
0.00183295
0.00170963
0.00149582
0.00144572
0.00131879
0.00134187
0.00154399
0.00130102
0.00133463
0.00150281
0.00147757
0.00111059
0.0013194
0.00101618
0.000740677
0.000539648
0.000602324
0.000796219
0.000575223
0.000503647
0.000492851
0.000727311
0.000760956
0.000491908
0.000387301
0.00048208
0.000503974
0.000432457
0.000659516
0.000513075
0.000645984
0.000319091
0.000322443
0.000219109
0.000336292
0.00773663
0.00854854
0.00946332
0.0100852
0.010373
0.0102211
0.00974944
0.00934309
0.0088782
0.00867166
0.00836132
0.00838023
0.0084963
0.00848264
0.0086126
0.00823445
0.00782625
0.00686763
0.00597005
0.00488613
0.00701861
0.00776263
0.00843625
0.00897759
0.00919933
0.0089826
0.00893073
0.00857053
0.00792224
0.00798091
0.00757418
0.00772268
0.00778495
0.00781319
0.00763445
0.00763916
0.00696974
0.0062142
0.00544374
0.00446109
0.00642787
0.00680456
0.00750301
0.00784372
0.00806476
0.00799613
0.00800893
0.00747251
0.00715878
0.00695774
0.00680805
0.00704357
0.00660646
0.00674843
0.0068926
0.00666478
0.00637444
0.00550917
0.00488323
0.00416456
0.00540335
0.00550479
0.0062163
0.0067106
0.00694006
0.00669467
0.00671362
0.00624661
0.00605894
0.00588708
0.00592982
0.00587605
0.00574263
0.00596625
0.00569831
0.00560323
0.00519412
0.00466005
0.00415474
0.00332529
0.00442179
0.00446526
0.00504817
0.00537109
0.0055234
0.00549933
0.00539486
0.00513308
0.00502083
0.00478336
0.00467142
0.00478091
0.00474471
0.00451423
0.00451078
0.00439707
0.00445345
0.00396733
0.00320744
0.00276263
0.00316322
0.00334211
0.00360147
0.0037593
0.00391799
0.00400203
0.00392511
0.00345689
0.0036635
0.00342814
0.00349823
0.0035199
0.00361672
0.00374444
0.00378398
0.0033547
0.0030117
0.00287835
0.00241255
0.00210526
0.00197647
0.00205529
0.00228172
0.00239899
0.00248665
0.00234199
0.00233541
0.00229333
0.00213166
0.0023335
0.00238727
0.00226285
0.00224147
0.00216697
0.00230467
0.00192607
0.00200331
0.00171317
0.00144989
0.00152546
0.000679323
0.000416755
0.00061121
0.000885349
0.000600313
0.000847668
0.0009655
0.000926903
0.000968126
0.000626067
0.000773893
0.000458549
0.000532829
0.000792719
0.000752263
0.000697237
0.000634279
0.000594697
0.000371961
0.000646337
0.00971898
0.0105853
0.0114725
0.0122277
0.0126764
0.0126348
0.0125604
0.012342
0.0121167
0.0117602
0.0116976
0.0113727
0.0114048
0.01131
0.0111245
0.0108225
0.0100912
0.00934067
0.00794428
0.00663891
0.00857779
0.0094381
0.0103957
0.0109704
0.0111452
0.0113405
0.0114778
0.0112563
0.0106691
0.0104194
0.0104856
0.0104101
0.0103722
0.010093
0.0101264
0.00995238
0.00944781
0.00825742
0.00729355
0.00618538
0.00730041
0.00817082
0.00913411
0.00973831
0.00982655
0.0100568
0.00986673
0.00947673
0.0093535
0.00928191
0.00907351
0.00908862
0.00884484
0.00904106
0.00868846
0.0087387
0.0081368
0.00735272
0.00649544
0.00556078
0.00637654
0.00703664
0.00758772
0.0081966
0.00831345
0.00847066
0.00818964
0.0081761
0.007964
0.00790397
0.00766825
0.00770275
0.00748138
0.00766457
0.00774093
0.00702738
0.00676222
0.00633304
0.0055802
0.00480064
0.00479414
0.00548333
0.00616214
0.00665215
0.00676071
0.00650259
0.00648381
0.00630902
0.00645025
0.00631803
0.00620547
0.00622187
0.00603536
0.0059987
0.00605197
0.00598334
0.00562491
0.00495683
0.00454608
0.00374389
0.00350544
0.0038867
0.0045964
0.00471478
0.00488676
0.00492215
0.00493208
0.00460629
0.00475613
0.00486948
0.0044579
0.00437876
0.004574
0.00446779
0.00431635
0.00423876
0.00399181
0.00363432
0.00305268
0.00283591
0.00232965
0.00233396
0.00266765
0.00294674
0.00280505
0.00310838
0.00302072
0.0030499
0.00279495
0.00268169
0.00274778
0.00278374
0.00288624
0.00290336
0.00274118
0.00264825
0.00234932
0.00225656
0.00184339
0.00173925
0.00090515
0.0010229
0.000871613
0.000968384
0.000820269
0.00111599
0.00106316
0.000948691
0.0011375
0.000970355
0.00103267
0.000846566
0.000910327
0.00104059
0.000863532
0.00101117
0.0011521
0.000833183
0.000836721
0.000326789
0.0106253
0.0117809
0.0130977
0.0139198
0.0145661
0.014636
0.0147143
0.0148332
0.0145172
0.014268
0.0142661
0.0137973
0.0139866
0.0137753
0.0134299
0.0129446
0.0119997
0.0110466
0.00955695
0.00822863
0.00979191
0.0107318
0.0118123
0.012462
0.0130717
0.0131681
0.0131609
0.0131065
0.0129856
0.0128648
0.0126924
0.0125479
0.0123693
0.0123512
0.0120333
0.0114036
0.0108809
0.00985529
0.00865561
0.00758827
0.00854649
0.00950617
0.0100557
0.0108583
0.0112655
0.0115148
0.0115582
0.0112798
0.0112977
0.0111091
0.0112463
0.0109217
0.0110559
0.0108749
0.0106649
0.0100319
0.00932043
0.00854545
0.00761039
0.0067281
0.00686229
0.00773913
0.00842618
0.00919515
0.00961534
0.00955087
0.0097707
0.00970291
0.00968301
0.00946327
0.0094927
0.0092772
0.00915531
0.0090515
0.00912049
0.00865962
0.00790778
0.00719235
0.00620057
0.00556885
0.00539357
0.00639089
0.00673149
0.00719253
0.00761452
0.00775293
0.00787158
0.0078117
0.00774544
0.00753088
0.00735274
0.00721112
0.00748045
0.0073622
0.00719178
0.00689588
0.00629429
0.00565856
0.0052988
0.00476047
0.00416067
0.00474283
0.00503775
0.00549271
0.00562251
0.00574783
0.00560422
0.00559371
0.00545512
0.00561211
0.00547619
0.00572405
0.00539274
0.00542247
0.0051871
0.00501073
0.0047559
0.00425777
0.00369399
0.00328834
0.00265151
0.00265793
0.00315226
0.00325288
0.00332823
0.00347192
0.00347441
0.00366348
0.00324781
0.00367649
0.00358605
0.00341715
0.00333959
0.00322094
0.00307335
0.00322757
0.00279696
0.00256762
0.00231312
0.00221518
0.000861876
0.00104288
0.00130226
0.00131033
0.00116729
0.0014476
0.00122258
0.00106254
0.00104816
0.00103347
0.00112028
0.0013215
0.00106359
0.00123459
0.00118642
0.00100278
0.000924701
0.000956236
0.000792951
0.000872909
0.0111625
0.0126026
0.0141952
0.0152049
0.0157923
0.0162439
0.0165488
0.016704
0.0166525
0.0162154
0.0160757
0.0158661
0.0156847
0.0156842
0.0150017
0.0142719
0.0135319
0.0118761
0.0103018
0.00906681
0.0102147
0.0113277
0.0128508
0.0136715
0.0140817
0.0148301
0.0148706
0.0150517
0.0145948
0.0146107
0.0144873
0.0140188
0.0142725
0.0139435
0.0134633
0.0129984
0.0119895
0.0109187
0.00935368
0.00812884
0.00880422
0.00999214
0.0109632
0.0116806
0.012506
0.0124908
0.0129013
0.0128852
0.012801
0.0126681
0.0126649
0.0125339
0.0124116
0.0123237
0.011827
0.011331
0.0105003
0.00955248
0.00851849
0.00723604
0.00744772
0.00818427
0.00933554
0.00975061
0.0102796
0.0106904
0.0109567
0.0110807
0.0108659
0.0107711
0.010694
0.0104249
0.0102278
0.0101312
0.00996908
0.0095522
0.00890775
0.0081443
0.00693795
0.00610849
0.00579313
0.00663863
0.00725619
0.00773964
0.00837733
0.00852918
0.00867904
0.00883514
0.00855151
0.00856708
0.00849902
0.00839277
0.00824408
0.00809421
0.00797547
0.00764681
0.00724193
0.00638797
0.00576725
0.00509183
0.0041918
0.00472488
0.00527378
0.00570956
0.00601601
0.00621288
0.00652103
0.00647467
0.00628298
0.00623298
0.00622251
0.00601961
0.00606753
0.0059874
0.0058465
0.00569822
0.00538756
0.00464437
0.00413423
0.00377223
0.00252531
0.00316074
0.0032801
0.00358992
0.00349221
0.00375421
0.00399156
0.00403201
0.00404891
0.00402197
0.00381054
0.00383835
0.00378643
0.00380186
0.0035849
0.00324521
0.00320246
0.00286059
0.00270065
0.00231559
0.000931252
0.000903895
0.000885024
0.00124407
0.00133529
0.00121741
0.00115461
0.00141344
0.00140368
0.00138499
0.00140105
0.00142425
0.0012843
0.00127734
0.00124267
0.00103309
0.000812422
0.000917618
0.00102883
0.000697201
0.0113838
0.0129972
0.0147325
0.0155716
0.0166591
0.0172442
0.017667
0.0180791
0.0178309
0.0177138
0.0176262
0.0172669
0.017132
0.0165762
0.01599
0.0153348
0.014291
0.0125058
0.0110575
0.00951966
0.0103051
0.0116478
0.0129153
0.013903
0.0149893
0.0153919
0.0158969
0.0158886
0.0159762
0.0160328
0.0159478
0.0156084
0.0151668
0.0148749
0.0145115
0.0139352
0.0126765
0.0114346
0.00995047
0.00871123
0.0088732
0.0101028
0.0112787
0.0122263
0.0129007
0.013389
0.0137161
0.013821
0.0137562
0.0138531
0.013815
0.0136134
0.0136014
0.0130304
0.0128223
0.0121086
0.0111732
0.0100872
0.00868398
0.00747417
0.00764893
0.00851968
0.00931338
0.0102408
0.0110527
0.0113335
0.0115851
0.0116357
0.0115076
0.0116001
0.0116628
0.0113735
0.0113178
0.010963
0.0106212
0.0102097
0.0094587
0.00847364
0.0073039
0.00630368
0.00580845
0.0067166
0.00766435
0.00837767
0.008654
0.00901409
0.00918235
0.00916208
0.00937597
0.0093314
0.00932918
0.00930753
0.0091126
0.00879805
0.00858384
0.00813005
0.00749756
0.00678495
0.00597474
0.00500609
0.00458059
0.00484085
0.00553884
0.00587433
0.00626563
0.00659414
0.00650647
0.00688706
0.00672157
0.00659537
0.0068338
0.00655489
0.00649622
0.00650749
0.00620299
0.00591817
0.0053086
0.00503853
0.00449765
0.00359305
0.00258581
0.00310775
0.00348406
0.00368297
0.00386839
0.00396763
0.00428629
0.00424943
0.00427569
0.00409677
0.00431418
0.00393668
0.0039331
0.00421608
0.00372059
0.00359462
0.00353585
0.00284219
0.00286974
0.00239501
0.00106936
0.00110738
0.00100281
0.00131715
0.00121721
0.00152927
0.00134843
0.0015318
0.00132876
0.00158344
0.0013982
0.00138841
0.00145775
0.00129312
0.00114568
0.00125668
0.00119027
0.00117393
0.000950651
0.00093856
0.0109349
0.0124586
0.0143088
0.015753
0.0168703
0.0176908
0.0182263
0.0184586
0.0185442
0.0185223
0.0183845
0.0180269
0.0179383
0.0172426
0.0167653
0.0156262
0.0143011
0.0128236
0.0107763
0.00896623
0.00985679
0.0111372
0.012892
0.0140863
0.0150055
0.0156352
0.0160227
0.0164903
0.0165341
0.0167263
0.0163047
0.0163914
0.0160457
0.0155317
0.0150321
0.0140241
0.0127699
0.0114352
0.00986966
0.00822013
0.00838628
0.0097475
0.0110438
0.0123837
0.0129894
0.013665
0.0141547
0.0144655
0.0145865
0.014486
0.0141539
0.0142544
0.0140574
0.0134552
0.0129161
0.0120343
0.0111937
0.0100092
0.00857998
0.00718489
0.00718281
0.00800989
0.0092265
0.0102939
0.0107713
0.0117688
0.0119147
0.0120928
0.0121412
0.0121575
0.0118118
0.0119679
0.011755
0.0115288
0.0110829
0.0102862
0.00933661
0.00839755
0.00723493
0.00604252
0.00549678
0.00622223
0.00744084
0.00811814
0.00866216
0.00917565
0.00941872
0.00935298
0.00964163
0.00980819
0.00962659
0.00961041
0.00935032
0.00911086
0.00876241
0.00798842
0.00743205
0.00674938
0.00591515
0.00494515
0.00418481
0.00468189
0.00553062
0.00584322
0.00636571
0.00662925
0.00687826
0.0070973
0.00688855
0.00707526
0.00715246
0.00708967
0.0065879
0.00662822
0.00644282
0.00597466
0.00550214
0.00495877
0.00418227
0.00378434
0.0023512
0.00298365
0.0033319
0.00345399
0.00398787
0.00408985
0.00391943
0.00430019
0.00411866
0.00419886
0.0044871
0.00443315
0.00407563
0.00427593
0.00383068
0.00374866
0.0032847
0.00289603
0.00262679
0.00234475
0.000819662
0.000980977
0.000921703
0.00106124
0.00139513
0.00145147
0.00127895
0.00136995
0.00156485
0.00145158
0.00159833
0.00163637
0.00159858
0.00146516
0.00134751
0.00122741
0.00118892
0.000967327
0.00111056
0.000858489
0.00987403
0.0116417
0.0134076
0.0150793
0.0164638
0.0174145
0.0179616
0.0184424
0.0186712
0.0186125
0.0184264
0.0182569
0.0176542
0.017374
0.0164176
0.0152465
0.0138678
0.0121609
0.0100661
0.00818826
0.00859805
0.0103939
0.0120263
0.013478
0.014617
0.0151611
0.0160792
0.0164271
0.0165606
0.0166514
0.0166706
0.0164034
0.0159068
0.0152983
0.0146176
0.0134423
0.0125145
0.0106094
0.00894456
0.00747027
0.0074989
0.00896355
0.0104167
0.0116658
0.0126498
0.0135863
0.0140812
0.0144993
0.0142975
0.0143832
0.0145025
0.0142125
0.0138805
0.0134838
0.012857
0.0118755
0.0109383
0.0094875
0.00779757
0.00654016
0.00650978
0.00755307
0.00865452
0.0096991
0.0106465
0.0113158
0.011724
0.0119926
0.0121052
0.012286
0.0122003
0.0119982
0.0118259
0.0112803
0.0108303
0.00994114
0.0093114
0.00796505
0.00667478
0.00540143
0.00498607
0.00595812
0.00683528
0.00784268
0.00837528
0.00888643
0.00948025
0.00955055
0.00967031
0.00983415
0.00972907
0.00956156
0.00953307
0.00890507
0.00858619
0.00796747
0.00729732
0.00647693
0.00550036
0.00460976
0.0040056
0.00441144
0.00515074
0.00576737
0.00622367
0.00640743
0.00666492
0.0070757
0.0071803
0.00709208
0.00721076
0.00708229
0.00693627
0.00651165
0.00639478
0.00583822
0.00531858
0.0048642
0.00389389
0.00326799
0.00213154
0.00268166
0.00325864
0.00334159
0.0039203
0.00402288
0.00428671
0.00428119
0.00432811
0.0044563
0.00440723
0.00423526
0.00421935
0.0039522
0.00400943
0.00375033
0.00325703
0.00293573
0.00221545
0.00198343
0.000552302
0.000917392
0.000958245
0.0010374
0.00118458
0.00136016
0.00141646
0.00157058
0.00170062
0.00150039
0.00140158
0.00159799
0.00156582
0.00139222
0.00118347
0.00129736
0.0012923
0.00114907
0.000779833
0.000849204
0.00792922
0.00996242
0.0119316
0.0139049
0.0152161
0.0163985
0.0169776
0.0175556
0.0179504
0.0181088
0.0181944
0.0177043
0.017168
0.016701
0.0158081
0.0141975
0.0126614
0.0108901
0.00871079
0.00681217
0.00710424
0.00898673
0.0107174
0.0121734
0.0137402
0.0145783
0.0152523
0.0158452
0.0161284
0.0161541
0.0162411
0.0159291
0.0155206
0.0148839
0.0139803
0.0126882
0.0115336
0.00972433
0.00788709
0.00615468
0.00634783
0.0075706
0.00932388
0.0108001
0.0116707
0.0126572
0.013283
0.0136253
0.0140654
0.013997
0.01382
0.0138308
0.0135007
0.0126841
0.012085
0.0112231
0.00972236
0.00841931
0.00682435
0.00516649
0.00513943
0.00662924
0.00761582
0.00906161
0.0098503
0.0105342
0.011092
0.0117727
0.0119273
0.011924
0.0117711
0.0116934
0.0113493
0.0108186
0.0102121
0.00934093
0.00831349
0.00731979
0.00572638
0.0046545
0.0043806
0.00527402
0.00634334
0.00690177
0.00790663
0.00854215
0.00903366
0.00916942
0.00939906
0.00940713
0.00928545
0.00924157
0.00905552
0.00863673
0.00819071
0.00758295
0.00669066
0.00580586
0.00459852
0.00376814
0.00326861
0.00394431
0.00433893
0.00518413
0.00573569
0.00643709
0.0064819
0.00656434
0.00696325
0.00700467
0.00693746
0.00678093
0.00662773
0.00644073
0.00594177
0.00566226
0.00496438
0.00397974
0.00341021
0.00273534
0.00193444
0.00222039
0.0028869
0.00315509
0.00351112
0.00376405
0.00409465
0.00411971
0.00406642
0.00424169
0.00415791
0.00432608
0.00416982
0.00415704
0.00384494
0.00337231
0.00330478
0.00258969
0.00221171
0.00173512
0.000720317
0.000769201
0.000855528
0.00114544
0.00111711
0.00124934
0.00133006
0.00147729
0.00157364
0.0014787
0.00151839
0.00156165
0.00122443
0.00149232
0.00120718
0.00135367
0.00100604
0.001109
0.000820149
0.000567272
0.00569057
0.00770908
0.00985998
0.012088
0.0134079
0.0148974
0.0156252
0.0164198
0.0168055
0.016871
0.0169848
0.0165031
0.0158859
0.0151361
0.0138782
0.0126299
0.0110332
0.00871637
0.00653028
0.00469638
0.00485949
0.00664244
0.00868901
0.0104844
0.0119993
0.0131462
0.0139049
0.0144163
0.0146982
0.0149617
0.0150204
0.0146048
0.0141719
0.0138776
0.0127328
0.011475
0.00986295
0.00811804
0.00578476
0.0040455
0.00450631
0.00579702
0.00752001
0.00920755
0.0105022
0.0113362
0.0121063
0.0126702
0.0128075
0.0131321
0.0129019
0.0127454
0.0124475
0.0119128
0.0110187
0.0101587
0.00845222
0.00695765
0.00529553
0.00382934
0.0037025
0.00483855
0.00627543
0.00779754
0.0087947
0.00967461
0.0101147
0.0104542
0.0106721
0.0110743
0.0110991
0.0106752
0.0103206
0.00994827
0.00912546
0.0084532
0.00731636
0.0059171
0.00449527
0.00326028
0.00297063
0.00417699
0.00526359
0.00608268
0.00706952
0.00765241
0.00830773
0.00858654
0.00856762
0.00868881
0.00865008
0.00857285
0.00840214
0.00792566
0.00754275
0.00675873
0.00586478
0.0048922
0.00371087
0.00276933
0.00223423
0.00281218
0.00372823
0.00450176
0.00528097
0.00554622
0.00603103
0.00616408
0.00636545
0.00651787
0.00627344
0.00638072
0.00605944
0.00556907
0.00541319
0.00485686
0.00416715
0.00326584
0.00272006
0.00179432
0.00133469
0.00174294
0.00227781
0.00278629
0.00306686
0.00326168
0.0037103
0.00371152
0.00377228
0.00416766
0.00382734
0.00390023
0.00391631
0.00341665
0.003196
0.00312341
0.00257661
0.00214007
0.00164793
0.00116312
0.000467872
0.000339443
0.000704781
0.00112739
0.00106553
0.00126266
0.00138367
0.00156996
0.00136986
0.00136266
0.00134175
0.001071
0.00131074
0.000918135
0.00114836
0.00102946
0.000871574
0.000597604
0.000546847
0.000586427
0.00267544
0.00492743
0.00725999
0.00924087
0.011043
0.0124752
0.0133759
0.0142367
0.0147516
0.0147397
0.0148417
0.0145014
0.0139774
0.0131568
0.0118367
0.0104126
0.00865556
0.00647974
0.00396389
0.00156525
0.00222296
0.00424908
0.00635257
0.00819486
0.00971565
0.0109676
0.0119874
0.0126659
0.012997
0.0132099
0.0134134
0.012906
0.012416
0.0115587
0.010594
0.00940886
0.00768115
0.0057493
0.00361421
0.00177358
0.00217201
0.00373119
0.0056348
0.00724314
0.00869484
0.00960353
0.0104935
0.0108826
0.0113987
0.0116319
0.0114561
0.0112317
0.0109342
0.0100486
0.0092425
0.00800557
0.006458
0.00505893
0.00335709
0.00168476
0.00166275
0.00316007
0.00459549
0.00595416
0.00715188
0.007944
0.00884082
0.00938279
0.00961847
0.00978464
0.00980313
0.00943799
0.00917449
0.00847296
0.00785365
0.00689459
0.00556692
0.00423922
0.00278959
0.00141778
0.00140592
0.00256991
0.00367094
0.00482542
0.0056098
0.00636168
0.00687327
0.00744594
0.00776049
0.00792946
0.00785906
0.00755144
0.00733456
0.00678197
0.00629103
0.00535049
0.00471142
0.00354886
0.00236307
0.00116686
0.00104837
0.00188091
0.00293477
0.00362852
0.00439594
0.00476198
0.00519331
0.00525701
0.00553282
0.00550559
0.00584831
0.00565979
0.00540968
0.0050842
0.0044348
0.00415509
0.00336842
0.00269141
0.00143965
0.000945918
0.000657906
0.00116252
0.00128546
0.00220955
0.00260545
0.00286238
0.00301726
0.00341966
0.00366245
0.00349331
0.00342266
0.00338627
0.0033945
0.0030204
0.00293022
0.00261576
0.00211239
0.0016729
0.000939991
0.000405169
0.000255966
0.000721568
0.000612365
0.000794881
0.000707767
0.00105802
0.00100101
0.0011734
0.00129083
0.00114421
0.00116431
0.00119263
0.00136916
0.000989096
0.000902078
0.000783992
0.000925456
0.000383627
0.000158317
0.000174282
0.000975943
0.00105709
0.00351229
0.00605497
0.00773213
0.00952405
0.0107039
0.0114693
0.0120532
0.0120999
0.0120941
0.0117172
0.0109847
0.0103215
0.00882163
0.00744139
0.00539547
0.00336889
0.000418923
0.0016761
0.000776804
0.00105111
0.00327372
0.00544982
0.00717627
0.00828876
0.00935884
0.0102329
0.0106108
0.0108839
0.0108955
0.0103417
0.0102245
0.00929519
0.0080647
0.0067848
0.00496063
0.00301098
0.000702864
0.0014348
0.000643215
0.000975917
0.00299361
0.00465404
0.00615246
0.00726157
0.00841841
0.00894314
0.00930916
0.00950829
0.00970435
0.00901086
0.00883344
0.00809379
0.00705702
0.00573735
0.0042918
0.00253279
0.000621581
0.000937344
0.000601158
0.000976274
0.00242762
0.00394434
0.00538337
0.00623011
0.00694646
0.00756411
0.00754744
0.00812883
0.00804557
0.00794221
0.00744772
0.00691438
0.00573116
0.00492934
0.00369358
0.00225823
0.00050546
0.0006235
0.000487789
0.000576725
0.00187019
0.00312382
0.00427076
0.00482627
0.00567203
0.0059644
0.00626857
0.00643444
0.00634383
0.00624338
0.00571316
0.00513827
0.004682
0.00401457
0.00302047
0.00186446
0.000645268
0.000446834
0.000225289
0.000723763
0.00143003
0.00237747
0.00277639
0.00360385
0.00421459
0.00431814
0.00429678
0.00456912
0.00478571
0.0046462
0.00439021
0.00384761
0.00354842
0.00287803
0.00224587
0.00122035
0.000445351
0.000237461
1.88713e-05
0.000303973
0.000968095
0.00132995
0.00175496
0.00227899
0.00249115
0.00288638
0.0027474
0.00276849
0.00278932
0.00284431
0.00258017
0.00259774
0.00194737
0.00184437
0.00115349
0.000687631
0.000121671
5.43284e-05
2.00378e-05
3.68316e-05
0.000162722
0.000457313
0.000870672
0.000954104
0.0006225
0.000747131
0.000894491
0.00100594
0.00108145
0.000959756
0.00101571
0.000878704
0.000847391
0.000538101
0.000685986
0.000322738
3.1658e-05
9.97883e-06
0.00537619
0.00276651
0.000260787
0.002279
0.004288
0.00573202
0.00707007
0.00811479
0.00874807
0.00885919
0.00864829
0.008491
0.00792347
0.00685341
0.00553185
0.00388089
0.00182054
0.000525818
0.00314897
0.00576705
0.00457358
0.00253441
0.000172018
0.001978
0.00374439
0.00506027
0.00626037
0.007114
0.00769251
0.00809599
0.00776633
0.00767364
0.00716828
0.00618737
0.00497898
0.00369712
0.00170112
0.000561556
0.0028428
0.00487107
0.00389006
0.00222604
0.000310063
0.00168233
0.0033591
0.00451756
0.00544067
0.00617529
0.00657836
0.00686436
0.00689572
0.00687433
0.00624915
0.00544672
0.00442587
0.00322774
0.00147224
0.000369493
0.00232201
0.00411573
0.00312339
0.00185886
0.000272174
0.00149148
0.00291129
0.00382113
0.00493488
0.00517408
0.00565987
0.00588551
0.00559954
0.0056273
0.00502175
0.00476366
0.0037792
0.00254116
0.00147167
0.000285639
0.00187032
0.00324433
0.00248805
0.0014655
3.2984e-06
0.00123478
0.00224397
0.00306152
0.00380307
0.0043993
0.00455413
0.00470821
0.00465911
0.00451197
0.00431688
0.00371007
0.00308274
0.00221358
0.00116245
0.000171024
0.00143938
0.00250275
0.0018952
0.00107919
0.000106433
0.00108639
0.0016244
0.0022736
0.00277609
0.00312439
0.00338052
0.00354308
0.00337218
0.00352031
0.00326482
0.00282852
0.00221222
0.00166111
0.000749917