/*--------------------------------*- C++ -*----------------------------------*\
| =========                 |                                                 |
| \\      /  F ield         | OpenFOAM: The Open Source CFD Toolbox           |
|  \\    /   O peration     | Version:  2212                                  |
|   \\  /    A nd           | Website:  www.openfoam.com                      |
|    \\/     M anipulation  |                                                 |
\*---------------------------------------------------------------------------*/
FoamFile
{
    version     2.0;
    format      ascii;
    arch        "LSB;label=32;scalar=64";
    class       volScalarField;
    location    "0";
    object      stateMean;
}
// * * * * * * * * * * * * * * * * * * * * * * * * * * * * * * * * * * * * * //

dimensions      [0 0 0 1 0 0 0];

internalField   nonuniform List<scalar> 
3200
(
333.997
334.6
335.244
335.818
336.356
336.759
337.016
337.288
337.394
337.363
337.26
337.072
336.892
336.475
335.983
335.4
334.868
334.172
333.341
332.763
329.679
330.292
330.829
331.272
331.727
332.048
332.388
332.534
332.722
332.634
332.554
332.376
332.259
331.855
331.454
330.967
330.517
329.903
329.228
328.712
325.318
325.813
326.185
326.646
327.034
327.403
327.539
327.734
327.793
327.815
327.789
327.65
327.455
327.217
326.829
326.401
325.942
325.426
324.994
324.498
320.9
321.21
321.452
321.952
322.295
322.516
322.706
322.819
322.879
322.98
322.858
322.807
322.627
322.384
322.145
321.78
321.421
320.934
320.503
320.167
316.331
316.563
316.824
317.145
317.355
317.612
317.712
317.863
317.862
318.014
317.859
317.792
317.657
317.546
317.284
317
316.675
316.468
316.089
315.731
311.659
311.881
312.08
312.268
312.462
312.617
312.642
312.801
312.737
312.823
312.772
312.76
312.681
312.579
312.354
312.187
311.982
311.752
311.541
311.339
307.062
307.107
307.274
307.37
307.52
307.64
307.676
307.667
307.699
307.754
307.748
307.73
307.6
307.603
307.421
307.33
307.259
307.113
307.005
306.877
302.411
302.438
302.434
302.547
302.523
302.518
302.611
302.614
302.609
302.586
302.603
302.613
302.61
302.523
302.471
302.455
302.439
302.32
302.33
302.219
335.016
335.552
336.211
336.829
337.363
337.791
338.042
338.313
338.501
338.417
338.358
338.195
337.854
337.421
337.14
336.519
335.884
335.21
334.438
333.758
330.508
331.036
331.618
332.104
332.529
332.974
333.246
333.397
333.563
333.508
333.497
333.37
333.067
332.77
332.352
331.888
331.306
330.684
330.054
329.493
325.961
326.369
326.855
327.269
327.723
328.103
328.276
328.456
328.551
328.552
328.468
328.355
328.113
327.857
327.565
327.126
326.63
326.193
325.573
325.243
321.42
321.73
322.147
322.495
322.827
322.997
323.235
323.359
323.443
323.481
323.421
323.345
323.244
322.954
322.74
322.385
321.893
321.545
321.078
320.744
316.708
316.915
317.223
317.52
317.795
317.988
318.135
318.246
318.352
318.359
318.39
318.172
318.081
317.891
317.738
317.434
317.122
316.823
316.441
316.175
311.908
312.079
312.36
312.511
312.806
312.883
313.031
313.126
313.151
313.143
313.136
313.019
312.968
312.877
312.66
312.534
312.252
312.065
311.92
311.586
307.254
307.332
307.399
307.542
307.715
307.774
307.812
307.852
307.891
307.863
307.898
307.938
307.837
307.669
307.604
307.554
307.385
307.214
307.138
306.978
302.446
302.489
302.509
302.521
302.527
302.618
302.625
302.636
302.557
302.644
302.679
302.635
302.633
302.634
302.546
302.512
302.529
302.439
302.336
302.337
336.244
336.86
337.565
338.146
338.741
339.143
339.561
339.728
339.851
339.928
339.822
339.665
339.371
338.991
338.462
337.951
337.329
336.532
335.732
335.088
331.589
332.176
332.713
333.266
333.783
334.077
334.486
334.641
334.775
334.839
334.659
334.551
334.341
333.985
333.571
333.082
332.537
331.872
331.18
330.579
326.926
327.257
327.793
328.275
328.671
329.027
329.282
329.489
329.626
329.622
329.525
329.392
329.271
328.952
328.519
328.195
327.631
327.111
326.562
326.094
322.064
322.452
322.849
323.261
323.669
323.899
324.102
324.264
324.253
324.373
324.268
324.173
324.043
323.757
323.479
323.162
322.781
322.342
321.825
321.404
317.201
317.529
317.837
318.124
318.407
318.656
318.772
318.909
318.98
318.992
318.91
318.878
318.729
318.584
318.38
318.083
317.758
317.39
317.073
316.705
312.348
312.614
312.775
313
313.199
313.357
313.429
313.541
313.632
313.58
313.609
313.506
313.524
313.299
313.093
313.01
312.701
312.478
312.236
312.058
307.479
307.606
307.682
307.838
307.972
308.004
308.107
308.125
308.13
308.123
308.238
308.096
308.068
308.01
307.916
307.744
307.67
307.442
307.338
307.274
302.499
302.49
302.585
302.604
302.659
302.689
302.725
302.774
302.783
302.74
302.746
302.73
302.759
302.658
302.654
302.651
302.583
302.536
302.531
302.437
337.489
338.333
338.979
339.709
340.186
340.692
341.067
341.288
341.543
341.466
341.441
341.287
340.99
340.52
340.012
339.532
338.786
338.033
337.224
336.444
332.81
333.284
333.983
334.623
335.105
335.43
335.831
335.965
336.098
336.187
336.105
335.926
335.699
335.378
334.875
334.408
333.755
333.164
332.442
331.821
327.865
328.296
328.798
329.389
329.783
330.139
330.473
330.613
330.748
330.761
330.707
330.568
330.326
330.101
329.689
329.284
328.712
328.269
327.532
327.105
322.85
323.253
323.708
324.086
324.478
324.758
325.006
325.184
325.184
325.293
325.243
325.135
324.91
324.718
324.368
324.087
323.575
323.192
322.702
322.249
317.815
318.19
318.443
318.837
319.083
319.331
319.53
319.644
319.648
319.742
319.717
319.584
319.414
319.291
319.103
318.757
318.451
318.039
317.689
317.352
312.786
312.942
313.243
313.49
313.653
313.887
313.983
314.076
314.056
314.098
314.097
314.022
313.96
313.751
313.702
313.457
313.231
312.909
312.662
312.476
307.597
307.83
307.945
308.141
308.281
308.378
308.4
308.392
308.475
308.473
308.489
308.38
308.388
308.339
308.215
308.082
307.91
307.782
307.622
307.53
302.523
302.57
302.68
302.746
302.748
302.798
302.849
302.847
302.811
302.894
302.903
302.779
302.786
302.755
302.774
302.687
302.665
302.608
302.562
302.53
338.941
339.7
340.436
341.194
341.792
342.231
342.675
342.93
343.071
343.116
343.127
342.854
342.6
342.165
341.644
341.033
340.317
339.554
338.723
337.882
333.914
334.562
335.254
335.864
336.413
336.835
337.17
337.43
337.515
337.533
337.539
337.329
337.077
336.725
336.276
335.731
335.16
334.483
333.735
333.007
328.891
329.314
329.923
330.495
330.935
331.277
331.588
331.793
331.878
331.897
331.905
331.756
331.588
331.225
330.898
330.401
329.873
329.312
328.69
328.049
323.683
324.128
324.612
325.039
325.351
325.679
325.85
326.132
326.247
326.205
326.193
326.08
325.841
325.685
325.358
325.007
324.511
324.062
323.559
323.104
318.475
318.84
319.14
319.498
319.745
319.984
320.282
320.356
320.366
320.364
320.452
320.337
320.179
320.022
319.815
319.473
319.161
318.728
318.45
318.028
313.241
313.469
313.786
313.963
314.268
314.396
314.54
314.552
314.61
314.627
314.598
314.634
314.577
314.387
314.194
314.01
313.735
313.462
313.163
312.97
307.951
308.099
308.281
308.359
308.509
308.654
308.723
308.747
308.796
308.792
308.799
308.826
308.687
308.607
308.552
308.427
308.194
308.14
307.94
307.777
302.695
302.74
302.835
302.807
302.826
302.862
302.969
303.009
302.949
302.929
302.958
302.953
302.91
302.949
302.868
302.87
302.73
302.692
302.624
302.634
340.344
341.036
341.873
342.653
343.332
343.843
344.196
344.487
344.639
344.732
344.626
344.469
344.198
343.765
343.295
342.605
341.887
340.994
340.164
339.381
335.164
335.764
336.445
337.118
337.693
338.108
338.535
338.785
338.835
338.996
338.859
338.768
338.521
338.16
337.656
337.171
336.447
335.703
334.992
334.313
329.98
330.395
331.007
331.535
332.031
332.42
332.799
332.935
333.058
333.111
333.061
333.02
332.649
332.383
332.056
331.57
331.052
330.352
329.764
329.237
324.615
324.882
325.423
325.924
326.343
326.6
326.912
327.016
327.139
327.181
327.195
327.08
326.852
326.669
326.277
325.91
325.433
324.92
324.445
323.944
319.236
319.43
319.858
320.224
320.541
320.794
320.997
321.113
321.22
321.219
321.183
321.143
320.989
320.716
320.478
320.182
319.931
319.514
319.03
318.709
313.752
313.936
314.188
314.427
314.667
314.879
315.025
315.019
315.186
315.166
315.188
315.141
315.069
314.968
314.811
314.49
314.192
313.962
313.645
313.421
308.283
308.383
308.555
308.705
308.846
308.913
309.013
309.084
309.095
309.19
309.206
309.136
309.068
308.961
308.901
308.673
308.583
308.38
308.196
308.144
302.78
302.725
302.819
302.939
302.892
303.004
303.073
303.09
303.123
303.031
303.075
302.969
302.97
303.021
302.975
302.921
302.863
302.814
302.712
302.77
341.771
342.463
343.268
344.066
344.769
345.286
345.744
346.071
346.285
346.315
346.294
346.03
345.751
345.317
344.771
344.138
343.34
342.545
341.568
340.728
336.341
336.966
337.72
338.38
338.914
339.439
339.902
340.175
340.229
340.276
340.298
340.141
339.878
339.437
339.032
338.514
337.87
337.005
336.25
335.543
330.823
331.388
332.071
332.664
333.095
333.559
333.849
334.013
334.184
334.271
334.202
334.096
333.804
333.576
333.107
332.736
332.137
331.485
330.837
330.251
325.385
325.824
326.299
326.819
327.185
327.552
327.749
327.984
328.087
328.158
328.082
328.002
327.758
327.579
327.315
326.767
326.354
325.893
325.352
324.875
319.709
320.102
320.548
320.955
321.244
321.407
321.624
321.754
321.933
321.96
321.924
321.86
321.667
321.469
321.264
320.996
320.627
320.164
319.803
319.375
314.113
314.354
314.741
314.956
315.192
315.378
315.541
315.57
315.712
315.798
315.669
315.594
315.56
315.395
315.188
314.989
314.729
314.44
314.093
313.904
308.544
308.618
308.819
309.012
309.077
309.275
309.344
309.432
309.41
309.406
309.426
309.407
309.381
309.307
309.162
309.028
308.828
308.692
308.467
308.362
302.899
302.959
302.946
303.011
303.002
303.127
303.143
303.135
303.212
303.171
303.19
303.123
303.124
303.136
303.05
303.06
303.067
302.934
302.902
302.724
342.967
343.739
344.665
345.456
346.193
346.714
347.191
347.606
347.765
347.821
347.82
347.519
347.316
346.869
346.302
345.64
344.801
343.967
342.984
342.153
337.519
338.154
338.928
339.588
340.239
340.701
341.088
341.392
341.584
341.665
341.606
341.436
341.143
340.815
340.319
339.679
339.058
338.272
337.46
336.782
331.886
332.469
332.996
333.634
334.145
334.591
334.934
335.114
335.315
335.356
335.401
335.19
335.04
334.708
334.31
333.738
333.126
332.498
331.844
331.288
326.078
326.576
327.081
327.635
328.08
328.354
328.694
328.895
329.048
329.06
329.069
328.915
328.716
328.46
328.214
327.769
327.217
326.681
326.077
325.66
320.317
320.799
321.126
321.51
321.883
322.157
322.404
322.557
322.66
322.656
322.599
322.489
322.451
322.241
321.978
321.654
321.223
320.784
320.451
320.116
314.617
314.915
315.163
315.474
315.685
315.888
315.991
316.11
316.155
316.251
316.208
316.24
316.047
315.934
315.712
315.493
315.243
314.918
314.586
314.343
308.822
308.893
309.138
309.271
309.395
309.538
309.628
309.76
309.685
309.844
309.816
309.737
309.66
309.55
309.415
309.364
309.13
308.958
308.787
308.687
302.946
303.024
303.133
303.17
303.16
303.278
303.239
303.216
303.23
303.234
303.26
303.312
303.216
303.243
303.199
303.111
303.053
303.028
302.948
302.949
344.174
345.024
346.017
346.841
347.524
348.14
348.66
349.058
349.287
349.266
349.218
349.017
348.708
348.363
347.714
347.004
346.269
345.226
344.24
343.461
338.55
339.227
340.125
340.816
341.37
342.022
342.395
342.754
342.812
342.929
342.888
342.618
342.49
342.082
341.561
341.006
340.25
339.477
338.564
337.851
332.726
333.369
334.016
334.603
335.229
335.56
336
336.245
336.397
336.447
336.446
336.308
336.088
335.808
335.34
334.84
334.213
333.55
332.883
332.209
326.886
327.327
327.966
328.387
328.846
329.255
329.589
329.835
329.911
329.957
329.932
329.767
329.557
329.32
329.02
328.609
328.113
327.579
326.923
326.451
320.925
321.35
321.754
322.129
322.556
322.818
323.059
323.267
323.29
323.355
323.333
323.239
323.078
322.871
322.641
322.322
321.97
321.477
321.072
320.702
314.97
315.246
315.565
315.86
316.115
316.329
316.563
316.661
316.682
316.709
316.706
316.599
316.533
316.395
316.214
316.016
315.759
315.368
315.061
314.838
308.989
309.25
309.374
309.565
309.63
309.802
309.957
310.038
310.091
310.108
310.043
310.026
309.962
309.899
309.749
309.553
309.446
309.245
309.109
308.925
303.036
303.05
303.073
303.213
303.272
303.268
303.276
303.377
303.39
303.393
303.397
303.396
303.338
303.313
303.275
303.181
303.082
303.083
303.088
302.965
345.412
346.3
347.315
348.049
348.869
349.495
350.023
350.479
350.618
350.695
350.665
350.424
350.153
349.647
349.064
348.414
347.61
346.552
345.637
344.775
339.59
340.326
341.115
341.834
342.587
343.092
343.593
343.861
344.086
344.207
344.178
343.961
343.617
343.247
342.794
342.232
341.421
340.617
339.755
339.054
333.604
334.247
334.942
335.581
336.131
336.604
336.992
337.256
337.398
337.516
337.503
337.351
337.183
336.764
336.416
335.868
335.232
334.547
333.778
333.141
327.652
328.125
328.631
329.2
329.731
330.076
330.386
330.589
330.681
330.781
330.802
330.637
330.485
330.183
329.844
329.456
328.945
328.358
327.729
327.215
321.475
321.912
322.407
322.842
323.137
323.45
323.68
323.819
323.991
324.031
324.03
323.969
323.803
323.557
323.312
322.97
322.56
322.126
321.675
321.219
315.482
315.666
316.022
316.275
316.545
316.788
316.886
317.11
317.132
317.131
317.206
317.08
316.987
316.887
316.665
316.436
316.097
315.865
315.558
315.171
309.242
309.464
309.662
309.812
309.957
310.071
310.245
310.296
310.348
310.316
310.383
310.244
310.198
310.223
309.995
309.873
309.766
309.464
309.39
309.183
303.156
303.187
303.184
303.308
303.308
303.43
303.401
303.477
303.43
303.515
303.459
303.448
303.455
303.384
303.314
303.32
303.27
303.236
303.14
303.116
346.559
347.397
348.423
349.334
350.13
350.802
351.335
351.701
351.935
352.034
351.986
351.756
351.522
350.996
350.483
349.701
348.834
347.913
346.82
345.884
340.568
341.267
342.197
342.958
343.625
344.176
344.608
345.014
345.206
345.363
345.219
345.157
344.863
344.442
343.972
343.293
342.513
341.705
340.839
340.016
334.4
335.073
335.787
336.534
337.036
337.545
337.963
338.276
338.464
338.508
338.397
338.353
338.139
337.73
337.296
336.718
336.138
335.443
334.685
334.002
328.284
328.731
329.359
329.954
330.355
330.914
331.169
331.399
331.535
331.604
331.491
331.478
331.288
331.043
330.69
330.197
329.641
329.089
328.478
327.913
321.986
322.354
322.924
323.333
323.698
324.042
324.282
324.393
324.58
324.683
324.624
324.57
324.392
324.183
323.91
323.482
323.113
322.702
322.256
321.81
315.793
316.046
316.439
316.675
316.975
317.187
317.38
317.543
317.544
317.638
317.662
317.608
317.382
317.301
317.128
316.852
316.567
316.26
315.889
315.667
309.431
309.683
309.867
309.987
310.233
310.341
310.358
310.532
310.516
310.562
310.651
310.613
310.462
310.468
310.261
310.159
309.935
309.732
309.573
309.429
303.168
303.236
303.243
303.313
303.442
303.484
303.455
303.501
303.574
303.546
303.59
303.596
303.571
303.511
303.452
303.391
303.351
303.257
303.275
303.18
347.634
348.536
349.508
350.465
351.321
352.005
352.511
352.936
353.199
353.274
353.21
353.055
352.663
352.307
351.66
350.901
350.047
349.078
347.993
347.054
341.393
342.25
343.115
343.938
344.65
345.144
345.729
346.071
346.275
346.388
346.395
346.222
345.894
345.463
344.959
344.251
343.611
342.635
341.759
341.012
335.165
335.858
336.605
337.299
337.903
338.476
338.872
339.201
339.267
339.365
339.405
339.239
338.994
338.673
338.232
337.645
337.057
336.296
335.47
334.846
328.932
329.439
330.014
330.583
331.118
331.55
331.872
332.114
332.26
332.376
332.348
332.225
332.059
331.726
331.391
330.887
330.456
329.788
329.151
328.57
322.498
322.937
323.384
323.884
324.23
324.559
324.896
325.039
325.162
325.259
325.226
325.127
325.033
324.711
324.462
324.099
323.709
323.269
322.79
322.377
316.22
316.437
316.788
317.108
317.376
317.552
317.738
317.952
318.045
318.05
318.087
318.014
317.908
317.689
317.548
317.254
316.967
316.698
316.274
315.987
309.653
309.876
310.125
310.226
310.479
310.582
310.726
310.776
310.826
310.884
310.869
310.798
310.757
310.623
310.578
310.427
310.2
310.025
309.732
309.607
303.184
303.312
303.348
303.397
303.467
303.544
303.581
303.645
303.698
303.643
303.613
303.666
303.644
303.574
303.491
303.501
303.475
303.406
303.27
303.274
348.542
349.518
350.534
351.567
352.366
353.1
353.587
354.021
354.322
354.463
354.493
354.236
353.886
353.491
352.895
352.013
351.136
350.173
349.085
348.156
342.258
343.128
344.006
344.804
345.636
346.201
346.678
347.082
347.321
347.404
347.434
347.253
346.971
346.552
345.996
345.277
344.586
343.668
342.754
341.936
335.944
336.543
337.372
338.121
338.664
339.23
339.648
339.932
340.201
340.241
340.181
340.122
339.891
339.448
339.038
338.514
337.76
337.069
336.293
335.55
329.437
330.079
330.6
331.283
331.747
332.165
332.519
332.881
333.03
333.08
333.03
332.953
332.742
332.429
332.059
331.58
331.037
330.503
329.783
329.279
323.045
323.45
323.947
324.289
324.773
325.127
325.417
325.569
325.719
325.762
325.723
325.668
325.532
325.289
325.013
324.668
324.221
323.774
323.233
322.848
316.517
316.814
317.047
317.429
317.717
318.046
318.154
318.258
318.437
318.478
318.457
318.379
318.278
318.141
317.89
317.694
317.36
316.933
316.645
316.349
309.91
310.048
310.319
310.471
310.65
310.792
310.951
311.005
311.022
311.092
311.066
311.102
311.021
310.97
310.817
310.607
310.518
310.227
310.045
309.849
303.341
303.373
303.42
303.532
303.546
303.608
303.651
303.711
303.751
303.727
303.739
303.748
303.634
303.701
303.595
303.617
303.49
303.497
303.389
303.295
349.484
350.436
351.492
352.587
353.36
354.172
354.683
355.169
355.451
355.55
355.59
355.345
354.982
354.512
353.816
353.089
352.22
351.094
350.026
349.138
342.986
343.807
344.771
345.661
346.45
347.096
347.579
347.935
348.158
348.315
348.335
348.126
347.851
347.569
346.954
346.27
345.449
344.576
343.514
342.708
336.593
337.201
338.003
338.802
339.466
339.96
340.407
340.749
340.903
341.068
340.99
340.882
340.674
340.342
339.853
339.351
338.549
337.814
337.033
336.366
330.001
330.517
331.171
331.863
332.378
332.842
333.142
333.378
333.538
333.716
333.724
333.539
333.334
333.087
332.661
332.265
331.704
331.053
330.404
329.856
323.398
323.895
324.386
324.8
325.263
325.588
325.918
326.105
326.167
326.241
326.229
326.168
326.046
325.795
325.552
325.163
324.729
324.267
323.745
323.333
316.767
317.027
317.417
317.767
318.117
318.298
318.537
318.647
318.76
318.834
318.756
318.765
318.614
318.39
318.256
317.983
317.661
317.271
316.998
316.628
310.071
310.243
310.469
310.689
310.838
310.957
311.147
311.189
311.237
311.374
311.269
311.276
311.252
311.056
310.937
310.856
310.624
310.426
310.213
310.018
303.381
303.357
303.488
303.638
303.639
303.719
303.773
303.843
303.792
303.794
303.788
303.701
303.765
303.632
303.684
303.628
303.56
303.455
303.42
303.417
350.285
351.302
352.399
353.384
354.298
355.063
355.61
356.098
356.411
356.475
356.511
356.323
356.007
355.533
354.839
354.077
353.179
352.126
350.965
349.897
343.691
344.582
345.546
346.431
347.199
347.858
348.409
348.804
349.031
349.163
349.233
349
348.718
348.261
347.729
347.093
346.254
345.339
344.364
343.537
337.173
337.859
338.705
339.459
340.156
340.655
341.125
341.392
341.663
341.791
341.732
341.606
341.41
340.975
340.534
339.924
339.194
338.511
337.733
337.009
330.447
331.071
331.711
332.334
332.899
333.319
333.754
334.044
334.201
334.296
334.302
334.141
333.975
333.632
333.289
332.814
332.206
331.594
330.949
330.366
323.763
324.239
324.725
325.233
325.618
325.985
326.257
326.529
326.693
326.779
326.756
326.625
326.493
326.228
325.962
325.535
325.196
324.685
324.172
323.685
317.014
317.349
317.775
318.091
318.429
318.631
318.845
318.927
319.058
319.072
319.181
319.098
318.975
318.811
318.527
318.352
318.009
317.698
317.209
316.982
310.235
310.433
310.527
310.871
311.05
311.182
311.276
311.438
311.54
311.5
311.478
311.454
311.431
311.277
311.203
311.054
310.841
310.647
310.364
310.157
303.442
303.597
303.583
303.657
303.65
303.773
303.772
303.836
303.881
303.84
303.846
303.851
303.896
303.768
303.726
303.673
303.697
303.513
303.426
303.417
350.98
351.906
353.027
354.186
355.032
355.901
356.524
356.96
357.283
357.359
357.357
357.164
356.789
356.389
355.653
354.93
353.953
352.976
351.681
350.734
344.375
345.184
346.173
347.153
347.971
348.56
349.11
349.557
349.789
349.935
349.939
349.695
349.554
349.088
348.483
347.836
346.984
346.082
345.064
344.149
337.677
338.373
339.242
339.997
340.692
341.241
341.785
342.084
342.294
342.406
342.473
342.193
342.047
341.675
341.172
340.552
339.874
339.086
338.253
337.577
330.889
331.531
332.164
332.825
333.456
333.878
334.241
334.545
334.61
334.839
334.811
334.741
334.506
334.23
333.713
333.305
332.741
332.108
331.375
330.882
324.077
324.513
325.051
325.581
326.073
326.364
326.735
326.907
327.06
327.143
327.113
327.052
326.826
326.561
326.317
325.989
325.547
325.049
324.535
324.09
317.274
317.64
317.948
318.337
318.549
318.89
319.153
319.242
319.273
319.38
319.449
319.384
319.265
319.037
318.872
318.581
318.295
317.881
317.551
317.27
310.423
310.562
310.819
310.984
311.167
311.377
311.484
311.64
311.621
311.639
311.646
311.651
311.545
311.517
311.274
311.195
310.929
310.732
310.506
310.412
303.504
303.522
303.577
303.684
303.826
303.868
303.781
303.83
303.883
303.92
303.943
303.902
303.911
303.859
303.835
303.725
303.753
303.626
303.501
303.495
351.504
352.62
353.741
354.879
355.822
356.547
357.207
357.726
358.054
358.147
358.072
357.963
357.658
357.13
356.476
355.678
354.717
353.647
352.485
351.366
344.862
345.733
346.753
347.707
348.521
349.163
349.741
350.165
350.457
350.644
350.529
350.451
350.184
349.716
349.135
348.505
347.611
346.618
345.626
344.758
338.1
338.801
339.622
340.475
341.215
341.765
342.215
342.575
342.787
342.924
342.935
342.888
342.6
342.217
341.734
341.171
340.403
339.601
338.769
338.023
331.299
331.828
332.495
333.225
333.837
334.267
334.75
334.919
335.143
335.251
335.155
335.132
334.868
334.693
334.253
333.714
333.219
332.491
331.824
331.259
324.397
324.813
325.399
325.912
326.349
326.714
327.042
327.306
327.404
327.48
327.464
327.391
327.279
327.012
326.721
326.339
325.888
325.342
324.822
324.392
317.436
317.755
318.141
318.601
318.849
319.127
319.349
319.509
319.626
319.696
319.641
319.67
319.554
319.366
319.107
318.861
318.494
318.184
317.751
317.458
310.496
310.661
310.85
311.159
311.341
311.482
311.598
311.693
311.775
311.816
311.871
311.842
311.719
311.593
311.51
311.28
311.084
311
310.675
310.525
303.497
303.638
303.67
303.796
303.863
303.886
303.917
303.947
304.039
303.988
303.991
303.948
303.967
303.874
303.809
303.784
303.72
303.651
303.627
303.494
352.003
353.103
354.27
355.346
356.396
357.14
357.824
358.308
358.599
358.806
358.767
358.635
358.293
357.745
357.139
356.272
355.344
354.199
353.014
351.985
345.412
346.206
347.206
348.18
348.999
349.699
350.307
350.688
351.023
351.108
351.063
350.955
350.629
350.29
349.652
349.063
348.083
347.21
346.143
345.364
338.514
339.227
340.074
340.92
341.668
342.119
342.691
343.01
343.297
343.493
343.394
343.29
343.091
342.694
342.161
341.582
340.869
340.016
339.212
338.515
331.492
332.234
332.827
333.54
334.193
334.642
335.024
335.317
335.627
335.641
335.608
335.461
335.351
335.036
334.654
334.135
333.552
332.828
332.164
331.619
324.57
325.146
325.657
326.158
326.559
327.004
327.288
327.533
327.727
327.81
327.771
327.694
327.487
327.34
326.995
326.72
326.181
325.595
325.127
324.632
317.609
317.985
318.389
318.722
319.025
319.335
319.58
319.678
319.874
319.872
319.889
319.731
319.692
319.565
319.296
318.946
318.71
318.31
317.89
317.653
310.585
310.858
310.977
311.277
311.475
311.609
311.75
311.906
311.953
311.887
311.948
311.887
311.834
311.763
311.554
311.522
311.268
311.049
310.78
310.593
303.534
303.595
303.666
303.773
303.878
303.895
303.944
303.963
304.003
304.037
304.049
304.021
303.937
303.879
303.914
303.863
303.74
303.681
303.66
303.579
352.481
353.569
354.725
355.848
356.816
357.602
358.322
358.754
359.173
359.272
359.316
359.07
358.756
358.325
357.587
356.785
355.783
354.723
353.462
352.477
345.71
346.599
347.626
348.549
349.42
350.134
350.734
351.087
351.443
351.512
351.538
351.42
351.136
350.751
350.13
349.42
348.515
347.639
346.573
345.755
338.846
339.529
340.382
341.175
341.954
342.537
343.03
343.361
343.618
343.744
343.755
343.653
343.341
343.096
342.607
341.947
341.25
340.402
339.605
338.803
331.85
332.442
333.122
333.841
334.395
334.839
335.277
335.588
335.808
335.99
335.972
335.866
335.631
335.339
334.949
334.463
333.866
333.199
332.446
331.858
324.896
325.277
325.794
326.418
326.87
327.15
327.481
327.753
327.969
328.071
328.015
327.932
327.746
327.53
327.255
326.81
326.307
325.85
325.285
324.834
317.817
318.115
318.533
318.86
319.157
319.473
319.668
319.815
319.998
319.977
320.051
319.942
319.839
319.744
319.531
319.217
318.882
318.447
318.041
317.811
310.74
310.892
311.168
311.35
311.444
311.72
311.844
311.94
312.098
312.057
312.053
311.942
311.935
311.873
311.757
311.548
311.329
311.199
310.979
310.726
303.594
303.628
303.759
303.82
303.93
303.936
303.986
304.092
303.994
304.02
304.009
304.039
303.989
303.975
303.943
303.885
303.844
303.759
303.592
303.653
352.74
353.761
355.029
356.152
357.099
357.933
358.548
359.042
359.422
359.639
359.635
359.452
359.123
358.642
357.918
357.145
356.157
355.015
353.82
352.727
345.832
346.708
347.79
348.791
349.624
350.431
351.01
351.349
351.648
351.884
351.869
351.705
351.374
350.96
350.33
349.677
348.789
347.893
346.785
346.006
338.866
339.691
340.658
341.405
342.123
342.697
343.264
343.639
343.909
344.025
343.945
343.894
343.648
343.26
342.732
342.187
341.518
340.601
339.77
338.985
331.98
332.6
333.289
333.966
334.569
335.088
335.488
335.867
335.987
336.089
336.099
335.953
335.834
335.472
335.087
334.601
334.012
333.293
332.592
331.952
324.888
325.376
325.919
326.487
326.9
327.297
327.625
327.922
328.015
328.15
328.139
328.047
327.86
327.73
327.408
327.012
326.511
326.005
325.42
324.911
317.837
318.208
318.567
318.931
319.29
319.565
319.8
319.939
320.015
320.102
320.138
320.08
319.886
319.806
319.682
319.282
318.957
318.574
318.219
317.944
310.741
310.887
311.11
311.381
311.577
311.813
311.923
311.987
312.001
312.098
312.15
312.115
312.03
311.861
311.798
311.627
311.44
311.189
310.966
310.778
303.57
303.643
303.777
303.85
303.895
303.924
304.009
304.026
304.062
304.075
304.076
304.044
304.011
303.974
303.926
303.911
303.851
303.732
303.638
303.67
)
;

boundaryField
{
    hotSide
    {
        type            fixedGradient;
        gradient        nonuniform List<scalar> 
400
(
321.511
322.87
325.591
329.677
335.133
341.965
350.181
359.788
370.794
383.208
397.037
412.289
428.971
447.088
466.647
487.651
510.105
534.011
559.372
586.191
323.738
325.08
327.767
331.802
337.194
343.949
352.078
361.591
372.498
384.81
398.537
413.687
430.268
448.289
467.755
488.672
511.043
534.872
560.161
586.913
326.149
327.47
330.116
334.091
339.406
346.071
354.099
363.503
374.296
386.491
400.101
415.136
431.606
449.52
468.885
489.706
511.988
535.735
560.948
587.63
328.704
330
332.597
336.503
341.73
348.292
356.205
365.485
376.15
388.215
401.695
416.604
432.954
450.753
470.009
490.73
512.919
536.579
561.714
588.325
331.33
332.599
335.142
338.97
344.099
350.546
358.332
367.477
378.003
389.928
403.271
418.047
434.27
451.949
471.095
491.712
513.807
537.382
562.439
588.978
333.918
335.158
337.643
341.389
346.414
352.74
360.392
369.397
379.779
391.562
404.765
419.407
435.503
453.065
472.101
492.618
514.622
538.114
563.096
589.569
336.321
337.531
339.959
343.622
348.544
354.751
362.274
371.142
381.385
393.031
406.101
420.618
436.595
454.047
472.983
493.409
515.33
538.747
563.663
590.076
338.36
339.543
341.92
345.509
350.339
356.44
363.847
372.595
382.718
394.244
407.2
421.608
437.485
454.844
473.695
494.045
515.897
539.253
564.114
590.478
339.852
341.015
343.352
346.885
351.645
357.665
364.985
373.643
383.675
395.113
407.984
422.312
438.116
455.407
474.197
494.491
516.294
539.606
564.428
590.758
340.643
341.795
344.11
347.613
352.334
358.311
365.584
374.193
384.176
395.567
408.393
422.679
438.443
455.699
474.456
494.722
516.498
539.788
564.589
590.901
340.643
341.795
344.11
347.613
352.334
358.311
365.584
374.193
384.176
395.567
408.393
422.679
438.443
455.699
474.456
494.722
516.498
539.788
564.589
590.901
339.852
341.015
343.352
346.885
351.645
357.665
364.985
373.643
383.675
395.113
407.984
422.312
438.116
455.407
474.197
494.491
516.294
539.606
564.428
590.758
338.36
339.543
341.92
345.509
350.339
356.44
363.847
372.595
382.718
394.244
407.2
421.608
437.485
454.844
473.695
494.045
515.897
539.253
564.114
590.478
336.321
337.531
339.959
343.622
348.544
354.751
362.274
371.142
381.385
393.031
406.101
420.618
436.595
454.047
472.983
493.409
515.33
538.747
563.663
590.076
333.918
335.158
337.643
341.389
346.414
352.74
360.392
369.397
379.779
391.562
404.765
419.407
435.503
453.065
472.101
492.618
514.622
538.114
563.096
589.569
331.33
332.599
335.142
338.97
344.099
350.546
358.332
367.477
378.003
389.928
403.271
418.047
434.27
451.949
471.095
491.712
513.807
537.382
562.439
588.978
328.704
330
332.597
336.503
341.73
348.292
356.205
365.485
376.15
388.215
401.695
416.604
432.954
450.753
470.009
490.73
512.919
536.579
561.714
588.325
326.149
327.47
330.116
334.091
339.406
346.071
354.099
363.503
374.296
386.491
400.101
415.136
431.606
449.52
468.885
489.706
511.988
535.735
560.948
587.63
323.738
325.08
327.767
331.802
337.194
343.949
352.078
361.591
372.498
384.81
398.537
413.687
430.268
448.289
467.755
488.672
511.043
534.872
560.161
586.913
321.511
322.87
325.591
329.677
335.133
341.965
350.181
359.788
370.794
383.208
397.037
412.289
428.971
447.088
466.647
487.651
510.105
534.011
559.372
586.191
)
;
    }
    coldSide
    {
        type            mixed;
        refValue        uniform 300;
        refGradient     uniform 0;
        valueFraction   uniform 0.991591;
        source          uniform 0;
        value           nonuniform List<scalar> 
400
(
300.02
300.021
300.021
300.021
300.023
300.023
300.024
300.025
300.026
300.027
300.027
300.027
300.028
300.028
300.029
300.029
300.029
300.03
300.03
300.03
300.021
300.021
300.021
300.022
300.023
300.023
300.025
300.025
300.026
300.027
300.027
300.028
300.028
300.028
300.03
300.03
300.031
300.03
300.031
300.031
300.02
300.021