/*--------------------------------*- C++ -*----------------------------------*\
| =========                 |                                                 |
| \\      /  F ield         | OpenFOAM: The Open Source CFD Toolbox           |
|  \\    /   O peration     | Version:  2212                                  |
|   \\  /    A nd           | Website:  www.openfoam.com                      |
|    \\/     M anipulation  |                                                 |
\*---------------------------------------------------------------------------*/
FoamFile
{
    version     2.0;
    format      ascii;
    arch        "LSB;label=32;scalar=64";
    class       volScalarField;
    location    "0";
    object      T;
}
// * * * * * * * * * * * * * * * * * * * * * * * * * * * * * * * * * * * * * //

dimensions      [0 0 0 1 0 0 0];

internalField   nonuniform List<scalar> 
3200
(
355.039
353.371
352.317
351.753
351.753
352.117
352.738
353.313
353.951
354.369
354.563
354.44
354.08
353.284
352.674
352.239
352.052
352.205
353.262
354.777
347.502
346.095
345.218
344.747
344.753
345.085
345.642
346.136
346.737
347.101
347.272
347.187
346.913
346.222
345.7
345.337
345.173
345.295
346.212
347.468
340.049
338.895
338.174
337.808
337.808
338.091
338.58
338.996
339.53
339.855
340.01
339.926
339.729
339.152
338.698
338.434
338.253
338.336
339.121
340.144
332.661
331.751
331.203
330.908
330.908
331.146
331.522
331.883
332.326
332.608
332.741
332.682
332.527
332.07
331.685
331.514
331.347
331.381
332.02
332.836
325.329
324.646
324.255
324.027
324.022
324.227
324.492
324.779
325.131
325.364
325.473
325.422
325.308
324.973
324.655
324.538
324.406
324.436
324.916
325.539
318.069
317.569
317.322
317.15
317.139
317.306
317.488
317.709
317.934
318.142
318.203
318.18
318.099
317.855
317.62
317.518
317.445
317.463
317.814
318.244
310.854
310.549
310.391
310.28
310.258
310.406
310.509
310.63
310.771
310.918
310.926
310.928
310.866
310.722
310.575
310.512
310.473
310.51
310.703
310.967
303.639
303.535
303.477
303.452
303.423
303.495
303.521
303.569
303.612
303.659
303.654
303.664
303.647
303.592
303.547
303.518
303.516
303.533
303.595
303.68
355.071
353.524
352.247
351.953
351.925
352.501
353.154
353.72
354.417
354.83
355.135
354.841
354.518
353.8
352.98
352.403
352.159
352.4
353.252
354.695
347.543
346.249
345.164
344.922
344.919
345.426
346
346.496
347.126
347.485
347.769
347.53
347.271
346.646
345.946
345.469
345.278
345.477
346.228
347.406
340.085
339.029
338.144
337.933
337.959
338.379
338.864
339.291
339.86
340.156
340.422
340.245
340.032
339.473
338.898
338.528
338.38
338.516
339.188
340.12
332.701
331.871
331.157
331
331.03
331.371
331.76
332.119
332.598
332.861
333.054
332.939
332.741
332.328
331.849
331.56
331.435
331.529
332.133
332.814
325.391
324.743
324.215
324.097
324.12
324.373
324.69
324.963
325.327
325.556
325.699
325.632
325.481
325.159
324.806
324.558
324.465
324.522
325.02
325.501
318.126
317.662
317.292
317.2
317.228
317.405
317.642
317.837
318.062
318.262
318.345
318.324
318.208
317.993
317.747
317.568
317.494
317.519
317.881
318.214
310.878
310.607
310.372
310.311
310.34
310.458
310.585
310.706
310.823
310.976
310.994
311.014
310.934
310.808
310.675
310.556
310.525
310.525
310.737
310.939
303.653
303.558
303.467
303.453
303.465
303.503
303.549
303.584
303.635
303.683
303.688
303.688
303.669
303.612
303.577
303.55
303.535
303.534
303.609
303.662
355.473
353.824
352.654
352.367
352.391
353.074
353.797
354.432
355.039
355.518
355.942
355.643
355.179
354.459
353.618
353.008
352.634
352.815
353.699
355.007
347.875
346.528
345.52
345.28
345.319
345.924
346.569
347.117
347.674
348.073
348.49
348.218
347.834
347.204
346.507
345.985
345.681
345.833
346.598
347.66
340.368
339.291
338.425
338.259
338.289
338.821
339.352
339.811
340.342
340.641
341.03
340.812
340.485
339.957
339.403
338.925
338.703
338.824
339.464
340.353
332.924
332.085
331.395
331.285
331.293
331.727
332.156
332.565
333
333.254
333.561
333.399
333.14
332.73
332.288
331.869
331.7
331.814
332.33
333.037
325.554
324.91
324.385
324.315
324.314
324.663
324.987
325.341
325.665
325.863
326.119
326.014
325.799
325.464
325.146
324.804
324.687
324.767
325.163
325.708
318.23
317.773
317.401
317.354
317.353
317.609
317.82
318.1
318.323
318.492
318.671
318.598
318.455
318.208
317.978
317.731
317.674
317.721
318.006
318.387
310.922
310.665
310.442
310.404
310.419
310.582
310.694
310.873
310.998
311.106
311.224
311.168
311.094
310.954
310.796
310.651
310.62
310.665
310.818
311.049
303.654
303.573
303.498
303.488
303.492
303.547
303.575
303.651
303.682
303.717
303.754
303.742
303.72
303.684
303.621
303.573
303.567
303.572
303.622
303.703
356.022
354.415
353.288
353.043
353.174
353.864
354.672
355.401
356.138
356.559
356.953
356.73
356.067
355.31
354.57
353.765
353.35
353.547
354.331
355.556
348.34
347.016
346.089
345.862
346.012
346.602
347.301
347.944
348.608
348.966
349.351
349.15
348.604
347.959
347.344
346.658
346.308
346.496
347.155
348.155
340.772
339.702
338.94
338.74
338.895
339.379
339.987
340.527
341.097
341.414
341.757
341.58
341.121
340.595
340.102
339.526
339.223
339.38
339.951
340.741
333.251
332.453
331.832
331.645
331.803
332.176
332.673
333.117
333.599
333.876
334.161
334.009
333.653
333.206
332.835
332.376
332.122
332.255
332.708
333.332
325.803
325.221
324.742
324.592
324.719
325.011
325.392
325.74
326.113
326.337
326.573
326.451
326.187
325.825
325.566
325.213
324.996
325.124
325.454
325.927
318.415
318.003
317.66
317.537
317.643
317.86
318.148
318.38
318.651
318.811
319.008
318.886
318.717
318.442
318.285
318.024
317.856
317.966
318.207
318.541
311.047
310.799
310.593
310.518
310.587
310.728
310.909
311.034
311.195
311.294
311.426
311.348
311.25
311.067
310.989
310.84
310.732
310.813
310.935
311.141
303.703
303.612
303.543
303.524
303.548
303.61
303.651
303.7
303.75
303.787
303.827
303.807
303.771
303.714
303.685
303.628
303.6
303.629
303.665
303.738
356.73
355.362
354.315
353.954
354.15
354.847
355.643
356.475
357.242
357.861
358.111
357.838
357.242
356.335
355.534
354.767
354.355
354.556
355.176
356.322
348.964
347.835
346.938
346.693
346.845
347.437
348.152
348.862
349.557
350.112
350.349
350.089
349.601
348.845
348.16
347.492
347.161
347.352
347.833
348.792
341.293
340.367
339.622
339.47
339.579
340.075
340.695
341.304
341.924
342.378
342.579
342.365
341.982
341.335
340.766
340.215
339.932
340.109
340.486
341.279
333.704
332.972
332.364
332.271
332.361
332.754
333.279
333.776
334.306
334.675
334.838
334.665
334.353
333.825
333.351
332.926
332.697
332.847
333.153
333.761
326.159
325.612
325.142
325.081
325.157
325.454
325.854
326.26
326.679
326.977
327.111
326.982
326.731
326.311
325.944
325.624
325.43
325.568
325.8
326.273
318.672
318.284
317.964
317.931
317.956
318.178
318.442
318.751
319.072
319.292
319.381
319.291
319.116
318.793
318.564
318.307
318.172
318.276
318.451
318.788
311.205
310.97
310.786
310.769
310.785
310.905
311.063
311.253
311.448
311.592
311.641
311.602
311.461
311.288
311.159
311.008
310.905
310.986
311.079
311.28
303.757
303.671
303.608
303.606
303.621
303.65
303.7
303.761
303.832
303.889
303.905
303.899
303.845
303.776
303.735
303.682
303.647
303.686
303.709
303.779
357.902
356.551
355.553
355.212
355.424
355.965
356.76
357.526
358.51
359.198
359.42
359.244
358.592
357.801
356.795
355.989
355.547
355.816
356.393
357.448
349.96
348.854
348.046
347.75
347.942
348.43
349.131
349.789
350.678
351.262
351.489
351.328
350.789
350.108
349.241
348.546
348.176
348.428
348.915
349.777
342.153
341.244
340.584
340.345
340.486
340.941
341.532
342.093
342.881
343.334
343.569
343.422
342.975
342.382
341.694
341.102
340.805
340.999
341.416
342.104
334.405
333.689
333.168
332.976
333.085
333.452
333.955
334.413
335.082
335.44
335.629
335.512
335.174
334.685
334.136
333.649
333.417
333.576
333.904
334.418
326.715
326.17
325.789
325.635
325.697
325.988
326.4
326.78
327.298
327.546
327.696
327.619
327.372
326.966
326.552
326.194
325.994
326.148
326.376
326.777
319.063
318.691
318.41
318.298
318.341
318.557
318.836
319.129
319.513
319.665
319.776
319.736
319.568
319.242
318.946
318.721
318.567
318.713
318.858
319.123
311.455
311.219
311.063
310.975
311.012
311.157
311.319
311.485
311.729
311.808
311.866
311.847
311.768
311.54
311.372
311.254
311.153
311.25
311.328
311.483
303.835
303.748
303.709
303.679
303.686
303.749
303.794
303.842
303.933
303.966
303.976
303.98
303.952
303.874
303.808
303.783
303.739
303.775
303.799
303.852
359.205
357.954
356.876
356.434
356.715
357.355
357.944
358.829
359.798
360.438
360.734
360.627
359.99
359.139
358.292
357.442
357.03
357.159
357.782
358.799
351.114
350.099
349.165
348.792
349.041
349.617
350.152
350.922
351.759
352.354
352.591
352.522
351.987
351.27
350.537
349.795
349.47
349.57
350.087
350.94
343.136
342.318
341.517
341.214
341.421
341.954
342.396
343.053
343.795
344.293
344.481
344.436
343.97
343.391
342.768
342.15
341.871
341.975
342.382
343.104
335.21
334.596
333.919
333.685
333.852
334.31
334.655
335.221
335.842
336.214
336.398
336.354
335.974
335.504
334.998
334.493
334.286
334.366
334.681
335.257
327.327
326.878
326.364
326.166
326.308
326.677
326.963
327.385
327.884
328.134
328.317
328.267
328.001
327.619
327.201
326.848
326.665
326.73
326.979
327.445
319.502
319.194
318.822
318.677
318.784
319.071
319.274
319.563
319.936
320.091
320.221
320.175
320.015
319.753
319.425
319.201
319.046
319.103
319.272
319.617
311.719
311.522
311.303
311.218
311.294
311.46
311.577
311.74
311.991
312.072
312.13
312.087
312.018
311.872
311.668
311.536
311.439
311.47
311.575
311.783
303.934
303.86
303.79
303.765
303.789
303.849
303.875
303.945
304.028
304.054
304.068
304.046
304.021
303.975
303.919
303.873
303.83
303.851
303.882
303.955
360.602
359.42
358.424
358.052
358.109
358.765
359.389
360.315
361.166
361.895
362.287
362.094
361.567
360.664
359.684
359.01
358.564
358.55
359.266
360.314
352.319
351.349
350.518
350.189
350.271
350.866
351.4
352.198
352.945
353.598
353.938
353.787
353.333
352.57
351.739
351.153
350.791
350.786
351.383
352.236
344.133
343.375
342.647
342.395
342.481
342.993
343.441
344.122
344.757
345.315
345.613
345.481
345.104
344.464
343.786
343.276
343.02
343.012
343.529
344.176
336.034
335.44
334.846
334.644
334.716
335.151
335.501
336.099
336.602
337.063
337.33
337.182
336.883
336.391
335.808
335.407
335.229
335.244
335.642
336.144
327.976
327.542
327.08
326.924
326.965
327.339
327.597
328.073
328.473
328.817
329.048
328.897
328.7
328.324
327.839
327.548
327.426
327.427
327.737
328.127
319.955
319.656
319.333
319.221
319.263
319.542
319.729
320.046
320.358
320.59
320.759
320.628
320.523
320.252
319.901
319.7
319.605
319.606
319.828
320.102
311.985
311.821
311.594
311.544
311.571
311.745
311.871
312.034
312.238
312.371
312.461
312.392
312.33
312.156
311.952
311.83
311.785
311.769
311.918
312.091
304.013
303.97
303.884
303.871
303.872
303.939
303.985
304.033
304.11
304.149
304.177
304.149
304.143
304.076
303.993
303.966
303.948
303.939
303.994
304.046
362.174
360.972
360.049
359.561
359.586
360.169
360.831
361.763
362.605
363.348
363.635
363.544
363.103
362.153
361.317
360.478
360.095
360.157
360.892
361.815
353.682
352.677
351.923
351.506
351.542
352.089
352.645
353.474
354.205
354.846
355.111
355.037
354.675
353.881
353.146
352.433
352.114
352.161
352.8
353.555
345.286
344.461
343.873
343.505
343.558
344.026
344.514
345.215
345.822
346.354
346.619
346.52
346.242
345.629
344.979
344.39
344.113
344.178
344.683
345.295
336.979
336.332
335.847
335.549
335.6
335.999
336.397
336.965
337.466
337.898
338.131
338.039
337.801
337.347
336.813
336.333
336.097
336.174
336.564
337.056
328.735
328.248
327.839
327.649
327.671
327.985
328.297
328.746
329.131
329.453
329.658
329.571
329.38
329.057
328.644
328.283
328.068
328.15
328.436
328.827
320.519
320.175
319.865
319.773
319.746
319.984
320.223
320.545
320.786
321.036
321.213
321.123
320.98
320.759
320.478
320.235
320.063
320.11
320.314
320.603
312.301
312.122
311.93
311.877
311.846
311.981
312.149
312.345
312.463
312.64
312.753
312.688
312.595
312.477
312.325
312.171
312.037
312.071
312.185
312.391
304.116
304.059
304.002
303.994
303.967
304.013
304.074
304.135
304.175
304.239
304.273
304.248
304.218
304.179
304.152
304.087
304.043
304.037
304.082
304.163
363.803
362.665
361.676
361.218
361.203
361.722
362.383
363.193
364.047
364.717
365.154
364.983
364.591
363.653
362.791
362.034
361.676
361.823
362.49
363.439
355.115
354.152
353.332
352.941
352.934
353.403
353.975
354.688
355.43
356.032
356.4
356.269
355.947
355.166
354.412
353.784
353.475
353.597
354.168
354.953
346.506
345.728
345.053
344.738
344.726
345.138
345.64
346.218
346.843
347.36
347.686
347.594
347.305
346.699
346.041
345.542
345.261
345.349
345.836
346.507
337.959
337.356
336.828
336.597
336.556
336.908
337.328
337.785
338.29
338.706
338.984
338.935
338.684
338.229
337.67
337.263
337.053
337.099
337.519
338.055
329.481
329.018
328.603
328.454
328.393
328.711
329.028
329.383
329.747
330.078
330.315
330.303
330.091
329.734
329.324
328.977
328.799
328.872
329.203
329.597
321.03
320.716
320.423
320.315
320.267
320.503
320.74
321.014
321.255
321.463
321.667
321.66
321.508
321.224
320.97
320.712
320.562
320.639
320.869
321.155
312.614
312.454
312.261
312.21
312.171
312.305
312.446
312.623
312.771
312.869
313.013
313
312.94
312.743
312.605
312.44
312.35
312.393
312.536
312.693
304.219
304.174
304.115
304.09
304.081
304.123
304.17
304.23
304.294
304.314
304.369
304.362
304.349
304.274
304.224
304.165
304.136
304.152
304.206
304.257
365.555
364.331
363.458
362.95
362.844
363.338
363.972
364.62
365.555
366.162
366.432
366.328
365.886
365.095
364.187
363.669
363.346
363.527
364.166
364.905
356.623
355.598
354.847
354.428
354.353
354.815
355.371
355.931
356.744
357.284
357.525
357.444
357.073
356.418
355.638
355.197
354.915
355.071
355.625
356.215
347.78
346.939
346.299
345.985
345.92
346.33
346.804
347.277
347.967
348.446
348.638
348.581
348.275
347.73
347.096
346.739
346.482
346.569
347.075
347.553
339.01
338.336
337.809
337.591
337.528
337.89
338.267
338.669
339.207
339.628
339.778
339.725
339.477
339.039
338.564
338.295
338.049
338.105
338.545
338.897
330.303
329.783
329.347
329.203
329.174
329.471
329.758
330.079
330.474
330.832
330.926
330.895
330.71
330.354
330.031
329.831
329.594
329.655
329.988
330.254
321.607
321.263
320.967
320.843
320.834
321.094
321.261
321.488
321.76
322.035
322.082
322.075
321.96
321.692
321.47
321.336
321.157
321.194
321.441
321.623
312.974
312.759
312.595
312.514
312.514
312.671
312.784
312.899
313.072
313.231
313.256
313.251
313.193
313.024
312.896
312.845
312.706
312.721
312.882
312.994
304.348
304.273
304.231
304.199
304.192
304.247
304.285
304.322
304.376
304.431
304.442
304.437
304.428
304.372
304.326
304.317
304.262
304.267
304.322
304.348
367.26
366.115
365.204
364.598
364.455
364.806
365.576
366.116
366.879
367.577
367.818
367.69
367.219
366.507
365.756
365.229
364.973
365.301
365.834
366.67
358.072
357.127
356.341
355.86
355.727
356.073
356.749
357.21
357.889
358.498
358.712
358.62
358.229
357.601
356.998
356.554
356.323
356.605
357.074
357.744
348.992
348.228
347.545
347.18
347.094
347.376
347.951
348.379
348.946
349.439
349.637
349.575
349.266
348.738
348.234
347.885
347.688
347.894
348.317
348.819
340.001
339.378
338.81
338.555
338.481
338.715
339.182
339.554
340.029
340.418
340.563
340.541
340.307
339.886
339.449
339.17
339.026
339.197
339.573
339.937
331.067
330.577
330.152
329.959
329.915
330.105
330.451
330.759
331.115
331.424
331.546
331.52
331.343
331.023
330.711
330.467
330.363
330.501
330.79
331.058
322.189
321.822
321.541
321.376
321.367
321.511
321.725
321.984
322.229
322.463
322.543
322.512
322.385
322.164
321.966
321.765
321.712
321.8
321.999
322.191
313.319
313.098
312.925
312.833
312.832
312.92
313.03
313.206
313.362
313.503
313.55
313.525
313.421
313.316
313.179
313.075
313.052
313.104
313.231
313.324
304.466
304.393
304.332
304.304
304.299
304.335
304.377
304.434
304.475
304.518
304.549
304.529
304.496
304.465
304.421
304.38
304.381
304.393
304.438
304.457
368.973
367.904
366.858
366.287
366.169
366.453
366.969
367.642
368.263
368.877
369.082
368.993
368.5
367.83
367.22
366.708
366.57
366.971
367.517
368.384
359.554
358.701
357.78
357.314
357.243
357.465
357.924
358.518
359.073
359.658
359.812
359.728
359.352
358.747
358.234
357.829
357.704
358.041
358.522
359.202
350.249
349.553
348.778
348.409
348.367
348.548
348.941
349.45
349.94
350.429
350.586
350.509
350.2
349.711
349.278
348.961
348.829
349.131
349.547
350.072
341.02
340.467
339.836
339.579
339.537
339.67
339.987
340.408
340.828
341.226
341.35
341.299
341.075
340.661
340.337
340.06
339.966
340.226
340.56
340.965
331.833
331.43
330.946
330.768
330.739
330.839
331.069
331.411
331.732
332.047
332.151
332.126
331.945
331.624
331.374
331.176
331.085
331.311
331.555
331.888
322.698
322.424
322.088
321.975
321.962
322.032
322.186
322.441
322.668
322.9
322.962
322.951
322.829
322.581
322.417
322.276
322.213
322.384
322.571
322.809
313.6
313.442
313.25
313.199
313.201
313.241
313.331
313.48
313.615
313.784
313.781
313.78
313.717
313.544
313.46
313.395
313.339
313.452
313.547
313.693
304.553
304.5
304.442
304.427
304.429
304.441
304.478
304.515
304.568
304.625
304.625
304.621
304.594
304.529
304.519
304.496
304.477
304.508
304.55
304.587
370.85
369.637
368.677
368.102
367.964
368.168
368.44
368.963
369.691
370.216
370.37
370.332
369.855
369.278
368.825
368.425
368.269
368.506
369.078
370.042
361.17
360.144
359.348
358.869
358.775
358.961
359.2
359.662
360.323
360.784
360.916
360.899
360.534
360.035
359.627
359.304
359.161
359.384
359.835
360.65
351.584
350.725
350.091
349.731
349.642
349.817
350.013
350.433
350.98
351.387
351.514
351.507
351.226
350.803
350.463
350.193
350.056
350.267
350.618
351.271
342.098
341.419
340.913
340.66
340.579
340.717
340.877
341.228
341.67
342.022
342.124
342.12
341.9
341.591
341.278
341.045
340.948
341.145
341.425
341.927
332.693
332.167
331.784
331.632
331.56
331.66
331.792
332.037
332.397
332.677
332.773
332.763
332.587
332.345
332.096
331.937
331.858
332.034
332.224
332.606
323.331
322.956
322.696
322.614
322.526
322.6
322.698
322.871
323.136
323.339
323.435
323.414
323.28
323.104
322.93
322.823
322.774
322.891
323.012
323.286
313.999
313.791
313.619
313.61
313.517
313.557
313.628
313.72
313.908
314.014
314.081
314.064
313.996
313.892
313.766
313.718
313.68
313.753
313.821
313.981
304.686
304.619
304.565
304.573
304.531
304.538
304.561
304.589
304.66
304.699
304.71
304.713
304.684
304.669
304.611
304.592
304.579
304.613
304.633
304.692
372.609
371.524
370.566
369.863
369.729
369.83
370.202
370.53
371.127
371.504
371.608
371.508
371.246
370.762
370.201
369.922
369.999
370.306
370.92
371.772
362.697
361.797
360.991
360.417
360.297
360.376
360.744
361.037
361.577
361.892
361.994
361.918
361.72
361.307
360.807
360.591
360.661
360.929
361.436
362.132
352.903
352.161
351.499
351.019
350.949
350.977
351.326
351.589
352.063
352.338
352.4
352.355
352.204
351.89
351.417
351.269
351.304
351.545
351.973
352.524
343.189
342.576
342.08
341.683
341.648
341.65
341.963
342.163
342.565
342.806
342.849
342.804
342.705
342.477
342.054
341.952
341.967
342.161
342.507
342.942
333.537
333.064
332.694
332.4
332.389
332.347
332.622
332.777
333.087
333.281
333.323
333.297
333.22
333.049
332.725
332.627
332.644
332.785
333.052
333.388
323.934
323.6
323.326
323.154
323.116
323.081
323.297
323.404
323.62
323.78
323.814
323.813
323.755
323.612
323.406
323.305
323.307
323.444
323.605
323.844
314.361
314.166
313.99
313.928
313.872
313.845
313.993
314.037
314.173
314.283
314.314
314.312
314.276
314.186
314.058
313.991
313.998
314.098
314.186
314.322
304.817
304.737
304.679
304.679
304.646
304.64
304.701
304.692
304.749
304.792
304.79
304.799
304.783
304.757
304.711
304.689
304.692
304.736
304.754
304.798
374.496
373.44
372.475
371.725
371.373
371.533
371.812
372.133
372.548
372.652
372.765
372.774
372.535
372.107
371.709
371.51
371.606
371.856
372.667
373.557
364.332
363.455
362.657
362.03
361.723
361.874
362.126
362.441
362.808
362.882
363.006
363.003
362.804
362.462
362.1
361.965
362.026
362.269
362.963
363.689
354.271
353.575
352.907
352.387
352.148
352.279
352.491
352.773
353.084
353.135
353.261
353.275
353.123
352.833
352.529
352.454
352.474
352.673
353.249
353.845
344.304
343.74
343.178
342.795
342.616
342.732
342.893
343.141
343.381
343.423
343.557
343.581
343.467
343.227
342.995
342.901
342.932
343.087
343.577
344.029
334.406
333.96
333.538
333.238
333.117
333.23
333.343
333.522
333.707
333.741
333.872
333.912
333.814
333.616
333.454
333.368
333.382
333.499
333.921
334.222
324.547
324.231
323.913
323.719
323.649
323.746
323.834
323.942
324.056
324.095
324.192
324.223
324.172
324.007
323.902
323.831
323.823
323.92
324.236
324.447
314.73
314.546
314.335
314.228
314.204
314.274
314.315
314.376
314.444
314.456
314.524
314.549
314.536
314.404
314.369
314.302
314.304
314.36
314.544
314.679
304.936
304.87
304.795
304.768
304.765
304.778
304.797
304.811
304.839
304.846
304.872
304.879
304.873
304.825
304.81
304.779
304.803
304.811
304.868
304.915
376.44
375.363
374.322
373.578
373.284
373.209
373.389
373.669
373.936
374.01
374.128
374.118
373.899
373.556
373.212
373.184
373.272
373.7
374.536
375.424
366.018
365.121
364.224
363.609
363.362
363.312
363.49
363.74
363.998
364.039
364.176
364.174
363.972
363.703
363.382
363.394
363.456
363.828
364.596
365.314
355.707
354.976
354.228
353.709
353.516
353.478
353.617
353.89
354.091
354.108
354.256
354.243
354.092
353.869
353.591
353.622
353.65
353.994
354.652
355.233
345.471
344.893
344.314
343.877
343.734
343.703
343.817
344.062
344.208
344.232
344.38
344.346
344.236
344.051
343.832
343.871
343.874
344.164
344.741
345.195
335.314
334.868
334.436
334.095
333.998
333.98
334.053
334.237
334.343
334.371
334.516
334.472
334.406
334.284
334.09
334.12
334.112
334.347
334.809
335.133
325.217
324.87
324.615
324.34
324.292
324.265
324.31
324.437
324.518
324.555
324.65
324.635
324.602
324.487
324.354
324.364
324.366
324.536
324.874
325.115
315.134
314.917
314.792
314.597
314.609
314.555
314.586
314.648
314.708
314.741
314.795
314.785
314.778
314.707
314.633
314.601
314.62
314.747
314.951
315.096
305.064
305.004
304.952
304.879
304.912
304.88
304.89
304.899
304.919
304.952
304.955
304.961
304.947
304.932
304.909
304.888
304.896
304.934
305.02
305.065
378.325
377.171
376.056
375.45
375.004
374.833
374.935
375.133
375.37
375.455
375.447
375.484
375.195
374.998
374.819
374.803
375.013
375.353
376.311
377.197
367.644
366.673
365.738
365.207
364.831
364.708
364.796
365.016
365.246
365.307
365.287
365.339
365.103
364.902
364.775
364.77
364.967
365.246
366.086
366.842
357.065
356.273
355.498
355.04
354.734
354.651
354.755
354.91
355.152
355.214
355.186
355.234
355.027
354.871
354.773
354.759
354.936
355.179
355.887
356.515
346.567
345.941
345.326
344.939
344.687
344.63
344.748
344.877
345.079
345.142
345.123
345.155
344.996
344.866
344.788
344.788
344.931
345.124
345.724
346.209
336.159
335.682
335.198
334.91
334.718
334.662
334.777
334.881
335.045
335.094
335.079
335.085
334.976
334.881
334.811
334.819
334.922
335.075
335.569
335.925
325.825
325.473
325.109
324.924
324.8
324.731
324.831
324.927
325.035
325.065
325.037
325.035
324.987
324.913
324.868
324.867
324.93
325.046
325.414
325.659
315.517
315.308
315.06
314.957
314.893
314.849
314.915
314.96
315.037
315.049
315.039
315.04
315.014
314.947
314.945
314.933
314.977
315.052
315.246
315.411
305.19
305.132
305.044
305.013
305.001
304.983
305.007
305.016
305.042
305.041
305.044
305.043
305.028
305.018
305.003
305.005
305.023
305.042
305.108
305.169
380.018
378.793
377.635
377.087
376.601
376.328
376.494
376.541
376.697
376.782
376.836
376.765
376.636
376.423
376.178
376.301
376.578
376.926
377.88
378.761
369.087
368.044
367.048
366.589
366.192
365.97
366.14
366.175
366.339
366.435
366.486
366.431
366.34
366.17
365.938
366.042
366.284
366.608
367.433
368.162
358.286
357.417
356.59
356.176
355.87
355.678
355.862
355.857
356.023
356.159
356.183
356.169
356.074
355.955
355.743
355.824
356.044
356.316
357.01
357.582
347.561
346.864
346.199
345.872
345.608
345.457
345.663
345.596
345.77
345.901
345.918
345.93
345.845
345.736
345.572
345.65
345.829
346.045
346.624
347.052
336.907
336.364
335.874
335.63
335.403
335.303
335.49
335.414
335.565
335.662
335.699
335.727
335.643
335.569
335.419
335.48
335.621
335.809
336.254
336.56
326.336
325.928
325.606
325.441
325.267
325.203
325.351
325.281
325.399
325.471
325.492
325.546
325.454
325.409
325.301
325.33
325.436
325.566
325.895
326.084
315.807
315.56
315.367
315.277
315.163
315.13
315.238
315.182
315.246
315.303
315.297
315.346
315.3
315.267
315.195
315.202
315.273
315.349
315.549
315.635
305.297
305.215
305.146
305.123
305.07
305.071
305.1
305.096
305.114
305.137
305.129
305.152
305.122
305.122
305.088
305.088
305.12
305.15
305.204
305.221
381.324
380.136
378.986
378.251
377.799
377.557
377.688
377.519
377.672
377.782
377.849
377.74
377.638
377.401
377.362
377.472
377.825
378.217
379.155
380.048
370.135
369.148
368.161
367.526
367.163
366.984
367.115
366.965
367.145
367.221
367.293
367.225
367.164
366.925
366.872
367.004
367.338
367.647
368.45
369.206
359.106
358.311
357.468
356.931
356.657
356.519
356.642
356.522
356.692
356.73
356.827
356.791
356.734
356.531
356.452
356.629
356.897
357.159
357.793
358.447
348.2
347.578
346.884
346.439
346.228
346.154
346.243
346.142
346.321
346.329
346.455
346.412
346.367
346.185
346.093
346.301
346.493
346.719
347.23
347.736
337.386
336.935
336.385
336.054
335.858
335.851
335.91
335.841
335.978
336.007
336.113
336.065
336.017
335.881
335.801
335.975
336.124
336.315
336.722
337.095
326.675
326.364
325.956
325.723
325.564
325.6
325.614
325.555
325.682
325.73
325.791
325.758
325.71
325.617
325.545
325.696
325.794
325.936
326.218
326.495
316.001
315.824
315.565
315.444
315.347
315.373
315.371
315.346
315.402
315.462
315.499
315.492
315.428
315.388
315.321
315.449
315.479
315.581
315.736
315.907
305.363
305.303
305.221
305.178
305.128
305.139
305.142
305.139
305.165
305.181
305.196
305.193
305.159
305.163
305.135
305.178
305.188
305.226
305.276
305.332
)
;

boundaryField
{
    hotSide
    {
        type            fixedGradient;
        gradient        nonuniform List<scalar> 
400
(
613.301
612.899
615.913
622.262
631.626
643.537
657.494
673.042
689.8
707.474
725.844
744.753
764.096
783.81
803.868
824.27
845.039
866.206
887.797
909.822
588.11
587.917
591.376
598.387
608.56
621.342
636.161
652.509
669.98
688.267
707.147
726.466
746.126
766.073
786.292
806.799
827.634
848.844
870.473
892.54
572.089
572.415
576.354
583.796
594.353
607.479
622.601
639.211
656.899
675.351
694.342
713.718
733.382
753.287
773.425
793.819
814.515
835.571
857.035
878.934
564.691
565.823
570.291
577.985
588.573
601.588
616.525
632.915
650.364
668.564
687.285
706.372
725.73
745.312
765.116
785.168
805.514
826.211
847.306
868.831
563.693
565.793
570.873
578.818
589.356
602.11
616.657
632.585
649.532
667.203
685.375
703.896
722.674
741.673
760.893
780.367
800.143
820.275
840.81
861.782
566.571
569.7
575.493
583.823
594.453
607.063
621.29
636.77
653.169
670.21
687.684
705.453
723.443
741.634
760.046
778.724
797.726
817.11
836.925
857.21
571.266
575.427
582.023
590.913
601.866
614.582
628.721
643.933
659.897
676.344
693.084
710.002
727.06
744.276
761.702
779.414
797.487
815.991
834.982
854.501
576.223
581.367
588.817
598.411
609.911
623.006
637.34
652.542
668.269
684.245
700.289
716.327
732.375
748.513
764.849
781.5
798.57
816.144
834.284
853.031
580.237
586.24
594.507
604.862
617.05
630.733
645.513
660.96
676.673
692.338
707.779
722.974
738.019
753.077
768.331
783.947
800.059
816.764
834.129
852.19
582.367
588.997
597.911
608.929
621.783
636.106
651.445
667.296
683.172
698.697
713.693
728.194
742.391
756.542
770.904
785.685
801.043
817.084
833.87
851.434
581.961
588.865
598.105
609.502
622.779
637.549
653.322
669.533
685.625
701.169
715.978
730.127
743.874
757.545
771.439
785.793
800.777
816.497
833.016
850.362
578.752
585.501
594.646
606.007
619.3
634.132
650
666.333
682.567
698.269
713.246
727.563
741.471
755.289
769.317
783.792
798.888
814.716
831.343
848.8
572.962
579.133
587.775
598.706
611.638
626.175
641.832
658.076
674.393
690.391
705.871
720.844
735.484
750.039
764.764
779.877
795.545
811.888
828.981
846.863
565.337
570.593
578.444
588.712
601.104
615.225
630.61
646.768
663.242
679.678
695.869
711.763
727.443
743.067
758.825
774.898
791.444
808.583
826.402
844.95
557.124
561.25
568.182
577.75
589.649
603.47
618.741
634.987
651.777
668.772
685.751
702.617
719.379
736.124
752.983
770.104
787.629
805.679
824.348
843.693
550.103
553.003
559.015
567.98
579.562
593.301
608.682
625.207
642.44
660.04
677.773
695.514
713.229
730.959
748.796
766.865
785.297
804.219
823.728
843.886
546.662
548.354
553.518
562.005
573.422
587.222
602.821
619.675
637.332
655.446
673.778
692.19
710.627
729.104
747.693
766.502
785.664
805.309
825.544
846.43
549.702
550.351
554.761
562.788
573.984
587.728
603.373
620.344
638.181
656.54
675.186
693.975
712.843
731.789
750.87
770.185
789.861
810.034
830.815
852.264
561.801
561.729
565.461
572.868
583.504
596.75
611.963
628.578
646.146
664.333
682.908
701.723
720.705
739.84
759.167
778.77
798.761
819.266
840.386
862.17
583.716
583.282
586.402
592.974
602.63
614.846
629.066
644.783
661.582
679.146
697.247
715.733
734.518
753.573
772.916
792.604
812.722
833.364
854.605
876.479
)
;
    }
    coldSide
    {
        type            mixed;
        refValue        uniform 300;
        refGradient     uniform 0;
        valueFraction   uniform 0.991591;
        source          uniform 0;
        value           nonuniform List<scalar> 
400
(
300.031
300.031
300.031
300.031
300.032
300.032
300.033
300.034
300.035
300.035
300.037
300.038
300.038
300.039
300.041
300.042
300.043
300.044
300.045
300.045
300.03
300.03
300.03
300.03
300.031
300.032
300.032
300.033
300.034
300.035
300.036
300.037
300.038
300.039
300.04
300.041
300.042
300.043
300.044
300.045
300.029
300.029