/*--------------------------------*- C++ -*----------------------------------*\
| =========                 |                                                 |
| \\      /  F ield         | OpenFOAM: The Open Source CFD Toolbox           |
|  \\    /   O peration     | Version:  2212                                  |
|   \\  /    A nd           | Website:  www.openfoam.com                      |
|    \\/     M anipulation  |                                                 |
\*---------------------------------------------------------------------------*/
FoamFile
{
    version     2.0;
    format      ascii;
    arch        "LSB;label=32;scalar=64";
    class       volScalarField;
    location    "0";
    object      relativeErrorField;
}
// * * * * * * * * * * * * * * * * * * * * * * * * * * * * * * * * * * * * * //

dimensions      [0 0 0 1 0 0 0];

internalField   nonuniform List<scalar> 
3200
(
0.00398314
0.0043635
0.00504102
0.00662376
0.00833984
0.0104584
0.0125773
0.0146809
0.0162387
0.0171095
0.0172349
0.0166432
0.0156559
0.0139141
0.0121348
0.0102442
0.00863564
0.00754262
0.00671828
0.00659301
0.00324609
0.00347623
0.00413837
0.00547619
0.0071648
0.00902025
0.0109302
0.0125713
0.013981
0.014805
0.0149788
0.0144386
0.0133202
0.0118013
0.010025
0.00881109
0.00726163
0.00635817
0.00572243
0.00534875
0.00259961
0.00294285
0.00361346
0.00444297
0.00582765
0.0074301
0.00897374
0.0106871
0.0118334
0.0125314
0.0125675
0.0121143
0.0111482
0.0100029
0.0087096
0.00708504
0.00610964
0.00528621
0.00462122
0.00440271
0.00188345
0.00247315
0.00281319
0.00345925
0.00478241
0.00617785
0.00742238
0.00845213
0.00963375
0.0102503
0.0106163
0.0101581
0.00924016
0.00827352
0.00696184
0.00588785
0.00487428
0.00407316
0.00392829
0.00370266
0.00135006
0.00140588
0.00209006
0.00284165
0.00387675
0.00478456
0.00585347
0.00692109
0.00767771
0.00805612
0.00801777
0.00783368
0.00713142
0.0063784
0.00526413
0.00429863
0.00356339
0.0030575
0.00273546
0.00269172
0.00111485
0.00124514
0.00149889
0.00210329
0.00250036
0.00322073
0.00417167
0.00482057
0.00547446
0.00588909
0.00580819
0.00580353
0.00531763
0.00460367
0.00391262
0.00316864
0.00273683
0.00241395
0.00189083
0.00181293
0.000685907
0.000852143
0.001109
0.00133754
0.00177104
0.00199361
0.0024533
0.0030051
0.00329476
0.00364168
0.00356507
0.00349139
0.00329766
0.00286618
0.00226828
0.00210041
0.00162153
0.00125989
0.00104104
0.00136665
0.000290591
0.000171446
0.000381903
0.000605909
0.000559248
0.000532201
0.000934127
0.000981445
0.00106827
0.00126149
0.00131537
0.001152
0.000974166
0.000958041
0.000909252
0.000895982
0.000762451
0.000369959
0.000480851
0.000373914
0.00162007
0.00225801
0.0028931
0.00442599
0.0062053
0.00832261
0.010242
0.012051
0.0137124
0.0148065
0.0147304
0.014119
0.01291
0.0116066
0.00972753
0.0080377
0.00654277
0.00546901
0.00468746
0.00480859
0.00163696
0.00181129
0.00238375
0.003593
0.00510357
0.00685909
0.00893904
0.0106302
0.0118502
0.0126336
0.012878
0.0122558
0.0111535
0.00995344
0.00858658
0.00685087
0.00532716
0.00472032
0.00400871
0.00394827
0.00130023
0.00138199
0.00214269
0.00309244
0.00459503
0.00576709
0.00743859
0.00874733
0.00990682
0.01077
0.0110367
0.010347
0.0098127
0.00862215
0.00705531
0.00574039
0.00461483
0.00370206
0.00326261
0.00303106
0.00093165
0.00118115
0.00173244
0.00233828
0.00365647
0.00478096
0.00616101
0.00739164
0.00809133
0.00876366
0.00897833
0.00866777
0.0077212
0.00688247
0.00572671
0.00470773
0.00354409
0.00307189
0.00240404
0.00267928
0.000762349
0.000767011
0.00111149
0.00179993
0.00283372
0.00385363
0.00481061
0.00588362
0.00664461
0.00705921
0.00697456
0.0067638
0.00629781
0.00561156
0.00460387
0.00373662
0.00298483
0.00237027
0.00218622
0.00184925
0.000364681
0.000584885
0.00116535
0.00135058
0.00178486
0.0027275
0.00347384
0.00412765
0.00454601
0.00490639
0.00494399
0.00480879
0.00446593
0.00384447
0.00319034
0.00258704
0.00205056
0.00166907
0.00170302
0.00136255
0.000228547
0.000298799
0.000324831
0.00101301
0.00104533
0.00157641
0.0019343
0.00252879
0.00280312
0.00307322
0.00306238
0.00310304
0.00279599
0.00238121
0.00183546
0.00126781
0.00126424
0.00102444
0.00090503
0.00102818
0.000235946
0.000250181
0.000120247
0.000187635
0.000237796
0.000551624
0.000772608
0.000552832
0.000928607
0.00117
0.00102397
0.000874025
0.00101802
0.000902414
0.000565849
0.000565152
0.000368435
0.000447523
0.000217177
0.000334747
0.000527459
0.000169202
0.000575018
0.00159613
0.00337232
0.00505298
0.00737191
0.00894789
0.0104231
0.0112559
0.0115686
0.0109458
0.0102457
0.00851828
0.00661785
0.00516961
0.00375766
0.00309795
0.00231985
0.00241183
0.000423163
0.000393295
0.00023296
0.00132619
0.00271979
0.00434224
0.00610209
0.00786059
0.00917944
0.00964139
0.0100159
0.00957089
0.00838625
0.00730095
0.00566983
0.00442952
0.00320923
0.0023865
0.0019655
0.00202954
0.000156857
0.000210323
5.95932e-05
0.00121201
0.00236529
0.00380141
0.00534564
0.00682995
0.00769972
0.00812572
0.00839981
0.00796544
0.00702368
0.00625303
0.00501884
0.00370482
0.00275117
0.00176296
0.00152733
0.00164493
0.000431019
0.000326192
6.87772e-05
0.000754254
0.00176762
0.00292879
0.00437015
0.00550946
0.00622551
0.00674387
0.0070879
0.00670082
0.00596609
0.00500242
0.00396972
0.00299856
0.00200616
0.00151603
0.00118129
0.00121443
0.000491262
0.000349615
0.000176697
0.000664331
0.00119981
0.00254533
0.00318264
0.00418053
0.00491072
0.00528974
0.00546911
0.00510361
0.00452603
0.004062
0.00282678
0.00222783
0.00158106
0.00101318
0.000860414
0.00100006
0.000340365
0.00031434
1.7853e-05
0.000572599
0.000979145
0.00157913
0.0022186
0.00309078
0.00362599
0.00400101
0.00389594
0.00366021
0.00315679
0.00284735
0.00228407
0.00176772
0.00121408
0.000749619
0.000555125
0.000663872
0.000238505
0.0002796
1.83074e-05
0.000420664
0.000729072
0.001068
0.00125005
0.00194891
0.00229085
0.00232445
0.0023962
0.0021917
0.00203765
0.00174345
0.0014242
0.00106699
0.000571592
0.000524959
0.000360217
0.000393643
6.55605e-05
8.31708e-05
0.000117181
1.1786e-06
0.000347509
0.000304795
0.000570479
0.000636912
0.00067558
0.000887388
0.00095013
0.000508295
0.000721639
0.000549488
0.000434833
0.000435078
0.000319162
9.88604e-05
0.000147095
0.000196956
0.00268232
0.00265274
0.0019631
0.000777429
0.000426435
0.00227387
0.00403174
0.00588258
0.00713856
0.00787908
0.00826976
0.00786245
0.00686767
0.00532265
0.00373431
0.0023782
0.00124884
0.000416954
0.000205369
0.000302805
0.00262936
0.00227737
0.00173552
0.000889317
0.000234765
0.00187705
0.00353174
0.00488693
0.0060733
0.00693204
0.00691967
0.00644356
0.00591742
0.00442816
0.00320815
0.00199099
0.000951268
0.000108204
4.0528e-05
7.17151e-05
0.0022321
0.00210497
0.00177862
0.00103749
0.000311636
0.00167874
0.00289361
0.00440309
0.00511377
0.00583974
0.00583947
0.00556423
0.00480746
0.00388938
0.00271356
0.00155069
0.000683523
0.000137981
0.000446528
0.000169689
0.00163539
0.00182476
0.00153264
0.000550452
7.79359e-05
0.00131608
0.00236866
0.00355787
0.00426517
0.00465478
0.00485216
0.00463464
0.00401238
0.00294511
0.00208472
0.0011902
0.000714912
2.26717e-05
0.000184514
0.000105979
0.00153416
0.00134106
0.00114018
0.000424282
4.24899e-06
0.000797879
0.00156707
0.00266208
0.00330579
0.0036422
0.00385449
0.00353821
0.00302917
0.00252298
0.00185363
0.000898181
0.000277648
4.05026e-05
0.000134257
0.000263727
0.00107072
0.00101909
0.00097581
0.000289406
0.000131686
0.000543183
0.00153159
0.00205282
0.00224359
0.00266141
0.00268334
0.00276518
0.0022698
0.00179289
0.0012206
0.0007123
0.000101583
0.000123161
0.000141571
0.000282522
0.0007841
0.000516731
0.00067049
0.000352865
8.40067e-05
0.000286123
0.000893605
0.00119968
0.00129487
0.00156374
0.0016894
0.00171183
0.00126052
0.0010942
0.000544185
0.000528415
4.88618e-05
6.13223e-05
5.61171e-06
6.49893e-05
0.000136043
0.000288581
0.000159695
3.07482e-05
3.05933e-05
0.000142293
0.000263404
2.64484e-05
0.000465511
0.000693883
0.000704411
0.000649713
0.000343793
0.000348841
0.000189405
0.000174278
0.000170849
0.00012104
3.93383e-05
0.000161422
0.00461274
0.00467036
0.00419593
0.00341914
0.00231407
0.000496825
0.00113409
0.00251053
0.00405359
0.00469107
0.00496458
0.00450394
0.00366936
0.00227111
0.00104509
0.000225096
0.0010826
0.0016413
0.00188868
0.00184769
0.00395938
0.00406196
0.00404717
0.00307251
0.00161419
0.000491168
0.000780249
0.00227469
0.00339232
0.00420217
0.00411794
0.00394089
0.00310442
0.00186996
0.000706589
0.000356378
0.00129006
0.00180913
0.00193981
0.00175635
0.00354285
0.00389521
0.00327167
0.00269084
0.00194504
0.000517631
0.000625793
0.00177133
0.00277881
0.00346522
0.00340424
0.00301415
0.00258064
0.00149157
0.00051875
0.000159276
0.00108354
0.00162317
0.0017598
0.00159997
0.00312991
0.00296648
0.00289236
0.00210339
0.0016497
0.000623727
0.000548087
0.00144244
0.00214643
0.00281067
0.00278364
0.00248815
0.00196853
0.00122389
0.000403531
0.000381163
0.000999871
0.00133239
0.00154801
0.00143839
0.0023552
0.00235801
0.00194303
0.00190319
0.00113753
0.000534042
0.000343276
0.00113199
0.00165797
0.00202216
0.00213052
0.00175246
0.00163192
0.000921854
0.000165815
0.00026803
0.000819487
0.000996919
0.00125521
0.00119124
0.00169789
0.00179377
0.00168183
0.0014455
0.000985818
0.000360432
9.32249e-05
0.000738899
0.001432
0.00133787
0.00166762
0.00133155
0.0009409
0.000685512
0.000297753
0.000317239
0.00079718
0.000941364
0.000972429
0.000604952
0.00114536
0.000835334
0.00118875
0.000767964
0.000598381
0.000259445
9.60228e-05
0.000452212
0.000784365
0.000955273
0.00106489
0.0008705
0.000793379
0.000508997
4.65058e-05
0.000278412
0.00025235
0.000520543
0.000510057
0.000573948
0.000358771
0.00030257
0.000313397
0.000345975
0.00010063
8.85876e-05
0.000211334
6.93849e-05
4.64518e-05
0.000388336
0.000349188
0.00024595
2.68235e-06
0.0003024
9.32359e-05
0.000142532
0.00018235
0.000272098
6.64693e-05
0.000188729
0.0060067
0.00628864
0.00615339
0.00544947
0.00434103
0.0030105
0.00159269
0.000185151
0.00106613
0.00172578
0.00174777
0.00144208
0.000747186
0.000161124
0.00126631
0.00238521
0.00317076
0.00354605
0.00337969
0.00303447
0.0056499
0.00557736
0.00558991
0.0048298
0.00395978
0.00288497
0.00159874
0.000198937
0.000647241
0.00138845
0.00149296
0.00130521
0.000438788
0.000277112
0.00125435
0.00225103
0.00289438
0.00325546
0.00328303
0.00294534
0.00478949
0.00459745
0.00467132
0.00408054
0.0033886
0.00228896
0.00130238
0.000316852
0.000571968
0.000939811
0.0012533
0.00119783
0.000435281
0.000363283
0.00154728
0.00212096
0.00272116
0.00297777
0.00278175
0.00278406
0.00404656
0.00404817
0.00410429
0.00337973
0.00298143
0.00202539
0.00115775
0.000325347
0.000294227
0.000897306
0.000847848
0.000755487
4.87058e-05
0.000541794
0.0010916
0.00190031
0.00241709
0.00249585
0.00249419
0.00226032
0.00325596
0.00323852
0.00308455
0.00314947
0.00227161
0.00170443
0.000888792
0.000347672
0.000224967
0.000510531
0.000778577
0.000784352
6.81353e-05
0.000358981
0.00105375
0.00148993
0.00174768
0.00204876
0.00216538
0.00179752
0.00221424
0.00238631
0.00213391
0.00205026
0.0019685
0.00127323
0.000621909
0.000122226
0.000147571
0.000341415
0.000302722
4.76706e-06
0.000137138
0.000156184
0.000779958
0.00109271
0.0014369
0.0017158
0.00148227
0.00128511
0.00150376
0.00147293
0.00146521
0.00134235
0.00106172
0.000668079
0.000290754
0.000264747
1.81341e-05
4.77824e-06
0.000393611
0.000204379
0.000138535
0.000276499
0.000418324
0.000792899
0.00107242
0.000962243
0.00102073
0.000727556
0.000307593
0.000521917
0.00037576
0.000325257
0.000365096
0.000426499
0.000311403
0.000171984
4.69255e-05
0.000181879
0.000164805
2.90442e-05
0.000193419
0.000100576
0.000166082
0.000320326
0.000280595
0.000454372
0.000449146
0.000457578
0.00681753
0.00741549
0.00740113
0.00712286
0.00610947
0.00491892
0.00367643
0.00252972
0.00170568
0.001071
0.000737591
0.00111622
0.00169864
0.00245425
0.00340997
0.00435965
0.00487436
0.00485845
0.00457337
0.00408194
0.00603465
0.00651625
0.00655442
0.00623159
0.00523226
0.00458755
0.00338783
0.00259018
0.00143819
0.000995
0.000789322
0.000901037
0.00169253
0.00227172
0.00313516
0.00387759
0.00440516
0.00447501
0.00415091
0.0034426
0.00530713
0.00559365
0.00582213
0.0054833
0.00488084
0.00411179
0.0030527
0.00230812
0.00163008
0.000957375
0.000733309
0.000872979
0.00139824
0.00221612
0.00284107
0.00316835
0.00400982
0.00397705
0.00372197
0.00337809
0.00453978
0.00495564
0.00495407
0.00446411
0.00419249
0.00349643
0.00268853
0.00187012
0.00135604
0.000906063
0.000652241
0.000915817
0.00126247
0.00209082
0.00239259
0.00293775
0.00318848
0.00329025
0.00309217
0.00265087
0.00346599
0.0036647
0.00365462
0.0036012
0.00337389
0.00276804
0.00213762
0.00147986
0.00109369
0.000889069
0.000584739
0.000720088
0.00100564
0.00164364
0.00214406
0.00250344
0.00269053
0.00286942
0.00274774
0.00246089
0.002633
0.00286548
0.00246028
0.00274731
0.00223881
0.00194905
0.00153393
0.00128963
0.000825202
0.000591446
0.000385762
0.000539381
0.000717875
0.00105792
0.00152905
0.00184263
0.00184341
0.00213526
0.00179801
0.00157373
0.00163676
0.00188744
0.00189051
0.00157212
0.00139936
0.00111694
0.000862952
0.000802879
0.000544348
0.000403636
0.00027859
0.000539362
0.000473774
0.000829672
0.000873887
0.000990011
0.00125377
0.00126649
0.00102898
0.000872861
0.00049671
0.00067441
0.000535676
0.000573704
0.000623546
0.000654604
0.000291472
0.000281804
0.000184575
0.000135794
6.16559e-05
0.000315378
0.000290538
0.000209438
0.000281028
0.000318595
0.000482019
0.000431835
0.000223826
0.000143658
0.00727375
0.00765564
0.00800842
0.00809728
0.00726394
0.00663946
0.00542743
0.00448657
0.00363304
0.00328229
0.00310574
0.00316016
0.00355471
0.00446701
0.0049172
0.00547764
0.00559841
0.00576842
0.00505931
0.00436931
0.00631826
0.00695051
0.00735224
0.0071651
0.00667086
0.00598439
0.00506735
0.00424566
0.00345988
0.00295459
0.00277908
0.00295474
0.00336048
0.00398892
0.0044621
0.00489791
0.00492436
0.00511781
0.00468112
0.00387492
0.00551505
0.00600379
0.00638409
0.00624605
0.00569745
0.00546758
0.00449631
0.00352753
0.00303428
0.0027583
0.00251416
0.00263767
0.00284216
0.00360391
0.00399607
0.00441659
0.00461101
0.00447015
0.00416653
0.00339413
0.00469016
0.00505828
0.00526268
0.00495165
0.00512746
0.00429865
0.00373038
0.00312177
0.00252016
0.00219592
0.00216267
0.00222707
0.00257628
0.00299974
0.0036054
0.00359825
0.00385029
0.00378799
0.00345896
0.00335053
0.00368963
0.00422316
0.00431136
0.00425299
0.00410924
0.00342146
0.00289693
0.00241131
0.00209541
0.00212116
0.00158749
0.00200131
0.00205768
0.00249651
0.00269367
0.00302638
0.0032684
0.00299732
0.00275177
0.00258837
0.00292664
0.0028312
0.00312896
0.00319495
0.00270124
0.00247409
0.00219548
0.00191108
0.00172757
0.00149708
0.00135624
0.00130299
0.00134825
0.00170945
0.00204718
0.00218411
0.00220513
0.00228677
0.0020342
0.00184488
0.00180437
0.00179397
0.00203107
0.00166628
0.00160362
0.00169469
0.00138294
0.00106532
0.00091534
0.000821645
0.000880697
0.000732154
0.000906119
0.00109769
0.00132756
0.00149455
0.00145773
0.00134647
0.00132141
0.00117659
0.000719689
0.000338162
0.000623209
0.000667964
0.000662735
0.000650668
0.000544273
0.000474973
0.000368468
0.000342965
0.000347688
0.000258549
0.000502193
0.000471959
0.000659475
0.00053291
0.000389541
0.000473181
0.000516046
0.000372698
0.00708771
0.00786906
0.00833456
0.00861382
0.00823717
0.00760744
0.00684811
0.00597963
0.00525017
0.00496983
0.00474881
0.00470218
0.00513017
0.00564532
0.00608218
0.00610628
0.00639539
0.00608366
0.00510859
0.00419022
0.00640359
0.00712824
0.00749942
0.00755562
0.00732824
0.0069965
0.00614619
0.00558805
0.00484135
0.00427895
0.0043064
0.00429024
0.00468871
0.004877
0.00544519
0.00564353
0.00587617
0.00528486
0.00472841
0.00387553
0.00554658
0.00608873
0.006598
0.00664022
0.00633516
0.00593796
0.00555608
0.00487212
0.00432525
0.00391565
0.00382481
0.00388098
0.00409507
0.00420675
0.00483656
0.00483764
0.00505209
0.0048017
0.00427888
0.00361176
0.00482334
0.00506571
0.00556996
0.00558858
0.00555889
0.00513282
0.00460766
0.00401558
0.00372111
0.00322138
0.00301355
0.00320212
0.00347421
0.00393499
0.00418502
0.0043048
0.00431972
0.00391167
0.00354685
0.00322397
0.00372114
0.00410351
0.00434951
0.00458579
0.00429511
0.00405821
0.00375709
0.00359496
0.00287479
0.00299271
0.00262588
0.00283763
0.00285502
0.00300833
0.00326258
0.00334098
0.00335945
0.0035415
0.00304908
0.00246929
0.00278863
0.00312859
0.00319727
0.00306835
0.00332125
0.002856
0.00260387
0.00246039
0.00219624
0.00195009
0.00191939
0.00215517
0.00196999
0.00224914
0.00236089
0.00262816
0.00250861
0.00243105
0.00212124
0.00202427
0.00178061
0.00185198
0.00205358
0.00177689
0.0019144
0.00173706
0.00149413
0.0015932
0.00121643
0.00139378
0.00139407
0.000890044
0.00124795
0.00129392
0.00134176
0.00122543
0.00149885
0.00138851
0.00142033
0.00122945
0.000435218
0.00064134
0.000796327
0.000642572
0.000808768
0.000556445
0.000502514
0.000516439
0.000593528
0.000358346
0.000441937
0.00031827
0.000442121
0.000170654
0.00047209
0.000511058
0.000692296
0.00053704
0.000561332
0.000344644
0.00639492
0.00749069
0.00813518
0.00849403
0.0082469
0.00805801
0.00757381
0.00671665
0.00619279
0.00591642
0.00553808
0.00572457
0.0060139
0.00622862
0.00655206
0.00653535
0.00611932
0.00553703
0.00442329
0.00364105
0.00591292
0.00662715
0.00707506
0.00745231
0.00759944
0.00736432
0.00687051
0.00604332
0.00576327
0.00554347
0.00511541
0.00533827
0.00550528
0.00554366
0.00578573
0.00575698
0.00567672
0.00492089
0.00423259
0.00314278
0.00493026
0.00568133
0.00620789
0.00664012
0.00662942
0.00636318
0.00590928
0.0052913
0.00482189
0.00498924
0.00450124
0.0046968
0.00479591
0.00514169
0.00506431
0.00509872
0.00509092
0.00443501
0.00363111
0.00307576
0.00437683
0.00494728
0.00524493
0.00557109
0.00563269
0.00533217
0.00500749
0.00464171
0.00427079
0.00405017
0.0040084
0.00388171
0.00414866
0.00438683
0.00442044
0.00437474
0.00420847
0.0039039
0.0033404
0.00239798
0.00338236
0.00375472
0.00444696
0.00439269
0.00449052
0.00429728
0.00405827
0.00366145
0.00329214
0.00346527
0.00320427
0.0033849
0.00312479
0.00339229
0.00375927
0.00358494
0.00328285
0.00309891
0.00257257
0.0021572
0.00235204
0.00282255
0.00312696
0.00294432
0.00326019
0.00327353
0.00271044
0.00274186
0.00260138
0.00234495
0.00221921
0.0023962
0.00246787
0.00249681
0.00253536
0.00260454
0.00238199
0.00223927
0.0019612
0.00128622
0.00142101
0.00192433
0.00200538
0.0017359
0.00189811
0.00211152
0.00183814
0.00164055
0.00158443
0.00140916
0.00153103
0.00167204
0.00166528
0.00166177
0.00156855
0.00154417
0.00146118
0.00135466
0.00121348
0.000898916
0.000412543
0.000605083
0.000657662
0.000674434
0.000908819
0.000793353
0.000916919
0.000785
0.000331298
0.000555637
0.000451218
0.000551601
0.000481092
0.000562316
0.00050268
0.00045712
0.000457291
0.000484005
0.000327232
0.000341015
0.00498445
0.00607703
0.00719041
0.00773586
0.00791161
0.00789521
0.00753999
0.0070803
0.00676637
0.00648191
0.00623449
0.00606554
0.00613485
0.00606065
0.00619788
0.00599295
0.00544726
0.0046301
0.00352404
0.00233527
0.00440048
0.00569194
0.00629273
0.00707355
0.00724879
0.00721381
0.0066829
0.00646889
0.00614208
0.00569285
0.00570545
0.00543441
0.00560616
0.0057221
0.00565709
0.00545718
0.00505656
0.00419826
0.00330714
0.00195361
0.00395755
0.00496263
0.00552027
0.00605785
0.00616723
0.00627356
0.00582209
0.00562887
0.00531833
0.00505414
0.00484767
0.00497265
0.00485514
0.00500199
0.00493496
0.00481502
0.0045296
0.00375559
0.00265029
0.00184762
0.00328586
0.00424765
0.00485955
0.00516315
0.00539943
0.00500922
0.00487241
0.00472307
0.00466421
0.00426552
0.00404828
0.00409728
0.00427691
0.0043565
0.00434196
0.00402639
0.00378701
0.00327075
0.00264098
0.00174692
0.00267337
0.00338216
0.00394544
0.00424328
0.00411319
0.00409945
0.00397235
0.00384332
0.00358333
0.00351743
0.00343725
0.00334957
0.00330742
0.00351137
0.00335186
0.00321411
0.00322046
0.00264546
0.00205406
0.00172182
0.00204302
0.0022549
0.00291713
0.0030589
0.00311441
0.00309275
0.00301834
0.00267766
0.0026645
0.0025157
0.00247142
0.00251819
0.00252556
0.00284959
0.00255725
0.00248392
0.00229267
0.00201003
0.00137722
0.000967402
0.00130589
0.00162741
0.00185529
0.00170238
0.00196191
0.0017885
0.00166937
0.00188238
0.00158191
0.00156279
0.00142037
0.0014249
0.00174317
0.00159636
0.00148926
0.00158191
0.00142735
0.00130742
0.000795703
0.000750776
0.000401398
0.000702005
0.000513927
0.000586
0.000485989
0.000621053
0.000547152
0.000545661
0.000489222
0.00062942
0.000360354
0.000578375
0.000555647
0.000586158
0.000375682
0.000704638
0.000485728
0.000371619
0.000256047
0.00042533
0.00310329
0.00430217
0.00550428
0.00640926
0.0068999
0.00672301
0.00682478
0.00665096
0.00627381
0.00606903
0.00601597
0.00580407
0.0056327
0.00570627
0.00534145
0.00502657
0.00426704
0.00322081
0.00152439
0.000314926
0.00294345
0.00386981
0.00515464
0.00580981
0.00627633
0.00615702
0.00616335
0.00578899
0.0056691
0.00562896
0.00530845
0.00535247
0.00541992
0.00496874
0.00500133
0.00431975
0.00381172
0.00309909
0.00181709
0.000298176
0.00253781
0.00338679
0.00443896
0.0049801
0.0055876
0.00541146
0.00544256
0.0054336
0.00500723
0.00487588
0.00488195
0.00469266
0.00480906
0.00459419
0.00435742
0.00385907
0.00353346
0.002729
0.00147642
0.000543538
0.00249602
0.0030051
0.00394413
0.00421893
0.00458221
0.00444805
0.00465617
0.00442203
0.00425367
0.0042688
0.0040548
0.00390068
0.00386146
0.00398396
0.0038246
0.00320853
0.00305539
0.00212774
0.00124417
0.000668706
0.00164512
0.00227162
0.00298757
0.00324802
0.00373301
0.00378223
0.00371713
0.00352351
0.00339335
0.00353907
0.00333867
0.00333569
0.00323367
0.00304659
0.00321238
0.00287777
0.00224142
0.00189827
0.00118906
0.000433602
0.00126493
0.00187733
0.00238371
0.00250062
0.00293453
0.00278055
0.00273372
0.00257833
0.00250824
0.00250464
0.00217556
0.00253687
0.00240357
0.00237119
0.0020465
0.00204186
0.00206653
0.00148789
0.000984269
0.000544152
0.000713019
0.00122413
0.00151441
0.00139228
0.00150349
0.00173427
0.00165999
0.00139306
0.00165812
0.00161058
0.00144619
0.00144641
0.00140431
0.00122862
0.00143309
0.00124384
0.00130494
0.000848007
0.000535623
0.000191836
0.000415593
0.000369743
0.000384429
0.000470433
0.000664492
0.000562104
0.000577822
0.000408417
0.000671206
0.000434583
0.000640735
0.000610849
0.000577471
0.000418247
0.000479737
0.000579931
0.000369365
0.000652098
0.000114489
1.58341e-05
0.000466564
0.00196399
0.00330603
0.00445675
0.00527357
0.00540619
0.00549103
0.0052763
0.00530781
0.00489358
0.00478076
0.00476278
0.00435968
0.00435739
0.00376305
0.00310927
0.00213271
0.00099029
0.000756227
0.00230021
0.000679725
0.0016152
0.00287385
0.00403738
0.00472106
0.00485744
0.00510058
0.00501346
0.00482306
0.00465249
0.0044793
0.00442351
0.00403437
0.00389976
0.00361039
0.00299102
0.00224956
0.00118677
0.000635506
0.00161553
0.000477747
0.00161217
0.00275783
0.00356432
0.00391429
0.00436597
0.00434471
0.00429017
0.00419312
0.00419711
0.00398649
0.00396914
0.00359601
0.00359343
0.00342594
0.00275979
0.00198951
0.00092655
0.000268018
0.00133938
0.00055352
0.00158838
0.00256018
0.0029783
0.00362707
0.0034769
0.00369387
0.00372814
0.0034687
0.00378283
0.00341792
0.00332261
0.00312491
0.00308402
0.00276033
0.00238112
0.00163188
0.000956683
0.000203359
0.0010778
0.000357011
0.00104299
0.00175198
0.00226059
0.0029012
0.00297833
0.00295297
0.00305823
0.00297834
0.00291291
0.00276236
0.00265061
0.00266041
0.0024667
0.00206227
0.00196381
0.00136824
0.000718285
0.000112323
0.000918491
0.000403801
0.000966764
0.00127043
0.00166034
0.00199211
0.00206548
0.00231995
0.00221678
0.00226925
0.00198893
0.00219517
0.00195218
0.00196296
0.00178259
0.00153282
0.00140115
0.00103243
0.000510643
0.000166259
0.000560477
0.000353862
0.000402082
0.000954979
0.000914014
0.00135
0.00136098
0.00145213
0.001368
0.00141953
0.00119373
0.00118868
0.00130764
0.00139818
0.00105107
0.000900794
0.000868035
0.000779919
0.000287262
6.55127e-05
0.000297502
4.92537e-05
0.000205827
0.000355973
0.000556393
0.000623552
0.000341226
0.000512126
0.00038865
0.000490114
0.000664117
0.000479148
0.000275828
0.000238547
0.0005427
0.000503099
0.000352342
0.000209254
0.000104033
1.12024e-05
0.000151727
0.00277506
0.00112481
0.000392814
0.00175157
0.00271118
0.00317251
0.00349639
0.0033405
0.00376828
0.0035554
0.00315963
0.00297423
0.00252851
0.00215569
0.00174866
0.000960947
0.000430895
0.00189297
0.00367885
0.00529657
0.00213857
0.000852199
0.000443585
0.00177464
0.00243875
0.00299085
0.00311504
0.00353564
0.00327214
0.00320784
0.00277055
0.00263183
0.00255631
0.00210909
0.00163551
0.000819775
8.40653e-05
0.00169695
0.00310667
0.00475607
0.00180679
0.000578692
0.000487053
0.00163213
0.00224142
0.00257684
0.00298278
0.00289686
0.00294329
0.00292148
0.00266047
0.0024367
0.00226974
0.00188322
0.00160427
0.000757608
8.03456e-05
0.00122757
0.002521
0.00396088
0.00144285
0.000631072
0.000600527
0.00141655
0.00186968
0.0024937
0.00236977
0.00264277
0.00249577
0.00248747
0.00241006
0.00216777
0.00187646
0.0018439
0.00136467
0.00096046
2.56981e-05
0.00102385
0.00172483
0.00311556
0.00118866
0.000509106
0.00053591
0.00106588
0.00173681
0.00190358
0.00199411
0.00206132
0.00182714
0.00202947
0.00173667
0.00175501
0.00168841
0.00139482
0.00105638
0.000661468
2.42325e-05
0.000734588
0.00145601
0.00244329
0.000760306
0.000419605
0.000445133
0.000952755
0.00114952
0.00130573
0.0015029
0.00158146
0.00145599
0.00149114
0.0012884
0.00138764
0.0013136
0.00109283
0.000911032
0.000684956
0.000229086
0.000531892
0.0011296
0.00153381
0.000399598
0.000292639
0.000101023
0.000371846
0.000725383
0.000764152
0.00101286
0.00102452
0.0010577
0.000825495
0.000783071
0.000843458
0.000800666
0.00071357
0.000506846
0.000441897
0.00015752
6.63533e-05
0.000780201
0.00114004
6.85553e-05
0.000236513
3.62109e-05
0.000302784
0.0001779
0.000235825
0.000485739
0.000478976
0.000496385
0.000141927
0.000177176
0.000353747
6.08052e-05
0.000338155
0.000331799
3.04528e-05
4.69437e-05
7.88083e-05
0.000171839
0.000349059
0.00645181
0.0047405
0.00297476
0.0015032
0.000465673
0.000185021
0.000791332
0.000922131
0.00117482
0.000829516
0.000508154
0.000322391
1.26592e-05
0.000326734
0.00122826
0.00218733
0.00354991
0.00526759
0.00723978
0.00913984
0.00554177
0.00409934
0.00254092
0.00126404
0.000390322
0.000407094
0.000751956
0.000989978
0.00112399
0.00113482
0.000841624
0.000406142
8.41617e-05
0.000366604
0.00101119
0.00199435
0.00294975
0.00468545
0.00630278
0.00780504
0.00470084
0.00332012
0.00231326
0.00103079
0.000279851
0.000498816
0.000753191
0.000914178
0.000946869
0.00106162
0.000676968
0.000521823
0.000250523
0.000305056
0.000846457
0.00162634
0.00262504
0.00382252
0.00557978
0.0066402
0.00384296
0.00284211
0.00175931
0.000730526
0.000332276
0.000238707
0.000660711
0.000878588
0.000916085
0.000862041
0.000652154
0.000515156
0.000238757
4.2571e-05
0.000635274
0.00115124
0.00190455
0.00318409
0.00447936
0.00525132
0.00327478
0.00208922
0.00134564
0.000403015
0.000204563
0.000331092
0.000738464
0.00071478
0.00062662
0.000827637
0.000326448
0.000668746
0.000197006
9.21664e-05
0.000336707
0.000896541
0.00167476
0.0025771
0.00346384
0.00419511
0.00214746
0.00149203
0.000897534
0.000171419
1.16396e-05
0.000293313
0.000528976
0.000446425
0.000711613
0.000615772
0.000349284
0.000372256
0.000284803
4.84005e-08
0.000265232
0.000555896
0.00128167
0.00180229
0.00242331
0.00310539
0.00131534
0.000953188
0.000615876
0.000354567
0.000112896
0.000137635
0.000419647
0.000397541
0.000195528
0.00054106
0.000147694
9.06279e-05
0.000414533
4.10526e-05
2.01611e-05
0.000297523
0.00069075
0.00108249
0.00140641
0.00195454
0.000502066
0.000545356
0.000260509
0.000112292
0.000195651
0.000220046
0.000171869
0.000204171
0.000116482
0.000343752
7.90021e-05
0.000256238
0.000208352
0.000181731
0.000126015
0.000101632
0.000170791
0.00047453
0.000547858
0.000526056
0.0112443
0.0090821
0.00714625
0.00554305
0.00429749
0.00335331
0.00286781
0.00242338
0.0021844
0.00241017
0.00240728
0.00288416
0.00317391
0.00391943
0.00490738
0.00614264
0.00758088
0.00946608
0.0117668
0.0136642
0.00962189
0.00802979
0.00615769
0.00449706
0.00369853
0.00299953
0.0023864
0.00212955
0.0019301
0.00185443
0.001968
0.00247185
0.00277737
0.00314971
0.00419544
0.00524582
0.00651557
0.00823248
0.0101439
0.0118339
0.00807083
0.00691218
0.00535845
0.00406055
0.00307567
0.00212099
0.00196471
0.00179503
0.00154317
0.00154981
0.0015312
0.00184376
0.00223311
0.00275995
0.00347344
0.00432586
0.00558258
0.00681241
0.00838479
0.0100179
0.00683922
0.00553647
0.00444246
0.00322812
0.00262712
0.0020364
0.00166203
0.00133492
0.00126327
0.00115152
0.00119395
0.00178003
0.00162081
0.00225194
0.00287148
0.00373972
0.00464835
0.00558932
0.00707015
0.00826897
0.0052802
0.00435294
0.0034792
0.00242362
0.0020719
0.00161822
0.00117533
0.000845518
0.000758943
0.000987813
0.00107636
0.00111974
0.00140184
0.00175615
0.00211261
0.00279369
0.00358026
0.004507
0.00542725
0.00658369
0.0037356
0.00333268
0.00251525
0.00186692
0.00132193
0.000953034
0.000969747
0.00075319
0.000628664
0.000581973
0.000829808
0.000906924
0.000863137
0.00124326
0.00134801
0.00200519
0.00272061
0.00328162
0.00396575
0.00473705
0.00228231
0.0021618
0.00158195
0.00108137
0.000671345
0.000781088
0.000548217
0.000557537
0.00061434
0.000160909
0.000606649
0.000491467
0.000524766
0.000632566
0.000874264
0.00115816
0.00175269
0.00205946
0.00276738
0.00281256
0.000862451
0.000613941
0.000554223
0.000219163
0.000362062
0.00027791
0.000135154
0.000122878
0.000139089
0.000129865
5.78269e-05
4.88639e-05
0.000113444
0.000508397
0.000246463
0.000449383
0.000531763
0.000744498
0.00111009
0.00101028
0.0159734
0.0140055
0.011996
0.0100304
0.00850084
0.00758562
0.00696367
0.00653141
0.00608172
0.00619758
0.00634344
0.00677647
0.00744296
0.00807043
0.00893167
0.0104601
0.0122946
0.0140378
0.0162921
0.0184146
0.0139135
0.0123742
0.0104574
0.00864876
0.00755082
0.00670612
0.00586606
0.00561901
0.00544101
0.00547359
0.00552028
0.00588193
0.00619148
0.00688743
0.00784526
0.00899272
0.0105537
0.0122694
0.0142726
0.0160838
0.0120487
0.0104474
0.00885517
0.00739394
0.0065097
0.00546765
0.0050418
0.00458358