/*--------------------------------*- C++ -*----------------------------------*\
| =========                 |                                                 |
| \\      /  F ield         | OpenFOAM: The Open Source CFD Toolbox           |
|  \\    /   O peration     | Version:  2212                                  |
|   \\  /    A nd           | Website:  www.openfoam.com                      |
|    \\/     M anipulation  |                                                 |
\*---------------------------------------------------------------------------*/
FoamFile
{
    version     2.0;
    format      ascii;
    arch        "LSB;label=32;scalar=64";
    class       volScalarField;
    location    "0";
    object      stateMean;
}
// * * * * * * * * * * * * * * * * * * * * * * * * * * * * * * * * * * * * * //

dimensions      [0 0 0 1 0 0 0];

internalField   nonuniform List<scalar> 
3200
(
341.586
342.406
343.386
344.16
344.923
345.515
346
346.294
346.497
346.586
346.542
346.355
345.952
345.531
344.93
344.261
343.463
342.523
341.597
340.691
336.161
336.889
337.713
338.403
339.004
339.522
339.927
340.256
340.42
340.478
340.418
340.262
339.998
339.628
339.177
338.441
337.795
336.96
336.129
335.452
330.686
331.24
331.9
332.592
333.124
333.561
333.939
334.118
334.279
334.333
334.321
334.184
333.962
333.592
333.131
332.703
332.035
331.343
330.683
330.088
325.215
325.562
326.172
326.751
327.131
327.47
327.794
328.071
328.13
328.162
328.041
327.956
327.811
327.513
327.212
326.768
326.287
325.76
325.087
324.623
319.671
320.067
320.407
320.781
321.081
321.409
321.634
321.769
321.874
321.935
321.948
321.823
321.701
321.464
321.254
320.945
320.549
320.096
319.641
319.241
314.021
314.272
314.591
314.84
315.168
315.384
315.491
315.63
315.672
315.672
315.698
315.568
315.472
315.354
315.165
314.957
314.641
314.302
314.069
313.801
308.422
308.546
308.706
308.899
309.038
309.235
309.338
309.373
309.434
309.405
309.429
309.373
309.283
309.21
309.15
308.936
308.811
308.66
308.488
308.212
302.806
302.901
302.917
302.938
303.043
303.142
303.102
303.157
303.181
303.149
303.133
303.155
303.159
303.094
303.027
302.941
302.891
302.921
302.807
302.781
342.501
343.227
344.214
344.995
345.725
346.307
346.849
347.236
347.394
347.401
347.428
347.251
346.935
346.371
345.816
345.088
344.262
343.325
342.391
341.407
336.794
337.536
338.382
339.107
339.759
340.301
340.639
340.941
341.163
341.231
341.146
341.023
340.76
340.29
339.709
339.162
338.517
337.59
336.792
336.014
331.193
331.83
332.453
333.097
333.581
334.154
334.479
334.786
334.937
334.932
334.841
334.788
334.426
334.08
333.721
333.197
332.588
331.934
331.205
330.619
325.588
326.041
326.576
327.163
327.537
327.958
328.229
328.433
328.646
328.657
328.586
328.455
328.324
327.991
327.646
327.191
326.768
326.138
325.642
325.019
319.907
320.317
320.761
321.15
321.446
321.73
321.987
322.115
322.214
322.261
322.288
322.175
321.98
321.727
321.488
321.154
320.769
320.357
319.862
319.559
314.29
314.512
314.725
315.103
315.414
315.555
315.723
315.856
315.97
315.986
315.974
315.887
315.749
315.606
315.409
315.161
314.882
314.566
314.16
313.977
308.584
308.736
308.966
309.015
309.274
309.374
309.505
309.525
309.589
309.583
309.586
309.496
309.442
309.367
309.293
309.205
308.937
308.749
308.549
308.338
302.83
302.883
303.003
303.07
303.145
303.139
303.153
303.288
303.224
303.177
303.221
303.241
303.147
303.113
303.134
303.046
303.015
302.903
302.893
302.8
343.448
344.257
345.188
346.126
346.833
347.542
347.92
348.367
348.575
348.664
348.554
348.39
347.911
347.518
346.995
346.208
345.376
344.317
343.401
342.439
337.671
338.45
339.263
340.008
340.68
341.245
341.67
341.931
342.104
342.275
342.145
341.968
341.75
341.258
340.79
340.096
339.367
338.532
337.652
336.843
331.829
332.502
333.315
333.835
334.418
334.883
335.233
335.464
335.7
335.836
335.743
335.61
335.399
334.928
334.474
333.969
333.32
332.707
331.924
331.231
326.158
326.651
327.271
327.772
328.232
328.625
328.861
329.081
329.278
329.335
329.221
329.121
328.93
328.652
328.282
327.827
327.361
326.752
326.158
325.621
320.405
320.765
321.142
321.585
322.029
322.198
322.544
322.686
322.787
322.841
322.783
322.724
322.574
322.26
322.107
321.698
321.29
320.874
320.377
319.928
314.581
314.86
315.156
315.397
315.71
315.95
316.143
316.199
316.27
316.277
316.311
316.259
316.178
315.944
315.727
315.46
315.195
314.914
314.586
314.265
308.77
308.953
309.095
309.228
309.396
309.55
309.731
309.714
309.753
309.818
309.796
309.784
309.687
309.578
309.44
309.292
309.181
308.939
308.756
308.574
302.935
302.997
303.015
303.137
303.12
303.22
303.219
303.266
303.302
303.264
303.245
303.353
303.24
303.225
303.18
303.093
303.04
303.021
302.927
302.855
344.506
345.409
346.332
347.18
348.05
348.661
349.199
349.517
349.776
349.884
349.747
349.521
349.17
348.747
348.151
347.37
346.477
345.509
344.424
343.48
338.69
339.344
340.161
340.962
341.694
342.219
342.649
343.018
343.216
343.239
343.243
343.088
342.663
342.34
341.763
341.094
340.335
339.535
338.587
337.778
332.749
333.348
334.083
334.755
335.246
335.706
336.14
336.338
336.61
336.634
336.634
336.457
336.201
335.804
335.359
334.831
334.179
333.444
332.797
332.064
326.739
327.316
327.909
328.339
328.902
329.246
329.587
329.772
329.957
330.048
329.982
329.834
329.621
329.397
328.993
328.537
327.923
327.414
326.78
326.241
320.887
321.22
321.689
322.043
322.504
322.832
323.119
323.213
323.33
323.392
323.323
323.254
323.094
322.809
322.491
322.215
321.817
321.336
320.833
320.311
314.916
315.18
315.546
315.746
316.041
316.328
316.398
316.553
316.725
316.715
316.708
316.559
316.484
316.315
316.114
315.858
315.623
315.277
314.904
314.668
309.001
309.086
309.361
309.513
309.687
309.822
309.864
309.962
310.071
310.061
310.022
309.942
309.943
309.802
309.742
309.497
309.389
309.135
308.928
308.739
302.977
303.079
303.116
303.143
303.229
303.279
303.319
303.456
303.37
303.324
303.321
303.314
303.36
303.293
303.265
303.185
303.204
303.105
302.98
302.985
345.599
346.505
347.467
348.413
349.271
349.845
350.378
350.82
350.946
351.073
350.977
350.787
350.412
349.979
349.306
348.543
347.602
346.583
345.545
344.648
339.51
340.295
341.261
341.981
342.557
343.217
343.737
344.022
344.215
344.239
344.268
344.026
343.736
343.362
342.807
342.127
341.373
340.5
339.575
338.765
333.497
334.237
334.846
335.54
336.2
336.603
337.025
337.314
337.462
337.486
337.507
337.382
337.041
336.733
336.254
335.6
335.003
334.296
333.526
332.852
327.482
327.929
328.571
329.038
329.631
330.015
330.288
330.544
330.71
330.7
330.709
330.596
330.369
330.065
329.676
329.213
328.675
328.06
327.465
326.93
321.348
321.733
322.116
322.667
322.997
323.363
323.592
323.765
323.905
323.95
323.914
323.874
323.603
323.405
323.136
322.716
322.318
321.812
321.379
320.975
315.254
315.556
315.888
316.216
316.484
316.686
316.908
317.011
317.011
317.158
317.053
317.043
316.947
316.721
316.478
316.272
316.012
315.655
315.297
314.91
309.198
309.264
309.594
309.705
309.899
310.034
310.144
310.218
310.247
310.264
310.23
310.221
310.112
310.016
309.968
309.8
309.545
309.387
309.164
309.021
303.074
303.111
303.188
303.278
303.287
303.364
303.346
303.493
303.503
303.422
303.434
303.442
303.471
303.318
303.365
303.213
303.228
303.175
303.039
303.022
346.623
347.575
348.61
349.531
350.331
351.016
351.566
351.947
352.138
352.237
352.229
352.006
351.619
351.064
350.405
349.649
348.739
347.707
346.57
345.599
340.552
341.251
342.188
342.937
343.665
344.291
344.756
345.031
345.284
345.316
345.28
345.057
344.811
344.301
343.732
343.081
342.277
341.394
340.472
339.636
334.309
334.844
335.654
336.308
336.943
337.413
337.846
338.152
338.312
338.431
338.324
338.101
337.898
337.53
337.163
336.517
335.852
335.088
334.239
333.641
328.105
328.588
329.246
329.704
330.281
330.652
330.992
331.238
331.409
331.407
331.424
331.257
331.114
330.788
330.344
329.925
329.387
328.718
328.079
327.522
321.888
322.252
322.698
323.26
323.527
323.877
324.1
324.33
324.437
324.498
324.411
324.255
324.195
323.928
323.667
323.275
322.808
322.365
321.908
321.42
315.596
315.912
316.185
316.545
316.912
317.072
317.213
317.344
317.467
317.516
317.528
317.516
317.349
317.066
316.916
316.635
316.351
316.053
315.627
315.304
309.416
309.562
309.771
309.965
310.113
310.22
310.311
310.477
310.526
310.587
310.464
310.457
310.352
310.307
310.143
310.03
309.881
309.616
309.423
309.176
303.094
303.211
303.238
303.3
303.391
303.485
303.52
303.536
303.512
303.493
303.498
303.535
303.425
303.457
303.406
303.377
303.286
303.262
303.189
303.14
347.565
348.59
349.618
350.629
351.398
352.065
352.614
353.03
353.33
353.415
353.297
353.122
352.737
352.184
351.537
350.787
349.846
348.735
347.606
346.621
341.256
342.111
343.014
343.862
344.491
345.207
345.646
346.08
346.192
346.306
346.235
346.006
345.77
345.262
344.708
344.027
343.237
342.305
341.307
340.377
334.964
335.633
336.459
337.155
337.773
338.306
338.669
339.016
339.217
339.215
339.14
338.961
338.708
338.386
337.878
337.197
336.661
335.841
335.008
334.322
328.66
329.258
329.867
330.367
330.949
331.367
331.687
331.906
332.087
332.123
332.038
331.941
331.704
331.49
331.002
330.535
329.948
329.321
328.647
328.042
322.261
322.679
323.149
323.644
324.092
324.399
324.652
324.818
324.966
325.044
324.945
324.845
324.664
324.491
324.198
323.811
323.351
322.896
322.384
321.938
315.947
316.27
316.479
316.935
317.146
317.413
317.607
317.801
317.849
317.877
317.812
317.758
317.62
317.456
317.28
317.021
316.65
316.376
315.933
315.613
309.588
309.815
310.017
310.138
310.308
310.435
310.552
310.696
310.733
310.75
310.712
310.732
310.594
310.541
310.36
310.181
310.039
309.824
309.549
309.352
303.196
303.298
303.324
303.409
303.499
303.581
303.535
303.588
303.597
303.603
303.581
303.637
303.59
303.511
303.467
303.407
303.381
303.293
303.162
303.089
348.51
349.42
350.52
351.595
352.359
353.153
353.645
354.073
354.319
354.481
354.418
354.152
353.745
353.307
352.549
351.734
350.724
349.741
348.519
347.505
342.031
342.904
343.884
344.723
345.466
346.108
346.585
346.959
347.16
347.233
347.172
346.985
346.653
346.214
345.584
344.858
343.956
343.121
342.131
341.201
335.607
336.315
337.152
337.868
338.455
339.118
339.46
339.689
339.92
340.035
339.953
339.786
339.457
339.159
338.622
338.024
337.319
336.511
335.701
334.899
329.178
329.737
330.382
330.902
331.591
331.922
332.281
332.534
332.66
332.723
332.712
332.563
332.353
332.039
331.693
331.086
330.54
329.897
329.212
328.739
322.696
323.204
323.681
324.146
324.588
324.837
325.092
325.286
325.437
325.578
325.405
325.407
325.172
324.962
324.601
324.238
323.828
323.257
322.731
322.342
316.298
316.506
316.919
317.284
317.477
317.741
317.957
318.118
318.24
318.261
318.216
318.105
317.939
317.802
317.606
317.314
316.971
316.652
316.254
315.957
309.795
309.933
310.198
310.291
310.481
310.711
310.796
310.849
310.91
310.938
310.957
310.853
310.799
310.708
310.597
310.447
310.227
309.986
309.787
309.601
303.314
303.247
303.397
303.48
303.548
303.611
303.64
303.67
303.674
303.685
303.687
303.64
303.678
303.618
303.614
303.509
303.395
303.351
303.3
303.209
349.36
350.366
351.447
352.524
353.375
354.094
354.674
355.069
355.313
355.475
355.397
355.119
354.769
354.251
353.558
352.628
351.748
350.662
349.406
348.355
342.851
343.719
344.638
345.504
346.277
346.977
347.416
347.829
348.005
348.036
348.045
347.814
347.518
346.978
346.442
345.698
344.928
343.881
342.9
341.989
336.284
336.979
337.818
338.547
339.163
339.717
340.208
340.488
340.668
340.721
340.69
340.517
340.225
339.751
339.345
338.658
338.013
337.215
336.373
335.637
329.765
330.259
330.968
331.559
332.136
332.557
332.889
333.111
333.313
333.302
333.233
333.14
332.932
332.666
332.244
331.722
331.14
330.422
329.759
329.24
323.129
323.569
324.069
324.6
324.962
325.322
325.617
325.889
325.888
326.048
325.929
325.876
325.649
325.374
325.064
324.653
324.203
323.809
323.23
322.726
316.555
316.887
317.209
317.491
317.897
318.062
318.262
318.448
318.53
318.538
318.528
318.517
318.292
318.149
317.905
317.678
317.314
316.967
316.569
316.314
309.968
310.123
310.366
310.474
310.712
310.844
310.937
311.106
311.089
311.196
311.196
310.988
310.999
310.875
310.721
310.498
310.388
310.16
309.99
309.797
303.289
303.395
303.503
303.521
303.637
303.623
303.664
303.714
303.77
303.717
303.742
303.687
303.691
303.563
303.597
303.547
303.536
303.425
303.371
303.261
350.165
351.236
352.322
353.358
354.182
354.983
355.589
355.927
356.198
356.339
356.205
356.033
355.678
355.114
354.452
353.581
352.526
351.414
350.167
349.207
343.587
344.414
345.309
346.227
347.066
347.735
348.237
348.504
348.803
348.933
348.784
348.655
348.318
347.778
347.19
346.431
345.617
344.57
343.595
342.64
336.84
337.575
338.377
339.187
339.85
340.394
340.809
341.067
341.242
341.472
341.306
341.199
340.899
340.549
339.955
339.333
338.665
337.78
336.887
336.218
330.241
330.818
331.424
332.076
332.64
333.059
333.415
333.677
333.826
333.895
333.881
333.696
333.513
333.209
332.756
332.224
331.626
330.982
330.289
329.59
323.503
323.921
324.539
324.943
325.398
325.738
326.021
326.189
326.281
326.447
326.362
326.311
326.015
325.804
325.563
325.104
324.584
324.103
323.539
323.108
316.762
317.122
317.499
317.742
318.144
318.435
318.514
318.736
318.842
318.84
318.8
318.777
318.648
318.446
318.201
317.936
317.564
317.218
316.849
316.425
310.063
310.345
310.538
310.635
310.866
311.105
311.175
311.24
311.313
311.306
311.344
311.341
311.247
311.12
310.936
310.756
310.55
310.336
310.125
309.901
303.351
303.452
303.523
303.59
303.721
303.744
303.832
303.835
303.728
303.812
303.78
303.794
303.743
303.725
303.656
303.584
303.524
303.471
303.367
303.329
350.855
351.88
353.071
354.105
355.006
355.794
356.377
356.795
357.098
357.213
357.125
356.849
356.46
355.854
355.195
354.33
353.301
352.173
350.988
349.93
344.091
345.078
345.974
346.972
347.759
348.435
348.864
349.293
349.538
349.568
349.572
349.292
348.994
348.531
347.896
347.14
346.277
345.253
344.26
343.252
337.375
338.164
338.933
339.731
340.381
340.998
341.364
341.724
341.921
341.988
341.918
341.803
341.461
341.086
340.544
339.924
339.215
338.338
337.386
336.666
330.586
331.265
331.94
332.545
333.124
333.47
333.849
334.146
334.373
334.37
334.298
334.185
333.997
333.677
333.249
332.669
332.09
331.415
330.735
330.079
323.819
324.327
324.877
325.364
325.711
326.076
326.364
326.592
326.699
326.778
326.752
326.623
326.418
326.214
325.834
325.42
325.032
324.456
323.898
323.512
317.053
317.318
317.789
318.113
318.409
318.666
318.877
318.961
319.094
319.118
319.104
319.047
318.912
318.823
318.495
318.208
317.87
317.502
317.04
316.713
310.261
310.478
310.705
310.825
311.073
311.177
311.281
311.462
311.451
311.488
311.444
311.402
311.419
311.258
311.084
310.955
310.74
310.535
310.221
310.089
303.426
303.556
303.552
303.63
303.655
303.749
303.774
303.812
303.823
303.879
303.797
303.85
303.815
303.786
303.674
303.721
303.599
303.509
303.421
303.433
351.516
352.535
353.698
354.793
355.734
356.395
357.074
357.537
357.777
357.897
357.878
357.61
357.176
356.678
355.906
355.072
354.038
352.895
351.56
350.539
344.731
345.556
346.637
347.535
348.362
348.946
349.506
349.831
350.111
350.265
350.153
350
349.702
349.091
348.546
347.684
346.845
345.928
344.849
343.821
337.86
338.566
339.459
340.21
340.978
341.448
341.93
342.311
342.438
342.535
342.537
342.331
342.098
341.641
341.09
340.392
339.72
338.881
337.921
337.188
331.111
331.617
332.366
332.921
333.501
333.89
334.344
334.58
334.747
334.867
334.796
334.629
334.393
334.12
333.682
333.045
332.535
331.764
331.034
330.508
324.098
324.56
325.131
325.576
326.091
326.444
326.722
326.903
327.034
327.171
327.105
327.015
326.808
326.504
326.259
325.813
325.249
324.778
324.209
323.706
317.243
317.62
318.023
318.318
318.711
318.902
319.101
319.225
319.327
319.39
319.285
319.336
319.169
318.986
318.669
318.427
318.18
317.739
317.337
317.014
310.338
310.607
310.842
310.958
311.146
311.361
311.466
311.488
311.645
311.668
311.617
311.579
311.492
311.332
311.267
311.065
310.931
310.635
310.393
310.176
303.518
303.54
303.594
303.671
303.782
303.799
303.846
303.83
303.934
303.875
303.938
303.916
303.881
303.798
303.774
303.756
303.64
303.675
303.463
303.397
352.049
353.131
354.286
355.405
356.395
357.098
357.708
358.105
358.45
358.476
358.435
358.255
357.778
357.305
356.515
355.627
354.583
353.469
352.172
351.076
345.213
346.005
347.028
348.048
348.891
349.508
350.095
350.473
350.696
350.787
350.727
350.557
350.132
349.676
349.074
348.291
347.428
346.445
345.227
344.422
338.231
339.003
339.886
340.681
341.313
341.947
342.365
342.693
342.905
343.033
342.961
342.828
342.456
342.109
341.627
340.92
340.146
339.265
338.366
337.616
331.339
331.994
332.722
333.286
333.922
334.265
334.685
334.979
335.092
335.302
335.18
335.044
334.778
334.481
334.026
333.507
332.838
332.189
331.401
330.799
324.357
324.819
325.363
325.859
326.393
326.724
326.987
327.241
327.37
327.43
327.381
327.263
327.111
326.828
326.426
326.088
325.569
325.027
324.445
323.943
317.453
317.801
318.121
318.481
318.82
319.062
319.335
319.46
319.588
319.555
319.621
319.486
319.379
319.164
318.892
318.632
318.281
317.879
317.547
317.147
310.517
310.633
310.939
311.068
311.343
311.477
311.622
311.69
311.773
311.737
311.735
311.738
311.699
311.497
311.334
311.193
311.026
310.731
310.528
310.315
303.474
303.584
303.675
303.784
303.851
303.809
303.9
303.894
303.947
304.012
303.956
303.882
303.848
303.909
303.858
303.769
303.679
303.535
303.519
303.443
352.506
353.6
354.763
355.896
356.873
357.631
358.268
358.636
359.088
359.166
359.025
358.804
358.346
357.79
357.123
356.25
355.121
353.953
352.696
351.615
345.622
346.5
347.491
348.516
349.299
350.006
350.501
351.016
351.182
351.293
351.14
350.958
350.673
350.15
349.533
348.735
347.87
346.748
345.719
344.716
338.625
339.4
340.218
341.084
341.758
342.308
342.83
343.11
343.345
343.45
343.361
343.171
342.896
342.454
341.976
341.252
340.501
339.635
338.741
337.894
331.632
332.19
332.972
333.633
334.166
334.73
335.001
335.347
335.476
335.567
335.541
335.366
335.091
334.825
334.353
333.862
333.17
332.431
331.827
331.076
324.597
325.039
325.667
326.143
326.658
326.99
327.263
327.483
327.545
327.684
327.588
327.522
327.361
327.068
326.714
326.308
325.788
325.254
324.731
324.189
317.613
317.878
318.359
318.736
319.011
319.258
319.495
319.662
319.721
319.784
319.719
319.699
319.576
319.365
319.132
318.863
318.506
318.048
317.652
317.367
310.601
310.728
310.973
311.188
311.425
311.556
311.737
311.826
311.896
311.854
311.841
311.829
311.756
311.644
311.476
311.337
311.023
310.921
310.576
310.371
303.574
303.698
303.679
303.803
303.808
303.866
303.977
304.003
304.028
303.93
303.941
303.984
303.875
303.932
303.895
303.763
303.725
303.644
303.574
303.489
352.94
354.018
355.219
356.336
357.282
358.049
358.735
359.16
359.517
359.53
359.415
359.211
358.834
358.334
357.543
356.666
355.605
354.402
353.129
351.985
345.944
346.844
347.882
348.839
349.644
350.388
350.915
351.325
351.604
351.727
351.624
351.352
351.008
350.522
349.891
349.083
348.251
347.134
346.077
345.157
338.911
339.711
340.473
341.344
342.023
342.682
343.113
343.446
343.652
343.793
343.66
343.506
343.218
342.75
342.221
341.563
340.799
339.958
338.941
338.251
331.872
332.471
333.173
333.871
334.35
334.862
335.285
335.586
335.757
335.822
335.752
335.623
335.371
335.05
334.569
334.076
333.479
332.697
331.925
331.403
324.725
325.315
325.822
326.405
326.74
327.165
327.518
327.686
327.781
327.912
327.748
327.795
327.517
327.306
326.947
326.514
325.99
325.42
324.867
324.425
317.748
318.101
318.479
318.907
319.159
319.428
319.659
319.759
319.933
319.948
319.863
319.824
319.707
319.49
319.249
318.978
318.553
318.19
317.804
317.443
310.663
310.861
311.079
311.28
311.54
311.656
311.838
311.906
311.897
312.032
311.909
311.864
311.911
311.72
311.607
311.412
311.175
310.934
310.72
310.464
303.559
303.574
303.699
303.784
303.916
303.96
303.976
304.011
304.002
304.081
304.001
304.045
303.886
303.869
303.855
303.826
303.766
303.634
303.574
303.551
353.1
354.303
355.518
356.629
357.597
358.416
359.01
359.508
359.83
359.872
359.873
359.578
359.237
358.632
357.857
356.934
355.898
354.687
353.343
352.236
346.137
347.058
348.165
349.212
349.944
350.607
351.187
351.57
351.846
351.978
351.938
351.655
351.341
350.918
350.187
349.4
348.504
347.438
346.318
345.364
339.127
339.825
340.738
341.577
342.297
342.979
343.341
343.647
343.907
343.995
344.001
343.804
343.496
343.068
342.514
341.868
341.055
340.24
339.321
338.461
331.987
332.667
333.344
334.073
334.588
335.075
335.454
335.766
335.933
336.044
336.029
335.759
335.67
335.255
334.795
334.214
333.597
332.96
332.154
331.509
324.938
325.428
325.955
326.552
326.911
327.285
327.626
327.893
328.032
328.015
327.986
327.913
327.71
327.436
327.122
326.675
326.173
325.619
325.077
324.512
317.861
318.122
318.556
318.942
319.291
319.57
319.706
319.888
320.007
320.063
319.983
319.918
319.853
319.618
319.444
319.073
318.67
318.311
317.92
317.542
310.733
310.851
311.134
311.399
311.632
311.694
311.851
311.916
311.946
312.112
311.973
311.985
311.926
311.825
311.665
311.48
311.19
310.985
310.662
310.568
303.574
303.676
303.729
303.867
303.859
303.917
303.989
304.09
304.026
304.038
304.059
304.053
304.019
303.875
303.926
303.832
303.772
303.671
303.526
303.529
353.383
354.483
355.681
356.876
357.897
358.66
359.26
359.717
360.09
360.156
360.103
359.838
359.387
358.859
358.173
357.19
356.06
354.946
353.661
352.506
346.34
347.215
348.3
349.36
350.155
350.827
351.45
351.799
352.044
352.127
352.11
351.888
351.597
351.089
350.425
349.646
348.689
347.662
346.547
345.578
339.204
340.031
340.926
341.787
342.437
343.115
343.537
343.917
344.069
344.199
344.18
343.994
343.633
343.262
342.715
341.957
341.211
340.354
339.394
338.597
332.241
332.808
333.521
334.193
334.744
335.258
335.715
335.948
336.134
336.135
336.171
335.975
335.809
335.393
334.943
334.366
333.715
333.054
332.324
331.571
325.041
325.416
326.074
326.627
327.012
327.432
327.672
327.966
328.13
328.149
328.168
327.972
327.85
327.566
327.235
326.782
326.325
325.786
325.153
324.637
317.897
318.16
318.614
319.03
319.355
319.575
319.87
320.037
320.098
320.205
320.146
320.013
319.94
319.721
319.432
319.183
318.794
318.349
317.905
317.588
310.758
311.023
311.246
311.532
311.599
311.807
311.905
312.046
312.117
312.084
312.137
312.038
311.969
311.826
311.622
311.513
311.282
311.071
310.829
310.613
303.572
303.734
303.836
303.857
303.916
303.965
304.014
304.07
304.103
304.125
303.985
303.937
304.022
303.991
303.887
303.817
303.737
303.755
303.561
303.535
353.495
354.634
355.914
357.022
357.978
358.755
359.48
359.9
360.145
360.337
360.304
360.066
359.651
358.987
358.247
357.368
356.334
355.094
353.834
352.566
346.39
347.329
348.436
349.438
350.33
351.001
351.544
351.932
352.181
352.285
352.281
352.06
351.774
351.158
350.582
349.734
348.822
347.76
346.655
345.688
339.356
340.124
341.029
341.855
342.541
343.126
343.661
344.024
344.203
344.302
344.248
344.105
343.754
343.358
342.811
342.084
341.367
340.444
339.512
338.755
332.262
332.842
333.627
334.282
334.842
335.334
335.742
336.061
336.238
336.24
336.237
336.062
335.834
335.489
335.011
334.474
333.813
333.19
332.395
331.779
325.105
325.553
326.152
326.643
327.15
327.532
327.788
328.056
328.116
328.255
328.105
328.054
327.932
327.634
327.269
326.866
326.351
325.857
325.232
324.671
317.971
318.253
318.672
319.129
319.375
319.66
319.876
320.058
320.094
320.201
320.211
320.096
319.904
319.699
319.485
319.154
318.844
318.362
317.963
317.64
310.755
310.941
311.187
311.43
311.599
311.78
311.978
312.065
312.098
312.141
312.13
312.063
311.961
311.856
311.67
311.549
311.33
311.097
310.837
310.635
303.679
303.684
303.72
303.869
303.898
303.907
304.048
304.005
304.05
304.059
304.086
304.116
303.96
303.972
303.897
303.905
303.795
303.698
303.621
303.487
353.561
354.665
355.905
357.033
358.054
358.821
359.446
359.992
360.196
360.359
360.301
360.092
359.725
359.054
358.362
357.438
356.371
355.116
353.8
352.64
346.502
347.42
348.456
349.441
350.305
351.02
351.589
351.976
352.266
352.386
352.334
352.134
351.735
351.26
350.662
349.724
348.86
347.849
346.675
345.725
339.352
340.126
341.04
341.861
342.585
343.182
343.703
344.072
344.19
344.316
344.34
344.191
343.882
343.419
342.84
342.16
341.369
340.533
339.537
338.736
332.252
332.893
333.604
334.255
334.878
335.367
335.754
336.118
336.271
336.275
336.301
336.147
335.862
335.494
335.095
334.491
333.839
333.157
332.422
331.752
325.148
325.569
326.146
326.698
327.155
327.515
327.841
328.062
328.208
328.171
328.229
328.14
327.974
327.693
327.323
326.809
326.409
325.884
325.194
324.691
317.991
318.301
318.66
319.022
319.459
319.754
319.961
320.056
320.166
320.162
320.221
320.168
319.97
319.746
319.58
319.28
318.831
318.415
318.088
317.692
310.815
310.996
311.265
311.46
311.655
311.768
311.932
312.039
312.042
312.136
312.144
312.036
311.932
311.895
311.772
311.55
311.322
311.099
310.823
310.575
303.661
303.69
303.761
303.799
303.937
303.951
304.015
304.002
304.02
304.019
304.035
304.033
304.02
304.008
303.865
303.85
303.837
303.757
303.614
303.582
353.602
354.686
355.883
356.986
358.095
358.814
359.53
359.989
360.245
360.319
360.32
360.142
359.673
359.011
358.351
357.377
356.339
355.111
353.817
352.609
346.549
347.452
348.44
349.518
350.334
351.087
351.606
351.983
352.273
352.385
352.335
352.144
351.796
351.212
350.642
349.761
348.973
347.834
346.734
345.704
339.434
340.172
341.044
341.865
342.641
343.187
343.69
344.023
344.248
344.424
344.244
344.21
343.799
343.368
342.848
342.124
341.371
340.48
339.524
338.816
332.266
332.882
333.579
334.272
334.852
335.349
335.775
336.034
336.193
336.226
336.316
336.169
335.847
335.554
335.043
334.521
333.966
333.192
332.367
331.692
325.08
325.587
326.124
326.656
327.187
327.542
327.811
328.121
328.159
328.312
328.241
328.079
327.88
327.622
327.281
326.887
326.39
325.789
325.202
324.718
317.931
318.294
318.717
319.089
319.428
319.655
319.924
320.058
320.13
320.183
320.164
320.078
320.024
319.772
319.615
319.143
318.807
318.389
318.03
317.665
310.785
310.965
311.199
311.505
311.673
311.84
311.968
312.101
312.112
312.152
312.116
312.03
312.022
311.917
311.686
311.439
311.392
311.089
310.803
310.676
303.631
303.649
303.735
303.854
303.91
304.01
304.017
304.04
304.072
304.096
304.033
304.103
303.997
303.955
303.939
303.854
303.789
303.698
303.629
303.603
)
;

boundaryField
{
    hotSide
    {
        type            fixedGradient;
        gradient        nonuniform List<scalar> 
400
(
321.511
322.87
325.591
329.677
335.133
341.965
350.181
359.788
370.794
383.208
397.037
412.289
428.971
447.088
466.647
487.651
510.105
534.011
559.372
586.191
323.738
325.08
327.767
331.802
337.194
343.949
352.078
361.591
372.498
384.81
398.537
413.687
430.268
448.289
467.755
488.672
511.043
534.872
560.161
586.913
326.149
327.47
330.116
334.091
339.406
346.071
354.099
363.503
374.296
386.491
400.101
415.136
431.606
449.52
468.885
489.706
511.988
535.735
560.948
587.63
328.704
330
332.597
336.503
341.73
348.292
356.205
365.485
376.15
388.215
401.695
416.604
432.954
450.753
470.009
490.73
512.919
536.579
561.714
588.325
331.33
332.599
335.142
338.97
344.099
350.546
358.332
367.477
378.003
389.928
403.271
418.047
434.27
451.949
471.095
491.712
513.807
537.382
562.439
588.978
333.918
335.158
337.643
341.389
346.414
352.74
360.392
369.397
379.779
391.562
404.765
419.407
435.503
453.065
472.101
492.618
514.622
538.114
563.096
589.569
336.321
337.531
339.959
343.622
348.544
354.751
362.274
371.142
381.385
393.031
406.101
420.618
436.595
454.047
472.983
493.409
515.33
538.747
563.663
590.076
338.36
339.543
341.92
345.509
350.339
356.44
363.847
372.595
382.718
394.244
407.2
421.608
437.485
454.844
473.695
494.045
515.897
539.253
564.114
590.478
339.852
341.015
343.352
346.885
351.645
357.665
364.985
373.643
383.675
395.113
407.984
422.312
438.116
455.407
474.197
494.491
516.294
539.606
564.428
590.758
340.643
341.795
344.11
347.613
352.334
358.311
365.584
374.193
384.176
395.567
408.393
422.679
438.443
455.699
474.456
494.722
516.498
539.788
564.589
590.901
340.643
341.795
344.11
347.613
352.334
358.311
365.584
374.193
384.176
395.567
408.393
422.679
438.443
455.699
474.456
494.722
516.498
539.788
564.589
590.901
339.852
341.015
343.352
346.885
351.645
357.665
364.985
373.643
383.675
395.113
407.984
422.312
438.116
455.407
474.197
494.491
516.294
539.606
564.428
590.758
338.36
339.543
341.92
345.509
350.339
356.44
363.847
372.595
382.718
394.244
407.2
421.608
437.485
454.844
473.695
494.045
515.897
539.253
564.114
590.478
336.321
337.531
339.959
343.622
348.544
354.751
362.274
371.142
381.385
393.031
406.101
420.618
436.595
454.047
472.983
493.409
515.33
538.747
563.663
590.076
333.918
335.158
337.643
341.389
346.414
352.74
360.392
369.397
379.779
391.562
404.765
419.407
435.503
453.065
472.101
492.618
514.622
538.114
563.096
589.569
331.33
332.599
335.142
338.97
344.099
350.546
358.332
367.477
378.003
389.928
403.271
418.047
434.27
451.949
471.095
491.712
513.807
537.382
562.439
588.978
328.704
330
332.597
336.503
341.73
348.292
356.205
365.485
376.15
388.215
401.695
416.604
432.954
450.753
470.009
490.73
512.919
536.579
561.714
588.325
326.149
327.47
330.116
334.091
339.406
346.071
354.099
363.503
374.296
386.491
400.101
415.136
431.606
449.52
468.885
489.706
511.988
535.735
560.948
587.63
323.738
325.08
327.767
331.802
337.194
343.949
352.078
361.591
372.498
384.81
398.537
413.687
430.268
448.289
467.755
488.672
511.043
534.872
560.161
586.913
321.511
322.87
325.591
329.677
335.133
341.965
350.181
359.788
370.794
383.208
397.037
412.289
428.971
447.088
466.647
487.651
510.105
534.011
559.372
586.191
)
;
    }
    coldSide
    {
        type            mixed;
        refValue        uniform 300;
        refGradient     uniform 0;
        valueFraction   uniform 0.991591;
        source          uniform 0;
        value           nonuniform List<scalar> 
400
(
300.024
300.024
300.025
300.025
300.026
300.026
300.027
300.028
300.028
300.028
300.029
300.03
300.029
300.03
300.03
300.03
300.03
300.031
300.031
300.031
300.024
300.024
300.025
300.026
300.026
300.027
300.028
300.027
300.029
300.029
300.03
300.03
300.03
300.031
300.03
300.031
300.031
300.031