/*--------------------------------*- C++ -*----------------------------------*\
| =========                 |                                                 |
| \\      /  F ield         | OpenFOAM: The Open Source CFD Toolbox           |
|  \\    /   O peration     | Version:  2212                                  |
|   \\  /    A nd           | Website:  www.openfoam.com                      |
|    \\/     M anipulation  |                                                 |
\*---------------------------------------------------------------------------*/
FoamFile
{
    version     2.0;
    format      ascii;
    arch        "LSB;label=32;scalar=64";
    class       volScalarField;
    location    "./ITHACAoutput/true/13.2";
    object      error;
}
// * * * * * * * * * * * * * * * * * * * * * * * * * * * * * * * * * * * * * //

dimensions      [0 0 0 1 0 0 0];

internalField   nonuniform List<scalar> 
3200
(
6.17741
6.29188
6.48475
6.78873
7.14616
7.44598
7.68244
8.02891
8.26808
8.33623
8.38916
8.28621
8.06254
7.85594
7.58416
7.19331
6.89308
6.67604
6.49695
6.43601
5.3294
5.39102
5.51299
5.77104
6.06466
6.37725
6.68403
6.93153
7.09769
7.1965
7.2078
7.1593
6.99831
6.7079
6.47747
6.23468
5.92674
5.7036
5.5859
5.44694
4.39956
4.48731
4.63903
4.85896
5.08467
5.32535
5.60174
5.80066
6.04156
6.14385
6.07573
5.99886
5.85244
5.65774
5.45353
5.19585
5.00179
4.80894
4.61234
4.51869
3.63367
3.73603
3.84514
3.97412
4.19498
4.27746
4.51831
4.73929
4.86959
4.89044
4.94037
4.84864
4.70292
4.60864
4.39957
4.20266
4.02918
3.91863
3.80909
3.66246
2.82636
2.78061
2.97425
3.07518
3.21112
3.33935
3.55369
3.61438
3.75803
3.80667
3.82661
3.80029
3.62771
3.51111
3.47904
3.23937
3.07306
2.97922
2.89793
2.86038
1.9856
2.04691
2.08627
2.14146
2.28147
2.34771
2.53996
2.61817
2.68747
2.63314
2.72522
2.68471
2.65028
2.59377
2.37385
2.28203
2.20757
2.11898
2.0638
2.02076
1.15821
1.24368
1.24663
1.33449
1.39181
1.36683
1.50187
1.63081
1.58645
1.644
1.60615
1.61693
1.58526
1.52287
1.41563
1.40655
1.36634
1.27598
1.2654
1.26425
0.433799
0.40661
0.425543
0.433916
0.547528
0.405801
0.450711
0.565374
0.540349
0.579839
0.552693
0.548739
0.532585
0.458462
0.492103
0.500705
0.48167
0.388508
0.436443
0.453685
5.60767
5.75734
5.88585
6.17733
6.49309
6.7758
7.14017
7.41461
7.63297
7.74226
7.73514
7.59613
7.41427
7.16951
6.89942
6.56128
6.24212
6.03172
5.95633
5.82389
4.89367
4.95281
5.14662
5.31409
5.5607
5.84773
6.14684
6.38824
6.5906
6.67075
6.67473
6.5893
6.44313
6.2
5.9167
5.60455
5.4181
5.24941
5.12534
5.0103
4.09007
4.10648
4.26099
4.48049
4.71381
4.97885
5.14982
5.38499
5.57682
5.61191
5.53917
5.59012
5.42791
5.24755
5.00642
4.81833
4.60247
4.43518
4.31088
4.24709
3.32033
3.38977
3.51696
3.69618
3.75299
4.01525
4.21537
4.38128
4.58643
4.56911
4.56189
4.54593
4.50035
4.21578
4.09281
3.89881
3.66353
3.60295
3.42863
3.44366
2.57909
2.67707
2.71313
2.75645
2.98432
3.12626
3.3032
3.38939
3.54631
3.60521
3.61577
3.4538
3.44823
3.34826
3.08225
2.98402
2.8748
2.75311
2.70851
2.69499
1.82532
1.88268
1.89104
1.95505
2.19013
2.21963
2.31831
2.46181
2.52259
2.51018
2.5805
2.46989
2.46139
2.30542
2.2203
2.12664
1.9994
1.96749
1.91241
1.87034
1.14503
1.19154
1.14597
1.20897
1.30348
1.37825
1.40241
1.47127
1.55541
1.52784
1.50402
1.50618
1.42123
1.41194
1.36023
1.31247
1.16692
1.20583
1.23099
1.10907
0.370726
0.343138
0.427433
0.441693
0.402904
0.574955
0.452088
0.456429
0.500883
0.560128
0.511099
0.507067
0.461164
0.452076
0.430849
0.4388
0.445324
0.386518
0.341027
0.344954
5.00287
5.12854
5.27672
5.44099
5.73818
6.03671
6.29012
6.54348
6.73687
6.84068
6.88185
6.81584
6.58204
6.31623
6.02305
5.78768
5.51046
5.28237
5.16452
5.10345
4.32927
4.41926
4.52905
4.78347
4.89749
5.22805
5.45362
5.6448
5.88451
5.98145
5.92365
5.86298
5.68051
5.47094
5.20495
4.97607
4.70148
4.57114
4.43867
4.37171
3.59578
3.69772
3.77315
4.01709
4.1881
4.31952
4.63889
4.77909
4.87448
5.06465
5.01386
4.99357
4.82341
4.65274
4.38623
4.2188
4.02266
3.76054
3.78937
3.59117
3.00164
3.05346
3.14086
3.24091
3.40559
3.53227
3.76837
4.01213
4.12391
4.0442
4.11105
4.07805
3.93456
3.7504
3.62106
3.41519
3.29641
3.15819
3.00644
2.99266
2.26036
2.34739
2.46932
2.47318
2.68635
2.78918
2.96719
2.9817
3.12728
3.26345
3.19437
3.11054
3.06968
2.93376
2.8446
2.63616
2.48626
2.43186
2.38954
2.33329
1.66272
1.69354
1.71778
1.76308
1.83972
2.05998
2.06002
2.11003
2.19223
2.20366
2.2737
2.24607
2.18794
2.10583
1.94289
1.92381
1.88976
1.72532
1.73803
1.64328
0.997008
1.01167
1.06727
1.04057
1.14668
1.16828
1.25882
1.32458
1.33307
1.37121
1.39733
1.36258
1.29617
1.17736
1.15168
1.10506
1.12566
1.12361
1.0153
1.06054
0.27174
0.37706
0.379598
0.377356
0.361368
0.354763
0.371272
0.446181
0.439501
0.465534
0.392408
0.52125
0.469789
0.499418
0.409811
0.349236
0.338561
0.344229
0.36509
0.369055
4.38369
4.462
4.60232
4.73164
4.99789
5.23077
5.47342
5.65111
5.85924
5.93221
5.94632
5.88007
5.69023
5.44131
5.2561
4.89134
4.63538
4.484
4.33755
4.33609
3.79828
3.88012
3.91493
4.06952
4.29524
4.49361
4.7789
4.88297
5.09209
5.18132
5.115
5.10808
4.94084
4.68378
4.41727
4.2419
4.03375
3.88022
3.7676
3.76002
3.17865
3.2073
3.32139
3.47794
3.62535
3.79752
4.0134
4.16904
4.26523
4.39901
4.3268
4.304
4.22395
3.98217
3.75725
3.58264
3.38271
3.28674
3.22753
3.12001
2.64907
2.63233
2.77587
2.87474
2.98705
3.04818
3.29236
3.34177
3.47622
3.58734
3.53548
3.4827
3.3872
3.18507
3.11982
2.89327
2.78059
2.64639
2.60602
2.52038
2.02674
2.10239
2.16459
2.1341
2.25924
2.38321
2.52494
2.62859
2.7873
2.71456
2.79768
2.76365
2.627
2.52011
2.41013
2.2557
2.15025
2.0527
2.02742
1.90921
1.38878
1.49222
1.52197
1.57008
1.63391
1.74979
1.83736
1.8793
1.9823
1.89222
1.96533
1.90822
1.87283
1.76946
1.76218
1.6613
1.52737
1.50219
1.45176
1.48229
0.872601
0.89905
0.854494
0.961592
0.956904
1.01866
1.10257
1.16899
1.21258
1.17218
1.21223
1.13677
1.1449
1.06823
1.03718
1.00918
0.877335
0.940269
0.894237
0.815204
0.354608
0.26294
0.323693
0.338523
0.31037
0.30707
0.397127
0.341554
0.480469
0.336488
0.390203
0.423477
0.345483
0.405649
0.312119
0.271044
0.349127
0.289743
0.288925
0.25936
3.75723
3.80116
3.86184
4.12161
4.22136
4.42282
4.62452
4.8111
4.99486
5.00642
5.01255
4.99614
4.80887
4.54061
4.28521
4.13642
3.91821
3.82278
3.66914
3.59025
3.25837
3.30183
3.36805
3.47014
3.65179
3.83746
4.07489
4.16935
4.35389
4.34887
4.38663
4.29589
4.14423
3.91123
3.7235
3.49154
3.3357
3.26943
3.13298
3.1472
2.77579
2.80902
2.81648
3.03738
3.11529
3.2025
3.41801
3.49838
3.67364
3.67838
3.73411
3.62137
3.4183
3.27962
3.14454
2.99861
2.84619
2.67529
2.69503
2.62123
2.20151
2.35194
2.33968
2.35347
2.63393
2.63491
2.76765
2.8847
2.97582
3.00839
3.0065
2.99758
2.82049
2.69375
2.54797
2.45824
2.32031
2.18544
2.13226
2.17326
1.75459
1.76829
1.82912
1.8238
1.96895
2.09357
2.1431
2.27914
2.30671
2.39794
2.34181
2.2616
2.19848
2.07985
2.10302
1.87522
1.82046
1.76829
1.6815
1.70386
1.26021
1.29528
1.26772
1.41986
1.34054
1.38531
1.50879
1.58327
1.64044
1.67633
1.69961
1.59842
1.59796
1.48912
1.42412
1.46664
1.32763
1.24454
1.19484
1.13237
0.803531
0.779577
0.780461
0.864433
0.800896
0.861022
0.949835
0.915473
0.961825
1.0196
1.01901
0.925894
0.953562
0.895466
0.847959
0.774484
0.892869
0.664329
0.7347
0.696866
0.17623
0.253678
0.166406
0.303006
0.313442
0.288576
0.336075
0.289805
0.34863
0.316026
0.401826
0.323261
0.30027
0.36942
0.30603
0.262736
0.270824
0.270182
0.248118
0.235023
3.1881
3.30856
3.29331
3.36935
3.51118
3.71117
3.80741
4.07298
4.1235
4.18676
4.17715
4.17618
3.89489
3.72357
3.50764
3.36428
3.16603
3.00169
3.04949
2.9759
2.79802
2.80498
2.85461
2.86581
3.05289
3.15129
3.31081
3.51867
3.5378
3.59387
3.62403
3.55025
3.434
3.18004
3.07136
2.89304
2.75637
2.63933
2.50198
2.59578
2.38536
2.32766
2.46065
2.50166
2.5395
2.65269
2.78771
2.91759
2.99258
2.98886
3.06693
2.9695
2.83491
2.76595
2.59588
2.47942
2.25572
2.22488
2.1658
2.19937
1.86762
1.96967
1.91513
2.02345
2.08602
2.20811
2.30662
2.48394
2.51962
2.47345
2.4914
2.45966
2.3602
2.20065
2.0163
2.00634
1.78886
1.78757
1.71396
1.7122
1.52326
1.41586
1.51354
1.56973
1.59752
1.70626
1.83941
1.91336
1.97329
1.96862
1.94025
1.82444
1.82717
1.75814
1.62316
1.53394
1.4374
1.38407
1.31085
1.36755
1.11473
1.07642
1.10686
1.13755
1.22567
1.26985
1.30205
1.27381
1.40545
1.41156
1.37796
1.38361
1.33063
1.20082
1.11045
1.09268
0.989443
1.04676
1.00991
0.923078
0.71836
0.617624
0.697329
0.661354
0.683943
0.757716
0.795424
0.78742
0.836196
0.816893
0.766787
0.875577
0.769939
0.810414
0.729994
0.629423
0.625487
0.588462
0.562158
0.488969
0.224986
0.144852
0.2097
0.255073
0.199536
0.227378
0.168213
0.282819
0.300933
0.207317
0.299711
0.281503
0.26452
0.234047
0.295463
0.201204
0.235686
0.237594
0.203645
0.175379
2.85057
2.70729
2.77897
2.84607
2.88391
2.98777
3.13929
3.30026
3.26672
3.41151
3.35291
3.28727
3.16893
3.00291
2.75033
2.66727
2.46946
2.43133
2.40983
2.38702
2.38554
2.38267
2.45277
2.4059
2.4495
2.63452
2.72117
2.76292
2.83076
2.91104
2.90262
2.86635
2.68336
2.53369
2.35622
2.22745
2.11712
2.02513
1.9784
2.03638
2.06592
2.01029
2.00781
2.06181
2.14915
2.19595
2.34552
2.3775
2.46117
2.43924
2.46599
2.38727
2.31081
2.15415
1.98638
1.88001
1.80526
1.74172
1.74167
1.78947
1.63934
1.67799
1.60976
1.67409
1.70881
1.8378
1.86817
1.96884
2.04722
2.06999
2.01767
1.99355
1.8397
1.76263
1.66882
1.58458
1.44136
1.3987
1.38576
1.42411
1.29188
1.31496
1.21488
1.34753
1.29629
1.3786
1.46936
1.52838
1.55773
1.56641
1.51037
1.54351
1.4514
1.36892
1.27456
1.24168
1.09655
1.08272
1.10685
1.14412
0.922579
0.884603
0.883324
0.8995
0.948332
1.02085
1.03525
1.06474
1.05551
1.03961
1.07998
1.02734
1.0848
0.903696
0.891862
0.84691
0.825662
0.811391
0.735205
0.734371
0.579089
0.533625
0.564029
0.584801
0.593824
0.66893
0.559853
0.599009
0.647002
0.62075
0.692106
0.665622
0.610926
0.57208
0.509135
0.454049
0.492285
0.470419
0.401574
0.413421
0.154489
0.176037
0.19883
0.109152
0.195232
0.20339
0.191719
0.198342
0.228233
0.217032
0.261524
0.264709
0.217919
0.187341
0.150485
0.145751
0.186763
0.182844
0.141172
0.194562
2.51855
2.39488
2.31263
2.29294
2.34858
2.41407
2.53548
2.68003
2.74016
2.61353
2.65037
2.54826
2.50481
2.29447
2.10611
1.99084
1.93865
1.88381
1.8828
1.92714
2.13552
2.07149
2.00782
2.04412
2.03945
2.09257
2.19793
2.21482
2.27604
2.27039
2.26289
2.16356
2.12147
1.97126
1.75597
1.75047
1.55453
1.64161
1.65149
1.61958
1.83594
1.73991
1.70265
1.60381
1.78925
1.8041
1.84597
1.91834
1.96193
1.93861
1.92927
1.93583
1.79597
1.61817
1.53852
1.47461
1.34951
1.32154
1.37
1.30758
1.4861
1.46783
1.42024
1.42248
1.32439
1.4408
1.48071
1.58714
1.60071
1.6474
1.61808
1.49576
1.47322
1.31797
1.28959
1.20963
1.08485
1.04859
1.12781
1.16309
1.1292
1.16012
1.08742
1.10206
1.0175
1.19852
1.1375
1.25053
1.26293
1.21711
1.2202
1.16468
1.07777
1.00786
0.98064
0.945819
0.81974
0.841085
0.809696
0.86797
0.812799
0.783079
0.793424
0.653714
0.780314
0.83625
0.862895
0.821649
0.860015
0.920751
0.846135
0.870766
0.83039
0.729244
0.639235
0.65662
0.600025
0.694349
0.56617
0.57693
0.546577
0.5022
0.44462
0.447473
0.485303
0.563289
0.536275
0.531504
0.554408
0.51265
0.523788
0.49217
0.502443
0.464652
0.426418
0.365532
0.377048
0.342722
0.312707
0.375877
0.187669
0.104212
0.0935788
0.195272
0.0896498
0.150239
0.153565
0.196097
0.148936
0.19196
0.137156
0.167936
0.19413
0.193538
0.1654
0.143705
0.115647
0.0688646
0.0715013
0.0776224
2.24671
2.13106
2.00275
1.90646
1.8881
2.03637
2.01032
1.96905
2.09655
2.11852
1.99993
1.97626
1.80961
1.69002
1.55073
1.46816
1.43841
1.46728
1.4523
1.56012
1.81832
1.8566
1.66538
1.65576
1.60301
1.74455
1.78785
1.75828
1.80531
1.75603
1.78969
1.75278
1.60156
1.48795
1.35847
1.25776
1.25955
1.24244
1.29775
1.25301
1.62828
1.50659
1.46817
1.40022
1.34009
1.39894
1.50188
1.54933
1.46606
1.49753
1.45345
1.43629
1.32027
1.25143
1.15557
1.10247
1.0039
1.06768
1.01447
1.08567
1.34418
1.2569
1.15222
1.13225
1.10502
1.1334
1.14244
1.21819
1.23239
1.26946
1.13072
1.13887
1.05037
1.01541
0.858434
0.872425
0.829304
0.815329
0.84448
0.897006
0.988031
0.948441
0.931876
0.865787
0.837098
0.917316
0.841063
0.961939
0.901757
0.980474
0.929474
0.839291
0.887293
0.81742
0.695824
0.722675
0.666816
0.641168
0.64256
0.673734
0.674791
0.686026
0.737564
0.710436
0.61377
0.633857
0.639731
0.689254
0.614481
0.647493
0.664528
0.653878
0.604673
0.557207
0.545388
0.519346
0.48164
0.431264
0.489715
0.475029
0.425942
0.416286
0.368226
0.333099
0.305512
0.385846
0.350127
0.482888
0.392499
0.388552
0.357009
0.301323
0.379086
0.285225
0.302807
0.358616
0.279731
0.2508
0.286569
0.2862
0.187042
0.17285
0.168192
0.119163
0.142342
0.133597
0.209263
0.128943
0.0916348
0.130864
0.123051
0.180142
0.0922953
0.127064
0.0598363
0.048352
0.104407
0.0713939
0.129348
0.152581
2.0521
1.89133
1.86038
1.61059
1.58017
1.57406
1.5446
1.65001
1.60128
1.52725
1.50292
1.44185
1.3045
1.23532
1.18718
1.08061
1.04114
1.07333
1.21143
1.2727
1.75976
1.61373
1.52859
1.37681
1.35961
1.33712
1.36072
1.3648
1.41261
1.31851
1.24671
1.24471
1.08893
1.01502
0.921071
0.879556
0.852203
0.890721
0.985059
1.08396
1.46232
1.39873
1.31858
1.21704
1.14833
1.07773
1.09273
1.15726
1.12894
1.06661
1.09288
1.02742
0.928442
0.879689
0.80576
0.689383
0.755192
0.789982
0.753025
0.905374
1.19147
1.03472
1.02599
0.977374
0.938814
0.876557
0.924917
0.984234
0.961141
0.890011
0.876383
0.812671
0.752103
0.677453
0.631647
0.589965
0.633105
0.595388
0.680695
0.72736
0.9288
0.864262
0.785017
0.72894
0.747803
0.667088
0.682122
0.70091
0.735523
0.655909
0.666213
0.633916
0.638279
0.52922
0.457557
0.457021
0.502319
0.459308
0.498497
0.524657
0.625211
0.584022
0.622298
0.499477
0.501251
0.590048
0.536907
0.502754
0.522592
0.451948
0.458072
0.443912
0.417858
0.370471
0.300494
0.336023
0.346987
0.318688
0.336645
0.370276
0.390898
0.368038
0.346194
0.335939
0.298361
0.33612
0.265665
0.362158
0.319514
0.282015
0.254086
0.26304
0.238099
0.238092
0.222298
0.232957
0.24061
0.204768
0.226355
0.263363
0.110007
0.0618647
0.167891
0.04924
0.0984348
0.0381953
0.0929957
0.0650738
0.095723
0.111496
0.0745033
0.0377969
0.122078
0.0562308
0.124144
0.0303945
0.121029
0.0446958
0.0654955
0.155571
2.13178
1.87058
1.65042
1.37915
1.37105
1.26357
1.24757
1.20437
1.20643
1.10384
1.11957
0.965129
0.97497
0.847642
0.763108
0.715035
0.767991
0.863377
0.97875
1.10087
1.68341
1.5999
1.39786
1.24228
1.11718
1.09801
1.1212
1.03194
0.9577
0.97334
0.876594
0.912979
0.758004
0.749274
0.651704
0.664416
0.641946
0.721866
0.840638
0.935611
1.47959
1.32288
1.09999
1.09909
0.967649
0.96386
0.918573
0.909203
0.870716
0.82562
0.794612
0.646277
0.726501
0.609718
0.480836
0.546001
0.465476
0.517025
0.616338
0.830473
1.22479
1.03523
0.955283
0.81728
0.79739
0.81512
0.739256
0.693679
0.683815
0.603508
0.589511
0.566428
0.535589
0.449198
0.486554
0.409693
0.51215
0.499304
0.500963
0.621413
0.958468
0.858762
0.650116
0.659923
0.661253
0.615384
0.554962
0.518736
0.495824
0.510746
0.477928
0.439024
0.461835
0.481218
0.379351
0.389212
0.324722
0.34747
0.379064
0.515744
0.703823
0.640544
0.471502
0.457416
0.498884
0.431518
0.378967
0.450603
0.355789
0.325903
0.321889
0.270966
0.288203
0.311357
0.266047
0.295825
0.226958
0.274003
0.28068
0.290124
0.395846
0.318976
0.262218
0.238852
0.225602
0.248174
0.311846
0.242199
0.244283
0.219683
0.254002
0.152357
0.225026
0.188568
0.146645
0.101836
0.097637
0.0697492
0.163907
0.185743
0.095145
0.109161
0.0995511
0.116233
0.0661139
0.0728341
0.104056
0.113971
0.146915
0.0524185
0.0238551
0.128608
0.0674785
0.0413508
0.0861671
0.0101169
0.0348298
0.0692933
0.119758
0.0612458
2.06355
1.86633
1.66837
1.47181
1.24311
1.16136
1.09111
0.985712
0.976786
0.913124
0.776806
0.761596
0.586948
0.599064
0.549407
0.560387
0.678796
0.731035
0.844013
1.0342
1.77597
1.56208
1.42411
1.19728
1.10964
0.931743
0.872826
0.847024
0.839181
0.737484
0.678026
0.542821
0.547953
0.570179
0.461561
0.499529
0.552304
0.599161
0.710807
0.909357
1.47813
1.3613
1.20225
0.990148
0.88624
0.864121
0.695954
0.62384
0.659599
0.6133
0.567307
0.459484
0.401256
0.373744
0.352921
0.300318
0.337154
0.504743
0.590529
0.639409
1.20236
1.05332
0.964212
0.780439
0.722238
0.669716
0.598579
0.538887
0.523972
0.46418
0.421244
0.403049
0.420514
0.30849
0.297819
0.252981
0.334647
0.442499
0.489252
0.549085
0.928666
0.862378
0.735369
0.622486
0.562229
0.458045
0.471135
0.443241
0.357182
0.324056
0.348917
0.278469
0.240849
0.261822
0.212544
0.210604
0.200254
0.269316
0.399649
0.418543
0.671409
0.601241
0.506534
0.454041
0.404916
0.338795
0.318163
0.326447
0.306484
0.236567
0.274588
0.209578
0.201187
0.169825
0.253919
0.172852
0.126277
0.183892
0.23587
0.255478
0.376754
0.391438
0.28619
0.265673
0.212241
0.241917
0.157479
0.134863
0.195042
0.173268
0.199082
0.129951
0.0896714
0.0149277
0.184825
0.0501564
0.0195641
0.028197
0.13433
0.178501
0.131153
0.112122
0.13983
0.0820839
0.0425397
0.106788
0.127111
0.0152695
0.0371415
0.0275964
0.104785
-0.0296192
0.0772696
-0.0543821
0.0162686
0.0846004
0.0700366
0.0201504
0.0424612
0.0795584
2.3267
2.08765
1.69735
1.45113
1.30675
1.09939
0.924669
0.843305
0.698946
0.720374
0.656452
0.572141
0.561157
0.471862
0.560843
0.537411
0.589975
0.703899
0.855709
1.20097
1.9541
1.69986
1.42398
1.20686
1.01678
0.912274
0.766496
0.764134
0.698653
0.584812
0.565399
0.448502
0.414864
0.355588
0.338496
0.444905
0.457882
0.613749
0.757059
0.937689
1.61608
1.37527
1.2553
1.06912
0.928646
0.755404
0.701013
0.560663
0.535198
0.557587
0.467188
0.370253
0.330666
0.314112
0.355869
0.311233
0.367262
0.430869
0.637917
0.812819
1.36845
1.16993
1.01462
0.789455
0.723885
0.639894
0.546467
0.565923
0.471195
0.305238
0.334109
0.276016
0.243048
0.237873
0.224363
0.259561
0.27273
0.416197
0.460017
0.636345
0.931396
0.869091
0.747513
0.615967
0.571366
0.44462
0.42098
0.364908
0.394382
0.326051
0.249609
0.332846
0.150162
0.271762
0.180321
0.177284
0.228924
0.252693
0.391356
0.446181
0.721289
0.663095
0.520445
0.451224
0.403555
0.348393
0.291054
0.259774
0.289331
0.197701
0.170915
0.212361
0.129997
0.157371
0.129492
0.159525
0.137854
0.146043
0.32734
0.262134
0.436241
0.365335
0.309723
0.223602
0.201687
0.200328
0.153785
0.186721
0.160488
0.0769584
0.19482
0.0420378
0.0831929
0.0878372
0.105528
0.0765462
0.0477523
0.0949543
0.192316
0.13914
0.166842
0.16701
0.059973
0.0622088
0.0148635
0.0889785
0.0726902
0.0443633
0.0629119
0.0570136
0.00980584
0.0827412
0.0434069
0.0419287
-0.00441459
0.0593297
0.0631864
0.0269659
0.0242047
0.0567395
2.62394
2.31406
1.94214
1.72095
1.44798
1.24329
1.08068
0.930638
0.783947
0.689318
0.667625
0.550296
0.518847
0.507787
0.515899
0.574342
0.685298
0.844336
1.11929
1.30139
2.19235
1.97922
1.74807
1.3631
1.18036
0.971174
0.835789
0.739081
0.686687
0.548817
0.541431
0.423673
0.42503
0.397718
0.407278
0.460736
0.535052
0.671001
0.931804
1.1078
1.81602
1.61131
1.26531
1.1773
0.970687
0.843302
0.760137
0.584768
0.590915
0.423157
0.454929
0.343023
0.373764
0.309551
0.294684
0.354844
0.450846
0.619678
0.724302
0.958341
1.48003
1.33444
1.1481
1.01848
0.822093
0.740272
0.570728
0.564864
0.450659
0.386013
0.273258
0.185566
0.228679
0.217618
0.257537
0.244882
0.309556
0.51388
0.611994
0.684135
1.14542
1.05924
0.788921
0.73307
0.545454
0.502715
0.366984
0.428401
0.334609
0.32345
0.219413
0.202867
0.19076
0.220225
0.191096
0.193837
0.231696
0.367557
0.466022
0.487014
0.824076
0.764758
0.620572
0.506149
0.403708
0.394711
0.342532
0.269984
0.220802
0.149705
0.169672
0.212092
0.105191
0.070368
0.135553
0.162944
0.243154
0.228144
0.359584
0.357641
0.471511
0.436034
0.286347
0.310485
0.254333
0.246617
0.177278
0.153342
0.124675
0.0879723
0.120423
0.122993
0.0858032
0.0298747
0.0916846
0.0466626
0.149539
0.193043
0.175002
0.210482
0.147977
0.199737
0.127429
0.0568967
0.126646
0.0756309
0.11769
0.0698789
0.0628586
0.0103022
0.0292837
0.0399078
0.0319997
0.0121474
0.00390816
0.0182203
-0.0395108
0.0566214
0.0562265
-0.0124775
3.05381
2.64703
2.30535
1.88907
1.67316
1.44332
1.30291
1.07139
0.89161
0.856491
0.781755
0.690026
0.626219
0.618533
0.69269
0.740903
0.971847
1.19331
1.40281
1.70084
2.56487
2.31849
2.0181
1.67007
1.5549
1.24248
1.01071
0.888563
0.805809
0.657952
0.605955
0.553867
0.578632
0.585354
0.570614
0.598845
0.830088
0.983448
1.16835
1.38117
2.14423
1.8758
1.6699
1.42139
1.21971
0.934647
0.852123
0.805238
0.663971
0.572433
0.484014
0.398678
0.473824
0.388082
0.435857
0.527066
0.59667
0.817003
0.97341
1.12182
1.65923
1.55876
1.3793
1.10902
0.929315
0.786277
0.633996
0.596137
0.504621
0.444067
0.415096
0.350394
0.373484
0.325527
0.325285
0.426724
0.490178
0.617479
0.818019
0.84846
1.30201
1.15606
1.07459
0.885146
0.75821
0.652597
0.531064
0.500184
0.424953
0.399544
0.283385
0.299193
0.217097
0.212577
0.175733
0.225086
0.353523
0.413937
0.607429
0.741436
0.949876
0.800925
0.671663
0.637749
0.523236
0.478432
0.410791
0.286824
0.300126
0.297917
0.210515
0.182426
0.108495
0.0989966
0.190582
0.280147
0.287399
0.300084
0.437385
0.547208
0.587935
0.464003
0.428986
0.411211
0.308093
0.273764
0.249136
0.221666
0.115746
0.188767
0.18178
0.122464
0.11981
0.108043
0.141781
0.0818857
0.124922
0.227938
0.232674
0.322287
0.191224
0.143817
0.179513
0.107462
0.094217
0.105439
0.0655165
0.108656
0.0850643
0.00630176
-0.0185245
-0.0304846
0.053497
0.0223935
0.0794198
0.087793
0.0109923
0.0569635
0.0278439
0.109076
3.62226
3.2354
2.82187
2.4502
2.0833
1.80757
1.62404
1.42362
1.21721
1.14524
1.01998
0.960833
0.958512
0.920452
1.0167
1.12996
1.2786
1.60204
1.7847
2.11899
3.06422
2.73132
2.40294
2.03416
1.79862
1.5485
1.31462
1.21038
1.04379
1.00345
0.744507
0.813488
0.726078
0.731897
0.871848
0.951167
1.03021
1.25602
1.52764
1.81422
2.57441
2.33362
1.93348
1.65809
1.42265
1.30122
1.13166
0.966154
0.840808
0.819796
0.722343
0.657765
0.686467
0.584081
0.621122
0.703615
0.857328
1.02317
1.22575
1.44923
2.06435
1.77259
1.59146
1.45697
1.14013
1.00294
0.838818
0.738673
0.67708
0.584995
0.592094
0.46003
0.54077
0.449522
0.527088
0.53265
0.690588
0.80469
0.985366
1.23658
1.59379
1.38027
1.24755
1.0928
0.95608
0.81155
0.666556
0.608526
0.521893
0.460007
0.431581
0.370147
0.317928
0.375101
0.329143
0.371211
0.480288
0.700199
0.777169
0.860748
1.08726
0.970824
0.855453
0.796489
0.643699
0.498902
0.483254
0.44812
0.367574
0.255656
0.212017
0.25725
0.189555
0.273469
0.312163
0.313146
0.29848
0.512257
0.521399
0.5915
0.610217
0.584217
0.544492
0.44261
0.408987
0.291067
0.253602
0.231412
0.238372
0.209046
0.226182
0.195186
0.163025
0.195658
0.135713
0.215748
0.257286
0.377053
0.341306
0.320734
0.174669
0.195514
0.186051
0.109271
0.167603
0.0983182
0.106119
0.115335
0.0936332
0.0597026
0.0636912
0.0095445
0.0939492
0.0523144
0.0660957
0.0769028
0.10298
-0.0114496
0.16741
0.201093
4.34192
3.86773
3.38437
3.04
2.56736
2.33684
2.08902
1.83052
1.6925
1.54973
1.44229
1.3252
1.34602
1.39038
1.50613
1.64496
1.74853
2.10338
2.3675
2.68187
3.63955
3.32998
2.88592
2.52098
2.19357
1.96326
1.76966
1.56723
1.40519
1.26426
1.19576
1.15723
1.12738
1.09297
1.13877
1.2948
1.49538
1.75104
2.00051
2.2722
3.07667
2.75934
2.44463
2.17379
1.87339
1.58642
1.44519
1.3039
1.19197
1.0334
1.01061
0.941572
0.944386
0.93546
0.915983
1.06643
1.24532
1.43654
1.68575
1.865
2.4488
2.21211
1.91669
1.69896
1.4634
1.30972
1.14489
1.14491
0.873566
0.814391
0.771685
0.725433
0.698056
0.686538
0.735096
0.906515
0.854764
1.16737
1.30622
1.54916
1.99289
1.7186
1.52833
1.30869
1.15928
1.01611
0.870648
0.761449
0.785979
0.638973
0.622848
0.543549
0.567907
0.597734
0.599808
0.675245
0.754042
0.801016
1.0209
1.22227
1.31671
1.1658
1.07216
0.886866
0.828423
0.679772
0.645111
0.528662
0.5465
0.48968
0.369766
0.37293
0.385849
0.383156
0.405736
0.530906
0.48761
0.58013
0.631514
0.777577
0.793701
0.721868
0.607793
0.52076
0.558246
0.438128
0.353304
0.377355
0.237521
0.244468
0.185384
0.225509
0.212115
0.238947
0.26847
0.291367
0.270017
0.32073
0.379532
0.456283
0.290056
0.202308
0.231528
0.149463
0.208007
0.130401
0.107776
0.0945372
0.0878037
0.125437
0.0714604
0.0805427
0.0717772
0.0747933
0.095265
0.0774483
0.0675117
0.084321
0.155631
0.118945
5.07936
4.61085
4.08292
3.68484
3.32473
2.96541
2.6809
2.51413
2.25767
2.08607
2.03466
1.9125
1.93131
1.97517
2.07017
2.18796
2.37986
2.69848
3.10339
3.40389
4.38642
4.01486
3.48454
3.11211
2.79743
2.49653
2.26148
2.10435
1.9046
1.76122
1.70268
1.63145
1.61183
1.61424
1.73767
1.78687
2.08897
2.31419
2.57231
2.84248
3.56563
3.24388
2.89231
2.75386
2.35435
2.10152
1.85488
1.6775
1.53532
1.4664
1.40385
1.24965
1.33644
1.38275
1.42013
1.47022
1.58397
1.87864
2.1601
2.35487
2.93236
2.62003
2.42995
2.0742
1.86993
1.6133
1.48435
1.31835
1.23542
1.23024
1.14521
1.05772
0.977403
1.09987
1.07915
1.17917
1.31173
1.49053
1.63654
1.96632
2.31907
2.02525
1.8185
1.54525
1.43775
1.28804
1.16936
1.07049
0.961596
0.897364
0.896951
0.792824
0.803317
0.842878
0.823895
0.892371
0.989162
1.1461
1.27074
1.41907
1.64767
1.44281
1.32134
1.15569
1.08618
0.911645
0.843525
0.726438
0.713893
0.612402
0.556941
0.531611
0.515307
0.616511
0.580319
0.58118
0.7265
0.791254
0.978854
0.9901
0.939177
0.864652
0.798331
0.696024
0.552225
0.557758
0.486105
0.375556
0.433149
0.365471
0.312696
0.327619
0.314775
0.308268
0.325457
0.423027
0.447638
0.48649
0.524004
0.637296
0.294409
0.208476
0.176158
0.232193
0.196874
0.166495
0.14218
0.180927
0.147591
0.132903
0.113471
0.108815
0.132853
0.0977712
0.153251
0.101019
0.150493
0.205077
0.235491
0.173277
5.95065
5.40672
4.97553
4.46068
3.97824
3.71036
3.31368
3.10638
2.85402
2.73862
2.54371
2.54615
2.49304
2.5603
2.6443
2.8665
2.98984
3.48541
3.77264
4.19794
4.97517
4.62205
4.16802
3.74053
3.3929
3.12051
2.85298
2.59801
2.39999
2.2759
2.17273
2.10326
2.12555
2.19363
2.23833
2.36031
2.59166
2.86014
3.20807
3.48512
4.25366
3.84907
3.49888
3.14548
2.81169
2.5699
2.36046
2.19082
1.99363
1.92245
1.646
1.80121
1.80241
1.7542
1.88115
1.92233
2.09822
2.33233
2.58197
2.88047
3.34435
3.08398
2.75878
2.47575
2.29275
2.07175
1.88933
1.66002
1.58278
1.49683
1.40396
1.36221
1.35484
1.37539
1.45393
1.57771
1.63356
1.91141
2.09864
2.27285
2.5752
2.31388
2.14617
1.96297
1.78055
1.59684
1.45307
1.32935
1.21913
1.09982
1.09281
1.05553
1.0008
1.03897
1.08467
1.15394
1.29686
1.36893
1.60261
1.78188
1.8254
1.70895
1.51503
1.37123
1.23229
1.08533
1.0188
0.943385
0.825045
0.860577
0.764931
0.794023
0.656125
0.77975
0.759706
0.785033
0.864354
0.967717
1.05645
1.18728
1.10265
1.03651
0.872184
0.867086
0.750415
0.63087
0.643853
0.522203
0.470974
0.431898
0.465624
0.473684
0.391923
0.378865
0.417205
0.588294
0.556249
0.584465
0.6436
0.748822
0.448241
0.295657
0.269635
0.289642
0.241733
0.325678
0.221924
0.179486
0.117425
0.246181
0.141229
0.201025
0.110283
0.224277
0.192617
0.204452
0.165042
0.20246
0.213429
0.239494
6.59989
6.14824
5.51829
5.07808
4.59536
4.24511
3.97175
3.65204
3.43557
3.27295
3.14526
3.07021
3.03
3.12816
3.253
3.41261
3.70862
3.99781
4.43816
4.73355
5.63912
5.10033
4.69835
4.23718
3.9323
3.53062
3.30641
3.09592
2.85274
2.72066
2.65575
2.52289
2.53849
2.5924
2.67199
2.83139
3.02271
3.33321
3.68536
3.96574
4.63442
4.278
3.81496
3.57508
3.1898
2.94801
2.72907
2.47301
2.28055
2.19409
2.13243
2.0543
2.0533
2.12777
2.21182
2.33894
2.52758
2.72326
3.02358
3.2171
3.6688
3.41829
3.09403
2.8354
2.54112
2.3248
2.12819
1.96887
1.8662
1.77292
1.71149
1.63885
1.59386
1.67382
1.75785
1.85636
1.97575
2.1889
2.39107
2.57972
2.83703
2.66582
2.39399
2.14449
1.94107
1.78174
1.63391
1.45648
1.39474
1.31807
1.27836
1.21259
1.22966
1.25818
1.3008
1.38345
1.52678
1.68236
1.85742
2.02178
1.88304
1.8861
1.61221
1.54344
1.38883
1.21367
1.15674
1.0929
1.00588
0.935671
0.89198
0.823398
0.917806
0.861796
0.918875
1.01253
1.12661
1.14036
1.245
1.41467
1.14443
1.11671
1.00623
0.931727
0.767173
0.734585
0.697825
0.622464
0.599553
0.600967
0.47677
0.479693
0.53135
0.612826
0.547709
0.558932
0.620039
0.65065
0.791532
0.883812
0.398613
0.34388
0.334106
0.316923
0.275448
0.226596
0.240081
0.231709
0.16174
0.27355
0.194949
0.155637
0.183502
0.170989
0.20586
0.150883
0.195962
0.284543
0.193229
0.222544
)
;

boundaryField
{
    hotSide
    {
        type            calculated;
        value           nonuniform List<scalar> 
400
(
5.62829
5.0548
4.44252
3.81215
3.1708
2.58315
2.22349
1.86579
1.56477
1.33753
1.38116
1.27352
1.49394
1.74518
2.12579
2.64176
3.30573
3.98432
4.79357
5.37764
5.75631
5.21792
4.58143
3.90338
3.22727
2.71568
2.09176
1.75311
1.45949
1.18651
1.12909
1.0848
1.26279
1.44261
1.72576
2.26111
2.83725
3.52104
4.25445
4.93039
5.96386
5.36098
4.7439
4.05764
3.30142
2.71336
2.17574
1.6825
1.34213
1.16579
0.91845
0.895669
0.880634
1.07818
1.39095
1.85388
2.35965
2.99837
3.82804
4.3048
6.28339
5.66786
4.92328
4.20164
3.57534
2.80292
2.25566
1.67486
1.25712
0.926493
0.656889
0.708049
0.642617
0.864493
0.981511
1.48843
2.02094
2.60542
3.31786
3.86882
6.6568
5.99943
5.23597
4.48291
3.68951
2.95846
2.30645
1.74263
1.25004
0.906499
0.658372
0.488137
0.506256
0.598806
0.772216
1.12752
1.55371
2.2502
2.83983
3.39007
6.97237
6.29773
5.54972
4.7305
3.90506
3.1718
2.42285
1.81981
1.40912
0.910337
0.559992
0.41466
0.306391
0.4009
0.548498
0.857307
1.32815
1.89534
2.57596
3.04342
7.22346
6.67654
5.81722
4.98676
4.11971
3.28029
2.58582
1.95183
1.39285
0.889814
0.552126
0.351774
0.138324
0.244283
0.413455
0.678586
1.08464
1.61468
2.18272
2.77315
7.58234
6.96323
6.08251
5.17594
4.31723
3.55614
2.75637
2.10523
1.35969
1.00261
0.515602
0.252405
0.0623742
0.0990862
0.186274
0.482029
0.829593
1.45099
1.97817
2.45589
7.8306
7.19054
6.28463
5.39244
4.50894
3.61411
2.72975
2.17174
1.49302
0.959163
0.522446
0.247771
-0.0781451
-0.0441789
0.00954786
0.278343
0.693984
1.19668
1.72772
2.24112
7.90356
7.30458
6.39305
5.46983
4.52469
3.6813
2.87819
2.04846
1.51804
0.887901
0.422342
0.186338
-0.0547255
-0.137031
-0.0239928
0.207773
0.552469
1.02619
1.6133
2.07937
7.95649
7.29746
6.43421
5.48394
4.53082
3.67169
2.81959
2.0853
1.39945
0.863568
0.438074
0.0500198
-0.118647
-0.158724
-0.0987282
0.0825167
0.445027
0.974775
1.41839
1.95167
7.84873
7.1537
6.36359
5.41326
4.51022
3.66679
2.7503
1.97984
1.37273
0.799729
0.281141
0.0325816
-0.20495
-0.27783
-0.192037
0.0219684
0.326686
0.851512
1.41985
1.87576
7.61597
6.96288
6.12108
5.21505
4.31499
3.37804
2.62504
1.93001
1.20025
0.657095