/*--------------------------------*- C++ -*----------------------------------*\
| =========                 |                                                 |
| \\      /  F ield         | OpenFOAM: The Open Source CFD Toolbox           |
|  \\    /   O peration     | Version:  2212                                  |
|   \\  /    A nd           | Website:  www.openfoam.com                      |
|    \\/     M anipulation  |                                                 |
\*---------------------------------------------------------------------------*/
FoamFile
{
    version     2.0;
    format      ascii;
    arch        "LSB;label=32;scalar=64";
    class       volScalarField;
    location    "0";
    object      relativeErrorField;
}
// * * * * * * * * * * * * * * * * * * * * * * * * * * * * * * * * * * * * * //

dimensions      [0 0 0 1 0 0 0];

internalField   nonuniform List<scalar> 
3200
(
0.0192223
0.0195582
0.020131
0.0210443
0.0221194
0.0230139
0.023713
0.0247545
0.0254709
0.0256697
0.0258327
0.0255267
0.0248582
0.0242485
0.0234411
0.0222653
0.0213677
0.0207248
0.0201956
0.020027
0.0167343
0.0169128
0.0172755
0.0180614
0.0189557
0.0199074
0.0208407
0.0215911
0.0220928
0.0223919
0.022427
0.0222846
0.0217991
0.0209151
0.0202203
0.0194871
0.0185487
0.0178728
0.0175242
0.0171034
0.0139405
0.0142079
0.0146739
0.0153531
0.0160485
0.01679
0.0176438
0.0182549
0.0190014
0.0193169
0.0191027
0.0188671
0.0184178
0.0178202
0.0171941
0.0163994
0.0158044
0.0152114
0.0146038
0.014318
0.0116189
0.0119389
0.0122777
0.0126783
0.0133707
0.0136214
0.0143765
0.0150692
0.0154757
0.0155378
0.0156964
0.0154091
0.0149535
0.0146639
0.0140102
0.0133951
0.0128539
0.0125123
0.0121724
0.0117109
0.00912036
0.00896853
0.00958701
0.00990547
0.0103359
0.0107411
0.0114232
0.0116119
0.0120687
0.0122223
0.0122864
0.0122044
0.0116548
0.0112863
0.0111905
0.0104268
0.00989864
0.00960306
0.00934694
0.00923011
0.00646642
0.00666384
0.00678887
0.00696499
0.00741651
0.007628
0.00824879
0.00849946
0.00872193
0.00854432
0.00884313
0.00871298
0.00860367
0.00842355
0.00771292
0.00741834
0.00718001
0.00689533
0.00671881
0.00658092
0.00380688
0.00408699
0.00409557
0.00438288
0.00456969
0.0044863
0.00492816
0.00535
0.00520356
0.00539184
0.0052677
0.00530354
0.00520057
0.00499705
0.00464648
0.00461809
0.00448747
0.00419198
0.00415836
0.00415545
0.00143918
0.00134889
0.00141156
0.00143919
0.00181582
0.00134566
0.00149444
0.00187448
0.0017914
0.00192226
0.00183227
0.00181921
0.00176577
0.00152014
0.00163184
0.00166054
0.00159758
0.00128872
0.00144786
0.00150516
0.0174458
0.017893
0.0182684
0.0191457
0.0200948
0.0209396
0.0220364
0.0228579
0.0235119
0.0238384
0.0238165
0.0233985
0.0228569
0.0221269
0.0213216
0.0203058
0.0193465
0.0187211
0.0185114
0.0181185
0.0153633
0.0155353
0.0161248
0.0166287
0.0173781
0.0182522
0.0191636
0.0198968
0.0205126
0.0207542
0.0207666
0.0205085
0.0200678
0.0193293
0.0184675
0.0175152
0.0169542
0.0164469
0.0160765
0.0157295
0.0129578
0.0130003
0.0134763
0.0141554
0.0148763
0.0156958
0.0162188
0.0169454
0.0175385
0.0176432
0.0174145
0.0175803
0.0170805
0.0165266
0.0157828
0.0152061
0.0145407
0.0140272
0.0136473
0.0134553
0.0106156
0.0108311
0.0112285
0.0117904
0.0119608
0.0127853
0.0134116
0.0139299
0.0145749
0.014516
0.0144931
0.0144461
0.0143085
0.0134129
0.0130322
0.0124255
0.0116862
0.0115031
0.0109553
0.0110099
0.00832161
0.00863374
0.00874454
0.00887805
0.00960517
0.010055
0.0106173
0.0108885
0.0113882
0.0115749
0.0116088
0.0110911
0.0110775
0.0107622
0.00991349
0.00960423
0.00925925
0.00887341
0.00873514
0.00869557
0.00594402
0.00612877
0.00615317
0.00635831
0.00711919
0.00721147
0.00752863
0.00799154
0.00818653
0.00814506
0.00837325
0.0080155
0.00799018
0.00748679
0.00721367
0.00691282
0.00650256
0.00640196
0.00622552
0.00609062
0.00376342
0.00391548
0.00376471
0.00397049
0.00427957
0.00452366
0.00460169
0.00482648
0.00510162
0.00501075
0.00493264
0.00494016
0.00466233
0.00463293
0.0044645
0.00430907
0.00383239
0.00396137
0.00404512
0.00364522
0.00122991
0.00113831
0.00141781
0.00146496
0.00133617
0.00190656
0.00149899
0.00151326
0.00166055
0.00185691
0.00169437
0.00168105
0.00152896
0.00149895
0.0014287
0.00145521
0.00147701
0.0012821
0.0011313
0.00114441
0.0155577
0.0159324
0.0163716
0.0168576
0.0177529
0.0186502
0.019408
0.0201677
0.0207473
0.0210583
0.021185
0.0209905
0.0202866
0.0194885
0.018608
0.017906
0.0170728
0.0163891
0.0160442
0.0158705
0.0135865
0.0138569
0.0141852
0.0149638
0.0153012
0.0163139
0.0169986
0.0175778
0.0183116
0.0186065
0.0184267
0.0182446
0.017689
0.0170526
0.0162418
0.0155467
0.0147073
0.0143171
0.0139178
0.0137197
0.0113883
0.0117027
0.01193
0.0126881
0.013214
0.0136144
0.0146069
0.0150362
0.0153273
0.0159203
0.0157607
0.0157018
0.0151756
0.0146505
0.0138247
0.0133109
0.0127057
0.0118902
0.0119928
0.0113737
0.00959427
0.00975416
0.0100255
0.0103359
0.0108515
0.0112454
0.0119875
0.0127544
0.0131034
0.0128468
0.0130592
0.0129577
0.0125078
0.0119303
0.0115281
0.0108821
0.0105129
0.0100808
0.00960394
0.00956555
0.00729176
0.00756906
0.00795731
0.00796437
0.00864481
0.00896963
0.00953615
0.00957777
0.0100416
0.0104767
0.0102549
0.00998778
0.00986038
0.00942872
0.00914786
0.00848329
0.00800647
0.0078366
0.00770495
0.00752702
0.00541374
0.00551228
0.0055887
0.00573329
0.00597952
0.00669212
0.00668925
0.00684907
0.0071139
0.00714997
0.00737723
0.00728862
0.00710194
0.00683801
0.00631174
0.00625284
0.00614525
0.00561324
0.00565708
0.00535045
0.00327662
0.00332415
0.00350591
0.00341718
0.00376449
0.00383428
0.00413031
0.00434506
0.00437219
0.00449687
0.00458253
0.00446897
0.00425188
0.00386303
0.00377978
0.00362785
0.00369662
0.00369097
0.00333607
0.0034854
0.000901492
0.00125081
0.00125911
0.00125155
0.0011984
0.00117638
0.001231
0.00147926
0.00145703
0.00154329
0.00130087
0.00172805
0.00155753
0.00165589
0.00135891
0.00115816
0.00112288
0.00114179
0.0012111
0.00122433
0.0136237
0.0138533
0.014271
0.0146521
0.015455
0.0161531
0.0168813
0.0174111
0.0180387
0.0182559
0.0182994
0.0181028
0.0175316
0.0167823
0.0162313
0.0151255
0.014354
0.0139041
0.013467
0.0134758
0.0119136
0.0121601
0.0122557
0.0127245
0.0134139
0.0140167
0.0148904
0.0152007
0.0158412
0.0161131
0.0159069
0.0158909
0.0153809
0.014594
0.0137786
0.0132473
0.0126127
0.0121471
0.0118074
0.0117936
0.0100626
0.0101461
0.0104972
0.0109808
0.0114343
0.0119652
0.0126337
0.0131134
0.0134083
0.0138248
0.0135978
0.0135302
0.0132861
0.0125354
0.0118383
0.0112996
0.0106802
0.0103877
0.0102101
0.00987696
0.00846411
0.00840577
0.00885737
0.00916515
0.00951504
0.00970166
0.0104708
0.010621
0.0110432
0.0113934
0.0112287
0.0110638
0.0107654
0.0101295
0.00992965
0.00921632
0.00886499
0.00844422
0.00832177
0.00805293
0.00653619
0.0067771
0.00697342
0.0068707
0.00726866
0.00766247
0.00811327
0.00844205
0.0089485
0.00871327
0.00898008
0.00887257
0.00843697
0.00809776
0.00774905
0.00725727
0.00692268
0.00661297
0.00653546
0.00615715
0.00452081
0.00485602
0.00495067
0.00510477
0.00530971
0.00568356
0.00596542
0.00609937
0.00643194
0.00613881
0.00637601
0.00619157
0.00607836
0.00574498
0.00572381
0.00539872
0.00496591
0.00488634
0.00472435
0.00482522
0.00286739
0.00295374
0.00280662
0.00315747
0.00314116
0.0033429
0.00361734
0.00383438
0.00397672
0.00384389
0.00397523
0.00372812
0.00375537
0.00350468
0.00340369
0.00331276
0.0028808
0.00308835
0.00293793
0.00267878
0.00117635
0.000872203
0.00107363
0.00112271
0.00102924
0.0010182
0.00131669
0.00113235
0.00159281
0.00111547
0.00129353
0.00140388
0.00114538
0.00134495
0.00103494
0.000898826
0.00115788
0.000961028
0.000958396
0.000860382
0.011667
0.0117921
0.0119658
0.0127539
0.013045
0.0136498
0.0142553
0.0148156
0.0153704
0.0154001
0.015419
0.0153743
0.0148087
0.0139967
0.0132251
0.0127826
0.0121245
0.0118447
0.0113825
0.0111485
0.0102127
0.0103405
0.0105367
0.0108436
0.0113979
0.0119637
0.0126907
0.0129736
0.0135392
0.0135191
0.0136365
0.0133589
0.0128954
0.012181
0.0116085
0.0108977
0.0104235
0.0102281
0.00981167
0.00986426
0.0087818
0.00888086
0.00889643
0.00958477
0.00982083
0.0100859
0.0107551
0.0109998
0.0115446
0.0115562
0.0117313
0.0113804
0.010748
0.0103196
0.00990337
0.009453
0.00898147
0.00845044
0.00852045
0.00829283
0.00703052
0.00750674
0.00746209
0.00749997
0.00838682
0.00838322
0.00879906
0.00916554
0.00945087
0.00955208
0.00954607
0.00951998
0.00896152
0.00856411
0.0081066
0.0078274
0.0073943
0.00697016
0.00680556
0.00694031
0.00565624
0.00569794
0.00589055
0.00586968
0.00633271
0.0067293
0.00688453
0.007318
0.00740396
0.00769536
0.00751523
0.00725916
0.00705902
0.00668134
0.00675967
0.00603127
0.00585894
0.00569464
0.00541828
0.00549271
0.00410112
0.00421394
0.00412256
0.0046152
0.00435535
0.00449876
0.00489771
0.00513769
0.00532188
0.00543757
0.00551309
0.00518556
0.00518537
0.00483387
0.00462479
0.00476504
0.0043154
0.00404719
0.00388718
0.0036851
0.00263996
0.00256079
0.00256305
0.00283802
0.00262868
0.00282525
0.00311588
0.00300251
0.00315406
0.00334324
0.00334132
0.00303624
0.00312744
0.00293752
0.00278238
0.00254199
0.00293138
0.00218167
0.00241338
0.00228952
0.00058458
0.00084143
0.00055191
0.00100487
0.00103938
0.000956833
0.00111423
0.000960759
0.00115571
0.0010476
0.00133202
0.00107161
0.00099545
0.00122478
0.0010147
0.000871236
0.000898141
0.000896097
0.00082299
0.000779601
0.00988923
0.0102534
0.0101943
0.0104166
0.0108412
0.0114445
0.0117281
0.0125343
0.0126812
0.0128711
0.0128416
0.0128432
0.0119863
0.0114699
0.0108169
0.0103876
0.00978802
0.00929158
0.00945058
0.00923099
0.00876178
0.00877664
0.00892288
0.00894807
0.00952156
0.00981785
0.0103047
0.0109426
0.0109956
0.0111663
0.01126
0.0110343
0.0106793
0.00989768
0.00956883
0.00902303
0.00860638
0.00824996
0.00782859
0.00812846
0.00754072
0.00735343
0.00776687
0.00788892
0.00800064
0.00834952
0.00876713
0.00916916
0.00940005
0.0093859
0.00963105
0.00932754
0.00890931
0.00869869
0.00817072
0.00781135
0.00711337
0.0070227
0.00684211
0.00695276
0.00596041
0.00628272
0.00610442
0.0064447
0.00663876
0.00702195
0.00733015
0.00788904
0.00799902
0.00785073
0.00790769
0.00780867
0.00749606
0.00699339
0.00641199
0.00638518
0.00569752
0.00569783
0.00546708
0.0054644
0.00490804
0.0045601
0.00487197
0.00504979
0.00513601
0.00548233
0.00590692
0.00614159
0.00633189
0.00631582
0.00622478
0.00585425
0.00586495
0.00564595
0.00521531
0.00493159
0.00462408
0.00445523
0.00422189
0.00440634
0.00362637
0.0035007
0.00359828
0.00369642
0.00398098
0.00412269
0.00422558
0.00413257
0.00455855
0.00457782
0.00446883
0.00448772
0.00431692
0.00389704
0.0036052
0.00354903
0.00321515
0.00340289
0.00328439
0.00300291
0.00235963
0.00202837
0.00228958
0.00217088
0.00224442
0.00248586
0.00260895
0.00258218
0.00274174
0.00267824
0.00251397
0.00287087
0.00252485
0.00265811
0.00239491
0.00206551
0.00205315
0.00193213
0.00184621
0.00160614
0.000746255
0.00048043
0.000695453
0.000845855
0.000661624
0.000753877
0.000557668
0.000937556
0.000997554
0.000687211
0.000993476
0.000933146
0.000876894
0.000775925
0.000979612
0.000667156
0.000781565
0.000787961
0.00067543
0.000581712
0.00883094
0.00837967
0.00859202
0.00878902
0.00889516
0.00920481
0.00966139
0.0101479
0.0100384
0.0104798
0.0102998
0.0101015
0.00974405
0.00924167
0.00847329
0.00822696
0.007626
0.00751719
0.00745899
0.0073949
0.00746184
0.00744723
0.00765896
0.0075048
0.00763274
0.00820091
0.00846283
0.00858607
0.00879204
0.00903873
0.00901259
0.00890256
0.00833884
0.00787976
0.0073346
0.00694081
0.006604
0.00632362
0.00618367
0.00636969
0.00652471
0.00634504
0.00633199
0.00649654
0.00676562
0.00690697
0.00737158
0.00746718
0.00772631
0.00765556
0.00773953
0.00749433
0.00725773
0.00677013
0.00624781
0.00591837
0.00568816
0.00549283
0.0054972
0.00565163
0.00522779
0.00534833
0.00512739
0.00532836
0.00543484
0.00584088
0.00593355
0.00624992
0.00649619
0.00656709
0.0064011
0.00632589
0.00583997
0.00559833
0.00530383
0.00503973
0.00458763
0.00445511
0.00441691
0.00454145
0.00415999
0.00423262
0.00390841
0.00433268
0.00416549
0.0044275
0.00471655
0.00490391
0.00499656
0.00502359
0.00484387
0.00495096
0.00465694
0.00439414
0.00409335
0.00399002
0.00352569
0.00348323
0.00356276
0.00368418
0.00299997
0.00287566
0.00287041
0.00292176
0.00307908
0.00331319
0.00335867
0.00345331
0.00342259
0.00337064
0.00350152
0.00333126
0.00351836
0.00293188
0.00289456
0.00274978
0.00268192
0.00263667
0.00239
0.00238797
0.00190165
0.00175205
0.00185145
0.00191915
0.00194827
0.00219413
0.00183594
0.00196398
0.00212105
0.00203485
0.00226876
0.0021821
0.00200306
0.00187604
0.00166999
0.00148968
0.00161554
0.00154417
0.00131849
0.00135762
0.000512378
0.000583809
0.00065935
0.000361932
0.000647307
0.000674298
0.000635558
0.000657471
0.00075652
0.000719376
0.000866848
0.000877427
0.000722365
0.000621044
0.000498903
0.000483247
0.000619281
0.000606336
0.000468182
0.000645285
0.00779063
0.00740192
0.00714023
0.00707149
0.00723494
0.00742862
0.00779456
0.00823224
0.00841202
0.00802084
0.0081339
0.00782292
0.00769401
0.00705367
0.00648097
0.0061329
0.00597887
0.00581623
0.00581923
0.00596123
0.00667107
0.00646641
0.00626194
0.00636893
0.0063481
0.00650725
0.00682904
0.00687663
0.0070631
0.00704365
0.00702041
0.00671404
0.00658678
0.00612475
0.00546053
0.00544858
0.00484351
0.00511981
0.00515533
0.00505932
0.00579194
0.00548571
0.00536407
0.00504846
0.00562743
0.00566954
0.00579687
0.00602046
0.0061546
0.00608006
0.00605074
0.00607271
0.00563642
0.0050815
0.00483492
0.00463785
0.00424798
0.0041634
0.00431944
0.00412511
0.0047348
0.00467431
0.00451987
0.00452389
0.004209
0.00457589
0.00469977
0.00503507
0.00507628
0.00522335
0.0051304
0.00474347
0.00467368
0.00418325
0.00409566
0.00384427
0.00345014
0.0033371
0.00359151
0.00370569
0.00363356
0.00373163
0.00349604
0.00354116
0.00326767
0.00384699
0.00364939
0.00401044
0.00404906
0.00390158
0.0039115
0.00373407
0.00345641
0.00323348
0.00314765
0.00303748
0.00263402
0.00270407
0.00260446
0.00279296
0.00264163
0.00254437
0.00257704
0.00212243
0.00253247
0.00271297
0.00279845
0.00266393
0.00278775
0.00298431
0.00274246
0.0028226
0.00269227
0.00236501
0.00207382
0.00213102
0.00194812
0.00225524
0.00183959
0.00187505
0.00179433
0.00164838
0.00145906
0.00146808
0.0015918
0.00184718
0.00175822
0.00174228
0.00181714
0.00168016
0.00171666
0.00161314
0.00164702
0.0015234
0.00139834
0.00119895
0.00123703
0.00112467
0.0010264
0.00123394
0.000622355
0.000345574
0.00031029
0.000647435
0.000297214
0.000498046
0.000509036
0.000649982
0.000493643
0.000636226
0.000454586
0.000556617
0.000643463
0.000641535
0.000548305
0.000476422
0.000383433
0.000228342
0.000237102
0.000257415
0.00693774
0.00657544
0.00617347
0.00587048
0.00580785
0.00625765
0.00617204
0.00604081
0.00642852
0.00649408
0.00613055
0.00605969
0.00555165
0.00518864
0.00476533
0.00451612
0.00442923
0.00452289
0.00448112
0.00481757
0.00567163
0.00578713
0.00518664
0.00515195
0.00498324
0.00541849
0.00554857
0.00545323
0.00559648
0.00544238
0.00554669
0.00543363
0.00496716
0.00461784
0.00421935
0.00390998
0.00391914
0.00386942
0.00404515
0.00390835
0.00513027
0.00474417
0.00461982
0.00440257
0.00421017
0.00439178
0.00471177
0.00485791
0.00459498
0.00469262
0.00455449
0.00450168
0.00413968
0.00392603
0.00362776
0.00346367
0.00315645
0.00335962
0.00319451
0.00342065
0.00427813
0.00399851
0.00366331
0.00359746
0.00350869
0.00359655
0.00362322
0.00386167
0.00390538
0.00402217
0.00358261
0.00360904
0.00332968
0.00322034
0.00272402
0.00277014
0.00263493
0.00259221
0.0026865
0.00285491
0.00317667
0.0030483
0.00299364
0.00277992
0.00268643
0.00294243
0.00269666
0.0030831
0.00288946
0.00314127
0.00297787
0.0026893
0.00284385
0.00262085
0.00223197
0.00231922
0.00214105
0.00205975
0.00206519
0.00216616
0.0021918
0.00222773
0.00239428
0.00230537
0.00199095
0.00205539
0.00207378
0.00223373
0.00199103
0.00209779
0.00215298
0.00211868
0.00195962
0.00180626
0.00176851
0.00168466
0.00156292
0.00139997
0.00159025
0.00154295
0.0013978
0.0013659
0.00120796
0.00109248
0.00100178
0.00126493
0.00114761
0.0015825
0.00128614
0.00127313
0.00116978
0.000987373
0.00124233
0.000934878
0.000992701
0.00117591
0.000917448
0.000822746
0.000940279
0.000939215
0.0006202
0.000573115
0.000557629
0.000395048
0.000471855
0.000442833
0.000693599
0.000427356
0.000303694
0.000433696
0.000407803
0.000597023
0.000305894
0.000421153
0.000198339
0.000160284
0.000346129
0.000236702
0.000428876
0.000505932
0.00632437
0.00582459
0.00572402
0.00495066
0.00485243
0.00482922
0.0047349
0.0050546
0.00490292
0.00467508
0.00460059
0.00441475
0.00399616
0.00378681
0.00364225
0.00331838
0.00320028
0.00330243
0.00373075
0.00392235
0.00547962
0.00502171
0.00475297
0.00427736
0.00422037
0.00414719
0.00421732
0.00422745
0.00437366
0.00408144
0.00385918
0.00385384
0.00337295
0.00314588
0.00285678
0.00273023
0.00264756
0.00276959
0.00306538
0.00337527
0.00460067
0.0043983
0.00414343
0.00382159
0.0036032
0.00337933
0.00342426
0.00362462
0.00353464
0.00333884
0.00342109
0.00321678
0.00290794
0.00275665
0.00252655
0.00216313
0.00237135
0.00248239
0.00236788
0.00284844
0.00378757
0.00328788
0.00325828
0.00310203
0.00297786
0.00277879
0.0029306
0.00311723
0.00304317
0.00281752
0.00277437
0.00257309
0.00238203
0.00214651
0.0020024
0.00187133
0.00200937
0.0018908
0.00216293
0.00231221
0.00298345
0.00277521
0.00251963
0.00233854
0.00239793
0.00213814
0.00218545
0.00224489
0.0023552
0.00210001
0.002133
0.00202984
0.0020443
0.00169557
0.00146656
0.0014655
0.00161151
0.00147422
0.00160071
0.00168528
0.00202939
0.00189525
0.00201881
0.00161982
0.00162501
0.00191226
0.00173953
0.00162849
0.00169246
0.00146354
0.00148337
0.00143765
0.0013535
0.00120029
0.00097386
0.00108936
0.00112529
0.00103387
0.00109247
0.00120189
0.00128227
0.00120711
0.00113524
0.00110139
0.000977984
0.00110154
0.000870489
0.00118649
0.00104667
0.000923778
0.000832293
0.000861671
0.000780052
0.00078014
0.00072852
0.0007636
0.000788849
0.000671477
0.000742412
0.000863917
0.000364715
0.000205095
0.00055656
0.000163219
0.000326266
0.000126591
0.000308199
0.000215652
0.000317211
0.000369474
0.000246888
0.000125253
0.000404562
0.000186356
0.000411452
0.000100744
0.000401184
0.000148167
0.000217132
0.000515778
0.00655552
0.00574834
0.00506747
0.00423075
0.00420214
0.00386946
0.00381759
0.0036831
0.0036878
0.00337342
0.0034215
0.00295018
0.00298158
0.0025938
0.00233688
0.00219152
0.00235592
0.00265092
0.00300773
0.00338532
0.00523185
0.00496937
0.0043386
0.00385269
0.003462
0.00340008
0.00346959
0.00319165
0.0029609
0.00300865
0.0027096
0.00282264
0.00234441
0.00231866
0.00201806
0.00205895
0.00199087
0.00224048
0.00261107
0.00290777
0.00464746
0.00415316
0.00345122
0.00344608
0.00303193
0.00301814
0.00287471
0.00284407
0.00272278
0.00258132
0.00248437
0.00202095
0.00227256
0.00190814
0.00150564
0.00171078
0.00145945
0.00162216
0.00193499
0.00260855
0.0038883
0.00328519
0.00302988
0.00259074
0.00252629
0.00258111
0.00233979
0.00219469
0.0021629
0.00190862
0.00186435
0.0017916
0.00169452
0.00142174
0.00154069
0.00129799
0.00162349
0.00158365
0.00158974
0.00197277
0.00307551
0.00275471
0.00208457
0.00211509
0.00211843
0.00197067
0.00177653
0.00166006
0.0015864
0.00163396
0.00152897
0.00140467
0.00147797
0.00154046
0.00121481
0.0012469
0.00104075
0.00111415
0.00121595
0.00165491
0.00228284
0.00207713
0.00152851
0.00148238
0.00161627
0.0013976
0.00122707
0.00145871
0.00115159
0.00105477
0.00104178
0.000877043
0.00093298
0.00100815
0.00086167
0.000958402
0.000735519
0.000888262
0.000910176
0.00094101
0.00129791
0.00104572
0.000859496
0.000782758
0.000739195
0.000813006
0.00102143
0.000793198
0.000799946
0.000719355
0.000831734
0.00049892
0.000736956
0.000617639
0.000480403
0.00033367
0.000319972
0.000228624
0.000537347
0.000609019
0.000315393
0.000361838
0.000329964
0.00038523
0.000219107
0.000241364
0.00034481
0.000377649
0.000486795
0.000173683
7.90411e-05
0.000426136
0.000223594
0.000137024
0.000285548
3.35282e-05
0.000115436
0.000229674
0.000396964
0.000203022
0.00633028
0.00572159
0.00511069
0.00450484
0.00380176
0.003549
0.00333205
0.0030085
0.00298009
0.00278528
0.00236947
0.00232356
0.00179143
0.00182943
0.00167893
0.00171381
0.00207763
0.00223937
0.00258749
0.00317258
0.00550782
0.00484184
0.00441114
0.00370585
0.00343214
0.00287995
0.00269623
0.00261525
0.00259014
0.00227584
0.00209236
0.00167542
0.00169185
0.00176133
0.00142665
0.00154505
0.00170951
0.00185589
0.00220322
0.00282019
0.0046345
0.00426622
0.00376557
0.00309932
0.00277238
0.00270162
0.00217474
0.00194859
0.00205967
0.0019148
0.0017712
0.00143479
0.00125334
0.00116789
0.00110338
0.000939469
0.00105535
0.0015809
0.00185068
0.00200479
0.0038114
0.00333771
0.00305387
0.00247056
0.00228515
0.00211797
0.00189219
0.00170291
0.00165537
0.00146628
0.00133065
0.00127334
0.00132884
0.000975179
0.000941849
0.000800429
0.00105936
0.00140149
0.00155032
0.00174056
0.00297641
0.00276315
0.00235531
0.00199296
0.00179932
0.00146535
0.00150672
0.00141713
0.00114176
0.00103576
0.00111522
0.000890148
0.00077004
0.00083732
0.000679956
0.000674002
0.000641134
0.000862589
0.00128052
0.00134145
0.00217587
0.00194807
0.00164076
0.0014703
0.00131084
0.00109649
0.00102947
0.00105607
0.000991345
0.00076514
0.000888112
0.000677894
0.000650845
0.000549495
0.000821796
0.000559579
0.000408916
0.000595662
0.000764238
0.000827942
0.00123468
0.00128264
0.000937615
0.000870245
0.000695098
0.000792158
0.000515591
0.000441493
0.000638442
0.000567142
0.000651638
0.000425377
0.000293551
4.88737e-05
0.000605211
0.000164265
6.40843e-05
9.2379e-05
0.000440164
0.000584976
0.00043468
0.00037159
0.000463393
0.000272007
0.000140958
0.00035383
0.000421147
5.05894e-05
0.000123049
9.14254e-05
0.000347147
9.81281e-05
0.000256001
0.00018018
5.39041e-05
0.000280329
0.000232085
6.67778e-05
0.000140723
0.00026368
0.00711847
0.00638333
0.00518614
0.00443048
0.00398672
0.00335172
0.00281733
0.00256814
0.00212777
0.00219259
0.00199803
0.00174174
0.00170891
0.00143769
0.00170986
0.00163956
0.00180127
0.00215072
0.00261647
0.00367433
0.00604614
0.00525686
0.00440091
0.0037274
0.00313828
0.00281401
0.00236307
0.00235475
0.00215229
0.0018013
0.00174151
0.00138167
0.00127844
0.00109626
0.00104413
0.0013732
0.00141417
0.00189683
0.00234122
0.00290129
0.00505698
0.00430161
0.00392424
0.00334033
0.00289981
0.00235761
0.00218685
0.00174836
0.00166851
0.00173806
0.00145628
0.00115428
0.00103114
0.000979887
0.00111066
0.000971861
0.00114746
0.00134696
0.0019953
0.00254345
0.00433083
0.00370126
0.00320848
0.00249528
0.00228698
0.00202075
0.00172505
0.00178591
0.00148664
0.000962933
0.00105401
0.000870843
0.000766998
0.0007509
0.000708526
0.000820034
0.000862036
0.00131612
0.00145534
0.00201388
0.00298134
0.00278116
0.00239126
0.00196972
0.00182644
0.00142079
0.00134485
0.00116544
0.00125935
0.00104106
0.000796984
0.00106285
0.000479585
0.00086816
0.000576219
0.000566709
0.000732045
0.000808355
0.00125237
0.0014282
0.00233537
0.00214654
0.00168433
0.00145992
0.00130534
0.00112664
0.000941008
0.000839728
0.000935153
0.000638951
0.000552382
0.000686378
0.00042022
0.000508796
0.000418754
0.000516001
0.000446021
0.000472643
0.00105965
0.000848729
0.00142883
0.00119645
0.00101417
0.000732051
0.000660196
0.000655654
0.000503254
0.000610969
0.000525093
0.000251787
0.000637399
0.000137542
0.000272216
0.000287443
0.000345383
0.000250564
0.000156336
0.000310922
0.000629823
0.000455729
0.000552858
0.000553395
0.000198712
0.000206109
4.92429e-05
0.000294771
0.0002408
0.000146956
0.000208394
0.000188854
3.24812e-05
0.000274078
0.000143788
0.000138896
1.46248e-05
0.000196559
0.000209348
8.93478e-05
8.02032e-05
0.000188016
0.00800453
0.00705537
0.00591746
0.00523991
0.00440578
0.00378058
0.00328433
0.00282704
0.00238068
0.00209297
0.0020271
0.00167113
0.00157613
0.00154322
0.00156874
0.00174756
0.00208658
0.00257259
0.00341261
0.00396999
0.00676612
0.00610551
0.00538931
0.00419992
0.00363469
0.0029889
0.00257099
0.0022726
0.00211091
0.00168685
0.00166415
0.00130239
0.00130693
0.00122343
0.00125345
0.00141875
0.00164857
0.0020687
0.00287443
0.00341894
0.00567037
0.00502919
0.00394732
0.00367084
0.00302508
0.00262685
0.00236681
0.00182015
0.00183885
0.00131665
0.00141551
0.00106744
0.00116338
0.000963837
0.000917928
0.00110585
0.00140574
0.00193317
0.00226068
0.00299234
0.0046756
0.00421432
0.00362434
0.0032138
0.00259299
0.00233401
0.00179883
0.00177985
0.00141972
0.00121594
0.000860761
0.000584593
0.000720553
0.000685894
0.000811989
0.000772391
0.000976795
0.00162223
0.00193275
0.00216127
0.00366132
0.003385
0.00252032
0.00234111
0.00174137
0.00160443
0.00117092
0.00136658
0.00106722
0.00103155
0.000699751
0.000647036
0.000608517
0.000702664
0.000609888
0.000618826
0.000739936
0.00117421
0.00148925
0.00155673
0.00266548
0.00247318
0.00200642
0.00163607
0.00130463
0.00127527
0.00110647
0.000871978
0.000713052
0.000483427
0.000547905
0.000684925
0.000339742
0.000227307
0.000437959
0.000526572
0.000785969
0.000737632
0.00116287
0.00115679
0.0015434
0.00142712
0.000937069
0.00101591
0.000832063
0.000806709
0.000579822
0.000501488
0.000407709
0.000287674
0.000393789
0.000402206
0.00028061
9.77113e-05
0.000299909
0.000152659
0.000489294
0.000631732
0.000572774
0.000688973
0.000490244
0.000661701
0.000422136
0.000188472
0.000419498
0.000250506
0.000389798
0.000231437
0.000208181
3.41196e-05
9.69836e-05
0.00013217
0.000105982
4.02331e-05
1.29447e-05
6.03523e-05
0.000130881
0.00018757
0.000186271
4.13376e-05
0.00928661
0.00804557
0.00700276
0.00573465
0.00507612
0.00437633
0.00394862
0.00324569
0.00270029
0.00259355
0.00236724
0.00208978
0.00189707
0.00187453
0.00210032
0.00224778
0.00295024
0.00362481
0.0042638
0.00517224
0.00789414
0.00713277
0.00620533
0.00513234
0.00477584
0.00381437
0.00310148
0.00272569
0.00247124
0.00201753
0.00185809
0.00169859
0.00177497
0.00179623
0.00175176
0.00183934
0.00255097
0.00302394
0.0035944
0.00425095
0.00667955
0.00584123
0.0051977
0.0044221
0.00379289
0.00290521
0.00264771
0.00250127
0.00206202
0.00177755
0.00150299
0.00123813
0.00147182
0.00120585
0.0013548
0.001639
0.0018563
0.00254299
0.0030312
0.00349461
0.00523163
0.00491339
0.00434607
0.00349308
0.00292595
0.00247472
0.00199482
0.00187522
0.00158707
0.0013965
0.00130539
0.00110202
0.00117484
0.00102424
0.0010238
0.00134354
0.00154392
0.00194564
0.00257849
0.00267524
0.00415556
0.00368887
0.0034279
0.00282272
0.0024172
0.00207992
0.00169216
0.00159345
0.0013536
0.00127258
0.000902599
0.000953018
0.000691614
0.00067735
0.000560087
0.000717582
0.00112738
0.00132045
0.00193825
0.0023664
0.00306904
0.00258735
0.00216931
0.00205932
0.00168919
0.00154423
0.00132567
0.000925483
0.000968308
0.000961131
0.000679158
0.000588568
0.000350077
0.000319474
0.000615141
0.000904413
0.000928024
0.000969203
0.00141295
0.00176802
0.00192322
0.00151767
0.00140296
0.00134465
0.00100732
0.00089497
0.00081437
0.000724512
0.000378293
0.000616925
0.000594091
0.000400249
0.000391598
0.000353168
0.000463502
0.000267727
0.00040849
0.000745449
0.000761037
0.00105425
0.000633377
0.000476341
0.000594545
0.000355895
0.000312016
0.000349164
0.000216953
0.000359795
0.00028167
2.08665e-05
6.13387e-05
0.000100942
0.000177146
7.41543e-05
0.000263002
0.000290742
3.64047e-05
0.000188662
9.22224e-05
0.000361287
0.0109783
0.00980128
0.00854374
0.0074142
0.00630049
0.00546382
0.00490687
0.00429977
0.00367543
0.00345767
0.0030795
0.00290129
0.00289501
0.00278105
0.00307322
0.00341732
0.003869
0.00485048
0.00540653
0.0064222
0.00940342
0.00837852
0.00736758
0.00623375
0.00550927
0.004741
0.00402336
0.00370319
0.0031928
0.00306904
0.00227707
0.00248833
0.00222145
0.00223996
0.00266931
0.00291347
0.00315711
0.00385104
0.00468613
0.00556744
0.0079996
0.00724898
0.00600353
0.00514619
0.00441364
0.00403535
0.00350834
0.00299443
0.00260545
0.0025401
0.00223814
0.00203825
0.00212759
0.00181075
0.00192623
0.0021829
0.00266088
0.00317699
0.00380759
0.00450326
0.00649561
0.00557606
0.00500455
0.00457999
0.00358276
0.00315064
0.00263435
0.00231932
0.00212559
0.00183636
0.00185865
0.0014442
0.00169794
0.00141174
0.00165581
0.00167381
0.00217087
0.00253046
0.00309968
0.00389099
0.00507859
0.00439728
0.0039734
0.00347955
0.0030434
0.00258268
0.00212078
0.00193581
0.00166001
0.00146307
0.00137266
0.00117735
0.00101137
0.00119346
0.00104747
0.00118164
0.00152927
0.0022301
0.00247592
0.00274276
0.00350882
0.00313259
0.00275978
0.00256904
0.00207581
0.00160857
0.00155787
0.00144442
0.0011847
0.000823946
0.000683301
0.000829119
0.000610993
0.000881585
0.00100648
0.00100983
0.000962733
0.0016526
0.00168242
0.0019089
0.0019947
0.00190954
0.00177949
0.00144634
0.00133631
0.000950914
0.000828437
0.000755889
0.000778581
0.000682779
0.000738745
0.000637525
0.000532508
0.000639151
0.000443374
0.000704924
0.000840746
0.00123227
0.00111557
0.00104843
0.000578405
0.000647413
0.000616054
0.000361805
0.00055492
0.000325513
0.000351328
0.00038183
0.000309978
0.000197647
0.000210851
3.15976e-05
0.000311029
0.000173197
0.00021883
0.00025462
0.000340973
3.79121e-05
0.000554351
0.000665907
0.0131127
0.0116757
0.0102114
0.00916759
0.00773841
0.00704034
0.00629122
0.00551099
0.0050943
0.00466405
0.0043407
0.00398876
0.00405235
0.00418721
0.00453761
0.00495813
0.00527297
0.00634637
0.00714691
0.00809933
0.0111345
0.0101838
0.00882179
0.00770272
0.00669939
0.00599359
0.00540065
0.00478155
0.00428633
0.00385605
0.00364714
0.00352996
0.00343959
0.00333554
0.00347652
0.00395447
0.00456906
0.00535265
0.00611797
0.00695137
0.00953519
0.00854912
0.00757122
0.00672975
0.00579758
0.0049078
0.00446954
0.00403159
0.00368488
0.00319442
0.00312397
0.0029108
0.00292
0.00289309
0.00283371
0.00330028
0.00385533
0.00444907
0.00522288
0.00578
0.00768865
0.00694377
0.00601457
0.00532962
0.00458921
0.00410608
0.00358844
0.00358779
0.00273709
0.00255151
0.00241771
0.00227296
0.00218749
0.00215183
0.00230459
0.00284283
0.00268138
0.00366319
0.00410018
0.00486399
0.00633955
0.00546594
0.0048596
0.00416017
0.0036843
0.00322854
0.00276582
0.00241855
0.00249618
0.00202919
0.00197798
0.00172625
0.00180381
0.00189885
0.00190581
0.00214599
0.002397
0.00254698
0.00324695
0.00388815
0.00424411
0.00375715
0.00345479