/*--------------------------------*- C++ -*----------------------------------*\
| =========                 |                                                 |
| \\      /  F ield         | OpenFOAM: The Open Source CFD Toolbox           |
|  \\    /   O peration     | Version:  2212                                  |
|   \\  /    A nd           | Website:  www.openfoam.com                      |
|    \\/     M anipulation  |                                                 |
\*---------------------------------------------------------------------------*/
FoamFile
{
    version     2.0;
    format      ascii;
    arch        "LSB;label=32;scalar=64";
    class       volScalarField;
    location    "0";
    object      T;
}
// * * * * * * * * * * * * * * * * * * * * * * * * * * * * * * * * * * * * * //

dimensions      [0 0 0 1 0 0 0];

internalField   nonuniform List<scalar> 
3200
(
320.7
321.152
321.411
321.863
322.305
322.052
322.4
322.528
322.784
322.717
322.675
322.525
322.329
322.001
321.957
321.619
321.357
321.079
320.703
320.379
317.709
318.166
318.438
318.792
319.193
318.944
319.286
319.384
319.613
319.596
319.494
319.382
319.164
318.953
318.862
318.618
318.411
318.16
317.861
317.61
314.835
315.257
315.487
315.773
316.134
315.907
316.233
316.327
316.478
316.498
316.381
316.344
316.117
315.972
315.862
315.707
315.496
315.296
315.032
314.832
312.061
312.417
312.625
312.857
313.166
312.948
313.263
313.271
313.424
313.441
313.342
313.288
313.114
313.034
312.884
312.84
312.645
312.472
312.266
312.082
309.325
309.639
309.785
309.997
310.2
310.011
310.296
310.276
310.417
310.422
310.321
310.295
310.159
310.114
309.933
309.951
309.836
309.664
309.544
309.336
306.625
306.859
306.986
307.162
307.264
307.14
307.386
307.322
307.427
307.456
307.36
307.322
307.236
307.206
307.1
307.069
307.062
306.913
306.792
306.684
303.978
304.093
304.172
304.324
304.36
304.337
304.439
304.362
304.432
304.505
304.426
304.406
304.341
304.328
304.28
304.254
304.25
304.137
304.049
304.042
301.339
301.363
301.394
301.447
301.467
301.453
301.484
301.466
301.469
301.512
301.503
301.497
301.462
301.436
301.454
301.427
301.416
301.388
301.367
301.352
321.412
321.841
321.924
322.472
322.816
322.82
323.104
323.071
323.47
323.369
323.421
323.119
323.037
323.044
322.838
322.178
322.087
321.665
321.078
320.86
318.363
318.796
318.808
319.276
319.622
319.537
319.812
319.781
320.135
320.065
320.071
319.874
319.751
319.822
319.64
319.056
318.982
318.634
318.165
317.999
315.396
315.798
315.806
316.211
316.51
316.385
316.636
316.674
316.88
316.871
316.853
316.714
316.569
316.692
316.474
316.043
315.954
315.623
315.293
315.179
312.51
312.863
312.865
313.196
313.44
313.318
313.524
313.606
313.764
313.757
313.694
313.627
313.492
313.648
313.33
313.087
312.991
312.729
312.48
312.371
309.709
309.947
310.006
310.238
310.431
310.331
310.467
310.544
310.7
310.725
310.623
310.562
310.454
310.592
310.282
310.141
310.075
309.853
309.723
309.582
306.92
307.062
307.15
307.292
307.446
307.39
307.44
307.527
307.67
307.655
307.554
307.514
307.455
307.553
307.34
307.255
307.179
307.026
306.938
306.82
304.135
304.21
304.309
304.346
304.473
304.444
304.462
304.474
304.619
304.582
304.51
304.502
304.468
304.543
304.406
304.326
304.313
304.218
304.175
304.12
301.394
301.395
301.431
301.46
301.477
301.505
301.482
301.503
301.54
301.536
301.513
301.519
301.505
301.524
301.497
301.461
301.444
301.423
301.385
301.388
322.33
322.713
323.179
323.507
323.815
323.861
323.939
324.115
324.43
324.446
324.32
324.419
323.996
323.928
323.574
323.216
323.061
322.779
322.15
321.632
319.121
319.451
319.883
320.178
320.383
320.444
320.519
320.674
321.008
320.989
320.863
320.97
320.609
320.532
320.177
319.958
319.844
319.557
319.071
318.623
316
316.29
316.672
316.896
317.095
317.14
317.216
317.333
317.652
317.648
317.492
317.563
317.308
317.224
316.941
316.793
316.678
316.411
316.087
315.644
312.993
313.212
313.524
313.772
313.817
313.934
314.013
314.059
314.352
314.364
314.235
314.241
314.052
314.003
313.778
313.687
313.601
313.351
313.166
312.734
310.027
310.219
310.459
310.691
310.633
310.784
310.803
310.877
311.133
311.149
311.053
311.001
310.876
310.826
310.618
310.596
310.544
310.371
310.215
309.861
307.113
307.262
307.426
307.657
307.545
307.634
307.624
307.746
307.939
307.951
307.89
307.849
307.704
307.703
307.514
307.571
307.525
307.393
307.282
307.007
304.221
304.332
304.465
304.583
304.503
304.581
304.53
304.653
304.757
304.755
304.723
304.719
304.581
304.62
304.514
304.523
304.503
304.461
304.362
304.158
301.406
301.444
301.505
301.552
301.536
301.539
301.508
301.583
301.599
301.599
301.588
301.567
301.525
301.565
301.515
301.513
301.521
301.509
301.478
301.393
323
323.578
324.093
324.46
324.729
324.995
325.278
325.481
325.601
325.629
325.315
325.383
325.253
325.107
324.845
324.42
324.225
323.787
323.126
322.682
319.673
320.221
320.696
320.992
321.232
321.425
321.673
321.876
321.979
321.985
321.703
321.784
321.673
321.503
321.335
321.002
320.858
320.46
319.866
319.505
316.474
316.968
317.356
317.608
317.841
318.027
318.172
318.332
318.484
318.451
318.215
318.299
318.183
318.036
317.935
317.631
317.576
317.2
316.687
316.389
313.387
313.78
314.123
314.338
314.507
314.687
314.723
314.864
315.041
314.976
314.807
314.908
314.822
314.646
314.584
314.329
314.332
313.978
313.567
313.293
310.355
310.677
310.924
311.187
311.224
311.374
311.359
311.49
311.671
311.553
311.442
311.57
311.511
311.316
311.258
311.117
311.13
310.797
310.478
310.307
307.327
307.576
307.771
307.999
307.957
308.108
308.088
308.165
308.316
308.166
308.165
308.246
308.207
308.007
308.028
307.9
307.974
307.692
307.435
307.367
304.363
304.519
304.617
304.828
304.758
304.858
304.835
304.943
305.012
304.872
304.885
304.97
304.897
304.74
304.819
304.721
304.821
304.625
304.457
304.422
301.477
301.5
301.533
301.632
301.582
301.621
301.611
301.657
301.71
301.626
301.626
301.661
301.637
301.583
301.607
301.582
301.609
301.557
301.494
301.492
323.957
324.571
325.06
325.505
325.938
326.145
326.547
326.667
326.708
326.896
326.371
326.469
326.54
326.266
326.079
325.733
325.196
324.79
324.282
323.807
320.502
321.067
321.498
321.887
322.257
322.417
322.743
322.843
322.964
323.048
322.599
322.709
322.799
322.56
322.433
322.088
321.658
321.286
320.871
320.482
317.154
317.687
318.066
318.386
318.689
318.784
319.04
319.115
319.265
319.343
318.989
319.118
319.142
318.934
318.872
318.556
318.186
317.888
317.558
317.187
313.91
314.342
314.671
314.983
315.185
315.246
315.46
315.527
315.67
315.681
315.455
315.583
315.569
315.373
315.398
315.099
314.811
314.538
314.299
313.957
310.756
311.135
311.385
311.63
311.771
311.834
311.951
312.005
312.141
312.121
311.999
312.076
312.047
311.873
311.948
311.721
311.47
311.273
311.06
310.823
307.627
307.914
308.123
308.319
308.364
308.477
308.514
308.534
308.647
308.622
308.583
308.617
308.558
308.452
308.515
308.347
308.181
307.994
307.911
307.704
304.575
304.74
304.852
304.999
305.01
305.113
305.142
305.11
305.17
305.141
305.164
305.206
305.134
305.066
305.115
304.997
304.901
304.76
304.755
304.598
301.537
301.597
301.615
301.671
301.669
301.726
301.711
301.716
301.734
301.732
301.733
301.742
301.727
301.71
301.717
301.677
301.637
301.603
301.596
301.515
325.044
325.462
326.154
326.523
326.875
327.235
327.499
327.751
327.787
327.943
327.834
327.869
327.756
327.368
327.206
326.839
326.266
325.858
325.428
324.887
321.512
321.866
322.477
322.776
323.064
323.328
323.626
323.812
323.846
323.962
323.891
323.968
323.796
323.491
323.362
323.007
322.551
322.224
321.861
321.371
318.055
318.331
318.897
319.145
319.376
319.55
319.82
319.97
320.012
320.097
320.049
320.151
319.974
319.743
319.599
319.281
318.917
318.646
318.376
317.985
314.688
314.867
315.387
315.605
315.779
315.887
316.107
316.21
316.278
316.311
316.308
316.387
316.245
316.073
315.936
315.684
315.376
315.129
314.911
314.648
311.341
311.448
311.906
312.101
312.231
312.264
312.475
312.529
312.579
312.597
312.581
312.698
312.547
312.435
312.351
312.102
311.899
311.624
311.513
311.361
308.076
308.109
308.489
308.633
308.695
308.746
308.88
308.905
308.969
308.969
308.911
309.083
308.968
308.871
308.802
308.585
308.472
308.196
308.181
308.107
304.895
304.845
305.093
305.178
305.207
305.269
305.318
305.327
305.388
305.356
305.318
305.469
305.423
305.331
305.275
305.121
305.057
304.858
304.91
304.873
301.643
301.607
301.708
301.715
301.738
301.767
301.789
301.781
301.817
301.784
301.767
301.847
301.823
301.787
301.774
301.719
301.666
301.606
301.658
301.636
326.093
326.545
327.001
327.376
327.915
328.388
328.681
328.71
328.829
328.913
328.894
328.86
328.648
328.583
328.356
327.856
327.306
327.012
326.535
325.838
322.375
322.772
323.165
323.464
323.918
324.341
324.608
324.614
324.755
324.804
324.834
324.751
324.581
324.581
324.388
323.944
323.463
323.283
322.801
322.26
318.765
319.14
319.445
319.682
320.045
320.388
320.643
320.633
320.777
320.8
320.843
320.775
320.658
320.64
320.513
320.104
319.704
319.592
319.133
318.703
315.212
315.527
315.856
316.003
316.294
316.548
316.783
316.762
316.879
316.906
316.92
316.889
316.772
316.757
316.716
316.36
316.034
315.943
315.521
315.205
311.745
311.979
312.287
312.385
312.626
312.795
312.999
312.969
313.02
313.034
313.085
313.043
313.02
312.934
312.964
312.699
312.417
312.316
311.99
311.8
308.376
308.498
308.75
308.876
308.996
309.091
309.288
309.216
309.263
309.266
309.272
309.262
309.274
309.168
309.255
309.038
308.81
308.758
308.54
308.449
305.009
305.122
305.238
305.359
305.4
305.446
305.564
305.524
305.591
305.562
305.541
305.587
305.576
305.45
305.549
305.392
305.257
305.23
305.094
305.081
301.693
301.718
301.748
301.811
301.814
301.814
301.857
301.841
301.874
301.853
301.841
301.899
301.868
301.81
301.855
301.801
301.738
301.757
301.719
301.712
326.79
327.304
327.951
328.415
328.846
329.377
329.724
329.921
329.953
330.103
330.015
329.933
329.856
329.74
329.454
329.038
328.492
328.06
327.598
327.052
323
323.428
324.025
324.346
324.695
325.225
325.518
325.657
325.751
325.829
325.782
325.707
325.648
325.558
325.352
324.958
324.477
324.167
323.721
323.259
319.329
319.667
320.182
320.398
320.691
321.201
321.372
321.516
321.627
321.677
321.635
321.636
321.539
321.485
321.37
320.982
320.59
320.335
319.956
319.565
315.725
315.961
316.417
316.55
316.806
317.262
317.37
317.479
317.592
317.615
317.564
317.599
317.538
317.429
317.398
317.054
316.763
316.566
316.267
315.906
312.161
312.344
312.713
312.756
313.047
313.409
313.454
313.543
313.651
313.608
313.581
313.623
313.58
313.471
313.482
313.206
313.001
312.839
312.636
312.31
308.671
308.738
309.052
309.07
309.285
309.55
309.593
309.608
309.746
309.669
309.642
309.666
309.656
309.58
309.59
309.41
309.22
309.125
308.983
308.768
305.214
305.232
305.396
305.423
305.573
305.724
305.746
305.742
305.858
305.757
305.773
305.797
305.807
305.767
305.722
305.635
305.521
305.449
305.373
305.221
301.766
301.758
301.807
301.825
301.875
301.926
301.911
301.92
301.966
301.926
301.924
301.947
301.957
301.93
301.933
301.885
301.867
301.809
301.814
301.743
327.755
328.217
328.827
329.369
329.886
330.306
330.55
331.007
331.068
331.221
331.29
330.923
330.959
330.855
330.332
330.083
329.629
329.122
328.461
328.035
323.828
324.189
324.794
325.181
325.608
326.024
326.233
326.66
326.692
326.85
326.849
326.518
326.6
326.549
326.107
325.84
325.479
325.064
324.516
324.154
320.02
320.322
320.911
321.152
321.47
321.821
322.012
322.404
322.423
322.522
322.513
322.241
322.347
322.322
321.961
321.716
321.404
321.07
320.633
320.355
316.272
316.557
317.049
317.183
317.481
317.744
317.899
318.234
318.224
318.34
318.299
318.078
318.154
318.178
317.901
317.645
317.487
317.103
316.818
316.59
312.599
312.821
313.198
313.296
313.529
313.748
313.823
314.058
314.114
314.15
314.164
313.973
314.053
314.143
313.924
313.637
313.584
313.236
313.019
312.861
309.007
309.118
309.405
309.451
309.633
309.815
309.887
310.01
310.068
310.056
310.091
309.984
310.06
310.124
309.92
309.677
309.644
309.411
309.252
309.149
305.406
305.471
305.628
305.644
305.77
305.888
305.938
305.964
306.048
306.035
306.034
305.999
306.089
306.084
305.982
305.778
305.791
305.591
305.536
305.516
301.806
301.815
301.904
301.885
301.937
301.976
301.999
301.992
302.023
302.036
302.007
302.01
302.041
302.042
302.008
301.918
301.938
301.827
301.854
301.863
328.615
329.321
329.922
330.456
330.779
331.289
331.594
331.951
331.987
332.192
332.193
332
331.976
331.829
331.446
331.095
330.784
330.037
329.403
329.082
324.563
325.149
325.669
326.14
326.417
326.816
327.11
327.457
327.455
327.641
327.629
327.512
327.471
327.364
327.035
326.683
326.452
325.838
325.282
325.1
320.61
321.123
321.572
321.94
322.155
322.49
322.768
323.056
323.063
323.187
323.205
323.116
323.062
322.99
322.712
322.393
322.229
321.681
321.246
321.145
316.781
317.158
317.569
317.818
318.033
318.272
318.457
318.75
318.729
318.839
318.866
318.79
318.701
318.72
318.491
318.193
318.121
317.619
317.311
317.214
313.002
313.281
313.587
313.789
313.991
314.141
314.319
314.496
314.495
314.603
314.594
314.543
314.464
314.52
314.361
314.062
314.019
313.641
313.462
313.313
309.284
309.507
309.662
309.807
309.971
310.106
310.222
310.293
310.325
310.402
310.407
310.323
310.311
310.336
310.25
309.996
310.018
309.738
309.59
309.459
305.577
305.71
305.778
305.893
305.994
306.061
306.147
306.146
306.178
306.266
306.249
306.173
306.171
306.177
306.172
305.994
306.017
305.842
305.771
305.667
301.865
301.901
301.929
301.992
302.003
302.024
302.065
302.039
302.068
302.125
302.071
302.083
302.058
302.076
302.084
302.016
302.005
301.941
301.928
301.899
329.586
330.326
330.773
331.362
331.799
332.15
332.614
332.868
332.863
333.176
332.975
333.013
332.819
332.627
332.424
331.742
331.455
330.739
330.083
329.868
325.4
326.054
326.452
326.91
327.275
327.606
327.988
328.21
328.241
328.513
328.334
328.343
328.188
328.015
327.87
327.268
327.062
326.431
325.898
325.677
321.341
321.91
322.251
322.62
322.859
323.173
323.524
323.717
323.748
324.017
323.809
323.796
323.672
323.543
323.396
322.878
322.711
322.25
321.78
321.584
317.404
317.838
318.12
318.408
318.553
318.858
319.157
319.315
319.308
319.572
319.372
319.312
319.26
319.16
319.014
318.627
318.427
318.129
317.753
317.566
313.53
313.857
314.055
314.254
314.327
314.585
314.853
314.958
314.982
315.166
314.983
314.926
314.871
314.826
314.718
314.437
314.239
314.057
313.781
313.617
309.676
309.868
309.982
310.126
310.202
310.402
310.581
310.604
310.709
310.823
310.661
310.611
310.566
310.566
310.474
310.299
310.104
310.016
309.873
309.698
305.8
305.946
305.948
306.047
306.107
306.24
306.316
306.325
306.435
306.49
306.406
306.376
306.327
306.343
306.284
306.171
306.028
305.987
305.965
305.823
301.92
301.979
301.989
302.035
302.047
302.089
302.12
302.119
302.154
302.17
302.161
302.141
302.135
302.12
302.097
302.053
302.008
302.021
301.993
301.957
330.358
331.032
331.402
332.032
332.601
333.178
333.314
333.726
333.686
334.211
333.998
333.971
333.792
333.56
333.118
332.7
332.303
331.705
331.199
330.734
326.109
326.643
326.893
327.416
327.998
328.522
328.65
328.994
328.931
329.424
329.233
329.221
329.047
328.834
328.449
328.074
327.766
327.3
326.845
326.424
321.901
322.422
322.561
322.998
323.469
323.968
324.083
324.356
324.307
324.736
324.562
324.582
324.429
324.205
323.883
323.565
323.326
322.942
322.56
322.222
317.79
318.297
318.322
318.688
319.069
319.48
319.57
319.794
319.782
320.127
319.956
319.983
319.944
319.71
319.504
319.157
319.009
318.717
318.367
318.094
313.792
314.178
314.205
314.472
314.75
315.024
315.209
315.353
315.353
315.616
315.446
315.49
315.476
315.285
315.127
314.801
314.693
314.537
314.28
314.027
309.816
310.111
310.126
310.307
310.472
310.652
310.843
310.921
310.987
311.172
311.046
311.045
311.034
310.881
310.748
310.569
310.461
310.384
310.237
309.997
305.875
306.061
306.094
306.176
306.258
306.368
306.457
306.529
306.599
306.71
306.66
306.658
306.636
306.526
306.426
306.36
306.275
306.253
306.142
306.022
301.978
302.009
302.039
302.069
302.077
302.123
302.159
302.194
302.203
302.241
302.238
302.243
302.227
302.197
302.152
302.133
302.077
302.09
302.061
302.025
330.772
331.686
332.321
332.892
333.255
333.96
334.206
334.586
334.558
334.919
334.859
335.015
334.587
334.419
334.064
333.774
333.102
332.581
332.064
331.484
326.416
327.237
327.722
328.208
328.531
329.167
329.32
329.683
329.663
329.979
330.014
330.154
329.676
329.617
329.3
328.999
328.442
327.995
327.579
327.116
322.19
322.898
323.267
323.693
323.954
324.47
324.603
324.919
324.926
325.215
325.216
325.399
324.956
324.896
324.608
324.303
323.886
323.507
323.19
322.795
318.069
318.63
318.976
319.267
319.461
319.887
320.018
320.255
320.31
320.515
320.517
320.677
320.367
320.259
320.046
319.743
319.44
319.126
318.89
318.612
313.983
314.383
314.701
314.922
315.067
315.335
315.534
315.662
315.725
315.904
315.896
316.021
315.838
315.699
315.526
315.273
315.045
314.867
314.659
314.438
309.967
310.204
310.491
310.653
310.741
310.892
311.079
311.142
311.185
311.337
311.292
311.411
311.331
311.198
311
310.89
310.67
310.595
310.465
310.319
305.996
306.093
306.269
306.389
306.444
306.532
306.603
306.702
306.697
306.787
306.799
306.857
306.828
306.71
306.574
306.566
306.375
306.381
306.273
306.197
302.019
302.04
302.099
302.159
302.153
302.189
302.221
302.253
302.259
302.284
302.29
302.313
302.291
302.232
302.208
302.187
302.123
302.141
302.088
302.065
331.756
332.345
332.916
333.737
334.291
334.746
335.167
335.518
335.526
335.886
335.745
335.83
335.576
335.299
334.822
334.582
334.153
333.375
332.842
332.211
327.284
327.793
328.282
328.939
329.434
329.864
330.23
330.483
330.517
330.852
330.724
330.789
330.568
330.338
329.974
329.727
329.373
328.758
328.287
327.792
322.951
323.338
323.737
324.302
324.694
325.109
325.388
325.593
325.644
325.944
325.84
325.883
325.711
325.491
325.215
324.975
324.687
324.219
323.802
323.434
318.681
318.993
319.294
319.753
320.094
320.394
320.645
320.812
320.886
321.104
321.039
321.099
320.907
320.772
320.514
320.329
320.121
319.746
319.404
319.134
314.502
314.717
314.968
315.275
315.554
315.744
315.973
316.13
316.145
316.338
316.284
316.378
316.2
316.128
315.871
315.757
315.564
315.301
315.083
314.87
310.38
310.53
310.718
310.883
311.078
311.15
311.364
311.484
311.489
311.643
311.611
311.637
311.547
311.511
311.316
311.202
311.111
310.932
310.752
310.614
306.211
306.324
306.462
306.493
306.616
306.665
306.835
306.866
306.896
306.964
306.961
306.954
306.921
306.892
306.786
306.73
306.678
306.542
306.438
306.379
302.065
302.124
302.165
302.164
302.218
302.24
302.292
302.297
302.301
302.332
302.33
302.346
302.328
302.317
302.291
302.267
302.235
302.185
302.167
302.141
332.347
332.823
333.686
334.292
334.978
335.583
335.928
336.368
336.289
336.741
336.608
336.657
336.273
336.095
335.635
335.162
334.653
334.198
333.554
333.007
327.888
328.167
328.949
329.482
330.053
330.577
330.887
331.255
331.173
331.625
331.448
331.484
331.214
331.061
330.654
330.269
329.783
329.416
328.904
328.45
323.502
323.635
324.323
324.79
325.244
325.696
325.938
326.253
326.158
326.646
326.402
326.478
326.267
326.122
325.789
325.468
325.038
324.763
324.372
323.972
319.2
319.247
319.804
320.191
320.548
320.902
321.1
321.368
321.289
321.698
321.482
321.54
321.408
321.302
320.978
320.75
320.394
320.186
319.893
319.535
314.91
314.93
315.352
315.62
315.931
316.181
316.365
316.534
316.483
316.778
316.674
316.724
316.613
316.521
316.255
316.111
315.785
315.642
315.466
315.171
310.611
310.673
310.935
311.141
311.364
311.486
311.683
311.747
311.747
311.925
311.906
311.903
311.875
311.771
311.586
311.453
311.274
311.125
311.038
310.808
306.362
306.401
306.543
306.674
306.824
306.834
306.999
307.062
307.062
307.115
307.162
307.141
307.105
307.06
306.934
306.859
306.759
306.673
306.631
306.477
302.123
302.135
302.184
302.242
302.302
302.274
302.332
302.362
302.377
302.379
302.385
302.401
302.362
302.372
302.328
302.268
302.282
302.221
302.237
302.177
332.924
333.442
334.297
334.894
335.568
336.021
336.557
336.906
337.098
337.342
337.223
337.318
336.944
336.915
336.469
336.036
335.549
334.818
334.14
333.683
328.304
328.716
329.467
330.003
330.566
330.935
331.44
331.715
331.907
332.1
332.024
332.091
331.788
331.768
331.409
331.003
330.546
329.96
329.398
329.043
323.754
324.069
324.734
325.211
325.732
325.974
326.459
326.642
326.848
326.97
326.954
326.98
326.709
326.684
326.438
326.096
325.67
325.182
324.736
324.496
319.352
319.575
320.139
320.536
320.982
321.103
321.562
321.665
321.854
321.922
321.988
321.959
321.764
321.751
321.539
321.265
320.858
320.504
320.15
319.976
315.03
315.18
315.59
315.936
316.284
316.337
316.76
316.759
316.903
316.952
317.062
317.003
316.887
316.822
316.685
316.461
316.146
315.872
315.61
315.507
310.706
310.87
311.103
311.382
311.628
311.634
311.954
311.943
311.998
312.057
312.156
312.09
311.996
311.96
311.874
311.695
311.492
311.272
311.126
311.055
306.427
306.492
306.667
306.857
306.962
306.964
307.151
307.161
307.163
307.209
307.282
307.207
307.205
307.172
307.083
307.025
306.861
306.728
306.631
306.62
302.162
302.16
302.222
302.304
302.334
302.319
302.388
302.402
302.388
302.426
302.439
302.416
302.423
302.413
302.358
302.339
302.288
302.243
302.223
302.203
333.258
334.006
334.651
335.459
336.06
336.581
337.133
337.45
337.575
337.969
337.94
338.049
337.421
337.383
337.187
336.681
336.157
335.241
334.513
334.042
328.655
329.219
329.793
330.505
331.02
331.399
331.948
332.192
332.335
332.661
332.633
332.704
332.188
332.095
332.036
331.558
331.135
330.313
329.73
329.386
324.106
324.503
325.072
325.664
326.126
326.371
326.904
327.064
327.197
327.434
327.416
327.473
327.035
326.982
326.935
326.592
326.203
325.477
325.005
324.778
319.626
319.891
320.408
320.911
321.295
321.482
321.924
322.048
322.172
322.279
322.328
322.319
321.993
321.92
321.919
321.697
321.35
320.753
320.341
320.271
315.217
315.387
315.836
316.223
316.507
316.646
317.017
317.043
317.186
317.229
317.289
317.312
317.043
316.983
316.912
316.84
316.54
316.101
315.753
315.751
310.832
310.937
311.308
311.563
311.793
311.832
312.18
312.124
312.256
312.26
312.288
312.356
312.148
312.086
312.023
312.008
311.795
311.455
311.275
311.276
306.473
306.55
306.8
306.909
307.037
307.107
307.316
307.24
307.365
307.34
307.333
307.417
307.283
307.252
307.17
307.223
307.085
306.857
306.787
306.78
302.138
302.203
302.284
302.324
302.335
302.398
302.46
302.411
302.475
302.483
302.433
302.489
302.432
302.451
302.404
302.42
302.365
302.271
302.29
302.275
333.757
334.368
335.18
335.695
336.562
337.116
337.524
337.98
338.329
338.433
338.266
338.415
338.176
338.042
337.391
337.306
336.813
335.928
335.072
334.485
329.044
329.532
330.247
330.647
331.412
331.85
332.281
332.646
332.976
333.052
332.906
333.032
332.845
332.729
332.174
332.143
331.651
330.906
330.207
329.743
324.36
324.806
325.452
325.742
326.447
326.744
327.145
327.449
327.743
327.764
327.697
327.751
327.618
327.506
327.04
327.058
326.557
325.969
325.442
325.057
319.808
320.189
320.762
320.939
321.465
321.774
322.119
322.348
322.597
322.588
322.555
322.572
322.532
322.366
321.988
322.029
321.587
321.119
320.788
320.45
315.35
315.638
316.123
316.215
316.606
316.906
317.135
317.327
317.518
317.462
317.491
317.516
317.447
317.291
317.022
317.104
316.73
316.354
316.156
315.85
310.933
311.179
311.5
311.504
311.778
312.056
312.229
312.371
312.492
312.389
312.476
312.475
312.444
312.29
312.106
312.237
311.89
311.671
311.558
311.305
306.544
306.708
306.899
306.905
307.038
307.208
307.341
307.427
307.502
307.442
307.462
307.464
307.454
307.343
307.279
307.339
307.109
307.015
306.923
306.782
302.186
302.239
302.305
302.331
302.357
302.399
302.475
302.484
302.51
302.479
302.497
302.493
302.475
302.467
302.433
302.473
302.378
302.35
302.342
302.274
333.797
334.879
335.513
336.203
336.794
337.41
337.7
338.396
338.652
338.909
338.832
338.719
338.54
338.361
337.886
337.767
337.154
336.201
335.435
334.88
329.069
329.975
330.496
331.088
331.577
332.163
332.438
333.032
333.244
333.453
333.389
333.282
333.143
333.063
332.599
332.554
331.98
331.164
330.521
330.053
324.45
325.171
325.62
326.081
326.468
327.024
327.33
327.768
327.989
328.099
328.057
327.934
327.874
327.831
327.411
327.396
326.913
326.23
325.65
325.316
319.94
320.443
320.841
321.204
321.523
321.969
322.275
322.583
322.773
322.844
322.819
322.691
322.704
322.683
322.331
322.318
321.899
321.37
320.952
320.645
315.489
315.826
316.149
316.41
316.657
317.041
317.275
317.491
317.665
317.72
317.685
317.552
317.642
317.612
317.307
317.312
316.944
316.57
316.263
316.043
311.027
311.279
311.483
311.675
311.857
312.166
312.351
312.449
312.606
312.63
312.63
312.483
312.564
312.584
312.35
312.334
312.036
311.776
311.562
311.434
306.62
306.765
306.865
306.987
307.087
307.319
307.396
307.431
307.549
307.546
307.581
307.444
307.524
307.545
307.435
307.403
307.197
307.039
306.909
306.896
302.203
302.293
302.299
302.352
302.362
302.452
302.502
302.479
302.52
302.501
302.542
302.481
302.504
302.516
302.514
302.476
302.423
302.368
302.291
302.325
333.831
334.734
335.822
336.295
336.999
337.758
338.051
338.602
338.879
338.991
339.105
338.905
338.886
338.619
338.178
337.964
337.305
336.473
335.824
335.296
329.051
329.833
330.783
331.189
331.83
332.458
332.682
333.149
333.429
333.549
333.637
333.43
333.44
333.247
332.838
332.706
332.141
331.372
330.873
330.454
324.421
325.09
325.892
326.232
326.773
327.349
327.461
327.808
328.116
328.272
328.301
328.092
328.09
327.975
327.64
327.508
327.066
326.397
325.999
325.661
319.87
320.436
321.053
321.371
321.779
322.292
322.35
322.623
322.897
323.067
323.089
322.823
322.841
322.815
322.549
322.418
322.07
321.523
321.175
320.935
315.401
315.892
316.302
316.558
316.892
317.274
317.305
317.517
317.764
317.888
317.904
317.668
317.701
317.716
317.486
317.401
317.141
316.687
316.405
316.251
310.951
311.334
311.632
311.824
312.012
312.324
312.34
312.484
312.668
312.741
312.742
312.568
312.638
312.643
312.452
312.386
312.254
311.845
311.684
311.614
306.569
306.812
306.947
307.125
307.174
307.384
307.403
307.48
307.612
307.6
307.595
307.512
307.602
307.596
307.451
307.421
307.383
307.071
307.012
306.962
302.195
302.296
302.319
302.405
302.391
302.46
302.497
302.503
302.539
302.563
302.53
302.502
302.546
302.514
302.497
302.485
302.456
302.343
302.347
302.336
)
;

boundaryField
{
    hotSide
    {
        type            fixedGradient;
        gradient        nonuniform List<scalar> 
400
(
239.721
251.112
262.422
273.601
284.598
295.362
305.84
315.981
325.735
335.053
343.886
352.19
359.92
367.037
373.502
379.282
384.347
388.67
392.23
395.009
244.8
256.55
268.221
279.762
291.12
302.242
313.074
323.564
333.659
343.308
352.462
361.074
369.098
376.492
383.218
389.24
394.527
399.051
402.79
405.724
249.223
261.303
273.307
285.182
296.875
308.329
319.491
330.305
340.718
350.676
360.13
369.03
377.33
384.986
391.958
398.209
403.706
408.422
412.332
415.417
252.978
265.358
277.665
289.845
301.842
313.601
325.063
336.175
346.88
357.123
366.854
376.02
384.575
392.474
399.674
406.139
411.834
416.73
420.803
424.031
256.06
268.707
281.285
293.738
306.008
318.039
329.773
341.152
352.12
362.622
372.603
382.012
390.799
398.919
406.329
412.991
418.868
423.932
428.155
431.519
258.469
271.349
284.162
296.853
309.363
321.634
333.606
345.222
356.423
367.153
377.356
386.981
395.976
404.294
411.893
418.731
424.774
429.99
434.352
437.84
260.208
273.284
286.297
299.19
311.904
324.379
336.556
348.374
359.775
370.702
381.098
390.909
400.085
408.577
416.341
423.336
429.524
434.876
439.362
442.962
261.283
274.518
287.693
300.751
313.631
326.274
338.618
350.604
362.171
373.261
383.818
393.786
403.114
411.752
419.656
426.784
433.099
438.567
443.162
446.861
261.705
275.059
288.357
301.541
314.548
327.32
339.794
351.91
363.607
374.827
385.51
395.603
405.053
413.81
421.827
429.064
435.482
441.048
445.735
449.518
261.484
274.918
288.299
301.567
314.663
327.524
340.089
352.297
364.087
375.399
386.175
396.359
405.899
414.744
422.848
430.168
436.666
442.309
447.068
450.92
260.633
274.105
287.528
300.84
313.983
326.893
339.509
351.77
363.614
374.981
385.814
396.055
405.653
414.555
422.716
430.093
436.647
442.345
447.157
451.061
259.163
272.633
286.055
299.371
312.518
325.436
338.063
350.337
362.196
373.581
384.433
394.697
404.318
413.246
421.435
428.841
435.426
441.156
446.002
449.94
257.088
270.514
283.895
297.171
310.282
323.166
335.762
348.008
359.843
371.208
382.043
392.293
401.904
410.826
419.012
426.42
433.01
438.749
443.608
447.562
254.42
267.761
281.058
294.253
307.285
320.095
332.619
344.797
356.569
367.874
378.655
388.855
398.422
407.306
415.46
422.841
429.411
435.135
439.986
443.939
251.173
264.386
277.559
290.631
303.544
316.237
328.649
340.719
352.388
363.595
374.285
384.401
393.89
402.704
410.795
418.121
424.644
430.331
435.153
439.086
247.359
260.405
273.412
286.321
299.073
311.609
323.869
335.792
347.319
358.391
368.953
378.949
388.328
397.039
405.038
412.282
418.734
424.361
429.133
433.029
242.993
255.833
268.634
281.339
293.891
306.231
318.299
330.036
341.384
352.285
362.684
372.526
381.761
390.34
398.218
405.353
411.709
417.253
421.956
425.797
238.09
250.685
263.243
275.706
288.019
300.124
311.963
323.477
334.61
345.304
355.506
365.162
374.222
382.638
390.367
397.368
403.604
409.043
413.659
417.428
232.669
244.982
257.259
269.444
281.481
293.315
304.888
316.144
327.027
337.481
347.453
356.891
365.746
373.972
381.526
388.368
394.462
399.777
404.287
407.969
226.748
238.746
250.707
262.578
274.306
285.834
297.108
308.072
318.671
328.853
338.565
347.756
356.379
364.388
371.742
378.402
384.333
389.505
393.892
397.472
)
;
    }
    coldSide
    {
        type            mixed;
        refValue        uniform 300;
        refGradient     uniform 0;
        valueFraction   uniform 0.991591;
        source          uniform 0;
        value           nonuniform List<scalar> 
400
(
300.011
300.012
300.012
300.012
300.013
300.014
300.014
300.015
300.015
300.016
300.016
300.017
300.017
300.017
300.018
300.018
300.018
300.018
300.019
300.018
300.011
300.012
300.012
300.013
300.013
300.014
300.014
300.015
300.015
300.016
300.017
300.017
300.017
300.018
300.018
300.018
300.019