/*--------------------------------*- C++ -*----------------------------------*\
| =========                 |                                                 |
| \\      /  F ield         | OpenFOAM: The Open Source CFD Toolbox           |
|  \\    /   O peration     | Version:  2212                                  |
|   \\  /    A nd           | Website:  www.openfoam.com                      |
|    \\/     M anipulation  |                                                 |
\*---------------------------------------------------------------------------*/
FoamFile
{
    version     2.0;
    format      ascii;
    arch        "LSB;label=32;scalar=64";
    class       volScalarField;
    location    "0";
    object      T;
}
// * * * * * * * * * * * * * * * * * * * * * * * * * * * * * * * * * * * * * //

dimensions      [0 0 0 1 0 0 0];

internalField   nonuniform List<scalar> 
3200
(
347.74
348.633
349.712
350.356
351.244
351.876
352.316
352.455
352.73
353.022
352.793
352.34
352.187
351.648
350.931
350.058
349.295
347.979
347.063
345.917
341.512
342.276
343.197
343.763
344.555
345.099
345.47
345.584
345.853
346.156
345.893
345.479
345.428
344.984
344.337
343.511
342.855
341.764
340.976
339.968
335.208
335.881
336.646
337.127
337.801
338.27
338.54
338.683
338.932
339.209
338.988
338.577
338.643
338.258
337.615
336.93
336.436
335.451
334.808
333.944
328.867
329.426
330.075
330.47
331.038
331.412
331.563
331.717
331.927
332.197
332.01
331.66
331.704
331.47
330.816
330.257
329.886
329.097
328.565
327.852
322.506
322.913
323.473
323.798
324.196
324.438
324.553
324.722
324.867
325.092
324.994
324.688
324.703
324.563
324.033
323.565
323.274
322.679
322.276
321.705
316.127
316.389
316.811
317.053
317.336
317.493
317.564
317.711
317.761
317.954
317.868
317.682
317.724
317.59
317.215
316.826
316.639
316.205
315.91
315.525
309.71
309.849
310.107
310.285
310.428
310.535
310.565
310.652
310.686
310.78
310.73
310.626
310.692
310.584
310.367
310.13
310.008
309.738
309.55
309.332
303.281
303.308
303.371
303.43
303.501
303.539
303.533
303.583
303.561
303.633
303.589
303.573
303.608
303.541
303.476
303.385
303.333
303.257
303.195
303.119
348.996
349.728
350.645
351.623
352.379
353.046
353.414
353.682
354.012
354.002
354.114
353.69
353.336
352.858
352.046
351.114
350.335
349.075
348.26
346.794
342.526
343.175
343.95
344.759
345.477
346.022
346.364
346.658
346.904
346.915
347.04
346.671
346.358
345.963
345.212
344.409
343.755
342.615
341.934
340.691
336.104
336.586
337.282
337.89
338.559
338.963
339.266
339.574
339.766
339.823
339.865
339.585
339.338
338.966
338.343
337.638
337.154
336.159
335.585
334.548
329.589
329.965
330.573
330.999
331.578
331.925
332.146
332.418
332.583
332.688
332.679
332.413
332.266
331.906
331.446
330.855
330.437
329.678
329.216
328.369
323.039
323.297
323.825
324.103
324.55
324.841
325.064
325.243
325.387
325.505
325.435
325.244
325.097
324.862
324.528
324.066
323.681
323.137
322.757
322.159
316.505
316.666
317.002
317.216
317.544
317.754
317.926
317.999
318.13
318.288
318.168
318.03
317.946
317.81
317.578
317.236
316.941
316.549
316.302
315.901
309.919
310.036
310.202
310.29
310.534
310.628
310.766
310.796
310.884
310.997
310.895
310.807
310.801
310.694
310.583
310.406
310.195
309.906
309.811
309.56
303.314
303.38
303.432
303.445
303.531
303.562
303.631
303.609
303.651
303.668
303.645
303.613
303.622
303.577
303.547
303.479
303.431
303.323
303.29
303.219
350.308
351.041
352.123
352.982
354.203
354.797
354.986
355.423
355.72
355.72
355.609
355.198
354.864
354.404
353.681
352.733
351.942
350.769
349.776
348.331
343.636
344.274
345.179
345.956
347.039
347.553
347.714
348.089
348.342
348.37
348.22
347.9
347.595
347.244
346.615
345.76
345.089
344.104
343.219
342.034
336.984
337.451
338.245
338.909
339.847
340.283
340.412
340.732
340.968
340.997
340.815
340.522
340.281
340.09
339.513
338.736
338.233
337.432
336.663
335.677
330.26
330.631
331.315
331.859
332.655
332.98
333.112
333.354
333.578
333.616
333.44
333.167
333.029
332.833
332.346
331.698
331.346
330.712
330.083
329.259
323.532
323.854
324.361
324.798
325.402
325.672
325.793
325.956
326.139
326.197
326.056
325.822
325.743
325.562
325.172
324.706
324.428
323.919
323.436
322.822
316.838
317.06
317.461
317.708
318.134
318.363
318.493
318.512
318.674
318.72
318.63
318.46
318.442
318.249
317.985
317.702
317.481
317.106
316.816
316.341
310.102
310.279
310.522
310.639
310.892
311.031
311.135
311.08
311.228
311.236
311.206
311.1
311.071
310.946
310.835
310.648
310.523
310.276
310.128
309.844
303.379
303.448
303.542
303.556
303.647
303.672
303.752
303.72
303.756
303.754
303.74
303.713
303.728
303.667
303.638
303.566
303.529
303.437
303.398
303.3
351.687
352.664
353.618
354.669
355.694
356.187
356.775
357.244
357.562
357.463
357.399
356.964
356.46
356.185
355.407
354.658
353.582
352.308
351.394
350.02
344.82
345.695
346.467
347.376
348.257
348.72
349.253
349.664
349.959
349.897
349.814
349.399
348.973
348.738
348.065
347.439
346.522
345.41
344.629
343.493
337.908
338.696
339.36
340.093
340.842
341.24
341.71
342.057
342.371
342.291
342.205
341.8
341.479
341.314
340.749
340.208
339.413
338.476
337.813
336.914
331
331.701
332.202
332.798
333.43
333.74
334.163
334.472
334.724
334.666
334.602
334.224
333.952
333.856
333.39
332.933
332.241
331.525
330.959
330.313
324.144
324.705
325.053
325.538
326.016
326.252
326.615
326.88
327.061
327.009
326.959
326.631
326.396
326.359
325.999
325.648
325.065
324.558
324.083
323.63
317.222
317.691
317.917
318.279
318.582
318.782
319.07
319.204
319.402
319.353
319.259
319.041
318.877
318.868
318.61
318.365
317.939
317.54
317.211
316.906
310.324
310.621
310.793
310.977
311.164
311.299
311.469
311.531
311.657
311.629
311.584
311.482
311.393
311.341
311.213
311.04
310.791
310.525
310.348
310.153
303.466
303.568
303.633
303.7
303.742
303.792
303.813
303.878
303.925
303.89
303.9
303.852
303.821
303.81
303.755
303.692
303.619
303.527
303.461
303.413
353.085
354.214
355.183
356.477
357.422
357.884
358.619
358.887
359.247
359.342
359.407
358.975
358.694
357.958
357.077
356.159
355.195
354.071
353.117
351.816
346.019
347.007
347.871
348.965
349.797
350.151
350.845
351.11
351.407
351.45
351.525
351.183
350.931
350.295
349.526
348.741
347.943
346.944
346.133
345.013
338.993
339.778
340.565
341.44
342.15
342.405
343.024
343.3
343.559
343.593
343.638
343.37
343.164
342.607
341.972
341.324
340.669
339.807
339.108
338.153
331.961
332.533
333.204
333.871
334.493
334.705
335.23
335.476
335.667
335.691
335.733
335.548
335.367
334.919
334.401
333.856
333.284
332.607
332.029
331.261
324.862
325.255
325.836
326.369
326.832
327.002
327.43
327.667
327.763
327.763
327.82
327.711
327.566
327.189
326.828
326.331
325.912
325.406
324.925
324.398
317.76
317.998
318.436
318.85
319.152
319.275
319.62
319.815
319.881
319.862
319.893
319.842
319.75
319.44
319.192
318.811
318.502
318.173
317.823
317.477
310.641
310.807
311.074
311.32
311.486
311.563
311.8
311.921
311.941
311.952
311.951
311.928
311.879
311.695
311.552
311.301
311.114
310.907
310.7
310.504
303.55
303.619
303.699
303.788
303.85
303.873
303.945
303.995
303.999
303.998
304.009
304.006
303.981
303.931
303.879
303.774
303.734
303.651
303.572
303.522
354.652
355.899
356.883
358.029
358.88
359.704
360.426
360.84
360.89
361.035
360.951
360.673
360.337
359.7
358.796
357.863
356.689
355.761
354.46
353.213
347.37
348.474
349.288
350.332
351.054
351.778
352.419
352.735
352.841
352.899
352.881
352.638
352.347
351.758
351.025
350.202
349.18
348.402
347.216
346.219
340.093
341.026
341.725
342.578
343.192
343.846
344.367
344.627
344.764
344.82
344.816
344.566
344.355
343.829
343.199
342.53
341.689
341.022
339.963
339.193
332.846
333.578
334.136
334.836
335.369
335.91
336.338
336.539
336.693
336.714
336.705
336.479
336.355
335.86
335.357
334.795
334.16
333.681
332.722
332.12
325.55
326.103
326.564
327.1
327.512
327.953
328.309
328.447
328.566
328.611
328.583
328.409
328.369
327.862
327.524
327.091
326.59
326.271
325.473
324.998
318.294
318.626
318.982
319.369
319.665
319.968
320.256
320.373
320.417
320.48
320.473
320.316
320.315
319.927
319.669
319.378
319.019
318.791
318.224
317.881
310.955
311.162
311.43
311.578
311.825
311.96
312.204
312.255
312.278
312.342
312.303
312.225
312.22
311.975
311.843
311.655
311.437
311.272
310.968
310.729
303.678
303.723
303.824
303.867
303.973
304.012
304.106
304.116
304.112
304.154
304.119
304.097
304.09
304.017
303.974
303.916
303.835
303.771
303.691
303.59
356.125
357.284
358.423
359.855
360.442
361.268
361.894
362.239
362.655
362.797
362.565
362.522
362.006
361.279
360.351
359.316
358.377
357.475
356.065
354.741
348.678
349.676
350.656
351.927
352.393
353.151
353.637
353.938
354.343
354.497
354.203
354.273
353.808
353.191
352.399
351.49
350.683
349.891
348.679
347.503
341.198
342.074
342.91
343.914
344.317
345.062
345.398
345.648
346.023
346.127
345.86
345.944
345.569
345.063
344.384
343.649
342.997
342.255
341.299
340.236
333.728
334.463
335.145
335.923
336.271
336.918
337.182
337.345
337.716
337.725
337.518
337.604
337.337
336.896
336.368
335.75
335.283
334.6
333.88
332.971
326.235
326.846
327.362
327.938
328.199
328.763
328.992
329.068
329.343
329.359
329.194
329.267
329.079
328.728
328.307
327.825
327.524
326.996
326.443
325.719
318.732
319.185
319.586
320.003
320.128
320.543
320.724
320.848
321.012
320.971
320.852
320.902
320.773
320.511
320.253
319.889
319.706
319.315
318.918
318.431
311.232
311.526
311.775
311.995
312.081
312.324
312.479
312.543
312.657
312.612
312.534
312.54
312.503
312.306
312.201
311.946
311.83
311.554
311.352
311.096
303.752
303.865
303.954
304.028
304.045
304.126
304.198
304.191
304.259
304.221
304.178
304.206
304.211
304.116
304.105
304.007
303.959
303.875
303.798
303.716
357.681
358.84
360.024
361.101
362.159
362.796
363.658
364.039
364.399
364.369
364.316
364.109
363.675
362.963
361.974
361.046
359.994
358.989
357.491
356.016
350.004
351.007
352.037
352.974
353.89
354.469
355.176
355.528
355.861
355.85
355.805
355.596
355.247
354.627
353.744
352.993
352.067
351.243
349.876
348.643
342.351
343.159
344.065
344.868
345.604
346.109
346.723
347.005
347.3
347.292
347.287
347.112
346.793
346.286
345.531
344.869
344.103
343.416
342.309
341.219
334.644
335.347
336.106
336.761
337.287
337.726
338.249
338.443
338.741
338.752
338.764
338.595
338.308
337.918
337.246
336.736
336.12
335.569
334.708
333.743
326.99
327.518
328.069
328.628
329.002
329.354
329.77
329.872
330.164
330.176
330.147
330.074
329.864
329.492
328.972
328.636
328.122
327.645
327.078
326.277
319.306
319.664
320.004
320.481
320.681
320.977
321.315
321.334
321.589
321.584
321.524
321.499
321.366
321.041
320.671
320.531
320.122
319.729
319.37
318.794
311.648
311.808
311.994
312.315
312.409
312.602
312.837
312.798
313.011
312.954
312.917
312.897
312.851
312.657
312.4
312.349
312.071
311.858
311.67
311.319
303.907
303.945
304.011
304.112
304.165
304.238
304.315
304.302
304.355
304.333
304.32
304.339
304.306
304.231
304.133
304.151
304.053
303.979
303.918
303.79
358.96
360.245
361.425
362.506
363.513
364.407
365.209
365.446
366.027
365.891
365.801
365.604
365.152
364.473
363.497
362.466
361.473
360.401
358.706
357.485
351.153
352.227
353.214
354.198
355.011
355.839
356.534
356.767
357.349
357.189
357.062
356.952
356.533
355.98
355.109
354.208
353.279
352.41
350.963
349.913
343.309
344.194
345.037
345.911
346.549
347.249
347.86
348.109
348.597
348.477
348.292
348.22
347.855
347.395
346.718
345.953
345.093
344.405
343.191
342.309
335.444
336.166
336.921
337.607
338.087
338.658
339.206
339.398
339.843
339.729
339.585
339.478
339.177
338.837
338.217
337.67
336.892
336.357
335.368
334.66
327.572
328.085
328.753
329.258
329.652
330.111
330.534
330.659
331.044
330.928
330.8
330.719
330.501
330.224
329.757
329.345
328.692
328.321
327.542
326.981
319.676
320.02
320.581
320.926
321.188
321.529
321.852
321.936
322.245
322.135
322.025
321.955
321.82
321.627
321.26
320.966
320.481
320.264
319.721
319.322
311.832
312.023
312.394
312.547
312.747
312.934
313.113
313.18
313.323
313.302
313.243
313.25
313.119
312.996
312.747
312.6
312.269
312.177
311.881
311.642
303.977
304.03
304.198
304.229
304.301
304.326
304.384
304.421
304.466
304.457
304.427
304.456
304.396
304.369
304.253
304.215
304.108
304.07
303.991
303.905
360.092
361.351
362.539
363.89
364.669
365.902
366.471
366.986
367.469
367.397
367.296
367.217
366.464
365.76
365.064
363.898
362.787
361.718
360.12
358.98
352.14
353.173
354.193
355.447
356.07
357.165
357.641
358.073
358.517
358.465
358.367
358.328
357.641
357.054
356.454
355.401
354.487
353.567
352.242
351.206
344.151
344.966
345.921
346.965
347.468
348.387
348.765
349.147
349.59
349.527
349.413
349.393
348.836
348.364
347.799
346.894
346.134
345.375
344.265
343.394
336.174
336.778
337.653
338.386
338.851
339.561
339.892
340.255
340.62
340.558
340.437
340.439
339.998
339.605
339.099
338.408
337.762
337.136
336.264
335.601
328.138
328.605
329.347
329.82
330.207
330.768
331.05
331.312
331.633
331.609
331.458
331.48
331.134
330.779
330.404
329.906
329.379
328.877
328.252
327.753
320.074
320.421
321.014
321.304
321.594
321.998
322.197
322.415
322.621
322.638
322.465
322.475
322.253
321.991
321.751
321.381
320.986
320.618
320.2
319.859
312.068
312.268
312.629
312.785
312.994
313.189
313.329
313.495
313.577
313.619
313.491
313.48
313.38
313.177
313.064
312.843
312.58
312.354
312.201
311.932
304.079
304.113
304.21
304.279
304.376
304.428
304.462
304.515
304.566
304.584
304.509
304.526
304.501
304.421
304.376
304.317
304.202
304.14
304.107
303.999
361.238
362.399
363.793
365.262
366.216
367.064
367.763
368.406
368.69
368.707
368.842
368.538
367.869
367.094
366.178
365.302
364.055
362.839
361.542
359.853
353.102
354.071
355.298
356.62
357.382
358.142
358.732
359.28
359.552
359.574
359.701
359.502
358.88
358.161
357.423
356.634
355.574
354.552
353.368
351.96
344.972
345.742
346.786
347.956
348.55
349.177
349.724
350.207
350.395
350.403
350.565
350.381
349.856
349.229
348.628
347.956
347.111
346.206
345.15
344.058
336.787
337.394
338.307
339.225
339.725
340.244
340.667
341.086
341.226
341.228
341.4
341.264
340.848
340.284
339.791
339.253
338.603
337.89
336.971
336.108
328.604
329.071
329.84
330.495
330.88
331.331
331.601
331.968
332.027
332.025
332.24
332.129
331.843
331.312
330.95
330.576
330.068
329.504
328.783
328.133
320.433
320.772
321.368
321.789
322.055
322.424
322.591
322.84
322.882
322.827
323.062
322.964
322.806
322.372
322.102
321.874
321.485
321.071
320.565
320.113
312.277
312.474
312.836
313.094
313.228
313.482
313.591
313.699
313.717
313.7
313.854
313.798
313.732
313.407
313.27
313.137
312.914
312.664
312.369
312.115
304.09
304.2
304.323
304.398
304.433
304.516
304.547
304.593
304.589
304.586
304.632
304.634
304.602
304.507
304.444
304.407
304.331
304.242
304.163
304.056
362.208
363.23
365.004
366.434
367.279
368.151
368.893
369.545
369.863
370.047
370.198
369.744
369.104
368.485
367.478
366.324
365.302
363.991
362.584
360.923
353.929
354.8
356.349
357.625
358.321
359.11
359.734
360.271
360.577
360.716
360.883
360.503
359.977
359.368
358.491
357.519
356.639
355.525
354.318
352.905
345.658
346.392
347.699
348.789
349.347
350.065
350.587
350.994
351.231
351.445
351.537
351.233
350.823
350.258
349.518
348.696
347.94
347.037
346.064
344.849
337.393
337.93
339.065
339.944
340.44
340.99
341.453
341.76
341.922
342.141
342.198
341.943
341.671
341.125
340.531
339.871
339.256
338.492
337.782
336.776
329.069
329.471
330.421
331.128
331.474
331.892
332.295
332.55
332.634
332.821
332.844
332.645
332.462
332.017
331.504
331.031
330.552
329.933
329.412
328.676
320.785
321.09
321.763
322.312
322.486
322.782
323.113
323.288
323.366
323.484
323.479
323.298
323.239
322.878
322.492
322.171
321.824
321.417
321.027
320.531
312.484
312.681
313.09
313.44
313.528
313.723
313.919
313.979
314.031
314.133
314.097
314.005
313.986
313.713
313.524
313.339
313.129
312.855
312.644
312.338
304.203
304.268
304.374
304.525
304.54
304.612
304.657
304.691
304.715
304.754
304.738
304.711
304.684
304.612
304.536
304.48
304.396
304.293
304.241
304.13
363.348
364.449
366.155
367.441
368.341
369.305
370.157
370.483
370.847
371.241
371.332
370.934
370.429
369.726
368.645
367.586
366.433
365.191
363.714
361.987
354.932
355.818
357.352
358.435
359.213
360.062
360.82
361.096
361.391
361.821
361.849
361.55
361.118
360.485
359.582
358.658
357.674
356.563
355.354
353.838
346.505
347.245
348.539
349.407
350.154
350.859
351.502
351.706
351.981
352.345
352.345
352.144
351.762
351.21
350.472
349.658
348.877
347.91
346.919
345.611
338.077
338.67
339.707
340.456
341.101
341.606
342.189
342.313
342.545
342.842
342.862
342.713
342.409
341.938
341.316
340.625
340.041
339.224
338.394
337.39
329.65
330.063
330.895
331.513
332.017
332.422
332.846
332.912
333.143
333.324
333.355
333.215
333.059
332.667
332.137
331.622
331.186
330.533
329.85
329.122
321.181
321.462
322.067
322.514
322.903
323.21
323.508
323.497
323.677
323.804
323.822
323.747
323.656
323.38
322.977
322.627
322.31
321.856
321.335
320.79
312.695
312.88
313.279
313.505
313.758
313.977
314.123
314.124
314.194
314.288
314.282
314.228
314.253
314.031
313.808
313.59
313.439
313.15
312.799
312.511
304.254
304.315
304.452
304.533
304.618
304.695
304.742
304.737
304.765
304.781
304.787
304.764
304.768
304.683
304.636
304.561
304.52
304.403
304.278
304.186
364.116
365.349
366.921
368.478
369.365
370.437
370.968
371.529
372.108
372.231
372.225
372.114
371.531
370.534
369.699
368.556
367.252
365.939
364.547
363.013
355.618
356.619
358.035
359.342
360.146
361.064
361.485
362.045
362.522
362.652
362.674
362.617
362.065
361.171
360.459
359.473
358.308
357.202
356.021
354.667
347.066
347.9
349.113
350.209
350.924
351.708
352.036
352.539
352.959
353.075
353.112
353.049
352.556
351.813
351.193
350.393
349.361
348.468
347.449
346.337
338.562
339.217
340.162
341.11
341.701
342.308
342.588
343.023
343.327
343.416
343.487
343.46
343.01
342.461
341.901
341.275
340.416
339.707
338.856
337.943
330.054
330.569
331.228
331.996
332.461
332.932
333.147
333.452
333.674
333.816
333.881
333.86
333.478
333.094
332.615
332.129
331.459
330.969
330.234
329.539
321.537
321.868
322.363
322.893
323.181
323.555
323.697
323.844
324.046
324.164
324.241
324.233
323.927
323.694
323.298
322.954
322.493
322.131
321.597
321.101
312.974
313.144
313.442
313.739
313.945
314.121
314.225
314.311
314.424
314.522
314.576
314.562
314.376
314.251
313.987
313.796
313.529
313.27
312.966
312.688
304.323
304.389
304.506
304.602
304.659
304.743
304.766
304.795
304.825
304.881
304.884
304.878
304.804
304.786
304.687
304.619
304.546
304.437
304.351
304.249
364.905
366.228
367.742
369.225
370.161
371.351
372.084
372.51
372.987
373.184
373.032
372.701
372.336
371.407
370.672
369.585
368.285
366.962
365.336
363.939
356.245
357.393
358.727
359.995
360.808
361.858
362.478
362.878
363.293
363.465
363.321
363.06
362.762
361.957
361.268
360.342
359.206
358.083
356.657
355.501
347.577
348.566
349.655
350.744
351.432
352.371
352.848
353.228
353.602
353.744
353.611
353.412
353.167
352.511
351.903
351.097
350.154
349.161
347.989
347.026
338.921
339.754
340.583
341.497
342.076
342.845
343.249
343.552
343.882
344.022
343.855
343.736
343.535
343.015
342.532
341.891
341.103
340.239
339.332
338.541
330.278
330.958
331.566
332.311
332.771
333.3
333.646
333.896
334.153
334.297
334.119
334.045
333.903
333.46
333.107
332.59
331.996
331.321
330.645
330.001
321.633
322.121
322.603
323.123
323.425
323.782
324.051
324.202
324.446
324.532
324.41
324.305
324.288
323.919
323.693
323.299
322.89
322.426
321.922
321.439
312.968
313.265
313.599
313.879
314.068
314.287
314.44
314.558
314.687
314.742
314.654
314.577
314.622
314.373
314.258
313.988
313.772
313.47
313.188
312.864
304.355
304.439
304.554
304.659
304.723
304.776
304.828
304.87
304.914
304.936
304.9
304.899
304.916
304.802
304.786
304.7
304.614
304.52
304.423
304.298
365.402
366.822
368.357
369.77
370.861
371.95
372.84
373.218
373.614
373.965
373.551
373.373
373.11
372.434
371.511
370.171
368.973
367.532
365.991
364.627
356.703
357.924
359.227
360.453
361.423
362.348
363.105
363.515
363.805
364.201
363.786
363.638
363.432
362.821
362.002
360.831
359.837
358.564
357.242
356.127
348.011
349.041
350.108
351.133
352.016
352.808
353.411
353.814
353.997
354.392
353.998
353.859
353.739
353.212
352.445
351.523
350.695
349.585
348.444
347.608
339.315
340.118
341.004
341.818
342.537
343.228
343.699
344.028
344.223
344.55
344.185
344.108
344.046
343.565
342.886
342.148
341.495
340.608
339.704
339.042
330.622
331.215
331.866
332.537
333.055
333.691
334.001
334.225
334.452
334.699
334.333
334.329
334.283
333.904
333.355
332.791
332.32
331.65
330.904
330.411
321.889
322.328
322.783
323.231
323.596
324.111
324.322
324.441
324.638
324.826
324.513
324.557
324.476
324.203
323.837
323.45
323.11
322.65
322.086
321.75
313.152
313.409
313.688
313.94
314.18
314.506
314.594
314.703
314.785
314.941
314.735
314.768
314.678
314.512
314.323
314.101
313.908
313.614
313.272
313.06
304.409
304.5
304.584
304.672
304.761
304.871
304.883
304.95
304.951
305.009
304.938
304.945
304.907
304.849
304.799
304.726
304.663
304.563
304.448
304.358
365.967
367.366
368.866
370.079
371.605
372.54
373.303
373.832
374.28
374.516
374.165
374.088
373.626
372.98
372.217
371.022
369.801
368.238
366.498
365.113
357.247
358.368
359.723
360.714
362.053
362.909
363.574
364.042
364.48
364.632
364.32
364.227
363.864
363.309
362.643
361.62
360.565
359.21
357.701
356.554
348.506
349.377
350.503
351.352
352.489
353.27
353.812
354.267
354.615
354.726
354.473
354.367
354.081
353.663
353.033
352.174
351.295
350.115
348.865
347.924
339.715
340.389
341.326
341.999
342.973
343.605
344.047
344.455
344.761
344.775
344.59
344.486
344.276
343.937
343.35
342.702
342.018
340.981
340.008
339.235
330.915
331.414
332.171
332.677
333.429
333.93
334.24
334.635
334.902
334.817
334.721
334.582
334.461
334.182
333.727
333.184
332.725
331.863
331.128
330.541
322.142
322.469
322.999
323.356
323.908
324.212
324.424
324.788
324.92
324.876
324.815
324.662
324.664
324.422
324.102
323.664
323.43
322.795
322.252
321.827
313.328
313.506
313.822
314.003
314.381
314.578
314.658
314.893
314.977
314.966
314.912
314.78
314.837
314.658
314.498
314.173
314.094
313.641
313.358
313.134
304.497
304.51
304.629
304.679
304.81
304.882
304.92
305.001
305.01
305.02
305.007
304.958
304.976
304.922
304.861
304.717
304.751
304.573
304.481
304.403
366.31
368.038
369.294
370.649
371.99
373.16
373.904
374.285
374.758
375.132
374.917
374.619
374.032
373.343
372.613
371.522
370.164
368.73
366.954
365.572
357.482
359.011
360.077
361.227
362.387
363.458
364.061
364.402
364.809
365.155
364.942
364.691
364.224
363.634
362.97
362.024
360.89
359.604
358.054
356.914
348.687
349.999
350.887
351.822
352.79
353.722
354.27
354.492
354.871
355.187
354.977
354.749
354.381
353.892
353.345
352.473
351.545
350.473
349.185
348.24
339.843
340.978
341.646
342.387
343.202
343.939
344.427
344.602
344.917
345.174
345.022
344.81
344.569
344.119
343.689
342.946
342.175
341.296
340.279
339.523
331.012
331.926
332.414
332.949
333.586
334.146
334.598
334.704
334.953
335.16
335.056
334.841
334.728
334.344
334.021
333.421
332.792
332.143
331.354
330.762
322.179
322.83
323.17
323.56
323.981
324.376
324.731
324.8
325.028
325.144
325.064
324.895
324.866
324.553
324.319
323.87
323.396
322.956
322.376
321.991
313.339
313.724
313.91
314.172
314.418
314.615
314.848
314.912
315.065
315.124
315.062
314.958
314.924
314.799
314.625
314.335
314.028
313.791
313.455
313.196
304.48
304.588
304.659
304.782
304.841
304.893
304.97
305
305.038
305.093
305.057
305.003
305.004
304.968
304.911
304.811
304.708
304.612
304.511
304.413
366.707
368.039
369.679
370.943
372.444
373.283
374.28
374.845
375.061
375.384
375.238
374.925
374.432
373.719
372.882
371.726
370.574
369.134
367.201
366.124
357.903
358.958
360.384
361.462
362.782
363.545
364.399
364.824
365.025
365.375
365.2
365
364.532
363.935
363.252
362.21
361.204
359.97
358.281
357.44
349.009
349.917
351.077
351.958
353.095
353.781
354.524
354.865
355.061
355.352
355.167
355.055
354.692
354.141
353.547
352.694
351.818
350.739
349.332
348.702
340.115
340.899
341.782
342.472
343.421
344.014
344.622
344.934
345.075
345.309
345.145
345.083
344.815
344.312
343.873
343.151
342.389
341.518
340.36
339.911
331.214
331.855
332.46
333.037
333.776
334.206
334.729
334.973
335.108
335.244
335.138
335.095
334.92
334.456
334.157
333.551
332.94
332.324
331.447
331.073
322.314
322.773
323.217
323.609
324.139
324.457
324.816
324.977
325.092
325.186
325.141
325.107
324.963
324.593
324.46
323.972
323.512
323.141
322.529
322.226
313.359
313.692
313.96
314.185
314.504
314.699
314.896
314.997
315.082
315.139
315.129
315.057
314.994
314.749
314.727
314.419
314.097
313.93
313.536
313.363
304.501
304.586
304.697
304.749
304.853
304.934
304.981
305.038
305.065
305.087
305.063
305.076
305.009
304.937
304.939
304.826
304.71
304.686
304.538
304.476
366.925
368.222
369.767
371.214
372.535
373.533
374.563
375.177
375.496
375.639
375.405
375.286
374.758
374.094
373.247
371.956
370.797
369.272
367.533
366.311
358.068
359.15
360.51
361.735
362.903
363.71
364.612
365.171
365.431
365.62
365.354
365.266
364.825
364.232
363.509
362.376
361.419
360.08
358.59
357.548
349.158
350.054
351.183
352.23
353.198
353.901
354.707
355.205
355.358
355.535
355.327
355.23
354.859
354.348
353.754
352.772
352.021
350.837
349.599
348.747
340.208
340.939
341.884
342.729
343.534
344.135
344.764
345.193
345.25
345.45
345.295
345.198
344.914
344.42
344.03
343.189
342.587
341.599
340.556
339.899
331.286
331.848
332.618
333.252
333.879
334.354
334.863
335.191
335.205
335.34
335.259
335.162
334.904
334.524
334.293
333.595
333.129
332.355
331.566
331.077
322.374
322.792
323.302
323.738
324.203
324.61
324.941
325.196
325.185
325.268
325.193
325.165
324.906
324.662
324.534
324.016
323.665
323.12
322.57
322.263
313.472
313.683
313.998
314.242
314.524
314.829
315.013
315.169
315.166
315.202
315.122
315.118
314.972
314.787
314.779
314.408
314.243
313.881
313.571
313.411
304.519
304.603
304.699
304.752
304.873
304.973
305.01
305.096
305.095
305.12
305.066
305.056
305.02
304.958
304.929
304.846
304.781
304.658
304.564
304.517
)
;

boundaryField
{
    hotSide
    {
        type            fixedGradient;
        gradient        nonuniform List<scalar> 
400
(
492.346
510.515
528.346
545.759
562.674
579.012
594.696
609.647
623.793
637.062
649.386
660.702
670.949
680.075
688.03
694.773
700.267
704.483
707.399
708.999
504.077
522.784
541.148
559.087
576.52
593.365
609.542
624.97
639.575
653.282
666.021
677.726
688.336
697.795
706.053
713.066
718.797
723.214
726.295
728.024
514.422
533.617
552.467
570.887
588.794
606.102
622.73
638.597
653.623
667.733
680.855
692.921
703.868
713.638
722.179
729.446
735.4
740.009
743.249
745.104
523.328
542.961
562.245
581.096
599.427
617.153
634.188
650.45
665.858
680.334
693.804
706.198
717.453
727.507
736.309
743.811
749.973
754.762
758.153
760.129
530.757
550.771
570.436
589.665
608.369
626.462
643.856
660.468
676.214
691.014
704.795
717.483
729.013
739.324
748.361
756.077
762.429
767.384
770.917
773.009
536.681
557.019
577.007
596.558
615.582
633.989
651.692
668.604
684.641
699.724
713.773
726.717
738.489
749.025
758.271
766.176
772.699
777.806
781.468
783.668
541.084
561.685
581.938
601.753
621.038
639.705
657.663
674.825
691.106
706.423
720.699
733.859
745.835
756.564
765.988
774.058
780.731
785.97
789.749
792.048
543.96
564.763
585.219
605.237
624.726
643.594
661.752
679.111
695.584
711.089
725.546
738.88
751.022
761.908
771.48
779.687
786.486
791.839
795.72
798.108
545.311
566.252
586.849
607.009
626.641
645.653
663.953
681.454
698.067
713.709
728.3
741.765
754.033
765.04
774.727
783.042
789.942
795.389
799.355
801.821
545.148
566.163
586.837
607.076
626.79
645.885
664.27
681.856
698.556
714.284
728.962
742.512
754.864
765.954
775.721
784.114
791.089
796.608
800.643
803.173
543.489
564.513
585.199
605.454
625.187
644.305
662.716
680.331
697.062
712.825
727.54
741.13
753.524
764.657
774.469
782.91
789.933
795.502
799.587
802.167
540.358
561.326
581.959
602.167
621.856
640.935
659.313
676.899
693.608
709.353
724.055
737.638
750.031
761.168
770.99
779.446
786.49
792.085
796.201
798.817
535.783
556.63
577.147
597.244
616.828
635.807
654.092
671.593
688.223
703.899
718.539
732.068
744.416
755.518
765.314
773.753
780.789
786.386
790.514
793.153
529.799
550.461
570.799
590.722
610.139
628.959
647.093
664.451
680.949
696.502
711.031
724.461
736.721
747.748
757.482
765.872
772.873
778.448
782.569
785.213
522.446
542.86
562.956
582.644
601.834
620.435
638.36
655.521
671.833
687.212
701.582
714.866
726.997
737.909
747.546
755.855
762.793
768.324
772.417
775.053
513.768
533.875
553.668
573.061
591.964
610.29
627.95
644.859
660.932
676.089
690.251
703.346
715.305
726.065
735.57
743.768
750.616
756.078
760.126
762.738
503.816
523.556
542.989
562.029
580.589
598.583
615.925
632.529
648.313
663.199
677.109
689.971
701.719
712.291
721.63
729.687
736.419
741.79
745.774
748.348
492.647
511.963
530.979
549.611
567.775
585.384
602.355
618.605
634.053
648.621
662.235
674.824
686.323
696.671
705.813
713.7
720.291
725.551
729.452
731.975
480.322
499.161
517.708
535.881
553.596
570.77
587.322
603.17
618.236
632.444
645.721
657.998
669.212
679.303
688.217
695.908
702.335
707.464
711.267
713.726
466.91
485.223
503.252
520.916
538.134
554.827
570.914
586.316
600.958
614.765
627.667
639.597
650.492
660.296
668.955
676.425
682.666
687.645
691.335
693.719
)
;
    }
    coldSide
    {
        type            mixed;
        refValue        uniform 300;
        refGradient     uniform 0;
        valueFraction   uniform 0.991591;
        source          uniform 0;
        value           nonuniform List<scalar> 
400
(
300.028
300.028
300.028
300.029
300.03
300.031
300.032
300.033
300.033
300.034
300.034
300.035
300.036
300.036
300.037
300.037
300.038
300.038
300.038
300.038
300.028
300.028
300.029
300.03
300.03
300.031
300.032
300.033
300.034
300.035
300.035
300.036
300.036
300.037
300.037
300.038
300.038
300.039