/*--------------------------------*- C++ -*----------------------------------*\
| =========                 |                                                 |
| \\      /  F ield         | OpenFOAM: The Open Source CFD Toolbox           |
|  \\    /   O peration     | Version:  2212                                  |
|   \\  /    A nd           | Website:  www.openfoam.com                      |
|    \\/     M anipulation  |                                                 |
\*---------------------------------------------------------------------------*/
FoamFile
{
    version     2.0;
    format      ascii;
    arch        "LSB;label=32;scalar=64";
    class       volScalarField;
    location    "0";
    object      T;
}
// * * * * * * * * * * * * * * * * * * * * * * * * * * * * * * * * * * * * * //

dimensions      [0 0 0 1 0 0 0];

internalField   nonuniform List<scalar> 
3200
(
319.642
319.189
318.793
318.532
318.759
318.943
319.441
319.75
320.101
320.298
320.484
320.542
320.553
320.339
320.263
320.422
320.329
320.579
321.233
321.864
316.901
316.524
316.185
315.959
316.145
316.303
316.751
316.998
317.307
317.486
317.61
317.72
317.711
317.511
317.442
317.592
317.513
317.69
318.264
318.774
314.206
313.893
313.611
313.435
313.578
313.7
314.101
314.293
314.562
314.731
314.807
314.938
314.914
314.737
314.659
314.823
314.735
314.865
315.349
315.749
311.567
311.32
311.083
310.936
311.07
311.146
311.507
311.648
311.867
312.018
312.06
312.175
312.147
311.988
311.929
312.071
312.006
312.101
312.512
312.824
308.957
308.773
308.591
308.483
308.583
308.633
308.959
309.02
309.206
309.35
309.361
309.436
309.411
309.294
309.237
309.369
309.31
309.387
309.702
309.967
306.384
306.264
306.117
306.045
306.107
306.158
306.407
306.414
306.563
306.653
306.691
306.719
306.694
306.643
306.595
306.667
306.64
306.712
306.918
307.14
303.83
303.761
303.667
303.637
303.647
303.693
303.842
303.842
303.948
303.999
304.039
304.013
304.012
303.991
303.96
303.992
303.987
304.055
304.155
304.287
301.279
301.259
301.23
301.218
301.226
301.239
301.288
301.276
301.322
301.336
301.364
301.342
301.35
301.338
301.332
301.34
301.345
301.375
301.39
301.431
319.576
319.226
318.834
318.658
318.839
319.216
319.586
319.805
320.306
320.525
320.719
320.831
320.813
320.599
320.46
320.504
320.345
320.594
321.298
321.919
316.836
316.542
316.242
316.087
316.224
316.558
316.868
317.051
317.478
317.678
317.808
317.931
317.937
317.733
317.616
317.657
317.495
317.703
318.321
318.831
314.156
313.906
313.669
313.543
313.671
313.935
314.193
314.349
314.707
314.89
314.98
315.07
315.095
314.922
314.806
314.867
314.714
314.868
315.402
315.815
311.536
311.341
311.115
311.027
311.151
311.353
311.58
311.689
311.986
312.158
312.209
312.257
312.29
312.146
312.042
312.149
311.984
312.108
312.551
312.863
308.963
308.817
308.59
308.526
308.653
308.788
308.987
309.058
309.332
309.456
309.461
309.511
309.527
309.418
309.325
309.427
309.278
309.404
309.717
309.958
306.383
306.296
306.119
306.062
306.173
306.248
306.414
306.451
306.654
306.752
306.747
306.79
306.776
306.73
306.648
306.723
306.604
306.719
306.927
307.093
303.823
303.769
303.68
303.626
303.714
303.748
303.839
303.859
303.98
304.053
304.052
304.073
304.064
304.031
304
304.041
303.961
304.045
304.151
304.244
301.279
301.253
301.237
301.209
301.247
301.258
301.279
301.288
301.339
301.358
301.36
301.362
301.36
301.345
301.338
301.356
301.33
301.357
301.386
301.411
319.809
319.364
319.009
318.821
319.093
319.485
319.777
320.272
320.576
320.887
321.153
321.183
321.149
321.03
320.896
320.707
320.653
320.873
321.372
322.078
317.039
316.684
316.396
316.213
316.452
316.817
317.024
317.463
317.714
317.995
318.197
318.217
318.218
318.12
317.988
317.822
317.76
317.957
318.403
318.982
314.311
314.047
313.808
313.668
313.872
314.163
314.316
314.711
314.905
315.146
315.294
315.321
315.331
315.249
315.139
315.03
314.923
315.101
315.481
315.969
311.64
311.467
311.259
311.147
311.322
311.542
311.647
311.997
312.124
312.344
312.44
312.474
312.483
312.39
312.326
312.262
312.161
312.289
312.605
312.992
309.007
308.87
308.733
308.646
308.79
308.948
309.03
309.296
309.384
309.549
309.631
309.669
309.667
309.595
309.543
309.534
309.407
309.52
309.745
310.066
306.401
306.309
306.224
306.18
306.282
306.381
306.418
306.639
306.679
306.791
306.87
306.89
306.87
306.825
306.816
306.838
306.68
306.792
306.945
307.185
303.835
303.771
303.742
303.712
303.768
303.817
303.85
303.985
303.986
304.07
304.124
304.127
304.113
304.092
304.084
304.127
304.005
304.075
304.164
304.308
301.289
301.27
301.257
301.246
301.257
301.286
301.292
301.336
301.338
301.357
301.385
301.374
301.364
301.375
301.364
301.382
301.341
301.357
301.391
301.438
320.214
319.571
319.263
319.065
319.359
319.753
320.085
320.644
321.146
321.327
321.514
321.583
321.751
321.546
321.283
321.113
320.936
321.298
321.725
322.362
317.385
316.843
316.566
316.411
316.682
316.994
317.31
317.796
318.232
318.359
318.497
318.565
318.739
318.532
318.318
318.18
317.99
318.331
318.66
319.188
314.607
314.157
313.922
313.816
314.051
314.312
314.571
314.981
315.348
315.447
315.549
315.604
315.78
315.596
315.42
315.294
315.094
315.408
315.683
316.107
311.86
311.539
311.319
311.264
311.452
311.68
311.88
312.206
312.497
312.584
312.647
312.69
312.852
312.722
312.564
312.453
312.267
312.525
312.742
313.092
309.195
308.96
308.784
308.731
308.877
309.059
309.217
309.474
309.696
309.759
309.807
309.806
309.958
309.89
309.738
309.642
309.5
309.68
309.845
310.121
306.539
306.403
306.27
306.226
306.307
306.453
306.582
306.765
306.926
306.947
306.987
306.975
307.09
307.073
306.96
306.873
306.768
306.895
307.002
307.204
303.919
303.848
303.782
303.739
303.764
303.876
303.958
304.064
304.152
304.169
304.192
304.171
304.261
304.262
304.181
304.122
304.05
304.137
304.191
304.317
301.302
301.286
301.273
301.249
301.246
301.287
301.325
301.365
301.39
301.397
301.412
301.396
301.436
301.438
301.398
301.374
301.36
301.386
301.396
301.443
320.554
320.053
319.65
319.561
319.691
320.231
320.443
321.051
321.572
321.883
322.123
322.144
322.244
322.069
321.745
321.575
321.475
321.738
322.068
322.803
317.651
317.282
316.938
316.863
316.959
317.433
317.618
318.117
318.575
318.849
319.038
319.07
319.162
319.006
318.735
318.549
318.454
318.7
318.933
319.576
314.849
314.547
314.309
314.215
314.282
314.677
314.84
315.212
315.644
315.861
315.996
316.051
316.124
316.011
315.766
315.611
315.495
315.728
315.896
316.436
312.118
311.854
311.689
311.627
311.639
311.964
312.113
312.379
312.741
312.919
313.005
313.061
313.124
313.077
312.838
312.706
312.619
312.792
312.936
313.362
309.417
309.189
309.083
309.038
309.019
309.27
309.415
309.574
309.876
310.042
310.082
310.109
310.158
310.158
309.944
309.839
309.784
309.896
310.01
310.329
306.725
306.537
306.453
306.441
306.43
306.628
306.713
306.799
307.046
307.154
307.18
307.188
307.247
307.237
307.084
307.018
306.987
307.042
307.141
307.352
304.053
303.926
303.867
303.855
303.844
303.992
304.017
304.061
304.216
304.279
304.291
304.289
304.333
304.329
304.257
304.215
304.17
304.227
304.277
304.401
301.362
301.325
301.293
301.275
301.279
301.338
301.338
301.359
301.409
301.438
301.428
301.434
301.445
301.445
301.426
301.42
301.385
301.409
301.44
301.472
320.998
320.514
320.087
320.07
320.21
320.807
321.132
321.537
321.953
322.535
322.633
322.775
322.734
322.637
322.405
322.32
322.085
322.316
322.664
323.413
318.075
317.684
317.298
317.28
317.396
317.924
318.182
318.531
318.906
319.398
319.469
319.597
319.546
319.518
319.281
319.211
318.992
319.205
319.476
320.119
315.189
314.893
314.566
314.56
314.639
315.086
315.307
315.558
315.929
316.328
316.375
316.485
316.416
316.444
316.218
316.166
315.97
316.157
316.348
316.922
312.366
312.14
311.864
311.902
311.931
312.277
312.47
312.64
312.998
313.305
313.335
313.428
313.369
313.401
313.204
313.171
312.997
313.136
313.293
313.755
309.574
309.423
309.196
309.259
309.268
309.511
309.669
309.786
310.086
310.302
310.337
310.415
310.369
310.396
310.216
310.198
310.098
310.186
310.285
310.634
306.815
306.721
306.554
306.612
306.611
306.785
306.874
306.964
307.202
307.338
307.351
307.416
307.378
307.414
307.274
307.264
307.234
307.258
307.307
307.559
304.099
304.038
303.937
303.957
303.981
304.07
304.119
304.163
304.32
304.39
304.399
304.434
304.41
304.448
304.365
304.35
304.347
304.353
304.387
304.51
301.372
301.353
301.315
301.32
301.335
301.356
301.378
301.397
301.439
301.463
301.474
301.486
301.47
301.499
301.458
301.46
301.458
301.465
301.469
301.506
321.632
321.029
320.638
320.701
320.882
321.208
321.656
322.109
322.596
323.135
323.309
323.472
323.399
323.335
323.078
322.909
322.796
322.998
323.45
324.062
318.605
318.1
317.797
317.823
317.997
318.296
318.647
319.03
319.447
319.945
320.077
320.211
320.127
320.08
319.868
319.717
319.63
319.783
320.15
320.662
315.644
315.217
314.976
315.01
315.159
315.411
315.697
316.01
316.363
316.805
316.885
316.986
316.94
316.898
316.695
316.583
316.514
316.648
316.928
317.361
312.715
312.406
312.19
312.232
312.33
312.546
312.78
313.044
313.355
313.727
313.752
313.817
313.764
313.775
313.579
313.51
313.449
313.553
313.789
314.123
309.845
309.615
309.431
309.526
309.547
309.698
309.914
310.108
310.358
310.659
310.675
310.688
310.627
310.703
310.54
310.475
310.41
310.518
310.705
310.929
307.009
306.851
306.699
306.812
306.823
306.889
307.066
307.212
307.392
307.619
307.626
307.604
307.575
307.655
307.534
307.473
307.427
307.488
307.632
307.773
304.203
304.112
304
304.088
304.115
304.122
304.24
304.332
304.445
304.575
304.58
304.572
304.544
304.606
304.544
304.498
304.446
304.473
304.564
304.64
301.399
301.367
301.343
301.354
301.394
301.37
301.416
301.45
301.492
301.524
301.536
301.535
301.521
301.549
301.529
301.512
301.488
301.487
301.531
301.541
322.191
321.6
321.311
321.356
321.521
321.845
322.289
322.681
323.314
323.708
324.034
323.958
323.945
323.992
323.76
323.627
323.596
323.747
324.133
324.744
319.093
318.588
318.367
318.387
318.545
318.81
319.176
319.532
320.064
320.438
320.683
320.626
320.588
320.664
320.462
320.347
320.311
320.434
320.742
321.272
316.055
315.645
315.467
315.481
315.627
315.816
316.149
316.441
316.885
317.226
317.398
317.353
317.317
317.428
317.242
317.103
317.078
317.185
317.443
317.88
313.07
312.733
312.609
312.614
312.718
312.865
313.163
313.387
313.761
314.058
314.161
314.139
314.113
314.227
314.06
313.923
313.903
313.986
314.203
314.547
310.116
309.85
309.784
309.791
309.864
309.945
310.21
310.389
310.678
310.922
310.976
310.963
310.931
311.047
310.913
310.794
310.776
310.82
310.998
311.24
307.198
307.026
306.974
306.982
307.029
307.078
307.266
307.423
307.619
307.795
307.833
307.812
307.781
307.896
307.773
307.689
307.648
307.713
307.836
308.017
304.309
304.207
304.176
304.196
304.22
304.248
304.349
304.464
304.588
304.672
304.696
304.678
304.659
304.75
304.67
304.607
304.577
304.616
304.699
304.822
301.452
301.403
301.4
301.397
301.417
301.419
301.462
301.488
301.542
301.576
301.57
301.565
301.565
301.594
301.564
301.54
301.532
301.535
301.572
301.618
322.759
322.332
322.09
321.993
322.135
322.484
322.895
323.37
323.988
324.295
324.536
324.603
324.62
324.671
324.428
324.398
324.333
324.482
324.721
325.51
319.595
319.233
319.051
318.95
319.101
319.368
319.733
320.118
320.667
320.919
321.109
321.179
321.187
321.265
321.036
321.009
320.919
321.063
321.24
321.937
316.48
316.175
316.033
315.942
316.107
316.283
316.627
316.942
317.395
317.603
317.738
317.817
317.827
317.934
317.726
317.682
317.592
317.727
317.846
318.421
313.414
313.16
313.048
312.988
313.153
313.269
313.555
313.824
314.158
314.371
314.431
314.511
314.516
314.623
314.451
314.406
314.326
314.464
314.531
314.98
310.424
310.198
310.111
310.082
310.222
310.311
310.533
310.732
310.999
311.152
311.183
311.229
311.256
311.343
311.203
311.163
311.1
311.209
311.259
311.592
307.45
307.263
307.213
307.194
307.299
307.37
307.529
307.66
307.833
307.962
307.969
307.996
308.02
308.096
307.983
307.964
307.9
307.997
308.017
308.27
304.481
304.351
304.344
304.316
304.385
304.418
304.507
304.612
304.692
304.782
304.793
304.805
304.81
304.887
304.794
304.798
304.738
304.793
304.816
304.956
301.513
301.462
301.465
301.451
301.467
301.485
301.503
301.545
301.562
301.608
301.609
301.607
301.612
301.637
301.616
301.613
301.591
301.594
301.606
301.656
323.577
323.053
322.849
322.689
322.871
323.106
323.623
324.024
324.547
324.913
325.205
325.343
325.39
325.327
325.152
325.147
325.091
325.283
325.563
326.087
320.281
319.897
319.698
319.535
319.732
319.893
320.359
320.685
321.142
321.449
321.696
321.804
321.845
321.802
321.634
321.633
321.586
321.736
321.958
322.384
317.055
316.734
316.588
316.432
316.649
316.751
317.155
317.411
317.812
318.032
318.227
318.326
318.355
318.329
318.2
318.206
318.16
318.248
318.452
318.798
313.881
313.612
313.52
313.384
313.603
313.668
313.978
314.208
314.518
314.671
314.834
314.924
314.934
314.92
314.829
314.83
314.785
314.854
315.017
315.291
310.749
310.554
310.499
310.392
310.556
310.608
310.843
311.043
311.272
311.36
311.485
311.561
311.573
311.566
311.506
311.497
311.458
311.505
311.63
311.833
307.648
307.501
307.502
307.41
307.523
307.573
307.73
307.891
308.06
308.109
308.167
308.237
308.239
308.235
308.216
308.192
308.179
308.188
308.297
308.423
304.586
304.486
304.504
304.442
304.509
304.544
304.651
304.735
304.846
304.878
304.891
304.949
304.946
304.916
304.931
304.92
304.916
304.889
304.997
305.067
301.541
301.504
301.513
301.487
301.507
301.516
301.552
301.582
301.615
301.648
301.636
301.651
301.656
301.647
301.655
301.642
301.642
301.64
301.676
301.71
324.224
323.853
323.619
323.393
323.499
323.796
324.293
324.645
325.282
325.63
325.887
326.032
326.051
326.017
325.881
325.941
325.89
325.97
326.451
326.903
320.856
320.556
320.352
320.156
320.258
320.515
320.929
321.24
321.77
322.06
322.281
322.39
322.438
322.397
322.291
322.334
322.276
322.308
322.728
323.08
317.542
317.287
317.11
316.986
317.067
317.289
317.622
317.88
318.335
318.577
318.751
318.809
318.876
318.852
318.777
318.809
318.743
318.737
319.073
319.354
314.298
314.088
313.929
313.831
313.908
314.104
314.377
314.591
314.95
315.146
315.278
315.328
315.368
315.365
315.311
315.337
315.268
315.242
315.5
315.743
311.072
310.931
310.788
310.709
310.779
310.947
311.15
311.342
311.589
311.763
311.839
311.894
311.888
311.886
311.851
311.903
311.842
311.788
311.974
312.18
307.889
307.79
307.701
307.623
307.67
307.796
307.929
308.087
308.233
308.395
308.427
308.474
308.466
308.464
308.423
308.484
308.445
308.376
308.512
308.65
304.729
304.681
304.605
304.568
304.591
304.673
304.74
304.841
304.93
305.039
305.047
305.08
305.069
305.065
305.042
305.098
305.057
305.002
305.091
305.19
301.584
301.568
301.531
301.529
301.529
301.565
301.581
301.622
301.647
301.685
301.689
301.706
301.693
301.7
301.679
301.709
301.703
301.672
301.7
301.744
324.973
324.451
324.248
324.188
324.299
324.555
324.967
325.348
325.859
326.314
326.467
326.681
326.642
326.636
326.57
326.579
326.604
326.844
327.158
327.625
321.484
321.054
320.915
320.841
320.928
321.173
321.529
321.812
322.297
322.677
322.791
322.984
322.927
322.923
322.867
322.872
322.883
323.088
323.334
323.712
318.068
317.712
317.604
317.548
317.609
317.825
318.143
318.336
318.78
319.097
319.22
319.333
319.297
319.283
319.23
319.257
319.243
319.415
319.61
319.886
314.729
314.413
314.329
314.29
314.349
314.553
314.806
314.949
315.318
315.57
315.69
315.756
315.706
315.698
315.65
315.701
315.687
315.815
315.962
316.152
311.412
311.164
311.108
311.084
311.14
311.288
311.485
311.581
311.886
312.083
312.175
312.206
312.194
312.155
312.124
312.159
312.175
312.261
312.341
312.493
308.114
307.928
307.915
307.872
307.949
308.051
308.189
308.246
308.488
308.613
308.687
308.699
308.696
308.648
308.631
308.671
308.692
308.729
308.793
308.887
304.848
304.746
304.75
304.718
304.768
304.831
304.925
304.943
305.107
305.172
305.22
305.217
305.232
305.18
305.179
305.197
305.202
305.224
305.274
305.339
301.627
301.583
301.588
301.578
301.597
301.599
301.647
301.655
301.707
301.729
301.746
301.741
301.761
301.733
301.735
301.742
301.736
301.758
301.76
301.792
325.733
325.256
325.036
324.905
325.05
325.227
325.66
326.073
326.4
326.879
327.113
327.26
327.28
327.345
327.258
327.32
327.376
327.712
328.015
328.541
322.139
321.736
321.586
321.45
321.598
321.747
322.102
322.455
322.738
323.162
323.343
323.489
323.468
323.538
323.468
323.496
323.536
323.822
324.084
324.498
318.626
318.301
318.166
318.058
318.19
318.331
318.59
318.89
319.145
319.527
319.655
319.773
319.731
319.796
319.741
319.78
319.787
320.023
320.239
320.55
315.164
314.897
314.794
314.701
314.812
314.945
315.147
315.372
315.609
315.92
316.023
316.118
316.062
316.098
316.073
316.119
316.116
316.314
316.477
316.694
311.757
311.552
311.465
311.376
311.487
311.595
311.764
311.904
312.103
312.345
312.441
312.5
312.468
312.469
312.474
312.495
312.502
312.651
312.758
312.915
308.394
308.242
308.174
308.076
308.186
308.257
308.392
308.494
308.622
308.781
308.863
308.911
308.908
308.872
308.889
308.91
308.932
309.022
309.089
309.184
305.047
304.947
304.901
304.837
304.886
304.959
305.037
305.091
305.166
305.267
305.327
305.357
305.357
305.318
305.33
305.36
305.353
305.427
305.442
305.501
301.688
301.656
301.642
301.621
301.625
301.663
301.691
301.714
301.717
301.764
301.782
301.789
301.797
301.785
301.789
301.799
301.786
301.81
301.822
301.833
326.474
326.043
325.799
325.771
325.804
325.992
326.337
326.749
327.099
327.415
327.66
327.837
327.94
327.982
327.958
327.956
328.169
328.511
328.922
329.276
322.805
322.433
322.215
322.214
322.232
322.391
322.676
323.088
323.355
323.606
323.809
323.967
324.042
324.068
324.038
324.068
324.198
324.497
324.852
325.145
319.204
318.9
318.681
318.74
318.716
318.866
319.095
319.446
319.669
319.871
320.04
320.16
320.23
320.255
320.192
320.244
320.337
320.591
320.869
321.09
315.656
315.395
315.204
315.258
315.267
315.378
315.584
315.85
316.057
316.181
316.345
316.434
316.469
316.512
316.45
316.485
316.532
316.758
316.955
317.127
312.142
311.926
311.774
311.801
311.854
311.937
312.101
312.298
312.467
312.533
312.689
312.733
312.742
312.814
312.751
312.767
312.803
312.973
313.129
313.255
308.664
308.497
308.39
308.377
308.459
308.523
308.631
308.744
308.867
308.933
309.056
309.089
309.091
309.154
309.049
309.084
309.122
309.244
309.349
309.426
305.187
305.085
305.029
305.004
305.074
305.139
305.179
305.233
305.317
305.367
305.431
305.459
305.462
305.491
305.423
305.453
305.485
305.539
305.612
305.641
301.737
301.702
301.682
301.669
301.697
301.736
301.739
301.747
301.788
301.797
301.822
301.822
301.828
301.838
301.81
301.828
301.846
301.847
301.881
301.889
327.345
326.902
326.493
326.512
326.52
326.783
327.156
327.454
327.64
328.106
328.315
328.492
328.6
328.634
328.509
328.772
328.859
329.211
329.648
330.068
323.582
323.185
322.819
322.861
322.844
323.096
323.393
323.65
323.825
324.211
324.374
324.551
324.614
324.638
324.54
324.748
324.819
325.099
325.498
325.822
319.86
319.527
319.209
319.26
319.233
319.45
319.682
319.923
320.069
320.368
320.503
320.681
320.727
320.735
320.624
320.804
320.87
321.101
321.429
321.665
316.191
315.896
315.658
315.689
315.669
315.856
316.027
316.243
316.39
316.57
316.688
316.846
316.874
316.886
316.786
316.929
316.985
317.182
317.427
317.603
312.55
312.327
312.164
312.185
312.153
312.304
312.419
312.599
312.717
312.823
312.915
313.047
313.056
313.085
313.005
313.106
313.174
313.3
313.483
313.622
308.946
308.791
308.681
308.687
308.676
308.782
308.828
309.002
309.092
309.118
309.202
309.284
309.29
309.335
309.264
309.326
309.393
309.484
309.597
309.701
305.379
305.265
305.21
305.209
305.23
305.267
305.275
305.399
305.464
305.445
305.515
305.563
305.572
305.596
305.546
305.574
305.651
305.676
305.728
305.816
301.808
301.763
301.749
301.747
301.755
301.771
301.772
301.803
301.837
301.825
301.84
301.868
301.867
301.87
301.859
301.865
301.895
301.895
301.924
301.946
328.104
327.738
327.393
327.354
327.3
327.484
327.75
328.149
328.384
328.68
328.942
329.038
329.178
329.174
329.258
329.437
329.66
329.88
330.465
330.749
324.198
323.902
323.608
323.59
323.509
323.691
323.923
324.267
324.442
324.712
324.923
324.996
325.117
325.079
325.172
325.305
325.514
325.695
326.213
326.412
320.356
320.109
319.879
319.861
319.799
319.949
320.141
320.444
320.568
320.786
320.97
321.038
321.13
321.089
321.168
321.269
321.458
321.582
322.019
322.16
316.592
316.371
316.206
316.167
316.133
316.254
316.424
316.665
316.775
316.92
317.067
317.144
317.206
317.183
317.233
317.299
317.458
317.539
317.921
318.022
312.869
312.689
312.568
312.496
312.509
312.615
312.743
312.928
313.033
313.109
313.235
313.303
313.33
313.32
313.359
313.393
313.529
313.562
313.874
313.962
309.18
309.032
308.958
308.905
308.949
309.006
309.085
309.208
309.291
309.332
309.433
309.496
309.514
309.491
309.529
309.549
309.634
309.674
309.893
309.958
305.503
305.426
305.376
305.346
305.374
305.403
305.447
305.5
305.568
305.585
305.662
305.693
305.707
305.695
305.715
305.728
305.771
305.805
305.948
305.989
301.841
301.82
301.794
301.791
301.791
301.807
301.819
301.843
301.862
301.873
301.909
301.906
301.911
301.91
301.92
301.912
301.921
301.936
302.004
302.011
328.924
328.57
328.212
328.193
328.07
328.2
328.382
328.685
328.971
329.178
329.414
329.594
329.723
329.879
330.069
330.347
330.564
330.789
331.187
331.657
324.885
324.625
324.323
324.303
324.185
324.301
324.44
324.691
324.953
325.123
325.348
325.468
325.591
325.696
325.861
326.09
326.264
326.473
326.792
327.199
320.921
320.745
320.498
320.466
320.355
320.454
320.576
320.774
321.013
321.131
321.351
321.427
321.552
321.601
321.732
321.931
322.05
322.249
322.512
322.838
317.045
316.903
316.707
316.67
316.585
316.665
316.77
316.907
317.111
317.187
317.388
317.44
317.56
317.584
317.68
317.849
317.935
318.104
318.324
318.573
313.198
313.115
312.933
312.932
312.862
312.918
313.01
313.118
313.254
313.302
313.482
313.522
313.617
313.632
313.703
313.823
313.886
314.035
314.196
314.364
309.387
309.345
309.227
309.221
309.18
309.204
309.276
309.356
309.426
309.478
309.613
309.649
309.696
309.715
309.774
309.847
309.884
309.997
310.122
310.23
305.621
305.599
305.537
305.54
305.5
305.519
305.558
305.624
305.634
305.668
305.771
305.786
305.819
305.81
305.873
305.907
305.923
306.007
306.073
306.129
301.885
301.874
301.852
301.849
301.836
301.843
301.859
301.881
301.893
301.897
301.938
301.921
301.943
301.943
301.975
301.984
301.996
302.007
302.029
302.044
329.612
329.31
329.055
328.987
328.81
328.877
329.028
329.307
329.506
329.879
330.094
330.309
330.395
330.615
330.872
331.086
331.334
331.559
332.049
332.697
325.492
325.257
325.026
324.977
324.809
324.884
324.998
325.227
325.405
325.718
325.923
326.074
326.131
326.347
326.555
326.747
326.926
327.12
327.555
328.076
321.428
321.263
321.064
321.028
320.881
320.941
321.051
321.205
321.392
321.637
321.849
321.928
321.984
322.166
322.319
322.504
322.637
322.787
323.149
323.573
317.439
317.329
317.178
317.132
317.007
317.062
317.138
317.247
317.443
317.609
317.787
317.857
317.907
318.046
318.165
318.314
318.416
318.551
318.832
319.158
313.503
313.431
313.343
313.271
313.176
313.221
313.292
313.362
313.527
313.644
313.783
313.829
313.874
313.991
314.068
314.199
314.24
314.373
314.581
314.836
309.627
309.563
309.523
309.452
309.364
309.424
309.471
309.513
309.652
309.708
309.811
309.844
309.874
309.966
310.022
310.122
310.134
310.237
310.369
310.582
305.764
305.734
305.719
305.66
305.597
305.66
305.665
305.719
305.799
305.813
305.897
305.904
305.91
305.963
306.006
306.067
306.082
306.13
306.209
306.354
301.929
301.926
301.915
301.891
301.874
301.891
301.9
301.922
301.954
301.95
301.976
301.971
301.973
301.981
302.02
302.029
302.029
302.055
302.076
302.127
330.401
330.069
329.718
329.671
329.552
329.527
329.535
329.876
330.197
330.409
330.602
330.731
330.923
331.269
331.516
331.63
331.847
332.255
332.747
333.219
326.151
325.895
325.625
325.539
325.447
325.42
325.415
325.695
325.979
326.15
326.351
326.418
326.587
326.894
327.11
327.187
327.367
327.717
328.131
328.502
321.998
321.791
321.576
321.467
321.417
321.393
321.397
321.594
321.84
321.987
322.155
322.208
322.352
322.599
322.791
322.832
322.987
323.263
323.612
323.925
317.898
317.75
317.571
317.463
317.435
317.411
317.423
317.56
317.77
317.908
318.041
318.056
318.192
318.393
318.537
318.544
318.703
318.926
319.191
319.466
313.863
313.745
313.609
313.519
313.538
313.479
313.482
313.586
313.784
313.89
313.975
313.976
314.102
314.249
314.372
314.345
314.499
314.649
314.859
315.083
309.866
309.782
309.684
309.614
309.655
309.589
309.597
309.664
309.834
309.885
309.946
309.96
310.071
310.173
310.246
310.226
310.341
310.446
310.576
310.751
305.904
305.874
305.799
305.75
305.795
305.734
305.739
305.796
305.891
305.941
305.966
305.985
306.063
306.098
306.163
306.139
306.187
306.272
306.33
306.443
301.977
301.981
301.942
301.921
301.94
301.925
301.918
301.945
301.969
301.991
301.994
302.006
302.039
302.04
302.063
302.055
302.07
302.098
302.115
302.157
330.768
330.531
330.294
330.171
330.045
330.154
330.006
330.294
330.508
330.959
331.092
331.17
331.478
331.788
331.927
332.194
332.348
332.921
333.175
333.759
326.415
326.293
326.048
325.969
325.824
325.915
325.777
326.03
326.217
326.641
326.766
326.778
327.04
327.316
327.418
327.658
327.783
328.256
328.453
328.957
322.203
322.111
321.898
321.855
321.68
321.771
321.66
321.885
322.007
322.421
322.515
322.494
322.734
322.944
323.032
323.241
323.319
323.72
323.863
324.276
318.062
318.019
317.832
317.783
317.645
317.736
317.638
317.805
317.883
318.253
318.332
318.287
318.477
318.669
318.74
318.913
318.948
319.273
319.369
319.704
313.962
313.942
313.833
313.785
313.645
313.727
313.694
313.782
313.845
314.133
314.21
314.15
314.287
314.479
314.504
314.65
314.649
314.897
314.965
315.228
309.943
309.93
309.847
309.812
309.687
309.765
309.768
309.812
309.864
310.062
310.132
310.065
310.176
310.329
310.328
310.446
310.418
310.592
310.637
310.838
305.966
305.957
305.903
305.885
305.788
305.837
305.85
305.863
305.929
306.039
306.081
306.031
306.1
306.206
306.192
306.275
306.241
306.35
306.382
306.498
302.005
302
301.972
301.973
301.934
301.946
301.961
301.959
301.993
302.034
302.033
302.015
302.06
302.078
302.076
302.101
302.091
302.14
302.153
302.187
)
;

boundaryField
{
    hotSide
    {
        type            fixedGradient;
        gradient        nonuniform List<scalar> 
400
(
226.314
226.181
227.528
230.321
234.42
239.623
245.712
252.488
259.789
267.487
275.488
283.726
292.159
300.766
309.542
318.497
327.65
337.025
346.64
356.5
216.964
216.932
218.483
221.574
226.036
231.63
238.106
245.245
252.87
260.849
269.086
277.517
286.102
294.823
303.681
312.693
321.887
331.296
340.945
350.846
211.683
211.89
213.663
216.957
221.603
227.363
233.991
241.266
249.01
257.087
265.402
273.888
282.507
291.243
300.099
309.093
318.257
327.625
337.227
347.072
210.232
210.807
212.828
216.25
220.93
226.667
233.241
240.45
248.124
256.13
264.371
272.778
281.314
289.963
298.726
307.623
316.682
325.933
335.402
345.101
211.644
212.661
214.97
218.524
223.207
228.857
235.294
242.339
249.838
257.664
265.72
273.942
282.291
290.752
299.329
308.039
316.907
325.958
335.215
344.69
214.823
216.31
218.953
222.699
227.449
233.068
239.402
246.294
253.604
261.213
269.03
276.995
285.076
293.263
301.564
309.999
318.591
327.366
336.344
345.538
218.871
220.834
223.852
227.869
232.788
238.486
244.819
251.641
258.815
266.228
273.797
281.47
289.228
297.074
305.027
313.115
321.368
329.811
338.465
347.345
223.119
225.539
228.958
233.31
238.498
244.394
250.85
257.714
264.841
272.116
279.458
286.834
294.241
301.707
309.271
316.974
324.854
332.942
341.261
349.823
227.047
229.878
233.687
238.404
243.924
250.112
256.802
263.82
270.999
278.208
285.371
292.469
299.534
306.623
313.801
321.13
328.655
336.413
344.425
352.702
230.253
233.402
237.537
242.586
248.44
254.948
261.928
269.174
276.485
283.707
290.761
297.65
304.44
311.226
318.099
325.135
332.389
339.897
347.679
355.746
232.451
235.781
240.118
245.392
251.488
258.251
265.481
272.948
280.424
287.733
294.79
301.614
308.296
314.953
321.694
328.603
335.737
343.134
350.811
358.776
233.515
236.854
241.229
246.567
252.752
259.625
266.981
274.586
282.21
289.671
296.881
303.856
310.679
317.465
324.318
331.323
338.535
345.991
353.711
361.704
233.515
236.693
240.944
246.193
252.323
259.171
266.54
274.21
281.967
289.645
297.152
304.479
311.679
318.836
326.034
333.345
340.823
348.503
356.408
364.55
232.731
235.611
239.621
244.689
250.695
257.476
264.839
272.58
280.507
288.466
296.36
304.154
311.863
319.532
327.216
334.971
342.841
350.861
359.055
367.438
231.653
234.142
237.856
242.726
248.625
255.384
262.806
270.689
278.85
287.14
295.456
303.742
311.983
320.193
328.4
336.642
344.952
353.361
361.893
370.565
230.996
233.046
236.455
241.158
247.016
253.834
261.397
269.492
277.931
286.565
295.285
304.021
312.742
321.44
330.125
338.82
347.548
356.333
365.199
374.161
231.736
233.344
236.466
241.041
246.904
253.826
261.558
269.868
278.56
287.483
296.526
305.615
314.709
323.788
332.853
341.913
350.985
360.088
369.239
378.455
235.076
236.297
239.155
243.592
249.419
256.371
264.176
272.587
281.405
290.478
299.697
308.988
318.305
327.623
336.934
346.24
355.551
364.88
374.24
383.646
242.089
243.044
245.653
249.863
255.487
262.26
269.909
278.192
286.915
295.928
305.126
314.432
323.797
333.191
342.599
352.016
361.445
370.893
380.369
389.884
253.084
253.908
256.278
260.151
265.371
271.716
278.945
286.843
295.227
303.957
312.925
322.054
331.291
340.598
349.955
359.347
368.773
378.231
387.727
397.264
)
;
    }
    coldSide
    {
        type            mixed;
        refValue        uniform 300;
        refGradient     uniform 0;
        valueFraction   uniform 0.991591;
        source          uniform 0;
        value           nonuniform List<scalar> 
400
(
300.011
300.011
300.011
300.011
300.011
300.012
300.012
300.012
300.013
300.013
300.013
300.014
300.014
300.015
300.015
300.015
300.016
300.016
300.017
300.017
300.011
300.011
300.011
300.011
300.011
300.011
300.011
300.012
300.012
300.013
300.013
300.013
300.014
300.014
300.015
300.015
300.016
300.016
300.017