/*--------------------------------*- C++ -*----------------------------------*\
| =========                 |                                                 |
| \\      /  F ield         | OpenFOAM: The Open Source CFD Toolbox           |
|  \\    /   O peration     | Version:  2212                                  |
|   \\  /    A nd           | Website:  www.openfoam.com                      |
|    \\/     M anipulation  |                                                 |
\*---------------------------------------------------------------------------*/
FoamFile
{
    version     2.0;
    format      ascii;
    arch        "LSB;label=32;scalar=64";
    class       volScalarField;
    location    "./ITHACAoutput/true/14";
    object      error;
}
// * * * * * * * * * * * * * * * * * * * * * * * * * * * * * * * * * * * * * //

dimensions      [0 0 0 1 0 0 0];

internalField   nonuniform List<scalar> 
3200
(
6.41166
6.29201
6.32175
6.36635
6.50221
6.57933
6.84575
6.98964
7.21017
7.28145
7.40609
7.3084
7.30542
7.172
7.01509
6.86822
6.89749
6.86304
7.02541
7.05393
5.53947
5.35268
5.42172
5.39256
5.4903
5.66073
5.89555
6.02911
6.17256
6.24448
6.31551
6.25815
6.24855
6.0888
5.98296
5.88958
5.84094
5.8271
5.99194
6.01722
4.53484
4.49306
4.51808
4.55412
4.59484
4.70157
4.84565
5.12536
5.19132
5.18024
5.22902
5.20051
5.22233
5.08467
5.03207
4.96103
4.89073
4.86487
5.01092
5.09248
3.68109
3.60986
3.66516
3.68247
3.65566
3.78361
4.0245
4.01549
4.19892
4.23305
4.23057
4.25469
4.32386
4.18354
4.15903
4.02208
3.97214
3.94723
3.99937
4.09462
2.88837
2.78234
2.80242
2.79248
2.88514
2.97261
3.04964
3.13551
3.23054
3.26111
3.23911
3.28174
3.1763
3.19697
3.204
3.0198
3.04585
3.11332
3.06868
3.0836
2.0182
1.98117
1.92006
1.9929
2.06148
2.08884
2.2227
2.25317
2.31747
2.29752
2.35891
2.41879
2.28391
2.29171
2.20567
2.13556
2.179
2.12475
2.17852
2.21975
1.21696
1.17958
1.19392
1.22897
1.22558
1.25215
1.29677
1.30706
1.38927
1.36213
1.41556
1.34149
1.39703
1.26033
1.3715
1.26054
1.24962
1.34017
1.2566
1.3191
0.434385
0.406887
0.442069
0.45669
0.420719
0.395561
0.477441
0.393469
0.462627
0.464985
0.524619
0.47959
0.486431
0.545818
0.405453
0.435954
0.436504
0.444824
0.488043
0.489138
5.83361
5.72547
5.65011
5.71005
5.79396
5.96522
6.09789
6.30812
6.4836
6.60291
6.67275
6.60773
6.52646
6.47077
6.31834
6.2685
6.23559
6.23506
6.23518
6.50892
4.95512
4.92379
4.82594
4.84423
4.97542
5.14516
5.33776
5.44048
5.49573
5.69176
5.68422
5.66001
5.57713
5.49367
5.48347
5.3777
5.30706
5.30917
5.41812
5.51709
4.21165
4.16629
4.00165
4.14697
4.19954
4.26994
4.38354
4.51037
4.67814
4.79166
4.74499
4.75539
4.71713
4.67178
4.55806
4.46238
4.45205
4.48398
4.56824
4.60681
3.34942
3.37117
3.2501
3.2801
3.39008
3.46157
3.61458
3.70112
3.81532
3.89154
3.90228
3.87769
3.77078
3.7599
3.71961
3.6358
3.6309
3.66873
3.64105
3.76151
2.65347
2.59782
2.51668
2.51612
2.54704
2.70895
2.84876
2.934
2.9476
2.99284
2.95317
2.96088
2.9243
2.95284
2.87443
2.82732
2.75319
2.76961
2.88083
2.94526
1.83423
1.81174
1.80683
1.89856
1.81095
1.94686
1.96056
1.99645
2.13675
2.11003
2.13353
2.1698
2.10875
2.09348
2.02557
2.01045
1.91116
2.0113
2.01145
2.07466
1.09089
1.06569
1.08612
1.05481
1.12056
1.1516
1.17131
1.21306
1.22901
1.28746
1.25299
1.29782
1.22905
1.25709
1.27349
1.15862
1.15271
1.20566
1.17212
1.22744
0.399551
0.433089
0.395055
0.323564
0.312232
0.331327
0.44349
0.391447
0.405358
0.423958
0.457804
0.475741
0.404473
0.358166
0.458702
0.31218
0.4473
0.420497
0.392882
0.448416
5.20276
5.03402
4.85443
4.85176
4.98608
5.12879
5.32968
5.48311
5.58281
5.666
5.69919
5.73701
5.61831
5.48695
5.46739
5.40961
5.39848
5.38754
5.4815
5.68309
4.34454
4.32668
4.1294
4.19438
4.29462
4.35338
4.54956
4.60559
4.79824
4.90209
4.91422
4.95511
4.83308
4.77313
4.6322
4.67554
4.60207
4.66093
4.72029
4.86116
3.67672
3.61644
3.57359
3.53077
3.59552
3.72819
3.77885
3.9192
4.05103
4.1406
4.17654
4.10276
4.04646
4.06387
3.87155
3.87165
3.88391
3.91833
3.95933
4.1349
2.94475
2.95102
2.80233
2.92789
2.94165
2.98225
3.14675
3.20452
3.25895
3.40493
3.40248
3.30807
3.28232
3.28411
3.20274
3.1674
3.19088
3.17476
3.27708
3.26113
2.42049
2.25972
2.29842
2.28592
2.20623
2.38446
2.40577
2.50451
2.55208
2.55402
2.63583
2.53553
2.57193
2.56811
2.45442
2.34279
2.42708
2.44036
2.49184
2.51983
1.69199
1.63182
1.58899
1.58244
1.67628
1.68454
1.70417
1.78216
1.79897
1.79937
1.82878
1.85219
1.86438
1.85411
1.76238
1.79672
1.73354
1.67697
1.78099
1.85554
0.985098
0.950674
0.953191
0.990965
0.984039
1.03211
0.972585
0.96662
1.12619
1.18811
1.08121
1.13362
1.13959
1.07114
1.12097
1.04041
1.0454
1.05701
1.11164
1.09731
0.388904
0.263765
0.371376
0.277617
0.339771
0.380251
0.336958
0.306437
0.387036
0.386866
0.385833
0.379478
0.352407
0.404601
0.373481
0.334521
0.360391
0.360242
0.356337
0.329248
4.40854
4.3442
4.10406
4.12132
4.16305
4.27162
4.45642
4.55247
4.66637
4.80477
4.75016
4.75579
4.65412
4.62699
4.57753
4.5314
4.54747
4.69811
4.76068
4.90624
3.82308
3.77444
3.58059
3.46666
3.57004
3.65802
3.86981
3.88375
4.00637
4.10529
4.07227
4.09445
4.10009
3.98899
3.90243
3.83365
3.92439
3.9268
4.11992
4.27173
3.24526
3.08194
3.05985
3.00011
3.0436
3.06068
3.19259
3.31453
3.42128
3.38012
3.44582
3.48106
3.37461
3.34916
3.32227
3.22729
3.25225
3.28205
3.49499
3.5408
2.58902
2.46143
2.44231
2.43018
2.38852
2.50743
2.58992
2.64306
2.73102
2.83877
2.84751
2.79756
2.73073
2.66019
2.71329
2.61706
2.67193
2.6889
2.8374
2.90198
2.09044
1.96592
1.84396
1.89162
1.9241
1.97546
1.9755
2.05735
2.15356
2.23045
2.21823
2.20356
2.15012
2.18468
2.10253
2.07405
2.0888
2.00245
2.19763
2.24447
1.42894
1.39577
1.35254
1.33215
1.36192
1.4056
1.39401
1.46555
1.51685
1.51189
1.57089
1.57228
1.5268
1.46703
1.4935
1.4305
1.51717
1.52906
1.5455
1.5751
0.838696
0.809871
0.786181
0.807947
0.828924
0.88086
0.772839
0.92545
0.896963
0.878119
0.902827
0.852904
0.910175
0.874064
0.912086
0.878893
0.866199
0.865695
0.947864
0.898916
0.308912
0.1848
0.29871
0.226963
0.273095
0.208468
0.26455
0.260877
0.350912
0.289082
0.337976
0.301134
0.286655
0.283718
0.337542
0.278069
0.258626
0.314482
0.313513
0.333773
3.89038
3.69394
3.4945
3.42221
3.42579
3.50007
3.60068
3.6935
3.76986
3.95255
3.89908
3.86164
3.78919
3.77098
3.75493
3.69915
3.73442
3.88371
4.17387
4.25284
3.34997
3.14566
3.038
2.9717
2.97655
3.0035
3.12485
3.20305
3.29601
3.29289
3.37754
3.31664
3.26853
3.19942
3.17795
3.17544
3.23986
3.25611
3.49075
3.65679
2.8105
2.68152
2.54246
2.47561
2.48486
2.52467
2.57952
2.6601
2.74854
2.8416
2.84827
2.83617
2.84462
2.72312
2.69227
2.6929
2.69794
2.75359
2.8956
3.02881
2.2836
2.17493
2.16964
2.01489
2.00967
1.98922
2.06734
2.17565
2.21005
2.25109
2.34617
2.22368
2.24006
2.19468
2.12774
2.14539
2.2306
2.27731
2.37034
2.46028
1.77265
1.63626
1.61643
1.63561
1.49748
1.55867
1.73677
1.69736
1.79808
1.80166
1.77312
1.7589
1.76755
1.75826
1.67706
1.68512
1.69568
1.66944
1.80495
1.92273
1.22079
1.15372
1.14261
1.09119
1.04332
1.14852
1.24682
1.1518
1.24327
1.29502
1.30613
1.2411
1.23907
1.2354
1.21466
1.22704
1.16459
1.22069
1.28349
1.33887
0.748126
0.711342
0.666729
0.701244
0.684725
0.646332
0.682879
0.694679
0.790904
0.803716
0.656165
0.787145
0.726145
0.68575
0.731018
0.784578
0.740522
0.752188
0.824711
0.807977
0.248027
0.321644
0.224039
0.243539
0.197099
0.24762
0.222244
0.225542
0.173514
0.224561
0.222294
0.228001
0.272104
0.177021
0.247401
0.20815
0.250484
0.196327
0.201496
0.248334
3.42175
3.18197
2.94469
2.91493
2.82893
2.78754
2.90392
2.96585
3.07597
3.10208
3.12321
3.16325
3.11366
3.00553
3.04586
3.13345
3.15475
3.26813
3.52783
3.74547
2.95809
2.73754
2.63857
2.44276
2.43114
2.42841
2.50179
2.50428
2.5488
2.65566
2.62977
2.72193
2.64716
2.59667
2.57717
2.55879
2.7208
2.82257
2.97432
3.25523
2.44505
2.36745
2.18944
2.0793
2.0435
2.06098
2.06026
2.09134
2.24544
2.11055
2.2448
2.22525
2.26495
2.17647
2.10641
2.15276
2.21475
2.33262
2.51849
2.69431
2.00357
1.91298
1.76739
1.67592
1.62107
1.65226
1.65944
1.7764
1.81536
1.77965
1.8235
1.78933
1.77412
1.78701
1.74189
1.73534
1.85692
1.94471
2.03715
2.16599
1.52099
1.43931
1.3303
1.2939
1.35643
1.28497
1.29613
1.28938
1.39887
1.37296
1.40266
1.42923
1.36402
1.40782
1.34155
1.32069
1.37411
1.47535
1.58072
1.62775
1.11882
1.04421
0.965662
0.885749
0.942889
1.00243
0.932725
0.938375
0.951679
1.00588
1.05311
1.0178
1.00183
1.01019
0.957655
0.935663
0.994525
1.01297
1.06064
1.18347
0.695231
0.642016
0.575733
0.598782
0.555997
0.567907
0.564609
0.595205
0.546031
0.645656
0.647916
0.617895
0.586362
0.605253
0.548844
0.54463
0.620437
0.637608
0.767393
0.62553
0.202156
0.224774
0.19863
0.208684
0.0905769
0.20604
0.167677
0.22529
0.16822
0.0995448
0.123486
0.217916
0.129955
0.211841
0.192258
0.174136
0.231656
0.156468
0.252488
0.202003
3.08942
2.86897
2.55815
2.4237
2.34405
2.28668
2.26914
2.4142
2.41789
2.4345
2.41378
2.53171
2.47384
2.42442
2.34832
2.46895
2.61434
2.84875
3.07123
3.37276
2.65202
2.37919
2.11313
2.02264
1.95894
1.93285
2.02931
1.98461
2.09953
2.07161
2.095
2.11533
2.05313
2.03899
2.14376
2.14257
2.19358
2.39469
2.57527
2.82394
2.24914
2.02966
1.88383
1.73801
1.68425
1.62961
1.58592
1.71975
1.69679
1.78217
1.67626
1.7232
1.76659
1.68858
1.7036
1.72894
1.79372
1.97605
2.14889
2.3887
1.84167
1.64072
1.61102
1.40572
1.37716
1.38304
1.36945
1.36283
1.32434
1.47788
1.41353
1.45935
1.42085
1.37534
1.3782
1.45896
1.46688
1.62674
1.73873
1.84309
1.42869
1.26773
1.2362
1.12177
1.03622
1.05367
1.05983
1.04092
1.01967
1.06941
1.06877
1.13763
1.09821
1.08764
1.14963
1.16305
1.13205
1.27537
1.37344
1.44324
1.00862
0.914175
0.825493
0.826736
0.757918
0.671323
0.673367
0.775635
0.798382
0.771063
0.81922
0.775626
0.796593
0.810231
0.733216
0.736286
0.803471
0.872802
0.920189
0.95113
0.645861
0.484771
0.527782
0.491581
0.425132
0.430975
0.429567
0.365839
0.450331
0.487528
0.476194
0.480357
0.450003
0.498605
0.496983
0.470352
0.527544
0.574251
0.589999
0.631812
0.174996
0.144626
0.183418
0.113695
0.168668
0.16618
0.14474
0.113404
0.113902
0.17979
0.0859305
0.202613
0.110862
0.145526
0.153532
0.211411
0.120577
0.193227
0.200237
0.246631
2.89797
2.58927
2.31221
2.06033
2.02268
1.8511
1.78429
1.7894
1.84297
1.9268
1.86486
1.83397
1.91011
1.92742
1.99073
2.07655
2.19675
2.41211
2.77472
3.0576
2.43858
2.23422
1.94103
1.79616
1.6542
1.55129
1.52759
1.59348
1.67262
1.68193
1.63276
1.6557
1.60757
1.61205
1.64961
1.75868
1.83764
2.08778
2.35611
2.6507
2.04267
1.85458
1.65695
1.46883
1.3957
1.32982
1.29727
1.31413
1.35204
1.32479
1.40601
1.33466
1.33279
1.3734
1.36494
1.44734
1.57667
1.80306
1.96903
2.22785
1.61955
1.46629
1.29566
1.24073
1.08428
1.11059
1.02082
1.05577
1.0499
1.11635
1.04623
1.12644
1.05083
1.07188
1.12067
1.19771
1.23562
1.43725
1.63654
1.74666
1.24972
1.19838
0.993436
0.862605
0.904291
0.747958
0.839937
0.779245
0.811531
0.78239
0.852895
0.85132
0.817664
0.823776
0.967278
0.837489
0.919028
1.07547
1.23428
1.31707
0.913422
0.774117
0.691897
0.690485
0.6083
0.624074
0.617545
0.576988
0.534267
0.611463
0.567536
0.565627
0.547259
0.639181
0.619068
0.605474
0.670552
0.777154
0.876888
0.932758
0.598582
0.544701
0.386748
0.433476
0.38161
0.331409
0.292788
0.388409
0.351315
0.462561
0.363921
0.351835
0.294624
0.392165
0.350593
0.366542
0.343673
0.485235
0.501047
0.578618
0.203121
0.105894
0.148108
0.18309
0.180462
0.12415
0.0702248
0.125013
0.0457432
0.127253
0.13474
0.107744
0.144938
0.157451
0.0537996
0.10908
0.0670177
0.092312
0.155416
0.146671
2.90861
2.56596
2.23261
1.95699
1.73671
1.62182
1.47264
1.5179
1.44162
1.55005
1.49152
1.56202
1.53222
1.55081
1.59472
1.73897
1.95072
2.30587
2.61224
2.98299
2.46826
2.16047
1.86097
1.70245
1.47623
1.35486
1.32423
1.27066
1.25632
1.23681
1.27219
1.29716
1.27259
1.32779
1.45765
1.51365
1.64609
1.96247
2.29644
2.39362
2.05665
1.81848
1.54389
1.39056
1.27189
1.13487
1.05908
1.02405
1.09683
1.01975
1.08498
1.02744
1.0447
1.09695
1.15803
1.27605
1.43596
1.55593
1.86075
2.03864
1.68934
1.41162
1.21328
1.04543
0.973178
0.875979
0.908523
0.849593
0.829984
0.90719
0.830646
0.885202
0.850413
0.834647
0.913518
1.08361
1.10846
1.2836
1.44139
1.63191
1.27536
1.13409
0.993968
0.835964
0.792433
0.710219
0.635813
0.627418
0.699407
0.644485
0.604618
0.665308
0.644033
0.657704
0.7061
0.812851
0.848231
0.987865
1.11584
1.29142
0.87984
0.766796
0.717812
0.654804
0.573627
0.411114
0.474037
0.543854
0.461437
0.457968
0.51563
0.458801
0.449008
0.469093
0.415467
0.561323
0.585264
0.736194
0.788371
0.933362
0.499862
0.449467
0.435975
0.335123
0.359965
0.327055
0.245169
0.252888
0.236358
0.282536
0.221101
0.363504
0.217918
0.208981
0.292329
0.315951
0.327911
0.431863
0.498731
0.5264
0.157134
0.185591
0.145487
0.145104
0.0832446
0.0605504
0.14221
0.103645
0.109392
0.117222
0.0996212
0.0946626
0.100077
0.0958649
0.094121
0.0955593
0.0629344
0.131753
0.138831
0.195243
3.00206
2.61327
2.20288
1.91639
1.71817
1.57612
1.35924
1.30029
1.30262
1.32971
1.24514
1.30047
1.26408
1.34025
1.53198
1.61067
1.93751
2.24068
2.57439
3.02169
2.53114
2.23263
1.95054
1.63462
1.3789
1.24828
1.24793
1.12147
1.12397
1.06688
1.0723
1.0618
1.02433
1.14949
1.22796
1.42118
1.60336
1.87019
2.17797
2.53046
2.10369
1.87315
1.62596
1.33239
1.08787
1.03496
1.02592
0.916275
0.943786
0.849443
0.864997
0.868425
0.845419
0.976719
1.05592
1.16614
1.36772
1.53179
1.7799
2.09445
1.76537
1.5593
1.26223
1.14153
0.968681
0.924593
0.839448
0.727813
0.713715
0.6803
0.676744
0.737613
0.68042
0.797112
0.841289
0.961216
1.02731
1.297
1.40714
1.63686
1.29089
1.18055
0.961751
0.844724
0.74364
0.63732
0.580545
0.58437
0.55254
0.483973
0.462921
0.507287
0.48688
0.59774
0.680748
0.690333
0.81347
0.924523
1.09073
1.2919
0.92264
0.818766
0.680026
0.625275
0.567235
0.483083
0.464427
0.404476
0.388687
0.382652
0.408048
0.354582
0.383686
0.353902
0.4441
0.46151
0.530922
0.678569
0.842852
0.862643
0.590939
0.425326
0.451921
0.29415
0.312963
0.266074
0.182253
0.238174
0.278493
0.230712
0.29021
0.231201
0.259583
0.224243
0.266971
0.263207
0.369589
0.343363
0.482547
0.505574
0.250948
0.195915
0.130394
0.15802
0.0992931
0.0606621
0.0738207
0.0686034
0.0717742
0.0633238
0.0714647
0.130261
0.00420934
0.00522575
0.0768514
0.0992788
0.0798161
0.179844
0.172984
0.234872
3.25191
2.91363
2.49712
2.0659
1.73623
1.58776
1.4324
1.31184
1.24995
1.15727
1.15211
1.21488
1.31105
1.36147
1.50897
1.70982
1.98444
2.34629
2.74638
3.18249
2.72119
2.46159
2.06405
1.75822
1.53722
1.34776
1.23749
1.04738
0.974717
0.990555
0.950163
0.985193
1.02184
1.10317
1.22934
1.37437
1.64378
1.9855
2.31372
2.6638
2.30018
2.03599
1.67966
1.49458
1.22717
1.05159
0.933352
0.897163
0.799633
0.749263
0.827252
0.836771
0.839135
0.916524
1.00078
1.13744
1.4112
1.58641
1.93672
2.20125
1.80783
1.62172
1.36317
1.20699
0.990763
0.858503
0.769979
0.65097
0.679188
0.625838
0.717132
0.630949
0.693476
0.751999
0.798475
0.96577
1.08304
1.27023
1.53546
1.77178
1.42541
1.30639
1.0572
0.87337
0.752246
0.595811
0.564073
0.563642
0.532653
0.50698
0.461012
0.492137
0.550178
0.557809
0.611172
0.660082
0.802315
1.02715
1.13022
1.33453
0.975932
0.898674
0.816813
0.598955
0.582557
0.432059
0.432804
0.32593
0.356805
0.335114
0.283152
0.396966
0.33176
0.3692
0.470925
0.446012
0.5868
0.691295
0.828397
0.902987
0.616345
0.531729
0.446838
0.425479
0.34871
0.285348
0.223543
0.223208
0.133244
0.1877
0.234522
0.221914
0.264542
0.246523
0.273877
0.263117
0.369756
0.4553
0.442585
0.578022
0.169963
0.114734
0.147991
0.0895034
0.176903
0.0661282
0.0596901
0.102662
0.0293498
0.0339642
0.102316
0.0349764
0.0647075
0.103042
0.117099
0.0974063
0.085816
0.0862937
0.159016
0.226349
3.69405
3.24962
2.79091
2.41253
2.05581
1.78746
1.59605
1.43384
1.3221
1.3128
1.29058
1.30751
1.426
1.43917
1.69551
1.87126
2.12124
2.59309
3.11265
3.45236
3.16346
2.77065
2.37063
2.0174
1.72066
1.50027
1.29764
1.21677
1.11151
1.15391
1.10959
1.07063
1.13784
1.20225
1.36067
1.66104
1.83559
2.17701
2.64434
2.91511
2.61176
2.25498
1.96699
1.72883
1.44152
1.24171
1.17146
0.943441
0.907097
0.929884
0.858958
0.90323
0.96814
1.04234
1.09843
1.2336
1.5315
1.75572
2.11914
2.41858
2.08308
1.83281
1.5885
1.32422
1.13079
0.997049
0.91133
0.776437
0.739969
0.709908
0.792373
0.764991
0.73769
0.828335
0.959219
1.03894
1.25303
1.48877
1.73776
2.0002
1.58217
1.45759
1.16677
1.01065
0.752929
0.75917
0.763508
0.601711
0.583014
0.555971
0.511221
0.527666
0.592485
0.660847
0.701224
0.806391
0.912506
1.12174
1.4172
1.48357
1.17825
1.05429
0.883028
0.716756
0.662021
0.600593
0.458551
0.436265
0.396721
0.372562
0.394511
0.411446
0.429142
0.381603
0.532907
0.540601
0.659785
0.821174
0.977278
1.04397
0.700913
0.649457
0.524634
0.454555
0.366436
0.267793
0.282362
0.24416
0.212156
0.21083
0.281818
0.217587
0.240227
0.295216
0.310167
0.310678
0.348995
0.473427
0.539528
0.571741
0.262884
0.217959
0.114393
0.147417
0.133524
0.169569
0.130723
0.0891366
0.0384561
0.0743127
0.136793
0.0903873
0.114362
0.0649661
0.0586242
0.123048
0.065803
0.140951
0.143329
0.285562
4.29823
3.80966
3.28911
2.86784
2.46809
2.12061
1.99253
1.81024
1.68848
1.62882
1.60781
1.61466
1.72917
1.82411
2.00757
2.29838
2.66261
3.05985
3.53245
3.96086
3.66002
3.26663
2.77139
2.48057
2.07325
1.8561
1.70029
1.48451
1.38359
1.31126
1.34448
1.27819
1.41697
1.48227
1.69764
1.97444
2.21963
2.57722
3.09839
3.41651
3.04555
2.74337
2.41579
2.07287
1.78778
1.51529
1.35337
1.26455
1.10917
1.11573
1.09334
1.07255
1.18454
1.26602
1.36648
1.57212
1.80761
2.11445
2.49352
2.78497
2.51507
2.19348
1.9378
1.62003
1.42787
1.19017
1.06328
1.04581
0.923828
0.907633
0.888035
0.869901
0.927405
0.964725
1.12682
1.15208
1.46321
1.70126
2.00443
2.18579
1.91558
1.67235
1.4568
1.26546
1.04386
0.947385
0.903519
0.737308
0.706044
0.763096
0.660792
0.66648
0.693129
0.762403
0.835865
0.956618
1.08583
1.34175
1.5489
1.74435
1.30513
1.23504
1.03549
0.896118
0.789951
0.701746
0.684972
0.566793
0.493059
0.47726
0.442556
0.422431
0.508009
0.597483
0.616799
0.652201
0.799008
0.944437
1.12199
1.21958
0.85207
0.684546
0.591917
0.540375
0.511726
0.391213
0.298915
0.328718
0.275808
0.312385
0.348998
0.270835
0.282239
0.358758
0.316017
0.385105
0.466527
0.580567
0.633697
0.690939
0.223339
0.2749
0.257034
0.214486
0.131355
0.102289
0.131618
0.0747538
0.0948352
0.116401
0.172321
0.113377
0.131277
0.109002
0.133529
0.16266
0.124484
0.214388
0.215973
0.178351
5.13784
4.61109
3.95708
3.54203
3.15449
2.76662
2.49563
2.33765
2.22224
2.18074
1.97083
2.19765
2.19846
2.34496
2.53008
2.93015
3.26543
3.70225
4.192
4.75977
4.39451
3.95339
3.43401
3.01088
2.63346
2.38795
2.12154
1.9439
1.87603
1.76791
1.70213
1.75727
1.80921
1.9691
2.17644
2.38418
2.67576
3.11804
3.60009
3.97423
3.57851
3.25904
2.88756
2.48736
2.18614
1.89587
1.80278
1.55035
1.50792
1.47408
1.4616
1.38658
1.6013
1.60637
1.81662
2.03343
2.27785
2.55677
3.0385
3.35363
2.96494
2.64123
2.30311
2.0359
1.79429
1.5881
1.44262
1.30652
1.32716
1.13973
1.13598
1.09822
1.19599
1.36302
1.41944
1.57022
1.82204
2.08916
2.38213
2.63394
2.26403
2.01768
1.75699
1.56465
1.34734
1.25411
1.06413
0.951138
0.900588
0.930079
0.874637
0.895641
0.962468
0.968988
1.0994
1.29812
1.40187
1.66485
1.82828
2.03534
1.60507
1.4128
1.24837
1.13662
1.03907
0.819703
0.798227
0.694784
0.65385
0.677653
0.662617
0.625994
0.650142
0.708019
0.768479
0.897426
0.964363
1.16198
1.29192
1.47083
0.920225
0.853184
0.820388
0.627726
0.668898
0.50018
0.429555
0.440493
0.415952
0.358979
0.358759
0.359661
0.398287
0.419763
0.444074
0.53674
0.609679
0.668709
0.735901
0.864407
0.294045
0.292147
0.237635
0.224029
0.260116
0.178154
0.162171
0.144215
0.0752533
0.101641
0.123929
0.134566
0.154791
0.136796
0.140703
0.100692
0.179772
0.267126
0.25032
0.291087
6.0901
5.46476
4.88181
4.34461
4.02135
3.50155
3.16769
2.99922
2.83173
2.84943
2.76701
2.7594
2.93583
3.01434
3.29225
3.65774
3.92389
4.46065
5.06832
5.66072
5.14308
4.72508
4.13015
3.75216
3.35619
3.02443
2.76471
2.60233
2.48448
2.37427
2.2943
2.33735
2.42452
2.50053
2.73455
3.06638
3.40633
3.78293
4.31535
4.67044
4.35198
3.8943
3.49661
3.11432
2.7352
2.54396
2.30827
2.11196
2.05115
1.93891
1.93494
1.96709
2.04056
2.14419
2.28664
2.52472
2.84222
3.16367
3.55366
3.97313
3.49285
3.19037
2.79773
2.49572
2.22905
1.99614
1.87608
1.6757
1.65808
1.53442
1.53776
1.60041
1.65624
1.74754
1.82509
2.09633
2.3232
2.50353
2.8851
3.01559
2.66314
2.4232
2.19022
1.94244
1.70188
1.57506
1.39696
1.3271
1.22984
1.16307
1.15891
1.26607
1.27083
1.31826
1.41706
1.56592
1.79008
2.0025
2.25378
2.44103
1.91249
1.80487
1.53642
1.32639
1.16894
1.13757
1.04114
0.83029
0.801688
0.891645
0.829583
0.897994
0.909513
0.922867
0.971291
1.14733
1.26449
1.39836
1.53383
1.72166
1.12156
0.99832
0.973967
0.821975
0.70593
0.655734
0.594917
0.539102
0.52029
0.517503
0.445465
0.482571
0.518382
0.611351
0.560771
0.62382
0.713727
0.794978
0.885746
0.985832
0.472685
0.347583
0.34502
0.221997
0.142097
0.201241
0.124293
0.159805
0.129164
0.212121
0.127262
0.147449
0.138868
0.204528
0.245027
0.220302
0.256237
0.325762
0.279674
0.338744
7.14742
6.60331
6.04524
5.40081
4.92648
4.60918
4.11535
3.91425
3.68222
3.65541
3.57779
3.64022
3.78227
3.93337
4.12522
4.54496
5.02762
5.50916
6.09912
6.62222
6.16015
5.67242
5.07807
4.59318
4.18951
3.85564
3.58397
3.36203
3.23585
3.09348
3.13238
3.09744
3.17877
3.31696
3.47515
3.90082
4.17908
4.6746
5.19255
5.61193
5.1035
4.71772
4.26241
3.84035
3.51129
3.24622
2.94513
2.73045
2.66542
2.60747
2.53957
2.571
2.66953
2.73156
2.96874
3.18279
3.50031
3.89523
4.27087
4.6543
4.15752
3.87603
3.48766
3.10931
2.88642
2.58057
2.37907
2.23166
2.13533
2.06423
1.99841
2.04481
2.13697
2.27263
2.42821
2.52413
2.86027
3.16352
3.50977
3.78924
3.12591
2.93226
2.66015
2.32462
2.14299
1.96457
1.8025
1.74406
1.57728
1.57782
1.57607
1.54422
1.58002
1.69314
1.82468
1.89533
2.15698
2.33309
2.7379
2.90476
2.30262
2.10586
1.87674
1.68884
1.54129
1.4447
1.28897
1.22251
1.21939
1.12852
1.09563
0.986176
1.10104
1.2209
1.23134
1.42513
1.56943
1.72919
1.86218
2.02337
1.31203
1.24955
1.14935
1.04507
0.949906
0.882437
0.808311
0.700966
0.708956
0.729732
0.646549
0.613069
0.694103
0.738673
0.737476
0.828808
0.885845
1.01111
1.10068
1.20461
0.410789
0.396993
0.357576
0.363059
0.265895
0.307015
0.311237
0.266951
0.251821
0.244986
0.168707
0.265794
0.189705
0.270215
0.217599
0.216716
0.31399
0.347622
0.367039
0.381321
8.44392
7.90465
7.20681
6.52974
6.12259
5.67761
5.28019
5.03732
4.80729
4.66515
4.63281
4.70211
4.82014
4.97347
5.30673
5.70291
6.09815
6.70987
7.28683
7.80708
7.23601
6.76917
6.17724
5.55593
5.14576
4.83084
4.4649
4.28159
4.11385
3.99053
3.979
3.99765
4.11926
4.254
4.52109
4.7779
5.22326
5.65361
6.16602
6.6857
6.05834
5.62595
5.14103
4.66734
4.28504
4.04109
3.7307
3.50031
3.42235
3.33438
3.29372
3.31267
3.45287
3.50713
3.76297
4.00743
4.35889
4.72182
5.13989
5.50243
4.86197
4.55743
4.21621
3.78947
3.52101
3.22956
3.10047
2.90115
2.67089
2.65538
2.5945
2.669
2.69943
2.84971
3.00124
3.1878
3.48516
3.81785
4.20897
4.47697
3.86717
3.48672
3.18766
2.89522
2.78242
2.51852
2.32956
2.14135
2.07626
2.06362
1.92549
2.12627
2.079
2.23266
2.32719
2.52084
2.59583
2.92474
3.17384
3.47808
2.64022
2.5319
2.20265
2.15569
1.93602
1.76374
1.64087
1.60387
1.54086
1.47779
1.40816
1.41741
1.43684
1.57952
1.64619
1.73535
1.93103
2.08439
2.27835
2.47553
1.64372
1.55571
1.31149
1.30326
1.16156
1.07139
0.973638
0.967582
0.888826
0.853811
0.859897
0.815382
0.931212
0.929052
0.958678
1.05595
1.10673
1.29214
1.31802
1.47368
0.591658
0.460362
0.365995
0.362092
0.465491
0.320501
0.34395
0.257056
0.309883
0.251875
0.322335
0.255407
0.293371
0.235335
0.283647
0.3647
0.414681
0.41378
0.456052
0.530952
9.96839
9.27183
8.63485
7.98826
7.42359
6.88776
6.62265
6.27998
6.09022
5.93259
5.81646
5.9588
6.06475
6.29537
6.59443
6.93913
7.41444
7.98114
8.65645
9.2672
8.47174
7.89366
7.33356
6.7597
6.29523
5.92454
5.59297
5.31624
5.20133
5.08913
5.01732
4.9648
5.13159
5.27412
5.60164
5.94079
6.31695
6.76038
7.35907
7.84267
7.05756
6.65201
6.16477
5.75058
5.29904
4.94652
4.60581
4.37128
4.2923
4.14484
4.12395
4.13476
4.219
4.41296
4.58233
4.89713
5.20681
5.71079
6.09696
6.51812
5.74466
5.3794
4.9466
4.55095
4.29744
4.0174
3.75301
3.5592
3.47245
3.39374
3.27858
3.3996
3.41594
3.55004
3.71029
3.98703
4.19866
4.58106
4.92591
5.29518
4.39117
4.17264
3.8288
3.4961
3.21357
3.01027
2.86904
2.82517
2.6628
2.66304
2.56919
2.60812
2.59876
2.69163
2.84091
2.95463
3.21557
3.60241
3.81656
4.05766
3.11474
2.91003
2.76166
2.56062
2.2933
2.11747
2.04036
1.95034
1.8762
1.81159
1.81658
1.86032
1.94481
2.00002
2.05617
2.10987
2.26363
2.5161
2.71356
2.94111
1.85051
1.72026
1.61366
1.48253
1.35129
1.31386
1.28325
1.16522
1.12504
1.10747
1.08161
1.08678
1.09564
1.1803
1.22919
1.22398
1.39098
1.45206
1.60676
1.69509
0.64959
0.601826
0.59327
0.493046
0.410992
0.411007
0.410388
0.381484
0.298255
0.336208
0.339982
0.356444
0.3863
0.435273
0.446979
0.370402
0.562732
0.537618
0.551525
0.563494
11.4306
10.7658
9.99277
9.3232
8.85347
8.25941
7.85514
7.56447
7.36063
7.27566
7.2167
7.13642
7.30595
7.58628
7.85237
8.2411
8.72644
9.29887
9.93425
10.5328
9.71078
9.13405
8.47236
7.8767
7.45103
6.99177
6.65818
6.39961
6.2594
6.1911
6.04712
6.1332
6.19227
6.35144
6.63043
6.94408
7.40649
7.92207
8.42241
8.9985
8.07772
7.62714
7.09676
6.57943
6.23324
5.7784
5.5575
5.33934
5.23948
5.07999
5.01755
5.05659
5.14822
5.33629
5.54661
5.85845
6.15036
6.53243
7.06047
7.42883
6.50814
6.25776
5.74421
5.29303
4.93731
4.65772
4.43725
4.26826
4.10169
4.0522
4.07626
4.06681
4.09779
4.24929
4.39842
4.67148
5.00238
5.35452
5.67893
5.98174
5.07889
4.72086
4.4168
4.10856
3.86147
3.55712
3.41472
3.27938
3.27756
3.10176
3.03405
3.17036
3.19204
3.25116
3.41424
3.58236
3.78753
4.05085
4.41504
4.61927
3.59373
3.41728
3.10969
2.89658
2.72709
2.58894
2.41451
2.34574
2.33186
2.16466
2.19989
2.18753
2.24845
2.27781
2.43841
2.47248
2.63114
2.87788
3.06246
3.29392
2.15155
2.02397
1.89377
1.69185
1.61163
1.48371
1.46683
1.40037
1.31576
1.29967
1.3051
1.3066
1.33833
1.41024
1.44766
1.47781
1.6265
1.77949
1.8565
1.95671
0.714652
0.739769
0.629614
0.604987
0.549118
0.550152
0.497066
0.473648
0.432066
0.480647
0.486672
0.470622
0.439333
0.427278
0.500589
0.530816
0.547225
0.574421
0.611794
0.715833
12.598
11.8375
11.1557
10.4964
9.79857
9.40471
8.9698
8.6491
8.43346
8.23624
8.19033
8.26975
8.35696
8.65736
8.91837
9.27065
9.82771
10.4674
11.0426
11.7621
10.6507
10.0564
9.42885
8.87614
8.37812
7.91584
7.56957
7.29814
7.12203
6.98056
6.85553
6.99216
7.09633
7.20654
7.51553
7.89227
8.30862
8.84972
9.42624
9.97706
8.80901
8.32764
7.86683
7.34945
6.87544
6.56539
6.27508
6.05499
5.84405
5.73506
5.72784
5.7699
5.85839
5.93086
6.16294
6.47443
6.79634
7.36598
7.80299
8.16617
7.11253
6.77836
6.32705
5.91646
5.60287
5.27395
5.00933
4.82511
4.72231
4.61736
4.60534
4.60298
4.69348
4.80261
4.95627
5.22998
5.50444
5.88367
6.30233
6.62134
5.45231
5.14734
4.84793
4.51215
4.26702
3.99867
3.80027
3.76166
3.59363
3.50181
3.50785
3.51089
3.59415
3.72633
3.80958
3.8388
4.21376
4.46725
4.79111
5.11605
3.89032
3.69836
3.42639
3.12768
3.02284
2.86367
2.67196
2.55164
2.52616
2.48597
2.42195
2.44042
2.49896
2.6474
2.71873
2.82631
2.95236
3.19784
3.38848
3.52607
2.35838
2.1961
1.97959
1.88147
1.8274
1.70678
1.65464
1.54401
1.5232
1.44982
1.46987
1.49356
1.53402
1.54053
1.62634
1.67759
1.75704
1.93441
2.02429
2.14122
0.755953
0.701005
0.698243
0.596853
0.615761
0.568434
0.578877
0.510099
0.503501
0.510726
0.489217
0.506441
0.469533
0.506065
0.542959
0.634478
0.585508
0.667945
0.737189
0.768469
)
;

boundaryField
{
    hotSide
    {
        type            calculated;
        value           nonuniform List<scalar> 
400
(
6.40369
5.82467
5.19187
4.39476
3.87277
3.39943
3.06154
2.86371
2.8672
2.95276
3.19405
3.62696
4.2213
5.05048
5.99176
7.03756
8.32201
9.83395
11.2831
12.4371
6.29549
5.72788
5.03431
4.34133
3.68693
3.16985
2.85084
2.56428
2.5333
2.57221
2.86347
3.18971
3.7394
4.5299
5.37211
6.49869
7.78757
9.14181
10.6224
11.6802
6.33762
5.6648
4.86679
4.11295
3.49885
2.94347
2.55041
2.29705
2.2092
2.17046
2.45501
2.73845
3.22572
3.88222
4.79496
5.94594
7.09458
8.50927
9.8534
11.0022
6.39534
5.73773
4.87688
4.14261
3.4385
2.92512
2.42678
2.05535
1.9431
1.89283
2.03197
2.36762
2.81137
3.4735
4.26354
5.30676
6.42229
7.86702
9.18777
10.3464
6.5447
5.835
5.02426
4.19702
3.45426
2.85071
2.35805
2.02794
1.73234
1.70341
1.7104
2.01831
2.41839
3.09211
3.94585
4.83748
6.01971
7.30647
8.72176
9.65193
6.63511
6.01941
5.17983
4.31801
3.54043
2.82058
2.31127
1.86621
1.62659
1.56976
1.5696
1.75695
2.07725
2.70997
3.43123
4.52484
5.57892
6.77441
8.13108
9.26111
6.91389
6.16428
5.39262
4.51429
3.65199
2.9473
2.3034
1.80837
1.48565
1.36042
1.42111
1.57175
1.95478
2.44403
3.1019
4.03507
5.18514
6.51254
7.72972
8.82881
7.06825
6.38484
5.55612
4.62004
3.75403
3.01792
2.45654
1.82095
1.53776
1.30771
1.3062
1.41463
1.77706
2.29014
2.93709
3.83724
4.94518
6.17248
7.44137
8.51017
7.29644
6.56788
5.66317
4.741
3.8371
3.13433
2.46608
1.87991
1.46639
1.31449
1.24834
1.30651
1.65854
2.17762
2.77217
3.6075
4.71719
5.98454
7.23914
8.29597
7.37179
6.69121
5.75026
4.88314
4.02333
3.16376
2.48577
1.96656
1.5774
1.34392
1.15776
1.2991
1.60056
2.13762
2.79121
3.58188
4.57609
5.82783
7.155
8.09948
7.49643
6.76105
5.78345
4.82853
3.96986
3.18488
2.46505
1.90462
1.51888
1.25935
1.15259
1.27688
1.57955
1.92771
2.70879
3.50426
4.54376
5.7117
7.09605
8.05358
7.39467
6.69202
5.81738
4.83042
3.92887
3.22161
2.5799
1.8709
1.5868
1.31234
1.21326
1.29192
1.58472
2.15304
2.69985
3.5655
4.61201
5.85311
7.01494
8.13226
7.38403
6.60318
5.69132
4.72169
3.84972
3.16572
2.51618
1.94166
1.55208
1.2715
1.30541
1.4068
1.69598
2.15095
2.8737
3.70526
4.72799
5.95725
7.18285
8.21803
7.24013
6.53715
5.54989
4.68486
3.82229
3.04891
2.45868
1.9515
1.56382
1.34143
1.35018
1.41487
1.78636
2.29336
2.94855
3.85309
4.87841
6.18527
7.46086
8.51636
7.07087
6.37253
5.51842
4.62393
3.79529
3.0789
2.37292
2.00585
1.59948
1.52561
1.49081
1.66499
1.96421
2.47343
3.22193
4.04088
5.20804
6.48107
7.72405
8.77476
6.9107
6.30954
5.44779
4.56537
3.72762
3.15523
2.48295
2.0818
1.73461
1.5959
1.68399
1.83376
2.24867
2.86777
3.58224
4.45596
5.60003
6.82201
8.10939
9.12401
6.92648
6.26328
5.4236
4.56876
3.75071
3.16494
2.61741
2.19177
1.93683
1.91395
1.95051
2.07632
2.60614
3.19691
3.84282