/*--------------------------------*- C++ -*----------------------------------*\
| =========                 |                                                 |
| \\      /  F ield         | OpenFOAM: The Open Source CFD Toolbox           |
|  \\    /   O peration     | Version:  2212                                  |
|   \\  /    A nd           | Website:  www.openfoam.com                      |
|    \\/     M anipulation  |                                                 |
\*---------------------------------------------------------------------------*/
FoamFile
{
    version     2.0;
    format      ascii;
    arch        "LSB;label=32;scalar=64";
    class       volScalarField;
    location    "0";
    object      T;
}
// * * * * * * * * * * * * * * * * * * * * * * * * * * * * * * * * * * * * * //

dimensions      [0 0 0 1 0 0 0];

internalField   nonuniform List<scalar> 
3200
(
340.094
340.988
341.829
342.83
343.176
343.442
343.912
344.012
344.333
344.539
344.348
343.988
343.426
343.073
342.303
341.497
340.609
339.961
338.841
337.861
334.938
335.712
336.435
337.316
337.584
337.785
338.266
338.351
338.614
338.802
338.635
338.291
337.84
337.51
336.778
336.157
335.313
334.799
333.827
333.02
329.696
330.32
330.957
331.719
331.916
332.132
332.468
332.588
332.805
332.96
332.838
332.508
332.154
331.951
331.233
330.71
329.984
329.567
328.776
328.059
324.377
324.889
325.436
326.063
326.145
326.301
326.615
326.755
326.935
327.052
326.936
326.67
326.379
326.305
325.667
325.22
324.598
324.289
323.619
323.008
319.027
319.406
319.85
320.332
320.358
320.497
320.725
320.833
320.994
321.143
321.055
320.78
320.52
320.579
320.019
319.631
319.167
318.98
318.453
317.914
313.65
313.858
314.2
314.567
314.547
314.703
314.793
314.863
315.026
315.162
315.076
314.859
314.695
314.728
314.328
314.06
313.724
313.602
313.235
312.841
308.22
308.281
308.548
308.758
308.768
308.871
308.86
308.965
309.034
309.095
309.053
308.917
308.842
308.834
308.602
308.455
308.236
308.151
307.93
307.745
302.764
302.756
302.866
302.968
302.941
302.989
302.945
303.016
303.023
303.05
303.03
302.983
302.98
302.96
302.874
302.809
302.777
302.716
302.657
302.604
341.303
342.127
342.848
343.692
344.201
344.686
345.125
345.328
345.605
345.53
345.425
345.097
344.543
344.324
343.545
342.812
341.991
340.935
339.916
339.093
335.948
336.677
337.28
338.041
338.43
338.845
339.222
339.414
339.661
339.596
339.478
339.232
338.781
338.546
337.845
337.207
336.521
335.562
334.688
334.037
330.491
331.157
331.642
332.344
332.618
332.902
333.267
333.452
333.622
333.612
333.492
333.292
332.95
332.697
332.058
331.531
330.998
330.152
329.436
328.916
324.985
325.592
325.999
326.572
326.79
326.992
327.246
327.409
327.561
327.575
327.494
327.276
327.055
326.814
326.267
325.786
325.392
324.727
324.123
323.779
319.471
319.897
320.266
320.731
320.899
321.06
321.202
321.362
321.447
321.515
321.466
321.254
321.08
320.933
320.42
320.034
319.788
319.269
318.802
318.578
313.923
314.209
314.495
314.844
314.962
315.056
315.157
315.275
315.355
315.434
315.391
315.23
315.077
315.018
314.582
314.293
314.145
313.753
313.493
313.268
308.364
308.552
308.718
308.927
308.977
309.065
309.105
309.203
309.213
309.302
309.252
309.154
309.042
309.038
308.774
308.561
308.49
308.222
308.136
307.964
302.792
302.867
302.935
303.002
303.001
303.046
303.029
303.11
303.097
303.122
303.082
303.053
303.03
303.04
302.943
302.874
302.844
302.739
302.739
302.643
342.627
343.461
344.379
345.105
345.662
346.144
346.533
346.853
346.967
347.232
347.119
346.613
346.19
345.698
345.22
344.538
343.408
342.466
341.477
340.508
337.06
337.761
338.543
339.23
339.658
340.106
340.41
340.665
340.766
341.015
340.934
340.46
340.129
339.683
339.295
338.669
337.699
336.883
336.031
335.203
331.427
332.06
332.7
333.297
333.619
334.003
334.285
334.468
334.567
334.715
334.705
334.286
334.03
333.61
333.328
332.774
331.982
331.271
330.577
329.915
325.766
326.273
326.839
327.28
327.564
327.858
328.088
328.244
328.348
328.445
328.461
328.1
327.886
327.528
327.299
326.85
326.224
325.644
325.104
324.597
320.066
320.445
320.948
321.263
321.477
321.687
321.845
322.01
322.093
322.155
322.209
321.902
321.725
321.401
321.249
320.9
320.43
319.995
319.574
319.162
314.303
314.606
314.996
315.23
315.393
315.485
315.611
315.773
315.788
315.85
315.906
315.643
315.557
315.265
315.17
314.935
314.649
314.34
314.014
313.718
308.597
308.757
309.003
309.169
309.273
309.314
309.381
309.479
309.476
309.534
309.57
309.374
309.354
309.179
309.097
309
308.783
308.64
308.422
308.245
302.87
302.925
303.028
303.077
303.116
303.124
303.147
303.181
303.179
303.194
303.213
303.122
303.148
303.066
303.052
303.027
302.95
302.9
302.827
302.767
344.128
345.056
346.014
346.666
347.378
347.941
348.279
348.648
348.718
348.701
348.942
348.395
347.974
347.28
346.698
345.922
345.141
344.019
343.016
341.927
338.348
339.117
339.998
340.534
341.138
341.665
341.919
342.272
342.301
342.314
342.5
342.035
341.694
341.032
340.542
339.871
339.17
338.237
337.362
336.493
332.523
333.137
333.895
334.336
334.84
335.352
335.53
335.889
335.845
335.864
336.013
335.672
335.399
334.756
334.349
333.775
333.178
332.432
331.673
330.992
326.693
327.102
327.796
328.116
328.55
328.965
329.127
329.464
329.386
329.394
329.528
329.234
329.014
328.491
328.103
327.646
327.167
326.589
325.945
325.409
320.826
321.089
321.639
321.918
322.246
322.546
322.69
322.949
322.917
322.887
322.989
322.76
322.615
322.189
321.888
321.512
321.128
320.733
320.172
319.813
314.942
315.075
315.47
315.63
315.905
316.1
316.23
316.402
316.389
316.357
316.463
316.305
316.178
315.817
315.627
315.38
315.069
314.829
314.411
314.193
308.973
309.07
309.311
309.335
309.56
309.662
309.756
309.88
309.835
309.828
309.892
309.806
309.722
309.479
309.381
309.27
309.079
308.9
308.681
308.495
303.015
303.04
303.126
303.135
303.207
303.243
303.292
303.309
303.286
303.281
303.32
303.268
303.256
303.174
303.152
303.11
303.041
302.975
302.915
302.862
345.615
346.43
347.522
348.412
349.159
349.535
350.085
350.519
350.645
350.533
350.388
350.194
349.915
348.992
348.383
347.669
346.686
345.728
344.421
343.486
339.676
340.347
341.257
342.078
342.698
343.031
343.465
343.886
343.987
343.881
343.778
343.612
343.362
342.533
341.969
341.383
340.576
339.689
338.543
337.792
333.67
334.221
334.926
335.701
336.158
336.502
336.849
337.244
337.286
337.193
337.125
337.015
336.721
336.041
335.557
335.048
334.411
333.592
332.634
332.069
327.606
328.025
328.639
329.296
329.591
329.901
330.207
330.544
330.551
330.505
330.416
330.356
330.066
329.527
329.14
328.709
328.16
327.502
326.684
326.289
321.516
321.793
322.299
322.844
323.014
323.304
323.552
323.791
323.806
323.778
323.73
323.632
323.381
323.001
322.724
322.321
321.929
321.388
320.794
320.478
315.393
315.559
315.935
316.342
316.449
316.733
316.846
317.031
317.045
317.045
316.999
316.925
316.729
316.427
316.277
315.933
315.673
315.236
314.886
314.64
309.253
309.34
309.586
309.816
309.896
310.075
310.145
310.268
310.279
310.274
310.229
310.158
310.044
309.867
309.794
309.531
309.415
309.111
308.958
308.793
303.114
303.134
303.222
303.293
303.313
303.375
303.409
303.452
303.465
303.465
303.431
303.404
303.392
303.32
303.286
303.199
303.165
303.047
302.999
302.947
346.937
347.976
349.055
349.866
350.726
351.22
351.765
352.314
352.42
352.52
352.224
351.896
351.475
350.763
350.337
349.373
348.331
347.273
346.121
345.095
340.796
341.689
342.604
343.328
344.038
344.443
344.97
345.462
345.537
345.593
345.345
345.015
344.705
344.097
343.743
342.849
341.976
341.045
340.016
339.17
334.625
335.365
336.162
336.778
337.286
337.662
338.106
338.563
338.645
338.664
338.435
338.139
337.887
337.399
337.063
336.3
335.552
334.752
333.844
333.201
328.419
328.996
329.713
330.155
330.512
330.812
331.201
331.597
331.677
331.674
331.47
331.235
331.043
330.646
330.372
329.735
329.119
328.425
327.677
327.192
322.166
322.589
323.161
323.503
323.766
324.002
324.269
324.602
324.697
324.66
324.464
324.334
324.159
323.842
323.639
323.124
322.676
322.121
321.512
321.171
315.866
316.133
316.57
316.817
316.998
317.192
317.356
317.599
317.658
317.626
317.501
317.447
317.261
317.038
316.913
316.516
316.226
315.786
315.376
315.128
309.573
309.688
309.941
310.097
310.206
310.392
310.404
310.564
310.626
310.557
310.516
310.496
310.351
310.238
310.153
309.921
309.744
309.481
309.238
309.087
303.209
303.247
303.339
303.386
303.417
303.494
303.469
303.549
303.567
303.547
303.524
303.524
303.473
303.423
303.411
303.314
303.27
303.159
303.111
303.061
348.36
349.51
350.654
351.586
352.135
352.895
353.517
353.721
354.15
354.166
354.139
353.722
353.262
352.685
352.096
351.256
350.012
349.018
347.728
346.668
342.025
342.98
344.012
344.79
345.263
345.894
346.468
346.608
346.99
347.07
347.026
346.636
346.239
345.693
345.273
344.526
343.403
342.55
341.42
340.545
335.598
336.387
337.327
337.947
338.396
338.898
339.346
339.477
339.82
339.854
339.86
339.561
339.155
338.672
338.409
337.727
336.817
336.062
335.12
334.391
329.181
329.77
330.591
331.044
331.46
331.881
332.189
332.335
332.643
332.663
332.667
332.434
332.041
331.647
331.471
330.899
330.162
329.548
328.77
328.226
322.761
323.233
323.819
324.153
324.491
324.835
325.057
325.159
325.391
325.444
325.447
325.233
324.956
324.576
324.493
324.088
323.526
323.062
322.411
321.994
316.359
316.616
317.016
317.238
317.506
317.763
317.957
317.982
318.139
318.192
318.248
318.051
317.87
317.544
317.523
317.268
316.835
316.504
316.017
315.779
309.864
309.975
310.186
310.341
310.542
310.682
310.796
310.825
310.88
310.951
310.98
310.846
310.755
310.559
310.512
310.4
310.101
309.92
309.614
309.483
303.307
303.343
303.409
303.48
303.555
303.591
303.621
303.627
303.628
303.671
303.686
303.629
303.621
303.561
303.504
303.511
303.376
303.335
303.221
303.184
349.984
350.949
352.065
353.059
353.815
354.419
354.916
355.412
355.758
355.886
355.884
355.255
354.82
354.479
353.73
352.622
351.595
350.475
349.301
348.227
343.413
344.26
345.199
346.05
346.709
347.218
347.675
348.117
348.432
348.521
348.539
347.97
347.58
347.265
346.671
345.736
344.798
343.823
342.833
341.968
336.811
337.529
338.328
338.994
339.578
340.002
340.42
340.753
341.017
341.134
341.143
340.656
340.295
340.03
339.601
338.797
337.972
337.153
336.303
335.621
330.193
330.792
331.454
331.929
332.437
332.763
333.158
333.382
333.647
333.689
333.737
333.326
332.98
332.738
332.485
331.772
331.142
330.508
329.757
329.218
323.532
323.999
324.513
324.867
325.253
325.512
325.854
325.973
326.203
326.185
326.288
325.965
325.659
325.466
325.318
324.731
324.252
323.795
323.2
322.762
316.84
317.166
317.547
317.811
318.075
318.276
318.512
318.594
318.737
318.716
318.812
318.579
318.317
318.187
318.131
317.66
317.342
317.039
316.612
316.29
310.108
310.317
310.53
310.726
310.888
311.001
311.127
311.176
311.227
311.216
311.33
311.216
310.986
310.945
310.889
310.617
310.412
310.253
309.959
309.796
303.391
303.468
303.544
303.61
303.655
303.704
303.715
303.748
303.77
303.74
303.799
303.767
303.686
303.673
303.657
303.563
303.504
303.432
303.345
303.271
351.342
352.469
353.597
354.582
355.39
355.949
356.403
356.898
357.389
357.295
357.467
356.807
356.413
355.874
355.119
354.049
353.092
351.896
350.625
349.809
344.596
345.585
346.53
347.348
348.082
348.56
349.001
349.419
349.82
349.752
349.884
349.261
348.98
348.493
347.861
346.926
346.069
345.027
343.999
343.271
337.832
338.649
339.423
340.11
340.755
341.135
341.545
341.875
342.221
342.185
342.271
341.69
341.484
341.051
340.582
339.8
339.015
338.122
337.288
336.669
330.981
331.701
332.325
332.872
333.372
333.698
334.056
334.315
334.623
334.555
334.625
334.163
333.967
333.543
333.268
332.642
331.973
331.198
330.538
330.019
324.103
324.71
325.185
325.618
325.977
326.249
326.535
326.692
327.015
326.9
326.944
326.638
326.464
326.058
325.901
325.435
324.899
324.254
323.775
323.359
317.228
317.697
317.984
318.323
318.567
318.761
318.978
319.06
319.354
319.252
319.268
319.057
318.972
318.599
318.511
318.232
317.799
317.33
316.983
316.675
310.39
310.639
310.799
311.019
311.138
311.259
311.413
311.444
311.643
311.576
311.602
311.468
311.417
311.137
311.108
310.986
310.695
310.389
310.191
310.005
303.483
303.58
303.623
303.69
303.734
303.78
303.822
303.84
303.89
303.891
303.879
303.852
303.823
303.744
303.722
303.699
303.579
303.458
303.429
303.359
352.796
353.842
354.953
356.001
357.006
357.536
357.973
358.491
358.76
358.809
358.889
358.453
358.015
357.369
356.619
355.718
354.59
353.405
352.154
351.14
345.889
346.732
347.67
348.613
349.456
349.933
350.292
350.742
351.059
351.043
351.171
350.724
350.369
349.797
349.194
348.409
347.414
346.345
345.263
344.408
338.907
339.599
340.382
341.177
341.917
342.317
342.628
342.99
343.312
343.289
343.413
342.985
342.724
342.203
341.736
341.07
340.177
339.272
338.343
337.661
331.893
332.415
333.078
333.736
334.324
334.669
334.933
335.239
335.501
335.482
335.61
335.231
335.026
334.592
334.254
333.671
332.895
332.132
331.406
330.842
324.874
325.237
325.759
326.254
326.761
326.977
327.224
327.443
327.628
327.665
327.769
327.429
327.29
326.991
326.692
326.227
325.589
325.026
324.432
324.033
317.787
318.081
318.426
318.777
319.178
319.306
319.498
319.619
319.766
319.784
319.874
319.6
319.566
319.342
319.085
318.754
318.311
317.858
317.488
317.212
310.695
310.884
311.079
311.264
311.53
311.589
311.715
311.814
311.883
311.869
311.931
311.754
311.796
311.625
311.485
311.301
311.005
310.739
310.518
310.366
303.576
303.66
303.702
303.769
303.879
303.879
303.925
303.968
303.978
303.963
303.999
303.932
303.953
303.887
303.839
303.785
303.679
303.607
303.532
303.479
354.015
354.996
356.193
357.285
358.249
358.814
359.393
359.861
360.13
360.179
360.326
360.079
359.54
358.793
357.86
356.991
355.72
354.892
353.493
352.256
346.944
347.755
348.807
349.742
350.569
351.088
351.563
351.972
352.232
352.228
352.359
352.184
351.693
351.018
350.23
349.461
348.385
347.663
346.448
345.446
339.776
340.568
341.379
342.184
342.879
343.325
343.696
344.032
344.306
344.225
344.388
344.276
343.811
343.211
342.574
341.914
341.035
340.349
339.36
338.587
332.582
333.297
333.898
334.541
335.1
335.484
335.762
336.043
336.314
336.219
336.363
336.3
335.872
335.402
334.896
334.359
333.646
333.056
332.234
331.679
325.393
325.967
326.381
326.868
327.347
327.629
327.867
328.072
328.267
328.207
328.299
328.324
327.923
327.546
327.198
326.748
326.201
325.748
325.08
324.724
318.176
318.561
318.881
319.206
319.562
319.759
319.928
320.089
320.208
320.164
320.223
320.264
319.95
319.661
319.44
319.116
318.74
318.403
317.924
317.73
310.918
311.157
311.351
311.551
311.775
311.852
312.001
312.104
312.148
312.118
312.153
312.216
311.971
311.794
311.65
311.491
311.254
311.081
310.765
310.664
303.659
303.74
303.814
303.878
303.961
303.981
304.03
304.06
304.064
304.04
304.074
304.105
303.99
303.969
303.925
303.853
303.773
303.725
303.613
303.572
354.972
356.281
357.32
358.53
359.494
360.301
360.707
361.207
361.297
361.586
361.638
361.362
360.737
360.282
359.338
358.354
357.102
355.987
354.486
353.415
347.785
348.9
349.768
350.863
351.652
352.378
352.71
353.139
353.229
353.464
353.489
353.278
352.71
352.341
351.557
350.686
349.578
348.587
347.299
346.377
340.524
341.507
342.2
343.111
343.766
344.44
344.669
344.999
345.109
345.327
345.291
345.125
344.658
344.371
343.703
342.986
341.996
341.231
340.078
339.315
333.165
334.085
334.618
335.287
335.872
336.42
336.614
336.852
336.991
337.18
337.063
336.975
336.608
336.349
335.792
335.235
334.402
333.753
332.82
332.227
325.818
326.603
326.971
327.479
327.981
328.361
328.522
328.697
328.802
328.979
328.832
328.76
328.542
328.311
327.839
327.465
326.75
326.262
325.574
325.095
318.478
319.046
319.308
319.671
320.023
320.276
320.408
320.536
320.591
320.753
320.592
320.586
320.382
320.279
319.904
319.631
319.119
318.759
318.299
317.929
311.108
311.47
311.632
311.815
311.998
312.179
312.296
312.367
312.393
312.503
312.368
312.385
312.28
312.193
311.96
311.816
311.48
311.27
311.032
310.74
303.732
303.846
303.887
303.976
304.038
304.083
304.147
304.16
304.166
304.188
304.139
304.152
304.124
304.095
304.022
303.98
303.853
303.783
303.707
303.581
356.012
357.12
358.503
359.677
360.613
361.379
361.978
362.43
362.853
362.574
362.893
362.595
361.995
361.395
360.678
359.622
358.486
357.061
355.72
354.431
348.72
349.632
350.801
351.783
352.662
353.27
353.803
354.16
354.566
354.321
354.614
354.347
353.831
353.284
352.668
351.741
350.744
349.518
348.377
347.274
341.311
342.083
343.111
343.893
344.69
345.17
345.579
345.911
346.301
346.001
346.279
346.008
345.66
345.119
344.616
343.845
343
341.928
340.989
340.114
333.86
334.498
335.363
335.977
336.647
337.009
337.315
337.622
337.954
337.651
337.909
337.641
337.376
336.957
336.544
335.872
335.227
334.366
333.562
332.888
326.325
326.881
327.553
328.073
328.568
328.79
329.099
329.287
329.507
329.331
329.56
329.284
329.068
328.775
328.491
327.888
327.421
326.77
326.152
325.628
318.823
319.266
319.73
320.082
320.469
320.619
320.823
320.924
321.076
321
321.189
320.944
320.781
320.563
320.411
319.922
319.595
319.178
318.739
318.344
311.293
311.61
311.879
312.073
312.319
312.384
312.526
312.562
312.689
312.617
312.771
312.606
312.466
312.368
312.259
311.963
311.742
311.518
311.27
311.033
303.8
303.905
304.016
304.041
304.142
304.155
304.197
304.214
304.25
304.232
304.286
304.228
304.186
304.139
304.117
304.008
303.936
303.883
303.793
303.71
356.967
358.133
359.495
360.556
361.803
362.511
363.094
363.597
363.639
363.831
363.773
363.534
363.122
362.432
361.73
360.665
359.606
358.047
356.812
355.283
349.521
350.437
351.689
352.607
353.666
354.309
354.767
355.173
355.225
355.338
355.337
355.174
354.796
354.199
353.607
352.655
351.751
350.415
349.329
348.033
342.005
342.734
343.807
344.639
345.496
346.054
346.417
346.728
346.789
346.89
346.903
346.767
346.44
345.915
345.457
344.628
343.868
342.743
341.808
340.771
334.414
334.986
335.87
336.662
337.247
337.758
338.037
338.276
338.346
338.408
338.461
338.356
338.065
337.598
337.268
336.576
335.98
335.014
334.26
333.423
326.813
327.275
327.927
328.551
329.024
329.391
329.624
329.805
329.857
329.938
329.985
329.901
329.651
329.259
329.003
328.525
328.035
327.29
326.662
326.036
319.165
319.488
319.984
320.413
320.759
321.057
321.208
321.25
321.336
321.407
321.489
321.39
321.245
320.952
320.739
320.425
320.108
319.557
319.057
318.616
311.502
311.712
312
312.262
312.467
312.681
312.772
312.747
312.821
312.868
312.929
312.87
312.798
312.565
312.415
312.25
312.098
311.76
311.472
311.183
303.864
303.929
304.026
304.108
304.19
304.237
304.285
304.261
304.311
304.312
304.347
304.317
304.282
304.208
304.164
304.086
304.07
303.952
303.875
303.759
357.783
358.858
360.396
361.691
362.81
363.557
363.978
364.517
364.805
365.094
364.999
364.604
364.072
363.374
362.68
361.555
360.422
359.045
357.678
356.315
350.182
351.056
352.45
353.586
354.544
355.13
355.495
356.027
356.241
356.457
356.451
356.073
355.6
355.011
354.388
353.429
352.407
351.199
350.068
348.898
342.59
343.279
344.463
345.449
346.225
346.758
347.028
347.474
347.681
347.794
347.848
347.513
347.13
346.579
346.11
345.28
344.446
343.362
342.426
341.457
334.922
335.476
336.421
337.264
337.867
338.357
338.569
338.904
339.062
339.115
339.216
338.948
338.63
338.124
337.762
337.121
336.451
335.54
334.757
333.984
327.23
327.655
328.352
329.098
329.499
329.878
330.07
330.327
330.421
330.463
330.521
330.332
330.113
329.691
329.394
328.946
328.429
327.662
327.062
326.467
319.473
319.803
320.281
320.838
321.11
321.382
321.506
321.696
321.756
321.76
321.82
321.716
321.562
321.223
321.034
320.77
320.342
319.764
319.344
318.916
311.727
311.896
312.18
312.548
312.706
312.857
312.934
313.052
313.087
313.045
313.127
313.075
312.976
312.771
312.641
312.496
312.229
311.84
311.618
311.346
303.948
303.982
304.083
304.227
304.26
304.301
304.328
304.378
304.37
304.36
304.393
304.391
304.364
304.28
304.249
304.197
304.076
303.966
303.887
303.799
358.396
359.484
361.152
362.584
363.542
364.19
365.034
365.596
365.837
365.947
365.871
365.543
365.088
364.335
363.612
362.343
361.219
359.83
358.552
357.074
350.785
351.61
353.044
354.313
355.146
355.708
356.448
356.934
357.142
357.221
357.194
356.893
356.543
355.819
355.228
354.083
353.177
351.882
350.817
349.547
343.089
343.756
344.937
346.014
346.748
347.229
347.813
348.238
348.388
348.465
348.456
348.205
347.916
347.255
346.834
345.845
345.08
343.922
343.062
341.941
335.335
335.851
336.822
337.72
338.325
338.729
339.197
339.506
339.65
339.652
339.69
339.46
339.252
338.681
338.364
337.541
336.939
335.95
335.277
334.374
327.558
327.929
328.667
329.424
329.871
330.198
330.527
330.798
330.874
330.861
330.882
330.731
330.537
330.141
329.888
329.275
328.814
327.992
327.469
326.792
319.75
320.007
320.523
321.071
321.385
321.625
321.817
322.023
322.115
322.06
322.08
321.98
321.83
321.606
321.402
320.972
320.664
320.034
319.616
319.142
311.918
312.047
312.363
312.663
312.848
313.013
313.111
313.243
313.306
313.279
313.28
313.197
313.139
312.999
312.872
312.599
312.427
312.04
311.757
311.492
304.016
304.037
304.128
304.239
304.299
304.365
304.386
304.439
304.494
304.471
304.448
304.42
304.402
304.369
304.315
304.22
304.169
304.036
303.936
303.872
358.96
360.073
361.785
363.062
364.108
364.807
365.795
366.227
366.415
366.607
366.683
366.293
365.615
365.088
364.16
362.989
361.937
360.671
359.386
357.95
351.19
352.139
353.656
354.77
355.645
356.236
357.142
357.472
357.618
357.847
357.915
357.536
356.949
356.476
355.679
354.646
353.756
352.661
351.587
350.357
343.411
344.139
345.453
346.42
347.137
347.65
348.414
348.727
348.828
349.014
349.092
348.726
348.277
347.868
347.197
346.283
345.539
344.653
343.724
342.722
335.629
336.142
337.227
338.009
338.586
339.078
339.679
339.93
340.024
340.183
340.254
339.946
339.564
339.256
338.67
337.937
337.285
336.557
335.817
335.005
327.806
328.114
329.007
329.59
330.068
330.448
330.892
331.123
331.179
331.281
331.337
331.121
330.766
330.596
330.1
329.536
329
328.454
327.904
327.251
319.914
320.092
320.748
321.145
321.482
321.806
322.03
322.278
322.348
322.369
322.406
322.263
321.979
321.905
321.542
321.074
320.719
320.38
319.941
319.496
311.956
312.101
312.476
312.723
312.905
313.141
313.227
313.365
313.45
313.443
313.454
313.402
313.169
313.153
312.941
312.648
312.467
312.262
311.991
311.689
304.013
304.057
304.208
304.254
304.329
304.434
304.424
304.458
304.518
304.508
304.511
304.504
304.422
304.425
304.337
304.238
304.186
304.11
304
303.897
359.553
360.929
362.246
363.561
364.422
365.3
366.182
366.957
366.898
367.332
367.406
366.716
366.214
365.806
364.976
363.754
362.505
361.143
359.674
358.537
351.751
352.878
354.068
355.145
355.906
356.637
357.428
358.111
358.031
358.412
358.515
357.9
357.431
357.08
356.401
355.31
354.251
353.073
351.804
350.843
343.913
344.756
345.825
346.712
347.361
348.008
348.651
349.226
349.13
349.463
349.612
349.014
348.619
348.291
347.812
346.881
345.99
344.954
343.936
343.124
336.045
336.655
337.548
338.232
338.8
339.356
339.872
340.334
340.279
340.522
340.649
340.133
339.834
339.517
339.17
338.432
337.709
336.8
335.979
335.35
328.108
328.503
329.223
329.772
330.255
330.665
331.055
331.412
331.401
331.54
331.656
331.222
331.039
330.734
330.489
329.948
329.375
328.651
328.006
327.551
320.1
320.339
320.897
321.302
321.661
321.918
322.221
322.478
322.446
322.54
322.648
322.33
322.21
321.95
321.782
321.441
320.989
320.481
319.974
319.714
312.057
312.212
312.555
312.803
313.012
313.18
313.364
313.513
313.492
313.523
313.599
313.422
313.366
313.172
313.079
312.885
312.629
312.304
311.983
311.819
304.045
304.095
304.204
304.292
304.364
304.432
304.475
304.552
304.528
304.51
304.554
304.489
304.486
304.42
304.365
304.323
304.236
304.131
304.031
303.958
359.91
361.393
362.889
364.026
364.966
365.815
366.755
367.207
367.453
367.775
367.721
367.395
366.849
366.288
365.407
364.199
362.995
361.604
360.12
358.775
352.033
353.251
354.55
355.578
356.386
357.076
357.873
358.309
358.543
358.811
358.734
358.457
358.029
357.526
356.814
355.735
354.7
353.418
352.151
351.053
344.135
345.118
346.22
347.058
347.758
348.35
349.039
349.395
349.585
349.802
349.768
349.494
349.16
348.724
348.135
347.221
346.376
345.274
344.202
343.338
336.197
336.962
337.872
338.549
339.14
339.615
340.126
340.457
340.615
340.782
340.738
340.535
340.272
339.888
339.407
338.7
338.021
337.099
336.19
335.511
328.156
328.739
329.515
330.058
330.502
330.874
331.206
331.504
331.603
331.727
331.698
331.549
331.358
331.044
330.667
330.141
329.626
328.901
328.183
327.676
320.105
320.532
321.136
321.501
321.818
322.106
322.289
322.536
322.617
322.703
322.668
322.524
322.399
322.185
321.912
321.57
321.224
320.64
320.152
319.761
312.076
312.363
312.708
312.946
313.101
313.303
313.394
313.566
313.591
313.683
313.626
313.528
313.439
313.313
313.2
312.969
312.762
312.382
312.13
311.903
304.043
304.162
304.244
304.331
304.395
304.46
304.498
304.518
304.535
304.599
304.578
304.547
304.512
304.456
304.434
304.333
304.277
304.163
304.071
303.976
360.338
361.616
362.998
364.172
365.25
366.186
366.946
367.4
367.902
367.967
368.093
367.858
367.186
366.745
365.561
364.544
363.37
361.716
360.278
359.064
352.38
353.479
354.696
355.666
356.645
357.41
358.093
358.451
358.965
358.959
359.085
358.865
358.341
357.922
356.885
355.982
355.027
353.593
352.308
351.303
344.427
345.269
346.348
347.212
347.986
348.652
349.225
349.505
349.948
349.925
350.022
349.867
349.479
349.129
348.182
347.427
346.661
345.401
344.3
343.531
336.411
337.065
337.953
338.758
339.302
339.821
340.324
340.57
340.882
340.882
341.016
340.818
340.557
340.26
339.51
338.905
338.298
337.154
336.292
335.726
328.371
328.84
329.527
330.234
330.581
330.985
331.392
331.614
331.809
331.832
331.937
331.75
331.614
331.337
330.817
330.303
329.842
328.917
328.308
327.86
320.316
320.582
321.093
321.615
321.824
322.176
322.43
322.646
322.737
322.747
322.833
322.71
322.633
322.427
322.09
321.714
321.332
320.678
320.262
319.949
312.232
312.378
312.712
312.98
313.119
313.342
313.495
313.62
313.678
313.676
313.733
313.646
313.597
313.495
313.299
313.053
312.843
312.442
312.215
312
304.119
304.143
304.268
304.342
304.398
304.488
304.524
304.549
304.581
304.599
304.619
304.583
304.569
304.511
304.473
304.365
304.315
304.18
304.105
304.02
)
;

boundaryField
{
    hotSide
    {
        type            fixedGradient;
        gradient        nonuniform List<scalar> 
400
(
405.635
423.081
440.317
457.267
473.853
489.995
505.618
520.643
534.997
548.606
561.4
573.315
584.287
594.258
603.178
610.998
617.678
623.183
627.486
630.565
415.565
433.539
451.301
468.773
485.873
502.523
518.641
534.148
548.968
563.025
576.247
588.565
599.917
610.241
619.484
627.598
634.539
640.273
644.769
648.007
424.347
442.8
461.042
478.991
496.563
513.676
530.249
546.199
561.447
575.917
589.533
602.225
613.928
624.58
634.124
642.512
649.698
655.646
660.326
663.716
431.929
450.814
469.486
487.862
505.858
523.39
540.372
556.722
572.358
587.2
601.174
614.206
626.229
637.18
647.001
655.64
663.053
669.201
674.053
677.585
438.276
457.537
476.586
495.339
513.708
531.608
548.952
565.655
581.634
596.809
611.101
624.436
636.745
647.964
658.033
666.899
674.517
680.848
685.858
689.523
443.359
462.94
482.311
501.385
520.073
538.289
555.944
572.951
589.227
604.688
619.256
632.854
645.413
656.866
667.154
676.221
684.022
690.515
695.667
699.455
447.159
467.003
486.637
505.975
524.926
543.402
561.314
578.575
595.097
610.798
625.596
639.417
652.186
663.838
674.312
683.551
691.509
698.144
703.423
707.319
449.668
469.713
489.551
509.093
528.249
546.928
565.042
582.501
599.219
615.11
630.093
644.091
657.03
668.844
679.469
688.851
696.939
703.693
709.079
713.069
450.884
471.069
491.049
510.734
530.034
548.858
567.117
584.719
601.578
617.608
632.727
646.857
659.924
671.86
682.602
692.093
700.284
707.134
712.606
716.676
450.815
471.075
491.134
510.9
530.283
549.193
567.537
585.226
602.172
618.288
633.494
647.709
660.86
672.877
683.698
693.266
701.531
708.451
713.989
718.121
449.471
469.745
489.818
509.603
529.007
547.94
566.311
584.029
601.006
617.157
632.398
646.65
659.84
671.898
682.76
692.371
700.679
707.643
713.226
717.402
446.874
467.095
487.121
506.861
526.224
545.12
563.457
581.146
598.099
614.229
629.454
643.696
656.879
668.936
679.802
689.421
697.742
704.723
710.328
714.53
443.047
463.153
483.067
502.699
521.959
540.757
559.001
576.603
593.475
609.532
624.69
638.873
652.004
664.017
674.848
684.44
692.743
699.715
705.319
709.53
438.02
457.948
477.688
497.15
516.245
534.884
552.977
570.435
587.171
603.101
618.142
632.216
645.252
657.179
667.937
677.467
685.721
692.656
698.237
702.437
431.828
451.517
471.021
490.252
509.123
527.544
545.428
562.685
579.231
594.981
609.854
623.774
636.669
648.47
659.116
668.55
676.724
683.596
689.131
693.302
424.513
443.902
463.11
482.052
500.639
518.785
536.403
553.405
569.707
585.226
599.884
613.603
626.314
637.948
648.445
657.751
665.815
672.598
678.065
682.189
416.119
435.151
454.006
472.601
490.848
508.663
525.96
542.654
558.662
573.902
588.296
601.771
614.255
625.684
635.997
645.141
653.068
659.736
665.113
669.172
406.697
425.318
443.765
461.958
479.812
497.243
514.168
530.503
546.167
561.08
575.167
588.354
600.573
611.76
621.855
630.806
638.567
645.097
650.364
654.341
396.306
414.462
432.449
450.189
467.598
484.595
501.099
517.028
532.302
546.845
560.582
573.442
585.358
596.267
606.112
614.842
622.411
628.78
633.918
637.798
385.006
402.649
420.129
437.367
454.284
470.801
486.838
502.316
517.158
531.29
544.637
557.133
568.71
579.309
588.875
597.356
604.71
610.897
615.888
619.657
)
;
    }
    coldSide
    {
        type            mixed;
        refValue        uniform 300;
        refGradient     uniform 0;
        valueFraction   uniform 0.991591;
        source          uniform 0;
        value           nonuniform List<scalar> 
400
(
300.023
300.023
300.024
300.025
300.026
300.027
300.028
300.029
300.029
300.03
300.031
300.031
300.032
300.032
300.033
300.034
300.034
300.034
300.034
300.035
300.023
300.024
300.025
300.026
300.026
300.027
300.028
300.029
300.03
300.031
300.031
300.032
300.033
300.033
300.033
300.034
300.034
300.034
300.035
300.035
300.024
300.025
300.025
300.026