/*--------------------------------*- C++ -*----------------------------------*\
| =========                 |                                                 |
| \\      /  F ield         | OpenFOAM: The Open Source CFD Toolbox           |
|  \\    /   O peration     | Version:  2212                                  |
|   \\  /    A nd           | Website:  www.openfoam.com                      |
|    \\/     M anipulation  |                                                 |
\*---------------------------------------------------------------------------*/
FoamFile
{
    version     2.0;
    format      ascii;
    arch        "LSB;label=32;scalar=64";
    class       volScalarField;
    location    "0";
    object      stateMean;
}
// * * * * * * * * * * * * * * * * * * * * * * * * * * * * * * * * * * * * * //

dimensions      [0 0 0 1 0 0 0];

internalField   nonuniform List<scalar> 
3200
(
325.285
324.596
324.104
323.937
324.243
324.614
325.087
325.617
325.972
326.129
326.283
326.117
325.707
325.21
324.616
324.072
323.689
323.691
323.904
324.567
322.089
321.463
321.052
320.985
321.121
321.469
322.016
322.382
322.635
322.843
322.842
322.723
322.412
322.002
321.483
321.09
320.742
320.632
320.882
321.358
318.775
318.243
317.931
317.807
317.992
318.344
318.628
318.951
319.308
319.412
319.422
319.397
319.114
318.748
318.283
317.919
317.667
317.597
317.825
318.147
315.43
315.011
314.743
314.678
314.828
315.016
315.272
315.624
315.925
315.994
316.032
315.905
315.736
315.391
315.13
314.707
314.483
314.438
314.594
314.933
311.997
311.789
311.513
311.419
311.527
311.8
311.999
312.249
312.386
312.441
312.475
312.434
312.237
312.011
311.825
311.525
311.37
311.28
311.43
311.696
308.716
308.413
308.237
308.222
308.343
308.44
308.531
308.735
308.972
308.996
309.004
308.864
308.797
308.736
308.427
308.232
308.146
308.107
308.186
308.288
305.193
305.09
304.957
304.899
305.004
305.064
305.185
305.244
305.336
305.441
305.385
305.409
305.301
305.273
305.069
304.936
304.879
304.916
304.963
305.028
301.729
301.669
301.665
301.643
301.618
301.623
301.648
301.77
301.781
301.765
301.791
301.828
301.791
301.753
301.69
301.664
301.631
301.669
301.615
301.724
325.434
324.797
324.31
324.263
324.538
324.855
325.494
326.001
326.279
326.589
326.688
326.525
326.162
325.549
324.912
324.403
323.973
323.872
324.142
324.7
322.224
321.601
321.27
321.123
321.373
321.814
322.083
322.592
322.982
323.206
323.235
323.152
322.711
322.355
321.785
321.33
320.871
320.803
321.107
321.575
318.954
318.471
318.065
318.127
318.236
318.46
318.895
319.29
319.595
319.741
319.861
319.678
319.429
318.981
318.528
318.09
317.842
317.752
317.859
318.273
315.571
315.153
314.867
314.891
315.014
315.291
315.551
315.848
316.135
316.26
316.271
316.143
315.908
315.629
315.245
314.965
314.627
314.625
314.705
315.098
312.141
311.821
311.603
311.624
311.725
311.957
312.159
312.394
312.56
312.612
312.676
312.685
312.386
312.208
311.955
311.633
311.422
311.338
311.524
311.715
308.621
308.45
308.367
308.315
308.398
308.511
308.692
308.86
308.995
309.111
309.106
309.095
308.882
308.767
308.466
308.299
308.207
308.186
308.232
308.422
305.176
305.111
305.019
305.039
305.073
305.063
305.191
305.316
305.41
305.487
305.441
305.529
305.371
305.275
305.128
305.008
304.975
304.899
304.948
305.018
301.696
301.676
301.619
301.739
301.642
301.682
301.715
301.771
301.855
301.892
301.904
301.827
301.805
301.778
301.699
301.72
301.623
301.642
301.629
301.742
325.874
325.184
324.755
324.622
324.954
325.433
326.013
326.6
327.008
327.365
327.354
327.174
326.845
326.281
325.626
324.89
324.529
324.323
324.554
325.043
322.639
321.977
321.609
321.583
321.743
322.209
322.72
323.081
323.526
323.817
323.834
323.691
323.323
322.921
322.259
321.673
321.429
321.261
321.458
321.847
319.093
318.681
318.434
318.413
318.575
318.837
319.285
319.734
320.101
320.183
320.247
320.189
319.854
319.49
318.987
318.52
318.169
318.112
318.29
318.615
315.77
315.392
315.122
315.136
315.239
315.555
315.819
316.218
316.441
316.577
316.68
316.597
316.3
315.981
315.564
315.234
314.919
314.843
314.995
315.226
312.333
312.046
311.864
311.809
311.875
312.169
312.438
312.679
312.914
313.011
313.072
312.92
312.713
312.458
312.145
311.896
311.734
311.594
311.717
311.937
308.934
308.552
308.425
308.465
308.514
308.686
308.922
309.059
309.168
309.274
309.284
309.293
309.107
308.983
308.752
308.504
308.335
308.323
308.374
308.52
305.36
305.162
305.115
305.122
305.169
305.261
305.323
305.422
305.569
305.571
305.634
305.693
305.53
305.489
305.222
305.169
305.066
304.996
305.017
305.173
301.813
301.752
301.702
301.705
301.75
301.821
301.772
301.851
301.842
301.85
301.859
301.851
301.84
301.793
301.731
301.721
301.717
301.786
301.634
301.77
326.42
325.712
325.309
325.348
325.688
326.07
326.692
327.246
327.788
328.097
328.213
328.045
327.587
327.052
326.203
325.655
325.101
324.974
325.187
325.686
323.011
322.535
322.066
322.149
322.367
322.793
323.28
323.771
324.257
324.522
324.535
324.385
324.036
323.472
322.91
322.284
321.961
321.779
321.886
322.313
319.558
319.121
318.851
318.813
319.06
319.35
319.786
320.235
320.627
320.927
320.871
320.707
320.458
319.986
319.544
319.015
318.695
318.526
318.684
318.944
316.132
315.746
315.498
315.457
315.659
315.899
316.294
316.646
316.864
317.116
317.207
317.022
316.744
316.543
315.981
315.531
315.31
315.181
315.359
315.581
312.536
312.318
312.091
312.095
312.22
312.455
312.772
312.987
313.261
313.315
313.451
313.335
313.175
312.84
312.47
312.168
311.926
311.875
312.036
312.297
308.973
308.765
308.69
308.755
308.729
308.903
309.113
309.278
309.505
309.56
309.601
309.496
309.349
309.19
308.971
308.8
308.538
308.594
308.588
308.711
305.404
305.375
305.258
305.244
305.282
305.346
305.503
305.611
305.722
305.835
305.784
305.778
305.705
305.486
305.447
305.251
305.152
305.097
305.224
305.276
301.801
301.735
301.759
301.769
301.728
301.814
301.874
301.886
301.96
301.882
301.985
301.916
301.866
301.773
301.773
301.8
301.693
301.755
301.751
301.8
327.213
326.575
326.226
326.09
326.444
326.941
327.448
328.174
328.668
328.98
329.124
328.894
328.519
327.879
327.155
326.496
325.877
325.665
325.963
326.292
323.713
323.127
322.927
322.815
323.044
323.49
323.999
324.555
324.982
325.231
325.349
325.24
324.88
324.255
323.627
323.037
322.518
322.434
322.629
322.973
320.143
319.668
319.396
319.458
319.621
319.972
320.363
320.851
321.289
321.571
321.564
321.45
321.083
320.654
320.083
319.643
319.198
319.077
319.21
319.53
316.516
316.239
315.948
316.017
316.193
316.48
316.73
317.147
317.431
317.619
317.664
317.624
317.294
316.97
316.567
316.173
315.763
315.76
315.824
316.034
312.896
312.645
312.488
312.407
312.621
312.847
313.053
313.438
313.681
313.802
313.831
313.741
313.56
313.29
312.86
312.543
312.373
312.236
312.339
312.491
309.336
309.157
308.946
308.963
309.069
309.254
309.366
309.612
309.777
309.864
310.023
309.848
309.746
309.469
309.278
309.015
308.833
308.809
308.808
309.034
305.585
305.485
305.43
305.325
305.493
305.551
305.687
305.785
305.836
305.918
305.986
305.891
305.799
305.741
305.626
305.375
305.33
305.255
305.251
305.367
301.915
301.859
301.811
301.753
301.889
301.867
301.802
301.844
301.924
301.964
301.99
302.004
302.012
301.963
301.877
301.881
301.784
301.812
301.813
301.794
328.061
327.446
327.065
327.093
327.327
327.846
328.448
329.059
329.616
330.019
330.199
329.882
329.524
328.799
328.049
327.391
326.797
326.644
326.752
327.153
324.421
323.935
323.616
323.624
323.836
324.273
324.82
325.403
325.816
326.124
326.322
326.079
325.735
325.115
324.415
323.803
323.396
323.158
323.368
323.655
320.803
320.403
320.166
320.166
320.267
320.636
321.05
321.543
322.034
322.191
322.351
322.233
321.926
321.287
320.77
320.31
319.982
319.737
319.826
320.147
317.049
316.717
316.565
316.48
316.754
317.044
317.269
317.642
318.008
318.217
318.456
318.183
317.916
317.606
317.14
316.689
316.383
316.253
316.284
316.591
313.326
313.163
312.908
312.829
313.055
313.291
313.555
313.825
313.997
314.336
314.358
314.188
314.002
313.732
313.356
312.994
312.877
312.719
312.757
312.928
309.529
309.438
309.255
309.208
309.303
309.486
309.787
309.838
310.137
310.185
310.264
310.186
310.062
309.815
309.618
309.294
309.162
309.112
309.076
309.235
305.799
305.66
305.535
305.564
305.612
305.728
305.883
305.944
306.103
306.266
306.167
306.098
306.082
305.852
305.761
305.634
305.531
305.407
305.523
305.489
301.88
301.875
301.798
301.83
301.916
301.968
301.963
301.998
302.034
301.993
302.083
302.043
302.012
302.024
301.985
301.894
301.867
301.804
301.786
301.924
328.974
328.411
327.993
327.989
328.299
328.837
329.346
330.061
330.693
331.016
331.151
330.999
330.473
329.814
329.051
328.37
327.788
327.628
327.639
328.062
325.246
324.795
324.498
324.601
324.616
325.097
325.661
326.189
326.663
327.052
327.144
327.022
326.642
325.996
325.342
324.742
324.275
324.112
324.187
324.496
321.459
321.159
320.912
320.891
320.999
321.351
321.859
322.267
322.664
323.039
323.124
323.011
322.667
322.083
321.616
321.024
320.718
320.47
320.522
320.768
317.685
317.292
317.128
317.169
317.3
317.533
317.964
318.313
318.625
318.87
318.953
318.824
318.606
318.165
317.752
317.31
317.012
316.822
316.871
317.104
313.792
313.556
313.38
313.368
313.464
313.737
313.969
314.294
314.59
314.713
314.938
314.658
314.551
314.165
313.869
313.511
313.273
313.215
313.175
313.352
309.929
309.754
309.619
309.576
309.807
309.819
310.044
310.235
310.493
310.593
310.6
310.545
310.328
310.218
309.922
309.583
309.538
309.476
309.486
309.574
305.932
305.947
305.711
305.698
305.926
305.884
306.062
306.143
306.236
306.364
306.413
306.327
306.21
306.113
305.946
305.825
305.712
305.652
305.709
305.747
302.01
301.972
301.937
301.86
301.975
301.963
302.064
302.11
302.07
302.124
302.114
302.121
302.15
302.026
302.021
301.961
301.905
301.904
301.95
301.944
330.136
329.537
329.181
329.188
329.391
329.856
330.381
331.011
331.553
332.067
332.173
332.035
331.593
330.89
330.112
329.346
328.925
328.646
328.743
329.051
326.157
325.746
325.435
325.422
325.62
326.025
326.52
327.08
327.511
327.935
328.01
327.936
327.484
326.898
326.208
325.616
325.174
324.999
325.066
325.34
322.264
321.842
321.576
321.656
321.829
322.112
322.625
323.012
323.403
323.772
323.967
323.721
323.35
322.925
322.341
321.814
321.378
321.229
321.435
321.498
318.359
317.982
317.868
317.739
317.933
318.26
318.529
318.908
319.292
319.511
319.641
319.464
319.227
318.829
318.304
317.866
317.593
317.496
317.532
317.771
314.265
314.046
313.891
313.887
314.007
314.16
314.509
314.803
315.042
315.228
315.325
315.224
314.973
314.704
314.332
314.045
313.758
313.709
313.761
313.78
310.221
310.063
310.009
309.951
310.049
310.16
310.442
310.624
310.821
310.95
310.935
310.953
310.785
310.507
310.275
310.027
309.839
309.836
309.798
309.925
306.176
306.103
305.983
305.961
306.017
306.076
306.173
306.423
306.502
306.62
306.664
306.669
306.463
306.379
306.188
306.023
305.862
305.921
305.918
305.971
302.061
302.078
302.032
302.118
302.048
302.021
302.074
302.119
302.203
302.196
302.236
302.171
302.176
302.136
302.044
301.971
301.937
301.946
301.951
302.011
331.134
330.613
330.311
330.286
330.463
330.79
331.466
332.089
332.678
333.044
333.239
333.095
332.579
331.914
331.11
330.503
329.933
329.673
329.805
330.111
327.137
326.714
326.435
326.386
326.586
326.963
327.456
328.034
328.462
328.828
328.959
328.775
328.449
327.769
327.18
326.525
326.174
325.974
326.057
326.272
323.086
322.748
322.549
322.504
322.649
323.04
323.37
323.843
324.265
324.56
324.662
324.479
324.189
323.645
323.089
322.599
322.215
322.107
322.088
322.341
318.996
318.751
318.659
318.485
318.552
318.859
319.262
319.52
319.965
320.108
320.254
320.211
319.855
319.416
318.96
318.598
318.317
318.105
318.216
318.351
314.818
314.605
314.474
314.439
314.599
314.708
315.019
315.28
315.535
315.772
315.769
315.771
315.554
315.108
314.797
314.576
314.347
314.146
314.194
314.356
310.561
310.502
310.326
310.292
310.509
310.591
310.706
310.962
311.199
311.191
311.413
311.252
311.037
310.825
310.678
310.414
310.206
310.143
310.236
310.258
306.376
306.326
306.19
306.169
306.266
306.327
306.453
306.537
306.68
306.841
306.778
306.805
306.699
306.578
306.395
306.263
306.187
306.127
306.157
306.12
302.092
302.155
302.116
302.024
302.132
302.098
302.203
302.151
302.208
302.312
302.277
302.315
302.283
302.172
302.157
302.084
302.062
302.099
302.122
302.137
332.181
331.785
331.512
331.48
331.591
332.034
332.489
333.065
333.655
334.13
334.221
334.024
333.629
332.961
332.216
331.623
330.991
330.878
330.885
331.186
328.135
327.775
327.498
327.45
327.646
327.879
328.426
328.858
329.393
329.726
329.856
329.746
329.274
328.8
328.069
327.518
327.128
326.896
326.991
327.121
323.951
323.54
323.36
323.283
323.495
323.755
324.164
324.541
324.935
325.256
325.405
325.3
324.919
324.443
323.898
323.479
323.086
322.828
323.01
323.098
319.706
319.426
319.29
319.223
319.283
319.547
319.94
320.222
320.494
320.729
320.913
320.776
320.422
320.089
319.756
319.267
318.974
318.777
318.878
319.062
315.307
315.205
315.059
314.939
315.038
315.258
315.419
315.709
315.976
316.152
316.211
316.184
315.958
315.637
315.277
315.125
314.847
314.734
314.773
314.846
310.968
310.936
310.789
310.77
310.791
310.859
311.084
311.268
311.496
311.591
311.674
311.561
311.394
311.226
311.052
310.828
310.608
310.612
310.558
310.647
306.608
306.508
306.423
306.375
306.459
306.566
306.696
306.779
306.882
306.989
306.995
306.973
306.863
306.773
306.618
306.504
306.408
306.275
306.341
306.398
302.232
302.223
302.111
302.113
302.201
302.182
302.185
302.319
302.361
302.314
302.299
302.341
302.324
302.292
302.229
302.211
302.134
302.145
302.156
302.061
333.485
332.877
332.587
332.643
332.782
333.09
333.61
334.088
334.598
335.014
335.15
335.056
334.498
333.914
333.274
332.542
332.26
331.97
332.015
332.22
329.161
328.759
328.514
328.381
328.646
328.911
329.19
329.775
330.179
330.495
330.645
330.512
330.119
329.581
328.96
328.491
328.068
327.916
327.93
328.136
324.714
324.581
324.371
324.236
324.321
324.586
324.913
325.296
325.625
325.991
326.121
325.976
325.708
325.234
324.655
324.2
323.886
323.664
323.748
323.954
320.364
320.063
319.916
319.954
319.945
320.226
320.477
320.818
321.119
321.38
321.408
321.284
321.077
320.728
320.197
319.955
319.584
319.481
319.521
319.723
315.919
315.741
315.605
315.529
315.522
315.792
315.977
316.223
316.529
316.718
316.74
316.579
316.394
316.146
315.812
315.588
315.371
315.199
315.323
315.408
311.484
311.269
311.194
311.138
311.229
311.331
311.448
311.71
311.779
311.985
311.959
311.974
311.815
311.576
311.327
311.156
311.052
310.943
310.895
311.008
306.822
306.79
306.724
306.672
306.75
306.753
306.905
307.033
307.09
307.14
307.22
307.123
307.111
306.965
306.844
306.709
306.573
306.602
306.525
306.613
302.405
302.213
302.301
302.259
302.254
302.343
302.338
302.359
302.371
302.405
302.406
302.394
302.321
302.298
302.23
302.216
302.25
302.196
302.228
302.202
334.676
334.271
333.897
333.764
333.896
334.263
334.632
335.14
335.587
335.866
336.03
335.839
335.557
334.943
334.225
333.673
333.23
333.073
333.169
333.403
330.206
329.854
329.588
329.502
329.545
329.779
330.11
330.61
330.962
331.243
331.461
331.289
330.942
330.475
329.889
329.352
329.051
328.782
328.926
329.069
325.716
325.411
325.213
325.083
325.211
325.426
325.667
326.116
326.353
326.714
326.691
326.625
326.33
325.869
325.377
324.945
324.67
324.653
324.574
324.857
321.091
320.893
320.663
320.63
320.707
320.819
321.149
321.416
321.7
321.851
322.069
321.931
321.602
321.337
320.858
320.594
320.372
320.097
320.261
320.31
316.498
316.352
316.095
316.084
316.163
316.312
316.549
316.777
316.943
317.089
317.188
317.108
316.808
316.614
316.346
316.114
315.845
315.79
315.76
315.894
311.878
311.703
311.52
311.585
311.593
311.68
311.875
311.972
312.176
312.273
312.367
312.203
312.065
311.862
311.649
311.551
311.321
311.333
311.324
311.387
307.05
306.972
306.983
306.966
307.012
307.022
307.144
307.2
307.398
307.342
307.315
307.401
307.36
307.156
307.01
307.021
306.826
306.739
306.833
306.822
302.316
302.376
302.261
302.252
302.319
302.374
302.461
302.338
302.512
302.509
302.505
302.413
302.44
302.403
302.384
302.341
302.291
302.277
302.34
302.345
335.802
335.413
335.079
334.972
335.067
335.231
335.575
336.081
336.388
336.78
336.93
336.685
336.35
335.83
335.25
334.658
334.318
334.185
334.215
334.556
331.182
330.921
330.532
330.553
330.624
330.839
331.077
331.524
331.778
332.06
332.255
332.054
331.7
331.253
330.753
330.292
330.007
329.808
329.914
330.057
326.6
326.33
326.083
325.97
326.116
326.262
326.427
326.779
327.095
327.274
327.377
327.19
327.02
326.6
326.149
325.74
325.474
325.396
325.515
325.528
321.818
321.665
321.424
321.387
321.355
321.575
321.762
322.087
322.231
322.462
322.496
322.367
322.218
321.895
321.47
321.219
320.989
320.888
320.932
321.002
317.054
316.861
316.789
316.731
316.685
316.88
317.011
317.204
317.363
317.572
317.602
317.55
317.414
317.15
316.801
316.526
316.32
316.346
316.335
316.486
312.192
312.055
312.034
311.983
311.981
312.128
312.091
312.373
312.488
312.566
312.632
312.542
312.422
312.198
312.042
311.91
311.765
311.718
311.683
311.751
307.344
307.27
307.247
307.155
307.224
307.25
307.341
307.453
307.497
307.645
307.616
307.524
307.557
307.391
307.234
307.145
307.065
307.043
306.976
307.099
302.508
302.462
302.454
302.391
302.431
302.387
302.437
302.49
302.532
302.556
302.554
302.532
302.544
302.473
302.474
302.434
302.419
302.306
302.367
302.366
337.06
336.63
336.371
336.174
336.197
336.351
336.682
337.088
337.357
337.61
337.573
337.612
337.136
336.731
336.189
335.759
335.406
335.248
335.352
335.561
332.362
331.927
331.655
331.576
331.581
331.782
332.009
332.343
332.597
332.778
332.827
332.715
332.432
332.028
331.583
331.237
330.945
330.785
330.866
331.105
327.419
327.218
326.943
326.892
326.903
327.025
327.237
327.515
327.763
327.944
327.95
327.845
327.607
327.295
326.901
326.551
326.331
326.118
326.33
326.43
322.643
322.357
322.192
322.089
322.02
322.18
322.408
322.589
322.746
322.952
322.959
322.94
322.707
322.455
322.11
321.869
321.65
321.559
321.599
321.734
317.679
317.448
317.323
317.234
317.253
317.348
317.445
317.601
317.776
317.988
317.939
317.955
317.747
317.515
317.261
317.027
316.872
316.831
316.84
316.964
312.661
312.565
312.391
312.317
312.355
312.435
312.482
312.628
312.747
312.853
312.851
312.773
312.717
312.559
312.347
312.213
312.121
312.091
312.146
312.177
307.568
307.583
307.544
307.397
307.451
307.534
307.534
307.592
307.626
307.77
307.706
307.656
307.601
307.582
307.503
307.364
307.292
307.33
307.236
307.371
302.603
302.561
302.485
302.558
302.484
302.599
302.58
302.541
302.606
302.583
302.604
302.566
302.562
302.634
302.534
302.394
302.439
302.395
302.444
302.429
338.25
337.895
337.472
337.369
337.277
337.425
337.752
337.935
338.233
338.44
338.423
338.307
338.017
337.595
337.091
336.738
336.469
336.36
336.38
336.666
333.402
333.053
332.722
332.561
332.561
332.689
332.913
333.106
333.413
333.52
333.625
333.487
333.17
332.765
332.446
332.031
331.748
331.713
331.72
332.027
328.359
328.155
327.857
327.703
327.693
327.835
327.987
328.211
328.423
328.5
328.59
328.433
328.214
327.972
327.555
327.25
327.064
327
327.041
327.302
323.333
323.136
322.963
322.815
322.87
322.817
322.933
323.178
323.328
323.463
323.51
323.364
323.167
322.943
322.7
322.345
322.294
322.16
322.246
322.392
318.255
317.997
317.855
317.763
317.801
317.884
317.968
318.106
318.167
318.258
318.396
318.27
318.112
317.959
317.681
317.533
317.404
317.281
317.418
317.57
313.047
312.999
312.848
312.784
312.763
312.845
312.858
312.977
313.039
313.145
313.145
313.065
312.997
312.922
312.729
312.558
312.45
312.47
312.477
312.622
307.866
307.83
307.708
307.624
307.648
307.675
307.727
307.889
307.849
307.901
307.904
307.865
307.799
307.696
307.607
307.616
307.503
307.475
307.492
307.514
302.656
302.585
302.57
302.574
302.568
302.562
302.701
302.608
302.656
302.657
302.693
302.633
302.584
302.543
302.529
302.548
302.514
302.547
302.521
302.511
339.441
339.072
338.67
338.478
338.442
338.516
338.696
338.852
339.102
339.265
339.234
339.148
338.789
338.451
338.062
337.701
337.492
337.427
337.421
337.773
334.447
334.038
333.795
333.523
333.554
333.608
333.762
333.909
334.138
334.24
334.219
334.109
333.828
333.634
333.187
332.915
332.746
332.647
332.717
332.908
329.324
328.968
328.798
328.676
328.543
328.658
328.779
328.915
329.005
329.139
329.107
329.118
328.851
328.569
328.237
328.063
327.835
327.766
327.937
328.072
324.102
323.861
323.608
323.529
323.517
323.505
323.569
323.765
323.842
323.998
323.903
323.937
323.646
323.539
323.214
323.096
322.913
322.872
322.981
323.037
318.744
318.696
318.463
318.383
318.409
318.346
318.474
318.521
318.702
318.671
318.673
318.663
318.483
318.346
318.133
318.026
317.902
317.82
317.917
318.048
313.491
313.378
313.239
313.188
313.065
313.185
313.176
313.289
313.396
313.409
313.382
313.401
313.286
313.202
312.99
312.883
312.811
312.86
312.863
312.884
308.067
308.016
307.963
307.902
307.946
307.915
307.98
307.974
308.033
308.1
308.033
308.04
307.975
307.977
307.807
307.781
307.734
307.685
307.738
307.772
302.69
302.716
302.715
302.636
302.671
302.697
302.695
302.692
302.687
302.712
302.665
302.634
302.744
302.702
302.696
302.686
302.575
302.567
302.558
302.637
340.583
340.155
339.776
339.636
339.42
339.488
339.613
339.798
339.942
339.986
339.968
339.882
339.634
339.31
338.968
338.684
338.375
338.431
338.625
338.826
335.408
334.993
334.858
334.58
334.469
334.606
334.626
334.689
334.831
334.899
334.949
334.757
334.626
334.31
333.992
333.778
333.549
333.553
333.624
333.866
330.146
329.889
329.422
329.421
329.323
329.359
329.439
329.538
329.683
329.689
329.776
329.577
329.333
329.255
328.918
328.755
328.618
328.618
328.673
328.762
324.775
324.501
324.348
324.27
324.157
324.183
324.221
324.265
324.453
324.388
324.408
324.357
324.254
324.014
323.857
323.694
323.462
323.476
323.602
323.727
319.334
319.278
319.006
318.835
318.851
318.815
318.922
318.971
318.985
319.103
319.124
319.02
318.916
318.711
318.594
318.45
318.399
318.364
318.453
318.546
313.924
313.723
313.697
313.497
313.518
313.464
313.579
313.603
313.671
313.663
313.658
313.653
313.655
313.508
313.37
313.266
313.101
313.194
313.192
313.327
308.338
308.264
308.161
308.109
308.102
308.163
308.101
308.203
308.256
308.259
308.201
308.178
308.187
308.087
308.014
307.924
307.895
307.885
308.036
307.944
302.771
302.779
302.725
302.677
302.743
302.733
302.698
302.83
302.712
302.825
302.801
302.739
302.701
302.659
302.691
302.619
302.749
302.692
302.741
302.669
341.718
341.303
340.898
340.719
340.613
340.464
340.524
340.661
340.76
340.821
340.825
340.591
340.398
340.104
339.876
339.556
339.507
339.439
339.567
339.889
336.355
335.997
335.693
335.473
335.324
335.369
335.373
335.482
335.526
335.593
335.533
335.509
335.215
335.04
334.839
334.521
334.377
334.436
334.577
334.789
330.961
330.676
330.406
330.196
330.072
330.051
330.17
330.207
330.23
330.307
330.26
330.179
329.978
329.791
329.616
329.389
329.298
329.336
329.43
329.581
325.354
325.178
324.98
324.838
324.763
324.778
324.751
324.806
324.906
324.917
324.91
324.78
324.656
324.475
324.387
324.191
324.076
324.106
324.278
324.307
319.889
319.678
319.509
319.386
319.227
319.397
319.365
319.3
319.391
319.44
319.383
319.37
319.247
319.224
319.005
318.938
318.759
318.858
318.931
318.99
314.151
314.103
313.977
313.897
313.818
313.866
313.84
313.967
313.917
313.908
313.927
313.914
313.809
313.743
313.65
313.494
313.5
313.492
313.592
313.642
308.512
308.496
308.384
308.357
308.364
308.337
308.305
308.369
308.4
308.389
308.465
308.359
308.311
308.198
308.18
308.12
308.129
308.112
308.185
308.185
302.902
302.83
302.808
302.782
302.676
302.78
302.855
302.814
302.766
302.815
302.805
302.836
302.787
302.798
302.692
302.804
302.706
302.697
302.668
302.744
342.745
342.313
341.851
341.653
341.491
341.465
341.408
341.467
341.5
341.62
341.514
341.324
341.218
340.899
340.639
340.428
340.325
340.315
340.51
340.826
337.254
336.93
336.615
336.313
336.164
336.121
336.129
336.159
336.233
336.16
336.222
335.97
335.905
335.719
335.488
335.261
335.165
335.221
335.373
335.637
331.739
331.309
331.089
330.833
330.788
330.779
330.857
330.744
330.856
330.745
330.799
330.694
330.562
330.316
330.176
329.965
329.993
329.954
330.078
330.281
325.998
325.823
325.537
325.464
325.271
325.268
325.224
325.258
325.291
325.384
325.361
325.281
325.046
325.063
324.742
324.713
324.616
324.643
324.72
324.87
320.407
320.082
319.939
319.902
319.755
319.774
319.799
319.799
319.759
319.826
319.776
319.729
319.622
319.531
319.448
319.319
319.194
319.234
319.298
319.42
314.511
314.359
314.353
314.162
314.165
314.078
314.138
314.152
314.169
314.213
314.127
314.177
314.022
313.976
313.831
313.837
313.772
313.792
313.805
313.879
308.701
308.708
308.597
308.541
308.561
308.456
308.557
308.54
308.505
308.61
308.57
308.439
308.39
308.37
308.364
308.34
308.303
308.202
308.283
308.401
302.895
302.955
302.92
302.819
302.889
302.877
302.83
302.842
302.834
302.825
302.905
302.828
302.894
302.795
302.816
302.804
302.759
302.77
302.769
302.793
343.465
343.037
342.615
342.347
342.167
342.067
341.985
342.079
342.08
342.073
341.973
341.939
341.699
341.508
341.218
341.096
340.931
340.988
341.185
341.502
337.884
337.495
337.139
336.888
336.773
336.714
336.636
336.618
336.653
336.666
336.647
336.536
336.359
336.209
335.995
335.814
335.711
335.766
335.901
336.229
332.181
331.938
331.616
331.326
331.247
331.165
331.184
331.137
331.156
331.189
331.177
331.109
330.918
330.682
330.604
330.455
330.399
330.411
330.53
330.804
326.376
326.141
325.939
325.72
325.658
325.659
325.603
325.62
325.683
325.614
325.586
325.53
325.425
325.262
325.175
325.035
325.051
325.005
325.142
325.302
320.663
320.465
320.239
320.178
320.022
319.99
320.026
319.964
319.952
320.037
319.929
319.899
319.829
319.754
319.594
319.478
319.49
319.511
319.575
319.684
314.762
314.644
314.498
314.423
314.376
314.317
314.312
314.346
314.333
314.38
314.38
314.325
314.177
314.093
314.064
313.99
314.011
313.913
314.051
314.198
308.844
308.828
308.792
308.624
308.609
308.608
308.551
308.655
308.617
308.587
308.593
308.597
308.497
308.515
308.477
308.423
308.379
308.404
308.416
308.498
302.947
303.026
302.917
302.872
302.843
302.931
302.883
302.903
302.842
302.851
302.878
302.953
302.934
302.858
302.868
302.763
302.818
302.835
302.87
302.856
)
;

boundaryField
{
    hotSide
    {
        type            fixedGradient;
        gradient        nonuniform List<scalar> 
400
(
321.511
322.87
325.591
329.677
335.133
341.965
350.181
359.788
370.794
383.208
397.037
412.289
428.971
447.088
466.647
487.651
510.105
534.011
559.372
586.191
323.738
325.08
327.767
331.802
337.194
343.949
352.078
361.591
372.498
384.81
398.537
413.687
430.268
448.289
467.755
488.672
511.043
534.872
560.161
586.913
326.149
327.47
330.116
334.091
339.406
346.071
354.099
363.503
374.296
386.491
400.101
415.136
431.606
449.52
468.885
489.706
511.988
535.735
560.948
587.63
328.704
330
332.597
336.503
341.73
348.292
356.205
365.485
376.15
388.215
401.695
416.604
432.954
450.753
470.009
490.73
512.919
536.579
561.714
588.325
331.33
332.599
335.142
338.97
344.099
350.546
358.332
367.477
378.003
389.928
403.271
418.047
434.27
451.949
471.095
491.712
513.807
537.382
562.439
588.978
333.918
335.158
337.643
341.389
346.414
352.74
360.392
369.397
379.779
391.562
404.765
419.407
435.503
453.065
472.101
492.618
514.622
538.114
563.096
589.569
336.321
337.531
339.959
343.622
348.544
354.751
362.274
371.142
381.385
393.031
406.101
420.618
436.595
454.047
472.983
493.409
515.33
538.747
563.663
590.076
338.36
339.543
341.92
345.509
350.339
356.44
363.847
372.595
382.718
394.244
407.2
421.608
437.485
454.844
473.695
494.045
515.897
539.253
564.114
590.478
339.852
341.015
343.352
346.885
351.645
357.665
364.985
373.643
383.675
395.113
407.984
422.312
438.116
455.407
474.197
494.491
516.294
539.606
564.428
590.758
340.643
341.795
344.11
347.613
352.334
358.311
365.584
374.193
384.176
395.567
408.393
422.679
438.443
455.699
474.456
494.722
516.498
539.788
564.589
590.901
340.643
341.795
344.11
347.613
352.334
358.311
365.584
374.193
384.176
395.567
408.393
422.679
438.443
455.699
474.456
494.722
516.498
539.788
564.589
590.901
339.852
341.015
343.352
346.885
351.645
357.665
364.985
373.643
383.675
395.113
407.984
422.312
438.116
455.407
474.197
494.491
516.294
539.606
564.428
590.758
338.36
339.543
341.92
345.509
350.339
356.44
363.847
372.595
382.718
394.244
407.2
421.608
437.485
454.844
473.695
494.045
515.897
539.253
564.114
590.478
336.321
337.531
339.959
343.622
348.544
354.751
362.274
371.142
381.385
393.031
406.101
420.618
436.595
454.047
472.983
493.409
515.33
538.747
563.663
590.076
333.918
335.158
337.643
341.389
346.414
352.74
360.392
369.397
379.779
391.562
404.765
419.407
435.503
453.065
472.101
492.618
514.622
538.114
563.096
589.569
331.33
332.599
335.142
338.97
344.099
350.546
358.332
367.477
378.003
389.928
403.271
418.047
434.27
451.949
471.095
491.712
513.807
537.382
562.439
588.978
328.704
330
332.597
336.503
341.73
348.292
356.205
365.485
376.15
388.215
401.695
416.604
432.954
450.753
470.009
490.73
512.919
536.579
561.714
588.325
326.149
327.47
330.116
334.091
339.406
346.071
354.099
363.503
374.296
386.491
400.101
415.136
431.606
449.52
468.885
489.706
511.988
535.735
560.948
587.63
323.738
325.08
327.767
331.802
337.194
343.949
352.078
361.591
372.498
384.81
398.537
413.687
430.268
448.289
467.755
488.672
511.043
534.872
560.161
586.913
321.511
322.87
325.591
329.677
335.133
341.965
350.181
359.788
370.794
383.208
397.037
412.289
428.971
447.088
466.647
487.651
510.105
534.011
559.372
586.191
)
;
    }
    coldSide
    {
        type            mixed;
        refValue        uniform 300;
        refGradient     uniform 0;
        valueFraction   uniform 0.991591;
        source          uniform 0;
        value           nonuniform List<scalar> 
400
(
300.015
300.014
300.015
300.015
300.016
300.016
300.017
300.017
300.018
300.019
300.02
300.019
300.021
300.022
300.022
300.023
300.023
300.024
300.024
300.025
300.014
300.014
300.015
300.015
300.016
300.016
300.017
300.017
300.018
300.019
300.019
300.02
300.021
300.022
300.022