/*--------------------------------*- C++ -*----------------------------------*\
| =========                 |                                                 |
| \\      /  F ield         | OpenFOAM: The Open Source CFD Toolbox           |
|  \\    /   O peration     | Version:  2212                                  |
|   \\  /    A nd           | Website:  www.openfoam.com                      |
|    \\/     M anipulation  |                                                 |
\*---------------------------------------------------------------------------*/
FoamFile
{
    version     2.0;
    format      ascii;
    arch        "LSB;label=32;scalar=64";
    class       volScalarField;
    location    "0";
    object      T;
}
// * * * * * * * * * * * * * * * * * * * * * * * * * * * * * * * * * * * * * //

dimensions      [0 0 0 1 0 0 0];

internalField   nonuniform List<scalar> 
3200
(
340.762
341.562
342.486
343.426
343.754
344.164
344.36
344.859
345.084
344.693
344.708
344.299
343.993
343.666
343.159
342.266
341.18
340.378
339.403
338.615
335.568
336.256
337.048
337.936
338.195
338.507
338.709
339.086
339.322
339.026
339.002
338.658
338.359
338.113
337.675
336.896
335.938
335.254
334.385
333.725
330.279
330.826
331.519
332.295
332.549
332.761
332.912
333.221
333.445
333.248
333.175
332.89
332.629
332.451
332.076
331.396
330.58
330.032
329.279
328.726
324.924
325.307
325.903
326.538
326.766
326.945
327.038
327.302
327.449
327.364
327.267
327.01
326.818
326.649
326.364
325.784
325.102
324.716
324.052
323.575
319.472
319.728
320.281
320.712
320.936
321.069
321.089
321.293
321.393
321.393
321.26
321.049
320.944
320.808
320.564
320.137
319.555
319.327
318.776
318.406
313.965
314.134
314.556
314.831
314.99
315.128
315.074
315.267
315.309
315.341
315.206
315.058
315.022
314.916
314.717
314.408
313.996
313.88
313.456
313.177
308.448
308.525
308.796
308.902
309.023
309.095
309.067
309.189
309.204
309.207
309.168
309.04
309.06
308.993
308.86
308.682
308.402
308.362
308.09
307.911
302.859
302.847
302.96
303.001
303.02
303.057
303.025
303.071
303.095
303.075
303.095
303.017
303.024
303.041
302.961
302.909
302.816
302.795
302.709
302.667
341.939
342.768
343.581
344.385
344.969
345.47
345.693
345.979
346.074
346.243
346.12
345.606
344.973
344.771
344.193
343.327
342.245
341.384
340.535
339.78
336.614
337.255
337.97
338.679
339.176
339.603
339.763
340.028
340.136
340.3
340.147
339.71
339.197
339.04
338.505
337.717
336.791
336.027
335.29
334.695
331.168
331.703
332.301
332.936
333.332
333.654
333.751
333.978
334.126
334.224
334.149
333.698
333.372
333.245
332.674
332.037
331.298
330.632
329.973
329.54
325.632
326.064
326.513
327.07
327.387
327.637
327.734
327.853
328.014
328.089
328.022
327.673
327.431
327.325
326.784
326.318
325.727
325.17
324.576
324.277
319.985
320.36
320.662
321.128
321.4
321.634
321.645
321.701
321.818
321.902
321.852
321.621
321.386
321.276
320.876
320.525
320.052
319.656
319.153
318.955
314.301
314.593
314.8
315.115
315.346
315.515
315.468
315.494
315.618
315.616
315.637
315.475
315.315
315.197
314.953
314.689
314.387
314.08
313.717
313.568
308.587
308.763
308.91
309.096
309.209
309.318
309.329
309.302
309.401
309.343
309.379
309.289
309.161
309.113
308.959
308.867
308.661
308.486
308.229
308.154
302.882
302.913
303
303.054
303.069
303.139
303.131
303.117
303.153
303.116
303.118
303.11
303.055
303.055
303.014
302.979
302.925
302.858
302.742
302.734
343.167
344.241
345.117
345.865
346.314
347.03
347.385
347.602
347.711
347.807
347.717
347.246
346.701
346.25
345.592
344.908
343.934
343.042
342.12
341.21
337.561
338.552
339.277
339.93
340.345
340.935
341.242
341.382
341.53
341.637
341.528
341.086
340.664
340.29
339.636
339.123
338.248
337.503
336.67
335.939
331.923
332.798
333.416
333.889
334.295
334.773
335.027
335.089
335.265
335.344
335.279
334.86
334.554
334.273
333.651
333.301
332.516
331.854
331.204
330.576
326.177
326.96
327.453
327.761
328.147
328.511
328.743
328.772
328.907
329.002
328.935
328.602
328.41
328.168
327.609
327.363
326.705
326.127
325.674
325.133
320.382
321.061
321.454
321.665
321.976
322.21
322.409
322.416
322.517
322.611
322.551
322.364
322.149
321.973
321.519
321.386
320.841
320.363
320.05
319.664
314.555
315.068
315.372
315.493
315.752
315.902
316.048
316.025
316.096
316.166
316.171
316.028
315.875
315.698
315.384
315.344
314.92
314.56
314.33
314.069
308.75
309.072
309.277
309.281
309.421
309.553
309.674
309.636
309.715
309.74
309.717
309.652
309.534
309.423
309.267
309.26
308.957
308.779
308.621
308.456
302.939
303.04
303.103
303.11
303.151
303.186
303.244
303.229
303.255
303.28
303.253
303.244
303.186
303.185
303.087
303.119
302.99
302.94
302.893
302.827
344.664
345.607
346.535
347.419
348.071
348.724
348.952
349.369
349.559
349.451
349.462
348.966
348.66
348.09
347.315
346.666
345.584
344.584
343.565
342.704
338.907
339.676
340.518
341.305
341.822
342.411
342.584
342.942
343.105
343.023
343.058
342.637
342.353
341.829
341.13
340.626
339.673
338.794
337.919
337.174
333.065
333.692
334.436
335.087
335.468
336.027
336.152
336.47
336.548
336.526
336.533
336.207
335.968
335.548
334.849
334.473
333.682
332.924
332.211
331.574
327.163
327.616
328.295
328.793
329.063
329.53
329.639
329.936
329.957
330.001
329.955
329.676
329.47
329.173
328.559
328.278
327.65
327.052
326.485
325.916
321.183
321.533
322.092
322.409
322.663
323.021
323.102
323.346
323.338
323.414
323.393
323.127
322.972
322.756
322.27
322.022
321.573
321.1
320.69
320.249
315.172
315.435
315.817
316.027
316.191
316.445
316.554
316.694
316.682
316.793
316.803
316.533
316.422
316.301
315.96
315.744
315.442
315.128
314.805
314.523
309.126
309.267
309.547
309.634
309.742
309.891
309.979
310.047
310.048
310.12
310.151
309.96
309.872
309.789
309.615
309.441
309.264
309.114
308.873
308.722
303.056
303.101
303.214
303.267
303.281
303.323
303.34
303.379
303.381
303.399
303.407
303.349
303.302
303.29
303.23
303.166
303.115
303.05
302.971
302.912
346.026
347.034
348.178
349.186
349.761
350.133
350.825
351.143
351.237
351.329
351.008
350.86
350.413
349.9
349.181
348.339
347.162
346.216
345.251
344.248
340.037
340.911
341.902
342.772
343.322
343.641
344.185
344.511
344.59
344.65
344.403
344.293
343.843
343.4
342.743
342.061
341.001
340.212
339.394
338.565
333.954
334.75
335.523
336.34
336.773
337.082
337.457
337.841
337.871
337.9
337.747
337.576
337.225
336.848
336.228
335.745
334.813
334.146
333.438
332.796
327.815
328.498
329.103
329.833
330.14
330.407
330.679
331.035
331.12
331.098
330.98
330.783
330.513
330.221
329.745
329.366
328.539
327.983
327.393
326.94
321.676
322.247
322.698
323.305
323.478
323.709
323.898
324.172
324.275
324.251
324.138
323.998
323.76
323.535
323.225
322.939
322.222
321.79
321.358
321.011
315.5
315.903
316.224
316.708
316.778
316.97
317.107
317.306
317.411
317.328
317.296
317.209
316.984
316.834
316.622
316.434
315.915
315.607
315.271
315.028
309.303
309.583
309.755
310.069
310.098
310.206
310.254
310.438
310.512
310.383
310.415
310.362
310.198
310.103
309.99
309.856
309.549
309.39
309.169
309.027
303.148
303.239
303.265
303.381
303.399
303.438
303.426
303.503
303.552
303.454
303.503
303.48
303.408
303.388
303.33
303.3
303.192
303.166
303.076
303.036
347.654
348.707
349.687
350.633
351.469
351.971
352.688
352.886
353.087
353.353
353.009
352.769
352.258
351.513
350.76
349.965
348.945
347.884
346.733
345.681
341.48
342.403
343.235
344.066
344.752
345.18
345.851
346.005
346.175
346.451
346.099
345.901
345.464
344.816
344.176
343.516
342.555
341.666
340.648
339.778
335.229
336.05
336.682
337.351
337.973
338.382
338.933
339.054
339.191
339.434
339.114
338.975
338.591
338.027
337.534
336.98
336.12
335.377
334.451
333.795
328.886
329.565
330.104
330.619
331.101
331.504
331.914
332.007
332.167
332.398
332.036
331.938
331.664
331.189
330.794
330.389
329.673
329.003
328.201
327.728
322.514
323.037
323.496
323.873
324.227
324.562
324.846
324.936
325.07
325.275
324.888
324.871
324.679
324.302
324.051
323.718
323.115
322.585
321.921
321.605
316.11
316.471
316.827
317.122
317.33
317.551
317.753
317.839
317.943
318.092
317.781
317.764
317.633
317.341
317.243
316.984
316.517
316.138
315.649
315.487
309.682
309.859
310.154
310.326
310.399
310.563
310.692
310.729
310.814
310.863
310.679
310.671
310.576
310.414
310.382
310.219
309.933
309.685
309.395
309.331
303.233
303.274
303.408
303.461
303.473
303.549
303.602
303.593
303.631
303.65
303.558
303.575
303.542
303.493
303.48
303.438
303.337
303.231
303.152
303.137
349.236
350.166
351.264
352.007
352.958
353.749
354.167
354.507
355.036
355.158
354.725
354.433
353.956
353.139
352.42
351.584
350.649
349.621
348.346
347.249
342.839
343.656
344.543
345.225
346.054
346.685
347.123
347.445
347.89
347.979
347.562
347.389
346.968
346.216
345.553
344.849
344.043
343.153
342.099
341.18
336.366
337.08
337.784
338.368
339.133
339.646
340.022
340.325
340.636
340.743
340.371
340.239
339.85
339.203
338.638
338.088
337.362
336.614
335.705
334.982
329.816
330.413
330.985
331.448
332.12
332.58
332.868
333.065
333.362
333.475
333.097
332.969
332.697
332.128
331.672
331.252
330.643
330.045
329.267
328.686
323.265
323.71
324.155
324.488
325.066
325.407
325.62
325.746
325.985
326.102
325.805
325.639
325.517
325.024
324.652
324.371
323.881
323.385
322.785
322.338
316.668
316.963
317.307
317.535
317.98
318.167
318.334
318.414
318.562
318.714
318.465
318.341
318.272
317.932
317.629
317.413
317.074
316.694
316.29
315.97
310.023
310.195
310.383
310.556
310.831
310.935
311.062
311.074
311.139
311.243
311.09
311.053
311.012
310.766
310.575
310.459
310.257
310.018
309.785
309.57
303.366
303.416
303.463
303.526
303.64
303.668
303.716
303.722
303.734
303.765
303.724
303.727
303.685
303.615
303.565
303.509
303.437
303.359
303.278
303.209
350.617
351.759
352.909
353.636
354.566
355.069
355.866
356.236
356.684
356.828
356.482
355.961
355.535
354.836
354.166
353.342
352.071
350.95
349.854
348.787
344.065
345.03
346.016
346.642
347.444
347.875
348.557
348.903
349.345
349.462
349.125
348.686
348.311
347.687
347.1
346.374
345.243
344.333
343.395
342.471
337.443
338.219
339.041
339.58
340.232
340.664
341.22
341.535
341.947
342.032
341.682
341.303
340.996
340.461
339.955
339.365
338.41
337.64
336.896
336.069
330.746
331.386
332.042
332.488
332.983
333.377
333.82
334.118
334.415
334.475
334.191
333.847
333.632
333.19
332.79
332.32
331.485
330.87
330.238
329.603
323.969
324.434
324.97
325.306
325.706
326.051
326.343
326.624
326.859
326.865
326.677
326.391
326.219
325.859
325.57
325.213
324.517
324.064
323.574
323.052
317.114
317.465
317.866
318.096
318.392
318.657
318.874
319.055
319.284
319.185
319.112
318.868
318.75
318.481
318.295
318.033
317.521
317.234
316.875
316.476
310.249
310.508
310.769
310.84
311.026
311.206
311.354
311.458
311.579
311.531
311.472
311.322
311.262
311.117
310.994
310.816
310.515
310.388
310.134
309.875
303.423
303.543
303.601
303.65
303.697
303.762
303.823
303.837
303.865
303.873
303.851
303.8
303.781
303.735
303.695
303.614
303.521
303.486
303.405
303.302
352.11
353.277
354.236
355.273
356.103
356.645
357.107
357.924
358.102
358.086
358.212
357.646
357.222
356.619
355.719
354.743
353.654
352.667
351.168
350.166
345.341
346.332
347.154
348.037
348.761
349.234
349.629
350.416
350.566
350.528
350.641
350.123
349.78
349.271
348.456
347.648
346.667
345.779
344.549
343.617
338.495
339.299
339.994
340.737
341.384
341.8
342.105
342.781
342.936
342.89
342.978
342.472
342.225
341.826
341.112
340.447
339.599
338.844
337.795
337.022
331.573
332.222
332.735
333.404
333.973
334.246
334.549
335.067
335.25
335.168
335.247
334.754
334.607
334.313
333.671
333.182
332.475
331.88
331.017
330.368
324.601
325.102
325.465
326.02
326.454
326.689
326.967
327.349
327.547
327.398
327.41
327.024
326.987
326.761
326.224
325.832
325.287
324.867
324.171
323.65
317.606
317.956
318.204
318.575
318.916
319.108
319.331
319.613
319.791
319.605
319.547
319.309
319.278
319.157
318.76
318.457
318.084
317.824
317.298
316.919
310.565
310.788
310.965
311.137
311.355
311.479
311.663
311.814
311.922
311.758
311.709
311.607
311.584
311.53
311.294
311.069
310.843
310.726
310.351
310.164
303.533
303.632
303.647
303.712
303.804
303.83
303.899
303.962
303.993
303.942
303.91
303.875
303.888
303.872
303.798
303.677
303.647
303.593
303.464
303.407
353.406
354.62
355.565
356.714
357.7
358.345
358.808
359.315
359.464
359.515
359.554
359.062
358.571
358.092
357.139
356.154
355.411
354.091
352.625
351.503
346.496
347.49
348.33
349.325
350.193
350.711
351.154
351.586
351.71
351.739
351.742
351.34
350.929
350.512
349.722
348.828
348.211
347.091
345.772
344.795
339.481
340.298
341.042
341.853
342.571
342.997
343.436
343.788
343.895
343.911
343.911
343.563
343.238
342.872
342.219
341.449
340.933
339.994
338.851
337.956
332.359
333.056
333.685
334.307
334.896
335.3
335.617
335.971
336.008
336
336.014
335.745
335.49
335.192
334.618
334.004
333.566
332.827
331.856
331.108
325.254
325.758
326.271
326.699
327.226
327.479
327.766
328.048
328.096
328.053
328.042
327.849
327.671
327.424
326.958
326.508
326.125
325.582
324.806
324.244
318.107
318.449
318.821
319.11
319.476
319.634
319.883
320.079
320.125
320.093
320.017
319.911
319.817
319.609
319.285
318.972
318.635
318.304
317.75
317.364
310.921
311.116
311.306
311.553
311.681
311.787
311.944
312.07
312.123
312.119
312.022
311.951
311.935
311.781
311.593
311.42
311.164
310.975
310.658
310.456
303.657
303.736
303.79
303.875
303.916
303.939
303.996
304.045
304.062
304.084
304.039
304.009
303.999
303.945
303.881
303.844
303.73
303.705
303.562
303.509
354.678
355.939
357.013
357.812
358.932
359.628
360.14
360.61
360.939
360.948
361.031
360.567
360.135
359.534
358.775
357.754
356.667
355.517
354.12
352.776
347.597
348.652
349.574
350.333
351.288
351.85
352.318
352.66
353.026
353.049
353.098
352.677
352.317
351.793
351.107
350.233
349.317
348.311
347.09
345.918
340.407
341.263
342.023
342.724
343.56
344.032
344.453
344.718
345.024
345.033
345.085
344.755
344.432
343.953
343.36
342.639
341.9
340.992
339.963
338.98
333.14
333.823
334.463
335.069
335.759
336.101
336.509
336.718
336.975
336.933
336.99
336.688
336.404
336.034
335.522
334.997
334.355
333.633
332.778
331.996
325.79
326.299
326.829
327.364
327.835
328.122
328.486
328.656
328.844
328.773
328.837
328.583
328.357
328.071
327.673
327.299
326.746
326.215
325.571
324.921
318.437
318.788
319.181
319.621
319.905
320.126
320.34
320.496
320.674
320.583
320.643
320.474
320.293
320.096
319.812
319.573
319.139
318.794
318.317
317.828
311.085
311.279
311.505
311.85
311.953
312.094
312.191
312.364
312.472
312.313
312.393
312.328
312.198
312.102
311.906
311.761
311.501
311.35
310.993
310.726
303.721
303.783
303.825
303.978
304.015
304.058
304.079
304.169
304.205
304.126
304.158
304.136
304.062
304.073
303.986
303.944
303.852
303.798
303.692
303.603
355.75
356.892
358.131
359.093
360.401
361.159
361.404
361.972
362.127
362.374
362.55
361.765
361.488
360.818
359.996
359.049
357.914
356.66
355.247
354.036
348.534
349.479
350.567
351.407
352.547
353.187
353.425
353.887
354.042
354.233
354.389
353.724
353.454
352.899
352.154
351.358
350.394
349.265
348.072
347.071
341.229
341.983
342.923
343.643
344.597
345.159
345.347
345.773
345.879
345.989
346.083
345.603
345.356
344.881
344.226
343.599
342.74
341.787
340.802
340.017
333.828
334.454
335.204
335.805
336.571
337.044
337.22
337.568
337.675
337.737
337.75
337.425
337.171
336.809
336.274
335.752
334.996
334.235
333.402
332.821
326.353
326.852
327.395
327.903
328.515
328.857
329.032
329.278
329.396
329.43
329.393
329.183
328.937
328.707
328.249
327.846
327.205
326.695
326.004
325.573
318.85
319.209
319.563
319.938
320.38
320.628
320.782
320.948
321.069
321.074
320.998
320.923
320.729
320.537
320.224
319.885
319.42
319.1
318.591
318.244
311.349
311.536
311.739
311.983
312.253
312.417
312.515
312.566
312.684
312.666
312.62
312.567
312.492
312.348
312.194
311.943
311.653
311.49
311.175
310.91
303.799
303.865
303.936
304.017
304.095
304.167
304.194
304.234
304.247
304.23
304.244
304.205
304.203
304.138
304.097
304.007
303.907
303.861
303.772
303.639
356.683
357.821
359.198
360.369
361.511
362.261
362.776
363.396
363.597
363.624
363.751
363.222
362.694
362.124
361.199
360.317
358.919
357.557
356.275
355.124
349.309
350.278
351.49
352.505
353.473
354.148
354.612
355.121
355.268
355.267
355.407
354.973
354.544
354.028
353.201
352.467
351.206
350.023
348.992
347.961
341.947
342.672
343.732
344.59
345.369
345.906
346.333
346.795
346.877
346.855
346.966
346.639
346.305
345.829
345.127
344.529
343.459
342.459
341.596
340.689
334.45
335.016
335.866
336.587
337.236
337.628
337.989
338.368
338.465
338.427
338.502
338.207
337.977
337.593
336.96
336.478
335.617
334.842
334.145
333.385
326.897
327.33
327.945
328.508
329.005
329.345
329.566
329.886
329.973
329.959
329.995
329.765
329.586
329.303
328.802
328.447
327.755
327.15
326.637
326.034
319.282
319.582
320.001
320.391
320.769
320.994
321.132
321.403
321.436
321.429
321.491
321.302
321.18
321.024
320.619
320.429
319.863
319.445
319.036
318.629
311.641
311.788
312.037
312.261
312.501
312.588
312.692
312.867
312.872
312.92
312.945
312.81
312.746
312.664
312.389
312.298
311.944
311.712
311.434
311.152
303.908
303.947
304.033
304.091
304.197
304.226
304.242
304.329
304.291
304.317
304.349
304.304
304.277
304.253
304.149
304.133
304.016
303.906
303.83
303.716
357.637
358.739
360.179
361.325
362.429
363.141
363.788
364.464
364.372
364.664
364.568
364.234
363.786
363.212
362.27
361.232
360.04
358.721
357.437
356.093
350.12
351.107
352.322
353.318
354.238
354.92
355.444
356.053
355.963
356.25
356.09
355.831
355.488
354.949
354.166
353.274
352.233
351.085
349.958
348.828
342.521
343.451
344.381
345.246
346.041
346.602
347.006
347.558
347.484
347.667
347.555
347.356
347.085
346.645
345.951
345.226
344.34
343.308
342.393
341.501
334.887
335.7
336.421
337.096
337.754
338.239
338.491
339.043
338.971
339.047
338.964
338.789
338.593
338.264
337.707
337.11
336.36
335.533
334.721
334.062
327.164
327.849
328.382
328.861
329.446
329.833
329.962
330.442
330.371
330.397
330.347
330.258
330.104
329.853
329.408
328.969
328.321
327.744
327.104
326.558
319.441
319.942
320.293
320.646
321.063
321.358
321.41
321.818
321.705
321.702
321.722
321.67
321.591
321.412
321.067
320.78
320.266
319.85
319.416
319.016
311.72
311.993
312.184
312.419
312.668
312.842
312.863
313.143
313.026
313.019
313.054
313.039
312.99
312.916
312.681
312.527
312.154
311.954
311.686
311.446
303.941
304.007
304.062
304.175
304.265
304.326
304.329
304.411
304.358
304.372
304.374
304.378
304.366
304.325
304.252
304.224
304.077
304.016
303.921
303.858
358.487
359.809
360.834
362.391
363.55
364.231
364.772
365.421
365.429
365.68
365.594
365.316
364.744
364.191
363.179
362.212
361.018
359.786
358.28
357.049
350.898
351.999
352.864
354.29
355.256
355.849
356.314
356.866
356.824
357.098
357.057
356.788
356.286
355.75
354.932
354.064
353.075
352.023
350.672
349.644
343.21
344.089
344.821
346.094
346.893
347.397
347.773
348.259
348.214
348.428
348.433
348.175
347.734
347.285
346.566
345.87
345.021
344.169
342.999
342.173
335.397
336.163
336.733
337.846
338.47
338.874
339.148
339.557
339.533
339.718
339.726
339.498
339.112
338.788
338.179
337.63
336.922
336.233
335.274
334.62
327.563
328.186
328.662
329.481
330.011
330.323
330.519
330.795
330.775
330.954
330.979
330.815
330.447
330.244
329.759
329.31
328.779
328.254
327.513
327.004
319.723
320.108
320.538
321.101
321.506
321.716
321.844
322
322.011
322.138
322.152
322.058
321.776
321.669
321.284
320.982
320.572
320.208
319.678
319.33
311.87
312.047
312.382
312.699
312.952
313.058
313.139
313.238
313.274
313.278
313.295
313.259
313.072
313.056
312.78
312.635
312.348
312.123
311.841
311.622
303.979
304.036
304.154
304.269
304.36
304.381
304.406
304.443
304.458
304.447
304.468
304.422
304.359
304.419
304.287
304.229
304.14
304.061
304.001
303.889
359.317
360.338
361.588
363.284
364.319
365.108
365.724
366.269
366.329
366.519
366.624
366.271
365.639
364.936
364.068
363.106
361.913
360.78
359.199
357.699
351.61
352.438
353.535
355.019
355.93
356.624
357.116
357.635
357.62
357.825
357.934
357.62
357.076
356.441
355.685
354.836
353.836
352.869
351.504
350.22
343.785
344.457
345.426
346.686
347.496
348.01
348.458
348.929
348.894
349.058
349.153
348.918
348.391
347.894
347.222
346.537
345.688
344.894
343.724
342.675
335.944
336.463
337.268
338.259
338.986
339.348
339.695
340.108
340.074
340.203
340.292
340.14
339.659
339.257
338.735
338.174
337.507
336.848
335.962
335.006
328.022
328.461
329.105
329.807
330.412
330.664
330.912
331.246
331.208
331.301
331.39
331.3
330.897
330.636
330.172
329.716
329.242
328.71
328.079
327.292
320.075
320.402
320.877
321.332
321.792
321.933
322.121
322.331
322.292
322.392
322.451
322.384
322.124
321.941
321.578
321.25
320.905
320.562
320.125
319.538
312.062
312.249
312.596
312.793
313.161
313.157
313.309
313.444
313.415
313.476
313.521
313.476
313.309
313.231
312.975
312.775
312.557
312.392
312.089
311.744
304.025
304.096
304.25
304.28
304.424
304.391
304.47
304.514
304.493
304.514
304.532
304.528
304.468
304.438
304.349
304.302
304.216
304.152
304.05
303.926
359.682
360.949
362.286
363.934
364.73
365.715
366.351
366.71
367.133
367.367
367.458
366.872
366.422
365.778
364.962
364.009
362.631
361.153
360.017
358.644
351.922
352.944
354.148
355.577
356.272
357.109
357.718
357.958
358.313
358.598
358.682
358.09
357.725
357.186
356.493
355.635
354.462
353.157
352.186
351.066
344.087
344.94
345.944
347.144
347.736
348.444
349.032
349.176
349.462
349.739
349.815
349.274
348.967
348.503
347.922
347.171
346.149
345.077
344.279
343.388
336.191
336.887
337.718
338.664
339.127
339.713
340.228
340.377
340.566
340.785
340.852
340.415
340.18
339.805
339.288
338.61
337.808
337.017
336.29
335.614
328.203
328.752
329.445
330.116
330.475
330.94
331.334
331.482
331.608
331.776
331.835
331.528
331.32
331.068
330.604
330.012
329.471
328.887
328.261
327.78
320.178
320.581
321.103
321.564
321.816
322.146
322.459
322.54
322.606
322.699
322.761
322.545
322.413
322.294
321.878
321.412
321.065
320.684
320.249
319.914
312.114
312.365
312.699
312.965
313.137
313.318
313.527
313.552
313.591
313.626
313.66
313.555
313.528
313.401
313.154
312.869
312.673
312.412
312.197
311.976
304.05
304.129
304.258
304.346
304.406
304.462
304.538
304.554
304.535
304.573
304.563
304.552
304.541
304.496
304.409
304.319
304.253
304.158
304.081
304.006
360.082
361.649
362.878
364.348
365.211
366.262
367.028
367.628
367.85
368.04
368.258
367.497
367.144
366.497
365.702
364.591
363.188
361.686
360.172
359.304
352.261
353.569
354.631
355.964
356.697
357.563
358.311
358.764
358.971
359.163
359.387
358.657
358.391
357.808
357.1
356.135
354.911
353.632
352.386
351.647
344.366
345.425
346.349
347.555
348.143
348.828
349.48
349.878
350.032
350.182
350.387
349.714
349.534
349.039
348.433
347.633
346.598
345.5
344.495
343.854
336.411
337.242
338.011
339.062
339.505
340.008
340.592
340.898
341.065
341.141
341.346
340.705
340.654
340.204
339.696
339.017
338.215
337.325
336.471
335.984
328.371
329.006
329.603
330.51
330.739
331.18
331.629
331.853
332.022
332.065
332.246
331.708
331.699
331.378
330.902
330.318
329.803
329.062
328.389
328.053
320.325
320.731
321.13
321.854
321.947
322.337
322.638
322.742
322.9
322.945
323.057
322.683
322.701
322.477
322.105
321.667
321.314
320.8
320.26
320.129
312.217
312.457
312.698
313.163
313.189
313.433
313.622
313.685
313.759
313.796
313.861
313.626
313.63
313.544
313.294
313.011
312.791
312.541
312.164
312.113
304.094
304.171
304.27
304.408
304.41
304.49
304.576
304.586
304.62
304.628
304.662
304.567
304.571
304.54
304.486
304.367
304.27
304.212
304.051
304.076
360.558
362.052
363.464
364.667
365.658
366.827
367.352
368.023
368.076
368.437
368.528
368.073
367.607
367.024
366.144
365.026
363.669
361.908
360.535
359.639
352.654
353.951
355.152
356.221
357.026
358.087
358.502
359.125
359.198
359.516
359.579
359.146
358.753
358.287
357.475
356.547
355.31
353.808
352.608
351.901
344.686
345.733
346.778
347.7
348.354
349.259
349.666
350.175
350.237
350.491
350.554
350.166
349.843
349.454
348.739
347.985
346.89
345.693
344.608
344.115
336.681
337.463
338.407
339.126
339.65
340.336
340.766
341.19
341.236
341.382
341.508
341.131
340.861
340.566
339.93
339.337
338.456
337.511
336.538
336.22
328.615
329.174
329.998
330.519
330.892
331.41
331.794
332.111
332.133
332.251
332.432
332.072
331.814
331.623
331.109
330.566
330.004
329.21
328.483
328.261
320.491
320.856
321.505
321.844
322.114
322.472
322.749
322.987
323.001
323.099
323.26
322.961
322.744
322.627
322.235
321.835
321.451
320.898
320.38
320.215
312.314
312.543
312.945
313.127
313.281
313.514
313.682
313.813
313.825
313.921
314.006
313.832
313.666
313.594
313.364
313.121
312.885
312.532
312.24
312.147
304.146
304.207
304.334
304.389
304.465
304.532
304.584
304.633
304.63
304.68
304.714
304.652
304.59
304.544
304.478
304.392
304.334
304.184
304.104
304.072
360.998
362.475
363.692
365.001
365.988
366.981
367.791
368.272
368.516
368.849
368.774
368.677
367.953
367.338
366.486
365.389
363.966
362.2
360.838
359.665
353.028
354.307
355.36
356.594
357.374
358.221
358.916
359.348
359.539
359.871
359.756
359.728
359.091
358.454
357.787
356.85
355.619
353.994
352.854
351.902
344.996
346.018
347.006
348.041
348.662
349.406
350.045
350.387
350.495
350.794
350.672
350.695
350.172
349.536
349.008
348.212
347.237
345.807
344.803
344.023
336.936
337.73
338.566
339.441
339.915
340.511
341.059
341.372
341.437
341.647
341.569
341.548
341.152
340.619
340.166
339.508
338.784
337.514
336.707
336.143
328.803
329.38
330.057
330.759
331.166
331.559
332.024
332.24
332.307
332.415
332.446
332.355
332.059
331.676
331.292
330.789
330.238
329.194
328.571
328.195
320.632
321.005
321.526
322.012
322.321
322.592
322.964
323.037
323.144
323.163
323.246
323.143
322.945
322.679
322.414
322.065
321.624
320.873
320.411
320.157
312.419
312.617
312.985
313.252
313.432
313.549
313.833
313.839
313.904
313.937
314.003
313.891
313.785
313.638
313.51
313.268
313.023
312.534
312.262
312.097
304.185
304.209
304.356
304.446
304.485
304.544
304.629
304.635
304.66
304.676
304.677
304.653
304.622
304.576
304.523
304.462
304.383
304.203
304.115
304.04
)
;

boundaryField
{
    hotSide
    {
        type            fixedGradient;
        gradient        nonuniform List<scalar> 
400
(
403.967
421.315
438.454
455.306
471.795
487.842
503.37
518.304
532.568
546.09
558.802
570.637
581.535
591.436
600.291
608.051
614.677
620.135
624.396
627.44
413.733
431.607
449.27
466.644
483.648
500.201
516.225
531.641
546.372
560.344
573.484
585.725
597.004
607.26
616.44
624.496
631.386
637.075
641.532
644.738
422.341
440.695
458.838
476.688
494.163
511.182
527.661
543.521
558.682
573.067
586.603
599.22
610.852
621.438
630.922
639.255
646.394
652.3
656.945
660.305
429.745
448.529
467.102
485.38
503.28
520.717
537.608
553.868
569.419
584.18
598.076
611.035
622.99
633.878
643.642
652.23
659.598
665.708
670.528
674.036
435.907
455.068
474.019
492.674
510.948
528.755
546.009
562.625
578.521
593.616
607.833
621.099
633.343
644.503
654.519
663.338
670.916
677.212
682.195
685.84
440.802
460.284
479.558
498.535
517.13
535.254
552.821
569.744
585.939
601.324
615.82
629.353
641.851
653.249
663.487
672.512
680.276
686.74
691.87
695.642
444.413
464.158
483.696
502.939
521.798
540.186
558.012
575.191
591.636
607.264
621.995
635.753
648.466
660.068
670.497
679.699
687.625
694.236
699.497
703.383
446.733
466.681
486.424
505.873
524.939
543.533
561.564
578.945
595.588
611.411
626.33
640.27
653.158
664.925
675.511
684.86
692.923
699.658
705.031
709.017
447.763
467.851
487.738
507.333
526.546
545.287
563.466
580.994
597.783
613.749
628.809
642.886
655.906
667.8
678.508
687.972
696.143
702.979
708.445
712.515
447.511
467.678
487.645
507.323
526.623
545.452
563.721
581.339
598.219
614.276
629.427
643.594
656.703
668.685
679.477
689.023
697.274
704.185
709.724
713.862
445.992
466.174
486.159
505.859
525.182
544.039
562.338
579.989
596.906
613.001
628.192
642.401
655.555
667.583
678.422
688.017
696.316
703.278
708.867
713.055
443.229
463.361
483.3
502.958
522.244
541.068
559.337
576.964
593.861
609.94
625.121
639.325
652.477
664.51
675.358
684.967
693.285
700.27
705.886
710.107
439.247
459.266
479.097
498.651
517.837
536.566
554.748
572.292
589.112
605.123
620.243
634.393
647.499
659.493
670.312
679.9
688.205
695.187
700.808
705.043
434.079
453.923
473.583
492.97
511.996
530.57
548.604
566.009
582.698
598.587
613.594
627.642
640.657
652.572
663.323
672.854
681.117
688.067
693.671
697.901
427.762
447.37
466.798
485.958
504.762
523.123
540.952
558.161
574.664
590.378
605.223
619.122
632.001
643.795
654.44
663.881
672.069
678.962
684.525
688.731
420.34
439.651
458.786
477.66
496.185
514.275
531.842
548.8
565.064
580.553
595.187
608.89
621.591
633.223
643.725
653.042
661.126
667.935
673.435
677.599
411.858
430.815
449.601
468.131
486.32
504.083
521.334
537.988
553.963
569.177
583.553
597.016
609.496
620.927
631.25
640.411
648.361
655.061
660.476
664.58
402.369
420.917
439.299
457.431
475.23
492.613
509.496
525.796
541.432
556.324
570.397
583.577
595.796
606.99
617.099
626.072
633.862
640.427
645.737
649.763
391.932
410.019
427.944
445.627
462.985
479.938
496.404
512.302
527.553
542.079
555.806
568.663
580.583
591.504
601.368
610.124
617.725
624.134
629.318
633.252
380.609
398.187
415.607
432.792
449.663
466.139
482.142
497.593
512.416
526.534
539.876
552.373
563.959
574.574
584.162
592.673
600.063
606.293
611.333
615.158
)
;
    }
    coldSide
    {
        type            mixed;
        refValue        uniform 300;
        refGradient     uniform 0;
        valueFraction   uniform 0.991591;
        source          uniform 0;
        value           nonuniform List<scalar> 
400
(
300.024
300.024
300.025
300.026
300.026
300.027
300.028
300.029
300.03
300.031
300.031
300.032
300.033
300.033
300.033
300.034
300.034
300.034
300.035
300.035
300.024
300.024
300.026
300.026
300.027
300.028
300.029
300.03
300.031
300.031
300.032
300.033
300.033
300.034
300.034
300.034
300.035