/*--------------------------------*- C++ -*----------------------------------*\
| =========                 |                                                 |
| \\      /  F ield         | OpenFOAM: The Open Source CFD Toolbox           |
|  \\    /   O peration     | Version:  2212                                  |
|   \\  /    A nd           | Website:  www.openfoam.com                      |
|    \\/     M anipulation  |                                                 |
\*---------------------------------------------------------------------------*/
FoamFile
{
    version     2.0;
    format      ascii;
    arch        "LSB;label=32;scalar=64";
    class       volScalarField;
    location    "./ITHACAoutput/true/0.6";
    object      error;
}
// * * * * * * * * * * * * * * * * * * * * * * * * * * * * * * * * * * * * * //

dimensions      [0 0 0 1 0 0 0];

internalField   nonuniform List<scalar> 
3200
(
-3.49895
-3.25757
0.687355
-0.769158
0.981139
1.80824
3.51466
2.358
5.10662
2.91674
4.45623
3.66799
4.02782
4.08446
4.06689
2.07078
1.91036
1.94269
1.46151
-1.61612
-2.69403
-3.46365
0.131805
1.40907
1.8663
2.77765
4.66229
1.85282
3.78714
2.59371
0.25805
2.81326
2.70155
2.7563
3.62328
2.65038
2.83307
0.846629
1.84316
-2.41302
-0.0838608
-0.731574
-0.372565
0.654707
1.53755
1.88499
2.72864
3.19289
2.38143
4.70097
4.0388
0.984738
1.7368
4.38579
4.04072
2.48862
1.97879
2.38833
-1.91181
-2.37182
-2.37172
-0.144618
-1.89462
-1.32673
-1.12925
1.54366
-0.320686
2.11782
3.87802
3.44864
1.0905
1.96515
1.40861
1.10724
2.73424
0.673085
0.312601
0.934428
0.140175
-1.89583
-1.28569
0.113473
1.88131
-1.31302
-0.975708
1.48365
1.20257
3.04067
0.741886
1.76193
2.06574
0.714618
1.96448
0.287172
-2.42395
0.791473
0.510336
0.180971
-1.98784
0.508818
-0.683314
-1.31272
1.76439
-0.390005
1.5934
1.60338
-1.43515
2.37868
0.993072
1.87196
1.48656
0.833007
-0.631712
0.843743
-1.40334
0.0221959
3.52459
-1.73943
-0.824646
-1.32213
-1.80118
-1.5598
-2.21432
2.37122
2.97677
2.79276
1.30445
-2.73726
0.209875
-1.82181
0.463343
-1.26304
1.78769
1.30699
0.921478
2.04905
-0.709463
0.498335
1.22162
0.415383
-0.351983
2.23674
-0.264033
-0.583479
0.555319
-1.13493
0.408302
-0.0270622
-0.189219
-0.849906
0.642463
-0.967982
-0.346537
-1.26182
1.15801
0.661385
-0.641304
-2.26606
2.81537
2.04222
-2.05147
-1.58477
2.37814
3.96804
2.57221
2.88788
4.0402
3.29733
3.81673
3.44148
0.492638
4.77951
5.63226
2.89753
4.42776
3.00534
3.13815
3.10852
0.246731
-1.75838
-1.94995
-0.179548
-0.826955
0.0343082
1.46646
0.101451
3.61646
0.888749
2.04512
-0.193896
0.192901
3.9718
-0.0496443
1.51838
0.236089
2.44037
-0.26742
2.6128
-0.201622
-1.63564
-2.64947
-1.7762
1.72442
1.62167
2.78221
-0.255107
3.30804
2.1368
2.65145
1.99609
2.86775
3.03232
0.811339
0.329532
1.55469
0.148276
0.606817
3.08366
-1.5596
-1.27103
-1.80005
-1.89689
-1.08432
1.41395
1.4672
2.43582
1.93893
0.81952
1.93242
2.21494
2.90391
0.536174
0.714617
1.6183
1.19127
1.53486
2.52092
-0.499567
-0.128388
-0.0250594
-1.40797
-1.62342
1.00122
2.31806
0.891035
0.185022
0.986712
2.27884
2.22799
2.29325
2.43507
0.100275
1.13775
1.54859
-0.647305
3.99315
0.148839
1.38447
-0.918028
-1.77546
-2.36253
1.30221
1.15318
0.386764
1.99727
-1.5297
0.792215
0.336858
0.560761
3.61821
2.94293
0.327642
2.76005
-2.13189
1.90374
-1.41186
1.57087
0.943205
-0.470468
-0.477483
-0.981238
-1.37632
-0.818883
0.559347
1.56852
-1.19924
2.25652
1.75202
-0.219999
0.100426
0.242088
-0.25501
1.02788
-0.1606
1.52092
-0.280422
1.1793
0.207225
-0.694781
0.0731643
-2.66453
0.829618
-1.90285
-1.13005
0.980895
0.156797
0.209163
-0.399596
-0.656907
3.71484
2.42557
-0.440351
1.11639
1.04685
0.424291
1.43093
-0.212692
-1.3295
-0.241693
0.82391
-3.15651
-0.492907
-1.31324
0.622267
2.00824
4.86972
4.45205
4.15881
2.01095
1.05229
2.08709
3.69574
1.88489
3.76176
4.91958
5.58887
5.52211
3.20114
-0.343231
-0.599099
0.3412
-2.66043
2.4455
1.38413
2.96993
2.6279
1.45616
3.74761
-0.668649
2.73186
1.88872
2.05985
3.0182
2.10778
3.35691
0.692799
-0.594811
1.79417
-0.357545
-1.34748
-0.691517
0.882998
1.92514
-0.502786
1.70201
3.79252
3.2546
2.65886
0.641326
2.89052
-0.231318
1.43983
0.150446
2.59365
1.05513
1.55337
0.503537
0.538995
-0.0818661
-2.07472
-2.96136
-0.894661
0.289037
1.44579
1.87168
1.32933
2.15922
1.35459
0.969997
2.59233
1.09327
0.905898
2.59042
0.680108
1.41004
0.0890525
3.16477
1.16504
0.733228
-2.90481
-1.83211
-0.676236
0.132962
-0.0108842
1.83751
1.54562
3.86444
1.66797
1.94514
1.6011
-0.889049
-0.0787376
-1.26374
1.64617
-0.124889
1.4047
0.39269
-2.23621
1.96275
-2.61035
-3.90047
0.748873
-2.34063
-0.843175
-0.768928
0.159002
-0.6357
1.72605
0.96164
-0.20876
1.96762
-1.72918
1.0695
1.40872
-0.814548
0.125789
2.09017
0.862538
0.499969
-0.321283
-0.748767
-2.89146
-1.75974
1.68836
2.06806
1.83343
2.02768
-0.686139
0.33972
1.93298
-0.686367
0.102534
-0.084871
2.34499
2.29521
0.0909641
1.54035
-1.23668
0.198119
2.02055
1.17223
-1.11697
-0.314763
-1.10883
0.261884
1.27696
0.955096
-2.7529
-0.154526
1.18658
-0.0368662
-0.555985
-0.363274
0.852725
2.44344
-1.45949
0.237581
-0.513735
0.768524
-2.32948
-5.11285
0.127646
0.974682
1.60059
0.947067
-0.557095
-2.42402
2.91049
2.98365
0.580642
3.33006
-1.04505
2.02768
2.6053
1.19828
2.66202
3.57084
0.329224
1.66752
-0.796105
-3.08075
-0.429842
0.769599
0.102944
0.238485
-0.0287662
-0.212978
0.457818
1.97214
-0.0312672
-0.232894
1.56035
0.790222
-0.0482028
0.313543
-0.968773
0.415419
3.75073
-0.43721
-0.436339
-2.56563
-1.47814
1.65487
1.32991
1.31109
4.36533
0.120074
2.5155
2.75811
0.225533
1.7015
-1.00936
-1.09229
1.08489
2.17564
0.45338
1.0095
2.24657
0.502647
-2.54275
-0.45155
0.81616
0.450123
-0.0679588
2.17923
1.66105
1.04168
1.5516
0.0996603
0.452536
1.60969
1.06757
0.29619
-0.997917
0.590176
0.781515
-1.05795
1.59802
-1.57349
0.426564
0.779816
-1.42954
-0.759659
-0.679637
0.0568344
3.58443
1.53071
0.427628
2.46134
-0.972842
0.286237
0.70288
1.95307
0.454149
2.28878
0.678461
1.67288
0.802109
1.62192
-0.685376
-1.89379
1.62773
-0.0171561
0.0845169
-0.850609
2.11597
0.692501
-0.478067
1.661
-0.474056
1.49255
1.48729
0.312114
-0.100408
2.01688
2.34306
0.618967
-0.343083
1.64001
1.37115
0.901055
-0.258436
-1.85356
1.54058
0.0671518
-1.04272
1.13103
0.448004
0.251743
-2.03122
-0.519351
-1.35443
1.05779
1.19899
0.848271
0.853168
0.230516
-1.51603
1.25914
0.765142
-1.34832
1.99126
0.0781975
1.2151
0.965196
1.61118
0.228051
0.459337
-0.236917
0.232995
0.423649
-2.56928
-1.25774
-0.694016
-0.352351
1.91162
1.48573
1.19206
1.31743
-2.16415
-2.66298
-1.63595
-0.241378
-0.24581
3.2124
0.258775
0.0753558
-0.0815097
-0.0943282
0.665325
0.22029
-0.324483
-1.39174
-0.0941566
1.82722
1.82533
1.82415
2.6586
-3.06784
-2.33631
-2.31163
0.94794
-0.77182
0.40882
1.69945
1.03791
-0.0865772
2.47845
-2.56899
1.7264
-0.833279
-0.327934
-1.56029
-0.125526
3.48377
0.948026
3.80318
-2.25648
-0.422776
-0.226262
-2.65403
-0.215085
-0.700421
2.97214
-1.58993
0.386381
2.64258
-0.298612
-0.72951
-0.314409
0.137217
-0.26278
0.382918
0.123084
1.34399
0.447913
2.07537
1.85498
-0.642931
-0.100639
-2.95787
-0.665032
-2.02444
-0.379719
2.05569
0.955783
0.950121
1.62683
0.00804986
0.535081
-1.55672
2.11763
-0.534257
0.72989
-1.33507
0.504519
1.99102
0.24232
1.98101
-0.133809
1.42553
-2.15439
1.65384
0.145462
0.132177
0.872599
0.896341
2.89144
-0.757428
0.150698
-1.20718
1.61013
-1.40885
0.268321
-0.622624
1.87551
-0.628703
-0.467506
0.989256
-1.98748
-1.98355
0.56247
-1.54324
-1.02074
-0.419011
0.144702
0.384322
2.6869
1.05254
-1.76281
-2.05062
1.02835
0.147509
-2.97648
-0.195746
2.29251
-1.77237
2.7655
-1.716
-0.472461
-2.47522
-2.50372
-1.48076
2.20546
-0.112684
-2.2642
0.417676
-0.229265
0.250674
0.474206
-0.588461
-1.30382
-0.359597
-2.4595
1.08248
0.535889
2.00036
-1.56192
0.453791
0.4355
1.31413
-0.0794858
0.244223
-1.10577
0.855694
0.530942
-2.0726
0.904383
0.278996
0.613447
-0.0889924
0.527921
-0.554152
-0.382982
-0.194352
2.07905
1.1117
-3.20924
1.24164
0.732013
-3.73431
-0.159995
-1.82929
0.420004
2.06138
3.35501
0.987532
2.55684
1.4045
-1.14575
-1.31296
-3.39624
-2.13465
1.46076
1.17741
1.11605
-0.487848
-1.90257
-2.29958
-0.516164
-4.41881
-0.0210725
0.944912
-0.0448998
-0.174492
-0.49266
1.85401
0.422273
0.335786
0.367666
0.342876
-0.719258
-0.132052
-0.00537215
0.350544
3.00798
0.251979
2.0192
-0.509156
-0.134222
1.05152
0.21772
-2.59262
1.43872
-1.42932
-0.543187
2.69089
3.68655
-0.0814544
-2.03875
-0.262507
0.155059
-1.96092
0.15201
1.23374
-2.58736
0.814299
-1.12271
-0.181233
-3.7616
0.443084
-3.16496
-0.660814
0.92857
1.24054
0.764167
0.293569
1.99377
-1.73575
-1.26484
-2.52501
-0.666163
-0.693848
1.32656
-0.165272
0.890676
1.66884
-0.338357
0.908101
-0.906868
-2.18784
-1.11117
0.283622
0.445649
-2.65694
-0.611558
0.531595
-0.132537
1.56318
-0.827543
-0.194752
0.906134
-0.712096
-0.24126
0.583412
1.77123
1.25045
0.40883
-2.5079
-0.162644
-0.929349
-1.13774
1.8608
0.742852
0.937868
2.06232
0.908579
0.940203
0.432371
-1.85579
0.0596679
0.353394
-1.73569
0.0223874
1.6215
-1.13343
0.823264
-1.89956
1.25498
-1.19227
-0.549834
0.184618
1.20299
0.88402
-2.20522
-0.442884
0.459346
-1.14626
0.200113
-0.0761427
-1.10861
3.19213
0.155551
1.17675
-0.430429
1.67915
0.750061
-0.70446
-0.978102
0.296015
2.04644
-0.842154
1.6984
0.811185
-2.05688
0.33386
-0.853719
-0.55856
-0.0123558
-0.175907
1.24454
-1.72253
0.633634
-0.0878052
2.09345
-0.508317
0.39058
1.78569
1.5974
-0.617504
-3.89616
-1.43651
-1.85558
-0.928569
0.999498
2.68046
2.82337
-0.69272
-0.254904
-0.323471
-2.18284
-0.935869
-1.40088
0.320252
-0.394244
1.77271
-1.13893
-1.35755
1.75547
-2.51061
-2.35016
-2.26721
0.535975
-1.40425
0.333498
-1.64401
-1.05962
-0.621307
-0.953745
-1.14607
-2.57024
-0.0819622
-2.26564
-1.4004
0.0596651
-0.53883
-0.24851
-0.782195
-0.481596
-2.45719
-2.69687
-3.00878
0.861323
0.0988119
0.437582
0.631185
1.61315
0.348325
-0.65378
-0.560556
-1.7152
-1.16766
-1.44185
0.569221
1.64632
-1.00606
-0.638104
-2.42104
-2.03546
-1.69095
1.10873
-1.82076
0.493629
0.0901055
1.26703
-0.447609
-2.12493
1.72129
1.60923
-2.95829
-2.04067
-3.03313
-0.702337
-0.845671
-0.72258
-1.21605
0.0798765
-1.68894
-0.126895
-0.491031
-1.97477
-0.970449
-0.696938
-0.321203
0.227284
0.635295
0.844923
-0.307749
-0.615442
-2.26663
0.047582
-0.850542
0.0123974
-0.7171
0.374631
1.64027
-0.123352
1.22915
0.474196
0.692847
-1.59706
0.420773
0.128953
-0.215225
-0.416861
0.229552
1.17547
0.307339
-0.970627
2.90675
-2.16749
-1.46825
-0.0125106
1.38609
0.650885
0.0926787
0.46683
-0.655537
-0.368471
1.70041
0.592579
-0.516563
1.09414
-1.80047
-1.23444
0.951728
-0.633704
-0.19459
0.294716
-0.964159
-0.410721
-3.33155
-0.926506
-1.72531
0.776887
1.26242
1.37293
-0.311575
1.61691
-0.0908694
-1.99763
0.51311
2.28293
-1.16056
0.794113
-1.93593
-0.531975
0.261016
2.02166
1.67204
0.154872
1.49281
0.809795
0.930291
-2.06786
-0.311037
-1.20617
-0.970627
2.20281
-1.17605
-4.66865
-1.40096
-0.055787
0.871267
0.311048
0.716945
-1.25002
-1.555
-2.0365
-2.20825
-4.68073
-0.658957
-2.41819
-3.12679
1.0289
-0.489337
0.735084
1.74226
-1.68091
-3.64112
-0.517564
-0.114744
-0.396925
-0.331957
-0.224392
-0.795522
0.796546
0.397524
-2.61733
-0.142951
-0.204829
-1.96045
-0.0920386
-1.04502
0.646058
-1.77183
0.234457
0.00159643
0.531048
-3.24086
-1.57592
-1.09798
0.140192
-2.00276
0.504451
-1.0775
-0.977988
-2.09308
-1.39962
-0.796719
-1.99399
-2.42448
-1.86738
-1.75927
-1.73816
-0.736335
0.018422
0.810886
-0.379862
1.07894
-1.30129
-3.42675
0.628576
0.259602
0.775652
2.14491
0.384915
-3.14331
-0.955835
-1.41624
-1.72404
-2.1009
-2.64872
-0.40007
0.698199
-1.39592
-0.111899
0.498525
1.42551
-0.539297
-1.62936
-2.52217
-1.18813
-0.893058
2.08165
0.410581
-0.700568
-0.0560015
-1.55445
-1.48946
-0.965663
0.57862
-1.27771
-2.64265
-2.91193
-2.1371
-0.56412
-2.87973
-0.218364
0.172043
0.564983
-0.813287
-0.111671
-1.76498
0.574754
2.23255
-1.39496
0.238559
-0.513622
-1.50722
-1.73133
-0.153279
0.85277
-2.98501
-1.9396
1.49346
0.790369
-0.130972
-0.581868
-1.1039
1.66946
-0.371024
0.890845
-2.05868
0.301972
1.41508
0.892912
-0.739532
-0.0691527
0.709714
-0.834999
-2.12656
0.222778
2.45788
-2.23338
-0.622495
0.512365
1.1339
0.0674605
-0.775795
-0.131527
1.20267
-1.25956
-0.901936
-0.357826
1.60184
1.45346
0.130217
-1.08283
-1.15961
0.510811
0.0609168
-0.400471
-0.167439
0.500352
0.494667
1.10923
0.235318
-0.923102
1.96008
-3.69717
-2.50166
0.188771
1.93689
-1.78572
0.555138
1.39764
-3.06241
-2.7544
-5.7888
-0.614938
-2.4177
-4.55855
-1.83009
-2.15448
-0.777969
-1.80416
-2.21394
-0.994495
-2.50042
-1.75898
-1.74647
0.0608338
-1.37374
-1.66954
-1.18676
0.190505
-0.209162
-1.26111
-1.64369
-2.06221
-2.69108
-4.31248
-3.01083
-0.421101
-1.8246
-0.658202
-1.125
-1.96369
-0.724567
-0.635524
0.466576
0.0641387
0.752639
-1.12705
1.68471
1.21003
0.434314
-0.952098
-2.61749
-2.85281
-4.11993
-2.00407
-1.63196
-1.88432
-2.07365
0.860531
-2.69157
-3.11973
-1.77327
-4.32672
-2.06184
-1.35164
-0.666926
-0.79235
-2.14207
0.685253
-1.4044
-0.297654
-1.06664
-1.57875
-4.09527
-3.13701
-2.92869
0.362244
1.31058
0.588449
-0.0509119
0.436784
-0.967461
-1.55763
-0.556531
-1.79148
-0.461424
-1.15247
-1.77872
-1.8844
-0.778118
-0.514083
-2.5951
-1.47393
-1.66537
-1.91898
-2.37418
-0.90639
-1.46376
-0.835327
-1.75296
-0.349115
-2.93975
-1.49648
-2.21164
0.87656
1.15581
0.489998
1.47646
-0.0861043
-0.17397
0.997796
-1.01632
1.34614
-0.725756
0.721929
-1.38688
0.370571
-0.759978
-0.577605
-0.376884
-1.59704
0.466295
-2.46195
-0.904341
0.0157274
-0.839782
0.681533
-0.29831
-1.30257
-0.989327
-0.665081
-2.88804
-0.563627
-2.49644
2.01927
0.57129
-2.69001
0.650179
-1.32711
-2.38352
1.02864
3.43915
1.50005
-1.58877
4.69501
-0.120569
-0.17148
-0.290702
-1.87476
-1.21367
-2.18432
-3.29515
-2.98741
1.29461
-0.549617
-3.04937
-0.549693
-2.06978
0.369141
1.02411
0.120861
0.951329
-1.18028
-1.67318
0.0309353
-1.91793
0.303435
-2.41842
-1.56944
-3.95921
-1.47727
-2.32858
-2.03432
-3.98055
-3.38133
-2.58705
-1.85866
1.66093
-1.67409
-3.04615
-0.682312
-1.88889
-2.79025
-0.584737
-1.90546
0.4243
-0.351313
-0.0333941
-2.83926
-0.158515
-1.57398
-0.502065
-0.920445
-2.2151
-0.30878
-3.01819
0.22374
-2.73774
0.339422
-2.11308
0.583208
-1.22485
-0.801672
-2.754
-1.75071
-1.16412
-0.811561
-0.927404
-0.0195161
-1.10195
-2.77303
-1.3365
-4.63453
-3.0895
-1.22812
-4.25885
-3.13034
-1.86704
-2.70124
-1.70478
-1.14698
-1.54785
-3.16807
-0.88926
0.802501
1.02004
0.836545
-0.970766
1.13674
-2.81422
-2.34119
-1.28242
-2.43967
-6.15607
-3.32711
-1.94464
-0.823868
-0.0166134
0.865257
-1.41632
-3.77206
0.424212
-2.8234
-1.38543
-0.761272
-0.541658
0.603286
-0.129123
-0.212833
-2.64867
-1.06169
-2.03662
-1.7819
-2.09302
-3.91435
-2.49864
-1.75883
-0.846409
-0.219827
-2.26463
-1.08503
1.42137
-1.9516
-1.5297
-0.0668928
-2.01719
1.01749
-1.37345
-2.26375
0.517344
-3.83132
-0.868201
-1.19174
-0.778363
-4.05955
-1.78392
-3.2154
-2.60814
-2.34822
-0.769608
0.309002
-0.905531
-0.689282
1.33539
-2.62858
0.369042
0.195733
-0.906377
-1.70602
-0.34408
-3.17156
-0.965029
-0.602414
-1.84702
0.121534
0.491114
-2.38308
0.560132
-2.06139
0.582304
-0.732946
0.921704
1.06732
0.940728
-0.584799
0.957099
-0.0820685
-0.482362
-0.465527
-1.57101
-0.725005
-1.43968
-1.8083
-1.51365
2.46008
-1.20621
-0.556858
-1.02781
0.247006
1.54697
0.694603
-2.49562
-1.57024
-2.33708
-0.125729
-0.55171
0.136158
-1.92518
-1.10553
-2.00027
-2.57847
-3.09777
-4.82456
-2.40502
-2.57633
-3.22099
-2.10217
-1.99875
-0.115143
-1.2893
0.704883
-0.810565
-2.9503
-0.139085
-0.441663
0.410993
0.426327
0.140792
-4.73178
-0.0622978
-1.63861
-0.0542109
-0.335333
-2.23612
-0.188735
-1.87365
-0.216944
-0.573177
-0.829966
-1.33809
-0.255331
-3.53279
-4.23054
-1.89648
0.0177878
-0.266327
1.1146
-0.895696
-1.72467
-0.0715981
-0.992953
-3.2021
-2.09769
-4.36103
-4.16128
-3.29552
-3.07325
-2.44152
-2.30268
-2.03236
-3.17699
0.262092
-0.532599
-2.08788
-2.18074
0.560116
2.03621
0.674852
1.12608
-0.500156
-0.601616
-3.82415
-1.98425
-4.29724
-2.73974
-0.880629
-3.60325
-0.485115
-1.68547
-1.35815
-0.636068
-1.38219
0.996239
1.29282
-0.775308
-0.100619
1.74945
-0.996268
-2.2062
-0.477385
-2.40749
-1.89501
-4.7072
-1.57333
0.102579
-3.36053
-1.41635
-0.349574
0.507796
0.925486
0.80598
0.485942
-2.39067
1.23092
-1.33935
0.906302
-1.94215
-1.34382
-2.12222
-0.623871
-2.91296
0.142509
-1.97126
-1.00591
-2.50567
-0.629421
-0.528413
1.22586
1.34515
0.202347
-0.351974
-2.71298
-1.24471
-0.921866
0.389391
1.25258
0.0374875
1.06639
-2.2431
1.17867
-0.714437
-0.670793
-0.630872
0.817086
-0.324855
-1.51789
0.185578
2.65593
-0.921564
-1.89009
0.169519
0.176904
0.522319
-1.7568
-0.961915
-1.20833
1.90427
-1.29535
-0.216189
-1.58496
2.13803
0.513603
-0.880851
1.23046
-1.96823
2.77243
-1.94199
-0.551007
-0.151893
-0.230169
-1.16656
-1.65251
-1.86073
-1.44045
-1.88359
-1.44098
-0.425073
-1.71717
0.114879
-1.3761
-1.88245
-3.59124
-3.18779
-4.92636
-2.24859
-2.15248
-0.783032
-0.306695
-1.23598
-2.24933
-0.417565
-0.637823
-1.20721
0.237624
-2.79054
3.1763
-1.14061
2.17981
-2.71908
-2.28206
-2.97484
-1.42119
-5.47467
-1.87508
-1.76533
-2.83614
-1.10144
-0.930731
2.43266
-0.947278
-3.48936
-0.36536
-1.09157
-3.36924
0.0943351
-0.520244
0.274081
-2.68159
-1.68623
-0.781203
0.151059
-0.328847
-2.84168
-3.82008
-1.9542
-1.62423
-0.732976
-1.27008
-0.475652
0.167805
-0.843199
-2.98081
-1.03108
0.235384
-0.925126
0.516804
1.3222
-0.236043
-0.882239
-2.44493
-2.03217
-4.75374
-1.58615
-1.39491
-0.908051
-1.7938
0.276354
-1.63943
-0.56662
0.35131
0.287179
-1.84574
-0.990466
-1.0809
0.0493671
-0.873103
2.00004
1.28569
-1.12752
-0.974535
-0.0463079
-1.47557
-1.76616
-2.36282
-3.86171
-0.452487
-2.96041
0.75611
-0.347269
0.108898
-1.25851
0.943865
1.30835
-0.935791
0.481938
-2.53154
-1.6069
0.586276
-1.46932
-2.69678
-1.35378
-1.53566
-1.1273
-3.79722
-0.613748
0.854881
-1.7982
-1.22073
-0.184368
-0.651104
-3.308
-1.0018
-1.13911
0.506207
0.810684
-0.544984
0.110257
0.361804
0.345272
-1.77125
3.1747
-1.92551
-2.36077
-0.102748
-0.297598
-0.0317322
-0.986589
-1.37064
-0.265023
-1.31124
0.438031
0.992314
-1.60764
0.133263
-0.0547638
-0.491933
0.139957
-2.03072
-2.59239
0.831804
-1.14922
-1.96086
-2.66132
-0.104064
-1.71833
1.06253
-0.919352
0.262545
-0.395634
0.737405
0.411039
-1.14461
-1.17809
-0.976482
-2.54151
-2.58042
-0.822953
-1.43229
1.13949
-0.64287
-0.40235
-2.701
-4.89628
-3.82382
-3.64565
-2.74682
-1.06006
-1.6539
-0.846509
1.05697
-0.706183
-0.414754
-1.14104
-0.0453073
1.15928
-0.0805903
1.9505
-0.800772
-1.31719
-0.434917
-1.91755
-0.812418
-0.0931395
-3.48276
-0.929586
-4.25288
-0.209348
-1.98011
0.2182
-3.19755
0.0841581
-2.73516
-1.08105
-1.44544
-2.00343
0.674268
-2.87457
-0.81897
-0.851707
-0.7135
-1.30015
-1.57595
-2.91238
-4.96272
-3.38253
-1.57234
-1.01027
-0.474346
1.03901
0.227892
-1.51894
-2.51323
-2.0557
-0.48862
2.12337
-1.40885
3.26095
1.83368
0.43527
-2.01209
-4.73207
-1.45333
-4.10763
-2.13693
-2.60855
-0.425167
-1.38523
-2.32437
-2.08583
-0.598818
-1.53897
-0.653556
-0.36165
1.04719
-0.61041
2.67704
-0.152122
-0.499355
0.504985
-0.289777
0.900735
-1.07418
-1.85781
0.472533
0.800518
0.139064
0.750012
-2.84484
-0.559366
-1.31333
1.47819
2.26829
1.07671
-0.528669
0.752349
1.08853
-0.323253
0.769465
-0.58075
-1.72186
0.771035
-2.86786
1.06213
-1.69892
-0.217143
-0.353846
0.0552327
-2.11695
-0.266061
0.212823
-1.66026
-0.917268
-2.78789
0.155956
-1.27596
0.212503
2.57039
-1.00214
-1.6502
-0.0277191
-0.260691
-0.548497
-0.630131
-1.57495
-0.623473
-1.57653
0.271394
-3.70765
-0.738803
-1.20096
-0.748838
-0.0883082
-1.65971
-1.24476
-1.50155
0.626206
1.71852
-0.55331
1.11135
0.587105
-0.952
-1.43657
-0.635726
-0.866707
0.220193
-2.12232
-0.394847
-0.174501
-2.45681
-0.349418
0.00111629
2.15579
-1.60845
-1.33308
-0.59481
2.57718
0.891203
-1.713
0.635774
-1.72883
-3.52186
-2.43662
-3.58114
-4.46369
-2.38322
0.370246
0.200935
-2.88281
1.04379
-0.530354
1.89048
0.744905
-1.48362
1.52005
-0.917802
-0.0191365
1.57147
-0.749919
-0.708557
-1.16834
-2.23109
-3.22048
-1.9844
-3.21641
-1.32865
-1.87514
-0.427477
-0.283084
-0.29148
-1.58687
1.86818
-4.15537
0.0400725
0.399754
-0.292409
4.28608
0.840223
1.39323
1.6382
-2.01109
-2.37366
-2.82735
-3.25399
-3.96138
-1.18014
1.14672
-0.570051
-1.34094
-2.25069
0.659432
0.612415
-1.08217
0.475914
1.65246
1.33279
0.472286
0.332632
0.0246853
0.272563
-1.01142
-2.68932
-0.848788
-1.84494
-2.97984
-3.95274
-1.1772
-0.265725
-1.93724
1.07641
-1.45189
-0.563738
-0.87326
-1.39681
0.731285
0.0393085
0.973638
0.20977
1.34409
-0.203597
1.18462
-1.56898
-1.3213
0.374876
-1.87581
-1.06253
-4.08922
-0.231248
-2.10917
-0.719537
-0.485633
1.74026
-0.374848
1.77349
0.285229
0.134632
-1.0275
-2.02273
-1.5684
-3.07895
-1.07966
-2.24224
0.864671
0.190128
0.626807
-0.866064
-1.55935
-0.174772
0.64398
-1.64155
-0.134891
0.112706
0.000659626
-1.67022
0.50175
0.352604
-0.38502
1.67141
0.21063
1.08967
-0.428367
-0.918627
-1.04348
0.126691
-1.4461
-1.53083
-1.18745
2.21074
2.2435
-1.93575
-1.8023
2.20445
-1.50799
0.0398755
0.650548
-1.39822
0.865957
1.0479
0.954402
-1.03077
-3.21895
-1.69267
-0.231925
-0.627529
-0.175695
0.018283
2.68341
1.10276
-2.24317
-1.49751
1.28373
1.96868
-1.21397
-1.03411
-1.7688
2.7988
1.45894
-0.406999
1.81897
0.646861
-0.422826
-2.34118
0.767275
-2.57402
-0.630029
-1.10957
-2.71032
-3.40447
-0.215652
0.830276
-0.432065
-1.26944
-0.249673
0.0135642
0.0648643
1.7815
-0.319136
2.43687
-0.877831
0.206348
-0.174195
-5.79575
-0.33053
-0.331482
-1.04668
-0.280935
-1.64311
0.164499
2.04358
-0.065173
-0.165052
-0.217237
-2.82274
-0.845566
-1.62969
-0.0893025
0.910613
1.80342
0.8237
-0.728803
-0.308756
0.210437
-3.30772
-0.175782
0.191856
-1.87053
-1.61271
-0.425462
0.931564
-2.25849
-0.610493
0.472768
0.268787
-2.58629
1.56928
1.30148
-2.84107
-1.30623
0.728648
-0.761128
-1.11821
0.41274
-1.60411
-0.72997
-0.992577
-2.10037
1.13683
-1.49872
0.915922
0.0603477
-0.137635
-1.04672
-0.183955
-1.08387
0.436641
1.35452
0.692045
0.635032
-1.13926
-0.852459
-2.48381
0.972942
0.309107
-1.19409
0.81416
1.04645
0.777749
-0.0825446
1.96465
-1.40101
-1.6871
-0.610618
0.573186
-0.891139
-0.012925
0.644481
0.390806
1.11421
1.03083
-0.572793
0.510311
0.434937
-0.31945
-1.71006
-3.7603
-1.71774
-1.49187
-0.728783
-1.67838
-2.05509
0.583843
-0.259572
-0.788913
1.56432
0.107308
0.823778
-2.4298
0.282988
1.17312
1.1891
2.50473
-0.0824188
0.995614
-0.965583
-0.555336
-2.76277
0.760258
-1.39375
0.566616
0.852949
1.24316
0.696361
-0.114361
-1.50216
1.68612
-0.763609
-0.517487
-0.0349805
0.0623069
0.802617
-1.70964
-0.163906
-1.26017
-1.04066
1.25912
1.64608
-0.763615
1.63138
-2.3139
1.21841
-0.138968
-1.82496
0.779488
1.21528
0.672181
3.46148
-0.12859
2.07761
2.23266
1.64032
0.75959
-1.07866
0.539874
-0.0797821
-3.5186
0.268287
-1.65387
-0.721576
1.9858
-1.47515
0.9899
2.57307
3.35814
-0.591975
0.968089
1.20815
2.35677
-2.4714
4.37841
0.176214
1.14008
-0.142866
-0.957243
-0.850482
-2.77511
-0.588509
0.417733
-0.508783
-1.80913
0.467281
-0.546103
0.882702
-0.849787
-0.156808
1.81196
0.835614
0.413571
2.15074
-0.416433
-0.110165
-0.535164
-1.29745
-0.169303
-1.62204
-0.974823
-0.738944
-0.223066
0.0633504
0.503072
2.42138
1.62956
0.673788
-0.0291931
0.500798
-1.37187
0.883874
1.59644
-0.560021
1.15615
0.644784
-0.792984
-2.15805
-1.7064
2.20709
-2.50549
1.36856
-2.61849
0.762574
2.94787
-0.991011
0.501978
-0.249051
-1.31962
1.36493
-0.771016
1.00758
0.446503
2.5372
0.221339
3.19851
-1.00729
-0.540116
-0.64884
0.218613
-0.794427
0.293719
1.49572
-0.291873
-0.368736
-1.23322
-1.24348
-0.344537
-0.50938
0.160391
-1.33204
-0.533903
-0.694834
0.666453
1.11152
0.937293
0.74889
1.83548
-0.360458
0.054939
-0.839776
-1.59039
-2.54148
-0.0929387
-0.179688
0.413405
0.683774
-0.182197
-0.643899
0.977612
0.0484906
-0.409715
0.132878
0.974451
-0.182006
-1.3066
-0.911354
-1.44242
-1.83473
0.837476
-0.64068
-0.757475
-1.25864
-2.75123
-1.26365
2.21537
-0.32195
0.435228
-1.19843
-0.877627
0.476386
-2.82144
-0.128043
-1.43671
-0.933276
-1.47308
1.0483
0.587816
-1.57642
-1.22222
1.1379
1.77815
-0.195946
1.50927
-0.342992
-1.94831
0.0854499
2.16312
1.03022
3.04174
2.40471
2.02306
3.20849
1.20243
2.60749
2.81787
3.26777
-0.19608
0.925551
1.58519
0.436531
0.553941
2.78271
2.85988
2.00101
3.42072
3.9462
1.77345
0.458339
1.06488
-0.23234
1.60244
-1.089
4.56437
-0.142414
0.278921
-0.183563
1.09954
0.351765
-0.417411
0.509798
-0.280744
-0.223401
0.626323
-1.33963
0.152455
1.85424
-0.0865433
-1.51194
0.219037
1.77113
1.76832
1.13813
2.3835
1.6143
2.71143
-0.687083
-0.886474
2.22412
-1.44763
0.873966
0.761973
0.628213
0.306595
3.18505
1.26141
2.18018
-0.0560122
0.34776
0.837567
1.51871
1.9235
0.808219
0.84941
2.13863
2.54113
-2.60743
0.917289
0.737154
-2.01745
-0.836962
-1.25796
0.319227
2.64163
3.35105
1.30547
2.86652
-1.04775
-0.978579
-1.74966
0.224548
0.29402
2.35003
0.550457
1.31969
0.689936
0.815712
1.21327
0.255849
0.329118
1.80991
-0.470685
0.106469
-0.148683
-2.56076
1.79048
0.175743
-0.778081
0.860001
-0.14396
0.91189
0.73412
1.02043
1.09663
-0.52208
-0.251075
-0.694238
-0.271974
0.165386
1.41713
0.764358
-0.0793025
-1.59552
-0.302578
2.04173
0.17469
-0.437371
1.33804
-0.113309
-0.541688
2.15235
0.415897
-0.543893
0.834767
2.65705
-1.86926
0.813383
0.290181
0.322575
-0.797995
-0.782131
-0.262162
-1.76966
-0.148864
0.559792
0.348735
-0.852657
-1.56258
0.401622
1.14522
-2.05052
-1.37553
0.735284
1.81999
0.947072
0.0366014
1.06531
0.0380804
0.683568
-0.480236
-0.814951
-1.58419
1.29271
-0.235818
0.79257
-0.159641
-0.14202
1.35169
2.00149
0.901035
2.4151
3.22747
2.58996
3.17747
4.97038
1.74878
2.62408
1.51418
-0.0479396
1.55842
2.18549
3.20299
1.7001
1.5993
0.982867
2.58517
2.82889
2.74361
2.21938
0.0294621
0.283305
1.38161
1.65772
2.20347
1.51405
0.518
0.784925
0.935973
-0.180334
-1.94991
1.61225
-0.0406025
1.4037
3.16283
2.10375
4.64982
0.180351
2.11998
2.82082
1.27672
1.35697
2.31523
2.20991
3.40509
1.76262
2.38235
1.64024
1.39392
2.45055
-1.51331
0.66927
0.666105
1.56275
-2.48231
-1.2038
0.67624
2.79675
2.67869
2.31835
0.224957
0.513517
1.21774
4.56132
-0.625981
1.87662
1.36519
4.21853
2.75481
3.35861
0.421365
0.531747
-0.564931
1.2364
-0.864328
4.03587
3.3842
0.0318757
2.57496
2.46644
0.91713
0.0799183
1.22879
-1.01592
0.445009
4.33265
-0.0519524
-0.0673033
0.56797
2.47533
-0.561281
0.74316
-0.72362
-1.7943
-0.0552938
0.742207
1.71061
1.10695
2.11602
-1.20935
-0.212362
0.847915
0.989818
0.879246
1.26996
0.881796
-0.874112
1.09696
0.319953
-0.323727
2.22031
-0.556564
0.70031
-0.0596484
0.836397
-2.10063
3.12083
1.94112
1.93128
1.80765
-0.426222
-2.07978
-0.470328
3.20204
-0.283022
-0.43378
0.0542661
1.12567
0.992304
0.299584
0.393516
1.53158
-1.60937
-1.18091
-1.49229
-0.337455
1.06747
-0.529192
1.46198
2.10534
-0.736968
-0.963973
-0.246183
1.61592
0.878012
0.436566
-0.305747
1.02762
1.10624
-1.83083
-0.974916
-1.68833
-0.492046
1.2256
0.890777
0.927754
2.38834
2.92445
1.35021
-2.13369
3.17022
3.43881
0.892489
3.61789
6.09823
4.02485
2.83928
3.47858
2.54359
3.70549
3.75851
5.8817
1.52781
0.211153
3.41716
1.9398
2.23349
3.92172
1.0784
3.07023
3.69976
0.646452
3.49282
0.532594
3.67083
0.0380776
3.85591
0.274716
1.88613
0.223331
0.0616812
2.5172
0.0924401
2.92469
-0.18065
3.0431
0.0609478
3.36356
-0.607509
1.57396
1.57843
2.20267
2.28244
4.10453
4.07325
2.50253
2.86822
0.233102
1.32355
1.62154
-0.144142
-0.267657
1.29444
1.09355
1.78665
2.28081
4.26913
3.60248
1.43478
3.13243
2.93703
1.9784
0.445179
2.55513
2.05673
2.82216
1.80752
1.3281
2.50149
2.46816
0.262928
0.657349
2.80217
0.0769845
1.99292
0.204881
1.717
0.862377
3.1736
2.44983
1.71866
0.249905
4.43337
1.7012
0.587975
3.22155
2.81793
2.9219
-1.17255
-0.161632
0.706434
1.5987
0.425284
2.371
1.12354
1.51544
1.92633
-0.134045
1.34699
0.777355
1.41464
1.76341
2.89296
1.90381
0.30842
-0.521848
1.98103
3.27509
0.89244
-0.462229
-0.414046
0.156367
1.70088
1.48571
0.256034
0.819279
1.48768
2.13703
0.700066
1.08743
1.97152
0.108113
-0.531493
1.40506
0.799397
0.190959
1.52749
2.35099
-0.152552
0.683419
-3.17854
1.40697
-1.48042
-0.577082
-0.154114
-0.680179
0.855222
2.2911
-0.374528
-1.0199
-0.95764
1.72032
1.2871
0.792357
-1.93721
0.354861
-0.923872
-0.176656
1.49097
0.86521
1.56202
-1.56187
-0.381098
2.70089
-1.11818
-0.887329
-0.0562471
-0.658123
1.7678
1.46981
1.6122
1.52234
5.41941
5.03778
6.49575
5.14084
3.51618
1.67091
2.48134
4.92955
1.50212
1.40205
3.79949
0.645586
4.81577
4.42054
4.78578
4.45088
4.00859
3.31416
3.65315
2.71006
4.50131
3.28306
4.41155
4.91095
3.08953
-0.502901
3.66645
3.46413
3.02748
2.09514
2.71866
5.17165
4.06441
3.17878
0.601373
1.93274
2.91879
2.55122
3.5866
3.32829
3.1681
3.72944
2.77696
1.85207
2.24287
3.93645
3.34345
2.34078
0.599848
1.48976
1.54773
4.1929
1.95468
4.58224
2.8161
1.5522
1.9276
1.67937
1.72026
1.50034
3.82295
1.50372
3.46686
1.82363
1.05545
0.685898
0.0185276
1.14353
1.23001
1.64772
2.76274
1.95146
-0.456566
3.82987
1.51958
-0.0933024
2.46643
-0.10567
-1.28095
0.56657
2.54878
1.9666
2.47188
3.213
1.11145
4.62438
1.20996
-0.00261627
-1.83889
0.248225
1.30664
1.89945
3.45994
0.275381
1.64385
0.0886016
0.455598
0.152373
1.03681
2.23768
1.25552
3.08725
2.63831
-1.20775
0.230414
2.48562
1.90389
2.07982
0.749227
2.34693
3.09693
0.890587
-2.12488
0.888428
0.143604
0.746183
0.857093
0.268769
0.988401
-0.915768
-0.887151
2.59637
0.606911
1.09037
0.562621
1.06408
1.41923
-2.24027
2.39318
-0.189971
-0.0668271
0.881519
1.88482
1.24881
-0.188356
0.594522
0.240953
-1.15614
0.944102
0.767115
1.79451
0.306663
1.20074
0.742343
-1.99843
1.51957
-0.408889
1.63837
1.50189
-0.812395
0.37933
0.143791
-2.3359
0.456018
2.61714
0.549297
2.39356
1.35624
)
;

boundaryField
{
    hotSide
    {
        type            calculated;
        value           nonuniform List<scalar> 
400
(
-2.69395
-1.24941
-2.36027
-4.32517
-1.88642
-2.97119
-3.14854
-3.9383
-2.98554
-0.488537
-0.899248
-1.21107
-0.550102
-1.00224
-0.449586
1.77838
3.58382
1.42261
3.6719
2.09468
-2.36959
-0.700391
0.384363
0.994475
-0.782643
0.677004
-0.618235
-0.603445
-1.72656
-0.921754
-1.61024
-0.738746
-0.300171
-0.682147
-1.143
1.27329
2.98173
2.96874
3.96988
2.03173
1.66512
3.35153
-0.348498
1.92675
0.694315
-0.913258
-0.962029
0.812937
1.03083
0.844964
0.659371
-1.12791
-1.81538
0.101965
3.46667
4.10111
2.63528
3.81325