/*--------------------------------*- C++ -*----------------------------------*\
| =========                 |                                                 |
| \\      /  F ield         | OpenFOAM: The Open Source CFD Toolbox           |
|  \\    /   O peration     | Version:  2212                                  |
|   \\  /    A nd           | Website:  www.openfoam.com                      |
|    \\/     M anipulation  |                                                 |
\*---------------------------------------------------------------------------*/
FoamFile
{
    version     2.0;
    format      ascii;
    arch        "LSB;label=32;scalar=64";
    class       volScalarField;
    location    "0";
    object      relativeErrorField;
}
// * * * * * * * * * * * * * * * * * * * * * * * * * * * * * * * * * * * * * //

dimensions      [0 0 0 1 0 0 0];

internalField   nonuniform List<scalar> 
3200
(
0.0100345
0.00931205
0.00195688
0.00218016
0.00276851
0.00507997
0.00983394
0.00657519
0.0142044
0.00810249
0.0123791
0.0102027
0.0112314
0.0114282
0.0114253
0.00584318
0.00541486
0.00553078
0.00417786
0.00463477
0.00785849
0.0100756
0.000382053
0.00406867
0.00536768
0.00795807
0.0133103
0.00527382
0.0107563
0.00735825
0.000732077
0.00799025
0.00768962
0.0078689
0.0103808
0.00762279
0.00818044
0.00245406
0.00536164
0.00703877
0.000249063
0.00216769
0.00110058
0.00192769
0.00451181
0.00551308
0.00795631
0.00928622
0.0069133
0.0136335
0.0117131
0.0028587
0.00505132
0.0127883
0.011818
0.00730266
0.00582625
0.0070553
0.0056648
0.00704419
0.00717884
0.000436908
0.00570953
0.00398723
0.00338425
0.0046135
0.000956011
0.00630011
0.0115186
0.0102349
0.00323638
0.00583692
0.00419034
0.00330083
0.00817173
0.00201716
0.000939465
0.00281594
0.000423484
0.00573839
0.00396997
0.000349864
0.0057891
0.00403165
0.00298928
0.00453561
0.003669
0.00926137
0.0022569
0.00535654
0.00628016
0.00217395
0.00598346
0.00087615
0.00741015
0.00242484
0.00156699
0.000556876
0.006129
0.00157114
0.00215442
0.00413446
0.00554903
0.00122464
0.00499529
0.00501862
0.00448556
0.00742542
0.00309727
0.00583567
0.00463421
0.00259805
0.00197199
0.00263711
0.00439251
6.95839e-05
0.0110674
0.00547052
0.00259725
0.00416854
0.00580345
0.00502243
0.00712369
0.0076211
0.00955788
0.00895832
0.00418054
0.00876586
0.000671742
0.00582934
0.00148258
0.00404258
0.00572494
0.00418869
0.00295582
0.00657914
0.00228021
0.00160319
0.00393352
0.00133837
0.00115981
0.0073686
0.000869553
0.00192097
0.00182764
0.00373396
0.00134292
8.89858e-05
0.000622072
0.00279385
0.00211194
0.00318231
0.00113948
0.00415019
0.00380989
0.00217672
0.00211134
0.00746292
0.0092748
0.00672928
0.00588202
0.00452934
0.00676946
0.011246
0.00725759
0.00811288
0.0113047
0.00919515
0.0106176
0.00956134
0.00136868
0.0132959
0.0157065
0.00810747
0.0124388
0.00847969
0.00889399
0.0088485
0.000705167
0.00504165
0.00568692
0.000522206
0.0023967
9.90543e-05
0.00421745
0.000290655
0.0103248
0.00252987
0.00580908
0.000550132
0.000547309
0.0112818
0.000141315
0.00433491
0.000676391
0.00701836
0.000772093
0.00757248
0.000586408
0.00477024
0.0078675
0.00526221
0.00509346
0.00477437
0.00816374
0.000746108
0.00964595
0.006215
0.00769775
0.00578949
0.00831766
0.00880351
0.00235982
0.000960887
0.00454699
0.00043508
0.00178653
0.0091083
0.00462052
0.00377427
0.00544776
0.00573003
0.00326731
0.00424906
0.00439684
0.00727978
0.00578032
0.00243802
0.00574007
0.00657398
0.00861886
0.00159265
0.00212594
0.00482446
0.00356027
0.00459961
0.00757561
0.00150532
0.000387827
7.58409e-05
0.00434711
0.00500495
0.00308067
0.00711722
0.00272978
0.000565618
0.00301045
0.0069412
0.00677814
0.00697224
0.0074034
0.000305062
0.00346551
0.00472474
0.00197883
0.0122334
0.000456986
0.00425989
0.00283024
0.00548173
0.00744823
0.00410105
0.00362655
0.00121441
0.00626127
0.00478797
0.00247608
0.00105158
0.00174901
0.0112799
0.00917469
0.00102191
0.00861613
0.00666327
0.00595875
0.00442606
0.00493243
0.00296622
0.00148165
0.00150534
0.00316142
0.00443148
0.00263433
0.00179769
0.00503615
0.00384679
0.00723182
0.00561078
0.000704159
0.000321345
0.00077464
0.000816221
0.00329175
0.000514698
0.00487865
0.000900369
0.00379017
0.000666641
0.00223705
0.000235726
0.00877969
0.00273301
0.00626671
0.00372038
0.00322825
0.000515871
0.000687949
0.00131395
0.00215965
0.0122117
0.00797353
0.0014477
0.00367093
0.00344314
0.00139594
0.00470938
0.000700232
0.00437845
0.000796209
0.0027148
0.00904642
0.0014082
0.00373698
0.00176318
0.00566551
0.0136797
0.0124577
0.0115989
0.00559522
0.00292418
0.00579976
0.0102829
0.00525696
0.0105261
0.0138198
0.0157669
0.0156468
0.00910925
0.000980585
0.00171699
0.000994708
0.0077351
0.00708564
0.00399542
0.00854023
0.00752855
0.00415741
0.0106689
0.00189958
0.00775245
0.00535981
0.00585188
0.00859236
0.00601783
0.00961706
0.00199219
0.00171697
0.00519845
0.00103955
0.00392833
0.00205276
0.00261523
0.00568498
0.00147999
0.00499357
0.0110915
0.0094904
0.00773416
0.00186217
0.00838505
0.000671025
0.00418072
0.000437619
0.00756308
0.00308579
0.00455749
0.0014822
0.00159167
0.000242468
0.0061588
0.00895997
0.00270189
0.000870766
0.00434409
0.00560844
0.00397274
0.0064372
0.00403012
0.0028816
0.00769512
0.00324527
0.00269118
0.00770691
0.00202758
0.00421393
0.000266844
0.00950903
0.00350984
0.00221436
0.00878887
0.00565542
0.00208441
0.00040905
3.34143e-05
0.00562896
0.00472486
0.0117906
0.0050808
0.00591814
0.00486837
0.00270328
0.000239561
0.00384947
0.00502254
0.000381778
0.00430311
0.00120555
0.00687958
0.00604991
0.00805771
0.0122949
0.0023581
0.00736004
0.00264729
0.0024104
0.000497667
0.00198692
0.00538848
0.00299954
0.000650868
0.00613462
0.00539366
0.00333884
0.00440302
0.00254949
0.000394316
0.00656243
0.00271222
0.00157434
0.00101274
0.0024122
0.00930908
0.00566066
0.00542597
0.00663986
0.00588101
0.00649847
0.0021974
0.0010874
0.00618549
0.00219636
0.000328198
0.000271804
0.00751542
0.00736223
0.000292055
0.00495028
0.00397809
0.000637846
0.00650935
0.00386239
0.00367952
0.00103659
0.00365048
0.000861885
0.00420123
0.00314137
0.00905219
0.000508027
0.0039007
0.000121191
0.00182788
0.00119453
0.00280467
0.00803902
0.00480332
0.00078216
0.00169185
0.00253167
0.00767543
0.0146434
0.000364459
0.00277221
0.00453356
0.00267115
0.00156479
0.00678304
0.0081186
0.00830359
0.001614
0.00925648
0.00290841
0.00565605
0.0072903
0.00336579
0.00750807
0.0101142
0.000936386
0.00476116
0.00228008
0.00897611
0.0012491
0.00222889
0.000297059
0.000685633
8.24031e-05
0.000608079
0.00130351
0.00560385
8.87518e-05
0.000661071
0.00443373
0.00224993
0.000137625
0.000898169
0.00278517
0.00119875
0.0108627
0.00127051
0.00127133
0.00761224
0.00437593
0.00488506
0.00391359
0.00384595
0.0127657
0.000350143
0.00731792
0.00800988
0.000654382
0.00493688
0.00293131
0.00317762
0.00316359
0.00636228
0.00132995
0.0029707
0.00663174
0.00148805
0.00754435
0.00136566
0.00246391
0.00135564
0.000204145
0.00652903
0.00496376
0.00310557
0.00461663
0.000296107
0.00134355
0.00477904
0.00317192
0.000881287
0.00297508
0.00176364
0.00234144
0.00317802
0.00481279
0.00475022
0.00129009
0.00240638
0.00440508
0.00233648
0.00208608
0.000174084
0.0109568
0.00467032
0.00130269
0.00748953
0.00295846
0.000870462
0.00213877
0.00594966
0.00138564
0.00699628
0.00207813
0.00513474
0.00246704
0.00499789
0.00211495
0.0059681
0.00512441
5.39374e-05
0.000265319
0.00266621
0.0066226
0.00216447
0.00149253
0.0051814
0.00147815
0.00465388
0.00463952
0.000974424
0.000313834
0.00631247
0.00734424
0.00194309
0.00107862
0.00516309
0.00432106
0.00290239
0.000831932
0.00596182
0.00495063
0.00021559
0.0033446
0.00362483
0.0014348
0.000805837
0.00650025
0.00166201
0.00433557
0.00338774
0.00384262
0.00272088
0.00273909
0.000740759
0.0048762
0.00405331
0.0024646
0.00444237
0.00655933
0.000257513
0.0040002
0.00317649
0.00530079
0.000750076
0.00151043
0.000778912
0.000765948
0.0013927
0.00844703
0.00413581
0.00228266
0.00115924
0.00629121
0.00489114
0.00392558
0.00433969
0.00713033
0.00761996
0.00466722
0.000686066
0.000695869
0.00905712
0.00072672
0.000210861
0.000227394
0.000262581
0.00184994
0.000612519
0.000903263
0.00388266
0.000263469
0.0051314
0.00514638
0.00516403
0.00755652
0.0087523
0.00668521
0.00672986
0.00275271
0.00223399
0.00117916
0.00488429
0.00297266
0.000247183
0.00705746
0.0073013
0.00490164
0.00236587
0.000932018
0.00444297
0.000358385
0.00997785
0.00272466
0.0109695
0.00653124
0.00122769
0.00065872
0.0078692
0.00063636
0.00206654
0.00874277
0.00466262
0.00112974
0.00770572
0.000868779
0.00211896
0.000912454
0.000398222
0.000763279
0.00111406
0.00035891
0.0039297
0.00131355
0.00610485
0.00547298
0.0019022
0.000298395
0.00894071
0.00200666
0.00609446
0.00114028
0.00615749
0.00285585
0.00283254
0.00484085
2.39208e-05
0.0015889
0.00462262
0.0062927
0.00158975
0.00217598
0.00398915
0.00151121
0.00597892
0.00072949
0.00597747
0.000404463
0.00439698
0.00663605
0.005085
0.000446366
0.000404784
0.00266708
0.00273476
0.00880874
0.00230501
0.000458346
0.0036716
0.00489995
0.00429203
0.000818657
0.00190304
0.00574364
0.00192924
0.00143742
0.00304715
0.00613029
0.00624899
0.00177026
0.00485062
0.00320374
0.0013132
0.000452859
0.00120121
0.00838888
0.0032836
0.00549716
0.00639467
0.00320812
0.000460543
0.0093031
0.000612607
0.00718483
0.00556285
0.00869237
0.00540073
0.00148844
0.00797136
0.0080583
0.00476202
0.00708639
0.000361742
0.00726224
0.0013386
0.000734272
0.000802452
0.00151763
0.00188329
0.00417376
0.00115169
0.00788238
0.00347196
0.00172032
0.00642736
0.00502302
0.00146054
0.00140251
0.00432946
0.000261814
0.000804214
0.00364014
0.00281603
0.00174677
0.0068169
0.00297388
0.000917269
0.00201668
0.000292559
0.00173567
0.00182222
0.00125965
0.000639409
0.00684202
0.00365966
0.0105679
0.00408979
0.00241164
0.0106732
0.000455977
0.00519478
0.00118816
0.00580893
0.00941899
0.002763
0.00713343
0.00391045
0.00318659
0.00365162
0.00945589
0.00595555
0.00408705
0.0033055
0.003145
0.00138009
0.00540288
0.00655369
0.00147527
0.0128516
6.11366e-05
0.00273287
0.000129424
0.000501269
0.00141064
0.00529277
0.00120249
0.000954486
0.00104412
0.000973717
0.00204452
0.000376038
1.53362e-05
0.00100372
0.00864112
0.000726335
0.00583992
0.00147719
0.00039037
0.00311506
0.000643654
0.00764424
0.00422985
0.00418999
0.00158785
0.0078459
0.010726
0.000236626
0.0059178
0.000761967
0.000450448
0.0057053
0.00044322
0.00360649
0.00758473
0.00239405
0.00331026
0.000535788
0.0111435
0.00133834
0.00954371
0.00198825
0.00278722
0.00371465
0.00228285
0.000875133
0.00593289
0.00515846
0.00375646
0.00749904
0.00197977
0.00206469
0.00395448
0.000493727
0.00266701
0.00500922
0.00101804
0.00273831
0.00273921
0.00674451
0.00342091
0.000871659
0.00136704
0.00813466
0.00186892
0.00162181
0.00040378
0.00475747
0.00251725
0.000592403
0.00275779
0.00216944
0.000736048
0.0017829
0.0054229
0.00383577
0.00125646
0.00772097
0.000501386
0.00292662
0.00357946
0.00584691
0.00233095
0.00293877
0.00645349
0.00283967
0.00293549
0.00134894
0.0057876
0.000186084
0.00110255
0.00541916
6.99694e-05
0.00507406
0.00355155
0.00258327
0.0059687
0.00394831
0.00375459
0.00177028
0.000594064
0.00386797
0.00284001
0.00707844
0.00142041
0.0014721
0.00367121
0.000640622
0.000243697
0.00354815
0.010219
0.000498192
0.00377123
0.00138047
0.00538981
0.00240965
0.00226505
0.00314733
0.000953067
0.00674148
0.00277372
0.00559235
0.00267024
0.00676879
0.00109836
0.0028079
0.00183672
4.06235e-05
0.000578298
0.00409146
0.00566333
0.00208358
0.000288793
0.00688719
0.00167277
0.0012857
0.00587978
0.00526119
0.00203422
0.01112
0.00408874
0.00526355
0.00262446
0.00281461
0.00752168
0.00789741
0.00193251
0.000709758
0.000899772
0.00607184
0.00260585
0.0039081
0.000895794
0.00110629
0.00499198
0.00321901
0.00385085
0.00499658
0.00716555
0.00682671
0.00657033
0.00154863
0.00404452
0.000957465
0.00470536
0.00302427
0.00176915
0.00271121
0.00325505
0.00729999
0.000232994
0.00645133
0.00399691
0.000170768
0.00154697
0.00071576
0.00226005
0.00139565
0.00713761
0.00798088
0.00888639
0.00253745
0.000290308
0.00128208
0.00184442
0.00470254
0.00101339
0.00189932
0.00162727
0.00497914
0.00339221
0.00419479
0.00165936
0.0048108
0.00294767
0.00187474
0.00713237
0.0060117
0.00500404
0.003346
0.00548599
0.00148419
0.000270308
0.00379229
0.00133677
0.00633338
0.0051218
0.00478265
0.00878654
0.00606108
0.00901449
0.00208985
0.00252053
0.00215796
0.00363972
0.000239622
0.00507812
0.000382337
0.00148187
0.00608347
0.00298579
0.00214073
0.000984851
0.000695624
0.00194099
0.00257738
0.000937532
0.00187312
0.00689514
0.000144746
0.00258866
3.77677e-05
0.00218746
0.0011446
0.0050202
0.000378215
0.00377549
0.00145896
0.00213438
0.0050268
0.0013232
0.000405025
0.000675118
0.00130589
0.000718195
0.00367346
0.00095954
0.00302829
0.00906556
0.00675998
0.00458082
3.90593e-05
0.00433164
0.00203641
0.000290331
0.00146435
0.00205896
0.00115872
0.00535207
0.00190731
0.00166172
0.00351714
0.00578303
0.00396174
0.00305206
0.00203076
0.000623211
0.000943483
0.00308591
0.00131457
0.0106654
0.00296732
0.00552889
0.00249136
0.00405155
0.0044098
0.00100156
0.00520142
0.000292478
0.00658001
0.00168981
0.00751645
0.00382003
0.00261313
0.00636873
0.00174964
0.000858295
0.00664685
0.00549694
0.00050915
0.00490807
0.00266284
0.00305969
0.00680275
0.00102351
0.00397015
0.00319574
0.00725445
0.00387379
0.0133023
0.00398139
0.000158031
0.00245968
0.000875115
0.00201046
0.00349492
0.00433693
0.00566983
0.00614234
0.0130196
0.00183461
0.0067444
0.00874219
0.00288525
0.00137672
0.00207522
0.00493539
0.00477696
0.0103746
0.00150119
0.000332074
0.0011455
0.000955141
0.000643706
0.00227551
0.00227252
0.00113168
0.00743955
0.000405995
0.000581737
0.00557243
0.000262017
0.00298142
0.00184799
0.0050828
0.000674606
4.60719e-06
0.00153688
0.00940012
0.00465777
0.0032391
0.000412584
0.00587899
0.00147697
0.00314701
0.00284998
0.00608823
0.00406573
0.00231276
0.00578826
0.00704283
0.00543174
0.00512672
0.00507655
0.0021559
5.40767e-05
0.00238643
0.00112061
0.0031889
0.00392303
0.0103149
0.00188832
0.000778221
0.00232023
0.00640295
0.00114691
0.00935155
0.00284053
0.00420631
0.00512051
0.00624342
0.00788011
0.00119206
0.00208425
0.00417565
0.000335445
0.00149763
0.00429095
0.00162583
0.00501525
0.00775408
0.00364704
0.00273668
0.00636817
0.001254
0.00213654
0.000170581
0.00473075
0.00453087
0.0029375
0.00176094
0.00389192
0.00805936
0.00889368
0.0065378
0.00172868
0.00883951
0.000671331
0.000529556
0.00177723
0.0025561
0.000350574
0.00553408
0.00179991
0.00698321
0.00435864
0.00074473
0.0016024
0.00470064
0.00539956
0.0004782
0.00266216
0.00932684
0.00606689
0.00467696
0.0024782
0.000411167
0.00182877
0.00347246
0.00537145
0.00119314
0.00286277
0.00661067
0.000968937
0.00453726
0.00286111
0.00236835
0.000221374
0.0022715
0.00267248
0.00680764
0.000713445
0.00787566
0.00716103
0.0019974
0.00164527
0.00364385
0.000216939
0.00249611
0.000433181
0.00396026
0.00414661
0.00296851
0.00117739
0.00526937
0.0047802
0.000428183
0.00356011
0.00381227
0.00167931
0.000200281
0.00131684
0.000550679
0.00164595
0.00162765
0.00365075
0.000774693
0.00303968
0.0064555
0.0105135
0.00709648
0.000533872
0.00546035
0.00501814
0.00155528
0.00390493
0.00853693
0.0076659
0.0160975
0.00171002
0.00672882
0.0127076
0.00511319
0.006036
0.00218621
0.00508616
0.00626133
0.00282109
0.00711036
0.0050931
0.00504629
0.000175311
0.00394779
0.00478443
0.00339185
0.000543171
0.000595185
0.0035835
0.00466716
0.00585549
0.0076468
0.0122715
0.00858453
0.00120354
0.00522879
0.00189151
0.00324201
0.00567393
0.00209797
0.00187557
0.00137454
0.000188527
0.00220698
0.00329696
0.00491699
0.00352432
0.00126283
0.00276499
0.00759664
0.00827961
0.0119647
0.00582713
0.00475322
0.00549959
0.00606605
0.00252336
0.00791151
0.00919075
0.00523331
0.0130279
0.0061993
0.00405637
0.00199751
0.00236843
0.00639072
0.00204091
0.00417685
0.000884362
0.00316742
0.00468814
0.0121675
0.00932983
0.00872259
0.00108073
0.00391749
0.00176246
0.00015279
0.00131327
0.00291305
0.00478982
0.00170944
0.00549462
0.00141299
0.00352358
0.00543007
0.00574489
0.00236956
0.00156425
0.00789308
0.00448301
0.00506737
0.00584376
0.00723806
0.00276703
0.00447533
0.00255797
0.00537648
0.00107234
0.00903993
0.00470406
0.00694646
0.00275021
0.00362218
0.00153384
0.00461666
0.000268969
0.000542995
0.0031125
0.00316932
0.00419784
0.0022639
0.00225329
0.00433228
0.00115872
0.00237895
0.00181016
0.00118247
0.00501607
0.00146576
0.00791784
0.002907
5.05226e-05
0.00269581
0.00218626
0.000956289
0.00417311
0.00316796
0.00212891
0.00924282
0.00180382
0.00799107
0.00646596
0.00183027
0.00862335
0.00208568
0.00426019
0.00765679
0.00330654
0.0110606
0.00493967
0.00523094
0.0154546
0.000396781
0.000564188
0.000956217
0.00616543
0.00399064
0.00718134
0.0108327
0.00982104
0.00425626
0.00180719
0.0100283
0.00180813
0.00680979
0.00121481
0.00337108
0.000397928
0.00313272
0.00334869
0.00473624
8.73214e-05
0.00539772
0.000851458
0.00676725
0.00438064
0.0110283
0.00410886
0.0064717
0.00565388
0.0110714
0.00941859
0.00722102
0.00520094
0.00466067
0.00471148
0.00859837
0.00193141
0.00535914
0.00806308
0.00168641
0.00548189
0.00121752
0.00100548
9.53411e-05
0.00808835
0.000450754
0.00447001
0.00142488
0.00261225
0.00629076
0.000878048
0.00859807
0.000638785
0.00783556
0.000973963
0.00607921
0.001682
0.00353948
0.00236187
0.00810039
0.00513856
0.00340921
0.00237145
0.00270424
5.68e-05
0.00320215
0.00804924
0.00387721
0.0134448
0.00896787
0.00356881
0.012395
0.00912784
0.00545566
0.0079108
0.00500373
0.00337362
0.00456027
0.00952565
0.00267019
0.00240547
0.00305188
0.00249825
0.00289401
0.00338349
0.00836564
0.00695308
0.00380683
0.00724208
0.0182829
0.00989028
0.00578817
0.00245608
4.96141e-05
0.00258878
0.00424536
0.0113264
0.00127551
0.00867244
0.00425105
0.00233266
0.00165729
0.00184316
0.000393946
0.000648534
0.00806265
0.00322946
0.00619263
0.00541814
0.00636657
0.0119154
0.00761375
0.0053661
0.00258595
0.000672597
0.00693919
0.00332928
0.00436593
0.0061297
0.00480091
0.000209731
0.00631781
0.00318336
0.00429268
0.00706886
0.00161427
0.0119485
0.00270685
0.00371557
0.00242743
0.012667
0.00557051
0.0100496
0.00815993
0.00735456
0.00241297
0.000969791
0.00284415
0.00221568
0.0042906
0.00844045
0.00118422
0.000627678
0.00290477
0.00546445
0.00110159
0.0101506
0.00308806
0.00192771
0.00591142
0.000389098
0.00157305
0.00763735
0.00179624
0.00661481
0.00186979
0.00235495
0.0029628
0.00351409
0.00309679
0.0019247
0.00314931
0.000269985
0.00158651
0.00153084
0.00516531
0.00238346
0.00473269
0.00594447
0.00497616
0.00808846
0.00396652
0.00183153
0.00338122
0.000812769
0.0050914
0.00228657
0.00821668
0.00444357
0.00659947
0.000354104
0.00154959
0.000381391
0.00537883
0.00308174
0.00556549
0.00716474
0.00860174
0.0133966
0.00668278
0.00716829
0.00897872
0.00587333
0.0055987
0.000323403
0.00363118
0.00199045
0.00229379
0.00850626
0.000400272
0.00126815
0.00117726
0.00121827
0.000401424
0.0134642
0.000176976
0.00464955
0.00015373
0.00095093
0.006345
0.00053616
0.00533143
0.000618549
0.00163792
0.00237737
0.00384208
0.000734816
0.0101857
0.0124398
0.00556794
5.21216e-05
0.000778782
0.00325261
0.00260876
0.00501456
0.000207881
0.0028801
0.009283
0.00608127
0.0126494
0.0120821
0.00958186
0.008951
0.00712479
0.00673339
0.00595519
0.00932744
0.000770674
0.00159882
0.00625976
0.00652755
0.00167371
0.00607418
0.00200991
0.00334897
0.00148573
0.00178563
0.0113454
0.00588684
0.0127545
0.00813852
0.00261901
0.0107315
0.00144714
0.00503645
0.00406531
0.00190702
0.00414924
0.00305618
0.00396211
0.00237304
0.000307554
0.00534019
0.00303724
0.00671824
0.00145236
0.00731952
0.00575946
0.0143065
0.00478343
0.000312079
0.0102333
0.00431792
0.00106708
0.00155214
0.0028327
0.00247008
0.00149073
0.00750182
0.00385981
0.00419589
0.00283645
0.00607236
0.00419773
0.00662374
0.00194587
0.00908122
0.000444162
0.00614388
0.00313593
0.00781525
0.00196451
0.00165061
0.00383281
0.00420991
0.000633911
0.00110369
0.00851321
0.00399884
0.00296035
0.00124972
0.00401762
0.000120168
0.00341641
0.00718262
0.00377262
0.00228606
0.00214608
0.00201836
0.00261452
0.00103978
0.00486042
0.00059454
0.00851372
0.0029559
0.00606612
0.000544371
0.000568333
0.00171937
0.00578215
0.00316534
0.00397536
0.0062637
0.00425997
0.000710844
0.00521072
0.00702827
0.00168826
0.00289544
0.00404484
0.00647077
0.00911595
0.00638651
0.00181242
0.000499725
0.000757408
0.00383951
0.00543973
0.0052503
0.00405633
0.00529141
0.00403781
0.00118816
0.00478865
0.0003197
0.00382314
0.00522367
0.00995922
0.0088404
0.0136703
0.00624713
0.00599018
0.00218363
0.000857272
0.00346337
0.00631884
0.00117587
0.0017997
0.00347174
0.000682205
0.00799451
0.00907956
0.00325337
0.00620478
0.00772574
0.00647447
0.00843109
0.00402565
0.0155075
0.00531422
0.00500845
0.00805835
0.00313524
0.00265473
0.00695384
0.00271382
0.0100178
0.00105072
0.00320272
0.00987134
0.000275887
0.00151859
0.000798546
0.00779917
0.0048966
0.00226564
0.000437705
0.000952412
0.00823012
0.011069
0.00566756
0.00471657
0.0021318
0.00370042
0.00138843
0.000490752
0.00247044
0.00874587
0.00308962
0.000704497
0.00276472
0.00154202
0.00393899
0.000702172
0.00262105
0.00725598
0.00602645
0.0140919
0.00470195
0.00413664
0.00269488
0.0053292
0.000822089
0.00488406
0.00169066
0.00104988
0.00085952
0.00553073
0.00303412
0.0033081
0.000150909
0.00266564
0.00609872
0.00391592
0.00343063
0.00296265
0.000140695
0.00448178
0.00536438
0.00717886
0.0117399
0.00137675
0.00901669
0.00230561
0.00106023
0.000332889
0.00385168
0.00289136
0.00410124
0.00293145
0.00150841
0.00791623
0.00502034
0.00183011
0.00458317
0.00840675
0.00421835
0.00478399
0.00351184
0.011832
0.00191325
0.00266658
0.00561324
0.00381383
0.000576526
0.00203788
0.0103626
0.00314031
0.00365721
0.00162457
0.00260035
0.00174711
0.000353269
0.00115863
0.00110518
0.00566745
0.0101553
0.0061585
0.00755063
0.000328674
0.000952219
0.000101571
0.00315942
0.00439157
0.000849612
0.00420593
0.00140577
0.00318593
0.00529088
0.000438517
0.000180174
0.00161816
0.000460284
0.00667738
0.00852287
0.00273433
0.00377739
0.00644489
0.00874712
0.000342051
0.00564854
0.00349323
0.00302299
0.000863447
0.00130139
0.00242607
0.00135257
0.00376699
0.00331338
0.0027413
0.00711894
0.00721126
0.00229464
0.00398523
0.00316464
0.0017827
0.00111453
0.0074778
0.0135555
0.0105922
0.0101095
0.00762855
0.00294952
0.00461157
0.00236566
0.00296064
0.00198249
0.00116649
0.00327212
0.000129722
0.00331273
0.000229827
0.00555137
0.00227488
0.00373582
0.00123187
0.00542622
0.00229783
0.000263434
0.00985539
0.00263299
0.012062
0.000594726
0.00563564
0.000622261
0.00913723
0.000240958
0.00784357
0.00316414
0.00422505
0.00584629
0.00196419
0.00835957
0.00237786
0.00246942
0.00206635
0.00376227
0.00455847
0.00842409
0.0143608
0.00979606
0.00455881
0.00293328
0.00137945
0.00302672
0.000665023
0.00443992
0.007356
0.00614742
0.0014596
0.0063341
0.00419658
0.00969971
0.00544707
0.00129148
0.00596431
0.0140176
0.00430362
0.0121636
0.00633013
0.00773238
0.0012615
0.00411492
0.00691387
0.00621313
0.0017863
0.00459718
0.00195441
0.00110608
0.00320002
0.00186326
0.00816222
0.000463295
0.00151921
0.00153491
0.000880116
0.00273426
0.00325985
0.00563799
0.00143442
0.00243135
0.000422688
0.00228179
0.0086641
0.00170549
0.0040089
0.00451708
0.0069374
0.0033712
0.00165426
0.0023523
0.00340055
0.00100901
0.00239998
0.00181014
0.00536392
0.00240097
0.00892861
0.00330678
0.00529039
0.000676441
0.0011029
0.000172272
0.00660791
0.000831172
0.000665411
0.00519513
0.00287198
0.0089444
0.000500167
0.00409014
0.000680836
0.00823109
0.00320759
0.00527968
8.86548e-05
0.000833578
0.00175364
0.00201463
0.005036
0.00199407
0.00504398
0.000868665
0.0118729
0.00236704
0.00384972
0.0024016
0.00028332
0.00546089
0.00409505
0.00493904
0.00205941
0.00565072
0.00181906
0.00365316
0.00192967
0.00312872
0.00472105
0.0020892
0.0028484
0.000723719
0.00697632
0.0012981
0.000573783
0.00807972
0.00114934
3.67241e-06
0.0070931
0.00450758
0.00372953
0.00166069
0.00718024
0.00247788
0.00475372
0.00176137
0.00478313
0.00973458
0.0067316
0.00989351
0.0123378
0.00659362
0.00102574
0.000557611
0.00801531
0.00290808
0.00148073
0.00528896
0.00208755
0.0042412
0.00433902
0.00261521
5.44271e-05
0.00446144
0.00212547
0.00200528
0.00330259
0.00630139
0.00909179
0.0056022
0.00908427
0.00375573
0.00530682
0.00121158
0.000803685
0.000829015
0.00452166
0.00533279
0.0118789
0.000116973
0.00116547
0.000851202
0.012457
0.00243822
0.00403715
0.00474098
0.00581416
0.00685743
0.00816507
0.00939715
0.0114443
0.00341185
0.00331863
0.00165183
0.00389123
0.00654136
0.0019196
0.00178548
0.00315889
0.00142001
0.00492558
0.00396767
0.00140412
0.000987647
7.32074e-05
0.000807468
0.00299377
0.00795552
0.00251009
0.00545596
0.00881493
0.0117
0.00348745
0.000788042
0.00575204
0.00320021
0.00432222
0.00168036
0.00260559
0.00426447
0.00223087
0.000119794
0.0029641
0.000637959
0.00408379
0.000618075
0.00359382
0.00475757
0.00400557
0.00113644
0.00568797
0.00322344
0.012414
0.000702609
0.00641447
0.00219052
0.00147999
0.00530885
0.00114441
0.00554568
0.000891399
0.000420445
0.00320636
0.00630728
0.00488717
0.00958821
0.00336053
0.00697669
0.00268993
0.000591474
0.0019503
0.00269569
0.00485601
0.000544594
0.00200806
0.00512251
0.000421254
0.000352229
2.06264e-06
0.00535434
0.00160794
0.00112946
0.00123272
0.00534889
0.000673775
0.00348438
0.00136936
0.00293592
0.00333461
0.000404861
0.00462171
0.00489357
0.00379705
0.00707187
0.00717972
0.0061977
0.00577313
0.00706449
0.00483427
0.000131165
0.00213964
0.00459801
0.00284721
0.00344488
0.00313705
0.00338765
0.010578
0.00556197
0.000762057
0.00206193
0.00057732
6.00811e-05
0.00881905
0.00362471
0.00737424
0.00492371
0.00422152
0.00647495
0.00399318
0.00288668
0.00492985
0.00778602
0.00405088
0.00112797
0.00503251
0.00178697
0.00116665
0.00645424
0.00211432
0.007093
0.00173689
0.0030615
0.00748732
0.00941907
0.000597666
0.00230533
0.00120197
0.00353808
0.000696956
3.86426e-05
0.000184543
0.00506018
0.00090495
0.00689878
0.00248138
0.000582518
0.000491228
0.0163317
0.000931032
0.000933714
0.00294941
0.000792232
0.00463846
0.000464993
0.00578537
0.000184806
0.000468816
0.000618052
0.00804163
0.00246097
0.00473778
0.000259253
0.00263976
0.00522056
0.00238137
0.00210462
0.000890799
0.000606746
0.00953385
0.000506658
0.000553172
0.00539669
0.00465713
0.00123004
0.00269671
0.00654712
0.00177231
0.00137442
0.000782291
0.00769792
0.00466656
0.00386569
0.00842847
0.00387061
0.00215678
0.00225078
0.0033042
0.00121895
0.00473615
0.00215524
0.0029314
0.0062064
0.00336179
0.00443618
0.00271404
0.000179031
0.000408807
0.00311262
0.00054753
0.00330264
0.00132952
0.00412056
0.00210324
0.00192818
0.0034562
0.00258419
0.00752497
0.00294638
0.00093587
0.00361529
0.00246554
0.00317033
0.00235771
0.000250418
0.00596537
0.00425792
0.00513227
0.00185926
0.00174654
0.00278263
4.03378e-05
0.00201003
0.00121801
0.00347025
0.00320855
0.00178188
0.00158681
0.00135201
0.000992853
0.0053149
0.0116889
0.00534131
0.004641
0.00226839
0.00522737
0.006405
0.00182091
0.000810105
0.00246342
0.00501048
0.000343595
0.00263661
0.00777357
0.000904973
0.00375008
0.00379989
0.00800194
0.000263255
0.00317979
0.00308388
0.00177381
0.00882633
0.00242948
0.00445538
0.001812
0.00272881
0.00397889
0.00222972
0.000366296
0.00493967
0.00554399
0.00251041
0.00170102
0.000114967
0.000204751
0.00263722
0.00561697
0.000538472
0.00413983
0.0034187
0.00413652
0.00540816
0.00250907
0.00536098
0.00760486
0.00400501
0.000456866
0.00600052
0.00256325
0.00337804
0.00186575
0.00959157
0.000355697
0.0057373
0.00615594
0.00451665
0.00208929
0.00296465
0.00148325
0.000219193
0.00967076
0.000737936
0.00455396
0.00198954
0.00548375
0.00408046
0.00274296
0.007142
0.00933444
0.0016802
0.00274434
0.00341976
0.00666081
0.00697445
0.0123394
0.000496024
0.00320616
0.000401505
0.00268927
0.00238934
0.00779905
0.00165502
0.00117588
0.00143387
0.00510548
0.00132065
0.00154578
0.00250229
0.00241194
0.000454924
0.00525135
0.00241864
0.00119548
0.00620913
0.00120083
0.000317348
0.00154036
0.00373232
0.00048688
0.00466465
0.00280422
0.0021269
0.000642576
0.000182677
0.00145235
0.00699933
0.00471668
0.00195275
8.46938e-05
0.00148664
0.004069
0.00261881
0.00472486
0.0016557
0.00341482
0.00190282
0.00233858
0.00636123
0.00502868
0.00650418
0.00738535
0.00403599
0.00772742
0.00225235
0.00871535
0.00293303
0.0014873
0.000738692
0.00391733
0.00415032
0.00234286
0.00305912
0.00135445
0.00769003
0.000670338
0.00968034
0.00304692
0.00163316
0.00196153
0.000660897
0.00240213
0.000888465
0.00452681
0.000883956
0.0011176
0.00374094
0.00377534
0.00104693
0.00154886
0.000500061
0.00415101
0.00166276
0.00216258
0.00207298
0.0034554
0.00291232
0.002326
0.00569931
0.00111909
0.000170565
0.00260756
0.00493966
0.00789679
0.000288918
0.000558913
0.00128667
0.00212951
0.000567775
0.00200753
0.00312832
0.000155122
0.00131019
0.000424752
0.00311371
0.00058137
0.00417231
0.00290948
0.00460409
0.00585582
0.00267294
0.002045
0.00241822
0.00401916
0.00878806
0.00403779
0.00708158
0.00102954
0.0013923
0.00383491
0.00288504
0.00156588
0.00927285
0.000420765
0.00472058
0.00306609
0.00483898
0.00344331
0.00193067
0.00517756
0.00401424
0.0037374
0.00584064
0.000643671
0.0049584
0.00112697
0.00640239
0.000280837
0.00711014
0.00338666
0.00841672
0.00664531
0.00558194
0.00883877
0.00330745
0.00716233
0.00773091
0.0089566
0.000537072
0.00253425
0.00434041
0.00119568
0.00151829
0.00763445
0.0078556
0.00550406
0.00942341
0.0108882
0.00490085
0.00126826
0.00301046
0.000656096
0.00451891
0.00306674
0.0128366
0.000400027
0.000782634
0.000514631
0.00308081
0.000985309
0.00116918
0.0014284
0.000787083
0.000626849
0.00175929
0.00376749
0.000429329
0.00522897
0.000244386
0.00427429
0.000633303
0.00511602
0.00510193
0.00327979
0.00686074
0.00464176
0.00778934
0.0019724
0.00254349
0.00637981
0.00415246
0.0025076
0.00218738
0.00180472
0.000881584
0.00916797
0.00363504
0.00629023
0.000161795
0.00100548
0.00247933
0.00449214
0.00568393
0.0023859
0.0025051
0.00630173
0.00748205
0.00767258
0.00269805
0.00216774
0.00593271
0.00246178
0.00370165
0.000939926
0.0077839
0.00988299
0.0038538
0.00847053
0.0030991
0.00289675
0.00530826