/*--------------------------------*- C++ -*----------------------------------*\
| =========                 |                                                 |
| \\      /  F ield         | OpenFOAM: The Open Source CFD Toolbox           |
|  \\    /   O peration     | Version:  2212                                  |
|   \\  /    A nd           | Website:  www.openfoam.com                      |
|    \\/     M anipulation  |                                                 |
\*---------------------------------------------------------------------------*/
FoamFile
{
    version     2.0;
    format      ascii;
    arch        "LSB;label=32;scalar=64";
    class       volScalarField;
    location    "0";
    object      relativeErrorField;
}
// * * * * * * * * * * * * * * * * * * * * * * * * * * * * * * * * * * * * * //

dimensions      [0 0 0 1 0 0 0];

internalField   nonuniform List<scalar> 
3200
(
0.0115375
0.011857
0.0126629
0.0136038
0.0147671
0.0156835
0.0171273
0.0181797
0.019271
0.0195844
0.019844
0.0193802
0.0188504
0.0182389
0.016963
0.0163191
0.0152537
0.014825
0.0140114
0.0140832
0.0102251
0.0103057
0.0107237
0.0116306
0.0127513
0.0137698
0.0146521
0.0157892
0.0163783
0.0170796
0.0172208
0.0169109
0.0165502
0.0158832
0.0150597
0.0140367
0.0131388
0.0126871
0.0120586
0.012076
0.00855283
0.00864398
0.00929978
0.00969818
0.010583
0.0114331
0.012665
0.0131648
0.0139086
0.0141529
0.0142806
0.0142606
0.0136411
0.0130605
0.0125736
0.0118878
0.0112421
0.0107067
0.0102733
0.0100592
0.00687472
0.00714034
0.00736111
0.00776393
0.00875109
0.00952039
0.0102919
0.0107829
0.011345
0.0118375
0.0117502
0.0116822
0.0113221
0.0109155
0.0102439
0.00970282
0.00919295
0.00890551
0.00850836
0.00840673
0.00524564
0.00558612
0.00571616
0.00632833
0.00669697
0.00720751
0.00782202
0.00870707
0.00881792
0.00923789
0.00896535
0.00910393
0.00911779
0.00832426
0.00803103
0.00759047
0.00699639
0.00662968
0.00650073
0.00650775
0.00405374
0.00374348
0.00398718
0.00443992
0.00460974
0.00544214
0.00586145
0.00630128
0.00628941
0.00660471
0.00659723
0.00644192
0.00638846
0.00587549
0.00582136
0.00557412
0.00492205
0.00504563
0.00470138
0.00487446
0.00234805
0.00241185
0.0023619
0.00258363
0.00316205
0.00317398
0.00335127
0.00364246
0.00390277
0.00395472
0.00393685
0.00377576
0.0038338
0.00392159
0.00345338
0.00327973
0.0031453
0.00284348
0.00285823
0.00290768
0.000772079
0.000786338
0.000934427
0.000684109
0.00113433
0.00108284
0.00108224
0.00142472
0.0011449
0.00134167
0.00138053
0.00138342
0.00139733
0.00117
0.00121193
0.0010727
0.00103262
0.00119419
0.000911532
0.000892019
0.00944124
0.00997529
0.0105843
0.011626
0.0123363
0.0133658
0.0147378
0.0157218
0.0165847
0.0170924
0.0170598
0.0168838
0.0164164
0.0157133
0.0147016
0.0137245
0.0129769
0.012392
0.0117662
0.0117767
0.0083487
0.00877619
0.0091879
0.0100483
0.0109984
0.0119343
0.0127272
0.0136736
0.0144127
0.0148078
0.0149358
0.014888
0.0144814
0.0136024
0.012882
0.0120404
0.0113729
0.0107116
0.0104431
0.0102004
0.00700253
0.00722238
0.00786685
0.00827599
0.00913423
0.0100389
0.0108675
0.0116212
0.0120928
0.0128648
0.0126616
0.0125596
0.0120449
0.0115539
0.0110702
0.00994153
0.00956273
0.00905519
0.00891502
0.00870216
0.00567706
0.00600964
0.00652242
0.00686846
0.00740129
0.00802166
0.00902256
0.00944547
0.0100369
0.0104858
0.0104527
0.0101067
0.0101345
0.00940264
0.00893685
0.00849338
0.00787256
0.00757865
0.0071894
0.00724944
0.00430312
0.00454829
0.00502416
0.0053763
0.00585202
0.00672546
0.00694566
0.00741835
0.00783936
0.00804251
0.00844173
0.00800062
0.00780177
0.00751932
0.007175
0.00660672
0.00610583
0.00593254
0.00564528
0.00538297
0.0030707
0.00326063
0.00334231
0.00388282
0.00440142
0.00454023
0.00505311
0.00521309
0.00582069
0.00582235
0.00579302
0.0057742
0.00540391
0.00540662
0.00517527
0.00476186
0.00450597
0.00422446
0.00416121
0.00408622
0.00190886
0.00191959
0.0021436
0.00249995
0.00252208
0.00283462
0.00280762
0.0033488
0.00360222
0.00376269
0.00356999
0.00367961
0.00329507
0.0031249
0.00287499
0.00281616
0.00275677
0.00261322
0.00247331
0.00243121
0.000817525
0.000647097
0.000898227
0.00078076
0.000807857
0.00101593
0.00106224
0.00115859
0.00127821
0.001319
0.00133148
0.00108933
0.00124425
0.00121086
0.000945318
0.000856711
0.00107775
0.000754429
0.00090418
0.000953147
0.00702815
0.00745916
0.00780491
0.00845538
0.00950084
0.0106548
0.0114314
0.0125683
0.0134282
0.0135172
0.0140638
0.0136617
0.0132396
0.0124546
0.0116029
0.0108306
0.0101232
0.00960672
0.00915722
0.00894197
0.0060593
0.0063523
0.00682575
0.00737582
0.00848
0.00917001
0.0100959
0.0110425
0.0116515
0.0119399
0.0123198
0.0120872
0.0113621
0.0110951
0.010024
0.00945991
0.00881472
0.00836031
0.00797263
0.00795132
0.00546687
0.00530907
0.00564654
0.00631985
0.00700478
0.0077684
0.00847164
0.00925851
0.0097611
0.0103035
0.0104425
0.0102253
0.00994531
0.00920903
0.00868531
0.00798488
0.00746262
0.00705488
0.00667481
0.00685108
0.00438129
0.00443662
0.00471811
0.00496211
0.00563407
0.00635419
0.00704692
0.00764173
0.00817833
0.00853294
0.00863946
0.00806149
0.00802438
0.00737161
0.00696371
0.00669381
0.00619852
0.00588663
0.00569538
0.00552839
0.00341913
0.00347713
0.00374372
0.00412564
0.00458268
0.00473705
0.00546637
0.0059666
0.00625425
0.00686958
0.00654666
0.00668724
0.00626842
0.00608423
0.00562774
0.00521453
0.00476464
0.00439042
0.00454646
0.00421395
0.00232935
0.00268528
0.00250174
0.00302861
0.00312281
0.00363346
0.00404069
0.0041718
0.0045991
0.00451636
0.00483127
0.00435285
0.00431433
0.0043295
0.00385794
0.00351629
0.00343995
0.00344784
0.00315703
0.00331123
0.00143473
0.00135516
0.00172741
0.00163222
0.0020445
0.00214253
0.00242806
0.00268738
0.00285429
0.00297085
0.00284264
0.00299539
0.00273585
0.00268236
0.00258745
0.0023212
0.00201931
0.00207115
0.00176203
0.00166672
0.000298009
0.000406239
0.000550228
0.000699468
0.000487067
0.000672313
0.000901466
0.000673503
0.000959148
0.00109925
0.00095755
0.000897515
0.000818529
0.000801486
0.000675619
0.00091396
0.000728014
0.000701462
0.000702115
0.000652051
0.00445823
0.0045838
0.00509979
0.00553308
0.00640161
0.00735708
0.00825348
0.00936361
0.0100801
0.0102886
0.0104091
0.0101847
0.0098968
0.00917711
0.00842948
0.00745336
0.00707373
0.00661585
0.00605486
0.00595139
0.00380027
0.00413337
0.00438945
0.00483423
0.00565765
0.0062897
0.00748842
0.00777529
0.00862395
0.00890646
0.00890872
0.00887276
0.00829538
0.00796573
0.00737571
0.00660392
0.00598338
0.00545677
0.00541899
0.00538467
0.00329874
0.0033878
0.00379357
0.00414499
0.004735
0.00557672
0.00614442
0.00671617
0.00720096
0.00758339
0.00775718
0.0074349
0.00738651
0.0066643
0.00610505
0.0056543
0.00524662
0.00457442
0.00446605
0.00449265
0.00285114
0.00273971
0.00312293
0.0035471
0.00408924
0.00459774
0.00517041
0.00537134
0.00610288
0.00633092
0.00627404
0.00629677
0.00597142
0.00542334
0.00494501
0.0047668
0.00427406
0.00387404
0.00402187
0.00393522
0.00212441
0.00199504
0.00230094
0.00254332
0.00293198
0.00339486
0.00390731
0.00447558
0.00457646
0.00496911
0.00494691
0.00493959
0.00477701
0.00429043
0.00399662
0.00357254
0.00311125
0.00291488
0.00298655
0.00286448
0.00143689
0.00169609
0.00167048
0.00178452
0.00191615
0.00236695
0.00282896
0.00335779
0.00347988
0.0033407
0.00384472
0.00331723
0.00337869
0.00303409
0.00272483
0.00261377
0.00232843
0.00235562
0.00232986
0.00205875
0.00082226
0.00102844
0.00117792
0.00120995
0.00120131
0.00159666
0.00139242
0.00173214
0.00203852
0.00202838
0.00225765
0.00223541
0.00209091
0.00189584
0.00174949
0.00147432
0.00164506
0.00154292
0.00154313
0.00128754
0.000333019
0.000178709
0.000297966
0.00054531
0.000345861
0.000609116
0.000672415
0.000531822
0.000761128
0.000737846
0.000501201
0.000692118
0.000711315
0.000533508
0.00070896
0.000614437
0.000549073
0.000359682
0.000311484
0.000513098
0.00209944
0.00195324
0.0022407
0.00276905
0.00377144
0.00432455
0.0050248
0.00578695
0.00648998
0.00684046
0.00675361
0.00675226
0.00635335
0.00572048
0.00491449
0.0043685
0.00383777
0.00353249
0.00351831
0.00352051
0.00186594
0.00164671
0.00185985
0.00234438
0.00289807
0.00374831
0.00452016
0.00515487
0.00532947
0.00603481
0.006101
0.00598521
0.00561521
0.00498763
0.00448202
0.00372937
0.00335678
0.00298294
0.00288889
0.00296567
0.00151846
0.00153157
0.00154581
0.00207641
0.00259674
0.00306231
0.00372969
0.00423824
0.00475295
0.00504972
0.00492916
0.00494026
0.00461522
0.00427499
0.00363113
0.00311753
0.00285314
0.00253275
0.00263541
0.00273169
0.00138733
0.000885118
0.00135474
0.00180199
0.00186022
0.00268172
0.00292332
0.00333677
0.00383746
0.00399568
0.00414998
0.00412054
0.00392117
0.00355346
0.00305583
0.00269651
0.00244143
0.0020463
0.00216269
0.00185186
0.000950274
0.000990167
0.001118
0.00128438
0.00144327
0.00180282
0.00231043
0.00248133
0.00296004
0.00317136
0.00334678
0.0030134
0.00287872
0.0028336
0.0024941
0.00199396
0.00173164
0.00177452
0.00141131
0.00136867
0.000643239
0.00087106
0.000588563
0.000765877
0.00116296
0.0013665
0.00161076
0.00202793
0.00205073
0.00236026
0.00235907
0.00240552
0.00222285
0.00179411
0.00185241
0.00131863
0.00113528
0.00112103
0.00134986
0.00111583
0.000352221
0.000379712
0.000546091
0.000483823
0.000776613
0.000825179
0.00114945
0.00113405
0.00149626
0.00134894
0.0012709
0.00142781
0.00116349
0.00114498
0.000819877
0.000651376
0.000872099
0.00075143
0.00058098
0.000604309
6.17063e-05
0.000225363
0.000423206
0.000261272
0.000207374
0.000446331
0.000239713
0.000478941
0.000516669
0.000235781
0.000216093
0.000469933
0.000453232
0.000439686
0.000370583
0.00033913
0.000253074
9.27962e-05
0.000319061
0.000165234
0.000116285
0.000164241
0.000299317
0.000153869
0.00064743
0.00118569
0.00189559
0.00265747
0.00313806
0.00339244
0.0034229
0.00333027
0.00286513
0.00278231
0.00189135
0.00124196
0.00105474
0.000807658
0.000789603
0.00105296
0.000212414
0.000215823
0.00038668
4.62151e-05
0.00049262
0.000973924
0.00174157
0.0023074
0.00256925
0.00301663
0.00286936
0.00287951
0.00251441
0.00214409
0.0017523
0.00113743
0.000804828
0.000471012
0.000550368
0.000962638
0.000134312
0.000457957
2.80516e-05
2.65685e-05
0.000398424
0.000885302
0.0013182
0.00192596
0.00230649
0.00234485
0.00244782
0.00221774
0.00215924
0.00170253
0.00145086
0.000795141
0.000638055
0.00071671
0.00048649
0.000940069
6.04552e-05
0.000199877
0.000287263
0.000139393
0.000202344
0.00075058
0.00118469
0.00165173
0.00176718
0.0018418
0.00171597
0.0019739
0.00184463
0.00144373
0.00101248
0.000708922
0.000473395
0.000337601
0.000415776
0.000612572
6.55592e-06
0.00021971
7.19905e-05
0.000213696
0.00026161
0.00056652
0.0007799
0.00124146
0.00141043
0.00159712
0.00165706
0.00144283
0.00120653
0.00118369
0.00102957
0.000658221
0.000379331
0.000187661
0.000337562
0.000511647
1.1713e-05
0.000245842
9.10033e-05
7.83921e-05
7.00387e-05
0.000412568
0.000401816
0.000837084
0.00123048
0.00133477
0.00110373
0.00116469
0.000685859
0.000772241
0.000680121
0.0005491
0.000291538
9.51311e-05
0.000106428
5.42115e-05
0.000144252
7.8067e-05
5.08496e-05
0.000172526
0.000176817
0.000356689
0.000287154
0.000395132
0.000464976
0.000616529
0.000791386
0.000689269
0.000421162
0.000598049
0.000359649
0.000423594
6.75e-05
7.00704e-05
0.000191436
4.95101e-05
0.000199701
0.000196708
0.000124085
3.68866e-05
3.78861e-05
0.000242489
1.64923e-05
0.000301366
0.000252916
0.00020101
0.000368594
0.000328341
0.000216074
0.000369131
7.37219e-06
2.12032e-05
6.63763e-05
4.72416e-06
0.000133326
4.82941e-05
0.00225716
0.00227459
0.00260414
0.00231884
0.00203874
0.00158193
0.000854464
0.000348367
6.08749e-05
0.000182575
0.000333583
0.000310579
0.000250982
0.000598657
0.00127602
0.00150352
0.00153439
0.00180947
0.00164986
0.00142429
0.00194694
0.00236387
0.00198848
0.00207426
0.00176492
0.00141231
0.000771068
0.000543816
0.000146507
5.24399e-05
0.000329045
0.000113582
0.000290773
0.000558562
0.000789991
0.00137994
0.00166346
0.00164572
0.00133313
0.00143276
0.00149208
0.00184359
0.00167288
0.00176554
0.00156909
0.000934818
0.000551981
0.000512979
9.4142e-06
0.000260615
6.26221e-05
7.88482e-05
0.00019499
0.000682191
0.000681302
0.000997932
0.00133449
0.00128354
0.00117105
0.000919399
0.00159551
0.00167805
0.00147694
0.00118357
0.00120588
0.000837425
0.000720824
0.000298038
0.000161489
7.98556e-05
0.000142927
5.53264e-06
0.000152689
0.000263122
0.000721563
0.00102024
0.00118159
0.00105463
0.00107073
0.000848569
0.000926478
0.00136859
0.00120963
0.00112461
0.000746639
0.000764311
0.000575429
0.000282631
2.13073e-05
3.21707e-05
0.000169506
0.000197604
0.000193025
0.00030566
0.000441447
0.000657549
0.00102015
0.00090958
0.000943174
0.000539883
0.000609662
0.000678892
0.000716554
0.000726301
0.000874142
0.000578882
0.00043197
0.000332853
0.000186511
5.01246e-05
9.68918e-06
5.27335e-05
0.000185849
0.000189586
0.000333109
0.000494069
0.00072471
0.000473852
0.000426496
0.000448338
0.000684983
0.00054398
0.000829696
0.000323807
0.000672558
0.00034065
0.00025913
0.000105301
0.000146272
0.000124108
1.75101e-05
0.000225926
5.8498e-05
0.000368533
0.000461093
0.000292585
0.000445888
0.000295948
0.000311326
0.000316916
0.000175742
0.000359331
0.000436391
4.57404e-05
0.000264252
3.24193e-05
3.12829e-05
0.000150432
0.000150006
2.43731e-05
0.00021556
0.000122849
3.59545e-05
0.000126653
1.8956e-05
3.14946e-05
0.000309441
2.75441e-05
6.99018e-05
0.00031518
0.00373706
0.00419435
0.00444838
0.00437604
0.00421952
0.00398999
0.00352643
0.00318747
0.00272645
0.00273195
0.0025981
0.0025643
0.00295792
0.00334441
0.00359219
0.0037353
0.00403394
0.00396582
0.0035814
0.00334024
0.00317782
0.0036452
0.00353675
0.00373971
0.00388649
0.00359073
0.00304154
0.00287055
0.00250995
0.00224663
0.00230713
0.00234953
0.00261723
0.0029268
0.00305084
0.00335497
0.00362545
0.00368271
0.00325818
0.00282116
0.00281055
0.00315353
0.00320413
0.00326442
0.0032544
0.00326295
0.00263675
0.00236496
0.00211911
0.0018375
0.00205167
0.00220865
0.00228259
0.00257018
0.00281813
0.00304967
0.00308975
0.00277335
0.00278057
0.00257122
0.0022686
0.00258442
0.00267725
0.00264973
0.00261395
0.00258629
0.00222778
0.0019424
0.00177524
0.00172467
0.00150276
0.00176257
0.00164944
0.00212483
0.00231864
0.00268589
0.00227586
0.00264286
0.00256931
0.00199878
0.00193162
0.00186369
0.00233292
0.00220965
0.00207999
0.00200936
0.00194018
0.00157219
0.00145364
0.00144998
0.00124343
0.0015286
0.00158812
0.00160071
0.00183623
0.00206747
0.00189761
0.00201496
0.00165496
0.00139804
0.00129594
0.00138407
0.00165676
0.00180658
0.0014452
0.00129772
0.0013038
0.00122401
0.00113531
0.000949702
0.000830058
0.000920191
0.00103184
0.00111855
0.00126947
0.00139413
0.00142501
0.00138291
0.00148472
0.00115836
0.000647254
0.00079742
0.00116272
0.000942462
0.00103004
0.000952881
0.000602665
0.000659368
0.000675535
0.000789935
0.00041882
0.000731231
0.000754602
0.000753928
0.000894972
0.00104465
0.000878715
0.000762637
0.00076691
0.00049271
0.000366542
0.000345091
0.000336421
0.000257687
0.000371248
0.000397873
0.000242271
0.000329726
0.000231955
0.000188388
1.58127e-05
0.000314244
0.000463634
0.000321579
0.000251589
0.000415229
0.000484958
0.000428921
0.000284967
0.000288084
0.00502244
0.00539487
0.0060858
0.00622346
0.00612424
0.00599851
0.00565051
0.00541666
0.00519929
0.00501639
0.00518458
0.00509345
0.0055608
0.00583746
0.00579784
0.00601306
0.00600787
0.00582016
0.00543515
0.00487564
0.00423123
0.00480249
0.00517262
0.00537113
0.00537644
0.00518007
0.00513458
0.00487765
0.00465998
0.0044004
0.00436854
0.00459136
0.00489531
0.00476928
0.00504185
0.00540456
0.00521499
0.00514516
0.00475703
0.00413121
0.00386273
0.00418438
0.00444534
0.0046332
0.00459789
0.00450862
0.00435176
0.00400602
0.00396887
0.00393497
0.00395606
0.00373915
0.00404835
0.00426254
0.00464036
0.00455969
0.00450284
0.00426151
0.00385185
0.00381286
0.0032182
0.00361565
0.0038552
0.00365636
0.00396399
0.00374396
0.00362272
0.00345161
0.00336626
0.00304563
0.00323301
0.00325104
0.00321189
0.00333192
0.00362662
0.00356036
0.0036152
0.00358172
0.00333857
0.00294599
0.00272977
0.002738
0.00300796
0.00291895
0.00317598
0.00306972
0.00303515
0.00267032
0.00266941
0.0025074
0.00248973
0.0023235
0.00276726
0.00280763
0.00278066
0.00304525
0.00290528
0.0029192
0.0028587
0.00247096
0.00164728
0.00190445
0.00210069
0.00217888
0.00241881
0.00218586
0.00207248
0.00191465
0.00173541
0.00186635
0.00178853
0.00176612
0.00211783
0.00198196
0.00206068
0.00216963
0.00218974
0.00211141
0.00192781
0.00151972
0.000984736
0.00112364
0.00121763
0.00124149
0.00158069
0.00127248
0.00156302
0.00152724
0.00114874
0.00118432
0.00131024
0.000994062
0.00122915
0.00118766
0.00124306
0.0013551
0.00127166
0.00120892
0.00120812
0.00107089
0.000320503
0.000501562
0.000384358
0.000617762
0.000467546
0.000443336
0.000643529
0.000417211
0.000259419
0.000438511
0.000253998
0.000481133
0.00045414
0.000369848
0.000411039
0.000229463
0.000702162
0.000504077
0.000362852
0.000265076
0.0058251
0.00642611
0.0071619
0.00749508
0.00763379
0.0076354
0.00771691
0.00747098
0.00727254
0.00731559
0.00732185
0.00739342
0.00732425
0.00778342
0.00787789
0.00760618
0.00764639
0.00742899
0.0066765
0.00611284
0.00519905
0.00571165
0.00613326
0.00641309
0.00671785
0.00672555
0.00669615
0.00650572
0.00666565
0.00665258
0.00649607
0.00650974
0.00645892
0.00690215
0.00670204
0.00668376
0.00644814
0.00641991
0.00573995
0.00520795
0.00446001
0.00503903
0.00535258
0.00549089
0.00589279
0.00569969
0.00577431
0.00556507
0.00555247
0.00554467
0.00570747
0.00549549
0.00573941
0.00585763
0.00588056
0.00570309
0.0058568
0.00537644
0.00507742
0.00470083
0.00360082
0.00425217
0.00452116
0.00464721
0.00491563
0.00506013
0.00477429
0.00477871
0.00459337
0.00450376
0.00446632
0.00472768
0.00463664
0.00488353
0.00487001
0.00478796
0.00484083
0.00436634
0.00398092
0.00374052
0.00292058
0.00339954
0.00336249
0.00370244
0.00375485
0.00387828
0.00372368
0.00354721
0.00360784
0.00355621
0.00366309
0.00371524
0.00369029
0.00382145
0.00375763
0.00372382
0.00380176
0.00338728
0.00315716
0.00300907
0.00213126
0.00231223
0.00257635
0.00281201
0.00267079
0.0026911
0.0027272
0.00262192
0.00247647
0.00262397
0.00242649
0.00278956
0.00282921
0.00260653
0.00269611
0.00281189
0.00270696
0.00260693
0.00234072
0.00196673
0.00145523
0.00143671
0.00158665
0.00159332
0.00155421
0.00166727
0.00175474
0.00156413
0.00164016
0.00177621
0.0017584
0.00164933
0.00164507
0.00176324
0.00148832
0.00163129
0.0016492
0.00156664
0.00126512
0.00140468
0.00045078
0.000585355
0.000542412
0.000545919
0.000620577
0.000369449
0.00070169
0.000507456
0.0008037
0.000497038
0.000620959
0.000637745
0.000446289
0.000421641
0.000578735
0.00035803
0.00067103
0.000688618
0.000540734
0.000580324
0.00638247
0.00734321
0.00809882
0.00872946
0.00889346
0.00895368
0.00918952
0.00921998
0.00911954
0.00912533
0.00921754
0.00913484
0.00908359
0.0095043
0.00940291
0.00916047
0.00903128
0.00816247
0.00771119
0.00700058
0.00557133
0.00624838
0.00683048
0.00729051
0.00777612
0.00788047
0.00797133
0.00786263
0.00777412
0.00789317
0.00806091
0.00821772
0.00794496
0.0081137
0.00830244
0.00778983
0.0075648
0.00738935
0.00680648
0.00609286
0.00490458
0.00548874
0.00601261
0.00648448
0.0066009
0.00690264
0.00672948
0.00688978
0.00660205
0.00683769
0.00677045
0.00682876
0.00691671
0.0069075
0.00694129
0.00666301
0.00629742
0.00608573
0.00572598
0.00512128
0.00402399
0.00442314
0.0049221
0.00535291
0.00540935
0.00574133
0.00573086
0.00576168
0.00564799
0.00566587
0.00563304
0.00578103
0.00565329
0.00586299
0.00579827
0.00587162
0.00558024
0.00529486
0.00456147
0.00400309
0.00301012
0.00344869
0.00393044
0.00429465
0.0043524
0.00439643
0.00464889
0.00445629
0.00448461
0.00458763
0.00429008
0.00449707
0.00458706
0.00478912
0.00481218
0.00435688
0.00418146
0.00399003
0.00381371
0.00327532
0.0023317
0.00259913
0.0028786
0.00307434
0.00310588
0.0031477
0.00311463
0.00338567
0.00315689
0.00302804
0.0031401
0.00319575
0.00309464
0.00327095
0.00316349
0.00315833
0.00306098
0.00309748
0.00251647
0.00258154
0.00157242
0.00159073
0.00168924
0.00189011
0.00189251
0.00209909
0.00192577
0.00209911
0.00209763
0.00218596
0.00190424
0.00208798
0.00203811
0.0020594
0.00200098
0.00190292
0.001873
0.0017546
0.00160131
0.00131236
0.000543214
0.000494006
0.000517467
0.000480417
0.000478601
0.000639237
0.00058613
0.000856144
0.000734323
0.00078239
0.000609682
0.000600578
0.000707315
0.000650364
0.000768153
0.000775387
0.000588102
0.000659809
0.000510365
0.000472912
0.00654387
0.00744802
0.00852155
0.00904107
0.00954699
0.0101598
0.00996888
0.0104457
0.0103958
0.0104486
0.0104545
0.0102661
0.0104391
0.0103884
0.0104929
0.00996854
0.00962132
0.0088973
0.00827567
0.00719085
0.00596463
0.00640823
0.00725861
0.00799542
0.00859413
0.00878791
0.0088809
0.00889935
0.00910641
0.00895687
0.00921607
0.00916722
0.00910422
0.00921834
0.00908527
0.00873088
0.00848485
0.00772337
0.00688894
0.00634652
0.00484748
0.00586655
0.00608953
0.00688197
0.00728078
0.00745768
0.0076901
0.00781667
0.00763787
0.00805319
0.00787454
0.00772893
0.00799818
0.00781766
0.00772842
0.00768362
0.00715093
0.00650837
0.00598125
0.00536758
0.00431038
0.00453129
0.0051205
0.00565469
0.00585921
0.00614104
0.00616654
0.00649784
0.00641024
0.0064189
0.00671214
0.00659372
0.00672857
0.00649056
0.00633907
0.00619335
0.00566953
0.00554002
0.00508806
0.00429083
0.00308492
0.00356848
0.00413784
0.00479454
0.00473447
0.00475887
0.00486403
0.00519913
0.00511071
0.00510213
0.00525508
0.0051709
0.00482997
0.00520631
0.00514373
0.00497403
0.00472568
0.00451915
0.00371208
0.00358372
0.00227802
0.00258796
0.00294666
0.00320075
0.00358141
0.00336349
0.00343347
0.00377907
0.00368055
0.00373095
0.00391075
0.00370019
0.00382719
0.00385323
0.00395523
0.00342356
0.00330823
0.00311139
0.00281128
0.00254451
0.00137206
0.00166596
0.00172723
0.00188583
0.00228542
0.0022572
0.00214247
0.00219954
0.00222803
0.00220518
0.00234816
0.00231225
0.00225081
0.00211913
0.00206094
0.00218011
0.00197615
0.0018774
0.00164927
0.00160001
0.000519097
0.000254754
0.000612241
0.000592452
0.000722122
0.000854813
0.000615799
0.000563619
0.000685226
0.000750483
0.000818925
0.000913434
0.000798381
0.000624732
0.000729142
0.000660493
0.000581425
0.000506772
0.000781132
0.000217352
0.00629955
0.00727638
0.00834991
0.00925734
0.0101049
0.01051
0.0108453
0.0109794
0.0111741
0.0113696
0.0113061
0.0111986
0.0114181
0.011098
0.0111236
0.0104552
0.00988538
0.00926014
0.00821613
0.00718476
0.00545502
0.00618135
0.00725903
0.00807063
0.00867306
0.00895794
0.00961534
0.00978606
0.00983927
0.00991655
0.00995257
0.0099687
0.009795
0.0096133
0.00946831
0.009202
0.00860033
0.00793449
0.00724443
0.00622691
0.00474876
0.00528816
0.00623263
0.00667949
0.00755109
0.00788503
0.00806594
0.00818404
0.0083157
0.00843511
0.00855937
0.00856818
0.0084675
0.00810769
0.00825743
0.00774548
0.00743321
0.0068513
0.00618239
0.00528641
0.00381086
0.00438835
0.00522774
0.00582174
0.00626305
0.00653237
0.0068274
0.00663787
0.00699721
0.00703663
0.00699505
0.00713887
0.00696071
0.00689602
0.00670351
0.00647381
0.00625615
0.00566052
0.00512796
0.00438521
0.00307883
0.00328732
0.00408082
0.00451718
0.00495699
0.00523549
0.00525618
0.00540304
0.00542426
0.00558911
0.00554365
0.00554542
0.00559785
0.00532644
0.00526124
0.00509397
0.00454853
0.00439533
0.00390538
0.00352072
0.00228163
0.00281198
0.00288117
0.00308239
0.00362895
0.00352695
0.00384456
0.00399089
0.00397703
0.00414852
0.00403636
0.0038371
0.00398998
0.00384801
0.00397331
0.00352338
0.00342762
0.00320298
0.00305283
0.00258045
0.00131784
0.00161846
0.00176335
0.00208768
0.00215213
0.00218197
0.00263376
0.0024326
0.00253878
0.00248771
0.00217939
0.00268624
0.00239141
0.00249471
0.00230746
0.00235069
0.00206443
0.00190588
0.00179899
0.00147691
0.00045393
0.000511393
0.000643724
0.000664472
0.000534134
0.000826042
0.000500172
0.000844129
0.000971741
0.00110008
0.00082623
0.000852052
0.000842161
0.00101803
0.000914796
0.000789078
0.000886843
0.000562157
0.000765531
0.000562036
0.00552033
0.00662812
0.00797346
0.00889141
0.00947518
0.0103685
0.0106936
0.0110937
0.0113811
0.0115676
0.0116902
0.0116224
0.0113385
0.0114264
0.0110479
0.0106841
0.00990107
0.0089314
0.00786107
0.00678517
0.00482662
0.00572776
0.00679095
0.00771176
0.0086548
0.00911745
0.00963456
0.00983289
0.0101194
0.0100679
0.0101146
0.0103473
0.0100853
0.00989047
0.00986539
0.00948669
0.00858733
0.0078534
0.00691601
0.00577647
0.00409152
0.00488646
0.00591131
0.0065903
0.00732456
0.00775214
0.00793707
0.00832511
0.0086665
0.0087509
0.00874548
0.00886285
0.00858401
0.00849008
0.00812182
0.00796807
0.00745712
0.00667242
0.00581259
0.00493878
0.00347899
0.00418103
0.00472482
0.00547076
0.00611661
0.00642708
0.00662202
0.00708215
0.00719401
0.00712153
0.00724718
0.00737705
0.00728015
0.00705816
0.00690324
0.00641711
0.00606017
0.00545781
0.00497302
0.00404365
0.00247987
0.00313042
0.00360733
0.00443501
0.00459099
0.00504629
0.00543653
0.00573492
0.00562423
0.00570451
0.00573764
0.00590131
0.00548685
0.00550133
0.00541426
0.00507318
0.00466274
0.00434196
0.00368122
0.00317777
0.00187733
0.00243716
0.00270062
0.00304191
0.00351918
0.00380613
0.00372301
0.00389402
0.00422681
0.00428491
0.00435142
0.00425589
0.00401613
0.00405798
0.00379416
0.00373793
0.00341799
0.00331288
0.00267903
0.00244099
0.00117143
0.00150457
0.001641
0.00202674
0.00206937
0.00220648
0.0022438
0.00233897
0.00243974
0.00240822
0.00242315
0.00257036
0.00243895
0.00239124
0.00253883
0.00226798
0.0022255
0.00197913
0.00189753
0.00121853
0.000439005
0.000630675
0.000615194
0.000621597
0.000863649
0.000841471
0.000791399
0.000655852
0.000888927
0.000844725
0.000927714
0.00086408
0.000885518
0.000935773
0.00072008
0.000734802
0.00072447
0.000655038
0.000825844
0.000229295
0.00414219
0.00573123
0.00687198
0.00823025
0.00909953
0.00978482
0.0106672
0.0108994
0.0111021
0.0114853
0.0115762
0.0115549
0.0113905
0.0111235
0.0107704
0.010192
0.00931567
0.00839227
0.00692358
0.00579391
0.0038164
0.0046348
0.00605086
0.00695978
0.00785356
0.00865798
0.00926889
0.00958824
0.00974501
0.00996439
0.0100551
0.0102539
0.00988838
0.00964081
0.0092058
0.00875357
0.00816261
0.00742812
0.00612269
0.0051284
0.00320153
0.00393857
0.00507584
0.00589196
0.00664636
0.00729979
0.00784213
0.00804527
0.00835964
0.00849046
0.00883893
0.00831377
0.00863686
0.00831879
0.00796794
0.00769893
0.00694184
0.00615447
0.00501593
0.00435502
0.00255607
0.00343898
0.00420061
0.00502903
0.00552195
0.00602117
0.00656166
0.00684034
0.00699141
0.00705188
0.00699269
0.00697028
0.00702516
0.00664267
0.00657092
0.00623757
0.00568255
0.00473813
0.00413452
0.00358444
0.00200796
0.00259939
0.00318437
0.00406126
0.00436678
0.00483904
0.00517949
0.00517201
0.00553815
0.00570798
0.00558235
0.00586044
0.00532953
0.00535353
0.00526483
0.00458042
0.00443982
0.00372174
0.00336068
0.00292632
0.00125284
0.0019002
0.00237997
0.00288515
0.00309353
0.00358708
0.00372322
0.00404506
0.00411585
0.00406482
0.00408199
0.00404762
0.00386228
0.00393655
0.00363098
0.00339557
0.00316237
0.00269913
0.00236903
0.00198417
0.000969627
0.00109344
0.00144528
0.00164998
0.00187025
0.00204061
0.00206673
0.0022217
0.00246205
0.00264196
0.00260169
0.00255207
0.00216393
0.00242581
0.00247745
0.00200042
0.00192471
0.00176799
0.0013787
0.00135664
0.000148263
0.000417034
0.000573385
0.00058572
0.000373289
0.000641606
0.000662676
0.000801057
0.000893837
0.000742221
0.000721813
0.00062117
0.000867883
0.000901294
0.000713798
0.000472696
0.000671749
0.000598643
0.000391106
0.000164434
0.00249079
0.00396701
0.00551805
0.00700121
0.00781168
0.00879084
0.0095024
0.0102058
0.0105
0.0109564
0.0108134
0.0107455
0.0108192
0.0104418
0.00991973
0.00911886
0.0083482
0.00704907
0.00585537
0.00459545
0.00231628
0.00351804
0.00506207
0.00598339
0.00693957
0.00769486
0.00826924
0.00879542
0.00903965
0.00942115
0.00946667
0.00946907
0.00939222
0.00895912
0.00874594
0.0078378
0.00723993
0.00607575
0.00496622
0.00389185
0.00183979
0.0029632
0.00413906
0.00499602
0.00599584
0.00669626
0.00704246
0.0076029
0.00803156
0.00808513
0.00820866
0.00813364
0.00801881
0.00784658
0.00747031
0.00679973
0.00614323
0.00545897
0.00430716
0.00310211
0.00146822
0.00241048
0.0034274
0.00413572
0.0048146
0.00556982
0.00593273
0.0062688
0.0063404
0.00678249
0.00661714
0.00658761
0.00654652
0.00632029
0.00617115
0.00561618
0.00504497
0.0043711
0.00339745
0.00274503
0.00114319
0.00197729
0.00269306
0.00340556
0.00377681
0.00420407
0.00467674
0.005056
0.00514508
0.00526065
0.00525039
0.00537373
0.00532874
0.00482649
0.0047173
0.00438373
0.00371512
0.00325132
0.00277716
0.00229469
0.00103598
0.00137926
0.00197936
0.00234003
0.00262983
0.00315616
0.00338502
0.00346536
0.00354659
0.00368786
0.00378347
0.00393971
0.00374074
0.00377492
0.00368665
0.0031365
0.00306855
0.00267077
0.00202333
0.00157164
0.000453576
0.000592035
0.00116198
0.00151223
0.00159944
0.00191011
0.00195059
0.00211476
0.002127
0.00219915
0.00231495
0.00232487
0.00222028
0.00211446
0.00222687
0.00197413
0.00170521
0.00166441
0.00115121
0.000879486
0.000249974
0.000326322
0.00060273
0.000548278
0.000568275
0.000537096
0.000560803
0.000498526
0.000660557
0.000826699
0.000853142
0.000634022
0.000857508
0.000695517
0.000747375
0.000716076
0.000627315
0.00033772
0.000298708
0.000330255
0.000505769
0.00211045
0.00341389
0.0051407
0.00639518
0.00723083
0.00827927
0.00905927
0.0092601
0.00951469
0.0096609
0.00973341
0.00952408
0.00921353
0.00851479
0.00791321
0.00671576
0.00549714
0.00415966
0.00271074
0.000293721
0.00171296
0.00299231
0.00456841
0.00556563
0.00640408
0.00706955
0.00768205
0.00799147
0.00820939
0.00836708
0.00849033
0.00829263
0.00816528
0.00740094
0.00686343
0.00576444
0.00477739
0.00365518
0.00245601
0.000573067
0.00136078
0.00247547
0.00379358
0.00465851
0.00541469
0.00623564
0.00663822
0.00708358
0.00722447
0.00723516
0.00731684
0.00712677
0.0067835
0.00623732
0.00583108
0.00508981
0.00401777
0.00304274
0.00213331
0.000259103
0.0011261
0.00216192
0.00316335
0.00384027
0.00476322
0.00512183
0.00533496
0.00563274
0.00591168
0.00579743
0.00585578
0.00580098
0.0056037
0.00501146
0.00470757
0.00410103
0.00313302