/*--------------------------------*- C++ -*----------------------------------*\
| =========                 |                                                 |
| \\      /  F ield         | OpenFOAM: The Open Source CFD Toolbox           |
|  \\    /   O peration     | Version:  2212                                  |
|   \\  /    A nd           | Website:  www.openfoam.com                      |
|    \\/     M anipulation  |                                                 |
\*---------------------------------------------------------------------------*/
FoamFile
{
    version     2.0;
    format      ascii;
    arch        "LSB;label=32;scalar=64";
    class       volScalarField;
    location    "0";
    object      relativeErrorField;
}
// * * * * * * * * * * * * * * * * * * * * * * * * * * * * * * * * * * * * * //

dimensions      [0 0 0 1 0 0 0];

internalField   nonuniform List<scalar> 
3200
(
0.0105008
0.0110971
0.011581
0.0122563
0.0133189
0.0142125
0.0152377
0.0164222
0.016962
0.0176403
0.018064
0.0180986
0.0182931
0.0181139
0.0178312
0.017481
0.0172867
0.0171601
0.0168407
0.0167901
0.00911456
0.00934329
0.0100695
0.0105842
0.0115367
0.0121595
0.0130723
0.0138313
0.0145313
0.0151351
0.0158012
0.0157222
0.0157154
0.0156651
0.0151339
0.0151724
0.0148962
0.0146903
0.0143407
0.0144217
0.00737559
0.00795144
0.00839218
0.0084369
0.00963395
0.0103231
0.0110175
0.0115708
0.0120199
0.0125323
0.0131339
0.0130684
0.0131131
0.01302
0.0129565
0.0125789
0.012589
0.0123078
0.0122368
0.0120703
0.00605415
0.00618803
0.00676948
0.00734478
0.00765205
0.00823469
0.00889526
0.00958103
0.0099628
0.0102034
0.0106777
0.0107456
0.0107328
0.0106333
0.0106847
0.0103473
0.0104327
0.010238
0.00998283
0.00995781
0.00473513
0.00478839
0.00504873
0.0055278
0.00586499
0.00640502
0.00691479
0.00740249
0.00767377
0.00797454
0.00800774
0.00838772
0.00848678
0.00847417
0.00786092
0.00804014
0.00792276
0.00782277
0.00755921
0.00779761
0.00331308
0.00358615
0.00372604
0.00379964
0.00423264
0.00482789
0.00507875
0.0052333
0.00541186
0.00571989
0.00578015
0.00578714
0.00582534
0.00575427
0.00580884
0.00577474
0.00575248
0.00553736
0.00561344
0.00538663
0.00203328
0.00202972
0.00232667
0.00216452
0.00269897
0.00289147
0.00301066
0.00315044
0.00352068
0.00342013
0.00340072
0.00358602
0.00376399
0.00369108
0.0033233
0.00343905
0.00327066
0.00334028
0.00334541
0.00334538
0.000773659
0.000868009
0.000646727
0.000847367
0.000825523
0.000578044
0.0011758
0.00113654
0.00118428
0.00131426
0.00111646
0.00104433
0.00141281
0.00113935
0.00119177
0.00123709
0.00104278
0.000971143
0.00102828
0.0010112
0.00872573
0.00903207
0.00960041
0.0102648
0.0113106
0.0122411
0.013063
0.0138617
0.0148167
0.015324
0.0156374
0.0159414
0.0161072
0.0160297
0.0154907
0.0152876
0.014969
0.0149572
0.0148191
0.0147995
0.00746812
0.00760545
0.00823077
0.00891007
0.00953648
0.0104396
0.0113145
0.012045
0.0126627
0.0133513
0.0135576
0.0138157
0.013878
0.0137288
0.013514
0.0133991
0.013143
0.0130894
0.0126608
0.0127633
0.00602935
0.00640686
0.00691294
0.00733901
0.00791239
0.00868027
0.0094043
0.0102184
0.010683
0.0112004
0.0113706
0.0116266
0.0116794
0.0114811
0.0113063
0.0111802
0.0112506
0.0107791
0.010774
0.0106395
0.00496559
0.00518496
0.00555845
0.00615466
0.00640476
0.00713421
0.0074914
0.00825761
0.00869261
0.00916822
0.00917244
0.00935933
0.0093504
0.00955514
0.00943561
0.00895414
0.00893743
0.00916274
0.0086539
0.00867126
0.00381784
0.00421276
0.00429897
0.00455698
0.00501913
0.00557849
0.00581775
0.00658937
0.0068213
0.00707605
0.00724199
0.0072089
0.00741173
0.00739791
0.00728243
0.00720704
0.00682281
0.00700717
0.00692231
0.00680364
0.00253991
0.00290786
0.00294609
0.00341931
0.00370193
0.00403053
0.00426197
0.00459085
0.00486104
0.00500528
0.00506415
0.00531969
0.00547995
0.0053174
0.00520288
0.00531532
0.00501986
0.00507847
0.00486206
0.00469917
0.00170588
0.001818
0.00171959
0.00199537
0.00200121
0.00204535
0.00264771
0.00266383
0.00292334
0.00290728
0.00323884
0.00305901
0.00318236
0.00318783
0.00318191
0.00297561
0.00308877
0.00293112
0.00287981
0.00296677
0.000231982
0.000517256
0.000692255
0.000662503
0.000861655
0.000956792
0.000860805
0.00110406
0.00109547
0.000929757
0.00117808
0.000922008
0.00100662
0.00107616
0.000899499
0.00123727
0.000885873
0.000999983
0.00102582
0.000823117
0.0063453
0.00646037
0.0068878
0.00750546
0.00856171
0.00937766
0.0101533
0.0108823
0.0116837
0.0124107
0.0128781
0.0129666
0.0133066
0.0127759
0.0128115
0.012488
0.0122795
0.0121455
0.0120497
0.0121186
0.00532995
0.00568173
0.00604544
0.00657572
0.00742432
0.00792229
0.00868094
0.00957854
0.0101211
0.0106469
0.0110723
0.0111193
0.0113204
0.0112424
0.0111009
0.010773
0.0105475
0.0106288
0.0104729
0.0106698
0.00444671
0.00459102
0.00502586
0.0053032
0.00607422
0.00668748
0.00741428
0.00809057
0.00854702
0.0088146
0.0095326
0.00974166
0.00951775
0.0096123
0.00925017
0.00912077
0.00923168
0.00893467
0.00901609
0.00899945
0.00368461
0.00373917
0.00417572
0.00438403
0.00504814
0.00543513
0.00592332
0.00672109
0.00714697
0.00726177
0.00747942
0.00764715
0.00782297
0.00789351
0.00780436
0.00725222
0.00757218
0.00736276
0.00726748
0.0073203
0.00280449
0.00262762
0.00310215
0.00343869
0.00379048
0.00452793
0.00447417
0.00529684
0.00524112
0.00579791
0.00592858
0.00600433
0.00596832
0.00576459
0.00601598
0.00591273
0.00581168
0.00582641
0.00555885
0.00586539
0.00204273
0.00199483
0.00198495
0.00255962
0.00264575
0.00293559
0.00351444
0.00382519
0.0041212
0.00399415
0.00428014
0.00443802
0.00416412
0.00450479
0.00440994
0.00415745
0.0040511
0.00406286
0.00407998
0.00417738
0.00103162
0.00129844
0.0014482
0.00146452
0.00162519
0.00182673
0.00206748
0.00222737
0.00249551
0.00271614
0.00252361
0.00264362
0.002458
0.00270259
0.00279329
0.00274427
0.00273105
0.0022953
0.00253227
0.00246654
0.000675315
0.000348218
0.000432237
0.000459091
0.000671814
0.000657635
0.000769786
0.000603436
0.000796515
0.000769895
0.000986985
0.000847776
0.000871589
0.000982595
0.000902804
0.000787909
0.0008419
0.000775016
0.00100326
0.000817996
0.00370119
0.00390703
0.00410031
0.00489769
0.00562433
0.00629197
0.00741339
0.00819053
0.00871232
0.00909148
0.00963258
0.00987939
0.00981199
0.00980857
0.00950627
0.00936847
0.00945801
0.00936093
0.00972955
0.00966066
0.00293123
0.00323423
0.00363123
0.00414202
0.00471584
0.00552892
0.00607209
0.00676721
0.00732933
0.00794045
0.0082953
0.00860005
0.00851528
0.00840069
0.00842618
0.00806415
0.00819547
0.00812098
0.00818055
0.00813758
0.00252029
0.00276748
0.0030132
0.00341633
0.00400615
0.00457307
0.00498212
0.00582946
0.00630644
0.00667903
0.00688368
0.00720058
0.00710837
0.0071763
0.0070821
0.00689841
0.00704157
0.00690377
0.00692449
0.00715774
0.00202481
0.00221397
0.00231888
0.00269348
0.00316295
0.00390108
0.00415879
0.00454485
0.00516348
0.00543846
0.00592069
0.00591317
0.00588186
0.00575207
0.00589381
0.00570665
0.00548768
0.00561326
0.0056453
0.00574244
0.00146634
0.0016068
0.0016686
0.00213244
0.00251651
0.0029577
0.00300815
0.00358028
0.00394921
0.00413243
0.00463915
0.00435459
0.00466647
0.00475612
0.00467109
0.00440366
0.00436145
0.0043617
0.00453972
0.00462357
0.000893036
0.00131809
0.00115288
0.00142674
0.00185727
0.00191586
0.00208793
0.0026087
0.00304981
0.00298204
0.00303007
0.00312812
0.00346168
0.00317289
0.0032541
0.00309404
0.00313045
0.00318059
0.00305168
0.00312293
0.00068907
0.000922731
0.00101878
0.000951634
0.000958771
0.00141356
0.00143103
0.00128542
0.00159195
0.00186496
0.00187372
0.00196952
0.00204548
0.00183089
0.00175139
0.00195929
0.00188018
0.00207215
0.00203698
0.00197794
2.27552e-06
0.000238373
0.000282184
0.00045038
0.000296059
0.00050116
0.000256978
0.000415636
0.000415874
0.000746385
0.000803112
0.00069473
0.000710665
0.000497423
0.000711463
0.000729012
0.000696383
0.000725636
0.000717624
0.000472241
0.00104481
0.00114393
0.00148668
0.00202861
0.00266693
0.00313845
0.00394658
0.00479894
0.00520039
0.00610811
0.00652769
0.00650544
0.00667266
0.00665148
0.00660428
0.00657271
0.00662846
0.00669511
0.00682668
0.00705184
0.000886549
0.00100985
0.00109714
0.00169031
0.00232473
0.00278596
0.00360436
0.00401308
0.00476051
0.00508447
0.00558252
0.00571659
0.00565548
0.00583092
0.00575812
0.00568469
0.0058672
0.00589042
0.00563156
0.00595676
0.000521948
0.00088625
0.00108224
0.00160301
0.00194359
0.00235035
0.00274258
0.00344632
0.00388796
0.00434112
0.00443258
0.00473325
0.00478184
0.00487948
0.00473738
0.00464619
0.00487758
0.00454108
0.00512978
0.00509091
0.000474054
0.00050064
0.000714618
0.00115773
0.00109219
0.00194115
0.00222318
0.00268775
0.00323746
0.00356525
0.00376839
0.00394114
0.00415732
0.00371844
0.00397551
0.00390601
0.00393774
0.00397149
0.00415458
0.00407156
0.000247101
0.000548925
0.000282872
0.000684885
0.00123799
0.00152442
0.00175824
0.00222985
0.00227952
0.00258076
0.00299408
0.00298643
0.00316506
0.00313895
0.00306396
0.00314624
0.0031677
0.0031139
0.00301878
0.00333833
0.000346592
0.00021346
0.000383315
0.000751294
0.000549734
0.000819919
0.00134779
0.00156877
0.00155337
0.00215585
0.00183252
0.00231154
0.00236754
0.00213418
0.00215004
0.00219806
0.00204351
0.00229792
0.00225252
0.0023195
0.000130612
0.000266215
0.000346819
0.00031158
0.000571422
0.000646046
0.000629476
0.00100635
0.000933885
0.0011917
0.00140183
0.00115587
0.00123379
0.00138024
0.00130225
0.00133909
0.00110145
0.0013085
0.0012734
0.00149547
0.00010872
0.000110141
0.000192797
5.64105e-05
1.76039e-05
8.8399e-05
0.000206815
0.000195667
0.000373837
0.000461825
0.000620083
0.000519904
0.000286296
0.000592084
0.000333909
0.000556546
0.000385726
0.000368024
0.000422904
0.000478062
0.00120124
0.00115872
0.000799984
0.000564119
2.50753e-05
0.000520799
0.00099088
0.00172527
0.00236269
0.00267071
0.00315111
0.00340915
0.0036411
0.00371925
0.00337815
0.00382907
0.00392872
0.00414408
0.00424607
0.00468014
0.00112472
0.00123076
0.000915946
0.000622996
0.000239651
0.000215977
0.000901931
0.0013659
0.00196852
0.00250432
0.00267224
0.00297177
0.00302177
0.00328573
0.00326907
0.00310891
0.00309153
0.0035598
0.00369971
0.00401183
0.00110299
0.00101176
0.000880974
0.000720502
0.000422843
0.000334746
0.000824574
0.001238
0.00159949
0.00201217
0.00238219
0.00254378
0.00248072
0.00256965
0.00279689
0.00268325
0.00277312
0.00276804
0.00321802
0.00319782
0.00100931
0.000986879
0.000795931
0.000735273
0.000317143
0.00016102
0.000604634
0.000992428
0.00128072
0.00171132
0.00174661
0.00189218
0.00215847
0.00196989
0.00211753
0.00209651
0.00221251
0.00225343
0.00247377
0.00285929
0.000637891
0.000761409
0.000676086
0.000388113
0.000484001
0.000103817
0.000472147
0.00101305
0.0010812
0.000908118
0.00137212
0.00160132
0.00135119
0.00183451
0.00175784
0.00189041
0.00154227
0.00185958
0.00222781
0.00191676
0.000669867
0.000630149
0.000541677
0.000471397
5.55113e-05
7.3041e-05
0.000379562
0.000374561
0.000483879
0.000935521
0.00105865
0.000969714
0.0010762
0.00119673
0.00121077
0.00113704
0.00113085
0.00141252
0.00149021
0.00170148
0.000293197
7.58869e-05
0.000470519
6.91658e-05
0.000147384
0.00017727
5.85512e-05
0.000332015
0.000500322
0.000322557
0.000638431
0.000735273
0.000595552
0.000723284
0.00072002
0.00066872
0.000838373
0.000822366
0.000929211
0.00113926
4.1299e-05
5.48436e-05
2.89512e-05
9.47463e-05
0.000140953
1.53573e-05
0.000188661
0.000263373
0.000135889
0.000166475
0.000254559
0.000140802
0.000135617
0.000221694
0.000219905
0.000360505
0.000301292
0.000374025
0.000193437
0.000182243
0.00332851
0.00334409
0.003405
0.00317192
0.00245489
0.00228536
0.00163758
0.000916643
0.000635316
0.000352072
0.000288075
0.00056496
0.000733682
0.000798489
0.00118834
0.00114278
0.0014912
0.00165258
0.00189119
0.00231517
0.00286418
0.00302698
0.00313682
0.00273611
0.00255902
0.00202662
0.00175253
0.00102822
0.000762263
0.000211321
4.47213e-05
0.00010012
0.00045324
0.000858781
0.000662308
0.000794725
0.000943452
0.00121249
0.001919
0.00204773
0.00266797
0.00254725
0.00248617
0.00253168
0.00225645
0.00188762
0.00154325
0.000672102
0.00062449
0.000247681
0.000113849
0.000331566
0.000501716
0.000565868
0.000548723
0.000615336
0.000692874
0.000980108
0.00145744
0.00143939
0.0023998
0.00237825
0.00213769
0.00224035
0.00176238
0.0015553
0.00127401
0.000866428
0.000257966
0.000146415
5.67784e-05
6.52846e-05
9.02525e-06
0.000457311
0.000431192
0.000469508
0.00100514
0.000902191
0.00115478
0.00141576
0.00169207
0.00188799
0.00180464
0.00163803
0.00184549
0.00126517
0.00102913
0.000834802
0.000593071
0.000223961
6.6084e-07
8.22997e-05
7.40391e-05
6.55824e-05
0.000324119
0.000179231
0.000449647
0.000736878
0.000699208
0.00114097
0.00160409
0.00136595
0.00121343
0.00116097
0.00124414
0.000624145
0.000806747
0.000525739
0.000213597
7.04149e-05
0.000243827
2.82498e-05
0.000136931
0.000375877
0.000110707
0.000628945
0.000356926
0.000372547
0.000396506
0.000786827
0.0009509
0.000721882
0.000795596
0.000658851
0.000600991
0.000689847
0.00043945
0.000367883
0.000384664
0.000205108
1.21842e-05
1.44847e-05
5.02568e-05
5.08226e-05
0.000109201
0.000287201
0.000431606
0.000148895
7.29704e-05
0.000731099
0.000290394
0.00015346
0.000211549
2.83626e-05
0.000328746
0.00017084
0.000104037
0.000173037
6.56743e-05
4.3922e-06
3.34012e-05
0.000109191
0.000165314
0.000164398
1.63694e-05
0.000108272
0.000117654
0.000281329
0.00016753
6.3694e-05
0.00521004
0.00544274
0.00559508
0.00538426
0.00514293
0.00454819
0.00415432
0.00363578
0.00305349
0.00297303
0.00248952
0.00234251
0.0018394
0.00175338
0.0014638
0.00121046
0.000966504
0.000539688
0.000159178
0.000363787
0.00484304
0.00477549
0.00467449
0.00467448
0.00463148
0.00407795
0.00374933
0.00319958
0.0029117
0.00240382
0.0023106
0.00186345
0.00165864
0.00168466
0.0014574
0.00108103
0.000776844
0.000647872
0.000159795
0.000455936
0.00398781
0.0042934
0.00415133
0.00404201
0.00385235
0.00349248
0.00334763
0.00303918
0.00242618
0.00207929
0.00189046
0.00175922
0.00178752
0.00150736
0.00154859
0.00107448
0.000694408
0.000620771
0.000163071
0.000104168
0.00333897
0.00362549
0.003589
0.00339843
0.00351607
0.00314847
0.0029033
0.00219229
0.00218792
0.00177335
0.00188614
0.00119292
0.00128407
0.00119569
0.000992852
0.000966512
0.000715941
0.000549265
3.72299e-05
2.31716e-05
0.00280969
0.00278701
0.00275163
0.00257618
0.00256948
0.00257093
0.00224002
0.00212834
0.00181129
0.00140898
0.00134891
0.00132192
0.0013013
0.00100488
0.000763544
0.000663057
0.000643301
0.000483513
0.000348928
0.000100346
0.00208684
0.00222547
0.00202737
0.00197347
0.00205688
0.00157721
0.00171745
0.00149846
0.00137743
0.00113377
0.000830727
0.000944142
0.000768925
0.000652237
0.000635279
0.000509718
0.000271465
0.000324349
0.000154453
3.08218e-06
0.00114637
0.00110772
0.000940568
0.00119704
0.00128844
0.00111309
0.000908001
0.000879416
0.000803641
0.000761981
0.000616525
0.000764404
0.000490606
0.000301354
0.000392688
0.000252415
0.000297473
6.28921e-05
0.000121529
0.000177647
0.000423179
0.000395455
0.00042213
0.00034628
0.000447005
0.00038266
0.000196352
0.000355526
0.00021506
1.48905e-05
8.45844e-05
0.000223488
1.49361e-05
2.57944e-05
4.83347e-05
7.10235e-05
7.36719e-05
1.78286e-05
0.000118746
0.000158398
0.00659326
0.00711274
0.00744875
0.00708635
0.00722046
0.00686514
0.00637216
0.00611122
0.00566337
0.00518251
0.00506051
0.00447429
0.00430802
0.0042259
0.00382563
0.00319745
0.00316185
0.00254948
0.00195523
0.00138901
0.00595903
0.00635578
0.00626414
0.00634954
0.00635461
0.00619465
0.00565788
0.00532043
0.00502744
0.00463024
0.00439631
0.00436406
0.00406018
0.00378033
0.00338403
0.00317645
0.00295418
0.00237145
0.00179895
0.0013518
0.00544899
0.00523094
0.00553858
0.005586
0.00551792
0.00506981
0.00489468
0.00473226
0.00446176
0.00417234
0.00366433
0.00361685
0.00355876
0.00330343
0.00313645
0.00264098
0.00219376
0.00189248
0.00158341
0.00126512
0.00435038
0.00455168
0.00459934
0.00474811
0.00456686
0.00441554
0.00439005
0.00369441
0.00369236
0.00362925
0.00333619
0.00316278
0.00288064
0.00278221
0.00243004
0.0022367
0.00192497
0.00159332
0.00145232
0.000903493
0.00339639
0.00357026
0.00369655
0.0034259
0.00355289
0.00374035
0.00342025
0.00330763
0.00298838
0.00264435
0.00241245
0.00231515
0.00226247
0.00218624
0.00194864
0.00175921
0.00171965
0.00123271
0.00112727
0.000766589
0.00247654
0.00257317
0.00261077
0.00257029
0.00234991
0.00237838
0.00219428
0.00236737
0.00229806
0.00190834
0.00177147
0.00154972
0.00166567
0.0014784
0.00143251
0.00138325
0.00106122
0.00105493
0.000940328
0.000813327
0.00148638
0.00169529
0.00162371
0.00169604
0.00171611
0.00167483
0.00132014
0.00126901
0.00131663
0.00129882
0.00100135
0.0010335
0.000967886
0.00107282
0.000881889
0.000650252
0.00072105
0.000631015
0.000647465
0.000149885
0.000495641
0.00043584
0.000685113
0.000535954
0.000683894
0.000594938
0.00049428
0.000551292
0.000598464
0.000275297
0.000471747
0.000508864
0.000105463
0.000178054
0.000398552
0.000174611
0.000237474
0.000336259
4.71812e-05
0.000171886
0.00815483
0.00842824
0.00876773
0.00901138
0.00882939
0.00853161
0.00862452
0.00835364
0.00778668
0.00760129
0.0069956
0.00688786
0.00637576
0.0063989
0.00571519
0.00525641
0.00486505
0.00432275
0.00350274
0.00277339
0.00719503
0.0074895
0.00794255
0.00771877
0.00778772
0.00775104
0.00741917
0.0073478
0.00697676
0.00679635
0.00632342
0.00604617
0.00565044
0.00539574
0.00516804
0.0047585
0.00408866
0.00357482
0.00323473
0.00254015
0.00596587
0.00661316
0.00688762
0.00683548
0.00679413
0.0067259
0.00657499
0.00612688
0.0060321
0.00566105
0.00563406
0.0051619
0.00507882
0.00480294
0.00453754
0.00384306
0.00375761
0.00311244
0.00264151
0.00221207
0.00511414
0.00539222
0.00566747
0.00553118
0.00579485
0.00564872
0.00535413
0.00506874
0.00508521
0.00482544
0.00454185
0.0043494
0.00408557
0.00391357
0.00361347
0.00356587
0.00331964
0.00259451
0.00201603
0.00191042
0.00415046
0.0042729
0.00438498
0.00455332
0.0044704
0.00453289
0.0041017
0.00434744
0.00414363
0.00393324
0.00356546
0.00353189
0.00329569
0.0031778
0.00285363
0.00284513
0.00253019
0.0021029
0.00186611
0.00136907
0.00299487
0.0030217
0.0031758
0.00327515
0.00322631
0.00292002
0.00294937
0.00302653
0.0031087
0.00257987
0.00264941
0.00236665
0.00229363
0.00233359
0.00227592
0.0019358
0.00194042
0.00170047
0.00110662
0.00107954
0.00178325
0.00211827
0.00206571
0.00193186
0.00170783
0.00191267
0.00192551
0.00180976
0.00159065
0.00160373
0.00154402
0.00165351
0.00115209
0.00140539
0.00151342
0.00133751
0.000923171
0.000953767
0.000735805
0.000580704
0.000685446
0.00087432
0.000452122
0.000619819
0.000705862
0.00075037
0.00074153
0.000595167
0.000562131
0.000551894
0.000497613
0.000312496
0.000434253
0.00060365
0.00035379
0.000468276
0.000378746
0.000393178
0.000210171
0.000355049
0.00876425
0.00942599
0.00988328
0.0103117
0.0103166
0.0103544
0.010041
0.0100716
0.00969047
0.00924842
0.00898458
0.00878985
0.00847445
0.00786942
0.00751148
0.00686194
0.00643317
0.00569206
0.00483437
0.0042484
0.00797809
0.0083328
0.00890425
0.00893243
0.0092201
0.0090478
0.00906622
0.00869686
0.0084983
0.00832437
0.00778035
0.00760203
0.00741176
0.0071931
0.00651963
0.00615673
0.00568557
0.00499508
0.0041338
0.00362313
0.00693941
0.0072334
0.00770332
0.00785904
0.00783038
0.00785989
0.00781895
0.00749076
0.00726917
0.00687781
0.00677257
0.00663848
0.00636131
0.00617313
0.00562634
0.00534798
0.00487131
0.00443678
0.00367346
0.00325067
0.00577472
0.00582256
0.00639075
0.00645891
0.0067817
0.00640998
0.00638427
0.00621303
0.00594515
0.00608956
0.00558223
0.00548647
0.00521869
0.00498559
0.00450398
0.0044976
0.00401469
0.00349317
0.00317208
0.00270129
0.00462323
0.00481463
0.00530859
0.00534721
0.00536849
0.00534916
0.00518806
0.00536634
0.00483843
0.00462605
0.0047678
0.00441876
0.00422481
0.00402848
0.00376353
0.00356928
0.00326998
0.00290243
0.00233125
0.0021232
0.00318841
0.00356347
0.00366601
0.00368399
0.00371032
0.0036795
0.00364775
0.00367887
0.00352435
0.00351556
0.00326388
0.00316377
0.00309475
0.00292366
0.00271036
0.00248794
0.00224006
0.00218107
0.00156421
0.00128881
0.00194321
0.00214763
0.00236615
0.00235341
0.00225061
0.00227746
0.00222223
0.00195059
0.00194852
0.00192395
0.00193238
0.00187467
0.00199469
0.00157732
0.00165506
0.00158044
0.00146119
0.00117944
0.000660293
0.000877721
0.000689472
0.000836966
0.000633699
0.00059395
0.000788334
0.000712061
0.000805445
0.000684376
0.00068101
0.000623865
0.000701778
0.000617722
0.00057924
0.000525904
0.000507527
0.000482108
0.000486832
0.000393418
0.000357669
0.000288445
0.00970758
0.0101663
0.0109879
0.0112556
0.011479
0.0115685
0.0114005
0.0113957
0.0112003
0.010895
0.0105515
0.010182
0.00967645
0.00945958
0.00873639
0.00829921
0.00755076
0.00675049
0.00591962
0.00482719
0.00848891
0.00893595
0.00976288
0.00980814
0.0101307
0.0102115
0.0101377
0.00997408
0.00989383
0.00967194
0.00922184
0.00905236
0.00857539
0.00807311
0.00780528
0.00731437
0.00668418
0.00602959
0.00522932
0.00439459
0.00725206
0.00812898
0.00823302
0.00850431
0.00877162
0.00888432
0.00886577
0.00871182
0.00840007
0.00817438
0.00794136
0.00796071
0.00764709
0.00716195
0.00682141
0.00618065
0.00568161
0.00507224
0.00421504
0.00403455
0.00607677
0.00662025
0.00701117
0.00690583
0.00738597
0.00736685
0.00735974
0.00732586
0.00724948
0.00676659
0.00672241
0.00636893
0.00618254
0.00594625
0.00552498
0.00500435
0.00466984
0.00432273
0.00355555
0.00326578
0.00483818
0.00506674
0.00527687
0.00574188
0.00574908
0.00588605
0.00554451
0.00558784
0.00549501
0.00538339
0.00515236
0.00489774
0.00477672
0.00466083
0.00429611
0.00406727
0.00389217
0.00335649
0.00289598
0.00255484
0.00359513
0.00389033
0.00391433
0.00411416
0.00431785
0.00431055
0.00403005
0.00409496
0.00413432
0.00381189
0.00371233
0.003606
0.00343859
0.00333533
0.0032915
0.00289758
0.00264487
0.00248685
0.00212064
0.00172513
0.00222355
0.00230758
0.00255276
0.00266091
0.00239231
0.00252261
0.00246745
0.00235513
0.00239031
0.00246708
0.00226753
0.00225668
0.00215011
0.00206851
0.00186905
0.00179957
0.00178502
0.00142993
0.0014261
0.000910233
0.000637843
0.000767573
0.000818899
0.000743588
0.000656347
0.000810216
0.000884157
0.000890535
0.000997685
0.00095633
0.000913721
0.000783677
0.000640677
0.000643237
0.000583491
0.000791287
0.000838506
0.000406745
0.000615359
0.0002165
0.0101512
0.0109268
0.0115214
0.0120873
0.012264
0.0125053
0.0125428
0.0123196
0.0123323
0.0121317
0.0116718
0.0115707
0.0108765
0.0103452
0.00999301
0.00908974
0.00834559
0.00742066
0.0063365
0.00548379
0.00891282
0.00950834
0.0103211
0.0105458
0.0111509
0.0108593
0.0110055
0.0107169
0.0108824
0.010625
0.0101877
0.00987713
0.0098059
0.00918833
0.00852852
0.00804807
0.0074591
0.00652114
0.00566419
0.00487284
0.00774677
0.00812727
0.00864567
0.00895145
0.00947727
0.00936261
0.00946529
0.0094948
0.00928124
0.00925571
0.00893059
0.00878278
0.0082394
0.00780834
0.00720722
0.0067001
0.00637007
0.00542791
0.00485761
0.00412818
0.00636526
0.00672488
0.0073959
0.0074438
0.00773585
0.00807648
0.00807374
0.00800205
0.00743115
0.00762023
0.00745656
0.00707024
0.00669098
0.00664401
0.00601978
0.00580011
0.0052295
0.00473775
0.00399081
0.00338459
0.00484559
0.00557255
0.00582501
0.0059203
0.00619482
0.00633593
0.0061941
0.00631647
0.00604703
0.00614963
0.00590254
0.00562177
0.00539572
0.00508855
0.00484205
0.00471231
0.00420825
0.00393472
0.00328435
0.00272831
0.00372756
0.00376111
0.00431318
0.0043968
0.00447405
0.00434103
0.00452766
0.00456847
0.00475583
0.00413398
0.00408196
0.00411551
0.00394745
0.00362503
0.00344205
0.00349797
0.00289893
0.00273186
0.00236995
0.00212467
0.00224569
0.00222511
0.00255083
0.0024525
0.00265658
0.00275785
0.00275476
0.00263985
0.00271977
0.00269883
0.00258887
0.00261097
0.0022655
0.00203377
0.00206898
0.00192322
0.00186251
0.00173127
0.00130881
0.00117472
0.000642527
0.000838715
0.000752979
0.000912439
0.000915217
0.000803575
0.000972611
0.000852274
0.000898792
0.000770043
0.000865129
0.000950973
0.00056931
0.000794194
0.000638681
0.000606567
0.000559134
0.000891736
0.000583348
0.000406801
0.0099429
0.0108609
0.0118492
0.0123044
0.0127691
0.0130348
0.013421
0.0130256
0.0131672
0.0127033
0.0123816
0.012131
0.011755
0.011185
0.0106743
0.00962047
0.0090852
0.00781937
0.00666932
0.00590457
0.00891423
0.00949457
0.0101582
0.0107558
0.011282
0.0116426
0.0114495
0.0114632
0.0115024
0.0110606
0.0112113
0.0108447
0.0103748
0.00974881
0.00937275
0.00849182
0.00791095
0.00705739
0.0060565
0.00497729
0.00765962
0.00815482
0.00903675
0.00941408
0.00973595
0.00991609
0.00991417
0.00983205
0.00978242
0.00965572
0.0093455
0.00934378
0.00874648
0.00838567
0.00798247
0.00742204
0.00690703
0.00581853
0.00496946
0.00404578
0.0064741
0.00690137
0.00746545
0.0075704
0.00806599
0.00822267
0.00788869
0.00834841
0.00812691
0.00809091
0.00803278
0.00759075
0.00746465
0.00703201
0.00645523
0.00640244
0.00556548
0.00491342
0.00420864
0.00342209
0.00495173
0.00537584
0.00593678
0.00623303
0.00643217
0.00627462
0.00655607
0.00660167
0.006483
0.00624759
0.00624722
0.00590839
0.00565488
0.0053273
0.00533432
0.00495777
0.00433991
0.00389607
0.00326802
0.00269296
0.00359836
0.00392538
0.00423755
0.00425781
0.00471877
0.00449953
0.00459482
0.00473144
0.00464509
0.00458083
0.00430026
0.00425938
0.00429216
0.00411658
0.00368586
0.00340669
0.00306031
0.00294628
0.0023808
0.00198986
0.00239975
0.00227717
0.00272628
0.00277936
0.00285816
0.00278221
0.00306594
0.00267979
0.00293415
0.00269386
0.00282528
0.00276773
0.00267185
0.00238515
0.00234181
0.00210853
0.00168562
0.0016346
0.00152534
0.00128479
0.000528751
0.000923709
0.00101316
0.000850792
0.00104161
0.000798416
0.00107006
0.000993266
0.000997548
0.000980773
0.000951695
0.000972836
0.000802699
0.000722904
0.000749465
0.00065598
0.000725755
0.000551894
0.000338476
0.000416338
0.00970963
0.0106039
0.0116062
0.0122968
0.0128703
0.0132345
0.0135344
0.0134712
0.0135065
0.013187
0.0130282
0.0126402
0.0120353
0.0115396
0.0107362
0.00983626
0.00891684
0.00757905
0.00663274
0.00547903
0.00850703
0.00933956
0.0102343
0.0106937
0.0113458
0.0115907
0.0119482
0.0118907
0.0117924
0.0117486
0.0113423
0.0108923
0.010678
0.010022
0.00952684
0.00878821
0.00812858
0.00679656
0.00596373
0.00488602
0.00746532
0.00815153
0.00885806
0.00923773
0.00983512
0.0101255
0.0102178
0.0102218
0.010195
0.0101179
0.00989914
0.00943468
0.00917915
0.0085469
0.00824557
0.00748539
0.00690831
0.0058251
0.00525759
0.00426782
0.00614721
0.00676669
0.00741288
0.00756381
0.00820179
0.00819687
0.00856221
0.00846579
0.00876022
0.00829266
0.00812406
0.0079275
0.00741412
0.00722729
0.00666801
0.00620521
0.00558885
0.00487862
0.0043746
0.00349316
0.00501485
0.00540342
0.00593629
0.00607848
0.00652933
0.00646983
0.00662016
0.00686033
0.0066771
0.00654777
0.00652998
0.00613979
0.00600269
0.00568494
0.00535888
0.00489626
0.00456194
0.00381866
0.00332836
0.00277096
0.00378254
0.00381614
0.00420393
0.00464377
0.00466207
0.00478662
0.00514585
0.00460518
0.00487134
0.00476535
0.00460624
0.00454639
0.00424266
0.00409328
0.00387118
0.00354656
0.00299952
0.00277554
0.00239888
0.00199074
0.00234723
0.00249137
0.00258023
0.00255983
0.00286797
0.00292348
0.00294691
0.00285217
0.00289803
0.00301738
0.00305978
0.00250935
0.00272431
0.00240394
0.00212271
0.00205149
0.00202556
0.00175441
0.00158507
0.0013167
0.000733091
0.000912513
0.000883074
0.000872694
0.000922371
0.000879995
0.00086521
0.000889866
0.00105101
0.00112925
0.000762358
0.000877315
0.000772649
0.000926448
0.00080067
0.000567893
0.000701348
0.000331964
0.000552165
0.000546465
0.00904812
0.00999489
0.0109228
0.0117993
0.0125194
0.0128898
0.0133466
0.013232
0.0133592
0.0132667
0.0132066
0.0125176
0.0121638
0.0118328
0.0107751
0.00983181
0.00884359
0.00754805
0.0063326
0.00512562
0.00787992
0.00891248
0.00989334
0.0105155
0.0109511
0.0113942
0.0116847
0.0119859
0.0117218
0.0116892
0.0113726
0.0111064
0.0107397
0.0103546
0.00942327
0.00844982
0.00767691
0.00681008
0.00553712
0.00464768
0.00698712
0.00766962
0.00848487
0.00898927
0.00960703
0.00996713
0.010051
0.0100704
0.00998874
0.0100518
0.00956606
0.00962363
0.00899141
0.00844707
0.00804953
0.007428
0.00681787
0.00537186
0.00465518
0.00394746
0.00578387
0.00628929
0.00693592
0.00740232
0.00782347
0.00835347
0.00833699
0.00852416
0.00820129
0.00831753
0.00818939
0.00766769
0.0075032
0.00725097
0.00662213
0.00610177
0.00554665
0.00490165
0.00386687
0.00317904
0.00464255
0.00502464
0.0055256
0.00586987
0.00646845
0.00629147
0.00676563
0.00684474
0.00652473
0.00653574
0.00626062
0.00633458
0.0059081
0.00571782
0.00530216
0.0049241
0.00428356
0.00381206
0.00304861
0.00239546
0.00328281
0.00360275
0.00418651
0.00426252
0.00456942
0.00459045
0.00489763
0.00466423
0.00491072
0.00468853
0.00447754
0.00453428
0.00431553
0.00440297
0.00365912
0.0033577
0.00310926
0.00289649
0.0021856
0.00182308
0.00215611
0.00218976
0.00232242
0.00258904
0.00280456
0.00297018
0.00285735
0.00296427
0.00306562
0.0028104
0.00281182
0.00265384
0.00279755
0.00239292
0.00234085
0.00193812
0.00214959
0.00161
0.00147482
0.00106085
0.000865597
0.00065683
0.000992743
0.000793596
0.000794599
0.000937783
0.00104012
0.000968227
0.000977476
0.00111781
0.00106369
0.000827542
0.000880837
0.000730488
0.00101712
0.000683094
0.000713903
0.000448414
0.000407805
0.000599377
0.00797303
0.00900205
0.0101391
0.0111697
0.0118285
0.0124265
0.0126759
0.0130374
0.0128234
0.012651
0.0126946
0.0120596
0.0116275
0.0109434
0.0102286
0.00935835
0.00818679
0.0068181
0.00552392
0.00417422
0.00710127
0.00780271
0.00896739
0.00962712
0.0103635
0.0108669
0.0112779
0.0114417
0.0113964
0.0112666
0.0109755
0.0107322
0.0103862
0.00970852
0.00914086
0.00816643
0.00743516
0.00622235
0.00470399
0.00379227
0.00617401
0.00696939
0.00776871
0.00830597
0.0089267
0.00932362
0.00987531
0.00994596
0.00976613
0.00971518
0.00943267
0.00909356
0.00880954
0.00822147
0.00772112
0.00720751
0.00611589
0.00547294
0.00422243
0.00322809
0.00513376
0.00582468
0.00637912
0.00695406
0.00745764
0.00769585
0.00791515
0.00806624
0.00811096
0.00807692
0.0079791
0.00769281
0.0071125
0.00670885
0.00636454
0.0058202
0.00514053
0.00425416
0.00372442
0.00256417
0.00406618
0.00442563
0.00514416
0.00562917