/*--------------------------------*- C++ -*----------------------------------*\
| =========                 |                                                 |
| \\      /  F ield         | OpenFOAM: The Open Source CFD Toolbox           |
|  \\    /   O peration     | Version:  2212                                  |
|   \\  /    A nd           | Website:  www.openfoam.com                      |
|    \\/     M anipulation  |                                                 |
\*---------------------------------------------------------------------------*/
FoamFile
{
    version     2.0;
    format      ascii;
    arch        "LSB;label=32;scalar=64";
    class       volScalarField;
    location    "0";
    object      relativeErrorField;
}
// * * * * * * * * * * * * * * * * * * * * * * * * * * * * * * * * * * * * * //

dimensions      [0 0 0 1 0 0 0];

internalField   nonuniform List<scalar> 
3200
(
0.00785582
0.00270449
0.00243896
0.00626022
0.00892541
0.0105759
0.0120274
0.0128797
0.0131651
0.0127395
0.0127222
0.0125526
0.0118728
0.0116307
0.0110074
0.00979398
0.00772037
0.0051695
0.00099419
0.0036024
0.0076464
0.00289632
0.00168003
0.00472567
0.00719485
0.00902418
0.0102987
0.010655
0.0107939
0.0108909
0.0107502
0.0102269
0.00993369
0.00994476
0.00897856
0.00837288
0.00682685
0.00431146
0.000641561
0.00337478
0.00695232
0.00293268
0.00091275
0.00391775
0.00603084
0.00737501
0.00828234
0.00911048
0.00911081
0.00907789
0.00895147
0.008633
0.00845288
0.00820201
0.00760328
0.00719576
0.00575076
0.00329982
0.000339026
0.00295963
0.00582828
0.00283959
0.000244309
0.00289104
0.00459275
0.00572825
0.00659565
0.00723282
0.00754038
0.00741276
0.00719801
0.00692218
0.00705416
0.00660215
0.00631305
0.0058104
0.00466992
0.00272232
4.01299e-05
0.00247652
0.0046335
0.00251698
0.000171447
0.00212946
0.0034914
0.00441073
0.00492925
0.00566682
0.00567384
0.00554231
0.00564268
0.00566195
0.00518242
0.00512671
0.00508157
0.00433801
0.00334021
0.00214913
1.65496e-05
0.00211623
0.00349187
0.00189698
3.136e-05
0.00157304
0.00252327
0.00305297
0.00356991
0.00393585
0.00417272
0.00412763
0.00433388
0.00396098
0.0039232
0.00378599
0.0033872
0.00312827
0.00233877
0.0014117
6.29382e-06
0.00140743
0.00230376
0.00122358
9.14107e-05
0.000574404
0.00147138
0.00183413
0.00223706
0.00232125
0.00253107
0.00263801
0.00244577
0.00236472
0.00242293
0.00223881
0.00232073
0.00197915
0.00154447
0.000961987
9.27817e-05
0.000967808
0.000851575
0.000316068
0.000227251
0.000448536
0.000479292
0.000254848
0.000645313
0.000843125
0.000744035
0.000660984
0.00106794
0.000840679
0.000654853
0.000879491
0.000577987
0.000744998
0.000457866
0.000410135
0.000295203
0.000342797
0.00778199
0.00242106
0.00239609
0.00634772
0.00874821
0.0102397
0.0112935
0.0118623
0.0117374
0.0117861
0.0114171
0.0110249
0.0108573
0.0104841
0.0102449
0.00921014
0.00789586
0.00501934
0.00128328
0.00353822
0.00725138
0.00283104
0.00153685
0.00486611
0.0071905
0.00851392
0.00933716
0.00975253
0.00996591
0.00979587
0.00936895
0.0094431
0.00913837
0.00904285
0.00848615
0.00762845
0.00653373
0.00435263
0.000654927
0.00307807
0.00666456
0.00288593
0.000808511
0.00392502
0.00572724
0.00674252
0.00795634
0.00812579
0.00821235
0.00835856
0.00802561
0.00787945
0.00779062
0.00758721
0.00726543
0.00651146
0.00536363
0.00325688
0.000305024
0.00304383
0.00590073
0.00249815
0.000462159
0.00282067
0.00445395
0.00542958
0.00601074
0.00672406
0.00652419
0.0064555
0.00632456
0.006429
0.00617906
0.00622607
0.00606616
0.00551969
0.00450753
0.00259373
0.000335211
0.00243439
0.00460979
0.00226938
5.26709e-05
0.00209443
0.00318779
0.00426286
0.00496087
0.00512984
0.0052004
0.00498151
0.00508697
0.00498756
0.00476811
0.00463343
0.00436195
0.00390856
0.00349586
0.00221859
0.000137324
0.00218297
0.00350145
0.00182896
0.000163356
0.00127125
0.00252036
0.00300222
0.00367307
0.00372328
0.00371749
0.00371163
0.0036334
0.00346175
0.00343414
0.00340566
0.00333662
0.00281563
0.0024688
0.00158171
0.000115007
0.00161321
0.00224038
0.00129487
8.07293e-05
0.000842823
0.00144068
0.00156811
0.0018614
0.00214948
0.00208344
0.00246766
0.00232557
0.00209651
0.00220707
0.00170577
0.00186529
0.00168305
0.00144763
0.000970511
0.000112759
0.00100909
0.000796796
0.000269861
0.000167362
2.41832e-05
0.000645237
0.000415153
0.00058772
0.00075749
0.000644465
0.000682981
0.000926954
0.000697826
0.000956947
0.000859312
0.000664488
0.000713199
0.000515225
0.000344433
0.000121801
0.000224084
0.00757566
0.00240271
0.00238882
0.00581727
0.00804456
0.00950881
0.00996727
0.0099588
0.00999942
0.00957619
0.00947742
0.00891268
0.00885772
0.0088281
0.00879124
0.00833365
0.00736298
0.00475934
0.000898699
0.00341487
0.00707777
0.00292493
0.00153034
0.00454104
0.0066989
0.00785583
0.00823859
0.00857728
0.00844479
0.00835612
0.00803845
0.00756491
0.0077067
0.0075099
0.00760994
0.00707288
0.00605405
0.00359796
0.000798436
0.00321287
0.00656272
0.00273903
0.000732278
0.00357321
0.00511279
0.00621921
0.0069209
0.00696766
0.00694455
0.00667947
0.00659868
0.00663908
0.00627257
0.00632587
0.00618121
0.00599912
0.00489286
0.00329524
0.000201089
0.00275222
0.00563394
0.00276459
0.000341298
0.00261348
0.00399998
0.00493835
0.00539015
0.00574931
0.00572225
0.00544077
0.00530044
0.00511804
0.00524846
0.00510913
0.00510668
0.00460627
0.00387408
0.00236148
0.000222036
0.00227482
0.00461862
0.0021701
0.000165965
0.00167179
0.003134
0.0038644
0.00423011
0.00424284
0.0043219
0.00411259
0.00409781
0.00403426
0.00387662
0.00401527
0.00375731
0.00357689
0.00291372
0.00190055
0.000109563
0.00187409
0.00330679
0.00168854
9.03259e-07
0.0013937
0.00227485
0.0027559
0.00311166
0.00310512
0.0031696
0.00293274
0.00293068
0.00296337
0.00277925
0.00297652
0.00262304
0.00262184
0.00260273
0.00132668
0.000102142
0.00149098
0.00217709
0.00113112
0.000114633
0.000529154
0.00131977
0.00164311
0.00171421
0.00165538
0.00207046
0.00200524
0.0016387
0.00172496
0.00157678
0.00173973
0.00197251
0.00155938
0.00137357
0.000893629
2.33245e-05
0.000808875
0.000796388
0.000481178
1.28313e-06
0.000314063
0.000278411
0.000564843
0.000617135
0.000681308
0.000471236
0.000616189
0.000648864
0.000620655
0.000666971
0.000538368
0.000376477
0.000519779
0.000291595
0.0004121
0.000242134
0.000428697
0.00742508
0.00250385
0.00231215
0.00512546
0.00694629
0.00813252
0.00866918
0.00858742
0.00790807
0.00746926
0.0068425
0.00664547
0.00679019
0.00710779
0.00743624
0.00725829
0.00623136
0.00412256
0.00065089
0.00378696
0.00726722
0.00275418
0.00102453
0.00399877
0.00574198
0.00669806
0.00720054
0.0069826
0.00667337
0.00611202
0.00603218
0.00545
0.00556203
0.0060717
0.00616534
0.00614225
0.00537987
0.00350756
0.000333162
0.00301132
0.00644669
0.00285228
0.000645928
0.00296065
0.00448067
0.00524844
0.00565456
0.00567571
0.00558599
0.0050509
0.00483356
0.00449385
0.00485131
0.00498943
0.00499799
0.00494577
0.00443088
0.00256978
0.000160459
0.00294065
0.00570321
0.00277609
5.27507e-05
0.00224429
0.0034361
0.00442355
0.00450487
0.00443943
0.00431694
0.00402397
0.00409727
0.00376706
0.00373304
0.00407211
0.00422602
0.00433076
0.00352019
0.00204079
0.000124047
0.00235834
0.00452133
0.00230154
0.000122218
0.00128249
0.00264514
0.00298622
0.00335865
0.00351522
0.00352605
0.00322492
0.00281862
0.002802
0.0029189
0.00295292
0.00308925
0.00314137
0.00258021
0.0014566
0.000133044
0.00195684
0.00336566
0.00193082
0.000137118
0.000914483
0.00176067
0.00236752
0.00234375
0.0024321
0.00225562
0.0019411
0.0022196
0.00200713
0.00219113
0.00214304
0.00241039
0.00241512
0.00185057
0.00124691
0.000244007
0.00146494
0.00210164
0.00125171
7.05736e-06
0.00069777
0.00125984
0.00141986
0.00171869
0.00146877
0.00152881
0.00139576
0.00136465
0.0011571
0.00133551
0.00107302
0.00145756
0.00132931
0.00136852
0.000508273
1.51881e-05
0.000730477
0.000810511
0.000445504
5.79419e-05
1.55298e-05
0.000412458
0.000715575
0.000592041
0.000597252
0.000587742
0.000595924
0.000537648
0.000312077
0.000513425
0.00060174
0.000396432
0.000574598
0.00041954
6.82408e-05
1.80314e-05
0.000527928
0.00748272
0.00295488
0.00139036
0.00431575
0.00588375
0.00686845
0.0069465
0.00628131
0.00544337
0.00498235
0.00414477
0.00392168
0.0043782
0.00501507
0.00564228
0.00575025
0.00541888
0.00312458
0.000261306
0.00396188
0.00738479
0.00339737
0.00049875
0.00319794
0.00467387
0.00557614
0.00557716
0.0052638
0.00470185
0.00372841
0.00337223
0.00314195
0.00361356
0.00430002
0.00463566
0.00477221
0.00433198
0.00274996
0.000308514
0.00333727
0.00652348
0.00313285
8.78971e-05
0.00248888
0.00367673
0.00434997
0.00460831
0.00412595
0.00379807
0.00322362
0.00266362
0.00269309
0.00284679
0.00323393
0.00381449
0.00395761
0.00333391
0.00185289
0.000384289
0.00331259
0.00576605
0.0031124
0.000370097
0.00179509
0.00290214
0.00348357
0.00377378
0.00332262
0.00285708
0.00237728
0.00210873
0.00186745
0.00232272
0.0028758
0.00292039
0.00320738
0.00258962
0.0015659
0.000233642
0.00254645
0.00478734
0.00262797
0.000417118
0.00105405
0.00220423
0.00255181
0.00257904
0.00247344
0.00210321
0.00176251
0.00156141
0.00133391
0.00183157
0.00192843
0.00262482
0.0024659
0.0020453
0.00114785
0.000222052
0.00217791
0.00361126
0.00196004
0.0002443
0.000898285
0.00127558
0.00190487
0.00179562
0.00185172
0.00134813
0.00141237
0.00102526
0.000848806
0.000959327
0.00158838
0.00157125
0.00160621
0.00149657
0.000852897
0.000314173
0.00156365
0.00241565
0.00111324
7.98042e-05
0.000213361
0.000889151
0.00112815
0.000886445
0.00103242
0.00060572
0.000562621
0.00053171
0.000781646
0.000923489
0.00109531
0.00102829
0.000801462
0.000764051
0.000399514
0.000173967
0.00078528
0.000844764
0.000705317
0.000160141
0.000106759
0.000444992
0.000446144
0.000278191
0.000469859
0.000187333
0.000254016
0.000274668
4.7708e-05
5.28478e-05
0.00020149
0.000404598
0.000166327
9.13884e-05
0.000283345
0.000130237
0.000409278
0.00792838
0.00344459
0.000494813
0.00333467
0.0049227
0.00534406
0.00528696
0.00434503
0.00323635
0.00217775
0.00150591
0.00149566
0.00179669
0.00280827
0.00380735
0.00415213
0.00413256
0.00221947
0.00067885
0.00437804
0.0076874
0.00382907
0.000156099
0.00230342
0.00379326
0.00428306
0.00416917
0.00347817
0.00262389
0.00141323
0.00112109
0.000884121
0.0013677
0.00212503
0.00286314
0.00321922
0.00312516
0.00170415
0.000788219
0.00390318
0.00675168
0.00334598
0.000603005
0.00153429
0.00268725
0.00338393
0.00327658
0.00268636
0.00195113
0.00128436
0.000549517
0.00058999
0.00122733
0.00172198
0.00231713
0.00283395
0.0028084
0.00145543
0.00101482
0.00342726
0.00595542
0.00336481
0.000698636
0.001345
0.00225557
0.002754
0.00241645
0.00229044
0.00140554
0.000891243
0.000324046
0.000263305
0.000759235
0.00146648
0.00194284
0.00215497
0.00192504
0.000894188
0.000711555
0.00259744
0.00479146
0.00284035
0.000814205
0.000471519
0.00145402
0.00183667
0.00193481
0.00156311
0.000781881
0.000613238
0.000251209
0.000148532
0.000539461
0.00084791
0.00131771
0.00175678
0.00169365
0.000863301
0.00060999
0.00220219
0.00338135
0.00211329
0.000781468
0.000428401
0.0010571
0.00131531
0.00116675
0.000956647
0.000835971
0.000186836
0.000253849
0.000130268
0.000318303
0.000498955
0.00095204
0.00135477
0.00102239
0.000286462
0.000739237
0.00171474
0.00249446
0.00140618
0.000695738
0.000149548
0.000497801
0.000893326
0.000766855
0.000523846
0.000505653
0.000207844
1.58689e-07
1.37192e-05
1.66411e-05
0.000332395
0.000606676
0.000562622
0.00065084
0.000220828
0.00034477
0.000902917
0.000652173
0.000485675
0.000237627
8.01229e-05
0.000189165
0.000451317
0.000326089
0.000138862
0.000146444
8.86657e-06
0.000178625
1.07686e-05
4.01742e-05
5.74717e-05
0.000155475
0.000215676
4.31433e-05
0.000110639
0.000269808
0.00027049
0.00840482
0.00383679
0.000167615
0.00238962
0.00364394
0.00394412
0.0035978
0.00237968
0.000980313
0.000282932
0.000948761
0.00105132
0.000355111
0.000799504
0.00199502
0.00281063
0.00278897
0.00143371
0.00114252
0.0044248
0.00772681
0.00437279
0.00100708
0.00176676
0.00283193
0.00294409
0.002511
0.00168204
0.000612758
0.00049595
0.00106682
0.00142787
0.0008971
0.000315996
0.00171498
0.00216764
0.00214195
0.000944883
0.00142065
0.00426809
0.00720661
0.00406144
0.0011204
0.000977837
0.00184245
0.00225228
0.0019327
0.0012067
3.81636e-05
0.000777173
0.00140999
0.00139359
0.000703179
0.000223455
0.00110972
0.00182183
0.00187288
0.000772336
0.0014561
0.00375648
0.00627544
0.00386358
0.00124434
0.000462389
0.00134428
0.00184232
0.00133186
0.000694423
0.000150149
0.000710237
0.00123616
0.00101548
0.000711325
5.21212e-05
0.00100494
0.00134181
0.00122796
0.000526089
0.000913578
0.00316376
0.00520894
0.00317036
0.00116398
0.000158392
0.0011074
0.00128885
0.000963497
0.000571561
2.55423e-05
0.000552246
0.00109274
0.00106933
0.000576426
5.03637e-05
0.000509185
0.00112709
0.0009311
0.000175034
0.00107713
0.00247633
0.00401286
0.00240847
0.000990027
0.00014719
0.000737971
0.000771627
0.00102818
0.000300347
0.000165681
0.000635485
0.000561364
0.000621806
0.000397317
0.00022771
0.000362656
0.000436589
0.000475879
0.000207168
0.000808497
0.00186729
0.00247082
0.00138908
0.000475645
7.49601e-05
0.000585995
0.000155353
0.000259537
0.000476215
3.78187e-07
0.000390244
0.000727923
0.000502703
0.000345249
4.97862e-05
0.000341135
0.000468548
0.000591324
0.000230532
0.000488538
0.00122991
0.000882275
0.000480339
6.03074e-05
0.000143407
0.000342278
9.0345e-05
5.34691e-05
0.000173515
0.000109869
1.20095e-05
3.91674e-05
0.00029094
9.257e-05
0.000140731
0.000268676
0.000104224
0.00036014
0.000188194
2.69916e-05
0.000295423
0.00864805
0.00457702
0.00100989
0.00138577
0.0025556
0.00273933
0.00198711
0.000716497
0.000901766
0.00247608
0.00333951
0.00313659
0.002377
0.000821335
0.000583115
0.00149349
0.0016873
0.000481433
0.00177555
0.00485773
0.00785273
0.00469556
0.00139562
0.000693149
0.00153884
0.00204799
0.0015076
5.58381e-05
0.00114676
0.00229686
0.0032383
0.00317633
0.00227831
0.00117087
9.96259e-05
0.0010576
0.00107748
0.000335826
0.00207962
0.0046439
0.00737216
0.00460614
0.00171795
0.000117981
0.00115524
0.00122988
0.000896991
4.1523e-05
0.00126754
0.00216396
0.00294587
0.00270975
0.00206018
0.00111618
0.000220314
0.00104448
0.00076513
7.85769e-05
0.0018536
0.00392161
0.00639025
0.00397086
0.00155023
0.000125204
0.000686417
0.00080857
0.00057774
0.000286493
0.000965041
0.00202539
0.00241827
0.00244085
0.00203575
0.000988089
4.29898e-05
0.000579246
0.000693602
0.000170277
0.0016764
0.00346008
0.00503873
0.00320226
0.0016906
0.000364486
0.00046066
0.000582952
0.000137664
0.00021858
0.00106836
0.00164456
0.00221491
0.00197813
0.00150713
0.000813064
7.07535e-05
0.000190854
0.000567249
6.49811e-06
0.0012569
0.00282578
0.00378574
0.00221397
0.000913656
0.000423265
0.000143469
0.000524575
0.000308846
0.000336244
0.00104587
0.00153596
0.00171636
0.00157919
0.000951987
0.000856347
9.29199e-06
0.000379177
0.000403251
2.07621e-05
0.000877766
0.00199554
0.00226022
0.00159314
0.000951276
3.64343e-05
0.000108649
0.000409571
0.000141901
0.000144703
0.000602691
0.00100137
0.000979345
0.000985036
0.000611318
0.000714505
3.62869e-05
0.000108354
0.000286715
9.43932e-05
0.000828373
0.00139832
0.000675615
0.000523159
0.000215915
6.6995e-05
0.000126253
9.7403e-05
0.000176115
0.00017728
0.000101884
0.000355354
0.000307036
0.000340766
0.000134966
0.000235453
6.00725e-05
4.77929e-05
0.000387047
1.52857e-05
0.000256062
0.000510009
0.00880571
0.00511592
0.00152777
0.000792452
0.00163781
0.00178546
0.000803289
0.000722916
0.00243774
0.00421762
0.00511345
0.00492783
0.00364375
0.00212625
0.00066859
0.000745672
0.000924936
0.000156253
0.00221504
0.00511096
0.00822651
0.00478351
0.00198124
4.80002e-05
0.000973415
0.00109521
0.000423691
0.00102272
0.00229667
0.00395343
0.00461408
0.00446995
0.00370799
0.00216758
0.000661894
0.000107678
0.000692125
5.98008e-05
0.00191336
0.00449168
0.00733995
0.00465097
0.00187467
0.000398908
0.000591053
0.000448046
0.000107764
0.00126797
0.00231402
0.00336078
0.0043311
0.00426206
0.00362516
0.0019204
0.000772532
3.94043e-06
0.000428713
0.000449326
0.00224943
0.00406299
0.00652292
0.00441759
0.00185722
0.000645601
0.000161936
0.000219634
0.000376548
0.00116232
0.0019824
0.00312986
0.00348015
0.0036122
0.00282394
0.00167905
0.000937533
6.99523e-05
0.000106213
0.000259176
0.00190811
0.00338285
0.00526904
0.00366253
0.00191793
0.000570251
0.000209693
6.93638e-05
9.7744e-05
0.000878006
0.00183994
0.00265599
0.00287999
0.00278336
0.00221805
0.00154408
0.000665209
0.000119414
5.62207e-05
0.000412058
0.00122015
0.00267543
0.00378895
0.00266314
0.00144961
0.000266248
0.000101031
1.3158e-05
0.000203601
0.00110981
0.0013837
0.00202451
0.00235352
0.00210802
0.00184877
0.00121274
0.000566534
0.000234434
1.38496e-05
0.000329659
0.00092554
0.00192778
0.00249638
0.00145497
0.00107229
0.000341229
3.49969e-05
4.19071e-05
0.000300128
0.00053755
0.000876297
0.00100555
0.00163515
0.00127066
0.00127735
0.000682239
0.00045212
0.000184632
0.000255626
8.72266e-06
0.000581227
0.0012596
0.000959322
0.000771866
0.000533879
4.95257e-06
7.25537e-05
0.000127229
0.000211805
8.81635e-06
0.000241375
0.000388635
0.000574311
0.000294118
0.000406749
3.04389e-05
3.75477e-05
0.000237034
8.58262e-05
0.000105321
0.000287458
0.000253358
0.0085833
0.00497943
0.00180805
0.000382662
0.00122101
0.00110165
0.000185728
0.00128471
0.00318656
0.00506725
0.00608781
0.00584142
0.00473171
0.00298601
0.0011057
0.000358188
0.000525614
0.000408839
0.00229283
0.00491521
0.00798163
0.00474368
0.00206905
0.000262173
0.00057151
0.000376024
0.000412246
0.00163585
0.00345869
0.0047156
0.00557081
0.00533369
0.00434228
0.00276282
0.00111632
0.000124823
0.000296553
0.000715699
0.00211731
0.0043337
0.0072872
0.00461684
0.00227324
0.000413035
7.0814e-05
5.68862e-05
0.000651785
0.00174363
0.00332764
0.0041056
0.0049988
0.00482171
0.00392729
0.00254079
0.00115935
0.00020068
0.000193596
0.000662155
0.00199231
0.00387051
0.00622054
0.00427599
0.0021265
0.000955931
0.000260399
9.64476e-05
0.00054684
0.00173918
0.0026127
0.00372903
0.00425405
0.00421713
0.00353053
0.0025276
0.00118877
0.000188453
9.83827e-06
0.000667937
0.00180928
0.0034014
0.00533048
0.00348545
0.00192182
0.00092354
0.000327131
0.000354999
0.000829145
0.00140568
0.00258924
0.00307163
0.00354323
0.00337578
0.0027606
0.00182262
0.000756143
0.000425476
2.21831e-05
0.000535627
0.00151267
0.00238768
0.00393646
0.0026945
0.00155035
0.000727292
0.000345111
0.000288491
0.000466058
0.00115355
0.00163207
0.00217466
0.00243833
0.00249291
0.00217624
0.00147398
0.00068656
0.000161631
0.000112023
0.000160808
0.00120901
0.00200681
0.00256705
0.00166936
0.000929241
0.000469249
0.000423747
9.10072e-05
0.000301473
0.000594561
0.00101621
0.00148608
0.0016982
0.0014124
0.00126316
0.000802364
0.000587802
0.00012286
4.41798e-05
0.000195007
0.000940205
0.00112397
0.000505577
0.000510006
0.000259609
0.000221906
0.000138569
0.000271806
0.00020506
0.000320273
0.000469879
0.000461918
0.000691636
0.000322266
0.00041422
0.000408152
1.62621e-05
9.65973e-05
4.79923e-05
0.00016415
0.000174672
0.000499943
0.0081568
0.00472344
0.00170287
0.000228771
0.00121696
0.00100073
4.64638e-05
0.00162906
0.00356622
0.00545183
0.00592868
0.00601879
0.00489941
0.00295227
0.00128517
0.000107256
0.000586416
0.000132156
0.00174719
0.00439169
0.00761706
0.00463514
0.00205903
0.000314131
0.000484402
0.000241468
0.00042948
0.00183394
0.00366421
0.00497838
0.00567863
0.00548902
0.0045208
0.00307756
0.00110381
3.91053e-05
0.000598586
0.000173639
0.00188715
0.00381111
0.00693286
0.00466264
0.00222875
0.000705645
7.58475e-05
0.000164198
0.000803588
0.00185681
0.00322746
0.00459564
0.00495683
0.00501351
0.00413141
0.00279284
0.00137742
8.50244e-05
9.62994e-05
0.00033484
0.00155943
0.00348014
0.00604985
0.00408801
0.00223001
0.000815836
0.000122113
0.000427398
0.00108322
0.00170353
0.00296733
0.00387523
0.00438433
0.00454145
0.00342185
0.00233106
0.00108076
0.000398114
8.92989e-05
0.000165946
0.00161789
0.0031265
0.00473263
0.00320381
0.0019454
0.000904241
0.000314638
0.000239542
0.000782764
0.00165514
0.00249446
0.00326017
0.00363307
0.00361854
0.00295366
0.0018641
0.000919701
0.000351295
0.000106739
0.00036709
0.00132938
0.00211038
0.00368822
0.002442
0.00128012
0.000558129
0.000163718
0.000309079
0.000714245
0.000944886
0.001899
0.00217169
0.00256308
0.00262537
0.00200653
0.00149808
0.000840111
0.000123114
0.000183492
0.000252909
0.000990077
0.00163887
0.00199093
0.00175794
0.000953754
0.000453079
0.000202821
0.000327783
0.000396598
0.000864279
0.00105359
0.00148346
0.00146517
0.00164827
0.00117827
0.000931558
0.000295223
0.000144155
0.00018636
0.000156434
0.000709058
0.000993352
0.000740199
0.000561157
0.000387292
0.000150862
0.000289249
0.000358051
0.000364131
0.000614075
0.000553992
0.000463661
0.000495769
0.000645937
0.000488386
0.000336593
0.000219893
0.000184553
7.41361e-05
0.000383305
0.000256489
0.000508105
0.00716086
0.00409294
0.00126574
0.000552822
0.00140662
0.00111839
4.44921e-05
0.00136565
0.00341523
0.00484121
0.00554909
0.00545162
0.00440267
0.00232234
0.000655781
0.000652594
0.00130438
0.000628905
0.000949522
0.00354593
0.00685897
0.00404328
0.00167479
0.000167504
0.000806944
0.000537022
0.000356322
0.00168501
0.00332323
0.00453286
0.00513727
0.00488204
0.00396049
0.0023401
0.000680163
0.000242011
0.000869115
0.000382806
0.00097665
0.00320183
0.00629654
0.0040454
0.00174637
0.000224483
0.000236778
0.000173664
0.000629116
0.00181547
0.00298763
0.00409119
0.00473179
0.0044945
0.00345551
0.00231313
0.000884288
0.00021351
0.000643453
0.000272968
0.000990488
0.00258541
0.00550722
0.00358062
0.00180688
0.000621673
0.000179097
0.000210252
0.000818899
0.00170644
0.0026832
0.0037519
0.0041707
0.0039405
0.00319091
0.00185675
0.000956856
0.000169954
0.000482147
0.00031378
0.000943438
0.00243934
0.00461765
0.00300793
0.00165438
0.000328232
0.000377295
0.000322661
0.000569599
0.00136553
0.00235705
0.00291732
0.00337998
0.00311613
0.00248556
0.00154001
0.00087082
0.000161366
0.000198064
6.10435e-05
0.000996692
0.00176874
0.00327136
0.0023147
0.00116549
0.000703987
0.000139219
0.00044806
0.000664416
0.0011042
0.00170777
0.00209561
0.00287114
0.00262299
0.00199139
0.00113152
0.000363003
8.02125e-05
7.14969e-05
1.79764e-05
0.000776799
0.00142807
0.00209133
0.00141822
0.000822301
0.000387062
0.000265108
0.000304727
0.000610018
0.000500891
0.000988502
0.0012149
0.00182929
0.00139112
0.00151246
0.000646784
0.000363616
0.000173434
9.37468e-05
7.55343e-06
0.000538264
0.000954313
0.000891314
0.000482886
0.000112267
2.36313e-05
5.28308e-05
0.000183298
8.20704e-05
0.00036834
0.000221769
0.000415068
0.000615858
0.000616339
0.000492791
0.000252954
5.99674e-05
6.71689e-05
0.00011317
0.00014371
0.00024201
0.000166624
0.00595338
0.00297036
0.000147711
0.00125347
0.00223187
0.0019869
0.00106669
0.000653023
0.00203434
0.00380164
0.00436383
0.00426349
0.00309547
0.00126459
0.000529032
0.00170209
0.00225517
0.00188401
0.000289222
0.00200254
0.00587746
0.00313255
0.000649923
0.000594819
0.00125005
0.0014482
0.000236817
0.00097632
0.00229962
0.00355261
0.00403176
0.00383824
0.00299991
0.00152409
0.000210746
0.00137815
0.00196492
0.00137598
8.69662e-05
0.00175108
0.00527723
0.00332495
0.00100263
0.000147622
0.000536951
0.00070966
9.35376e-05
0.00103889
0.00205361
0.00314068
0.00360655
0.00337734
0.00266939
0.0014375
0.000183859
0.000819149
0.001388
0.000926489
0.00014127
0.00172498
0.0045915
0.00291386
0.00126231
0.000109102
0.00027168
0.00036608
2.18872e-05
0.000992484
0.00207436
0.00271914
0.003305
0.00314806
0.00244584
0.000919297
4.36937e-05
0.000601442
0.000924622
0.00116556
0.000167873
0.00150434
0.00389227
0.00253492
0.00101048
0.000204631
0.000297527
5.81086e-05
0.000262932
0.00112295
0.00153382
0.0023302
0.00266519
0.00254409
0.00207527
0.000972842
0.00018779
0.000301681
0.000704469
0.000775032
0.000297166
0.00105468
0.0031023
0.00195116
0.000807857
0.000230266
0.000245961
9.36271e-05
0.000344997
0.000568891
0.00136013
0.00198588
0.00176644
0.00189384
0.00134969
0.000941404
0.000431499
0.000309444
0.000654497
0.000384325
0.0003916
0.000728643
0.00182346
0.00113713
0.000560082
0.000163552
0.000260907
0.000224272
0.000205974
0.000545784
0.0010229
0.00116187
0.00102433
0.00124971
0.00093526
0.00044253
3.18816e-05
6.75091e-05
2.3602e-05
5.9773e-05
0.000273993
0.00058614
0.000644371
0.00043741
0.000206144
8.59759e-05
0.000101271
8.79199e-05
5.64081e-05
0.000145378
0.000345356
0.000455542
0.000494508
0.000413098
0.000110726
8.68845e-05
2.61466e-06
4.97466e-05
0.000139202
3.13771e-06
7.22662e-06
0.00019207
0.00467279
0.00188116
0.000998221
0.00265927
0.00319287
0.00317555
0.00215679
0.000893183
0.000764973
0.00181795
0.00247098
0.00219334
0.00105403
0.000478541
0.00199335
0.00357582
0.00379173
0.00342543
0.00178692
0.000421802
0.0044927
0.00213443
0.000470537
0.00182057
0.00238147
0.00193911
0.00150006
0.000142519
0.000963507
0.00219247
0.00250727
0.00228462
0.00121762
0.000125501
0.00170832
0.00291079
0.00326185
0.00273792
0.0016587
0.00034772
0.0044889
0.00199287
0.000203688
0.00128792
0.00176423
0.0015513
0.000840858
0.000166251
0.00116843
0.00204412
0.00244529
0.0020285
0.00131718
8.70079e-05
0.00101847
0.002157
0.00272791
0.00216756
0.000927959
0.000457218
0.00401515
0.00204935
0.000479734
0.000764285
0.00127122
0.00118399
0.000500532
0.000248817
0.0010686
0.00173127
0.00191622
0.00190517
0.00125328
0.000150994
0.00103603
0.00168945
0.00203349
0.00160406
0.000958678
0.000696404
0.00329645
0.00177193
0.000392308
8.89327e-05
0.000639528
0.000816378
0.000333816
0.000160823
0.00105958
0.00138879
0.00188502
0.00160849
0.000785489
0.000127359
0.000512638
0.00122718
0.00155041
0.00118895
0.000560128
0.000176359
0.00244819
0.0011798
0.000471394
6.87923e-06
0.000184923
0.00044167
0.000182894
4.14952e-05
0.000723179
0.00112992
0.00121817
0.00135323
0.000733714
0.000314582
0.000526436
0.0008634
0.00103245
0.000748609
0.000124227
0.000269209
0.00156734
0.000887086
0.000348204
7.49839e-05
7.50759e-05
0.0005007
1.44966e-05
8.54729e-05
0.000545261
0.000594202
0.000822581
0.000907963
0.000342556
0.000109528
0.000206826
0.000505301
0.000536521
0.000528786
0.000246508
0.000200707
0.000618602
0.000366438
2.76284e-05
7.45842e-05
0.000198075
0.000205577
4.49421e-05
9.63714e-06
2.51823e-06
0.000277568
0.000300192
0.000365918
0.000186943
0.000192136
4.04748e-05
0.000101354
0.000252015
0.000282996
6.43978e-05
2.11691e-05
0.0026951
0.000268876
0.00248707
0.00439647
0.0048224
0.00458664
0.00391998
0.00260723
0.00148712
0.000608113
8.18286e-05
0.000401836
0.00119859
0.00262359
0.00422321
0.00511903
0.00584635
0.00535581
0.00398065
0.00188581
0.00300189
0.000388009
0.0016976
0.00319834
0.00384061
0.00352928
0.00302886
0.00190019
0.000810018
4.96432e-05
0.000157863
5.18462e-05
0.000834245
0.0018527
0.00337538
0.00444021
0.00497244
0.00458461
0.00310898
0.00137226
0.00264696
0.000641126
0.00105243
0.00240068
0.0029328
0.0029644
0.00205338
0.00128001
0.000491248
0.000307966
0.000508133
0.00035951
0.000517915
0.00165058
0.00286867
0.00376957
0.00394929
0.00353475
0.00272195
0.00110797
0.00271672
0.000994432
0.000653898
0.00174906
0.00233504
0.00201358
0.00173721
0.00100911
0.000248164
0.000233186
0.000719665
0.000488826
0.000190687
0.00120724
0.00220095
0.00321532
0.0032953
0.00306935
0.00203702
0.000994766
0.00230947
0.00118023
0.000267628
0.00123495
0.00177052
0.00149368
0.00117801
0.000873313
1.68859e-05
0.000537267
0.000708869
0.000276254
0.000156361
0.000989288
0.00168488
0.00236445
0.00245457
0.00247584
0.00179783
0.000724848
0.00156071
0.000725311
3.68424e-05
0.00079117
0.000978519
0.00110558
0.000770878
0.00018262
4.05102e-05
0.000370888
0.000415716
0.000282102
3.51726e-05
0.00045704
0.0013402
0.00167894
0.00176138
0.00181185
0.00125687
0.000477572
0.0012208
0.000461289
3.70487e-05
0.000381054
0.000752985
0.000548931
0.000500625
0.000330951
0.000146077
0.000221002
0.000464614
0.000123063
0.000272081
0.000237934
0.000801402
0.00108989
0.0010731
0.00117705
0.000684224
0.000181156
0.000295611
0.000193601
1.92772e-05
0.000135028
0.000172604
0.000251764
0.000304248
0.000190601
3.62749e-05
4.72197e-05
0.000169934
0.000116511
0.000204163
7.47655e-05
5.87937e-05
0.000380831
0.000469008
0.000225844
0.000163048
0.000290175
0.000639797
0.00216356
0.00479705
0.00627591
0.00682892
0.00673396
0.00595449
0.00493427
0.00388429
0.0030957
0.0029241
0.0031821
0.00414238
0.00562319
0.00673036
0.00777164
0.0082858
0.00763693
0.00624707
0.00416054
0.00110895
0.00156447
0.00351778
0.00471246
0.0054892
0.00547849
0.00485356
0.00376821
0.00321952
0.0025337
0.00206679
0.00257953
0.00333595
0.00435229
0.00552264
0.00656896
0.0070013
0.00653809
0.00527386
0.00370048
0.00129546
0.000695708
0.00259761
0.00374015
0.00435016
0.00437134
0.00388744
0.00317248
0.00213801
0.00195171
0.00148686
0.00176662
0.00256792
0.00342311
0.00478709
0.00552397
0.00563306
0.00559112
0.00450918
0.00292744
0.00136132
0.000258422
0.00197357
0.00284491
0.00327632
0.00332159
0.00312142
0.00250115
0.00205486
0.00125265
0.00124384
0.00159156
0.00239081
0.00288211
0.00383598
0.00439211
0.00477843
0.00456442
0.00351765
0.00243487
0.00113433
0.000134457
0.00130789
0.00235602
0.00226322
0.00265637
0.00249109
0.0017908
0.00142721
0.000997441
0.000851731
0.00106634
0.00156791
0.00229366
0.00294456
0.00358036
0.00351028
0.003518
0.00257673
0.00175002
0.00108287
0.000212961
0.000867381
0.00144099
0.00185165
0.00192672
0.00164856
0.00131827
0.000681928
0.000568503
0.000635065
0.000695463
0.00126112
0.00161515
0.00198684
0.00270787
0.0027462
0.00242254
0.00210217
0.00132992
0.00041706
7.10917e-05
0.000560669
0.000814289
0.000917907
0.00102066
0.000948771
0.000570198
0.000522765
0.000373755
0.000376912
0.00038095
0.000703903
0.000888662
0.00143134
0.00121595
0.00193282
0.00167374
0.00112602
0.00054924
0.000440637
1.14496e-05
1.23871e-05
0.000375054
0.000545062
0.000450427
0.000177345
0.000400073
0.00034838
8.03243e-05
0.000245682
0.000111477
8.93448e-05
0.000235181
0.00066628
0.000867458
0.000362385
0.000487094
0.000325719
0.000360763
0.00201533
0.00447586
0.00696213
0.00853247
0.00903274
0.00901678
0.00861207
0.00766093
0.00684423
0.00601157
0.00615066
0.00643874
0.00717501
0.00820976
0.00948264
0.0104508