/*--------------------------------*- C++ -*----------------------------------*\
| =========                 |                                                 |
| \\      /  F ield         | OpenFOAM: The Open Source CFD Toolbox           |
|  \\    /   O peration     | Version:  2212                                  |
|   \\  /    A nd           | Website:  www.openfoam.com                      |
|    \\/     M anipulation  |                                                 |
\*---------------------------------------------------------------------------*/
FoamFile
{
    version     2.0;
    format      ascii;
    arch        "LSB;label=32;scalar=64";
    class       volScalarField;
    location    "0";
    object      stateMean;
}
// * * * * * * * * * * * * * * * * * * * * * * * * * * * * * * * * * * * * * //

dimensions      [0 0 0 1 0 0 0];

internalField   nonuniform List<scalar> 
3200
(
345.372
344.593
344.079
344.122
344.597
345.392
346.148
346.915
347.59
348.15
348.156
347.806
347.268
346.287
345.241
344.295
343.617
343.137
343.322
343.914
339.601
338.836
338.372
338.518
338.89
339.452
340.109
340.908
341.532
341.853
341.902
341.728
341.157
340.231
339.467
338.488
337.803
337.48
337.64
338.161
333.658
333.019
332.654
332.651
332.971
333.525
334.144
334.645
335.212
335.523
335.566
335.374
334.867
334.171
333.448
332.58
332.038
331.859
331.932
332.335
327.571
327.156
326.894
326.844
327.126
327.575
328.046
328.473
328.835
329.122
329.193
329.039
328.532
328.044
327.382
326.725
326.261
326.084
326.217
326.48
321.466
321.216
320.932
320.938
321.153
321.497
321.918
322.175
322.534
322.767
322.735
322.537
322.332
321.854
321.28
320.88
320.549
320.297
320.415
320.66
315.383
315.185
315.009
314.957
315.124
315.414
315.671
315.91
316.093
316.243
316.178
316.16
315.914
315.603
315.308
314.933
314.715
314.554
314.59
314.728
309.294
309.141
309.038
309.105
309.109
309.271
309.399
309.586
309.676
309.725
309.784
309.728
309.554
309.399
309.12
308.951
308.805
308.713
308.734
308.882
303.135
303.034
302.951
302.976
303.061
303.221
303.187
303.199
303.281
303.333
303.21
303.252
303.256
303.116
303.123
302.98
302.973
302.896
303.027
302.981
345.448
344.588
344.175
344.159
344.712
345.549
346.429
347.283
348.093
348.481
348.611
348.344
347.636
346.713
345.547
344.551
343.623
343.27
343.315
343.993
339.555
338.894
338.49
338.53
338.938
339.66
340.46
341.229
341.818
342.227
342.375
341.999
341.441
340.561
339.67
338.789
337.962
337.535
337.716
338.148
333.636
333.071
332.749
332.699
333.112
333.765
334.272
334.986
335.517
335.764
335.877
335.629
335.099
334.396
333.59
332.849
332.218
331.933
332.012
332.436
327.655
327.1
326.872
326.908
327.204
327.696
328.253
328.648
329.172
329.437
329.48
329.204
328.829
328.182
327.486
326.854
326.355
326.175
326.176
326.526
321.504
321.18
321.042
320.981
321.277
321.562
321.919
322.355
322.688
322.947
322.913
322.757
322.472
322.025
321.53
321.044
320.531
320.313
320.409
320.728
315.42
315.193
314.975
315.075
315.143
315.443
315.647
315.981
316.238
316.374
316.399
316.319
316.073
315.732
315.337
315.049
314.697
314.528
314.582
314.826
309.294
309.182
309.002
309.035
309.129
309.361
309.521
309.642
309.815
309.777
309.821
309.811
309.624
309.569
309.269
309.054
308.848
308.727
308.747
308.914
303.125
303.026
303.077
303.109
303.014
303.175
303.207
303.226
303.311
303.327
303.253
303.295
303.166
303.124
303.099
302.994
302.96
302.922
302.981
302.952
345.579
344.768
344.341
344.482
345.068
345.884
346.946
347.978
348.712
349.256
349.291
349.095
348.365
347.345
346.135
344.967
343.947
343.523
343.633
344.152
339.671
339.087
338.635
338.761
339.202
339.957
340.883
341.657
342.35
342.722
342.832
342.654
341.957
341.134
340.041
339.075
338.246
337.934
337.828
338.368
333.75
333.159
332.895
332.918
333.4
334.002
334.66
335.397
335.952
336.33
336.358
336.055
335.631
334.86
334.015
333.103
332.477
332.041
332.182
332.487
327.689
327.298
327.009
327.06
327.42
327.908
328.491
328.988
329.443
329.772
329.819
329.643
329.153
328.584
327.852
327.221
326.647
326.349
326.324
326.594
321.601
321.235
321.049
321.182
321.346
321.73
322.18
322.655
322.977
323.229
323.234
323.07
322.774
322.25
321.764
321.203
320.783
320.492
320.574
320.722
315.425
315.211
315.081
315.083
315.258
315.549
315.843
316.187
316.415
316.622
316.622
316.48
316.291
315.886
315.591
315.149
314.702
314.663
314.648
314.854
309.315
309.168
309.094
309.16
309.188
309.355
309.577
309.801
309.821
309.92
310.034
309.928
309.826
309.569
309.253
309.114
308.899
308.783
308.812
308.893
303.138
303.102
303.037
303.031
303.133
303.135
303.201
303.251
303.365
303.347
303.337
303.32
303.256
303.225
303.192
303.059
303.038
302.912
303.029
303.027
345.834
345.086
344.619
344.936
345.622
346.496
347.489
348.511
349.472
350.007
350.228
349.917
349.143
348.037
346.739
345.514
344.553
343.994
344
344.585
340
339.274
339.023
339.13
339.679
340.467
341.318
342.252
342.984
343.507
343.534
343.406
342.742
341.706
340.65
339.543
338.66
338.181
338.229
338.563
333.935
333.403
333.107
333.279
333.738
334.425
335.153
335.873
336.43
336.89
336.963
336.8
336.151
335.377
334.509
333.582
332.788
332.465
332.402
332.772
327.893
327.471
327.288
327.309
327.709
328.156
328.837
329.453
329.925
330.25
330.225
330.107
329.687
328.98
328.221
327.415
326.89
326.603
326.605
326.803
321.711
321.408
321.18
321.407
321.584
322.075
322.505
322.917
323.248
323.522
323.654
323.483
323.11
322.636
322.042
321.424
320.99
320.751
320.713
320.89
315.543
315.382
315.208
315.305
315.479
315.716
316.116
316.419
316.714
316.941
316.852
316.793
316.495
316.18
315.702
315.272
315.01
314.772
314.851
314.946
309.352
309.262
309.111
309.151
309.242
309.45
309.594
309.87
309.995
310.113
310.122
310.111
309.912
309.794
309.438
309.22
308.944
308.952
308.88
308.929
303.164
303.11
303.036
303.135
303.104
303.098
303.215
303.28
303.331
303.354
303.372
303.414
303.305
303.212
303.195
303.055
303.013
303.075
302.97
303.078
346.268
345.623
345.279
345.511
346.236
347.127
348.23
349.412
350.395
350.921
351.216
350.931
350.082
348.907
347.556
346.282
345.129
344.68
344.515
345.058
340.397
339.823
339.499
339.658
340.255
341.016
341.995
342.924
343.713
344.363
344.486
344.252
343.493
342.434
341.338
340.222
339.272
338.734
338.776
339.03
334.261
333.776
333.544
333.654
334.187
334.866
335.607
336.464
337.078
337.537
337.727
337.452
336.896
336.071
335.046
334.093
333.371
332.955
332.862
333.195
328.159
327.809
327.597
327.634
328.031
328.58
329.162
329.879
330.444
330.82
330.909
330.772
330.21
329.459
328.766
327.931
327.373
326.963
326.868
327.109
321.987
321.691
321.512
321.619
321.841
322.304
322.823
323.298
323.738
324.017
324.082
323.987
323.506
323.034
322.281
321.757
321.299
321.009
320.919
321.151
315.757
315.517
315.355
315.409
315.714
315.926
316.337
316.635
317.023
317.122
317.245
317.182
316.918
316.403
316.032
315.609
315.221
315.009
314.999
315.113
309.53
309.295
309.203
309.36
309.406
309.579
309.88
310.025
310.294
310.379
310.389
310.239
310.058
309.815
309.61
309.433
309.19
309.054
309.005
309.026
303.201
303.215
303.126
303.128
303.11
303.193
303.32
303.325
303.457
303.461
303.455
303.5
303.452
303.343
303.205
303.195
303.132
302.991
303.04
303.069
346.945
346.28
346.028
346.236
346.894
347.921
349.012
350.24
351.278
351.994
352.231
351.892
351.136
349.882
348.458
347.163
345.958
345.431
345.325
345.723
340.952
340.39
340.101
340.296
340.836
341.686
342.653
343.667
344.524
345.237
345.338
345.125
344.395
343.357
342.173
341.033
340.016
339.469
339.359
339.672
334.719
334.204
334.096
334.254
334.756
335.382
336.204
337.059
337.783
338.257
338.506
338.243
337.552
336.728
335.741
334.707
333.828
333.409
333.427
333.613
328.533
328.184
327.968
328.011
328.439
328.978
329.732
330.31
330.99
331.365
331.554
331.369
330.817
330.046
329.246
328.472
327.821
327.446
327.316
327.436
322.23
321.985
321.844
321.985
322.234
322.658
323.126
323.663
324.218
324.431
324.548
324.424
323.995
323.477
322.826
322.136
321.591
321.304
321.269
321.399
315.856
315.727
315.67
315.686
315.891
316.201
316.604
316.968
317.223
317.542
317.52
317.447
317.171
316.816
316.316
315.797
315.498
315.334
315.294
315.332
309.658
309.483
309.48
309.457
309.592
309.704
309.958
310.212
310.347
310.507
310.572
310.508
310.37
310.093
309.793
309.572
309.302
309.197
309.155
309.166
303.177
303.18
303.178
303.162
303.21
303.209
303.319
303.436
303.477
303.547
303.598
303.524
303.49
303.435
303.299
303.202
303.199
303.072
303.115
303.061
347.748
347.013
346.8
347.045
347.753
348.755
349.883
351.15
352.249
353.014
353.249
352.966
352.113
350.865
349.437
348.044
346.906
346.245
346.082
346.376
341.518
341.092
340.861
340.896
341.525
342.445
343.465
344.478
345.371
346.031
346.228
346.076
345.368
344.221
342.867
341.753
340.768
340.196
340.089
340.345
335.336
334.88
334.667
334.793
335.344
336.017
336.862
337.722
338.56
339.068
339.283
339.045
338.368
337.439
336.402
335.351
334.493
334.034
334.011
334.188
329.018
328.704
328.472
328.59
328.987
329.487
330.259
330.971
331.514
331.99
332.164
331.901
331.437
330.682
329.763
328.988
328.338
327.891
327.738
328
322.659
322.369
322.21
322.311
322.539
322.997
323.571
324.089
324.563
324.882
325.058
324.902
324.461
323.867
323.249
322.533
322.062
321.779
321.696
321.782
316.266
316.018
315.917
315.934
316.13
316.488
316.742
317.252
317.6
317.855
317.831
317.744
317.473
316.996
316.617
316.225
315.831
315.54
315.514
315.59
309.777
309.595
309.521
309.623
309.647
310.003
310.171
310.272
310.54
310.724
310.829
310.696
310.527
310.237
309.945
309.684
309.417
309.303
309.317
309.393
303.289
303.219
303.16
303.261
303.191
303.342
303.421
303.44
303.5
303.55
303.542
303.621
303.521
303.48
303.287
303.263
303.109
303.085
303.081
303.112
348.591
347.982
347.747
347.982
348.65
349.62
350.82
352.047
353.178
354.027
354.332
353.967
353.136
351.808
350.376
349.021
347.877
347.229
347.012
347.281
342.215
341.82
341.56
341.772
342.415
343.137
344.134
345.309
346.21
346.863
347.189
346.911
346.115
345.058
343.807
342.58
341.64
340.969
340.93
341.126
335.945
335.583
335.345
335.512
335.953
336.686
337.485
338.345
339.197
339.717
339.982
339.686
339.056
338.165
337.027
335.991
335.295
334.744
334.663
334.794
329.506
329.165
328.964
329.135
329.514
330.094
330.732
331.484
332.044
332.571
332.702
332.534
332.064
331.25
330.375
329.549
328.866
328.511
328.413
328.547
322.954
322.71
322.684
322.754
322.989
323.432
324.013
324.491
325.027
325.35
325.535
325.322
324.909
324.321
323.644
323.076
322.453
322.137
322.084
322.243
316.443
316.192
316.111
316.311
316.491
316.715
317.094
317.558
317.969
318.222
318.279
318.139
317.753
317.464
316.878
316.416
316.05
315.815
315.771
315.879
309.861
309.801
309.798
309.728
309.899
310.013
310.283
310.527
310.781
310.963
310.956
310.9
310.672
310.549
310.129
309.899
309.628
309.533
309.564
309.594
303.276
303.279
303.251
303.277
303.368
303.429
303.409
303.46
303.582
303.679
303.664
303.654
303.555
303.533
303.381
303.316
303.14
303.191
303.198
303.226
349.528
349.004
348.7
348.891
349.599
350.508
351.718
352.973
354.093
354.992
355.309
354.973
354.003
352.749
351.37
349.912
348.845
348.222
347.997
348.248
343.105
342.572
342.429
342.634
343.154
343.944
344.926
346.046
346.932
347.739
347.968
347.684
346.974
345.82
344.549
343.451
342.381
341.772
341.593
341.834
336.576
336.208
335.964
336.201
336.604
337.357
338.178
339.096
339.828
340.379
340.708
340.488
339.895
338.791
337.769
336.802
335.923
335.486
335.405
335.482
330.074
329.811
329.528
329.729
330.065
330.621
331.338
332.026
332.607
333.148
333.265
333.148
332.578
331.769
331.004
330.095
329.481
329.002
328.987
329.044
323.435
323.246
323.117
323.148
323.5
323.858
324.315
324.901
325.453
325.843
325.916
325.759
325.336
324.784
324.095
323.471
322.982
322.631
322.459
322.601
316.736
316.611
316.536
316.495
316.713
317.069
317.418
317.944
318.202
318.494
318.599
318.432
318.179
317.738
317.245
316.819
316.415
316.182
316.062
316.148
310.108
309.923
309.99
309.964
310.07
310.264
310.517
310.734
310.941
311.035
311.231
311.064
310.964
310.636
310.391
310.116
309.779
309.661
309.653
309.726
303.421
303.41
303.4
303.302
303.394
303.475
303.558
303.539
303.649
303.712
303.768
303.665
303.665
303.503
303.425
303.444
303.33
303.27
303.263
303.207
350.463
349.919
349.696
349.862
350.499
351.424
352.542
353.716
354.857
355.768
356.129
355.796
354.934
353.66
352.201
350.801
349.812
349.208
348.983
349.188
343.895
343.391
343.238
343.425
343.944
344.778
345.739
346.73
347.768
348.415
348.712
348.417
347.667
346.552
345.293
344.184
343.233
342.774
342.494
342.651
337.296
336.9
336.755
336.812
337.331
338.023
338.807
339.657
340.537
340.981
341.285
341.045
340.398
339.446
338.396
337.423
336.608
336.213
336.02
336.152
330.577
330.339
330.155
330.326
330.655
331.132
331.757
332.545
333.116
333.634
333.808
333.649
333.14
332.414
331.494
330.631
330.008
329.674
329.527
329.65
323.923
323.635
323.536
323.648
323.888
324.31
324.835
325.327
325.93
326.201
326.354
326.185
325.767
325.158
324.44
323.92
323.356
323.088
322.999
322.974
317.114
316.94
316.866
316.916
317.105
317.383
317.703
318.14
318.448
318.702
318.785
318.722
318.465
318.023
317.509
317.047
316.651
316.427
316.47
316.505
310.33
310.181
310.125
310.168
310.34
310.414
310.639
310.861
311.085
311.28
311.346
311.208
311.068
310.794
310.568
310.247
310.037
309.897
309.955
309.883
303.349
303.395
303.377
303.427
303.38
303.564
303.597
303.676
303.753
303.766
303.836
303.708
303.705
303.659
303.487
303.451
303.375
303.248
303.293
303.348
351.458
350.924
350.689
350.876
351.385
352.272
353.366
354.521
355.632
356.521
356.69
356.501
355.678
354.393
353.078
351.775
350.75
350.139
349.884
350.145
344.759
344.301
344.126
344.273
344.741
345.529
346.389
347.391
348.393
349.041
349.284
349.026
348.323
347.306
345.993
344.895
343.959
343.479
343.359
343.457
338.012
337.715
337.495
337.613
338.03
338.655
339.403
340.197
340.973
341.6
341.723
341.58
340.969
340.077
339.065
338.033
337.407
336.857
336.672
336.853
331.202
330.93
330.805
330.855
331.139
331.728
332.381
332.943
333.618
334.053
334.222
334.142
333.514
332.795
331.944
331.231
330.555
330.124
330.116
330.239
324.258
324.052
324.022
324.088
324.297
324.652
325.166
325.727
326.198
326.549
326.671
326.563
326.149
325.518
324.873
324.309
323.83
323.512
323.446
323.412
317.413
317.222
317.123
317.182
317.342
317.659
318.029
318.3
318.745
318.906
319.031
318.976
318.638
318.278
317.828
317.329
316.947
316.798
316.762
316.765
310.377
310.426
310.338
310.355
310.449
310.65
310.817
311.081
311.225
311.402
311.397
311.409
311.178
310.983
310.64
310.431
310.272
310.091
310.101
310.068
303.496
303.482
303.483
303.47
303.57
303.645
303.696
303.81
303.821
303.809
303.819
303.849
303.772
303.687
303.603
303.538
303.446
303.482
303.39
303.426
352.39
351.935
351.704
351.859
352.344
353.186
354.223
355.261
356.371
357.076
357.328
357.094
356.338
355.062
353.813
352.61
351.595
351.038
350.833
351.126
345.606
345.163
345.004
345.058
345.518
346.253
347.134
348.061
348.962
349.555
349.766
349.504
348.851
347.822
346.675
345.713
344.816
344.295
344.109
344.351
338.732
338.408
338.187
338.255
338.675
339.24
339.995
340.793
341.471
341.993
342.212
341.984
341.35
340.567
339.599
338.683
337.961
337.505
337.379
337.483
331.786
331.499
331.364
331.448
331.773
332.228
332.825
333.443
333.998
334.473
334.613
334.417
333.937
333.17
332.476
331.77
331.082
330.662
330.628
330.774
324.813
324.559
324.471
324.412
324.795
325.123
325.51
326.021
326.522
326.797
326.947
326.769
326.385
325.826
325.301
324.621
324.242
323.955
323.909
323.892
317.703
317.589
317.475
317.593
317.676
318.021
318.309
318.628
318.948
319.137
319.384
319.239
318.911
318.458
317.994
317.657
317.393
317.099
317.102
317.119
310.661
310.565
310.53
310.553
310.673
310.834
311.061
311.135
311.362
311.473
311.664
311.488
311.449
311.072
310.852
310.645
310.404
310.277
310.292
310.309
303.627
303.541
303.478
303.504
303.534
303.656
303.669
303.792
303.773
303.845
303.906
303.893
303.83
303.721
303.618
303.53
303.463
303.488
303.467
303.408
353.386
352.911
352.618
352.854
353.225
353.983
354.904
355.999
356.834
357.641
357.842
357.628
356.868
355.732
354.5
353.412
352.5
351.902
351.764
351.998
346.497
346.036
345.784
345.986
346.381
346.895
347.832
348.673
349.432
350.023
350.19
349.968
349.378
348.444
347.325
346.337
345.512
345.084
344.925
345.075
339.425
339.168
338.892
339.038
339.433
339.868
340.577
341.254
341.852
342.354
342.513
342.303
341.81
341.035
340.172
339.337
338.617
338.239
338.092
338.225
332.329
332.097
331.967
332.022
332.327
332.699
333.185
333.799
334.366
334.688
334.883
334.724
334.284
333.484
332.836
332.217
331.679
331.162
331.188
331.308
325.235
325.043
324.871
324.95
325.122
325.514
325.897
326.403
326.697
327.04
327.15
327.027
326.714
326.128
325.594
325.121
324.655
324.291
324.317
324.316
318.118
317.928
317.796
317.855
317.944
318.277
318.555
318.788
319.155
319.413
319.343
319.325
319.037
318.745
318.384
317.924
317.574
317.417
317.433
317.365
310.859
310.75
310.709
310.732
310.744
310.89
311.143
311.346
311.563
311.642
311.599
311.634
311.467
311.217
310.97
310.804
310.688
310.516
310.482
310.475
303.646
303.618
303.595
303.606
303.598
303.647
303.731
303.79
303.874
303.919
303.931
303.894
303.78
303.74
303.673
303.614
303.622
303.531
303.487
303.508
354.496
354.04
353.667
353.746
354.208
354.822
355.72
356.604
357.503
358.039
358.272
358.014
357.299
356.318
355.242
354.072
353.344
352.807
352.744
352.996
347.368
346.999
346.654
346.764
347.134
347.816
348.434
349.284
349.936
350.504
350.614
350.398
349.759
349.001
347.897
346.95
346.263
345.867
345.686
345.934
340.298
339.823
339.685
339.668
339.985
340.504
341.14
341.803
342.371
342.786
342.924
342.665
342.196
341.457
340.686
339.851
339.178
338.88
338.832
338.932
333.069
332.714
332.576
332.564
332.786
333.182
333.732
334.243
334.701
335.018
335.08
334.981
334.579
333.949
333.231
332.647
332.141
331.884
331.716
331.968
325.763
325.498
325.347
325.501
325.628
325.855
326.263
326.627
327.064
327.246
327.408
327.244
326.831
326.414
325.954
325.436
325.025
324.832
324.74
324.75
318.426
318.185
318.171
318.242
318.404
318.525
318.787
318.977
319.324
319.507
319.535
319.525
319.224
318.945
318.498
318.188
317.915
317.783
317.771
317.734
311.088
310.974
310.933
310.936
311.067
311.056
311.325
311.434
311.638
311.685
311.756
311.751
311.514
311.354
311.148
310.933
310.792
310.661
310.621
310.663
303.742
303.697
303.621
303.65
303.657
303.696
303.808
303.821
303.845
303.939
303.946
303.955
303.881
303.852
303.746
303.686
303.596
303.543
303.606
303.56
355.496
354.932
354.735
354.664
355.103
355.736
356.455
357.313
357.988
358.444
358.633
358.377
357.818
356.919
355.866
354.997
354.147
353.714
353.614
353.871
348.32
347.825
347.61
347.615
347.904
348.489
349.08
349.813
350.432
350.822
350.894
350.734
350.187
349.492
348.543
347.694
346.996
346.605
346.609
346.801
340.913
340.573
340.426
340.414
340.667
341.059
341.725
342.274
342.746
343.124
343.192
343.037
342.536
341.863
341.092
340.381
339.885
339.58
339.429
339.636
333.65
333.352
333.154
333.154
333.315
333.753
334.135
334.612
335.032
335.278
335.441
335.279
334.886
334.312
333.69
333.021
332.638
332.349
332.343
332.415
326.23
326.073
325.874
325.843
325.946
326.293
326.622
326.903
327.323
327.559
327.615
327.407
327.138
326.683
326.23
325.752
325.445
325.154
325.103
325.242
318.705
318.588
318.564
318.503
318.642
318.785
319.053
319.371
319.507
319.687
319.701
319.61
319.418
319.153
318.71
318.418
318.194
317.975
317.957
318.056
311.318
311.17
311.131
311.146
311.151
311.324
311.436
311.567
311.771
311.822
311.898
311.763
311.585
311.518
311.245
311.046
310.931
310.777
310.814
310.882
303.756
303.755
303.741
303.735
303.764
303.777
303.794
303.854
303.941
303.926
303.992
303.965
303.974
303.863
303.835
303.7
303.634
303.666
303.646
303.578
356.597
356.045
355.646
355.671
356.007
356.536
357.246
357.959
358.581
358.99
359.052
358.834
358.244
357.365
356.537
355.669
354.951
354.631
354.588
354.886
349.245
348.691
348.476
348.538
348.73
349.163
349.756
350.438
350.843
351.194
351.358
351.068
350.591
349.932
349.147
348.352
347.736
347.42
347.395
347.567
341.789
341.423
341.167
341.183
341.368
341.725
342.207
342.708
343.243
343.399
343.559
343.37
342.916
342.367
341.582
340.965
340.535
340.144
340.12
340.348
334.289
334.002
333.75
333.792
333.969
334.252
334.579
334.996
335.293
335.638
335.641
335.448
335.033
334.66
334.08
333.595
333.144
332.884
332.913
333.022
326.693
326.561
326.34
326.257
326.538
326.641
326.898
327.29
327.523
327.723
327.771
327.641
327.363
326.962
326.547
326.107
325.879
325.617
325.676
325.752
319.156
318.881
318.85
318.852
318.9
319.043
319.277
319.498
319.784
319.862
319.841
319.779
319.517
319.287
319.024
318.627
318.435
318.354
318.279
318.387
311.43
311.359
311.313
311.346
311.422
311.49
311.599
311.787
311.851
311.922
311.921
311.895
311.745
311.618
311.362
311.329
310.998
310.967
311.03
311.129
303.922
303.812
303.847
303.774
303.759
303.821
303.933
303.889
303.921
304.06
303.961
303.993
303.984
303.916
303.755
303.661
303.778
303.703
303.716
303.678
357.593
357.121
356.723
356.662
356.965
357.416
357.948
358.601
359.112
359.526
359.475
359.259
358.776
358.093
357.248
356.454
355.846
355.483
355.608
355.794
350.239
349.643
349.275
349.327
349.535
349.935
350.384
350.945
351.396
351.609
351.733
351.471
350.969
350.429
349.734
349.011
348.551
348.222
348.249
348.459
342.605
342.157
341.898
341.852
342.07
342.346
342.769
343.123
343.493
343.82
343.827
343.679
343.285
342.737
342.138
341.571
341.107
340.858
340.791
341.036
334.918
334.655
334.354
334.376
334.469
334.735
335.075
335.421
335.727
335.906
335.887
335.702
335.425
334.962
334.558
333.962
333.714
333.495
333.517
333.615
327.162
326.939
326.869
326.733
326.862
327.084
327.282
327.52
327.893
327.958
327.962
327.822
327.602
327.226
326.843
326.475
326.195
326.061
326.053
326.119
319.493
319.256
319.159
319.145
319.183
319.38
319.589
319.749
319.898
320.044
319.996
319.93
319.79
319.385
319.171
319.001
318.723
318.533
318.512
318.71
311.72
311.666
311.516
311.508
311.607
311.577
311.805
311.818
311.953
311.999
312.069
312.007
311.848
311.713
311.534
311.375
311.344
311.227
311.191
311.202
303.915
303.914
303.863
303.888
303.837
303.88
303.862
303.931
304.091
304.059
304.042
303.987
303.906
303.906
303.879
303.806
303.772
303.769
303.703
303.848
358.77
358.14
357.776
357.754
357.831
358.294
358.678
359.296
359.693
359.99
359.989
359.8
359.393
358.694
357.923
357.214
356.738
356.45
356.56
356.902
351.108
350.561
350.25
350.194
350.342
350.659
351.084
351.454
351.822
352.1
352.166
351.937
351.481
350.934
350.271
349.719
349.211
348.985
349.074
349.321
343.353
342.977
342.7
342.61
342.715
342.905
343.353
343.657
344.023
344.067
344.156
344.039
343.712
343.123
342.596
342.057
341.77
341.482
341.532
341.892
335.55
335.28
334.973
334.906
335.028
335.245
335.478
335.807
336.041
336.182
336.209
336.056
335.774
335.33
334.981
334.558
334.07
334.009
334.039
334.217
327.688
327.487
327.296
327.194
327.301
327.467
327.645
327.898
328.098
328.222
328.222
328.083
327.881
327.49
327.186
326.907
326.585
326.489
326.604
326.572
319.821
319.667
319.557
319.467
319.485
319.646
319.876
319.992
320.094
320.123
320.21
320.043
319.938
319.7
319.422
319.21
318.995
318.927
318.93
319.022
311.874
311.866
311.715
311.732
311.711
311.786
311.905
312.057
312.092
312.07
312.094
312.102
312.006
311.844
311.673
311.505
311.448
311.379
311.362
311.449
304.058
303.967
303.912
304.022
303.952
303.998
303.977
303.994
303.997
304.011
304.081
304.03
304.012
303.915
303.94
303.818
303.835
303.766
303.784
303.848
359.739
359.096
358.779
358.617
358.735
359.106
359.412
359.905
360.233
360.475
360.476
360.261
359.785
359.267
358.618
358.044
357.525
357.285
357.491
357.795
352.041
351.474
351.105
351
351.007
351.343
351.63
352.034
352.388
352.513
352.538
352.367
351.938
351.413
350.903
350.393
349.909
349.748
349.819
350.245
344.083
343.646
343.379
343.269
343.279
343.517
343.854
344.148
344.391
344.519
344.445
344.327
344.064
343.583
343.03
342.602
342.272
342.145
342.175
342.502
336.111
335.749
335.543
335.492
335.532
335.714
335.906
336.209
336.383
336.484
336.504
336.319
336.09
335.701
335.272
334.967
334.692
334.516
334.556
334.842
328.141
327.963
327.689
327.803
327.697
327.878
328.007
328.19
328.324
328.502
328.404
328.263
328.064
327.77
327.525
327.236
326.927
326.873
326.908
326.996
320.18
320.01
319.837
319.729
319.761
319.853
320.017
320.125
320.293
320.302
320.287
320.223
320.093
319.93
319.588
319.489
319.314
319.21
319.28
319.37
312.125
312.042
311.881
311.922
311.964
311.907
312.094
312.109
312.208
312.261
312.259
312.092
312.038
311.978
311.79
311.653
311.596
311.514
311.57
311.617
304.079
304.01
303.993
303.956
303.996
304.001
304.054
304.118
304.116
304.153
304.164
304.017
304.086
304.023
303.977
303.937
303.814
303.926
303.883
303.892
360.526
359.976
359.441
359.323
359.432
359.692
360.055
360.398
360.734
360.961
360.844
360.634
360.222
359.691
359.025
358.597
358.129
358.003
358.168
358.657
352.611
352.142
351.757
351.602
351.548
351.862
352.111
352.44
352.749
352.777
352.845
352.684
352.302
351.814
351.288
350.876
350.329
350.273
350.437
350.716
344.618
344.168
343.837
343.76
343.718
343.924
344.094
344.494
344.631
344.798
344.803
344.616
344.304
343.85
343.397
342.989
342.695
342.552
342.691
342.966
336.524
336.214
335.957
335.829
335.909
335.976
336.173
336.425
336.548
336.755
336.762
336.531
336.248
335.922
335.593
335.251
335.034
334.796
334.924
335.209
328.503
328.21
328.025
327.925
327.916
328.094
328.184
328.334
328.464
328.602
328.545
328.466
328.245
328.017
327.694
327.421
327.197
327.077
327.212
327.332
320.306
320.176
320.032
320.045
319.96
320.006
320.187
320.324
320.393
320.367
320.378
320.335
320.263
319.96
319.85
319.585
319.412
319.337
319.543
319.589
312.267
312.173
312.054
311.932
312.01
312.052
312.189
312.242
312.203
312.326
312.318
312.204
312.039
311.974
311.864
311.731
311.678
311.713
311.725
311.73
304.079
304.096
304.042
304.009
303.985
304.047
304.041
304.022
304.063
304.114
304.138
304.121
304.078
304.004
304.003
303.927
303.874
303.969
303.881
303.934
)
;

boundaryField
{
    hotSide
    {
        type            fixedGradient;
        gradient        nonuniform List<scalar> 
400
(
321.511
322.87
325.591
329.677
335.133
341.965
350.181
359.788
370.794
383.208
397.037
412.289
428.971
447.088
466.647
487.651
510.105
534.011
559.372
586.191
323.738
325.08
327.767
331.802
337.194
343.949
352.078
361.591
372.498
384.81
398.537
413.687
430.268
448.289
467.755
488.672
511.043
534.872
560.161
586.913
326.149
327.47
330.116
334.091
339.406
346.071
354.099
363.503
374.296
386.491
400.101
415.136
431.606
449.52
468.885
489.706
511.988
535.735
560.948
587.63
328.704
330
332.597
336.503
341.73
348.292
356.205
365.485
376.15
388.215
401.695
416.604
432.954
450.753
470.009
490.73
512.919
536.579
561.714
588.325
331.33
332.599
335.142
338.97
344.099
350.546
358.332
367.477
378.003
389.928
403.271
418.047
434.27
451.949
471.095
491.712
513.807
537.382
562.439
588.978
333.918
335.158
337.643
341.389
346.414
352.74
360.392
369.397
379.779
391.562
404.765
419.407
435.503
453.065
472.101
492.618
514.622
538.114
563.096
589.569
336.321
337.531
339.959
343.622
348.544
354.751
362.274
371.142
381.385
393.031
406.101
420.618
436.595
454.047
472.983
493.409
515.33
538.747
563.663
590.076
338.36
339.543
341.92
345.509
350.339
356.44
363.847
372.595
382.718
394.244
407.2
421.608
437.485
454.844
473.695
494.045
515.897
539.253
564.114
590.478
339.852
341.015
343.352
346.885
351.645
357.665
364.985
373.643
383.675
395.113
407.984
422.312
438.116
455.407
474.197
494.491
516.294
539.606
564.428
590.758
340.643
341.795
344.11
347.613
352.334
358.311
365.584
374.193
384.176
395.567
408.393
422.679
438.443
455.699
474.456
494.722
516.498
539.788
564.589
590.901
340.643
341.795
344.11
347.613
352.334
358.311
365.584
374.193
384.176
395.567
408.393
422.679
438.443
455.699
474.456
494.722
516.498
539.788
564.589
590.901
339.852
341.015
343.352
346.885
351.645
357.665
364.985
373.643
383.675
395.113
407.984
422.312
438.116
455.407
474.197
494.491
516.294
539.606
564.428
590.758
338.36
339.543
341.92
345.509
350.339
356.44
363.847
372.595
382.718
394.244
407.2
421.608
437.485
454.844
473.695
494.045
515.897
539.253
564.114
590.478
336.321
337.531
339.959
343.622
348.544
354.751
362.274
371.142
381.385
393.031
406.101
420.618
436.595
454.047
472.983
493.409
515.33
538.747
563.663
590.076
333.918
335.158
337.643
341.389
346.414
352.74
360.392
369.397
379.779
391.562
404.765
419.407
435.503
453.065
472.101
492.618
514.622
538.114
563.096
589.569
331.33
332.599
335.142
338.97
344.099
350.546
358.332
367.477
378.003
389.928
403.271
418.047
434.27
451.949
471.095
491.712
513.807
537.382
562.439
588.978
328.704
330
332.597
336.503
341.73
348.292
356.205
365.485
376.15
388.215
401.695
416.604
432.954
450.753
470.009
490.73
512.919
536.579
561.714
588.325
326.149
327.47
330.116
334.091
339.406
346.071
354.099
363.503
374.296
386.491
400.101
415.136
431.606
449.52
468.885
489.706
511.988
535.735
560.948
587.63
323.738
325.08
327.767
331.802
337.194
343.949
352.078
361.591
372.498
384.81
398.537
413.687
430.268
448.289
467.755
488.672
511.043
534.872
560.161
586.913
321.511
322.87
325.591
329.677
335.133
341.965
350.181
359.788
370.794
383.208
397.037
412.289
428.971
447.088
466.647
487.651
510.105
534.011
559.372
586.191
)
;
    }
    coldSide
    {
        type            mixed;
        refValue        uniform 300;
        refGradient     uniform 0;
        valueFraction   uniform 0.991591;
        source          uniform 0;
        value           nonuniform List<scalar> 
400
(
300.026
300.026
300.026
300.027
300.027
300.027
300.028
300.028
300.029
300.028
300.029
300.031
300.031
300.031
300.032
300.033
300.033
300.034
300.034
300.034
300.026
300.025
300.026
300.026
300.027
300.027
300.027
300.028
300.029
300.029
300.029
300.03
300.03
300.031