/*--------------------------------*- C++ -*----------------------------------*\
| =========                 |                                                 |
| \\      /  F ield         | OpenFOAM: The Open Source CFD Toolbox           |
|  \\    /   O peration     | Version:  2212                                  |
|   \\  /    A nd           | Website:  www.openfoam.com                      |
|    \\/     M anipulation  |                                                 |
\*---------------------------------------------------------------------------*/
FoamFile
{
    version     2.0;
    format      ascii;
    arch        "LSB;label=32;scalar=64";
    class       volScalarField;
    location    "./ITHACAoutput/true/16.3";
    object      error;
}
// * * * * * * * * * * * * * * * * * * * * * * * * * * * * * * * * * * * * * //

dimensions      [0 0 0 1 0 0 0];

internalField   nonuniform List<scalar> 
3200
(
0.664568
0.159053
-0.408034
-0.845915
-1.17224
-1.3591
-1.41994
-1.40573
-1.32355
-1.19411
-0.967889
-0.731719
-0.500422
-0.217956
0.283448
0.791898
1.33
1.98116
2.82739
3.53454
0.65157
0.164292
-0.165784
-0.662995
-0.934815
-1.10139
-1.16455
-1.09396
-1.05998
-0.900113
-0.716161
-0.565008
-0.345502
-0.0474338
0.273682
0.695191
1.17864
1.78423
2.49925
3.13861
0.635686
0.214001
-0.152575
-0.417544
-0.712317
-0.867811
-0.906278
-0.959947
-0.872029
-0.71289
-0.568688
-0.40416
-0.21295
0.0998612
0.267558
0.617808
1.02654
1.59873
2.14833
2.63661
0.511777
0.26637
-0.091228
-0.38011
-0.484995
-0.618205
-0.661367
-0.674224
-0.664309
-0.54602
-0.413441
-0.334102
-0.141752
0.0414517
0.226333
0.593871
0.921947
1.3721
1.79164
2.22153
0.483391
0.14886
0.0409915
-0.304972
-0.412235
-0.545379
-0.489572
-0.516021
-0.455861
-0.4908
-0.285202
-0.189112
-0.0696698
0.0966608
0.241276
0.453387
0.722913
1.05556
1.40487
1.77214
0.375545
0.209974
0.0218098
-0.171457
-0.279479
-0.329197
-0.336223
-0.371261
-0.331726
-0.297008
-0.265297
-0.131082
-0.108889
0.0479895
0.233938
0.265503
0.538649
0.776147
1.02612
1.22976
0.161467
0.119899
-0.0221279
-0.11187
-0.148316
-0.18276
-0.1941
-0.232964
-0.211263
-0.125376
-0.0922617
-0.108153
-0.028017
0.080391
0.0929806
0.246696
0.261586
0.438356
0.616401
0.73445
0.095357
0.111653
0.0585359
-0.000201495
-0.0219997
0.015366
-0.083555
-0.0737038
-0.0422808
-0.120299
-0.0403895
0.0175842
0.05264
0.0679357
0.000685735
0.0682827
0.0985127
0.108879
0.184257
0.265205
-0.154707
-0.849844
-1.41322
-1.84395
-2.22888
-2.40156
-2.57668
-2.4996
-2.51854
-2.22168
-2.10792
-1.88081
-1.64572
-1.22411
-0.790654
-0.322171
0.242996
1.00491
1.89567
2.60126
-0.0822267
-0.541171
-0.97177
-1.52128
-1.78881
-1.95755
-2.08219
-1.97063
-1.95087
-1.81287
-1.64796
-1.52331
-1.25597
-0.946419
-0.635797
-0.169202
0.319598
0.961944
1.72749
2.38031
0.0324827
-0.373842
-0.809719
-1.17742
-1.47555
-1.56537
-1.64503
-1.58359
-1.59346
-1.4669
-1.28109
-1.16901
-1.05063
-0.691823
-0.406019
-0.0755058
0.376087
0.874936
1.5834
2.07206
0.0890649
-0.259009
-0.603945
-0.804078
-1.09578
-1.17946
-1.25182
-1.26554
-1.25174
-1.04686
-1.00871
-0.924738
-0.715714
-0.483518
-0.293999
-0.0109135
0.378463
0.830079
1.34654
1.6792
0.115369
-0.080903
-0.331354
-0.633231
-0.874269
-0.905846
-0.868305
-0.918903
-0.939645
-0.869959
-0.713129
-0.557584
-0.466596
-0.391111
-0.192295
0.0372624
0.302648
0.671148
1.09801
1.39858
0.0911962
-0.0585848
-0.157341
-0.422604
-0.562648
-0.604608
-0.629594
-0.663073
-0.597282
-0.54645
-0.514623
-0.447329
-0.303508
-0.218298
-0.120718
0.12288
0.261443
0.493235
0.829179
1.05508
0.0780305
0.00620577
-0.144716
-0.233235
-0.351576
-0.364989
-0.299321
-0.373327
-0.368306
-0.320349
-0.269095
-0.224259
-0.228614
-0.0872533
-0.0428273
0.103242
0.113825
0.30321
0.412704
0.522135
0.0555719
-0.00860044
-0.0816216
-0.0499692
-0.0742117
-0.128446
-0.125824
-0.127374
-0.0779669
-0.0888241
-0.14773
-0.068932
-0.0445784
-0.0538721
-0.0484244
-0.0224254
0.0915218
0.0723895
0.204011
0.224607
-1.21333
-1.97561
-2.61295
-3.10311
-3.49236
-3.75023
-3.8477
-3.86667
-3.78835
-3.65934
-3.49204
-3.28276
-2.9799
-2.51774
-2.18019
-1.58874
-0.994574
-0.163128
0.65209
1.43603
-0.984464
-1.53925
-2.11697
-2.5878
-2.81045
-3.03069
-3.14838
-3.13938
-3.11709
-3.03292
-2.89751
-2.63055
-2.39566
-2.13617
-1.74565
-1.21175
-0.689176
-0.0492823
0.701082
1.36561
-0.798933
-1.13589
-1.60157
-2.02813
-2.40172
-2.4208
-2.5513
-2.57128
-2.55921
-2.34929
-2.29016
-2.09898
-1.92414
-1.67982
-1.36668
-0.937463
-0.435214
0.157116
0.693633
1.30356
-0.553272
-0.904589
-1.23222
-1.50977
-1.79271
-1.96211
-2.00433
-1.96417
-1.98874
-1.88879
-1.85072
-1.63923
-1.5
-1.30602
-1.03677
-0.653549
-0.29402
0.194884
0.605499
1.14153
-0.340422
-0.602683
-0.877473
-1.13671
-1.28653
-1.386
-1.54226
-1.44872
-1.45974
-1.40102
-1.42415
-1.21899
-1.13332
-0.876572
-0.707205
-0.523104
-0.218171
0.247214
0.648122
0.951939
-0.184712
-0.441901
-0.583218
-0.76464
-0.970916
-0.981681
-1.01947
-1.07763
-1.0634
-1.02144
-0.881753
-0.903632
-0.715152
-0.653161
-0.497158
-0.289907
-0.077829
0.125811
0.447625
0.641074
-0.144346
-0.194392
-0.359508
-0.481409
-0.545228
-0.588977
-0.608302
-0.639246
-0.61872
-0.582192
-0.563841
-0.59697
-0.473766
-0.35244
-0.254909
-0.16762
-0.02571
0.0630905
0.235597
0.376572
-0.0648163
-0.0383733
-0.149772
-0.110301
-0.157983
-0.20683
-0.257579
-0.223859
-0.184379
-0.167543
-0.229991
-0.156616
-0.163468
-0.160076
-0.0559358
-0.0365922
0.00612896
0.0330931
0.0787607
0.186102
-2.26587
-2.99706
-3.73188
-4.27236
-4.68428
-5.00826
-5.10311
-5.23367
-5.1421
-5.05818
-4.85308
-4.58062
-4.3194
-3.90725
-3.46855
-2.84622
-2.14199
-1.36348
-0.445046
0.455594
-1.86773
-2.45738
-3.03945
-3.52974
-3.91391
-4.10957
-4.30109
-4.2348
-4.2268
-4.21754
-4.10763
-3.80281
-3.55056
-3.25821
-2.77313
-2.33301
-1.67975
-0.9552
-0.155449
0.492476
-1.43679
-1.93744
-2.45628
-2.85286
-3.07871
-3.3283
-3.51076
-3.46761
-3.54597
-3.41041
-3.27968
-3.03106
-2.89365
-2.62422
-2.27104
-1.76483
-1.38047
-0.751427
-0.108626
0.577917
-1.08911
-1.50191
-1.907
-2.16756
-2.4535
-2.65323
-2.71283
-2.73837
-2.77851
-2.74429
-2.56916
-2.37259
-2.24918
-2.04051
-1.80859
-1.48937
-1.03451
-0.513918
0.0909491
0.455351
-0.811038
-1.14119
-1.37465
-1.66824
-1.90144
-1.97436
-2.04846
-2.06633
-2.02999
-2.04299
-1.89936
-1.83634
-1.71256
-1.57367
-1.27691
-0.992535
-0.752553
-0.381805
0.0488225
0.370358
-0.563863
-0.749308
-0.996129
-1.11974
-1.23849
-1.39337
-1.39926
-1.39991
-1.47851
-1.39882
-1.37469
-1.28618
-1.1403
-1.17572
-0.880729
-0.719206
-0.464762
-0.199019
0.0313045
0.226037
-0.295945
-0.408682
-0.588493
-0.688405
-0.788362
-0.814464
-0.866643
-0.902416
-0.8511
-0.789854
-0.758383
-0.757255
-0.762317
-0.670974
-0.550423
-0.373204
-0.29629
-0.040826
-0.0102047
0.202126
-0.0814992
-0.17274
-0.150957
-0.255098
-0.294378
-0.306042
-0.294045
-0.270717
-0.319405
-0.268028
-0.215714
-0.324939
-0.278028
-0.192744
-0.188242
-0.0305064
-0.12952
-0.0715896
0.0479505
0.0781506
-3.184
-3.91098
-4.65095
-5.24265
-5.83673
-6.09674
-6.39024
-6.32618
-6.35016
-6.22266
-6.02734
-5.78796
-5.47866
-5.10948
-4.53026
-3.88933
-3.15118
-2.27545
-1.34873
-0.503069
-2.55504
-3.28169
-3.81837
-4.38582
-4.8378
-5.02601
-5.27636
-5.34146
-5.28337
-5.24712
-5.02257
-4.81979
-4.55265
-4.18072
-3.7934
-3.23701
-2.60116
-1.84226
-1.04173
-0.325788
-2.04517
-2.58524
-3.14821
-3.54456
-3.79512
-4.17477
-4.31662
-4.39435
-4.28418
-4.32244
-4.14423
-3.98859
-3.71616
-3.43679
-3.07433
-2.58155
-2.09372
-1.41374
-0.738094
-0.145486
-1.63891
-1.96406
-2.39562
-2.82101
-3.05989
-3.34089
-3.401
-3.48163
-3.42631
-3.37801
-3.25985
-3.16716
-2.90835
-2.7575
-2.43151
-2.06884
-1.60177
-1.06901
-0.526426
-0.101614
-1.22686
-1.54393
-1.8237
-2.15841
-2.3326
-2.53825
-2.62996
-2.60631
-2.6688
-2.60894
-2.5214
-2.40746
-2.1474
-2.09823
-1.78373
-1.58119
-1.19724
-0.8088
-0.356909
0.0180114
-0.844531
-1.06333
-1.26171
-1.4305
-1.66518
-1.74514
-1.84804
-1.87956
-1.87406
-1.81837
-1.70143
-1.65506
-1.48882
-1.46348
-1.32328
-1.14458
-0.731251
-0.518343
-0.194618
0.0501746
-0.441079
-0.624759
-0.792015
-0.912746
-1.00869
-1.0283
-1.08628
-1.09193
-1.07391
-1.076
-1.00082
-0.968988
-0.992111
-0.89723
-0.787572
-0.663664
-0.40427
-0.335273
-0.0751188
0.0139177
-0.204405
-0.263319
-0.269734
-0.373188
-0.385442
-0.336187
-0.371105
-0.423641
-0.404001
-0.349643
-0.320656
-0.33639
-0.33473
-0.242503
-0.17853
-0.216399
-0.167213
-0.125076
-0.0407297
-0.00725688
-3.81663
-4.58084
-5.42171
-5.99249
-6.58572
-6.99494
-7.20976
-7.26533
-7.3252
-7.24189
-7.02788
-6.77301
-6.43753
-6.05193
-5.55158
-4.79481
-4.02432
-3.13933
-2.15121
-1.12611
-3.19725
-3.77881
-4.47371
-5.02503
-5.55566
-5.79414
-6.05761
-6.13829
-6.18239
-6.09614
-5.94346
-5.68708
-5.47982
-5.02935
-4.68521
-3.95609
-3.35185
-2.55014
-1.65947
-0.923704
-2.54258
-3.10963
-3.62408
-4.13524
-4.47494
-4.82277
-4.86629
-5.01757
-5.12171
-4.97767
-4.82627
-4.65148
-4.49309
-4.1109
-3.7185
-3.23508
-2.69094
-2.03961
-1.30749
-0.675495
-2.01102
-2.38067
-2.95396
-3.27292
-3.67587
-3.83182
-3.95336
-4.07509
-4.0426
-3.96247
-3.9037
-3.71439
-3.56277
-3.30656
-2.97836
-2.52585
-2.1382
-1.62715
-0.985223
-0.47044
-1.59166
-1.79285
-2.20241
-2.50141
-2.77793
-2.82086
-3.03731
-3.12176
-3.08521
-3.07656
-2.89266
-2.84382
-2.78031
-2.47704
-2.23804
-2.02628
-1.55964
-1.12365
-0.706549
-0.281643
-1.01486
-1.18292
-1.51137
-1.73392
-1.85055
-2.00256
-2.06893
-2.1767
-2.23354
-2.1399
-2.06592
-1.91991
-1.90165
-1.7409
-1.55748
-1.33933
-1.04802
-0.815567
-0.523905
-0.18451
-0.587889
-0.739576
-0.918725
-1.10744
-1.15025
-1.20411
-1.29505
-1.21287
-1.32647
-1.19783
-1.22484
-1.26845
-1.11706
-0.985929
-0.924335
-0.778102
-0.656084
-0.450328
-0.261893
-0.159086
-0.225494
-0.215261
-0.311248
-0.370492
-0.411939
-0.385721
-0.443571
-0.433278
-0.413632
-0.447401
-0.42905
-0.414771
-0.389233
-0.350373
-0.274405
-0.31993
-0.197322
-0.150283
-0.144063
0.0521162
-4.23495
-5.04999
-5.86606
-6.6467
-7.20786
-7.66459
-7.95359
-8.08865
-8.10774
-7.98949
-7.83117
-7.57494
-7.20878
-6.79014
-6.17215
-5.4418
-4.65353
-3.70958
-2.56723
-1.6326
-3.53424
-4.09904
-4.91564
-5.48301
-5.98546
-6.38094
-6.60819
-6.76407
-6.80656
-6.72107
-6.6397
-6.38405
-6.08249
-5.65026
-5.19876
-4.5325
-3.77243
-3.00488
-2.14922
-1.29166
-2.85894
-3.48801
-4.03645
-4.52772
-4.9208
-5.28695
-5.50079
-5.54224
-5.65656
-5.65823
-5.34123
-5.18302
-4.97317
-4.66153
-4.29531
-3.69096
-3.07014
-2.4137
-1.59454
-0.962864
-2.2286
-2.66052
-3.07564
-3.62322
-3.92819
-4.215
-4.39584
-4.45214
-4.43482
-4.43756
-4.39574
-4.2388
-4.0368
-3.66113
-3.37179
-2.92785
-2.39599
-1.91629
-1.30705
-0.653782
-1.67548
-1.99764
-2.43011
-2.78545
-3.06861
-3.21531
-3.3292
-3.39794
-3.3907
-3.34763
-3.34401
-3.20773
-3.01213
-2.80544
-2.59541
-2.29342
-1.85591
-1.417
-0.918901
-0.496336
-1.1219
-1.37524
-1.61157
-1.91111
-2.10901
-2.18787
-2.36406
-2.40239
-2.47133
-2.44749
-2.35489
-2.23733
-2.14465
-1.99757
-1.75578
-1.55835
-1.26657
-0.957447
-0.579763
-0.361068
-0.672799
-0.803872
-0.947541
-1.18943
-1.23888
-1.36798
-1.41608
-1.42681
-1.46907
-1.41811
-1.38557
-1.40409
-1.26926
-1.19531
-1.0829
-0.891544
-0.728494
-0.633179
-0.372596
-0.2123
-0.229728
-0.246015
-0.311455
-0.391084
-0.354655
-0.56114
-0.424154
-0.514506
-0.542787
-0.506227
-0.492227
-0.493166
-0.408993
-0.414015
-0.340409
-0.303177
-0.254108
-0.233431
-0.158019
-0.0369079
-4.41304
-5.28768
-6.14749
-6.93244
-7.57601
-8.12849
-8.41516
-8.5454
-8.63063
-8.51708
-8.40222
-8.10486
-7.77911
-7.16846
-6.6835
-5.88342
-5.05368
-3.99708
-2.88035
-1.84653
-3.63492
-4.32788
-5.18055
-5.85433
-6.33942
-6.81267
-7.05644
-7.16639
-7.22431
-7.23346
-7.06393
-6.83199
-6.46024
-6.13493
-5.6007
-4.8459
-4.15935
-3.31758
-2.41681
-1.46506
-2.92853
-3.49796
-4.15716
-4.79159
-5.2089
-5.57736
-5.84649
-5.91172
-5.97024
-5.99672
-5.85534
-5.68307
-5.32631
-5.0399
-4.57383
-4.02202
-3.31809
-2.61779
-1.84373
-1.11171
-2.31347
-2.81281
-3.32727
-3.82841
-4.11739
-4.43455
-4.65685
-4.74105
-4.76265
-4.80058
-4.70947
-4.48482
-4.25478
-3.9785
-3.69085
-3.17635
-2.59161
-2.09093
-1.44435
-0.9232
-1.71114
-2.03946
-2.49454
-2.93542
-3.20955
-3.371
-3.54414
-3.70555
-3.65776
-3.55103
-3.56907
-3.46609
-3.27299
-3.03124
-2.76075
-2.38493
-2.10705
-1.57353
-1.03792
-0.666403
-1.20943
-1.53786
-1.81387
-2.00078
-2.2154
-2.30578
-2.51911
-2.57516
-2.57275
-2.59056
-2.48325
-2.3484
-2.27793
-2.14952
-1.94309
-1.73884
-1.38726
-1.06263
-0.707418
-0.410343
-0.742212
-0.867491
-1.027
-1.25645
-1.32143
-1.45604
-1.40085
-1.55568
-1.58329
-1.51373
-1.46366
-1.48698
-1.41221
-1.27995
-1.25667
-1.03152
-0.853128
-0.627994
-0.403015
-0.269233
-0.261069
-0.271718
-0.367044
-0.410378
-0.447179
-0.467258
-0.483223
-0.501315
-0.533536
-0.523241
-0.474034
-0.452628
-0.450954
-0.412681
-0.357851
-0.32904
-0.299897
-0.284127
-0.138728
-0.0777315
-4.30375
-5.17308
-6.17514
-7.02153
-7.69852
-8.17987
-8.59452
-8.83832
-8.95103
-8.86298
-8.66846
-8.32842
-7.99895
-7.46189
-6.90008
-6.03243
-5.01118
-4.04612
-2.85179
-1.8277
-3.52779
-4.27834
-5.13856
-5.78542
-6.46584
-6.9237
-7.19879
-7.41292
-7.49068
-7.51171
-7.32378
-7.10145
-6.77529
-6.28633
-5.68439
-5.04018
-4.26618
-3.31
-2.36711
-1.47248
-2.87186
-3.51149
-4.15747
-4.78122
-5.28524
-5.71298
-5.95631
-6.15262
-6.13986
-6.13443
-6.02611
-5.90537
-5.51111
-5.14633
-4.77847
-4.1023
-3.52304
-2.66652
-1.79666
-1.08135
-2.2444
-2.77034
-3.33962
-3.78437
-4.23463
-4.58933
-4.69266
-4.86879
-4.97966
-4.93143
-4.82762
-4.6497
-4.43001
-4.07462
-3.7301
-3.33715
-2.69544
-2.15331
-1.5212
-0.843107
-1.67092
-2.06231
-2.4869
-2.91122
-3.25227
-3.51345
-3.59126
-3.74386
-3.77597
-3.72561
-3.65242
-3.60152
-3.41796
-3.15153
-2.8237
-2.41241
-2.06875
-1.55054
-1.01766
-0.649786
-1.22667
-1.46274
-1.78839
-2.01217
-2.26615
-2.47168
-2.61171
-2.62836
-2.66345
-2.65889
-2.6066
-2.48339
-2.38757
-2.19531
-1.93475
-1.7045
-1.46287
-1.15718
-0.714734
-0.42382
-0.713366
-0.830074
-1.00312
-1.22664
-1.38715
-1.44467
-1.54955
-1.52861
-1.60751
-1.63334
-1.52852
-1.49609
-1.38697
-1.34392
-1.18307
-0.985938
-0.830314
-0.648152
-0.411504
-0.237566
-0.208117
-0.258646
-0.380777
-0.35796
-0.497143
-0.467431
-0.542328
-0.513895
-0.510751
-0.534718
-0.566771
-0.490292
-0.50214
-0.439022
-0.436421
-0.346593
-0.341819
-0.244135
-0.148491
-0.0922696
-3.84778
-4.82435
-5.87473
-6.81387
-7.50038
-8.0971
-8.52812
-8.72088
-8.87298
-8.8461
-8.67516
-8.44356
-7.95403
-7.48568
-6.80352
-5.91475
-4.92351
-3.77933
-2.6198
-1.59376
-3.22615
-3.99046
-4.86974
-5.6582
-6.38347
-6.79753
-7.19516
-7.32305
-7.45368
-7.42521
-7.3359
-7.07454
-6.63062
-6.20464
-5.62318
-4.95407
-4.0858
-3.1322
-2.07379
-1.15807
-2.59454
-3.24906
-3.97407
-4.59607
-5.12563
-5.56778
-5.83997
-6.0273
-6.13018
-6.18038
-6.05758
-5.87162
-5.5803
-5.09888
-4.6482
-4.02927
-3.30423
-2.48648
-1.66931
-0.851985
-1.96807
-2.58912
-3.15003
-3.62701
-4.14159
-4.51578
-4.65027
-4.87095
-4.92636
-4.86591
-4.80462
-4.6644
-4.46967
-4.06261
-3.65141
-3.19503
-2.59406
-1.93828
-1.25515
-0.657576
-1.51954
-1.92493
-2.39652
-2.7926
-3.16802
-3.3753
-3.49897
-3.74254
-3.77747
-3.72759
-3.66762
-3.50963
-3.30901
-3.13532
-2.78851
-2.45922
-1.95093
-1.48872
-0.942236
-0.480298
-1.04167
-1.35303
-1.67373
-1.90045
-2.15048
-2.37577
-2.45761
-2.62521
-2.61595
-2.70487
-2.58315
-2.47992
-2.33208
-2.18204
-1.92009
-1.63762
-1.29682
-0.994379
-0.655236
-0.233502
-0.586156
-0.739318
-0.910812
-1.1596
-1.3395
-1.42079
-1.48253
-1.55193
-1.54782
-1.62446
-1.50342
-1.41542
-1.37577
-1.30969
-1.22033
-0.987096
-0.855146
-0.610022
-0.334454
-0.19372
-0.18257
-0.267071
-0.367986
-0.363984
-0.406484
-0.525156
-0.436359
-0.486815
-0.467135
-0.539655
-0.565239
-0.470517
-0.433286
-0.461821
-0.381302
-0.280586
-0.308319
-0.219353
-0.134232
-0.0139619
-3.19245
-4.2563
-5.30186
-6.24947
-7.07098
-7.70446
-8.17667
-8.46539
-8.56634
-8.53399
-8.42567
-8.18284
-7.71472
-7.16348
-6.33503
-5.46409
-4.52012
-3.32322
-2.13179
-0.931285
-2.63984
-3.48521
-4.37207
-5.13205
-5.89862
-6.40605
-6.81905
-7.09532
-7.26822
-7.23184
-7.00108
-6.80544
-6.45006
-5.97436
-5.32741
-4.59771
-3.62846
-2.68143
-1.63467
-0.644362
-2.09368
-2.83715
-3.58027
-4.28356
-4.7849
-5.33266
-5.53473
-5.85797
-5.88645
-5.88489
-5.77686
-5.63114
-5.25894
-4.90686
-4.36667
-3.70259
-3.05002
-2.18148
-1.24389
-0.482739
-1.61321
-2.23461
-2.84363
-3.34972
-3.80224
-4.22282
-4.44862
-4.63197
-4.70311
-4.73889
-4.68868
-4.47251
-4.18921
-3.88487
-3.4884
-2.94767
-2.33536
-1.67406
-0.920181
-0.275589
-1.15658
-1.58555
-2.06159
-2.55259
-2.93491
-3.14359
-3.39412
-3.56863
-3.60364
-3.53441
-3.53247
-3.3883
-3.25751
-2.94009
-2.6062
-2.22984
-1.72392
-1.22607
-0.704321
-0.212605
-0.908516
-1.06972
-1.40983
-1.77284
-2.04291
-2.20036
-2.38202
-2.45636
-2.5053
-2.57313
-2.38961
-2.3564
-2.23204
-2.17385
-1.83029
-1.50872
-1.25479
-0.825969
-0.471851
-0.098586
-0.480595
-0.655139
-0.838696
-1.08121
-1.28707
-1.37886
-1.47037
-1.46914
-1.61165
-1.50763
-1.4331
-1.46973
-1.31752
-1.22044
-1.0836
-0.952984
-0.735941
-0.569105
-0.197186
-0.0206747
-0.164062
-0.259089
-0.240209
-0.370105
-0.332252
-0.397642
-0.467245
-0.477521
-0.488821
-0.451636
-0.52734
-0.424176
-0.459099
-0.407413
-0.349589
-0.294978
-0.207186
-0.146038
-0.0447202
-0.040159
-2.275
-3.33514
-4.5313
-5.46143
-6.26776
-7.00703
-7.46925
-7.82828
-7.97374
-7.92277
-7.84315
-7.47137
-7.04655
-6.52231
-5.82043
-4.78287
-3.76239
-2.55112
-1.32502
-0.177419
-1.76718
-2.69967
-3.68922
-4.52233
-5.21991
-5.81315
-6.19286
-6.56381
-6.63347
-6.68506
-6.51628
-6.28595
-5.93965
-5.3822
-4.81523
-3.99162
-3.07018
-2.06467
-0.911628
-0.010946
-1.35675
-2.10399
-2.94526
-3.6483
-4.26223
-4.80416
-5.10292
-5.3533
-5.46011
-5.47795
-5.35601
-5.20194
-4.88698
-4.39892
-3.83949
-3.18769
-2.45038
-1.5907
-0.623225
0.100594
-1.00072
-1.60402
-2.28469
-2.93705
-3.41413
-3.77193
-4.08439
-4.25734
-4.3377
-4.29444
-4.23452
-4.13002
-3.8575
-3.47923
-3.02137
-2.51331
-1.93226
-1.26848
-0.38955
0.189554
-0.787671
-1.17196
-1.68853
-2.14635
-2.61265
-2.88415
-3.02777
-3.24049
-3.32619
-3.30803
-3.31525
-3.13892
-2.93683
-2.60059
-2.32286
-1.86643
-1.36172
-0.907299
-0.234445
0.209962
-0.474915
-0.818211
-1.17959
-1.53677
-1.8067
-1.96527
-2.2084
-2.29688
-2.29459
-2.31088
-2.21712
-2.16909
-2.05899
-1.83856
-1.5883
-1.35381
-0.95827
-0.521812
-0.212557
0.209433
-0.278945
-0.453356
-0.718075
-0.940885
-1.02187
-1.17753
-1.22094
-1.35933
-1.45104
-1.39408
-1.38147
-1.34469
-1.16099
-1.06534
-0.967405
-0.814621
-0.606039
-0.434581
-0.0689819
0.136982
-0.123362
-0.0973108
-0.213711
-0.244663
-0.30521
-0.42277
-0.431796
-0.426177
-0.419881
-0.470637
-0.450159
-0.425165
-0.41271
-0.426606
-0.352103
-0.17727
-0.222363
-0.138744
-0.00954021
0.0247207
-1.11198
-2.11081
-3.36548
-4.34656
-5.29581
-5.92814
-6.52196
-6.82151
-7.07436
-7.00226
-6.89855
-6.59893
-6.1749
-5.53471
-4.79791
-3.80028
-2.77597
-1.49741
-0.136931
1.09133
-0.746641
-1.65903
-2.70614
-3.64439
-4.24242
-4.99192
-5.44266
-5.66542
-5.86893
-5.94417
-5.7786
-5.53048
-5.11518
-4.50062
-3.87016
-3.06925
-2.18383
-1.20214
0.0232228
1.07535
-0.497959
-1.2053
-2.15338
-2.81969
-3.50218
-3.97955
-4.40943
-4.63479
-4.77184
-4.87169
-4.74061
-4.49339
-4.10885
-3.73872
-3.14048
-2.43543
-1.71296
-0.80878
0.167833
1.09152
-0.25643
-0.91249
-1.594
-2.24274
-2.73441
-3.14695
-3.53106
-3.63822
-3.79312
-3.80351
-3.77924
-3.52805
-3.24885
-2.91497
-2.4962
-1.90541
-1.24227
-0.559827
0.222705
0.89103
-0.169537
-0.616241
-1.16738
-1.71583
-2.01673
-2.37322
-2.60969
-2.80742
-2.8974
-2.90462
-2.89613
-2.68117
-2.45063
-2.17667
-1.93997
-1.46179
-0.997885
-0.366141
0.23071
0.759242
-0.120718
-0.393302
-0.870889
-1.15025
-1.4607
-1.60535
-1.87257
-1.90477
-2.00719
-1.96956
-1.96526
-1.89212
-1.70436
-1.51465
-1.27981
-0.981435
-0.57212
-0.229497
0.137702
0.545003
-0.0473956
-0.238559
-0.45877
-0.681534
-0.780208
-1.04693
-1.11715
-1.18415
-1.18461
-1.2452
-1.16795
-1.14113
-0.976603
-0.853995
-0.727909
-0.612733
-0.398157
-0.114735
0.167631
0.364678
0.0530435
-0.0609718
-0.12655
-0.186424
-0.267796
-0.361199
-0.374757
-0.353393
-0.402336
-0.399045
-0.344248
-0.37391
-0.329837
-0.354406
-0.239697
-0.160324
-0.088171
-0.0827114
0.0527323
0.128569
0.434421
-0.684403
-1.88128
-2.99418
-3.89371
-4.71699
-5.21534
-5.55145
-5.88328
-5.81086
-5.70757
-5.46003
-4.88324
-4.27719
-3.54101
-2.55573
-1.38546
-0.121982
1.19698
2.49883
0.62681
-0.355126
-1.40307
-2.38244
-3.12352
-3.81548
-4.29604
-4.63326
-4.83281
-4.81994
-4.71053
-4.41994
-4.06825
-3.56702
-2.78835
-1.97109
-1.02672
0.0897812
1.20141
2.35278
0.645907
-0.166617
-1.01973
-1.82743
-2.48256
-3.03313
-3.47415
-3.67809
-3.90607
-3.93636
-3.83801
-3.56221
-3.28766
-2.792
-2.23984
-1.48156
-0.676087
0.199557
1.24069
2.09693
0.599296
0.000240737
-0.733824
-1.39198
-1.94719
-2.36326
-2.65756
-2.96068
-3.08732
-3.09205
-3.0713
-2.82534
-2.61775
-2.17876
-1.7246
-1.09869
-0.489726
0.268171
1.11529
1.71931
0.548082
0.115664
-0.470486
-0.963223
-1.39242
-1.76409
-1.99979
-2.19261
-2.3114
-2.32123
-2.30646
-2.14265
-1.96015
-1.59613
-1.22796
-0.804557
-0.317243
0.289537
0.901253
1.39566
0.478574
0.0872458
-0.245751
-0.659749
-0.972583
-1.22469
-1.41925
-1.56783
-1.63961
-1.6671
-1.62934
-1.5135
-1.34
-1.11079
-0.760577
-0.579903
-0.181376
0.252643
0.681855
1.04095
0.241566
0.0803621
-0.148179
-0.395967
-0.567011
-0.634612
-0.800599
-0.931575
-0.908699
-1.02109
-0.894579
-0.892523
-0.764844
-0.587358
-0.497374
-0.332533
-0.0697115
0.184561
0.436142
0.637983
0.09199
-0.00724136
-0.070153
-0.143027
-0.16155
-0.23636
-0.266455
-0.286804
-0.338273
-0.305026
-0.322543
-0.282844
-0.262648
-0.208471
-0.253685
-0.157501
0.00567321
-0.00263026
0.205502
0.255281
2.31175
1.06925
-0.222436
-1.36221
-2.24448
-3.03476
-3.62624
-4.00978
-4.28132
-4.29651
-4.19997
-3.8834
-3.44288
-2.79153
-1.83405
-0.919788
0.184477
1.53658
2.92393
4.20392
2.18458
1.13351
0.0987455
-0.859213
-1.70664
-2.30952
-2.9187
-3.18609
-3.4769
-3.50506
-3.33024
-3.14306
-2.72682
-2.14123
-1.4733
-0.57576
0.429019
1.57857
2.69543
3.79181
1.98011
1.18932
0.267472
-0.573212
-1.2555
-1.87469
-2.28911
-2.61388
-2.78145
-2.71839
-2.71464
-2.47475
-2.15193
-1.6974
-1.0144
-0.344141
0.466841
1.39158
2.4318
3.39918
1.63377
1.04769
0.3232
-0.30194
-0.901698
-1.42723
-1.71634
-1.91601
-2.12346
-2.1322
-2.06163
-1.92806
-1.62429
-1.27067
-0.774796
-0.164668
0.551204
1.24397
2.09037
2.7924
1.42825
0.978623
0.2804
-0.206733
-0.551056
-0.968653
-1.23805
-1.42963
-1.58712
-1.61603
-1.6164
-1.40612
-1.22809
-0.870431
-0.534524
-0.0836969
0.458581
1.06155
1.66867
2.24614
1.06096
0.718989
0.240813
-0.0702901
-0.373817
-0.673551
-0.950652
-1.06331
-1.08301
-1.15144
-1.0747
-0.93795
-0.846375
-0.646011
-0.368549
0.0119174
0.31139
0.845403
1.23795
1.55991
0.61702
0.343363
0.161338
-0.0159895
-0.219124
-0.456461
-0.527731
-0.62169
-0.647606
-0.650787
-0.668065
-0.582536
-0.479367
-0.35914
-0.128096
0.0182849
0.228799
0.510822
0.809111
0.908376
0.280322
0.16261
0.0532421
0.011991
-0.117176
-0.165501
-0.143438
-0.268065
-0.194797
-0.220294
-0.228071
-0.164927
-0.185665
-0.175801
-0.0658181
0.0302386
0.0343811
0.185841
0.293763
0.370313
4.33077
3.2162
1.89669
0.716341
-0.235018
-1.03704
-1.73913
-2.18964
-2.39672
-2.4225
-2.36018
-2.02603
-1.53327
-0.822263
-0.0692138
0.929163
2.20994
3.49135
4.92899
6.20759
4.03026
3.01001
1.89497
0.868114
-0.0261022
-0.638967
-1.22851
-1.59015
-1.87421
-1.89161
-1.86259
-1.46173
-1.09863
-0.504727
0.143767
1.02398
2.00162
3.16912
4.49812
5.529
3.5194
2.74191
1.72781
0.982129
0.230322
-0.371605
-0.87395
-1.23101
-1.43649
-1.4014
-1.30256
-1.09164
-0.713022
-0.350191
0.3361
1.00743
1.91175
2.87862
4.0214
4.81623
2.92461
2.39052
1.54195
0.900088
0.280567
-0.149135
-0.584256
-0.847153
-0.944258
-1.07232
-0.983905
-0.84903
-0.455633
-0.129512
0.404176
0.965127
1.63311
2.42343
3.29391
4.01019
2.38605
1.84087
1.21359
0.780222
0.288685
-0.0371732
-0.446186
-0.595412
-0.669963
-0.70892
-0.623698
-0.52347
-0.304233
-0.0402497
0.40743
0.78266
1.36559
2.02307
2.55475
3.19241
1.69978
1.31736
0.991101
0.573254
0.216729
-0.0331084
-0.230327
-0.348727
-0.385392
-0.488245
-0.478559
-0.356259
-0.20914
-0.0046872
0.301067
0.600537
1.06809
1.39293
1.91919
2.34106
1.02251
0.885566
0.577927
0.388046
0.184814
-0.0210687
-0.0905512
-0.17199
-0.205942
-0.284931
-0.266323
-0.271106
-0.0767701
0.0850247
0.259323
0.427356
0.586436
0.919908
1.17003
1.37678
0.354568
0.297468
0.199722
0.143585
0.0631808
0.0247939
-0.0709384
-0.0261374
-0.0343719
-0.0897161
-0.0906691
0.00774238
-0.0226771
0.033439
0.100129
0.0806163
0.188444
0.325634
0.430652
0.467942
6.74129
5.5765
4.15695
2.97247
2.02974
1.11863
0.489613
0.034391
-0.273843
-0.306621
-0.220963
0.0542284
0.588367
1.26046
2.08966
3.10556
4.31857
5.75313
7.17294
8.49227
5.98697
5.05904
3.88412
2.78783
1.9628
1.19452
0.65754
0.207968
-0.0356878
-0.0877108
0.029755
0.318507
0.671086
1.27944
2.04159
2.94983
3.9375
5.10736
6.40407
7.52712
5.24636
4.35889
3.49493
2.62721
1.86943
1.20972
0.715595
0.386297
0.196701
0.108039
0.253921
0.354338
0.78933
1.24806
1.89604
2.6679
3.50045
4.43717
5.50187
6.4898
4.35041
3.7025
3.05182
2.26085
1.60288
1.1241
0.660539
0.419349
0.23916
0.258808
0.283855
0.500029
0.753971
1.09868
1.66972
2.28463
2.96594
3.6885
4.7155
5.36522
3.5031
3.02097
2.37743
1.83251
1.26315
0.965143
0.637499
0.44622
0.290602
0.277795
0.375671
0.44274
0.69882
0.953507
1.40478
1.84623
2.43328
3.04575
3.66721
4.19849
2.54518
2.10586
1.77074
1.34478
0.94255
0.763543
0.491947
0.313306
0.275706
0.18641
0.276033
0.294225
0.495259
0.699414
1.03778
1.35937
1.74626
2.14642
2.60244
3.06544
1.56563
1.29012
1.05844
0.772149
0.597536
0.433255
0.253305
0.178656
0.175449
0.15271
0.153711
0.276669
0.295356
0.47221
0.59289
0.845448
1.19061
1.39692
1.60797
1.82777
0.584383
0.488797
0.352895
0.260336
0.185295
0.0893758
0.0861241
0.107401
0.0785868
0.0585065
0.0664264
0.0410624
0.0543385
0.118538
0.17083
0.249686
0.361299
0.382618
0.549429
0.575881
9.33344
8.03684
6.77707
5.48358
4.46585
3.52288
2.89545
2.3745
2.09737
2.02028
2.10451
2.39284
2.93464
3.59231
4.49147
5.46976
6.7397
8.19277
9.62069
10.9751
8.21715
7.28826
6.02182
4.96744
4.04456
3.27751
2.72462
2.30798
1.99212
1.94511
2.01612
2.33665
2.82246
3.30739
4.10473
4.98212
6.09888
7.24945
8.52949
9.65297
7.10133
6.26406
5.24468
4.29843
3.57521
2.86381
2.42902
2.03353
1.82105
1.80444
1.88467
2.12968
2.46947
2.91558
3.64977
4.36071
5.221
6.21467
7.37756
8.27809
5.91503
5.19965
4.40962
3.71996
3.01768
2.5309
2.10005
1.82956
1.65137
1.61053
1.67767
1.76662
2.11906
2.5245
3.04358
3.63472
4.39813
5.31437
6.08302
6.88766
4.67676
4.09548
3.45093
2.93521
2.38415
2.03206
1.77606
1.55267
1.36834
1.30601
1.37471
1.5099
1.71946
2.00499
2.43422
2.95088
3.49692
4.11422
4.82605
5.34475
3.37618
3.0001
2.60743
2.10184
1.75712
1.50104
1.27668
1.0973
1.06993
0.935754
1.03658
1.0782
1.32255
1.54753
1.80836
2.16257
2.53704
2.93446
3.4539
3.87236
2.04523
1.8218
1.55654
1.24653
1.14163
0.865313
0.803817
0.654917
0.640997
0.588927
0.583655
0.691781
0.802305
0.968621
1.08605
1.30107
1.48818
1.74073
2.20095
2.2857
0.690444
0.613583
0.529272
0.441601
0.374035
0.335989
0.285261
0.254321
0.166245
0.206563
0.2135
0.221775
0.218812
0.2782
0.396593
0.354101
0.507933
0.697634
0.696398
0.775949
11.8615
10.5775
9.25043
8.0208
6.87043
6.01569
5.21437
4.77458
4.50015
4.40138
4.57618
4.79364
5.32555
5.96596
6.86374
7.99979
9.15551
10.5783
12.0803
13.4769
10.4457
9.3089
8.16102
7.11479
6.07797
5.34346
4.77293
4.37973
4.06052
3.99732
4.08767
4.34071
4.81859
5.36757
6.1381
7.03438
8.09887
9.25533
10.6026
11.7925
8.91974
8.06327
7.04661
6.15659
5.3629
4.67031
4.13136
3.81655
3.60135
3.55742
3.57922
3.81746
4.11561
4.64181
5.27899
6.0728
7.01111
7.98505
9.08125
10.0246
7.40665
6.666
5.85249
5.06708
4.45166
3.85514
3.52341
3.23931
3.04752
2.91746
2.96946
3.19292
3.46974
3.90729
4.40915
5.03771
5.76619
6.59033
7.47732
8.28863
5.78968
5.19846
4.63757
3.97857
3.41433
2.99057
2.82345
2.53751
2.44126
2.32762
2.41704
2.53911
2.83514
3.05542
3.48723
4.00002
4.54681
5.14273
5.88621
6.43785
4.14681
3.79204
3.27017
2.85136
2.47901
2.25353
2.05937
1.85679
1.7492
1.71464
1.70517
1.79559
1.97299
2.19805
2.5545
2.83789
3.16147
3.73885
4.19057
4.60582
2.50556
2.27114
1.96085
1.77885
1.51275
1.32904
1.26086
1.0987
1.1283
1.10949
1.01039
1.05685
1.18939
1.26639
1.51647
1.70379
1.9609
2.26106
2.55627
2.75976
0.894747
0.781552
0.735373
0.624684
0.488151
0.468791
0.369793
0.371998
0.400983
0.267324
0.397362
0.34568
0.439034
0.43801
0.536955
0.606458
0.682315
0.705626
0.808424
0.952639
14.0242
12.6829
11.2775
10.0131
8.91714
7.91477
7.2173
6.77366
6.49636
6.34761
6.43053
6.7406
7.29698
7.90073
8.84659
9.92952
11.2173
12.5512
14.1189
15.4503
12.1028
10.9834
9.81031
8.73461
7.76573
7.02134
6.38806
5.92311
5.75656
5.57145
5.71828
5.90216
6.39053
6.99849
7.81077
8.65271
9.72805
10.8791
12.2625
13.3873
10.2815
9.38676
8.37402
7.50575
6.69346
6.02186
5.42137
5.15803
4.90579
4.80816
4.89051
5.0785
5.36214
6.02252
6.65895
7.38725
8.29924
9.26732
10.3747
11.3279
8.47083
7.67838
6.87039
6.0668
5.40547
4.93639
4.53956
4.13392
4.03003
3.97887
4.02929
4.19275
4.46924
4.93079
5.42476
6.02094
6.82263
7.59858
8.53362
9.29594
6.59913
6.03481
5.35576
4.79569
4.25501
3.83024
3.53126
3.31476
3.12467
3.15956
3.18064
3.27466
3.51403
3.8321
4.30102
4.676
5.36298
5.96447
6.66608
7.17919
4.71658
4.23298
3.90826
3.52304
3.06223
2.74874
2.47768
2.35874
2.31569
2.22751
2.2752
2.35947
2.50873
2.75341
3.05198
3.37523
3.88801
4.27163
4.76659
5.16131
2.85784
2.59405
2.31041
2.07944
1.87026
1.65983
1.55789
1.41764
1.37322
1.28505
1.3798
1.39803
1.53943
1.57987
1.80388
2.03464
2.22623
2.61679
2.89966
3.11426
0.953261
0.849171
0.703575
0.662398
0.672601
0.559898
0.562797
0.479242
0.502685
0.492974
0.492316
0.483667
0.520913
0.54697
0.674456
0.76161
0.779627
0.887699
0.932812
1.06461
)
;

boundaryField
{
    hotSide
    {
        type            calculated;
        value           nonuniform List<scalar> 
400
(
1.55065
0.735116
-0.316028
-1.35733
-2.26045
-2.87428
-3.27001
-3.42167
-3.28211
-2.79199
-2.09861
-1.1392
0.0697233
1.66597
3.59712
5.67393
8.14625
10.8042
13.402
15.6385
1.05137
0.0461664