/*--------------------------------*- C++ -*----------------------------------*\
| =========                 |                                                 |
| \\      /  F ield         | OpenFOAM: The Open Source CFD Toolbox           |
|  \\    /   O peration     | Version:  2212                                  |
|   \\  /    A nd           | Website:  www.openfoam.com                      |
|    \\/     M anipulation  |                                                 |
\*---------------------------------------------------------------------------*/
FoamFile
{
    version     2.0;
    format      ascii;
    arch        "LSB;label=32;scalar=64";
    class       volScalarField;
    location    "0";
    object      T;
}
// * * * * * * * * * * * * * * * * * * * * * * * * * * * * * * * * * * * * * //

dimensions      [0 0 0 1 0 0 0];

internalField   nonuniform List<scalar> 
3200
(
345.166
343.591
342.431
341.865
342.063
342.401
343.072
343.702
344.324
344.632
344.738
344.608
344.363
343.893
343.534
343.198
343.003
343.436
344.65
346.21
339.227
337.898
336.9
336.41
336.562
336.848
337.416
337.929
338.436
338.698
338.806
338.669
338.453
338.014
337.703
337.442
337.207
337.589
338.637
339.934
333.251
332.158
331.306
330.886
331.004
331.237
331.716
332.12
332.539
332.767
332.86
332.731
332.534
332.164
331.878
331.679
331.432
331.768
332.658
333.708
327.237
326.373
325.677
325.293
325.42
325.596
325.991
326.31
326.611
326.838
326.874
326.773
326.634
326.306
326.088
325.916
325.698
325.957
326.718
327.514
321.201
320.559
319.993
319.68
319.821
319.938
320.254
320.45
320.661
320.897
320.893
320.842
320.713
320.461
320.297
320.162
319.988
320.161
320.761
321.36
315.157
314.703
314.289
314.072
314.181
314.258
314.478
314.612
314.751
314.955
314.925
314.895
314.793
314.621
314.508
314.398
314.282
314.395
314.813
315.254
309.116
308.841
308.576
308.466
308.511
308.559
308.7
308.773
308.853
308.998
308.953
308.953
308.872
308.79
308.707
308.646
308.582
308.617
308.889
309.152
303.05
302.965
302.874
302.836
302.858
302.86
302.914
302.934
302.963
303.011
303.01
303.008
302.977
302.946
302.911
302.896
302.879
302.88
302.977
303.074
345.434
343.954
342.715
342.253
342.376
342.92
343.506
344.173
344.885
345.262
345.468
345.436
345.015
344.551
344.072
343.587
343.476
343.732
344.859
346.476
339.456
338.226
337.13
336.724
336.842
337.276
337.775
338.336
338.935
339.245
339.392
339.355
338.975
338.581
338.137
337.742
337.627
337.847
338.81
340.178
333.419
332.437
331.489
331.143
331.269
331.612
332.002
332.48
332.985
333.229
333.338
333.285
332.968
332.611
332.251
331.907
331.797
331.98
332.825
333.92
327.37
326.587
325.804
325.493
325.631
325.896
326.224
326.597
326.997
327.207
327.286
327.222
326.994
326.66
326.376
326.129
325.989
326.138
326.83
327.695
321.302
320.703
320.091
319.85
319.972
320.157
320.41
320.698
321.002
321.175
321.222
321.183
321.036
320.753
320.503
320.317
320.206
320.33
320.872
321.52
315.236
314.8
314.384
314.205
314.295
314.42
314.592
314.781
315.005
315.13
315.161
315.149
315.04
314.827
314.64
314.513
314.432
314.53
314.914
315.382
309.149
308.871
308.656
308.54
308.607
308.66
308.755
308.876
309.012
309.086
309.091
309.101
309.055
308.913
308.778
308.739
308.659
308.732
308.952
309.247
303.064
302.974
302.897
302.855
302.872
302.911
302.93
302.974
303.028
303.051
303.046
303.045
303.04
302.984
302.94
302.936
302.901
302.927
302.996
303.098
345.977
344.547
343.432
342.929
343.109
343.679
344.421
345.039
345.738
346.326
346.493
346.472
346.038
345.572
344.958
344.456
344.219
344.543
345.613
347.016
339.906
338.718
337.757
337.328
337.446
337.927
338.56
339.068
339.661
340.132
340.259
340.257
339.847
339.452
338.925
338.484
338.261
338.53
339.453
340.628
333.807
332.825
332.013
331.667
331.736
332.13
332.64
333.072
333.584
333.942
334.047
334.034
333.687
333.336
332.891
332.517
332.32
332.536
333.319
334.275
327.686
326.89
326.268
325.949
325.987
326.322
326.728
327.056
327.491
327.759
327.837
327.834
327.545
327.221
326.881
326.585
326.402
326.582
327.245
327.981
321.542
320.941
320.485
320.231
320.24
320.494
320.804
321.039
321.385
321.581
321.624
321.641
321.405
321.16
320.883
320.652
320.51
320.658
321.181
321.747
315.384
314.983
314.676
314.489
314.474
314.672
314.865
315.037
315.295
315.406
315.431
315.454
315.278
315.126
314.926
314.734
314.634
314.738
315.136
315.525
309.235
309.01
308.834
308.711
308.693
308.822
308.918
309.034
309.213
309.251
309.264
309.272
309.163
309.076
308.956
308.853
308.78
308.841
309.079
309.312
303.092
303.024
302.957
302.91
302.915
302.958
302.983
303.027
303.089
303.095
303.112
303.11
303.067
303.037
303.014
302.968
302.946
302.967
303.049
303.121
346.918
345.464
344.533
344.039
344.117
344.69
345.577
346.224
346.923
347.523
347.727
347.712
347.459
346.788
346.094
345.712
345.307
345.813
346.669
347.906
340.72
339.494
338.711
338.253
338.32
338.786
339.526
340.067
340.65
341.151
341.328
341.315
341.066
340.505
339.873
339.565
339.196
339.636
340.377
341.359
334.495
333.495
332.827
332.423
332.475
332.887
333.467
333.903
334.385
334.787
334.921
334.923
334.685
334.251
333.673
333.427
333.092
333.491
334.113
334.923
328.24
327.46
326.905
326.566
326.618
326.936
327.414
327.731
328.121
328.445
328.542
328.549
328.354
327.995
327.512
327.305
327.04
327.369
327.877
328.525
321.97
321.397
320.966
320.695
320.731
320.996
321.335
321.555
321.881
322.11
322.183
322.195
322.037
321.759
321.367
321.215
321.027
321.269
321.656
322.146
315.69
315.299
315.004
314.773
314.815
315.014
315.24
315.397
315.641
315.807
315.835
315.846
315.718
315.557
315.245
315.153
315.011
315.2
315.453
315.789
309.41
309.187
309.034
308.872
308.905
309.015
309.15
309.264
309.403
309.492
309.513
309.517
309.425
309.351
309.152
309.101
309.002
309.123
309.281
309.464
303.154
303.073
303.031
302.984
302.981
303.027
303.075
303.112
303.146
303.186
303.191
303.187
303.15
303.131
303.063
303.05
303.008
303.053
303.111
303.174
348.11
346.745
345.804
345.371
345.493
346.071
346.765
347.566
348.405
349.012
349.085
349.107
348.986
348.432
347.518
347.089
346.681
347.093
348.042
349.147
341.755
340.634
339.806
339.384
339.508
339.978
340.563
341.228
341.916
342.439
342.479
342.509
342.398
341.911
341.094
340.751
340.391
340.743
341.548
342.427
335.35
334.466
333.759
333.353
333.474
333.853
334.334
334.899
335.442
335.903
335.9
335.931
335.821
335.428
334.72
334.428
334.145
334.403
335.088
335.79
328.93
328.264
327.682
327.296
327.432
327.715
328.109
328.561
328.987
329.367
329.332
329.37
329.255
328.957
328.375
328.142
327.915
328.104
328.662
329.217
322.495
322.016
321.578
321.259
321.358
321.557
321.892
322.217
322.528
322.843
322.786
322.842
322.729
322.496
322.034
321.877
321.696
321.857
322.259
322.701
316.05
315.759
315.442
315.207
315.276
315.418
315.657
315.87
316.109
316.329
316.267
316.32
316.225
316.062
315.731
315.606
315.482
315.596
315.874
316.217
309.622
309.47
309.285
309.147
309.17
309.266
309.416
309.543
309.678
309.819
309.77
309.812
309.739
309.642
309.45
309.37
309.291
309.347
309.525
309.746
303.23
303.177
303.105
303.069
303.074
303.106
303.166
303.201
303.241
303.293
303.274
303.293
303.27
303.23
303.176
303.138
303.116
303.131
303.191
303.267
349.474
348.241
347.23
346.824
346.933
347.506
348.242
349.158
349.997
350.676
350.683
350.688
350.475
349.882
349.131
348.578
348.324
348.574
349.517
350.685
342.925
341.888
341.026
340.654
340.742
341.209
341.831
342.597
343.312
343.881
343.857
343.864
343.682
343.146
342.495
342.017
341.808
341.995
342.832
343.761
336.347
335.531
334.777
334.453
334.512
334.874
335.415
336.042
336.632
337.112
337.097
337.071
336.939
336.438
335.882
335.486
335.336
335.489
336.175
336.913
329.754
329.117
328.495
328.238
328.265
328.533
328.987
329.5
329.962
330.34
330.351
330.306
330.203
329.745
329.317
328.974
328.875
329.007
329.557
330.112
323.144
322.683
322.19
322.002
322.009
322.191
322.549
322.963
323.293
323.581
323.618
323.551
323.483
323.089
322.771
322.512
322.436
322.533
322.946
323.362
316.548
316.242
315.859
315.754
315.726
315.862
316.112
316.415
316.625
316.846
316.881
316.813
316.776
316.483
316.254
316.087
316.01
316.083
316.364
316.667
309.939
309.788
309.535
309.477
309.45
309.537
309.688
309.873
309.974
310.111
310.133
310.073
310.069
309.883
309.777
309.655
309.603
309.657
309.814
310.011
303.336
303.284
303.199
303.181
303.16
303.201
303.244
303.318
303.333
303.383
303.397
303.376
303.375
303.305
303.284
303.238
303.221
303.242
303.285
303.349
351.207
349.908
349.009
348.655
348.753
349.219
350.017
350.873
351.628
352.504
352.571
352.474
352.213
351.624
350.923
350.281
350.2
350.41
351.277
352.429
344.414
343.324
342.536
342.219
342.304
342.699
343.382
344.055
344.711
345.457
345.505
345.376
345.157
344.65
344.055
343.467
343.423
343.571
344.334
345.252
337.605
336.731
336.024
335.755
335.809
336.156
336.723
337.253
337.823
338.431
338.477
338.332
338.143
337.703
337.211
336.702
336.705
336.8
337.439
338.168
330.794
330.091
329.473
329.286
329.324
329.601
330.059
330.462
330.933
331.417
331.452
331.316
331.179
330.803
330.415
329.973
329.989
330.051
330.579
331.168
323.977
323.46
322.936
322.788
322.835
323.027
323.373
323.686
324.038
324.428
324.447
324.36
324.242
323.958
323.643
323.275
323.293
323.352
323.752
324.212
317.149
316.789
316.362
316.291
316.356
316.463
316.687
316.917
317.153
317.439
317.444
317.415
317.324
317.115
316.902
316.624
316.614
316.671
316.946
317.287
310.315
310.099
309.818
309.784
309.836
309.887
310.02
310.156
310.305
310.484
310.458
310.441
310.392
310.29
310.159
309.975
309.975
310.021
310.167
310.375
303.468
303.396
303.297
303.289
303.295
303.312
303.359
303.398
303.462
303.518
303.504
303.506
303.476
303.451
303.409
303.34
303.346
303.354
303.406
303.484
352.965
351.838
350.803
350.554
350.617
351.147
351.726
352.572
353.375
354.173
354.513
354.347
353.959
353.393
352.754
352.265
352.129
352.323
353.177
354.279
345.908
344.991
344.085
343.858
343.901
344.342
344.824
345.519
346.217
346.9
347.158
347.006
346.67
346.171
345.635
345.208
345.079
345.249
345.963
346.879
338.86
338.116
337.33
337.142
337.181
337.525
337.927
338.5
339.056
339.653
339.837
339.711
339.422
339.006
338.557
338.186
338.083
338.225
338.809
339.548
331.798
331.205
330.56
330.421
330.426
330.707
331.021
331.489
331.92
332.404
332.57
332.448
332.214
331.88
331.512
331.2
331.152
331.236
331.704
332.282
324.717
324.275
323.779
323.69
323.7
323.887
324.13
324.497
324.813
325.17
325.326
325.223
325.047
324.782
324.509
324.242
324.211
324.26
324.625
325.055
317.639
317.355
316.965
316.948
316.978
317.083
317.246
317.505
317.721
317.956
318.094
318.009
317.888
317.704
317.522
317.317
317.29
317.324
317.57
317.867
310.59
310.433
310.179
310.188
310.224
310.274
310.362
310.516
310.636
310.797
310.876
310.803
310.744
310.619
310.514
310.395
310.368
310.419
310.533
310.705
303.549
303.487
303.408
303.423
303.424
303.448
303.469
303.519
303.568
303.614
303.652
303.621
303.605
303.556
303.528
303.474
303.475
303.493
303.531
303.587
354.947
353.88
352.863
352.443
352.513
352.968
353.607
354.386
355.103
355.94
356.226
356.163
355.913
355.167
354.708
354.36
354.031
354.325
355.166
356.312
347.637
346.745
345.865
345.504
345.535
345.915
346.447
347.099
347.701
348.381
348.653
348.568
348.334
347.693
347.338
346.98
346.7
346.954
347.678
348.627
340.32
339.587
338.857
338.526
338.56
338.855
339.288
339.809
340.305
340.885
341.129
341.034
340.821
340.268
339.99
339.674
339.452
339.649
340.258
341.038
332.987
332.398
331.808
331.542
331.59
331.776
332.131
332.54
332.932
333.427
333.61
333.527
333.336
332.931
332.671
332.439
332.247
332.409
332.91
333.505
325.652
325.213
324.753
324.557
324.587
324.703
324.992
325.303
325.601
325.968
326.11
326.046
325.902
325.593
325.372
325.225
325.055
325.19
325.57
326.028
318.327
318.022
317.688
317.552
317.556
317.657
317.857
318.074
318.278
318.553
318.64
318.597
318.498
318.286
318.138
318.019
317.872
317.997
318.241
318.567
311.016
310.826
310.618
310.537
310.536
310.613
310.739
310.86
310.977
311.143
311.187
311.158
311.108
310.989
310.889
310.815
310.724
310.807
310.942
311.136
303.687
303.625
303.568
303.524
303.529
303.556
303.606
303.637
303.673
303.724
303.745
303.741
303.725
303.681
303.65
303.625
303.59
303.616
303.669
303.73
356.884
355.913
355.152
354.542
354.375
354.827
355.495
356.185
356.956
357.753
358.021
358.109
357.771
357.12
356.688
356.291
356.026
356.524
357.267
358.357
349.316
348.504
347.824
347.306
347.138
347.518
348.073
348.657
349.294
349.978
350.195
350.259
349.944
349.362
348.998
348.659
348.443
348.878
349.487
350.406
341.73
341.05
340.495
340.057
339.906
340.238
340.65
341.155
341.664
342.228
342.4
342.44
342.167
341.666
341.372
341.097
340.924
341.269
341.767
342.525
334.125
333.594
333.145
332.777
332.665
332.923
333.242
333.675
334.021
334.496
334.687
334.686
334.465
334.032
333.806
333.578
333.434
333.734
334.109
334.714
326.544
326.126
325.793
325.489
325.42
325.581
325.851
326.179
326.429
326.781
326.97
326.939
326.784
326.445
326.264
326.102
325.965
326.235
326.478
326.964
318.963
318.681
318.443
318.206
318.163
318.282
318.484
318.693
318.88
319.127
319.259
319.216
319.127
318.89
318.751
318.634
318.525
318.755
318.889
319.247
311.407
311.235
311.062
310.932
310.913
310.978
311.1
311.227
311.345
311.505
311.566
311.503
311.487
311.346
311.239
311.167
311.11
311.276
311.343
311.561
303.829
303.782
303.709
303.654
303.668
303.678
303.73
303.768
303.804
303.854
303.873
303.855
303.858
303.799
303.761
303.737
303.71
303.781
303.795
303.873
359.051
358.109
357.143
356.633
356.506
356.788
357.391
358.157
358.755
359.473
359.834
359.754
359.593
359.044
358.56
358.307
358.162
358.656
359.498
360.43
351.159
350.36
349.547
349.119
348.967
349.204
349.699
350.354
350.863
351.462
351.742
351.643
351.533
351.03
350.616
350.41
350.26
350.721
351.399
352.185
343.268
342.632
341.91
341.574
341.418
341.626
342.034
342.572
343.009
343.487
343.723
343.608
343.514
343.082
342.754
342.56
342.435
342.836
343.389
344.022
335.399
334.893
334.272
334.042
333.88
334.056
334.381
334.811
335.183
335.55
335.715
335.629
335.564
335.183
334.929
334.784
334.673
334.976
335.419
335.923
327.531
327.14
326.655
326.503
326.374
326.502
326.737
327.081
327.364
327.65
327.753
327.68
327.636
327.328
327.142
327.031
326.941
327.172
327.495
327.877
319.663
319.381
319.052
318.935
318.862
318.928
319.107
319.354
319.522
319.765
319.813
319.763
319.712
319.511
319.392
319.306
319.217
319.394
319.625
319.899
311.805
311.63
311.433
311.379
311.333
311.359
311.468
311.614
311.715
311.884
311.887
311.881
311.825
311.717
311.643
311.611
311.543
311.643
311.789
311.948
303.96
303.894
303.822
303.824
303.803
303.8
303.827
303.883
303.92
303.981
303.979
303.989
303.962
303.926
303.907
303.887
303.871
303.906
303.957
303.999
361.228
360.229
359.31
358.773
358.563
358.71
359.277
359.943
360.585
361.266
361.611
361.514
361.341
360.927
360.618
360.34
360.384
360.768
361.594
362.565
353.037
352.2
351.398
350.945
350.745
350.848
351.321
351.883
352.431
353.009
353.315
353.177
353.045
352.664
352.42
352.153
352.196
352.519
353.211
354.024
344.848
344.169
343.473
343.098
342.965
343.026
343.394
343.856
344.32
344.776
345.08
344.918
344.797
344.476
344.273
344.053
344.066
344.331
344.906
345.593
336.691
336.124
335.575
335.258
335.158
335.205
335.48
335.856
336.231
336.585
336.864
336.698
336.622
336.328
336.16
336.008
335.985
336.178
336.664
337.232
328.527
328.118
327.674
327.414
327.337
327.383
327.586
327.862
328.182
328.435
328.667
328.503
328.461
328.232
328.101
327.994
327.958
328.069
328.493
328.905
320.381
320.085
319.771
319.567
319.542
319.552
319.697
319.903
320.13
320.309
320.49
320.322
320.333
320.153
320.063
319.993
319.973
320.004
320.344
320.621
312.254
312.077
311.878
311.753
311.745
311.738
311.814
311.954
312.096
312.207
312.313
312.195
312.207
312.096
312.053
312.003
311.983
311.993
312.219
312.376
304.099
304.047
303.98
303.944
303.937
303.931
303.955
303.997
304.066
304.088
304.123
304.089
304.089
304.046
304.045
304.024
304.017
304.007
304.106
304.147
363.444
362.46
361.403
360.933
360.793
360.933
361.207
361.867
362.421
362.923
363.367
363.303
363.122
362.811
362.646
362.356
362.434
362.841
363.84
364.898
354.979
354.113
353.19
352.8
352.648
352.753
352.998
353.541
354.01
354.43
354.805
354.738
354.57
354.308
354.134
353.897
353.952
354.287
355.163
356.056
346.502
345.775
345.011
344.654
344.536
344.594
344.804
345.237
345.647
345.99
346.284
346.218
346.076
345.838
345.684
345.52
345.538
345.802
346.562
347.3
338.037
337.443
336.836
336.544
336.416
336.465
336.634
336.992
337.314
337.569
337.808
337.75
337.66
337.454
337.291
337.201
337.199
337.397
338.031
338.622
329.59
329.132
328.657
328.45
328.306
328.355
328.494
328.767
328.99
329.205
329.359
329.325
329.26
329.099
328.947
328.899
328.883
329.037
329.545
330.003
321.151
320.82
320.477
320.341
320.212
320.254
320.354
320.551
320.701
320.845
320.943
320.951
320.896
320.773
320.657
320.638
320.613
320.717
321.072
321.422
312.709
312.511
312.29
312.219
312.132
312.17
312.215
312.335
312.427
312.493
312.58
312.58
312.542
312.485
312.385
312.396
312.372
312.45
312.633
312.849
304.255
304.187
304.105
304.083
304.062
304.084
304.094
304.136
304.154
304.172
304.219
304.224
304.206
304.189
304.161
304.156
304.15
304.166
304.232
304.303
365.669
364.68
363.657
363.089
362.892
363.007
363.264
363.852
364.325
364.72
365.025
364.978
364.93
364.699
364.511
364.317
364.519
365.078
365.838
366.883
356.869
356.017
355.146
354.653
354.467
354.546
354.768
355.254
355.653
356.012
356.253
356.179
356.122
355.937
355.772
355.587
355.752
356.231
356.894
357.771
348.106
347.373
346.657
346.236
346.066
346.127
346.321
346.702
347.009
347.326
347.531
347.442
347.417
347.215
347.08
346.926
347.064
347.46
347.994
348.759
339.367
338.744
338.181
337.836
337.695
337.731
337.888
338.167
338.407
338.689
338.866
338.756
338.756
338.571
338.461
338.316
338.42
338.742
339.208
339.803
330.628
330.131
329.702
329.44
329.32
329.344
329.464
329.67
329.834
330.055
330.229
330.114
330.12
329.959
329.863
329.755
329.831
330.074
330.448
330.889
321.887
321.529
321.213
321.045
320.946
320.974
321.038
321.198
321.291
321.442
321.607
321.497
321.515
321.377
321.313
321.225
321.285
321.466
321.724
322.028
313.147
312.907
312.749
312.641
312.57
312.614
312.637
312.73
312.769
312.85
312.982
312.9
312.911
312.831
312.787
312.72
312.772
312.889
313.029
313.21
304.406
304.312
304.272
304.227
304.205
304.226
304.241
304.264
304.278
304.302
304.357
304.32
304.324
304.292
304.276
304.265
304.279
304.321
304.363
304.431
367.894
366.907
365.972
365.343
364.987
364.996
365.271
365.568
366.091
366.446
366.767
366.683
366.779
366.5
366.333
366.39
366.596
367.163
367.917
369.011
358.821
357.953
357.141
356.602
356.253
356.282
356.511
356.758
357.188
357.453
357.754
357.638
357.733
357.482
357.332
357.372
357.535
358.041
358.679
359.59
349.755
349.013
348.301
347.848
347.549
347.59
347.756
347.992
348.33
348.527
348.806
348.665
348.788
348.538
348.409
348.431
348.572
349.001
349.506
350.278
340.704
340.076
339.497
339.121
338.897
338.926
339.046
339.244
339.494
339.643
339.895
339.736
339.878
339.665
339.543
339.531
339.646
339.995
340.424
341.055
331.674
331.136
330.722
330.419
330.251
330.281
330.357
330.518
330.72
330.807
331.024
330.874
330.994
330.827
330.704
330.68
330.799
331.049
331.386
331.881
322.624
322.22
321.941
321.722
321.611
321.638
321.659
321.794
321.949
322.008
322.164
322.044
322.119
321.996
321.892
321.9
321.983
322.145
322.409
322.748
313.591
313.346
313.168
313.038
312.977
312.988
313.002
313.083
313.183
313.21
313.321
313.236
313.277
313.205
313.127
313.142
313.201
313.288
313.435
313.654
304.558
304.47
304.417
304.365
304.343
304.355
304.35
304.38
304.429
304.424
304.46
304.438
304.443
304.432
304.402
304.414
304.427
304.451
304.495
304.576
370.02
369.164
368.254
367.555
367.276
366.981
367.188
367.584
367.895
368.186
368.418
368.421
368.533
368.437
368.34
368.407
368.743
369.336
370.151
370.994
360.645
359.885
359.124
358.497
358.23
357.943
358.125
358.475
358.749
358.954
359.191
359.153
359.225
359.121
359.034
359.112
359.403
359.905
360.596
361.313
351.272
350.626
349.989
349.45
349.219
348.96
349.126
349.442
349.653
349.789
350.017
349.946
349.99
349.898
349.821
349.881
350.143
350.542
351.115
351.727
341.907
341.408
340.873
340.423
340.217
340.018
340.14
340.418
340.586
340.675
340.866
340.797
340.842
340.73
340.669
340.711
340.968
341.253
341.718
342.211
332.566
332.184
331.786
331.408
331.26
331.11
331.189
331.418
331.534
331.592
331.759
331.685
331.747
331.612
331.591
331.609
331.815
332.019
332.396
332.761
323.26
322.998
322.691
322.43
322.331
322.224
322.259
322.427
322.507
322.547
322.678
322.612
322.669
322.559
322.556
322.551
322.709
322.86
323.118
323.351
313.974
313.817
313.606
313.478
313.405
313.321
313.338
313.47
313.503
313.53
313.612
313.564
313.613
313.541
313.522
313.528
313.621
313.712
313.869
314.002
304.691
304.621
304.567
304.516
304.496
304.467
304.472
304.516
304.514
304.538
304.556
304.548
304.564
304.544
304.521
304.532
304.57
304.602
304.653
304.694
372.264
371.321
370.398
369.693
369.348
369.157
369.099
369.371
369.708
369.955
370.125
370.202
370.245
370.258
370.404
370.445
370.833
371.495
372.351
373.243
362.545
361.763
360.948
360.35
360.053
359.84
359.804
360.019
360.31
360.487
360.682
360.694
360.716
360.72
360.852
360.865
361.208
361.769
362.505
363.231
352.855
352.221
351.529
351.023
350.775
350.588
350.548
350.72
350.953
351.099
351.289
351.244
351.241
351.237
351.37
351.358
351.648
352.147
352.741
353.333
343.213
342.681
342.138
341.716
341.504
341.348
341.333
341.447
341.619
341.757
341.908
341.851
341.841
341.824
341.927
341.916
342.178
342.577
343.035
343.527
333.593
333.165
332.773
332.423
332.264
332.129
332.131
332.211
332.33
332.442
332.573
332.513
332.507
332.466
332.558
332.553
332.766
333.062
333.406
333.788
323.99
323.692
323.411
323.155
323.031
322.937
322.95
322.991
323.066
323.168
323.253
323.21
323.187
323.174
323.247
323.243
323.394
323.594
323.833
324.111
314.39
314.23
314.073
313.888
313.816
313.76
313.768
313.799
313.854
313.91
313.969
313.912
313.917
313.896
313.955
313.945
314.028
314.154
314.293
314.461
304.814
304.771
304.722
304.663
304.645
304.611
304.622
304.624
304.641
304.662
304.68
304.656
304.662
304.657
304.673
304.675
304.698
304.738
304.798
304.839
374.282
373.334
372.485
371.751
371.304
371.151
371.127
371.209
371.462
371.794
371.815
371.866
371.926
372.061
372.303
372.366
372.832
373.52
374.406
375.379
364.268
363.467
362.73
362.094
361.697
361.555
361.54
361.587
361.815
362.077
362.092
362.127
362.173
362.269
362.471
362.539
362.914
363.493
364.264
365.084
354.328
353.641
353.007
352.495
352.142
351.997
351.973
352.031
352.236
352.428
352.438
352.454
352.51
352.546
352.76
352.786
353.085
353.559
354.211
354.895
344.413
343.84
343.338
342.927
342.628
342.483
342.463
342.526
342.688
342.844
342.854
342.85
342.903
342.913
343.104
343.102
343.314
343.7
344.257
344.79
334.53
334.065
333.686
333.375
333.134
333.02
333.005
333.057
333.188
333.295
333.285
333.281
333.329
333.317
333.471
333.449
333.622
333.941
334.358
334.771
324.664
324.341
324.052
323.84
323.654
323.584
323.571
323.596
323.711
323.793
323.744
323.748
323.761
323.773
323.898
323.855
323.99
324.229
324.533
324.802
314.812
314.62
314.447
314.3
314.187
314.153
314.142
314.18
314.252
314.293
314.247
314.226
314.246
314.25
314.334
314.326
314.394
314.549
314.724
314.854
304.963
304.9
304.839
304.784
304.754
304.739
304.738
304.76
304.775
304.78
304.779
304.766
304.775
304.766
304.799
304.806
304.816
304.878
304.927
304.975
376.206
375.178
374.335
373.651
373.174
372.952
372.93
372.96
373.153
373.323
373.434
373.491
373.581
373.805
373.936
374.182
374.7
375.308
376.151
377.189
365.902
365.039
364.312
363.689
363.284
363.078
363.054
363.076
363.26
363.379
363.474
363.483
363.566
363.751
363.891
364.067
364.506
365.037
365.745
366.632
355.666
354.945
354.316
353.791
353.455
353.298
353.246
353.278
353.411
353.522
353.57
353.558
353.639
353.769
353.947
354.034
354.412
354.88
355.47
356.187
345.496
344.903
344.371
343.951
343.679
343.558
343.495
343.518
343.631
343.7
343.741
343.719
343.777
343.882
344.047
344.086
344.41
344.789
345.291
345.84
335.362
334.919
334.488
334.16
333.966
333.876
333.793
333.816
333.907
333.955
333.967
333.962
333.983
334.069
334.203
334.211
334.464
334.797
335.156
335.567
325.249
324.94
324.627
324.405
324.252
324.196
324.137
324.149
324.221
324.234
324.251
324.245
324.224
324.294
324.4
324.409
324.583
324.83
325.079
325.375
315.16
314.954
314.769
314.653
314.557
314.536
314.489
314.494
314.551
314.544
314.569
314.545
314.515
314.552
314.658
314.642
314.766
314.906
315.048
315.243
305.081
305.012
304.939
304.908
304.887
304.871
304.853
304.862
304.876
304.876
304.883
304.873
304.869
304.879
304.918
304.896
304.948
304.998
305.032
305.109
377.661
376.737
375.804
375.162
374.475
374.273
374.303
374.239
374.339
374.455
374.493
374.749
374.89
375.075
375.361
375.562
376.122
376.757
377.612
378.622
367.101
366.311
365.502
364.935
364.35
364.175
364.198
364.12
364.218
364.296
364.304
364.531
364.65
364.805
365.032
365.201
365.688
366.239
366.942
367.812
356.641
355.972
355.298
354.813
354.34
354.189
354.179
354.116
354.188
354.257
354.232
354.436
354.517
354.65
354.818
354.963
355.389
355.86
356.432
357.147
346.259
345.695
345.174
344.783
344.396
344.264
344.23
344.181
344.241
344.295
344.285
344.42
344.495
344.59
344.73
344.828
345.177
345.589
346.014
346.591
335.926
335.483
335.094
334.784
334.505
334.375
334.338
334.312
334.334
334.408
334.394
334.49
334.54
334.616
334.727
334.752
335.037
335.387
335.717
336.13
325.657
325.322
325.048
324.851
324.654
324.56
324.502
324.499
324.477
324.57
324.538
324.618
324.637
324.693
324.775
324.762
324.978
325.256
325.477
325.753
315.405
315.198
315.028
314.92
314.805
314.738
314.693
314.721
314.686
314.744
314.707
314.789
314.789
314.821
314.859
314.846
314.986
315.158
315.293
315.451
305.159
305.088
305.034
304.999
304.957
304.943
304.923
304.938
304.908
304.945
304.933
304.954
304.958
304.965
304.962
304.972
305.022
305.077
305.127
305.173
)
;

boundaryField
{
    hotSide
    {
        type            fixedGradient;
        gradient        nonuniform List<scalar> 
400
(
471.353
474.62
481.64
492.326
506.323
523.113
542.136
562.883
584.923
607.915
631.594
655.76
680.259
704.973
729.813
754.706
779.597
804.445
829.222
853.916
448.444
451.944
459.462
470.892
485.804
503.589
523.61
545.301
568.204
591.965
616.317
641.063
666.054
691.181
716.363
741.538
766.656
791.683
816.596
841.391
435.279
439.321
447.34
459.22
474.537
492.688
513.041
535.031
558.194
582.172
606.695
631.561
656.625
681.781
706.954
732.087
757.14
782.085
806.908
831.61
431.279
436.148
444.686
456.776
472.062
490.031
510.128
531.832
554.7
578.379
602.592
627.136
651.863
676.669
701.48
726.25
750.946
775.551
800.059
824.476
434.034
439.877
448.988
461.249
476.372
493.948
513.515
534.622
556.861
579.893
603.449
627.327
651.381
675.514
699.661
723.785
747.868
771.902
795.89
819.845
440.819
447.676
457.439
469.983
485.061
502.333
521.411
541.899
563.426
585.677
608.397
631.397
654.548
677.77
701.019
724.277
747.543
770.822
794.128
817.476
449.447
457.303
467.796
480.786
496.041
513.252
532.064
552.106
573.029
594.533
616.382
638.414
660.533
682.694
704.89
727.134
749.445
771.849
794.365
817.013
458.314
467.11
478.376
491.958
507.617
525.043
543.877
563.74
584.27
605.167
626.21
647.276
668.32
689.357
710.43
731.595
752.9
774.386
796.083
818.008
466.216
475.832
487.843
502.083
518.302
536.17
555.295
575.253
595.638
616.12
636.489
656.668
676.686
696.637
716.63
736.766
757.124
777.759
798.702
819.97
472.24
482.462
495.075
509.906
526.697
545.093
564.66
584.908
605.361
625.638
645.529
665.008
684.192
703.256
722.377
741.697
761.315
781.292
801.66
822.428
475.759
486.272
499.21
514.402
531.581
550.377
570.323
590.879
611.506
631.78
651.481
670.622
689.378
707.983
726.654
745.554
764.793
784.434
804.506
825.017
476.512
486.932
499.829
515.033
532.272
551.168
571.242
591.949
612.745
633.198
653.083
672.405
691.328
710.082
728.878
747.881
767.2
786.902
807.018
827.558
474.689
484.633
497.135
512.019
529.01
547.728
567.706
588.428
609.394
630.203
650.625
670.614
690.264
709.738
729.204
748.804
768.64
788.781
809.263
830.105
470.961
480.121
491.972
506.344
522.952
541.416
561.28
582.063
603.308
624.648
645.839
666.778
687.475
708.008
728.484
749.005
769.657
790.503
811.587
832.936
466.482
474.652
485.734
499.565
515.848
534.181
554.099
575.124
596.819
618.824
640.884
662.851
684.666
706.342
727.925
749.477
771.061
792.731
814.53
836.489
462.934
470.007
480.306
493.68
509.798
528.201
548.375
569.816
592.075
614.789
637.689
660.602
683.431
706.141
728.74
751.255
773.726
796.194
818.697
841.269
462.62
468.59
478.153
491.164
507.231
525.81
546.309
568.177
590.946
614.248
637.812
661.453
685.056
708.564
731.957
755.24
778.433
801.565
824.664
847.76
468.38
473.379
482.261
494.884
510.8
529.384
549.982
572.009
594.989
618.555
642.44
666.46
690.493
714.468
738.348
762.123
785.795
809.38
832.897
856.371
482.754
487.067
495.3
507.326
522.696
540.784
560.94
582.585
605.254
628.59
652.331
676.291
700.341
724.399
748.414
772.36
796.227
820.016
843.735
867.402
506.468
510.417
518.026
529.189
543.536
560.538
579.624
600.276
622.059
644.634
667.74
691.187
714.836
738.592
762.389
786.186
809.958
833.693
857.389
881.051
)
;
    }
    coldSide
    {
        type            mixed;
        refValue        uniform 300;
        refGradient     uniform 0;
        valueFraction   uniform 0.991591;
        source          uniform 0;
        value           nonuniform List<scalar> 
400
(
300.026
300.026
300.026
300.027
300.027
300.028
300.029
300.03
300.031
300.032
300.033
300.034
300.036
300.037
300.038
300.039
300.04
300.042
300.043
300.043
300.025
300.025
300.025
300.026
300.027
300.028
300.029
300.029
300.03
300.032
300.033
300.034
300.035
300.036
300.038
300.039
300.04
300.041
300.042
300.043