/*--------------------------------*- C++ -*----------------------------------*\
| =========                 |                                                 |
| \\      /  F ield         | OpenFOAM: The Open Source CFD Toolbox           |
|  \\    /   O peration     | Version:  2212                                  |
|   \\  /    A nd           | Website:  www.openfoam.com                      |
|    \\/     M anipulation  |                                                 |
\*---------------------------------------------------------------------------*/
FoamFile
{
    version     2.0;
    format      ascii;
    arch        "LSB;label=32;scalar=64";
    class       volScalarField;
    location    "0";
    object      T;
}
// * * * * * * * * * * * * * * * * * * * * * * * * * * * * * * * * * * * * * //

dimensions      [0 0 0 1 0 0 0];

internalField   nonuniform List<scalar> 
3200
(
348.526
347.52
346.968
346.887
347.082
347.716
348.443
349.014
349.439
349.928
349.74
349.472
348.856
348.074
346.874
345.986
345.109
344.935
345.209
345.787
341.914
341.123
340.645
340.594
340.774
341.344
341.968
342.489
342.829
343.258
343.115
342.891
342.372
341.72
340.649
339.888
339.14
338.967
339.191
339.663
335.38
334.748
334.343
334.322
334.469
334.992
335.509
335.931
336.205
336.59
336.497
336.324
335.902
335.323
334.427
333.783
333.156
333.021
333.165
333.532
328.883
328.394
328.085
328.069
328.182
328.657
329.073
329.39
329.615
329.95
329.87
329.76
329.421
328.911
328.163
327.672
327.139
327.046
327.15
327.424
322.436
322.054
321.828
321.813
321.918
322.312
322.617
322.869
323.023
323.325
323.257
323.177
322.909
322.464
321.907
321.554
321.125
321.081
321.137
321.321
316.016
315.737
315.601
315.573
315.665
315.97
316.155
316.344
316.441
316.673
316.629
316.561
316.391
316.044
315.677
315.387
315.114
315.093
315.126
315.225
309.598
309.451
309.381
309.352
309.427
309.61
309.703
309.821
309.861
310.023
309.977
309.964
309.856
309.65
309.426
309.232
309.08
309.083
309.107
309.153
303.228
303.163
303.149
303.134
303.166
303.232
303.262
303.295
303.307
303.352
303.34
303.345
303.305
303.245
303.159
303.102
303.033
303.057
303.053
303.076
348.537
347.541
347.007
346.942
347.189
347.878
348.702
349.248
349.885
350.267
350.192
349.892
349.206
348.289
347.209
346.122
345.288
344.864
345.182
345.895
341.936
341.135
340.691
340.653
340.856
341.481
342.205
342.642
343.208
343.558
343.488
343.266
342.665
341.907
340.937
340.026
339.276
338.927
339.176
339.764
335.403
334.749
334.398
334.36
334.549
335.128
335.717
336.051
336.545
336.865
336.775
336.658
336.113
335.503
334.657
333.908
333.265
332.977
333.179
333.632
328.91
328.398
328.112
328.095
328.262
328.746
329.225
329.464
329.891
330.186
330.073
330.006
329.567
329.084
328.368
327.771
327.233
327.027
327.159
327.537
322.465
322.073
321.859
321.846
321.974
322.38
322.736
322.894
323.255
323.485
323.392
323.347
323
322.642
322.089
321.612
321.214
321.063
321.145
321.44
316.035
315.754
315.618
315.596
315.687
316.008
316.231
316.357
316.608
316.787
316.71
316.666
316.441
316.18
315.796
315.434
315.176
315.059
315.104
315.34
309.64
309.442
309.375
309.37
309.408
309.622
309.745
309.81
309.965
310.073
310.034
309.998
309.885
309.712
309.486
309.259
309.128
309.04
309.062
309.229
303.235
303.157
303.142
303.135
303.155
303.227
303.265
303.293
303.342
303.371
303.359
303.353
303.311
303.26
303.177
303.099
303.062
303.021
303.033
303.096
348.687
347.648
347.183
347.063
347.498
348.17
349.127
349.696
350.409
350.835
350.83
350.492
349.771
348.831
347.603
346.535
345.529
345.196
345.412
346.221
342.084
341.247
340.851
340.756
341.135
341.755
342.564
343.039
343.685
344.064
344.058
343.766
343.145
342.341
341.298
340.382
339.518
339.23
339.417
340.072
335.561
334.875
334.524
334.478
334.778
335.341
335.993
336.393
336.954
337.292
337.281
337.044
336.523
335.863
334.982
334.227
333.47
333.251
333.382
333.969
329.075
328.481
328.241
328.215
328.464
328.928
329.446
329.775
330.237
330.499
330.507
330.323
329.907
329.358
328.676
328.036
327.403
327.23
327.344
327.828
322.588
322.104
321.973
321.939
322.145
322.532
322.904
323.155
323.522
323.725
323.736
323.598
323.287
322.847
322.326
321.844
321.337
321.182
321.283
321.669
316.133
315.768
315.698
315.676
315.81
316.118
316.358
316.543
316.803
316.935
316.966
316.861
316.65
316.336
315.964
315.638
315.277
315.122
315.225
315.502
309.679
309.454
309.439
309.433
309.492
309.694
309.818
309.933
310.086
310.155
310.199
310.13
310.009
309.82
309.594
309.397
309.197
309.074
309.151
309.311
303.24
303.166
303.167
303.163
303.192
303.247
303.287
303.333
303.371
303.403
303.413
303.388
303.358
303.294
303.213
303.157
303.085
303.034
303.068
303.124
348.793
347.927
347.441
347.48
347.854
348.657
349.606
350.308
351.124
351.544
351.791
351.35
350.598
349.556
348.341
347.028
346.086
345.751
345.956
346.629
342.201
341.486
341.08
341.118
341.452
342.154
342.991
343.58
344.323
344.664
344.885
344.513
343.876
342.968
341.939
340.8
339.987
339.698
339.896
340.437
335.676
335.082
334.724
334.762
335.065
335.667
336.378
336.869
337.531
337.791
337.984
337.688
337.134
336.399
335.529
334.572
333.868
333.611
333.794
334.222
329.175
328.692
328.409
328.441
328.682
329.189
329.77
330.165
330.722
330.913
331.065
330.846
330.391
329.808
329.131
328.345
327.733
327.521
327.688
328.012
322.692
322.291
322.077
322.12
322.31
322.712
323.151
323.457
323.901
324.013
324.166
324.001
323.632
323.201
322.695
322.069
321.575
321.428
321.568
321.784
316.219
315.927
315.758
315.819
315.943
316.226
316.544
316.754
317.079
317.154
317.277
317.156
316.882
316.587
316.232
315.783
315.417
315.308
315.418
315.576
309.734
309.567
309.449
309.488
309.569
309.748
309.934
310.048
310.257
310.304
310.391
310.316
310.147
309.968
309.764
309.494
309.268
309.199
309.267
309.368
303.271
303.196
303.167
303.187
303.211
303.275
303.328
303.365
303.435
303.447
303.483
303.465
303.405
303.335
303.269
303.189
303.106
303.092
303.111
303.147
349.223
348.326
347.832
347.9
348.387
349.139
350.115
351.041
351.883
352.475
352.573
352.314
351.621
350.368
349.085
347.782
346.883
346.482
346.594
347.114
342.557
341.833
341.409
341.469
341.904
342.555
343.398
344.214
344.949
345.456
345.546
345.345
344.744
343.687
342.554
341.458
340.694
340.326
340.46
340.861
335.937
335.376
335.013
335.041
335.431
336.004
336.688
337.386
338.04
338.455
338.533
338.374
337.888
337.005
336.037
335.141
334.457
334.165
334.288
334.602
329.366
328.933
328.635
328.634
328.978
329.469
329.993
330.578
331.13
331.459
331.54
331.421
331.024
330.302
329.514
328.816
328.227
327.988
328.085
328.328
322.811
322.502
322.265
322.249
322.531
322.909
323.308
323.757
324.206
324.458
324.547
324.445
324.153
323.606
322.966
322.454
321.981
321.784
321.858
322.054
316.298
316.076
315.913
315.897
316.088
316.367
316.648
316.972
317.284
317.466
317.534
317.471
317.246
316.886
316.408
316.056
315.689
315.556
315.607
315.766
309.788
309.648
309.569
309.548
309.657
309.832
309.999
310.2
310.377
310.489
310.537
310.484
310.36
310.136
309.843
309.65
309.412
309.338
309.366
309.473
303.28
303.237
303.207
303.196
303.233
303.293
303.344
303.427
303.479
303.523
303.535
303.504
303.473
303.39
303.279
303.241
303.154
303.128
303.138
303.171
349.735
348.895
348.428
348.493
348.961
349.842
350.794
351.922
352.739
353.489
353.631
353.372
352.55
351.212
350.027
348.742
347.662
347.181
347.34
347.799
342.982
342.31
341.932
341.99
342.395
343.139
344.015
344.974
345.675
346.341
346.483
346.272
345.579
344.381
343.394
342.296
341.354
340.95
341.08
341.42
336.285
335.746
335.455
335.497
335.846
336.475
337.244
338.038
338.628
339.185
339.319
339.15
338.564
337.554
336.777
335.842
335.03
334.7
334.809
335.057
329.641
329.217
329.005
329.033
329.3
329.833
330.489
331.125
331.583
332.024
332.184
332.044
331.535
330.737
330.124
329.373
328.693
328.413
328.519
328.699
323.026
322.704
322.562
322.565
322.793
323.203
323.739
324.214
324.557
324.877
325.057
324.934
324.531
323.917
323.459
322.839
322.321
322.102
322.22
322.334
316.443
316.209
316.11
316.105
316.275
316.594
316.986
317.308
317.54
317.756
317.915
317.813
317.532
317.09
316.776
316.325
315.961
315.796
315.883
315.981
309.863
309.727
309.686
309.646
309.783
309.976
310.218
310.402
310.537
310.659
310.772
310.689
310.53
310.273
310.082
309.806
309.587
309.483
309.537
309.606
303.3
303.259
303.249
303.229
303.284
303.332
303.425
303.488
303.528
303.566
303.605
303.576
303.529
303.449
303.382
303.281
303.222
303.187
303.196
303.219
350.499
349.658
349.172
349.264
349.744
350.743
351.658
352.79
353.769
354.533
354.732
354.313
353.489
352.254
350.933
349.668
348.479
348.123
348.215
348.53
343.667
342.962
342.602
342.648
343.095
343.926
344.747
345.739
346.567
347.255
347.407
347.061
346.375
345.305
344.19
343.101
342.083
341.737
341.823
342.078
336.879
336.299
336.041
336.049
336.46
337.142
337.854
338.678
339.375
339.984
340.098
339.84
339.246
338.358
337.444
336.51
335.647
335.334
335.415
335.621
330.133
329.682
329.498
329.455
329.821
330.368
330.974
331.61
332.192
332.744
332.82
332.617
332.105
331.402
330.662
329.901
329.193
328.918
329.004
329.157
323.43
323.085
322.966
322.892
323.196
323.626
324.109
324.57
325.024
325.496
325.547
325.37
324.989
324.438
323.877
323.283
322.734
322.517
322.581
322.694
316.707
316.487
316.421
316.353
316.566
316.881
317.246
317.559
317.877
318.229
318.26
318.137
317.866
317.468
317.083
316.634
316.25
316.121
316.128
316.243
310.016
309.896
309.853
309.818
309.954
310.139
310.364
310.544
310.743
310.949
310.963
310.899
310.732
310.502
310.27
309.991
309.751
309.692
309.677
309.759
303.345
303.321
303.294
303.296
303.332
303.401
303.474
303.531
303.592
303.674
303.675
303.655
303.599
303.527
303.448
303.344
303.276
303.246
303.248
303.273
351.225
350.479
349.902
350.056
350.687
351.5
352.426
353.706
354.734
355.564
355.623
355.323
354.445
353.309
351.944
350.617
349.577
349.055
349.058
349.445
344.293
343.684
343.173
343.309
343.901
344.579
345.395
346.528
347.399
348.142
348.196
347.941
347.168
346.244
345.051
343.913
342.994
342.548
342.563
342.863
337.418
336.92
336.481
336.61
337.101
337.685
338.393
339.333
340.077
340.725
340.784
340.575
339.915
339.144
338.162
337.172
336.42
336.025
336.055
336.27
330.553
330.186
329.824
329.933
330.337
330.815
331.403
332.149
332.774
333.321
333.348
333.219
332.652
332.032
331.255
330.436
329.825
329.484
329.546
329.708
323.724
323.471
323.196
323.281
323.593
323.956
324.421
324.985
325.49
325.926
325.947
325.848
325.419
324.923
324.329
323.688
323.217
322.931
323.004
323.121
316.914
316.772
316.562
316.645
316.835
317.112
317.46
317.83
318.201
318.538
318.539
318.483
318.165
317.822
317.404
316.935
316.609
316.388
316.442
316.541
310.136
310.073
309.942
310.015
310.104
310.292
310.512
310.699
310.93
311.145
311.125
311.092
310.917
310.703
310.452
310.183
309.995
309.845
309.875
309.947
303.392
303.377
303.331
303.365
303.394
303.454
303.533
303.58
303.663
303.744
303.73
303.72
303.666
303.584
303.498
303.419
303.35
303.301
303.316
303.334
352.106
351.346
350.802
351.061
351.616
352.411
353.424
354.545
355.529
356.314
356.674
356.349
355.382
354.33
352.916
351.603
350.603
350.103
350.13
350.527
345.062
344.404
343.94
344.197
344.698
345.369
346.278
347.271
348.12
348.8
349.111
348.843
348.011
347.089
345.868
344.766
343.872
343.435
343.458
343.81
338.082
337.531
337.143
337.374
337.771
338.358
339.14
340.007
340.714
341.282
341.565
341.339
340.662
339.835
338.82
337.924
337.159
336.757
336.793
337.092
331.136
330.716
330.374
330.579
330.869
331.367
332.024
332.743
333.307
333.778
334.005
333.848
333.291
332.558
331.757
331.031
330.41
330.075
330.11
330.376
324.194
323.903
323.621
323.774
324.012
324.384
324.914
325.484
325.899
326.27
326.449
326.34
325.913
325.304
324.695
324.129
323.668
323.407
323.411
323.667
317.287
317.087
316.872
316.969
317.158
317.41
317.799
318.198
318.514
318.775
318.885
318.843
318.52
318.075
317.627
317.236
316.924
316.747
316.72
316.909
310.373
310.269
310.141
310.178
310.31
310.445
310.678
310.924
311.14
311.289
311.333
311.336
311.109
310.842
310.575
310.362
310.174
310.061
310.042
310.156
303.479
303.439
303.398
303.409
303.449
303.499
303.575
303.657
303.729
303.784
303.785
303.805
303.718
303.627
303.545
303.476
303.421
303.382
303.368
303.403
353.015
352.223
351.763
351.931
352.378
353.132
354.218
355.385
356.456
357.123
357.458
357.309
356.34
355.184
353.797
352.537
351.591
351.08
351.087
351.426
345.849
345.168
344.778
344.956
345.322
346.02
346.935
347.993
348.937
349.487
349.806
349.681
348.818
347.823
346.63
345.545
344.722
344.298
344.299
344.559
338.746
338.163
337.817
338.031
338.284
338.919
339.691
340.622
341.411
341.837
342.144
342.06
341.306
340.47
339.461
338.557
337.868
337.529
337.504
337.7
331.68
331.22
330.891
331.093
331.275
331.834
332.467
333.218
333.872
334.216
334.481
334.436
333.807
333.115
332.313
331.573
331.012
330.738
330.709
330.85
324.626
324.274
324.022
324.168
324.283
324.741
325.256
325.82
326.349
326.618
326.841
326.805
326.321
325.743
325.152
324.592
324.128
323.925
323.925
323.992
317.565
317.346
317.167
317.257
317.339
317.666
318.042
318.432
318.826
319.025
319.185
319.163
318.83
318.395
317.979
317.594
317.239
317.083
317.112
317.15
310.544
310.41
310.31
310.372
310.402
310.606
310.836
311.064
311.301
311.438
311.517
311.525
311.329
311.039
310.799
310.58
310.361
310.247
310.291
310.315
303.526
303.48
303.464
303.476
303.486
303.558
303.629
303.721
303.789
303.838
303.85
303.868
303.806
303.69
303.624
303.553
303.477
303.439
303.453
303.46
353.789
353.099
352.724
352.827
353.301
353.993
355.05
356.138
357.176
357.793
358.219
357.922
357.135
356.073
354.725
353.576
352.547
352.193
352.255
352.619
346.498
345.927
345.615
345.738
346.161
346.739
347.687
348.661
349.539
350.033
350.438
350.202
349.505
348.605
347.437
346.484
345.571
345.264
345.326
345.617
339.281
338.791
338.544
338.651
339.023
339.499
340.33
341.17
341.908
342.304
342.667
342.502
341.904
341.135
340.162
339.363
338.597
338.313
338.399
338.631
332.088
331.71
331.506
331.586
331.904
332.278
332.988
333.668
334.283
334.589
334.917
334.818
334.319
333.679
332.872
332.217
331.599
331.351
331.449
331.625
324.937
324.665
324.473
324.549
324.804
325.123
325.656
326.182
326.666
326.871
327.157
327.116
326.72
326.214
325.603
325.089
324.581
324.392
324.486
324.604
317.813
317.628
317.483
317.526
317.724
317.959
318.325
318.692
319.054
319.189
319.419
319.395
319.104
318.738
318.305
317.94
317.586
317.447
317.476
317.584
310.703
310.589
310.48
310.536
310.642
310.768
310.998
311.213
311.446
311.527
311.674
311.642
311.468
311.25
311.001
310.783
310.569
310.478
310.501
310.569
303.598
303.55
303.517
303.541
303.56
303.603
303.686
303.751
303.837
303.86
303.915
303.902
303.836
303.77
303.7
303.608
303.538
303.51
303.52
303.542
354.667
353.996
353.668
353.766
354.088
354.918
355.867
356.771
357.835
358.575
358.853
358.594
357.837
356.891
355.563
354.485
353.587
353.252
353.138
353.57
347.259
346.714
346.463
346.535
346.815
347.555
348.37
349.188
350.112
350.739
351.004
350.79
350.129
349.325
348.183
347.234
346.475
346.183
346.073
346.435
339.93
339.462
339.271
339.343
339.57
340.207
340.909
341.606
342.38
342.903
343.176
342.993
342.451
341.747
340.805
339.989
339.358
339.103
338.996
339.315
332.649
332.259
332.091
332.166
332.355
332.903
333.455
334.026
334.633
335.076
335.356
335.197
334.774
334.165
333.42
332.771
332.23
332.012
331.908
332.189
325.398
325.079
324.937
325.004
325.17
325.596
326.012
326.475
326.93
327.297
327.497
327.393
327.081
326.568
325.986
325.5
325.084
324.912
324.812
325.038
318.14
317.913
317.816
317.858
317.981
318.3
318.576
318.915
319.246
319.518
319.648
319.578
319.376
318.959
318.561
318.229
317.94
317.811
317.728
317.891
310.892
310.745
310.694
310.732
310.798
310.999
311.16
311.358
311.566
311.745
311.794
311.764
311.645
311.37
311.156
310.951
310.78
310.685
310.65
310.756
303.647
303.6
303.588
303.6
303.617
303.691
303.743
303.809
303.88
303.945
303.948
303.946
303.899
303.815
303.742
303.665
303.619
303.588
303.565
303.613
355.731
355.033
354.638
354.699
355.116
355.761
356.589
357.428
358.455
359.058
359.412
359.006
358.348
357.682
356.46
355.347
354.565
354.27
354.286
354.535
348.196
347.602
347.288
347.363
347.725
348.295
348.991
349.727
350.626
351.17
351.494
351.129
350.561
350.007
348.945
347.974
347.313
347.058
347.053
347.269
340.704
340.235
339.97
340.034
340.359
340.846
341.438
342.044
342.817
343.288
343.561
343.287
342.804
342.308
341.441
340.631
340.051
339.841
339.815
340.017
333.267
332.877
332.663
332.72
332.994
333.401
333.922
334.386
335.029
335.403
335.629
335.435
335.024
334.611
333.935
333.283
332.774
332.612
332.569
332.758
325.84
325.551
325.38
325.416
325.629
325.986
326.396
326.742
327.274
327.518
327.723
327.551
327.228
326.926
326.398
325.927
325.499
325.37
325.32
325.503
318.442
318.249
318.133
318.131
318.314
318.566
318.851
319.112
319.501
319.639
319.805
319.686
319.447
319.248
318.862
318.557
318.223
318.135
318.085
318.241
311.064
310.942
310.897
310.878
310.997
311.137
311.298
311.469
311.724
311.771
311.9
311.816
311.665
311.566
311.337
311.173
310.954
310.891
310.857
310.97
303.712
303.666
303.658
303.64
303.692
303.735
303.789
303.843
303.928
303.944
303.983
303.954
303.908
303.876
303.801
303.75
303.68
303.652
303.639
303.686
356.676
356.122
355.678
355.58
355.973
356.609
357.355
358.088
358.988
359.569
359.771
359.595
358.956
358.212
357.21
356.23
355.531
355.325
355.241
355.553
348.969
348.558
348.181
348.115
348.458
349.029
349.662
350.306
351.099
351.607
351.781
351.649
351.091
350.454
349.607
348.768
348.149
347.963
347.886
348.119
341.336
341.023
340.729
340.683
340.952
341.452
341.996
342.568
343.223
343.639
343.797
343.688
343.218
342.698
341.992
341.304
340.752
340.616
340.521
340.713
333.764
333.507
333.308
333.257
333.465
333.91
334.345
334.836
335.363
335.685
335.834
335.76
335.341
334.945
334.385
333.824
333.359
333.235
333.158
333.294
326.238
326.03
325.88
325.852
325.996
326.359
326.698
327.103
327.497
327.741
327.876
327.827
327.486
327.177
326.782
326.335
325.959
325.857
325.805
325.892
318.733
318.577
318.488
318.465
318.555
318.855
319.076
319.353
319.623
319.816
319.895
319.88
319.646
319.409
319.142
318.839
318.544
318.455
318.47
318.502
311.245
311.161
311.107
311.088
311.135
311.319
311.461
311.601
311.782
311.903
311.933
311.947
311.816
311.67
311.518
311.304
311.131
311.072
311.087
311.114
303.763
303.736
303.724
303.715
303.737
303.799
303.847
303.88
303.95
303.978
304.006
304.009
303.964
303.917
303.868
303.78
303.736
303.712
303.708
303.721
357.601
357.097
356.595
356.508
356.788
357.318
358.139
358.833
359.501
360.024
360.244
360.034
359.523
358.846
357.995
357.119
356.47
356.217
356.193
356.546
349.785
349.399
348.96
348.896
349.137
349.63
350.356
350.946
351.523
351.998
352.202
352.017
351.576
350.997
350.3
349.539
348.967
348.73
348.694
348.999
342.034
341.709
341.377
341.341
341.543
341.968
342.552
343.082
343.536
343.971
344.153
343.997
343.625
343.14
342.57
341.953
341.471
341.241
341.208
341.458
334.349
334.066
333.804
333.794
333.964
334.33
334.784
335.239
335.597
335.965
336.142
336.005
335.692
335.304
334.85
334.366
333.985
333.75
333.715
333.921
326.707
326.46
326.266
326.263
326.401
326.701
327.031
327.389
327.679
327.947
328.126
328.003
327.751
327.471
327.101
326.755
326.463
326.266
326.229
326.402
319.086
318.887
318.75
318.74
318.86
319.075
319.303
319.563
319.768
319.946
320.097
320.009
319.816
319.635
319.352
319.13
318.916
318.782
318.737
318.863
311.456
311.333
311.265
311.257
311.312
311.439
311.6
311.765
311.883
311.982
312.068
312.027
311.901
311.805
311.623
311.504
311.359
311.299
311.251
311.328
303.837
303.795
303.771
303.771
303.776
303.827
303.893
303.943
303.996
304.013
304.051
304.033
303.988
303.96
303.881
303.861
303.809
303.79
303.774
303.797
358.734
358.004
357.514
357.557
357.713
358.219
358.812
359.398
360.044
360.529
360.826
360.574
360.003
359.467
358.638
357.99
357.33
357.143
357.229
357.636
350.776
350.16
349.764
349.82
349.972
350.4
350.945
351.425
352.001
352.427
352.687
352.466
351.996
351.534
350.818
350.283
349.699
349.539
349.576
349.939
342.885
342.376
342.042
342.115
342.253
342.606
343.073
343.469
343.987
344.335
344.568
344.375
344.007
343.612
343.008
342.573
342.052
341.922
341.94
342.25
335.015
334.629
334.366
334.432
334.556
334.81
335.212
335.512
336.003
336.285
336.457
336.282
336.026
335.722
335.199
334.837
334.392
334.291
334.316
334.555
327.188
326.914
326.701
326.743
326.842
327.052
327.359
327.608
328.014
328.216
328.368
328.226
328.038
327.816
327.39
327.098
326.756
326.656
326.686
326.876
319.395
319.233
319.073
319.084
319.153
319.327
319.523
319.71
320.012
320.15
320.26
320.168
320.045
319.882
319.58
319.377
319.123
319.029
319.074
319.193
311.648
311.562
311.453
311.439
311.501
311.605
311.72
311.836
312.005
312.095
312.17
312.11
312.042
311.947
311.762
311.651
311.475
311.419
311.457
311.516
303.899
303.879
303.843
303.828
303.854
303.889
303.94
303.979
304.029
304.055
304.077
304.057
304.041
303.994
303.944
303.905
303.848
303.82
303.839
303.86
359.811
358.98
358.642
358.477
358.761
359.148
359.722
360.213
360.742
361.102
361.294
361.21
360.724
360.127
359.491
358.742
358.176
358.148
358.259
358.803
351.713
351.024
350.732
350.614
350.851
351.206
351.693
352.102
352.591
352.913
353.101
353.033
352.614
352.12
351.559
350.924
350.38
350.401
350.482
350.931
343.654
343.107
342.874
342.761
342.97
343.308
343.69
344.016
344.469
344.74
344.924
344.893
344.508
344.122
343.648
343.103
342.62
342.635
342.734
343.072
335.637
335.239
335.026
334.953
335.11
335.429
335.702
335.978
336.378
336.586
336.769
336.737
336.42
336.127
335.731
335.274
334.88
334.873
334.967
335.21
327.684
327.383
327.222
327.158
327.283
327.564
327.741
327.955
328.289
328.449
328.613
328.589
328.32
328.118
327.8
327.437
327.142
327.137
327.187
327.378
319.744
319.561
319.44
319.389
319.494
319.703
319.8
319.97
320.221
320.324
320.466
320.437
320.235
320.091
319.852
319.6
319.41
319.385
319.428
319.564
311.854
311.736
311.657
311.614
311.699
311.847
311.894
311.996
312.143
312.216
312.299
312.291
312.144
312.063
311.931
311.761
311.676
311.632
311.681
311.77
303.972
303.935
303.907
303.893
303.919
303.978
303.992
304.017
304.07
304.097
304.131
304.123
304.077
304.037
304.003
303.931
303.907
303.9
303.92
303.951
360.811
360.183
359.63
359.497
359.675
359.986
360.444
361.002
361.453
361.742
361.853
361.755
361.268
360.822
360.253
359.577
359.148
359.18
359.278
359.877
352.548
352.046
351.572
351.487
351.637
351.928
352.337
352.822
353.205
353.457
353.594
353.52
353.072
352.706
352.193
351.634
351.28
351.252
351.355
351.832
344.361
343.931
343.564
343.514
343.606
343.913
344.254
344.677
344.983
345.194
345.361
345.269
344.892
344.597
344.142
343.713
343.412
343.352
343.444
343.807
336.231
335.879
335.632
335.577
335.622
335.91
336.183
336.529
336.772
336.952
337.121
337.017
336.733
336.498
336.104
335.806
335.529
335.476
335.526
335.831
328.163
327.881
327.698
327.649
327.686
327.912
328.145
328.41
328.599
328.747
328.88
328.796
328.569
328.379
328.068
327.856
327.638
327.605
327.637
327.877
320.114
319.9
319.777
319.746
319.774
319.944
320.123
320.311
320.442
320.544
320.654
320.566
320.411
320.244
320.046
319.908
319.76
319.733
319.76
319.91
312.064
311.943
311.896
311.867
311.866
311.977
312.095
312.212
312.282
312.328
312.413
312.362
312.255
312.162
312.021
311.958
311.866
311.869
311.871
311.941
304.048
303.999
303.984
303.985
303.97
304.01
304.063
304.093
304.11
304.132
304.155
304.135
304.099
304.068
304.032
304.015
303.975
303.975
303.991
304
361.869
361.209
360.647
360.528
360.595
360.85
361.166
361.73
362.019
362.408
362.461
362.359
361.911
361.53
361.039
360.605
360.241
360.235
360.321
360.981
353.435
352.903
352.449
352.343
352.443
352.658
352.941
353.449
353.707
354.021
354.092
354.009
353.591
353.284
352.896
352.504
352.207
352.168
352.249
352.823
345.086
344.659
344.291
344.241
344.302
344.486
344.742
345.2
345.421
345.659
345.735
345.659
345.313
345.061
344.735
344.427
344.168
344.104
344.185
344.719
336.813
336.486
336.186
336.148
336.206
336.361
336.588
336.957
337.143
337.33
337.426
337.34
337.062
336.87
336.6
336.334
336.144
336.067
336.132
336.598
328.605
328.349
328.103
328.093
328.127
328.26
328.434
328.748
328.877
329.031
329.117
329.053
328.83
328.682
328.463
328.235
328.105
328.042
328.091
328.482
320.459
320.263
320.051
320.034
320.069
320.171
320.304
320.551
320.614
320.748
320.819
320.738
320.611
320.492
320.343
320.176
320.087
320.024
320.07
320.348
312.287
312.169
312.031
312.016
312.036
312.111
312.188
312.342
312.372
312.47
312.507
312.452
312.374
312.303
312.224
312.133
312.063
312.029
312.066
312.232
304.123
304.086
304.024
304.03
304.032
304.06
304.086
304.141
304.132
304.185
304.189
304.163
304.151
304.126
304.094
304.076
304.043
304.033
304.056
304.109
362.729
362.022
361.465
361.271
361.306
361.517
361.825
362.282
362.506
362.776
362.974
362.841
362.344
362.115
361.724
361.179
360.896
361.089
361.267
361.839
354.171
353.575
353.108
352.961
353.036
353.196
353.461
353.884
354.074
354.324
354.505
354.402
353.982
353.757
353.423
352.977
352.712
352.878
353.009
353.494
345.729
345.215
344.816
344.717
344.785
344.919
345.156
345.533
345.674
345.925
346.076
345.993
345.633
345.428
345.173
344.802
344.573
344.683
344.808
345.194
337.316
336.928
336.598
336.516
336.583
336.69
336.902
337.208
337.338
337.561
337.663
337.622
337.33
337.13
336.937
336.629
336.459
336.5
336.632
336.954
328.98
328.689
328.431
328.372
328.398
328.514
328.674
328.918
329.027
329.215
329.267
329.279
329.036
328.843
328.71
328.49
328.335
328.35
328.484
328.724
320.685
320.49
320.312
320.26
320.263
320.348
320.459
320.655
320.748
320.881
320.937
320.929
320.76
320.614
320.496
320.351
320.233
320.216
320.337
320.497
312.411
312.303
312.177
312.144
312.171
312.22
312.261
312.406
312.469
312.561
312.594
312.58
312.475
312.374
312.302
312.226
312.144
312.123
312.196
312.302
304.146
304.125
304.079
304.07
304.075
304.099
304.109
304.157
304.184
304.22
304.223
304.213
304.176
304.143
304.122
304.093
304.077
304.053
304.082
304.128
)
;

boundaryField
{
    hotSide
    {
        type            fixedGradient;
        gradient        nonuniform List<scalar> 
400
(
533.627
531.351
531.413
533.747
538.107
544.147
551.501
559.836
568.883
578.442
588.374
598.597
609.078
619.83
630.908
642.4
654.423
667.095
680.509
694.704
517.452
515.464
515.975
518.898
523.936
530.675
538.69
547.611
557.146
567.082
577.279
587.656
598.188
608.898
619.857
631.174
642.993
655.462
668.701
682.764
508.254
506.833
507.875
511.281
516.749
523.866
532.204
541.386
551.115
561.174
571.418
581.77
592.208
602.764
613.516
624.584
636.12
648.28
661.189
674.91
505.564
504.974
506.643
510.464
516.173
523.407
531.781
540.944
550.605
560.549
570.631
580.776
590.965
601.236
611.673
622.397
633.55
645.278
657.697
670.873
507.655
508.069
510.485
514.788
520.748
528.059
536.389
545.421
554.882
564.564
574.328
584.102
593.877
603.701
613.662
623.882
634.494
645.632
657.4
669.867
512.545
514.054
517.347
522.291
528.672
536.215
544.618
553.587
562.862
572.242
581.596
590.867
600.066
609.257
618.547
628.066
637.951
648.33
659.306
670.952
518.543
521.185
525.466
531.232
538.263
546.283
554.988
564.078
573.283
582.402
591.313
599.981
608.453
616.832
625.261
633.896
642.889
652.377
662.466
673.235
524.285
528.037
533.364
540.093
547.981
556.728
565.993
575.433
584.74
593.687
602.158
610.155
617.781
625.207
632.634
640.261
648.27
656.809
665.993
675.901
528.63
533.375
539.706
547.433
556.29
565.937
575.972
585.974
595.556
604.441
612.509
619.814
626.547
632.97
639.362
645.98
653.032
660.684
669.05
678.208
530.626
536.118
543.254
551.839
561.59
572.128
582.985
593.644
603.617
612.549
620.311
627.019
632.967
638.523
644.047
649.843
656.145
663.123
670.89
679.518
529.576
535.428
542.996
552.085
562.403
573.545
585
596.18
606.515
615.585
623.25
629.67
635.215
640.326
645.414
650.81
656.76
663.437
670.951
679.368
525.172
530.906
538.416
547.505
557.875
569.113
580.7
592.043
602.565
611.843
619.731
626.379
632.146
637.469
642.753
648.332
654.456
661.3
668.979
677.56
517.614
522.762
529.738
538.346
548.283
559.144
570.434
581.612
592.166
601.725
610.138
617.498
624.076
630.227
636.306
642.62
649.415
656.872
665.117
674.224
507.634
511.827
517.935
525.763
535.012
545.289
556.135
567.071
577.662
587.589
596.698
605.013
612.701
620.014
627.232
634.622
642.417
650.799
659.904
669.818
496.451
499.464
504.549
511.523
520.087
529.848
540.362
551.188
561.936
572.316
582.163
591.451
600.264
608.772
617.188
625.739
634.641
644.078
654.192
665.077
485.741
487.485
491.543
497.748
505.785
515.231
525.626
536.524
547.548
558.415
568.953
579.099
588.89
598.44
607.918
617.523
627.46
637.918
649.047
660.943
477.671
478.177
481.293
486.866
494.54
503.836
514.244
525.295
536.608
547.9
558.995
569.813
580.362
590.726
601.044
611.5
622.298
633.638
645.682
658.523
474.801
474.237
476.527
481.527
488.844
497.944
508.276
519.354
530.792
542.316
553.748
565.002
576.07
587.013
597.952
609.057
620.531
632.581
645.375
659.004
479.386
478.057
479.628
483.971
490.704
499.298
509.212
519.974
531.213
542.663
554.148
565.578
576.931
588.252
599.639
611.244
623.252
635.856
649.214
663.405
492.142
490.386
491.336
494.893
500.742
508.442
517.525
527.571
538.242
549.286
560.532
571.883
583.305
594.822
606.511
618.489
630.908
643.918
657.646
672.15
)
;
    }
    coldSide
    {
        type            mixed;
        refValue        uniform 300;
        refGradient     uniform 0;
        valueFraction   uniform 0.991591;
        source          uniform 0;
        value           nonuniform List<scalar> 
400
(
300.027
300.027
300.027
300.028
300.028
300.028
300.028
300.029
300.029
300.03
300.03
300.031
300.031
300.032
300.032
300.033
300.033
300.034
300.035
300.035
300.027
300.027
300.027
300.027
300.027
300.027
300.028
300.028
300.029
300.029
300.03
300.03
300.031
300.031
300.032
300.033
300.033