/*--------------------------------*- C++ -*----------------------------------*\
| =========                 |                                                 |
| \\      /  F ield         | OpenFOAM: The Open Source CFD Toolbox           |
|  \\    /   O peration     | Version:  2212                                  |
|   \\  /    A nd           | Website:  www.openfoam.com                      |
|    \\/     M anipulation  |                                                 |
\*---------------------------------------------------------------------------*/
FoamFile
{
    version     2.0;
    format      ascii;
    arch        "LSB;label=32;scalar=64";
    class       volScalarField;
    location    "0";
    object      T;
}
// * * * * * * * * * * * * * * * * * * * * * * * * * * * * * * * * * * * * * //

dimensions      [0 0 0 1 0 0 0];

internalField   nonuniform List<scalar> 
3200
(
345.832
346.632
347.672
348.442
349.071
349.484
350.129
350.444
350.275
350.324
350.13
349.731
349.188
348.599
348.311
347.297
346.353
345.233
344.444
343.299
339.806
340.515
341.401
342.105
342.697
343.007
343.54
343.815
343.695
343.723
343.555
343.247
342.752
342.201
342.01
341.125
340.289
339.308
338.607
337.707
333.781
334.346
335.086
335.731
336.278
336.493
336.92
337.127
337.04
337.087
336.92
336.728
336.246
335.822
335.644
334.895
334.178
333.32
332.716
332.085
327.709
328.188
328.769
329.315
329.748
329.902
330.299
330.407
330.356
330.409
330.252
330.126
329.692
329.379
329.225
328.601
328.011
327.366
326.788
326.396
321.631
321.943
322.431
322.873
323.198
323.286
323.596
323.685
323.625
323.665
323.576
323.47
323.129
322.905
322.763
322.293
321.809
321.312
320.854
320.599
315.504
315.699
316.082
316.396
316.537
316.648
316.877
316.928
316.914
316.965
316.872
316.801
316.553
316.335
316.312
315.961
315.565
315.229
314.918
314.78
309.314
309.404
309.684
309.878
309.91
310.009
310.165
310.138
310.165
310.197
310.136
310.113
309.935
309.794
309.781
309.623
309.318
309.164
308.975
308.916
303.139
303.141
303.251
303.315
303.308
303.382
303.411
303.396
303.397
303.418
303.396
303.371
303.322
303.279
303.265
303.237
303.123
303.088
303.019
303.001
346.828
347.755
348.768
349.599
350.485
350.633
351.412
351.365
351.499
351.494
351.37
351.148
350.553
349.983
349.388
348.44
347.543
346.635
345.33
344.34
340.62
341.454
342.343
342.994
343.812
343.912
344.619
344.57
344.711
344.717
344.582
344.398
343.857
343.399
342.891
342.051
341.296
340.482
339.358
338.576
334.373
335.118
335.863
336.427
337.112
337.228
337.792
337.747
337.943
337.912
337.746
337.596
337.173
336.775
336.331
335.648
335.013
334.329
333.398
332.749
328.173
328.764
329.401
329.868
330.364
330.515
330.974
330.952
331.133
331.046
330.899
330.775
330.503
330.16
329.736
329.213
328.703
328.133
327.381
326.852
321.979
322.419
322.906
323.292
323.659
323.791
324.083
324.145
324.273
324.19
324.065
323.99
323.808
323.492
323.098
322.716
322.39
321.918
321.326
320.899
315.751
316.077
316.426
316.718
316.936
317.07
317.223
317.268
317.362
317.297
317.215
317.201
317.068
316.796
316.513
316.233
316.03
315.617
315.256
314.936
309.454
309.7
309.876
310.047
310.192
310.268
310.349
310.359
310.431
310.38
310.34
310.369
310.289
310.084
309.928
309.772
309.641
309.38
309.175
308.98
303.177
303.245
303.312
303.37
303.42
303.444
303.453
303.452
303.515
303.482
303.477
303.504
303.446
303.376
303.336
303.283
303.241
303.156
303.085
303.016
348.393
349.321
350.261
351.187
352.215
352.465
352.84
353.152
353.274
353.265
352.976
352.742
352.308
351.692
350.952
350.06
348.914
347.919
346.844
345.878
341.978
342.793
343.627
344.378
345.258
345.46
345.816
346.066
346.237
346.205
345.923
345.805
345.367
344.855
344.22
343.428
342.464
341.544
340.651
339.903
335.553
336.241
336.955
337.532
338.284
338.457
338.778
339.049
339.147
339.133
338.85
338.809
338.434
337.968
337.439
336.799
335.948
335.181
334.464
333.84
329.154
329.636
330.264
330.667
331.345
331.44
331.704
332.026
332.068
332.04
331.751
331.775
331.493
331.026
330.623
330.133
329.4
328.831
328.245
327.738
322.74
323.034
323.558
323.889
324.432
324.447
324.628
324.932
324.992
324.908
324.717
324.724
324.486
324.119
323.805
323.468
322.87
322.465
321.988
321.563
316.26
316.454
316.826
317.081
317.472
317.456
317.569
317.798
317.888
317.743
317.694
317.679
317.486
317.212
317.033
316.773
316.344
316.067
315.768
315.383
309.791
309.874
310.105
310.288
310.524
310.488
310.518
310.679
310.742
310.646
310.641
310.654
310.482
310.329
310.27
310.072
309.814
309.682
309.494
309.263
303.305
303.301
303.372
303.454
303.527
303.51
303.52
303.587
303.609
303.562
303.584
303.584
303.528
303.489
303.443
303.389
303.282
303.235
303.209
303.109
349.895
350.985
351.971
352.856
353.73
354.237
354.39
354.881
355.104
354.923
354.575
354.481
354.099
353.415
352.822
351.899
350.544
349.346
348.382
347.652
343.293
344.2
345.028
345.796
346.566
347.021
347.17
347.559
347.82
347.623
347.304
347.28
346.957
346.321
345.83
345.008
343.82
342.82
341.96
341.421
336.711
337.399
338.05
338.763
339.443
339.814
339.884
340.186
340.485
340.381
340.088
340.051
339.777
339.231
338.815
338.051
337.051
336.274
335.542
335.145
330.129
330.614
331.137
331.729
332.311
332.608
332.631
332.882
333.151
333.094
332.779
332.735
332.549
332.147
331.804
331.157
330.297
329.703
329.113
328.773
323.455
323.834
324.201
324.71
325.185
325.389
325.35
325.574
325.774
325.752
325.514
325.446
325.309
325.061
324.765
324.238
323.525
323.101
322.689
322.399
316.742
317.029
317.296
317.668
318.014
318.131
318.086
318.28
318.404
318.393
318.246
318.156
318.096
317.874
317.737
317.32
316.762
316.492
316.207
315.981
310.03
310.217
310.415
310.619
310.819
310.881
310.867
310.984
311.051
311.021
310.936
310.884
310.881
310.711
310.677
310.392
310.013
309.905
309.763
309.569
303.339
303.4
303.499
303.581
303.633
303.636
303.652
303.672
303.699
303.695
303.68
303.63
303.637
303.581
303.594
303.48
303.339
303.333
303.28
303.2
351.352
352.34
353.34
354.603
355.348
355.936
356.268
356.512
356.745
356.774
356.485
356.18
355.964
355.225
354.353
353.455
352.148
351.162
350.02
349.03
344.595
345.399
346.196
347.315
348.017
348.483
348.771
348.98
349.182
349.257
348.978
348.736
348.551
347.925
347.188
346.347
345.175
344.345
343.426
342.594
337.82
338.405
339.033
340.028
340.667
341.02
341.261
341.478
341.581
341.755
341.451
341.301
341.131
340.606
339.968
339.27
338.186
337.472
336.763
336.088
330.993
331.4
331.916
332.741
333.288
333.569
333.771
333.93
333.998
334.217
333.902
333.847
333.672
333.283
332.758
332.143
331.234
330.615
330.111
329.555
324.13
324.42
324.809
325.449
325.889
326.135
326.286
326.408
326.489
326.644
326.382
326.369
326.233
325.936
325.481
325.012
324.279
323.802
323.453
322.972
317.228
317.454
317.758
318.205
318.505
318.646
318.805
318.894
318.942
319.05
318.847
318.841
318.739
318.548
318.179
317.903
317.369
317.034
316.779
316.425
310.324
310.51
310.697
310.935
311.143
311.179
311.311
311.336
311.351
311.409
311.329
311.302
311.279
311.097
310.916
310.75
310.414
310.227
310.089
309.842
303.454
303.531
303.591
303.663
303.735
303.751
303.798
303.801
303.815
303.826
303.796
303.789
303.799
303.712
303.656
303.604
303.491
303.43
303.361
303.288
352.922
353.916
354.739
356.048
357.018
357.631
357.902
358.307
358.636
358.436
358.368
357.972
357.61
356.744
355.999
355.19
353.889
352.645
351.548
350.45
345.946
346.762
347.43
348.598
349.446
349.933
350.159
350.561
350.817
350.628
350.601
350.319
349.952
349.212
348.534
347.855
346.707
345.652
344.699
343.8
338.93
339.574
340.116
341.14
341.843
342.245
342.455
342.814
342.982
342.841
342.83
342.628
342.33
341.671
341.056
340.549
339.535
338.672
337.879
337.147
331.872
332.393
332.808
333.69
334.255
334.55
334.753
335.062
335.126
335.081
335.024
334.913
334.656
334.112
333.602
333.191
332.311
331.716
331.036
330.454
324.82
325.202
325.534
326.208
326.652
326.856
327.034
327.307
327.309
327.289
327.225
327.216
326.987
326.568
326.127
325.854
325.13
324.732
324.202
323.737
317.76
318.015
318.294
318.736
319.043
319.182
319.324
319.519
319.502
319.51
319.472
319.486
319.333
318.994
318.675
318.479
317.978
317.723
317.326
317.009
310.679
310.838
311.013
311.253
311.452
311.508
311.61
311.734
311.681
311.731
311.712
311.707
311.639
311.367
311.269
311.071
310.805
310.667
310.444
310.199
303.56
303.62
303.697
303.766
303.853
303.856
303.881
303.924
303.919
303.934
303.923
303.939
303.904
303.822
303.787
303.712
303.652
303.564
303.497
303.417
354.265
355.318
356.335
357.649
358.42
358.974
359.625
360.062
360.147
360.031
359.864
359.793
359.226
358.395
357.652
356.938
355.676
354.317
353.155
351.933
347.082
347.931
348.816
349.985
350.624
351.152
351.686
352.069
352.154
352.05
351.917
351.855
351.38
350.646
349.983
349.401
348.267
347.063
346.094
345.081
339.839
340.534
341.328
342.304
342.818
343.313
343.708
344.056
344.144
344.073
343.97
343.879
343.504
342.89
342.309
341.819
340.832
339.838
339.033
338.237
332.605
333.184
333.79
334.673
335.054
335.474
335.747
336.014
336.1
336.06
335.97
335.946
335.638
335.114
334.615
334.213
333.416
332.594
331.986
331.384
325.38
325.82
326.276
327.018
327.28
327.62
327.792
327.98
328.082
328.065
327.968
327.98
327.727
327.368
326.918
326.604
326.008
325.386
324.913
324.438
318.166
318.462
318.744
319.283
319.547
319.74
319.83
319.982
320.055
320.037
320.007
319.996
319.796
319.595
319.239
319.008
318.592
318.195
317.802
317.448
310.906
311.081
311.267
311.566
311.748
311.845
311.872
312.014
312.034
312.054
312.035
311.999
311.879
311.798
311.565
311.42
311.181
310.937
310.691
310.46
303.648
303.72
303.777
303.889
303.947
303.96
303.96
304.029
304.03
304.042
304.027
304.023
303.979
303.967
303.888
303.82
303.75
303.663
303.56
303.502
355.847
356.808
357.945
359.124
359.826
360.703
361.004
361.672
361.764
361.825
361.557
361.496
360.56
360.081
359.176
358.383
357.045
356.066
354.556
353.642
348.441
349.266
350.196
351.226
351.798
352.647
352.874
353.453
353.575
353.647
353.367
353.298
352.509
352.115
351.331
350.647
349.435
348.619
347.306
346.583
341.006
341.71
342.444
343.317
343.805
344.524
344.785
345.23
345.344
345.398
345.193
345.093
344.446
344.105
343.471
342.873
341.852
341.203
340.084
339.498
333.576
334.191
334.733
335.477
335.836
336.427
336.671
337.023
337.133
337.141
337.03
336.903
336.403
336.126
335.631
335.116
334.275
333.742
332.843
332.429
326.162
326.634
326.977
327.615
327.89
328.322
328.573
328.797
328.892
328.899
328.846
328.707
328.344
328.13
327.739
327.36
326.683
326.274
325.551
325.248
318.735
319.067
319.238
319.756
319.931
320.196
320.442
320.53
320.616
320.66
320.664
320.548
320.273
320.122
319.821
319.562
319.098
318.743
318.27
318.018
311.252
311.479
311.577
311.892
311.994
312.104
312.287
312.337
312.347
312.427
312.455
312.358
312.207
312.119
311.924
311.746
311.486
311.25
310.947
310.825
303.795
303.859
303.891
304.005
304.016
304.061
304.114
304.126
304.113
304.155
304.174
304.127
304.096
304.079
303.973
303.945
303.86
303.763
303.647
303.628
357.023
358.34
359.492
360.484
361.511
361.935
362.665
363.146
363.25
363.393
362.954
362.866
362.244
361.805
360.752
359.952
358.521
357.296
355.906
354.615
349.473
350.597
351.55
352.389
353.316
353.702
354.312
354.719
354.827
354.969
354.571
354.491
353.91
353.665
352.746
351.997
350.728
349.705
348.476
347.414
341.926
342.815
343.632
344.334
345.118
345.455
345.961
346.354
346.423
346.543
346.177
346.105
345.612
345.459
344.685
343.994
342.924
342.125
340.993
340.184
334.372
335.028
335.702
336.272
336.916
337.216
337.632
337.936
337.999
338.155
337.775
337.719
337.31
337.214
336.584
335.978
335.122
334.483
333.545
332.945
326.81
327.24
327.735
328.202
328.73
328.964
329.284
329.514
329.574
329.662
329.387
329.355
329.043
328.947
328.513
327.962
327.322
326.83
326.117
325.64
319.17
319.45
319.799
320.144
320.486
320.695
320.947
321.087
321.118
321.171
320.979
320.973
320.789
320.697
320.384
319.97
319.521
319.188
318.683
318.313
311.537
311.662
311.876
312.084
312.287
312.445
312.584
312.663
312.658
312.714
312.589
312.607
312.514
312.415
312.244
311.98
311.721
311.516
311.259
310.988
303.867
303.895
303.978
304.04
304.128
304.179
304.248
304.231
304.241
304.26
304.216
304.249
304.195
304.157
304.108
304.008
303.929
303.88
303.799
303.688
358.408
359.72
360.942
361.809
362.961
363.516
364.212
364.584
364.579
364.731
364.467
364.38
363.507
363.101
362.039
361.213
359.935
358.543
357.134
355.923
350.676
351.791
352.819
353.551
354.574
355.055
355.644
355.973
355.98
356.082
355.873
355.82
355.073
354.753
353.766
353.032
351.979
350.816
349.566
348.537
342.914
343.856
344.707
345.349
346.179
346.608
347.082
347.35
347.37
347.437
347.319
347.249
346.607
346.348
345.48
344.873
344.03
343.085
341.977
341.139
335.143
335.88
336.587
337.078
337.797
338.17
338.563
338.737
338.766
338.824
338.74
338.685
338.189
337.897
337.247
336.71
336.06
335.306
334.37
333.725
327.39
327.905
328.441
328.834
329.423
329.712
330.017
330.141
330.163
330.232
330.136
330.128
329.769
329.49
328.995
328.55
328.081
327.492
326.772
326.262
319.604
319.902
320.293
320.625
321.046
321.224
321.504
321.489
321.544
321.644
321.555
321.543
321.313
321.076
320.752
320.423
320.079
319.64
319.116
318.797
311.768
311.932
312.195
312.379
312.663
312.766
312.931
312.872
312.916
313.013
312.945
312.979
312.825
312.662
312.485
312.287
312.088
311.778
311.458
311.291
303.95
303.975
304.079
304.157
304.268
304.294
304.338
304.327
304.319
304.364
304.329
304.352
304.296
304.224
304.187
304.143
304.044
303.949
303.817
303.8
359.689
360.868
362.14
363.005
364.05
364.777
365.368
365.907
366.158
366.024
365.878
365.697
365.163
364.453
363.348
362.471
361.275
359.968
358.38
357.293
351.759
352.726
353.864
354.575
355.538
356.141
356.628
357.12
357.315
357.197
357.111
356.991
356.499
355.879
354.921
354.13
353.115
352.001
350.661
349.745
343.842
344.609
345.554
346.179
346.999
347.563
347.954
348.341
348.519
348.413
348.368
348.26
347.851
347.304
346.483
345.807
344.957
344.05
342.939
342.15
335.922
336.455
337.26
337.759
338.476
338.979
339.274
339.521
339.687
339.666
339.626
339.483
339.206
338.704
338.053
337.436
336.822
336.078
335.18
334.566
327.965
328.296
328.963
329.365
329.963
330.34
330.574
330.697
330.904
330.854
330.862
330.73
330.55
330.133
329.604
329.12
328.697
328.101
327.384
326.945
319.974
320.173
320.71
320.976
321.465
321.713
321.874
321.934
322.095
322.078
322.089
321.958
321.83
321.54
321.188
320.813
320.538
320.11
319.589
319.323
311.972
312.098
312.458
312.588
312.901
313.041
313.187
313.145
313.274
313.266
313.257
313.198
313.105
312.93
312.718
312.513
312.354
312.082
311.784
311.66
304.013
304.046
304.181
304.212
304.343
304.373
304.435
304.407
304.462
304.444
304.431
304.421
304.4
304.326
304.262
304.214
304.131
304.054
303.946
303.906
360.64
361.783
363.002
364.152
365.292
366.03
366.59
367.167
367.277
367.245
367.23
366.9
366.268
365.524
364.57
363.557
362.217
360.972
359.348
358.347
352.583
353.527
354.574
355.622
356.542
357.23
357.667
358.231
358.303
358.256
358.249
357.987
357.461
356.815
356.001
355.053
353.934
352.884
351.477
350.681
344.502
345.345
346.184
347.076
347.794
348.416
348.779
349.318
349.339
349.293
349.286
349.05
348.672
348.113
347.419
346.59
345.636
344.8
343.579
342.952
336.477
337.148
337.824
338.49
339.101
339.643
339.893
340.365
340.386
340.322
340.305
340.123
339.878
339.437
338.794
338.129
337.353
336.653
335.668
335.165
328.401
328.968
329.448
329.905
330.4
330.838
331.02
331.382
331.411
331.393
331.379
331.228
331.053
330.705
330.184
329.654
329.043
328.47
327.752
327.341
320.322
320.72
321.066
321.341
321.72
322.076
322.18
322.412
322.46
322.446
322.437
322.361
322.252
321.964
321.603
321.154
320.736
320.314
319.855
319.537
312.198
312.459
312.647
312.821
313.035
313.281
313.329
313.459
313.517
313.469
313.496
313.469
313.375
313.166
313.016
312.69
312.442
312.214
311.926
311.701
304.081
304.162
304.231
304.302
304.356
304.439
304.448
304.497
304.536
304.515
304.533
304.522
304.498
304.422
304.374
304.253
304.177
304.094
303.996
303.933
361.346
362.704
364.076
365.369
366.389
367.084
367.801
368.213
368.386
368.4
368.444
368.249
367.435
366.703
365.706
364.792
363.531
361.989
360.601
359.25
353.199
354.336
355.529
356.632
357.536
358.149
358.742
359.117
359.289
359.305
359.347
359.177
358.498
357.816
356.961
356.193
355.067
353.783
352.569
351.415
344.973
346.007
346.992
347.932
348.684
349.238
349.741
350.087
350.221
350.178
350.253
350.056
349.527
348.97
348.203
347.572
346.582
345.561
344.469
343.52
336.787
337.662
338.464
339.142
339.825
340.283
340.686
340.969
341.099
341.034
341.188
340.95
340.509
340.084
339.486
338.938
338.122
337.314
336.387
335.611
328.639
329.33
329.944
330.392
330.957
331.311
331.669
331.839
331.992
331.924
332.087
331.859
331.47
331.178
330.768
330.312
329.666
329.055
328.326
327.654
320.513
320.963
321.439
321.684
322.093
322.377
322.656
322.733
322.929
322.803
322.913
322.751
322.47
322.252
322.01
321.661
321.204
320.774
320.253
319.766
312.307
312.561
312.897
313.021
313.247
313.418
313.602
313.646
313.819
313.66
313.74
313.66
313.5
313.343
313.232
312.98
312.735
312.432
312.164
311.876
304.117
304.219
304.32
304.351
304.448
304.484
304.545
304.565
304.639
304.604
304.589
304.582
304.53
304.467
304.433
304.355
304.275
304.146
304.08
303.994
362.399
363.525
365.108
366.218
367.442
368.142
368.674
369.19
369.441
369.476
369.415
369.139
368.47
367.666
366.681
365.642
364.398
362.961
361.464
360.077
354.146
355.092
356.426
357.368
358.467
359.02
359.538
360.033
360.22
360.217
360.173
359.902
359.335
358.64
357.815
356.88
355.846
354.548
353.296
352.152
345.843
346.608
347.754
348.561
349.447
349.916
350.405
350.817
351.018
350.945
350.947
350.646
350.222
349.633
348.948
348.127
347.231
346.161
345.137
344.165
337.51
338.1
339.077
339.717
340.471
340.808
341.286
341.557
341.822
341.666
341.699
341.446
341.064
340.611
340.071
339.42
338.631
337.8
336.993
336.161
329.172
329.602
330.455
330.902
331.508
331.713
332.134
332.308
332.599
332.392
332.435
332.231
331.89
331.634
331.225
330.695
330.036
329.457
328.819
328.165
320.873
321.149
321.782
322.095
322.485
322.627
322.968
323.062
323.375
323.19
323.184
323.042
322.768
322.62
322.34
321.956
321.446
321.067
320.636
320.108
312.536
312.703
313.094
313.278
313.493
313.573
313.812
313.871
314.094
313.926
313.957
313.868
313.697
313.581
313.388
313.192
312.895
312.631
312.369
312.1
304.195
304.256
304.387
304.427
304.539
304.547
304.629
304.65
304.762
304.681
304.693
304.671
304.61
304.56
304.5
304.409
304.339
304.208
304.171
304.061
363.36
364.515
365.842
366.899
368.164
368.787
369.569
370.302
370.492
370.572
370.11
370.133
369.52
368.776
367.538
366.526
365.423
363.749
362.346
360.997
354.944
355.922
357.048
357.999
359.122
359.615
360.301
360.917
361.118
361.165
360.757
360.816
360.273
359.64
358.547
357.675
356.689
355.305
354.073
352.944
346.544
347.328
348.274
349.106
350.054
350.421
351.043
351.56
351.726
351.743
351.414
351.51
351.015
350.469
349.591
348.828
347.959
346.831
345.773
344.878
338.132
338.729
339.492
340.161
340.939
341.248
341.764
342.18
342.353
342.322
342.05
342.144
341.773
341.311
340.646
339.965
339.214
338.349
337.477
336.755
329.675
330.162
330.681
331.201
331.871
332.13
332.466
332.805
332.953
332.938
332.74
332.74
332.527
332.149
331.619
331.1
330.497
329.843
329.164
328.613
321.256
321.56
321.898
322.27
322.798
322.963
323.204
323.489
323.584
323.567
323.432
323.39
323.268
322.951
322.622
322.201
321.832
321.366
320.876
320.478
312.812
312.95
313.131
313.402
313.709
313.793
313.949
314.149
314.183
314.163
314.102
314.012
314.002
313.784
313.584
313.329
313.102
312.813
312.549
312.329
304.29
304.362
304.416
304.51
304.604
304.627
304.686
304.761
304.741
304.742
304.737
304.701
304.673
304.605
304.543
304.47
304.376
304.275
304.211
304.144
363.925
365.05
366.493
367.62
368.83
369.529
370.246
370.996
371.387
371.401
371.087
370.908
370.26
369.558
368.309
367.171
366.152
364.807
363.161
361.931
355.49
356.41
357.624
358.592
359.646
360.226
360.848
361.548
361.878
361.889
361.569
361.524
360.912
360.326
359.266
358.214
357.396
356.2
354.848
353.732
347.021
347.772
348.758
349.57
350.498
350.948
351.499
352.094
352.354
352.291
352.067
352.093
351.576
351.075
350.196
349.266
348.612
347.536
346.472
345.512
338.465
339.104
339.866
340.578
341.338
341.662
342.122
342.625
342.849
342.75
342.633
342.675
342.238
341.851
341.086
340.356
339.764
338.928
338.045
337.269
329.931
330.409
331.006
331.57
332.18
332.41
332.749
333.145
333.34
333.247
333.184
333.212
332.843
332.558
332.018
331.446
330.921
330.299
329.566
329.045
321.402
321.755
322.112
322.55
322.998
323.188
323.424
323.664
323.798
323.75
323.69
323.71
323.476
323.283
322.884
322.527
322.1
321.654
321.097
320.754
312.859
313.061
313.277
313.53
313.849
313.932
314.075
314.244
314.29
314.281
314.223
314.205
314.096
314.013
313.771
313.532
313.266
313.014
312.609
312.452
304.32
304.395
304.433
304.531
304.651
304.663
304.714
304.771
304.792
304.787
304.76
304.766
304.713
304.693
304.631
304.541
304.457
304.365
304.219
304.193
364.512
365.852
366.934
368.228
369.282
370.115
371.139
371.718
372.037
371.928
371.737
371.428
370.94
370.178
369.159
367.955
366.873
365.442
363.89
362.568
355.981
357.065
358.001
359.146
360.058
360.766
361.624
362.171
362.456
362.384
362.177
361.917
361.528
360.848
359.931
358.924
357.991
356.749
355.438
354.297
347.45
348.302
349.055
350.032
350.831
351.426
352.127
352.646
352.854
352.798
352.607
352.434
352.126
351.51
350.742
349.938
349.092
348.018
346.936
346
338.867
339.505
340.127
340.92
341.634
342.093
342.624
343.08
343.236
343.205
343.026
342.924
342.684
342.205
341.56
340.909
340.141
339.283
338.385
337.674
330.256
330.734
331.202
331.856
332.389
332.773
333.115
333.495
333.614
333.642
333.471
333.4
333.148
332.849
332.372
331.852
331.177
330.559
329.839
329.333
321.61
321.936
322.258
322.753
323.127
323.454
323.62
323.974
324.004
324.055
323.904
323.884
323.648
323.502
323.09
322.766
322.267
321.857
321.343
320.961
312.959
313.167
313.336
313.685
313.885
314.086
314.169
314.402
314.431
314.468
314.355
314.329
314.183
314.127
313.842
313.672
313.36
313.119
312.823
312.561
304.321
304.421
304.471
304.572
304.669
304.719
304.718
304.808
304.846
304.88
304.802
304.806
304.746
304.742
304.633
304.579
304.477
304.381
304.299
304.202
365.078
366.248
367.497
368.691
369.839
370.867
371.48
372.096
372.319
372.584
372.415
371.867
371.446
370.734
369.778
368.648
367.182
365.886
364.3
362.832
356.455
357.405
358.509
359.541
360.517
361.429
361.947
362.508
362.701
362.923
362.744
362.271
361.98
361.319
360.493
359.564
358.263
357.114
355.783
354.543
347.834
348.571
349.483
350.403
351.184
352.012
352.409
352.887
353.062
353.219
353.087
352.694
352.465
351.903
351.16
350.455
349.277
348.327
347.223
346.262
339.175
339.728
340.467
341.234
341.912
342.541
342.894
343.308
343.405
343.515
343.425
343.092
342.953
342.499
341.841
341.307
340.302
339.585
338.629
337.934
330.477
330.904
331.479
332.057
332.645
333.113
333.376
333.68
333.765
333.847
333.779
333.52
333.385
333.002
332.505
332.145
331.362
330.811
330.07
329.561
321.778
322.132
322.52
322.929
323.346
323.658
323.863
324.036
324.111
324.254
324.126
323.961
323.831
323.579
323.179
322.982
322.384
322.066
321.533
321.145
313.06
313.273
313.577
313.79
314.074
314.208
314.346
314.419
314.461
314.543
314.491
314.384
314.301
314.146
313.9
313.812
313.466
313.237
312.957
312.666
304.379
304.45
304.558
304.621
304.714
304.747
304.815
304.817
304.855
304.868
304.856
304.839
304.802
304.742
304.669
304.627
304.503
304.435
304.35
304.225
365.247
366.34
367.822
369.08
370.271
371.13
371.666
372.416
372.899
373.035
372.677
372.449
371.792
371.29
370.063
369.166
367.581
366.084
364.783
363.109
356.599
357.486
358.814
359.861
360.888
361.664
362.123
362.794
363.174
363.287
362.983
362.786
362.241
361.823
360.766
359.988
358.581
357.3
356.169
354.782
347.948
348.621
349.795
350.612
351.521
352.175
352.577
353.147
353.43
353.566
353.328
353.124
352.674
352.304
351.453
350.784
349.543
348.491
347.567
346.431
339.243
339.776
340.774
341.389
342.133
342.7
343.038
343.506
343.67
343.783
343.629
343.473
343.108
342.829
342.115
341.54
340.495
339.67
338.924
338.043
330.54
330.97
331.724
332.221
332.749
333.242
333.508
333.834
333.974
334.043
333.934
333.804
333.53
333.332
332.771
332.301
331.494
330.822
330.281
329.658
321.841
322.129
322.685
323.037
323.402
323.746
323.958
324.195
324.25
324.322
324.256
324.132
323.979
323.86
323.421
323.049
322.503
322.027
321.638
321.25
313.143
313.288
313.618
313.87
314.083
314.255
314.406
314.507
314.538
314.583
314.551
314.513
314.431
314.37
314.041
313.788
313.505
313.221
313.021
312.759
304.422
304.449
304.572
304.639
304.706
304.761
304.802
304.847
304.858
304.908
304.861
304.892
304.852
304.832
304.686
304.618
304.518
304.414
304.372
304.272
365.309
366.237
367.947
369.4
370.33
371.42
371.921
372.67
373.056
373.247
373.141
372.808
372.019
371.41
370.465
369.212
367.733
366.107
364.76
363.297
356.605
357.426
358.878
360.138
360.931
361.915
362.292
362.986
363.317
363.513
363.383
363.138
362.439
361.954
361.15
360.01
358.692
357.297
356.139
354.902
347.924
348.582
349.824
350.916
351.565
352.39
352.698
353.314
353.602
353.781
353.637
353.409
352.857
352.498
351.796
350.795
349.67
348.497
347.457
346.483
339.244
339.775
340.793
341.699
342.2
342.903
343.123
343.608
343.935
344.018
343.835
343.697
343.307
343.008
342.407
341.552
340.601
339.682
338.812
338.116
330.556
330.975
331.762
332.463
332.811
333.394
333.56
333.937
334.249
334.257
334.112
333.978
333.738
333.454
333.009
332.309
331.607
330.855
330.238
329.717
321.826
322.12
322.683
323.19
323.489
323.886
324.03
324.252
324.5
324.468
324.391
324.276
324.132
323.893
323.613
323.106
322.609
322.034
321.668
321.295
313.088
313.3
313.596
313.907
314.103
314.366
314.411
314.561
314.73
314.678
314.636
314.564
314.5
314.334
314.163
313.897
313.556
313.236
313.028
312.858
304.386
304.457
304.557
304.67
304.719
304.786
304.827
304.903
304.961
304.916
304.914
304.885
304.871
304.788
304.756
304.653
304.546
304.444
304.356
304.315
)
;

boundaryField
{
    hotSide
    {
        type            fixedGradient;
        gradient        nonuniform List<scalar> 
400
(
475.513
493.448
511.067
528.291
545.042
561.242
576.812
591.676
605.761
618.996
631.314
642.649
652.944
662.143
670.198
677.067
682.713
687.105
690.221
692.045
486.505
504.96
523.096
540.833
558.087
574.78
590.831
606.161
620.696
634.36
647.084
658.804
669.456
678.986
687.342
694.48
700.363
704.959
708.243
710.201
496.127
515.054
533.66
551.861
569.574
586.717
603.207
618.964
633.909
647.968
661.067
673.141
684.124
693.96
702.597
709.988
716.094
720.883
724.33
726.417
504.331
523.678
542.702
561.318
579.441
596.987
613.871
630.011
645.327
659.742
673.181
685.576
696.861
706.977
715.871
723.495
729.809
734.779
738.38
740.592
511.084
530.795
550.182
569.16
587.642
605.54
622.77
639.248
654.891
669.62
683.361
696.042
707.596
717.964
727.089
734.925
741.428
746.565
750.308
752.64
516.362
536.379
556.074
575.358
594.143
612.342
629.867
646.633
662.556
677.557
691.558
704.486
716.276
726.863
736.193
744.215
750.888
756.175
760.05
762.492
520.155
540.419
560.362
579.894
598.926
617.37
635.137
652.14
668.295
683.52
697.738
710.875
722.861
733.635
743.139
751.323
758.143
763.563
767.555
770.098
522.463
542.912
563.042
582.762
601.983
620.615
638.568
655.755
672.091
687.493
701.882
715.185
727.33
738.256
747.902
756.22
763.163
768.696
772.79
775.423
523.293
543.865
564.119
583.966
603.316
622.077
640.16
657.477
673.942
689.471
703.985
717.409
729.673
740.713
750.469
758.891
765.932
771.557
775.736
778.448
522.663
543.292
563.609
583.521
602.938
621.77
639.925
657.316
673.855
689.461
704.052
717.553
729.894
741.01
750.841
759.337
766.45
772.145
776.392
779.168
520.593
541.218
561.533
581.447
600.871
619.712
637.882
655.29
671.851
687.481
702.1
715.633
728.008
739.161
749.033
757.57
764.729
770.471
774.766
777.592
517.115
537.671
557.921
577.775
597.143
615.935
634.059
651.428
667.956
683.559
698.157
711.675
724.042
735.193
745.068
753.617
760.792
766.557
770.882
773.744
512.262
532.685
552.807
572.539
591.791
610.473
628.494
645.768
662.209
677.733
692.26
705.717
718.033
729.142
738.986
747.513
754.677
760.441
764.775
767.657
506.074
526.302
546.234
565.783
584.858
603.371
621.232
638.355
654.654
670.048
684.457
697.807
710.028
721.056
730.833
739.306
746.431
752.17
756.494
759.38
498.593
518.566
538.248
557.553
576.393
594.678
612.323
629.24
645.346
660.559
674.802
688
700.085
710.993
720.667
729.055
736.113
741.804
746.097
748.972
489.87
509.527
528.9
547.904
566.45
584.453
601.827
618.485
634.346
649.33
663.36
676.362
688.271
699.022
708.558
716.83
723.794
729.412
733.656
736.505
479.956
499.241
518.249
536.895
555.094
572.76
589.809
606.158
621.725
636.432
650.204
662.97
674.662
685.219
694.585
702.712
709.555
715.079
719.254
722.061
468.91
487.769
506.358
524.593
542.391
559.668
576.343
592.334
607.561
621.947
635.418
647.906
659.344
669.673
678.838
686.791
693.488
698.896
702.986
705.737
456.794
475.177
493.295
511.069
528.417
545.258
561.512
577.098
591.94
605.963
619.094
631.266
642.416
652.484
661.418
669.17
675.699
680.97
684.957
687.64
443.679
461.537
479.138
496.404
513.256
529.615
545.403
560.543
574.959
588.579
601.333
613.155
623.983
633.761
642.436
649.962
656.301
661.418
665.287
667.889
)
;
    }
    coldSide
    {
        type            mixed;
        refValue        uniform 300;
        refGradient     uniform 0;
        valueFraction   uniform 0.991591;
        source          uniform 0;
        value           nonuniform List<scalar> 
400
(
300.026
300.027
300.028
300.028
300.029
300.03
300.031
300.032
300.033
300.033
300.034
300.034
300.035
300.035
300.036
300.036
300.036
300.037
300.037
300.037
300.026
300.027
300.028
300.029
300.03
300.03
300.031
300.032
300.033
300.033
300.034
300.035
300.035
300.036
300.037
300.037
300.037
300.037
300.037
300.037
300.027
300.028
300.028
300.029