/*--------------------------------*- C++ -*----------------------------------*\
| =========                 |                                                 |
| \\      /  F ield         | OpenFOAM: The Open Source CFD Toolbox           |
|  \\    /   O peration     | Version:  2212                                  |
|   \\  /    A nd           | Website:  www.openfoam.com                      |
|    \\/     M anipulation  |                                                 |
\*---------------------------------------------------------------------------*/
FoamFile
{
    version     2.0;
    format      ascii;
    arch        "LSB;label=32;scalar=64";
    class       volScalarField;
    location    "0";
    object      T;
}
// * * * * * * * * * * * * * * * * * * * * * * * * * * * * * * * * * * * * * //

dimensions      [0 0 0 1 0 0 0];

internalField   nonuniform List<scalar> 
3200
(
343.827
342.858
342.362
342.233
342.821
343.533
344.387
345.114
345.777
345.939
346.13
345.805
345.214
344.446
343.27
342.382
341.682
341.379
341.811
342.408
338.067
337.281
336.852
336.739
337.234
337.849
338.591
339.201
339.77
339.925
340.052
339.798
339.281
338.597
337.564
336.799
336.205
335.916
336.288
336.764
332.296
331.646
331.258
331.201
331.607
332.112
332.712
333.251
333.709
333.872
333.951
333.744
333.291
332.713
331.827
331.179
330.701
330.417
330.742
331.111
326.501
325.954
325.625
325.612
325.933
326.346
326.793
327.256
327.626
327.77
327.82
327.66
327.276
326.81
326.069
325.546
325.149
324.891
325.197
325.438
320.637
320.237
319.96
319.963
320.214
320.536
320.857
321.241
321.531
321.638
321.677
321.556
321.26
320.89
320.289
319.858
319.555
319.38
319.62
319.769
314.764
314.493
314.275
314.281
314.48
314.708
314.907
315.196
315.411
315.493
315.54
315.428
315.179
314.945
314.509
314.184
313.984
313.874
314.017
314.118
308.85
308.704
308.567
308.583
308.714
308.855
308.965
309.127
309.275
309.323
309.372
309.282
309.12
308.989
308.723
308.522
308.389
308.341
308.423
308.489
302.964
302.922
302.882
302.892
302.919
302.979
303.014
303.062
303.107
303.141
303.142
303.115
303.059
303.025
302.919
302.849
302.807
302.789
302.833
302.846
343.949
343.06
342.341
342.471
343.051
343.827
344.644
345.473
346.198
346.551
346.648
346.37
345.693
344.813
343.736
342.77
342.028
341.676
342.049
342.655
338.183
337.473
336.819
336.953
337.441
338.09
338.796
339.49
340.138
340.384
340.51
340.246
339.655
338.924
337.948
337.129
336.507
336.17
336.503
336.984
332.386
331.814
331.241
331.355
331.786
332.322
332.912
333.485
334.023
334.177
334.35
334.088
333.586
332.986
332.157
331.486
330.969
330.645
330.932
331.314
326.542
326.117
325.624
325.701
326.077
326.513
326.986
327.467
327.863
327.997
328.135
327.914
327.505
327.019
326.341
325.823
325.363
325.107
325.341
325.646
320.691
320.352
319.946
320.043
320.324
320.665
321.033
321.4
321.693
321.824
321.913
321.726
321.407
321.034
320.501
320.12
319.758
319.556
319.726
319.942
314.811
314.568
314.261
314.346
314.539
314.794
315.054
315.304
315.521
315.611
315.689
315.522
315.302
315.045
314.657
314.394
314.115
313.986
314.128
314.258
308.91
308.755
308.557
308.605
308.724
308.905
309.035
309.192
309.346
309.37
309.439
309.331
309.184
309.01
308.811
308.653
308.467
308.411
308.497
308.564
302.997
302.931
302.874
302.881
302.916
303.002
303.028
303.077
303.133
303.147
303.163
303.131
303.085
303.022
302.945
302.896
302.836
302.817
302.854
302.86
344.151
343.353
342.837
342.931
343.486
344.277
345.302
346.056
346.871
347.311
347.537
347.261
346.543
345.597
344.407
343.305
342.466
342.163
342.31
343.007
338.37
337.719
337.241
337.345
337.809
338.496
339.342
339.984
340.679
341.06
341.265
341.009
340.373
339.58
338.534
337.592
336.88
336.603
336.716
337.32
332.543
332.009
331.57
331.683
332.073
332.656
333.332
333.893
334.488
334.772
334.99
334.734
334.173
333.54
332.664
331.843
331.232
331.005
331.117
331.598
326.686
326.246
325.892
325.976
326.302
326.776
327.315
327.788
328.282
328.476
328.674
328.425
327.971
327.469
326.748
326.114
325.579
325.39
325.507
325.859
320.795
320.461
320.175
320.24
320.499
320.876
321.281
321.647
322.043
322.167
322.328
322.133
321.756
321.383
320.828
320.385
319.907
319.749
319.891
320.126
314.88
314.645
314.422
314.467
314.667
314.949
315.214
315.496
315.76
315.865
315.964
315.811
315.556
315.281
314.883
314.572
314.223
314.111
314.231
314.419
308.959
308.802
308.673
308.692
308.806
308.999
309.145
309.32
309.469
309.529
309.587
309.498
309.317
309.174
308.95
308.756
308.542
308.489
308.563
308.686
303.025
302.953
302.904
302.9
302.954
303.012
303.065
303.126
303.165
303.183
303.21
303.181
303.119
303.077
303.003
302.936
302.862
302.847
302.874
302.906
344.664
344.008
343.396
343.505
344.144
344.847
345.975
346.992
347.91
348.408
348.549
348.241
347.461
346.493
345.202
344.059
343.117
342.694
342.842
343.46
338.79
338.273
337.732
337.85
338.377
338.976
339.915
340.791
341.588
341.995
342.129
341.84
341.175
340.328
339.217
338.216
337.419
337.06
337.195
337.677
332.868
332.493
332.002
332.124
332.557
333.036
333.841
334.588
335.247
335.555
335.679
335.444
334.877
334.145
333.248
332.382
331.718
331.386
331.523
331.911
326.924
326.639
326.237
326.346
326.688
327.077
327.731
328.342
328.895
329.106
329.216
329.059
328.551
327.955
327.251
326.535
326.005
325.71
325.841
326.139
320.961
320.743
320.435
320.538
320.805
321.082
321.606
322.079
322.537
322.645
322.739
322.646
322.229
321.75
321.206
320.677
320.255
320.028
320.132
320.355
314.992
314.846
314.601
314.71
314.894
315.076
315.468
315.785
316.132
316.19
316.258
316.198
315.905
315.547
315.159
314.78
314.47
314.33
314.413
314.563
309.012
308.914
308.762
308.836
308.941
309.045
309.303
309.48
309.701
309.722
309.775
309.734
309.558
309.342
309.114
308.876
308.686
308.631
308.678
308.754
303.024
302.981
302.922
302.951
302.995
303.027
303.12
303.173
303.261
303.265
303.284
303.259
303.209
303.131
303.046
302.966
302.907
302.905
302.908
302.931
345.282
344.612
344.131
344.241
344.774
345.703
346.952
348.012
348.836
349.382
349.643
349.451
348.619
347.521
346.308
345.114
344.092
343.539
343.699
344.16
339.356
338.806
338.354
338.469
338.909
339.713
340.756
341.673
342.379
342.829
343.065
342.888
342.152
341.22
340.152
339.136
338.27
337.777
337.916
338.267
333.361
332.949
332.523
332.639
333.016
333.678
334.541
335.294
335.908
336.26
336.46
336.315
335.692
334.925
333.989
333.135
332.438
331.997
332.119
332.399
327.354
327.025
326.633
326.748
327.058
327.613
328.317
328.907
329.39
329.689
329.836
329.742
329.225
328.619
327.83
327.106
326.578
326.204
326.3
326.52
321.34
321.05
320.711
320.848
321.082
321.518
322.035
322.522
322.879
323.103
323.221
323.153
322.757
322.304
321.667
321.068
320.704
320.382
320.454
320.632
315.277
315.058
314.809
314.913
315.1
315.399
315.751
316.094
316.348
316.506
316.612
316.573
316.261
315.959
315.49
315.045
314.808
314.57
314.597
314.748
309.174
309.056
308.903
308.97
309.086
309.243
309.465
309.67
309.843
309.906
309.989
309.962
309.767
309.575
309.309
309.031
308.906
308.751
308.749
308.858
303.082
303.036
302.979
303.005
303.05
303.101
303.168
303.245
303.307
303.322
303.351
303.342
303.274
303.196
303.124
303.02
302.977
302.924
302.922
302.972
346.282
345.515
345.03
345.146
345.697
346.681
347.832
348.921
350.009
350.587
350.798
350.615
349.709
348.669
347.433
346.103
345.099
344.555
344.487
345.064
340.214
339.535
339.134
339.224
339.69
340.53
341.527
342.483
343.384
343.853
344.029
343.878
343.098
342.218
341.156
339.994
339.128
338.65
338.573
339.084
334.075
333.525
333.176
333.25
333.632
334.35
335.205
335.999
336.734
337.117
337.268
337.161
336.495
335.741
334.879
333.858
333.133
332.735
332.666
333.099
327.931
327.484
327.189
327.272
327.581
328.126
328.843
329.503
330.077
330.367
330.508
330.419
329.879
329.273
328.566
327.715
327.119
326.803
326.743
327.098
321.765
321.395
321.158
321.245
321.478
321.874
322.487
322.972
323.41
323.607
323.745
323.677
323.257
322.812
322.216
321.577
321.086
320.867
320.803
321.096
315.59
315.294
315.137
315.182
315.359
315.636
316.106
316.441
316.729
316.824
316.973
316.935
316.633
316.349
315.872
315.409
315.065
314.92
314.876
315.107
309.387
309.192
309.103
309.128
309.235
309.403
309.679
309.889
310.048
310.087
310.184
310.162
309.999
309.82
309.532
309.248
309.059
308.958
308.938
309.086
303.148
303.082
303.055
303.059
303.088
303.165
303.259
303.314
303.359
303.373
303.395
303.399
303.354
303.285
303.205
303.1
303.028
303.004
302.997
303.04
347.199
346.509
346.042
346.263
346.812
347.689
348.858
350.006
351.233
351.827
352.103
351.778
351.017
349.906
348.487
347.213
346.224
345.566
345.605
346.114
340.985
340.418
340.015
340.203
340.66
341.407
342.407
343.386
344.437
344.938
345.18
344.904
344.234
343.28
342.054
340.957
340.105
339.517
339.545
339.953
334.735
334.273
333.932
334.076
334.478
335.081
335.954
336.775
337.615
338.042
338.26
338.023
337.451
336.647
335.616
334.718
333.96
333.462
333.495
333.806
328.481
328.091
327.804
327.931
328.247
328.713
329.471
330.136
330.777
331.115
331.318
331.125
330.628
330
329.172
328.461
327.8
327.408
327.442
327.663
322.182
321.882
321.654
321.755
322.01
322.35
322.964
323.442
323.921
324.202
324.375
324.212
323.831
323.356
322.705
322.151
321.62
321.338
321.331
321.514
315.89
315.654
315.478
315.555
315.757
315.972
316.415
316.743
317.079
317.301
317.428
317.293
317.028
316.692
316.243
315.811
315.447
315.256
315.223
315.382
309.563
309.413
309.3
309.349
309.469
309.586
309.846
310.046
310.264
310.397
310.477
310.381
310.235
310.027
309.768
309.494
309.278
309.15
309.133
309.241
303.224
303.162
303.119
303.133
303.18
303.214
303.318
303.359
303.433
303.482
303.515
303.482
303.434
303.365
303.276
303.175
303.108
303.076
303.06
303.11
348.234
347.529
347.203
347.442
348.05
348.794
349.995
351.234
352.371
353.101
353.415
353.076
352.246
351.089
349.764
348.565
347.411
346.743
346.699
347.068
341.864
341.284
341.003
341.188
341.727
342.352
343.402
344.431
345.399
346.026
346.297
345.997
345.271
344.262
343.157
342.128
341.122
340.526
340.464
340.782
335.453
335.021
334.768
334.907
335.353
335.892
336.769
337.628
338.426
338.963
339.166
338.904
338.319
337.456
336.556
335.678
334.834
334.305
334.245
334.489
329.033
328.726
328.509
328.615
328.962
329.408
330.127
330.798
331.455
331.898
332.055
331.834
331.386
330.655
329.914
329.205
328.53
328.067
328.03
328.198
322.6
322.391
322.221
322.301
322.577
322.908
323.465
323.957
324.458
324.829
324.948
324.777
324.443
323.843
323.261
322.736
322.226
321.833
321.83
321.938
316.166
316.038
315.899
315.95
316.16
316.377
316.766
317.125
317.452
317.759
317.838
317.703
317.475
317.044
316.601
316.236
315.864
315.591
315.606
315.676
309.718
309.649
309.575
309.597
309.706
309.838
310.055
310.294
310.48
310.672
310.711
310.633
310.501
310.245
309.971
309.749
309.523
309.361
309.368
309.424
303.265
303.243
303.221
303.226
303.252
303.291
303.363
303.446
303.513
303.584
303.596
303.567
303.512
303.438
303.337
303.267
303.189
303.136
303.139
303.164
349.301
348.684
348.436
348.556
349.135
349.874
351.16
352.337
353.433
354.218
354.532
354.258
353.522
352.208
350.91
349.655
348.69
348.012
347.938
348.301
342.784
342.273
342.067
342.18
342.647
343.283
344.395
345.41
346.326
347.001
347.253
347.015
346.384
345.243
344.14
343.042
342.244
341.619
341.543
341.843
336.208
335.819
335.672
335.773
336.134
336.681
337.624
338.45
339.212
339.811
339.967
339.792
339.249
338.268
337.371
336.435
335.78
335.239
335.148
335.39
329.629
329.325
329.211
329.343
329.587
330.061
330.813
331.496
332.094
332.599
332.696
332.579
332.116
331.313
330.574
329.825
329.294
328.854
328.767
328.932
323.06
322.814
322.744
322.864
323.044
323.406
323.985
324.52
324.957
325.36
325.431
325.375
324.964
324.364
323.789
323.201
322.809
322.437
322.37
322.471
316.513
316.299
316.257
316.34
316.482
316.731
317.146
317.541
317.831
318.124
318.181
318.16
317.817
317.437
316.991
316.584
316.31
316.015
315.981
316.063
309.941
309.787
309.763
309.811
309.91
310.043
310.298
310.539
310.701
310.878
310.937
310.93
310.688
310.484
310.219
309.982
309.796
309.629
309.588
309.655
303.339
303.282
303.271
303.289
303.317
303.37
303.45
303.541
303.579
303.644
303.671
303.674
303.58
303.512
303.429
303.341
303.286
303.23
303.207
303.231
350.56
349.982
349.772
349.766
350.358
351.039
352.218
353.399
354.417
355.248
355.565
355.286
354.517
353.391
352.069
350.813
349.977
349.388
349.338
349.509
343.892
343.414
343.229
343.225
343.734
344.291
345.314
346.318
347.17
347.904
348.151
347.894
347.254
346.291
345.135
344.015
343.337
342.801
342.75
342.893
337.186
336.791
336.651
336.64
337.074
337.527
338.388
339.228
339.922
340.539
340.721
340.524
339.987
339.178
338.191
337.241
336.693
336.218
336.167
336.301
330.464
330.148
330.004
330.046
330.377
330.743
331.459
332.121
332.671
333.179
333.309
333.171
332.723
332.061
331.256
330.47
330.037
329.643
329.594
329.701
323.738
323.471
323.359
323.408
323.642
323.934
324.507
324.983
325.412
325.834
325.908
325.826
325.449
324.958
324.322
323.685
323.388
323.068
323.008
323.095
316.992
316.787
316.709
316.749
316.896
317.116
317.535
317.856
318.149
318.478
318.523
318.469
318.172
317.849
317.383
316.91
316.719
316.492
316.439
316.495
310.215
310.089
310.042
310.07
310.164
310.286
310.549
310.727
310.876
311.104
311.129
311.093
310.914
310.727
310.438
310.148
310.059
309.91
309.869
309.905
303.42
303.393
303.368
303.382
303.399
303.445
303.532
303.59
303.65
303.728
303.731
303.706
303.654
303.591
303.493
303.396
303.379
303.331
303.306
303.324
351.783
351.235
350.868
350.899
351.505
352.221
353.33
354.447
355.317
356.07
356.406
356.232
355.55
354.535
353.187
351.93
351.27
350.552
350.464
350.705
344.954
344.474
344.142
344.18
344.676
345.306
346.297
347.208
347.967
348.593
348.877
348.691
348.123
347.263
346.11
345.013
344.447
343.817
343.754
343.901
338.074
337.657
337.417
337.447
337.852
338.394
339.233
339.956
340.592
341.13
341.335
341.184
340.741
340.007
339.015
338.104
337.641
337.088
337.048
337.122
331.19
330.863
330.671
330.683
331.001
331.457
332.16
332.691
333.207
333.676
333.838
333.701
333.36
332.742
331.93
331.19
330.805
330.383
330.323
330.369
324.268
324.038
323.871
323.909
324.119
324.494
325.052
325.45
325.821
326.213
326.309
326.226
325.953
325.477
324.845
324.277
323.975
323.675
323.597
323.644
317.348
317.168
317.047
317.091
317.247
317.513
317.929
318.194
318.437
318.744
318.795
318.74
318.54
318.211
317.761
317.346
317.131
316.942
316.856
316.913
310.416
310.306
310.232
310.285
310.354
310.518
310.78
310.931
311.072
311.255
311.27
311.246
311.122
310.95
310.67
310.421
310.296
310.183
310.12
310.178
303.488
303.444
303.417
303.442
303.481
303.522
303.613
303.664
303.699
303.776
303.778
303.771
303.725
303.674
303.579
303.497
303.453
303.411
303.394
303.406
353.037
352.415
352.139
352.329
352.79
353.389
354.287
355.421
356.227
356.94
357.343
357.099
356.357
355.435
354.295
353.108
352.424
351.766
351.777
352.041
346.017
345.478
345.268
345.412
345.826
346.312
347.113
348.032
348.745
349.359
349.69
349.46
348.833
348.057
347.043
346.023
345.464
344.883
344.879
345.082
338.978
338.523
338.38
338.479
338.819
339.235
339.927
340.633
341.267
341.785
342.05
341.822
341.338
340.646
339.787
338.954
338.482
338
337.995
338.131
331.93
331.552
331.447
331.519
331.801
332.132
332.745
333.255
333.788
334.196
334.405
334.191
333.832
333.271
332.551
331.886
331.499
331.109
331.103
331.206
324.843
324.577
324.478
324.546
324.759
325.013
325.517
325.887
326.301
326.605
326.77
326.587
326.326
325.891
325.304
324.79
324.489
324.216
324.195
324.278
317.751
317.566
317.484
317.569
317.699
317.892
318.261
318.493
318.815
319.002
319.146
318.988
318.819
318.496
318.082
317.711
317.481
317.33
317.283
317.362
310.666
310.55
310.512
310.561
310.631
310.746
310.97
311.094
311.317
311.401
311.498
311.399
311.316
311.115
310.878
310.628
310.492
310.411
310.393
310.437
303.578
303.535
303.524
303.537
303.565
303.608
303.684
303.714
303.787
303.828
303.845
303.81
303.786
303.718
303.656
303.57
303.519
303.492
303.476
303.5
354.246
353.58
353.485
353.351
353.84
354.488
355.402
356.261
357.109
357.655
358.077
357.948
357.264
356.267
355.22
354.198
353.534
352.987
352.988
353.301
347.068
346.519
346.444
346.295
346.717
347.257
348.065
348.77
349.496
349.962
350.34
350.212
349.606
348.745
347.841
346.989
346.408
345.942
345.904
346.155
339.861
339.412
339.351
339.222
339.569
340.018
340.692
341.267
341.855
342.267
342.61
342.487
341.94
341.24
340.458
339.78
339.3
338.893
338.819
339.032
332.641
332.297
332.223
332.128
332.404
332.748
333.313
333.775
334.221
334.614
334.876
334.767
334.328
333.739
333.097
332.542
332.171
331.823
331.734
331.93
325.429
325.162
325.069
325.016
325.232
325.486
325.921
326.281
326.624
326.943
327.149
327.046
326.709
326.264
325.734
325.328
325.033
324.74
324.653
324.827
318.192
317.993
317.919
317.899
318.038
318.233
318.512
318.775
319.035
319.254
319.412
319.347
319.083
318.773
318.392
318.108
317.879
317.673
317.603
317.747
310.929
310.81
310.759
310.769
310.821
310.941
311.106
311.271
311.442
311.55
311.671
311.613
311.47
311.278
311.045
310.865
310.728
310.605
310.574
310.673
303.665
303.624
303.606
303.62
303.622
303.672
303.713
303.779
303.84
303.867
303.924
303.896
303.843
303.775
303.698
303.641
303.592
303.546
303.55
303.578
355.39
354.938
354.63
354.765
355.067
355.576
356.184
357.049
357.998
358.565
358.758
358.711
358.042
357.096
356.083
355.349
354.573
354.07
354.142
354.519
348.046
347.675
347.402
347.532
347.786
348.216
348.712
349.461
350.274
350.754
350.918
350.879
350.329
349.477
348.6
347.985
347.315
346.856
346.902
347.234
340.696
340.385
340.139
340.277
340.478
340.826
341.236
341.875
342.541
342.949
343.079
343.053
342.585
341.868
341.113
340.595
340.046
339.656
339.701
339.96
333.327
333.064
332.872
332.989
333.134
333.426
333.752
334.27
334.795
335.142
335.247
335.234
334.839
334.258
333.652
333.216
332.77
332.459
332.486
332.704
325.95
325.729
325.588
325.681
325.796
326.003
326.257
326.662
327.06
327.316
327.412
327.408
327.091
326.642
326.174
325.839
325.5
325.262
325.29
325.451
318.582
318.374
318.281
318.37
318.434
318.566
318.736
319.055
319.33
319.516
319.566
319.59
319.35
319.059
318.698
318.455
318.241
318.048
318.086
318.186
311.173
311.048
310.979
311.036
311.076
311.134
311.244
311.449
311.587
311.715
311.74
311.767
311.618
311.462
311.24
311.071
310.964
310.847
310.866
310.928
303.747
303.705
303.671
303.7
303.706
303.733
303.768
303.841
303.887
303.92
303.935
303.945
303.888
303.849
303.768
303.699
303.673
303.632
303.642
303.663
356.704
356.118
355.83
355.916
356.114
356.63
357.288
358.025
358.799
359.283
359.492
359.434
358.763
357.952
357.096
356.322
355.573
355.196
355.261
355.712
349.174
348.702
348.437
348.51
348.69
349.094
349.684
350.333
350.96
351.382
351.576
351.501
350.915
350.24
349.496
348.811
348.149
347.829
347.89
348.279
341.62
341.271
341.016
341.092
341.25
341.572
342.077
342.605
343.131
343.481
343.649
343.579
343.083
342.531
341.881
341.309
340.732
340.469
340.514
340.861
334.061
333.82
333.599
333.652
333.786
334.041
334.451
334.859
335.314
335.579
335.716
335.65
335.247
334.835
334.254
333.804
333.318
333.101
333.143
333.449
326.523
326.36
326.173
326.197
326.295
326.488
326.816
327.135
327.466
327.686
327.773
327.729
327.431
327.106
326.627
326.292
325.904
325.757
325.785
326.028
318.961
318.85
318.707
318.712
318.803
318.925
319.177
319.4
319.635
319.791
319.845
319.817
319.62
319.379
319.023
318.772
318.514
318.416
318.431
318.61
311.413
311.342
311.238
311.24
311.302
311.36
311.528
311.639
311.788
311.888
311.917
311.904
311.807
311.628
311.432
311.281
311.133
311.065
311.079
311.188
303.825
303.814
303.768
303.764
303.785
303.813
303.871
303.907
303.958
303.98
303.998
303.995
303.965
303.898
303.838
303.785
303.732
303.698
303.712
303.754
358.039
357.532
357.095
357.016
357.301
357.801
358.354
358.926
359.517
359.911
360.003
360.057
359.551
358.839
357.954
357.219
356.782
356.411
356.6
357.106
350.353
349.903
349.533
349.456
349.689
350.142
350.621
351.118
351.605
351.936
352.008
352.059
351.619
351.002
350.237
349.591
349.202
348.889
349.055
349.502
342.643
342.274
341.959
341.893
342.064
342.468
342.861
343.281
343.671
343.958
344.017
344.055
343.674
343.176
342.533
341.958
341.643
341.362
341.5
341.898
334.927
334.608
334.352
334.271
334.436
334.777
335.072
335.427
335.72
335.972
336.02
336.046
335.734
335.336
334.804
334.329
334.082
333.841
333.966
334.296
327.194
326.927
326.738
326.647
326.816
327.068
327.295
327.577
327.784
327.991
328.029
328.065
327.817
327.526
327.096
326.731
326.511
326.331
326.431
326.706
319.446
319.268
319.132
319.037
319.189
319.354
319.517
319.715
319.828
319.996
320.037
320.053
319.883
319.682
319.358
319.114
318.943
318.815
318.897
319.101
311.687
311.574
311.478
311.441
311.538
311.624
311.739
311.847
311.905
312.021
312.04
312.056
311.938
311.828
311.643
311.49
311.376
311.304
311.331
311.479
303.911
303.874
303.844
303.83
303.862
303.892
303.938
303.97
303.99
304.034
304.034
304.043
304.004
303.964
303.908
303.859
303.812
303.788
303.793
303.845
359.389
358.804
358.386
358.124
358.354
358.821
359.299
359.777
360.374
360.705
360.738
360.715
360.341
359.789
359.037
358.364
357.942
357.577
357.85
358.275
351.504
351.012
350.636
350.425
350.586
350.992
351.41
351.817
352.328
352.604
352.634
352.627
352.305
351.815
351.195
350.566
350.215
349.898
350.131
350.482
343.623
343.2
342.861
342.696
342.803
343.161
343.498
343.851
344.275
344.506
344.514
344.541
344.268
343.837
343.327
342.796
342.499
342.23
342.408
342.685
335.725
335.355
335.082
334.966
335.01
335.315
335.572
335.892
336.212
336.431
336.413
336.454
336.23
335.855
335.448
335.052
334.771
334.563
334.714
334.902
327.803
327.512
327.259
327.223
327.224
327.477
327.663
327.925
328.162
328.349
328.332
328.381
328.196
327.88
327.573
327.273
327.046
326.898
327.017
327.147
319.869
319.654
319.472
319.473
319.431
319.645
319.785
319.974
320.117
320.279
320.257
320.301
320.152
319.934
319.719
319.496
319.322
319.238
319.316
319.397
311.936
311.807
311.701
311.721
311.649
311.81
311.876
311.996
312.079
312.192
312.178
312.183
312.106
311.969
311.865
311.71
311.618
311.566
311.599
311.645
304.01
303.96
303.915
303.923
303.896
303.969
303.979
304.02
304.054
304.084
304.075
304.085
304.058
304.014
303.982
303.935
303.893
303.88
303.895
303.906
360.692
359.985
359.564
359.442
359.51
359.86
360.222
360.829
361.185
361.434
361.442
361.408
361.092
360.519
359.83
359.259
359.052
358.87
359.104
359.432
352.598
352.027
351.639
351.539
351.587
351.909
352.192
352.713
353.019
353.257
353.247
353.205
352.953
352.433
351.854
351.354
351.174
351.003
351.223
351.468
344.508
344.049
343.73
343.625
343.654
343.95
344.175
344.591
344.86
345.062
345.015
345.007
344.811
344.364
343.908
343.483
343.307
343.151
343.332
343.513
336.444
336.059
335.784
335.701
335.728
335.972
336.145
336.48
336.706
336.883
336.82
336.804
336.668
336.304
335.919
335.615
335.439
335.301
335.451
335.575
328.375
328.075
327.834
327.765
327.802
327.972
328.127
328.354
328.537
328.696
328.614
328.613
328.513
328.25
327.929
327.728
327.564
327.463
327.585
327.659
320.307
320.088
319.891
319.817
319.849
319.99
320.093
320.239
320.397
320.488
320.433
320.443
320.365
320.18
319.958
319.809
319.68
319.627
319.696
319.761
312.211
312.093
311.937
311.906
311.906
312.022
312.075
312.142
312.266
312.273
312.264
312.275
312.207
312.135
311.999
311.893
311.819
311.782
311.812
311.867
304.09
304.057
304.003
303.979
303.991
304.025
304.047
304.061
304.114
304.101
304.109
304.112
304.093
304.068
304.033
303.994
303.962
303.955
303.952
303.975
361.813
361.179
360.732
360.445
360.622
360.805
361.19
361.619
361.879
362.086
362.194
362.093
361.705
361.244
360.756
360.234
359.979
360.018
360.192
360.498
353.559
353.023
352.628
352.385
352.544
352.684
353.03
353.399
353.626
353.802
353.88
353.794
353.448
353.074
352.618
352.162
351.944
352.022
352.135
352.379
345.318
344.871
344.506
344.311
344.455
344.571
344.881
345.183
345.379
345.52
345.598
345.487
345.229
344.912
344.481
344.109
343.932
344.012
344.116
344.27
337.067
336.742
336.415
336.251
336.389
336.448
336.734
336.967
337.131
337.252
337.305
337.179
337.014
336.755
336.372
336.075
335.905
335.994
336.079
336.189
328.832
328.611
328.327
328.202
328.31
328.335
328.567
328.742
328.897
328.981
329.019
328.908
328.795
328.601
328.31
328.069
327.914
327.999
328.055
328.108
320.616
320.46
320.252
320.151
320.239
320.238
320.398
320.534
320.658
320.708
320.725
320.67
320.577
320.429
320.247
320.051
319.945
320.004
320.047
320.067
312.389
312.3
312.178
312.106
312.175
312.151
312.236
312.322
312.42
312.422
312.461
312.42
312.344
312.269
312.171
312.034
311.979
312.004
312.04
312.038
304.148
304.125
304.091
304.066
304.077
304.069
304.107
304.125
304.16
304.16
304.168
304.166
304.139
304.11
304.079
304.036
304.012
304.019
304.028
304.034
362.74
362.207
361.649
361.367
361.445
361.547
361.909
362.242
362.47
362.684
362.801
362.589
362.296
361.966
361.53
361.039
360.753
360.945
361.062
361.396
354.325
353.875
353.377
353.138
353.208
353.273
353.624
353.917
354.101
354.272
354.372
354.157
353.917
353.661
353.27
352.82
352.595
352.744
352.842
353.106
345.938
345.567
345.153
344.94
345.013
345.045
345.342
345.621
345.754
345.887
345.97
345.769
345.565
345.364
345.023
344.645
344.468
344.595
344.661
344.858
337.587
337.294
336.928
336.743
336.806
336.843
337.096
337.325
337.414
337.489
337.578
337.4
337.249
337.078
336.807
336.485
336.365
336.457
336.517
336.668
329.228
329.013
328.722
328.56
328.615
328.647
328.848
329.032
329.076
329.138
329.205
329.059
328.958
328.828
328.624
328.345
328.261
328.346
328.398
328.501
320.877
320.718
320.516
320.386
320.445
320.47
320.619
320.728
320.767
320.811
320.844
320.752
320.694
320.582
320.447
320.229
320.19
320.24
320.264
320.348
312.537
312.441
312.316
312.229
312.294
312.3
312.383
312.442
312.479
312.494
312.522
312.448
312.436
312.355
312.276
312.156
312.132
312.151
312.164
312.22
304.199
304.169
304.127
304.097
304.125
304.131
304.149
304.163
304.183
304.187
304.196
304.167
304.167
304.141
304.119
304.08
304.071
304.064
304.081
304.094
)
;

boundaryField
{
    hotSide
    {
        type            fixedGradient;
        gradient        nonuniform List<scalar> 
400
(
456.249
456.454
459.292
464.682
472.347
481.886
492.877
504.934
517.741
531.056
544.703
558.565
572.575
586.707
600.97
615.407
630.08
645.059
660.403
676.14
441.862
442.393
445.739
451.802
460.243
470.59
482.353
495.104
508.501
522.292
536.297
550.403
564.549
578.721
592.943
607.274
621.799
636.61
651.788
667.373
435.096
436.242
440.159
446.739
455.638
466.384
478.486
491.512
505.113
519.03
533.083
547.159
561.202
575.205
589.201
603.261
617.479
631.957
646.782
662.006
435.43
437.465
442.033
449.017
458.117
468.923
480.993
493.923
507.377
521.096
534.899
548.673
562.367
575.979
589.551
603.157
616.893
630.86
645.145
659.802
440.922
444.017
449.343
456.772
466.049
476.829
488.733
501.399
514.512
527.822
541.152
554.396
567.511
580.505
593.432
606.373
619.426
632.69
646.25
660.167
449.35
453.587
459.792
467.819
477.434
488.331
500.169
512.615
525.371
538.198
550.931
563.476
575.813
587.975
600.035
612.094
624.26
636.638
649.316
662.364
458.844
464.25
471.44
480.25
490.437
501.702
513.708
526.118
538.632
551.011
563.102
574.84
586.241
597.384
608.384
619.374
630.487
641.841
653.535
665.642
467.922
474.464
482.696
492.433
503.412
515.309
527.756
540.377
552.832
564.863
576.325
587.194
597.549
607.539
617.346
627.153
637.126
647.401
658.087
669.259
475.369
482.921
492.15
502.853
514.747
527.466
540.584
553.647
566.24
578.052
588.941
598.938
608.214
617.02
625.619
634.255
643.128
652.391
662.157
672.5
480.179
488.485
498.508
510.04
522.78
536.326
550.183
563.805
576.672
588.4
598.836
608.08
616.413
624.194
631.774
639.449
647.444
655.922
664.994
674.727
481.623
490.284
500.72
512.723
525.982
540.073
554.456
568.514
581.645
593.403
603.624
612.456
620.26
627.473
634.497
641.659
649.198
657.281
666.015
675.463
479.373
487.9
498.248
510.209
523.467
537.591
552.035
566.176
579.412
591.291
601.647
610.619
618.56
625.898
633.037
640.302
647.939
656.115
664.944
674.49
473.623
481.534
491.308
502.737
515.504
529.184
543.258
557.161
570.357
582.45
593.273
602.904
611.606
619.726
627.612
635.566
643.824
652.563
661.902
671.916
465.111
472.028
480.885
491.479
503.495
516.524
530.086
543.681
556.855
569.267
580.748
591.306
601.096
610.361
619.37
628.38
637.613
647.244
657.402
668.173
455.07
460.759
468.541
478.222
489.491
501.94
515.109
528.539
541.822
554.65
566.845
578.363
589.276
599.739
609.951
620.124
630.458
641.126
652.262
663.958
445.192
449.56
456.259
465.113
475.794
487.869
500.861
514.313
527.831
541.118
553.985
566.357
578.254
589.772
601.063
612.304
623.68
635.363
647.49
660.155
437.665
440.739
446.437
454.597
464.855
476.721
489.672
503.228
516.993
530.673
544.076
557.111
569.768
582.111
594.258
606.368
618.618
631.182
644.203
657.772
435.069
437.014
441.822
449.346
459.184
470.791
483.606
497.131
510.972
524.841
538.548
551.994
565.154
578.07
590.838
603.6
616.527
629.793
643.545
657.867
439.681
440.796
444.819
451.617
460.8
471.83
484.157
497.3
510.877
524.611
538.316
551.887
565.287
578.541
591.724
604.956
618.39
632.185
646.477
661.336
452.231
452.851
456.182
462.118
470.339
480.394
491.809
504.154
517.082
530.33
543.716
557.13
570.523
583.899
597.31
610.848
624.633
638.79
653.421
668.581
)
;
    }
    coldSide
    {
        type            mixed;
        refValue        uniform 300;
        refGradient     uniform 0;
        valueFraction   uniform 0.991591;
        source          uniform 0;
        value           nonuniform List<scalar> 
400
(
300.025
300.025
300.025
300.025
300.026
300.026
300.027
300.027
300.028
300.029
300.029
300.03
300.031
300.032
300.032
300.033
300.034
300.034
300.035
300.035
300.025
300.025
300.025
300.025
300.026
300.026
300.027
300.027
300.028
300.029
300.029
300.03
300.03
300.031
300.032
300.033
300.033