/*--------------------------------*- C++ -*----------------------------------*\
| =========                 |                                                 |
| \\      /  F ield         | OpenFOAM: The Open Source CFD Toolbox           |
|  \\    /   O peration     | Version:  2212                                  |
|   \\  /    A nd           | Website:  www.openfoam.com                      |
|    \\/     M anipulation  |                                                 |
\*---------------------------------------------------------------------------*/
FoamFile
{
    version     2.0;
    format      ascii;
    arch        "LSB;label=32;scalar=64";
    class       volScalarField;
    location    "0";
    object      stateMean;
}
// * * * * * * * * * * * * * * * * * * * * * * * * * * * * * * * * * * * * * //

dimensions      [0 0 0 1 0 0 0];

internalField   nonuniform List<scalar> 
3200
(
343.294
344.189
345.02
345.912
346.654
347.253
347.69
347.965
348.171
348.287
348.145
347.868
347.541
346.955
346.338
345.595
344.756
343.775
342.822
341.757
337.501
338.27
339.055
339.793
340.374
340.931
341.324
341.562
341.717
341.781
341.663
341.535
341.165
340.724
340.258
339.565
338.776
337.885
337.098
336.276
331.742
332.266
333.038
333.615
334.173
334.563
334.927
335.189
335.346
335.358
335.331
335.076
334.793
334.45
333.978
333.556
332.814
332.101
331.371
330.735
325.997
326.489
326.974
327.535
327.904
328.303
328.449
328.731
328.871
328.935
328.871
328.717
328.543
328.178
327.826
327.415
326.885
326.254
325.708
325.173
320.201
320.52
320.989
321.398
321.75
322.02
322.22
322.408
322.565
322.487
322.413
322.307
322.086
321.95
321.663
321.301
320.944
320.454
319.975
319.598
314.469
314.681
314.963
315.31
315.53
315.751
315.891
316.008
316.133
316.049
316.042
315.967
315.762
315.684
315.469
315.25
314.927
314.589
314.239
313.954
308.627
308.841
309.069
309.166
309.302
309.487
309.526
309.66
309.65
309.606
309.593
309.619
309.503
309.443
309.389
309.109
309
308.878
308.598
308.431
302.87
302.926
302.974
303.075
303.106
303.135
303.17
303.157
303.263
303.235
303.218
303.231
303.199
303.129
303.096
303.099
303.087
302.92
302.804
302.867
344.141
345.028
345.881
346.732
347.492
348.099
348.633
348.903
349.094
349.105
349.025
348.822
348.461
347.875
347.207
346.49
345.674
344.572
343.574
342.583
338.189
338.926
339.656
340.51
341.047
341.63
342.046
342.351
342.543
342.515
342.386
342.321
341.926
341.504
340.883
340.232
339.466
338.603
337.713
336.884
332.322
332.836
333.592
334.23
334.74
335.171
335.587
335.823
335.906
335.91
335.821
335.684
335.455
335.053
334.548
334.077
333.317
332.699
331.919
331.221
326.38
326.873
327.423
327.97
328.339
328.742
329.016
329.26
329.459
329.388
329.28
329.241
328.983
328.581
328.269
327.841
327.295
326.772
326.137
325.524
320.526
320.896
321.349
321.702
322.022
322.417
322.627
322.683
322.809
322.877
322.746
322.682
322.557
322.338
321.989
321.664
321.248
320.745
320.315
319.864
314.658
314.876
315.186
315.538
315.739
315.945
316.103
316.298
316.271
316.317
316.285
316.215
316.123
315.91
315.754
315.498
315.216
314.911
314.578
314.172
308.803
309.023
309.203
309.232
309.495
309.569
309.666
309.819
309.821
309.812
309.781
309.702
309.622
309.544
309.43
309.275
309.144
309.042
308.668
308.593
302.975
302.998
303.055
303.155
303.192
303.232
303.25
303.263
303.248
303.293
303.239
303.288
303.225
303.132
303.19
303.107
303.054
302.956
302.962
302.879
345.125
346.091
346.989
347.934
348.631
349.203
349.76
350.14
350.283
350.4
350.161
349.952
349.642
349.027
348.389
347.693
346.719
345.722
344.641
343.663
339.059
339.758
340.607
341.404
342.086
342.547
343.055
343.354
343.572
343.555
343.501
343.238
342.961
342.466
341.908
341.187
340.432
339.572
338.57
337.819
332.961
333.596
334.346
334.947
335.607
336.02
336.367
336.686
336.766
336.808
336.751
336.47
336.278
335.837
335.507
334.814
334.191
333.459
332.671
331.97
327.024
327.454
328.061
328.569
329.055
329.373
329.761
329.93
330.072
330.053
329.989
329.867
329.707
329.356
328.895
328.509
327.919
327.349
326.722
326.229
320.939
321.358
321.767
322.24
322.531
322.855
323.153
323.245
323.366
323.341
323.351
323.227
323.059
322.812
322.488
322.15
321.767
321.287
320.772
320.322
314.919
315.278
315.611
315.943
316.163
316.277
316.561
316.634
316.675
316.745
316.644
316.597
316.452
316.284
316.076
315.791
315.516
315.235
314.903
314.567
308.991
309.119
309.397
309.466
309.7
309.778
309.918
309.999
310.02
310.038
309.91
309.964
309.9
309.812
309.68
309.499
309.361
309.077
308.837
308.751
303.111
303.066
303.092
303.146
303.211
303.279
303.263
303.397
303.365
303.361
303.334
303.285
303.369
303.276
303.203
303.166
303.154
303.026
303.033
302.902
346.26
347.188
348.163
349.015
349.846
350.492
350.997
351.398
351.566
351.608
351.53
351.299
350.899
350.305
349.602
348.85
347.947
346.844
345.792
344.758
340.041
340.764
341.708
342.42
343.172
343.694
344.122
344.411
344.582
344.628
344.526
344.348
343.981
343.482
342.993
342.24
341.417
340.593
339.662
338.733
333.834
334.486
335.183
335.867
336.452
336.897
337.243
337.57
337.693
337.741
337.594
337.461
337.157
336.816
336.329
335.687
335.045
334.279
333.549
332.791
327.644
328.172
328.711
329.305
329.73
330.205
330.437
330.648
330.773
330.789
330.779
330.614
330.397
330.092
329.663
329.249
328.623
328.044
327.417
326.85
321.47
321.91
322.325
322.702
323.093
323.438
323.674
323.776
323.97
323.976
323.895
323.721
323.652
323.386
323.089
322.693
322.249
321.761
321.221
320.846
315.351
315.613
315.865
316.201
316.486
316.738
316.898
317.004
317.099
317.139
317.084
316.912
316.829
316.657
316.413
316.199
315.921
315.582
315.197
314.926
309.216
309.378
309.546
309.777
309.975
310.07
310.15
310.212
310.255
310.259
310.287
310.214
310.123
309.978
309.847
309.73
309.583
309.339
309.137
308.973
303.122
303.146
303.19
303.219
303.334
303.421
303.437
303.479
303.473
303.364
303.345
303.336
303.477
303.339
303.302
303.303
303.202
303.086
303.087
303.001
347.43
348.316
349.359
350.328
351.073
351.773
352.24
352.574
352.782
352.887
352.756
352.56
352.129
351.548
350.901
350.068
349.128
348.063
346.903
345.859
340.929
341.78
342.632
343.421
344.165
344.766
345.172
345.481
345.611
345.774
345.653
345.475
345.151
344.627
344.039
343.327
342.502
341.565
340.587
339.767
334.635
335.208
335.973
336.705
337.309
337.823
338.188
338.415
338.597
338.628
338.513
338.309
338.059
337.67
337.165
336.656
335.852
335.051
334.273
333.628
328.325
328.888
329.411
330.018
330.456
330.895
331.249
331.397
331.465
331.539
331.478
331.435
331.092
330.795
330.413
329.894
329.398
328.655
328.029
327.456
322.025
322.404
322.919
323.253
323.698
323.958
324.268
324.396
324.546
324.553
324.544
324.423
324.176
324.011
323.664
323.227
322.817
322.346
321.834
321.378
315.801
315.988
316.322
316.604
316.873
317.086
317.324
317.432
317.455
317.528
317.504
317.416
317.235
317.154
316.906
316.63
316.348
315.984
315.604
315.258
309.407
309.627
309.788
309.961
310.107
310.322
310.346
310.405
310.573
310.475
310.535
310.434
310.398
310.357
310.185
310.023
309.718
309.562
309.325
309.225
303.106
303.291
303.329
303.289
303.442
303.393
303.494
303.434
303.463
303.522
303.526
303.469
303.453
303.482
303.372
303.276
303.277
303.245
303.112
303.073
348.421
349.402
350.451
351.44
352.257
352.89
353.368
353.847
354.111
354.044
354.095
353.785
353.311
352.773
352.077
351.265
350.276
349.166
347.996
346.898
341.943
342.692
343.559
344.429
345.243
345.737
346.2
346.617
346.698
346.74
346.674
346.521
346.134
345.64
345.097
344.321
343.527
342.526
341.487
340.623
335.426
336.097
336.85
337.489
338.165
338.596
338.985
339.328
339.371
339.573
339.521
339.263
339.05
338.544
338.05
337.423
336.73
335.934
335.064
334.387
328.948
329.424
330.107
330.636
331.127
331.556
331.845
332.126
332.237
332.266
332.274
332.101
331.843
331.481
331.097
330.658
330.04
329.376
328.684
328.144
322.542
322.849
323.392
323.848
324.183
324.475
324.713
324.952
325.047
325.101
325.058
324.892
324.721
324.477
324.205
323.821
323.376
322.816
322.379
321.91
316.074
316.34
316.653
317.025
317.302
317.545
317.664
317.802
317.874
317.825
317.898
317.84
317.674
317.552
317.274
317.008
316.67
316.292
315.973
315.542
309.689
309.833
310.063
310.236
310.349
310.467
310.633
310.719
310.691
310.815
310.761
310.675
310.607
310.477
310.331
310.184
310.043
309.752
309.533
309.38
303.279
303.294
303.414
303.338
303.441
303.525
303.588
303.626
303.574
303.613
303.57
303.503
303.615
303.486
303.509
303.35
303.379
303.195
303.267
303.141
349.457
350.456
351.51
352.519
353.368
353.995
354.67
354.996
355.235
355.278
355.156
354.933
354.569
353.966
353.194
352.384
351.326
350.267
349.026
347.972
342.76
343.594
344.53
345.439
346.142
346.711
347.141
347.496
347.725
347.763
347.73
347.468
347.118
346.683
345.968
345.31
344.428
343.473
342.441
341.515
336.115
336.843
337.669
338.324
338.827
339.459
339.865
340.133
340.307
340.34
340.343
340.13
339.787
339.409
338.852
338.292
337.554
336.804
335.861
335.146
329.529
330.093
330.75
331.317
331.88
332.22
332.569
332.769
332.927
332.961
332.929
332.812
332.539
332.278
331.818
331.308
330.629
330.024
329.322
328.778
322.915
323.384
323.887
324.373
324.69
325.059
325.249
325.512
325.578
325.646
325.637
325.465
325.294
325.014
324.692
324.26
323.905
323.315
322.764
322.296
316.422
316.744
317.097
317.42
317.676
317.862
318.084
318.189
318.314
318.345
318.358
318.199
318.077
317.846
317.612
317.367
317.08
316.686
316.332
315.989
309.833
310.018
310.192
310.444
310.568
310.702
310.759
310.901
310.988
310.994
310.989
310.964
310.826
310.727
310.565
310.444
310.215
310.043
309.737
309.525
303.229
303.326
303.44
303.429
303.546
303.59
303.652
303.679
303.596
303.686
303.671
303.625
303.639
303.655
303.587
303.554
303.376
303.383
303.328
303.216
350.384
351.439
352.541
353.522
354.447
355.062
355.658
356.02
356.349
356.405
356.28
356.022
355.559
355.044
354.305
353.395
352.367
351.31
350.035
348.959
343.544
344.451
345.447
346.294
346.974
347.688
348.114
348.465
348.699
348.722
348.695
348.453
348.078
347.584
346.895
346.164
345.322
344.358
343.317
342.383
336.786
337.539
338.369
339.047
339.684
340.198
340.616
340.947
341.127
341.198
341.213
340.887
340.633
340.203
339.669
339.056
338.259
337.392
336.583
335.859
330.097
330.661
331.345
331.915
332.419
332.906
333.232
333.472
333.589
333.622
333.617
333.49
333.159
332.845
332.415
331.839
331.288
330.662
329.934
329.392
323.451
323.872
324.361
324.797
325.27
325.532
325.707
325.929
326.096
326.166
326.121
325.99
325.796
325.568
325.204
324.785
324.343
323.707
323.213
322.793
316.748
317.047
317.343
317.753
317.96
318.206
318.498
318.596
318.693
318.656
318.696
318.585
318.458
318.217
318.007
317.657
317.339
316.981
316.635
316.267
310.039
310.21
310.404
310.582
310.896
310.877
311.025
311.134
311.209
311.205
311.232
311.097
311.071
310.869
310.72
310.601
310.519
310.197
310.024
309.72
303.351
303.475
303.502
303.518
303.671
303.673
303.725
303.707
303.773
303.773
303.721
303.791
303.714
303.674
303.548
303.561
303.439
303.466
303.325
303.252
351.261
352.358
353.459
354.454
355.359
356.096
356.662
357.075
357.336
357.354
357.289
357.027
356.649
355.968
355.299
354.421
353.369
352.216
351.006
349.724
344.353
345.225
346.164
347.095
347.834
348.512
348.91
349.345
349.604
349.674
349.569
349.386
348.934
348.463
347.816
347.001
346.243
345.196
344.069
343.148
337.46
338.154
338.988
339.741
340.375
340.96
341.391
341.611
341.86
341.931
341.819
341.627
341.358
340.965
340.34
339.694
339.042
338.173
337.261
336.521
330.668
331.119
331.913
332.497
333.023
333.46
333.792
334.034
334.189
334.246
334.304
334.03
333.755
333.505
332.983
332.441
331.887
331.163
330.472
329.838
323.819
324.258
324.748
325.243
325.605
325.972
326.29
326.461
326.576
326.563
326.584
326.454
326.224
325.992
325.654
325.294
324.774
324.262
323.747
323.204
316.997
317.295
317.691
318.005
318.265
318.622
318.763
318.912
318.99
318.984
318.977
318.88
318.765
318.572
318.334
317.986
317.768
317.301
316.918
316.559
310.229
310.4
310.641
310.827
311.005
311.137
311.259
311.327
311.413
311.459
311.414
311.329
311.234
311.127
310.922
310.792
310.62
310.413
310.11
309.993
303.363
303.379
303.549
303.579
303.667
303.7
303.761
303.815
303.785
303.784
303.819
303.757
303.844
303.792
303.712
303.61
303.58
303.473
303.326
303.328
352.095
353.149
354.344
355.381
356.294
356.983
357.644
358.044
358.251
358.391
358.287
358.016
357.523
356.964
356.213
355.332
354.203
353.006
351.779
350.665
345.03
345.995
346.916
347.92
348.608
349.349
349.771
350.148
350.367
350.415
350.333
350.166
349.805
349.274
348.636
347.801
346.88
345.912
344.93
343.878
338.044
338.746
339.634
340.416
341.058
341.603
342.002
342.322
342.548
342.63
342.466
342.363
342.005
341.627
341.048
340.469
339.675
338.753
337.855
337.081
331.119
331.684
332.385
333.073
333.51
333.984
334.36
334.621
334.785
334.831
334.728
334.582
334.342
334.035
333.582
333.076
332.404
331.682
330.994
330.262
324.115
324.628
325.123
325.666
326.069
326.393
326.711
326.915
327.039
327.081
327.068
326.905
326.685
326.358
326.119
325.634
325.171
324.606
324.027
323.606
317.191
317.59
318.014
318.289
318.622
318.854
319.095
319.143
319.321
319.35
319.213
319.135
319.101
318.901
318.676
318.329
318.025
317.595
317.241
316.846
310.423
310.577
310.804
311.046
311.144
311.304
311.401
311.553
311.584
311.565
311.629
311.468
311.451
311.359
311.174
311.013
310.721
310.591
310.336
310.118
303.426
303.497
303.619
303.618
303.712
303.861
303.835
303.807
303.892
303.905
303.884
303.893
303.782
303.818
303.697
303.667
303.6
303.545
303.442
303.316
352.817
353.885
355.041
356.144
357.057
357.86
358.46
358.848
359.1
359.16
359.084
358.785
358.398
357.8
357.102
356.156
355.06
353.846
352.549
351.425
345.643
346.591
347.647
348.513
349.409
350.017
350.551
350.895
351.128
351.225
351.077
350.834
350.448
350.037
349.34
348.537
347.56
346.548
345.462
344.487
338.598
339.433
340.223
341.05
341.724
342.216
342.737
343.007
343.126
343.259
343.105
343.033
342.626
342.296
341.669
341.03
340.248
339.371
338.461
337.665
331.536
332.221
332.896
333.496
333.972
334.514
334.85
335.085
335.255
335.369
335.253
335.079
334.843
334.532
333.974
333.497
332.825
332.178
331.365
330.725
324.442
324.962
325.494
325.988
326.47
326.776
327.053
327.239
327.377
327.425
327.48
327.307
327.051
326.798
326.459
326.015
325.595
324.977
324.44
323.992
317.489
317.893
318.211
318.52
318.88
319.095
319.314
319.446
319.592
319.611
319.588
319.437
319.278
319.149
318.918
318.686
318.279
317.787
317.424
317.101
310.524
310.698
310.854
311.166
311.316
311.513
311.643
311.673
311.754
311.76
311.755
311.692
311.602
311.425
311.318
311.184
310.96
310.709
310.464
310.288
303.472
303.59
303.684
303.753
303.865
303.89
303.893
303.94
303.929
303.945
303.971
303.9
303.878
303.941
303.843
303.763
303.669
303.547
303.481
303.488
353.458
354.548
355.787
356.912
357.778
358.613
359.166
359.708
359.908
359.93
359.853
359.614
359.144
358.592
357.782
356.833
355.756
354.505
353.253
352.062
346.24
347.181
348.144
349.104
349.977
350.625
351.087
351.52
351.757
351.895
351.781
351.568
351.14
350.68
349.977
349.198
348.214
347.203
346.04
345.081
339.052
339.851
340.648
341.523
342.183
342.804
343.164
343.569
343.72
343.81
343.783
343.482
343.264
342.775
342.215
341.586
340.745
339.931
338.923
338.141
331.863
332.513
333.227
333.921
334.466
334.894
335.256
335.56
335.72
335.733
335.719
335.637
335.275
334.964
334.52
333.893
333.311
332.547
331.85
331.196
324.844
325.277
325.817
326.336
326.728
327.123
327.438
327.666
327.689
327.81
327.788
327.712
327.387
327.136
326.786
326.436
325.923
325.434
324.755
324.237
317.74
318.093
318.415
318.754
319.182
319.392
319.578
319.738
319.842
319.796
319.869
319.748
319.554
319.393
319.214
318.832
318.493
318.099
317.7
317.316
310.688
310.882
311.045
311.28
311.518
311.602
311.778
311.835
311.85
311.882
311.874
311.874
311.734
311.611
311.52
311.354
311.093
310.879
310.625
310.457
303.56
303.522
303.675
303.78
303.841
303.867
303.898
303.971
303.973
304.017
303.978
304.028
303.93
303.908
303.853
303.819
303.69
303.674
303.612
303.518
354.099
355.155
356.37
357.426
358.462
359.24
359.872
360.319
360.511
360.613
360.558
360.279
359.831
359.171
358.463
357.505
356.371
355.124
353.898
352.623
346.688
347.733
348.734
349.676
350.501
351.194
351.752
352.091
352.341
352.372
352.372
352.087
351.71
351.204
350.558
349.759
348.798
347.769
346.665
345.615
339.516
340.216
341.1
341.945
342.669
343.279
343.708
344.031
344.17
344.221
344.212
343.997
343.695
343.273
342.737
342.041
341.12
340.316
339.434
338.513
332.284
332.956
333.578
334.298
334.833
335.357
335.67
335.924
336.097
336.159
336.108
336.001
335.699
335.34
334.923
334.26
333.681
332.976
332.194
331.642
325.134
325.517
326.06
326.66
327.078
327.412
327.717
327.914
328.079
328.095
328.113
327.98
327.745
327.553
327.113
326.761
326.155
325.647
325.004
324.464
317.883
318.288
318.646
319.049
319.302
319.593
319.798
319.973
320.066
320.065
320.059
319.979
319.835
319.624
319.308
319.069
318.644
318.27
317.882
317.57
310.716
310.928
311.191
311.446
311.592
311.766
311.859
311.917
312.014
312.056
312.003
312.01
311.918
311.778
311.607
311.435
311.207
310.967
310.744
310.526
303.536
303.711
303.762
303.866
303.922
303.922
303.996
304.041
304.032
304.031
304.026
303.935
303.94
303.97
303.9
303.876
303.792
303.633
303.66
303.509
354.506
355.682
356.828
358.08
358.952
359.741
360.453
360.879
361.159
361.216
361.03
360.874
360.442
359.747
358.985
358.045
356.946
355.716
354.393
353.118
347.157
348.211
349.159
350.068
350.939
351.699
352.17
352.592
352.805
352.918
352.893
352.645
352.269
351.643
351.009
350.107
349.289
348.182
347.068
346.086
339.831
340.584
341.514
342.368
343.018
343.589
344.112
344.444
344.531
344.713
344.649
344.381
344.116
343.679
343.127
342.417
341.598
340.702
339.751
338.982
332.524
333.11
333.903
334.505
335.102
335.681
336.012
336.35
336.392
336.519
336.473
336.357
336.021
335.738
335.22
334.71
334.045
333.196
332.508
331.866
325.261
325.837
326.369
326.868
327.368
327.701
328.037
328.234
328.311
328.429
328.35
328.279
328.052
327.668
327.417
326.967
326.458
325.885
325.215
324.744
318.149
318.38
318.801
319.176
319.481
319.76
320.012
320.096
320.233
320.299
320.235
320.14
320.013
319.799
319.532
319.268
318.947
318.44
318.057
317.663
310.819
311.032
311.31
311.481
311.673
311.877
311.99
312.07
312.207
312.194
312.206
312.102
311.996
311.927
311.779
311.594
311.377
311.018
310.859
310.651
303.63
303.707
303.777
303.772
303.904
304.013
304.02
304.04
304.09
304.093
304.061
304.07
304.068
303.975
303.917
303.922
303.797
303.775
303.634
303.567
354.917
356.055
357.314
358.495
359.345
360.199
360.88
361.3
361.635
361.716
361.557
361.342
360.83
360.222
359.455
358.536
357.37
356.078
354.776
353.596
347.446
348.439
349.534
350.438
351.301
352.017
352.559
353.028
353.256
353.331
353.304
353.018
352.712
352.126
351.466
350.58
349.621
348.544
347.431
346.385
340.117
340.893
341.804
342.599
343.372
343.91
344.449
344.794
344.919
345.07
344.975
344.756
344.406
343.933
343.392
342.766
341.927
340.979
340.073
339.253
332.801
333.385
334.127
334.774
335.394
335.957
336.295
336.558
336.693
336.792
336.781
336.617
336.322
335.995
335.582
334.875
334.268
333.591
332.769
332.096
325.435
326
326.456
327.065
327.535
327.889
328.205
328.345
328.562
328.527
328.596
328.464
328.22
327.973
327.608
327.194
326.591
326.044
325.508
324.859
318.165
318.527
318.973
319.317
319.592
319.932
320.159
320.312
320.356
320.421
320.392
320.242
320.166
320.004
319.721
319.419
319.026
318.625
318.236
317.841
310.874
311.121
311.39
311.627
311.831
312.032
312.065
312.209
312.286
312.215
312.18
312.183
312.059
311.917
311.876
311.645
311.416
311.189
310.898
310.674
303.652
303.723
303.86
303.889
304.016
304.035
304.015
304.094
304.109
304.095
304.049
304.08
304.073
304.114
303.961
303.882
303.819
303.791
303.665
303.625
355.227
356.359
357.542
358.733
359.764
360.58
361.176
361.677
361.956
362.017
361.908
361.703
361.257
360.605
359.818
358.82
357.722
356.429
355.104
353.858
347.834
348.694
349.798
350.677
351.585
352.371
352.888
353.238
353.536
353.595
353.578
353.359
352.965
352.369
351.695
350.893
349.953
348.769
347.673
346.664
340.289
341.136
342.042
342.882
343.577
344.279
344.692
344.981
345.226
345.251
345.154
345.055
344.701
344.264
343.638
343.018
342.158
341.245
340.309
339.511
332.899
333.573
334.318
334.961
335.602
336.15
336.481
336.744
336.977
336.957
337.007
336.793
336.56
336.237
335.705
335.136
334.451
333.738
332.9
332.341
325.633
326.108
326.648
327.233
327.659
327.965
328.409
328.577
328.712
328.825
328.689
328.656
328.372
328.164
327.813
327.26
326.78
326.217
325.66
325.079
318.321
318.628
319.032
319.45
319.804
320.056
320.239
320.446
320.53
320.58
320.569
320.385
320.263
320.054
319.821
319.504
319.118
318.681
318.297
317.947
310.923
311.221
311.35
311.715
311.848
312.001
312.152
312.225
312.297
312.29
312.368
312.269
312.157
312.067
311.813
311.695
311.451
311.139
310.915
310.771
303.62
303.741
303.829
303.885
303.957
304.035
304.06
304.121
304.067
304.129
304.163
304.065
304.112
304.044
303.985
303.871
303.822
303.779
303.737
303.658
355.37
356.572
357.872
359.008
359.916
360.834
361.449
361.959
362.182
362.263
362.265
361.933
361.589
360.909
360.067
359.062
357.942
356.744
355.332
354.177
347.981
348.903
350.046
350.985
351.838
352.521
353.13
353.595
353.788
353.828
353.891
353.544
353.191
352.667
351.942
351.068
350.141
349.083
347.901
346.929
340.501
341.338
342.19
343.063
343.71
344.347
344.863
345.271
345.384
345.455
345.425
345.18
344.858
344.461
343.928
343.141
342.315
341.427
340.468
339.609
333.078
333.753
334.496
335.202
335.767
336.287
336.649
336.94
337.107
337.21
337.209
337.022
336.7
336.31
335.937
335.271
334.595
333.898
333.147
332.37
325.779
326.223
326.827
327.319
327.816
328.129
328.444
328.72
328.846
328.816
328.902
328.689
328.46
328.22
327.873
327.444
326.911
326.378
325.706
325.205
318.364
318.723
319.122
319.445
319.816
320.036
320.291
320.455
320.576
320.612
320.526
320.572
320.375
320.19
319.878
319.572
319.191
318.8
318.379
318.032
310.996
311.296
311.514
311.674
311.877
312.068
312.212
312.234
312.417
312.344
312.349
312.34
312.283
312.116
311.984
311.711
311.569
311.298
311.022
310.812
303.729
303.829
303.898
303.881
304.01
304.096
304.101
304.125
304.128
304.199
304.123
304.096
304.072
304.068
303.942
303.984
303.858
303.793
303.708
303.682
355.533
356.651
357.949
359.063
360.08
360.896
361.537
362.076
362.36
362.404
362.417
362.156
361.686
361.091
360.2
359.34
358.154
356.938
355.547
354.254
347.993
348.962
350.049
351.1
351.875
352.666
353.226
353.689
353.908
354.001
353.879
353.709
353.303
352.774
352.082
351.307
350.272
349.187
348.142
347.002
340.615
341.42
342.254
343.159
343.802
344.461
344.967
345.34
345.504
345.629
345.567
345.41
345.004
344.615
344.009
343.317
342.459
341.571
340.65
339.807
333.114
333.756
334.591
335.264
335.763
336.373
336.759
337.048
337.185
337.273
337.259
337.109
336.792
336.358
335.904
335.413
334.742
333.971
333.176
332.482
325.788
326.336
326.757
327.383
327.887
328.218
328.525
328.689
328.881
328.998
328.996
328.819
328.589
328.294
327.925
327.542
326.98
326.41
325.77
325.243
318.461
318.756
319.16
319.578
319.884
320.185
320.402
320.484
320.601
320.668
320.656
320.544
320.423
320.218
319.986
319.633
319.281
318.795
318.496
318.047
311.032
311.236
311.585
311.773
311.94
312.089
312.234
312.339
312.341
312.434
312.364
312.385
312.285
312.084
311.977
311.828
311.57
311.308
311.066
310.823
303.686
303.739
303.852
303.892
304.03
303.999
304.149
304.213
304.144
304.167
304.133
304.188
304.096
304.093
304.083
304.004
303.823
303.778
303.803
303.611
355.576
356.687
358.007
359.13
360.175
360.952
361.687
362.091
362.359
362.503
362.446
362.228
361.76
361.113
360.335
359.365
358.145
356.94
355.57
354.355
348.002
349.024
350.168
351.142
351.996
352.685
353.32
353.735
353.943
354.106
354.014
353.79
353.359
352.834
352.197
351.299
350.395
349.281
348.036
347.039
340.674
341.411
342.3
343.146
343.914
344.506
344.984
345.387
345.563
345.637
345.597
345.455
345.151
344.645
344.096
343.351
342.491
341.675
340.792
339.835
333.166
333.817
334.577
335.303
335.899
336.31
336.762
337.011
337.223
337.32
337.265
337.088
336.861
336.481
336.016
335.483
334.748
333.994
333.195
332.566
325.763
326.311
326.938
327.402
327.873
328.196
328.596
328.789
328.912
328.948
328.954
328.861
328.625
328.369
327.968
327.589
327.097
326.448
325.854
325.26
318.477
318.774
319.155
319.588
319.857
320.242
320.335
320.565
320.62
320.719
320.684
320.524
320.48
320.227
319.945
319.71
319.311
318.889
318.425
318.1
310.983
311.217
311.49
311.715
311.968
312.121
312.177
312.337
312.378
312.486
312.432
312.372
312.242
312.144
311.972
311.78
311.586
311.329
311.052
310.856
303.672
303.744
303.882
303.93
304.021
304.038
304.112
304.134
304.179
304.173
304.129
304.124
304.103
304.029
304.047
303.979
303.927
303.833
303.636
303.625
355.448
356.615
357.904
359.088
360.101
361.01
361.713
362.144
362.426
362.524
362.405
362.172
361.775
361.098
360.348
359.354
358.176
356.893
355.555
354.335
348.013
349.005
350.114
351.074
351.938
352.728
353.303
353.72
353.941
354.032
353.97
353.796
353.39
352.876
352.149
351.308
350.322
349.237
348.076
347.026
340.566
341.406
342.358
343.177
343.903
344.515
345.025
345.396
345.585
345.615
345.608
345.476
345.094
344.629
344.139
343.396
342.577
341.675
340.605
339.829
333.162
333.873
334.618
335.214
335.869
336.314
336.815
337.052
337.225
337.334
337.25
337.066
336.957
336.451
335.983
335.378
334.752
334.053
333.219
332.552
325.764
326.322
326.91
327.432
327.881
328.271
328.556
328.77
328.973
329.043
329.016
328.876
328.569
328.361
328.031
327.519
327.004
326.494
325.876
325.296
318.432
318.768
319.205
319.597
319.97
320.208
320.42
320.539
320.637
320.695
320.641
320.572
320.454
320.239
319.928
319.708
319.341
318.896
318.502
318.143
310.995
311.26
311.546
311.776
311.967
312.096
312.255
312.345
312.476
312.479
312.411
312.345
312.241
312.16
311.963
311.762
311.61
311.346
311.05
310.886
303.76
303.866
303.909
303.933
304.009
304.064
304.114
304.128
304.155
304.16
304.199
304.186
304.127
304.099
304.048
303.97
303.903
303.806
303.72
303.642
)
;

boundaryField
{
    hotSide
    {
        type            fixedGradient;
        gradient        nonuniform List<scalar> 
400
(
321.511
322.87
325.591
329.677
335.133
341.965
350.181
359.788
370.794
383.208
397.037
412.289
428.971
447.088
466.647
487.651
510.105
534.011
559.372
586.191
323.738
325.08
327.767
331.802
337.194
343.949
352.078
361.591
372.498
384.81
398.537
413.687
430.268
448.289
467.755
488.672
511.043
534.872
560.161
586.913
326.149
327.47
330.116
334.091
339.406
346.071
354.099
363.503
374.296
386.491
400.101
415.136
431.606
449.52
468.885
489.706
511.988
535.735
560.948
587.63
328.704
330
332.597
336.503
341.73
348.292
356.205
365.485
376.15
388.215
401.695
416.604
432.954
450.753
470.009
490.73
512.919
536.579
561.714
588.325
331.33
332.599
335.142
338.97
344.099
350.546
358.332
367.477
378.003
389.928
403.271
418.047
434.27
451.949
471.095
491.712
513.807
537.382
562.439
588.978
333.918
335.158
337.643
341.389
346.414
352.74
360.392
369.397
379.779
391.562
404.765
419.407
435.503
453.065
472.101
492.618
514.622
538.114
563.096
589.569
336.321
337.531
339.959
343.622
348.544
354.751
362.274
371.142
381.385
393.031
406.101
420.618
436.595
454.047
472.983
493.409
515.33
538.747
563.663
590.076
338.36
339.543
341.92
345.509
350.339
356.44
363.847
372.595
382.718
394.244
407.2
421.608
437.485
454.844
473.695
494.045
515.897
539.253
564.114
590.478
339.852
341.015
343.352
346.885
351.645
357.665
364.985
373.643
383.675
395.113
407.984
422.312
438.116
455.407
474.197
494.491
516.294
539.606
564.428
590.758
340.643
341.795
344.11
347.613
352.334
358.311
365.584
374.193
384.176
395.567
408.393
422.679
438.443
455.699
474.456
494.722
516.498
539.788
564.589
590.901
340.643
341.795
344.11
347.613
352.334
358.311
365.584
374.193
384.176
395.567
408.393
422.679
438.443
455.699
474.456
494.722
516.498
539.788
564.589
590.901
339.852
341.015
343.352
346.885
351.645
357.665
364.985
373.643
383.675
395.113
407.984
422.312
438.116
455.407
474.197
494.491
516.294
539.606
564.428
590.758
338.36
339.543
341.92
345.509
350.339
356.44
363.847
372.595
382.718
394.244
407.2
421.608
437.485
454.844
473.695
494.045
515.897
539.253
564.114
590.478
336.321
337.531
339.959
343.622
348.544
354.751
362.274
371.142
381.385
393.031
406.101
420.618
436.595
454.047
472.983
493.409
515.33
538.747
563.663
590.076
333.918
335.158
337.643
341.389
346.414
352.74
360.392
369.397
379.779
391.562
404.765
419.407
435.503
453.065
472.101
492.618
514.622
538.114
563.096
589.569
331.33
332.599
335.142
338.97
344.099
350.546
358.332
367.477
378.003
389.928
403.271
418.047
434.27
451.949
471.095
491.712
513.807
537.382
562.439
588.978
328.704
330
332.597
336.503
341.73
348.292
356.205
365.485
376.15
388.215
401.695
416.604
432.954
450.753
470.009
490.73
512.919
536.579
561.714
588.325
326.149
327.47
330.116
334.091
339.406
346.071
354.099
363.503
374.296
386.491
400.101
415.136
431.606
449.52
468.885
489.706
511.988
535.735
560.948
587.63
323.738
325.08
327.767
331.802
337.194
343.949
352.078
361.591
372.498
384.81
398.537
413.687
430.268
448.289
467.755
488.672
511.043
534.872
560.161
586.913
321.511
322.87
325.591
329.677
335.133
341.965
350.181
359.788
370.794
383.208
397.037
412.289
428.971
447.088
466.647
487.651
510.105
534.011
559.372
586.191
)
;
    }
    coldSide
    {
        type            mixed;
        refValue        uniform 300;
        refGradient     uniform 0;
        valueFraction   uniform 0.991591;
        source          uniform 0;
        value           nonuniform List<scalar> 
400
(
300.024
300.025
300.026
300.026
300.026
300.028
300.027
300.028
300.028
300.029
300.029
300.03
300.03
300.031
300.031
300.03
300.031
300.031
300.031
300.032
300.025
300.025
300.026
300.026
300.028
300.028
300.028
300.029
300.028
300.029
300.03
300.03
300.031
300.031
300.031
300.031
300.032