/*--------------------------------*- C++ -*----------------------------------*\
| =========                 |                                                 |
| \\      /  F ield         | OpenFOAM: The Open Source CFD Toolbox           |
|  \\    /   O peration     | Version:  2212                                  |
|   \\  /    A nd           | Website:  www.openfoam.com                      |
|    \\/     M anipulation  |                                                 |
\*---------------------------------------------------------------------------*/
FoamFile
{
    version     2.0;
    format      ascii;
    arch        "LSB;label=32;scalar=64";
    class       volScalarField;
    location    "0";
    object      T;
}
// * * * * * * * * * * * * * * * * * * * * * * * * * * * * * * * * * * * * * //

dimensions      [0 0 0 1 0 0 0];

internalField   nonuniform List<scalar> 
3200
(
319.141
318.593
318.182
317.996
318.153
318.53
318.809
319.001
319.151
319.382
319.443
319.401
319.189
318.733
318.411
317.874
317.748
317.895
318.071
318.621
316.568
316.118
315.733
315.594
315.745
316.082
316.331
316.457
316.595
316.827
316.876
316.867
316.675
316.262
315.967
315.513
315.38
315.523
315.636
316.133
313.993
313.652
313.283
313.188
313.349
313.616
313.841
313.942
314.031
314.256
314.287
314.319
314.132
313.776
313.505
313.156
313.002
313.159
313.229
313.644
311.447
311.166
310.821
310.781
310.934
311.148
311.342
311.42
311.484
311.671
311.702
311.754
311.575
311.258
311.049
310.776
310.643
310.793
310.821
311.141
308.886
308.695
308.392
308.391
308.515
308.674
308.85
308.896
308.946
309.09
309.096
309.165
309.006
308.763
308.599
308.38
308.272
308.41
308.413
308.656
306.339
306.214
305.985
306.01
306.072
306.191
306.33
306.352
306.4
306.489
306.494
306.548
306.436
306.267
306.131
305.972
305.895
306.012
306.015
306.187
303.81
303.737
303.586
303.607
303.619
303.724
303.801
303.809
303.86
303.883
303.885
303.927
303.868
303.774
303.675
303.587
303.527
303.62
303.598
303.698
301.279
301.247
301.211
301.199
301.197
301.244
301.281
301.271
301.283
301.301
301.291
301.313
301.297
301.249
301.231
301.201
301.184
301.215
301.205
301.237
319.168
318.711
318.163
318.176
318.251
318.576
318.91
319.193
319.458
319.547
319.612
319.625
319.377
318.928
318.547
318.187
317.959
317.92
318.04
318.591
316.589
316.217
315.727
315.766
315.831
316.086
316.398
316.633
316.879
316.952
317.025
317.039
316.809
316.412
316.082
315.781
315.578
315.55
315.639
316.092
313.984
313.734
313.297
313.362
313.408
313.596
313.848
314.079
314.264
314.341
314.433
314.441
314.232
313.884
313.616
313.368
313.197
313.145
313.233
313.61
311.397
311.259
310.862
310.942
310.985
311.107
311.316
311.528
311.676
311.753
311.819
311.838
311.653
311.381
311.139
310.934
310.822
310.745
310.837
311.131
308.832
308.783
308.443
308.524
308.55
308.645
308.783
308.964
309.075
309.153
309.18
309.234
309.06
308.863
308.66
308.517
308.421
308.359
308.434
308.659
306.301
306.271
306.037
306.105
306.106
306.179
306.253
306.395
306.481
306.544
306.56
306.609
306.461
306.335
306.191
306.091
306.02
305.957
306.02
306.173
303.787
303.763
303.642
303.669
303.66
303.699
303.732
303.825
303.884
303.945
303.933
303.976
303.867
303.81
303.722
303.667
303.613
303.58
303.626
303.704
301.279
301.263
301.228
301.227
301.231
301.248
301.243
301.28
301.301
301.318
301.322
301.326
301.293
301.28
301.243
301.242
301.203
301.205
301.222
301.237
319.39
318.864
318.467
318.446
318.537
318.853
319.176
319.487
319.806
320.006
319.995
319.927
319.647
319.288
318.753
318.467
318.201
318.163
318.237
318.71
316.769
316.365
315.988
315.994
316.065
316.359
316.63
316.876
317.172
317.348
317.339
317.272
317.017
316.723
316.266
316.018
315.81
315.762
315.812
316.211
314.141
313.866
313.53
313.544
313.588
313.847
314.069
314.273
314.537
314.68
314.662
314.613
314.373
314.161
313.765
313.561
313.393
313.337
313.385
313.726
311.542
311.361
311.07
311.091
311.122
311.357
311.492
311.683
311.885
312.019
311.988
311.961
311.747
311.591
311.275
311.114
310.993
310.924
310.977
311.244
308.963
308.827
308.618
308.627
308.677
308.846
308.934
309.092
309.23
309.346
309.332
309.306
309.13
309.002
308.778
308.649
308.564
308.504
308.552
308.756
306.391
306.298
306.169
306.172
306.231
306.33
306.391
306.498
306.585
306.669
306.659
306.661
306.52
306.433
306.301
306.182
306.125
306.083
306.131
306.263
303.845
303.776
303.719
303.699
303.759
303.8
303.835
303.897
303.941
304.016
303.987
303.992
303.915
303.864
303.796
303.722
303.661
303.666
303.683
303.759
301.284
301.258
301.248
301.238
301.263
301.279
301.273
301.309
301.311
301.352
301.344
301.33
301.306
301.291
301.272
301.251
301.218
301.221
301.226
301.26
319.523
319.146
318.794
318.714
318.951
319.165
319.603
319.952
320.165
320.48
320.4
320.353
320.035
319.675
319.27
318.835
318.542
318.479
318.647
319.085
316.903
316.609
316.292
316.225
316.439
316.623
316.982
317.272
317.475
317.769
317.708
317.639
317.394
317.065
316.719
316.332
316.097
316.013
316.181
316.554
314.276
314.077
313.79
313.727
313.933
314.088
314.35
314.585
314.782
315.043
315.002
314.924
314.735
314.476
314.161
313.841
313.626
313.556
313.697
314.026
311.651
311.54
311.266
311.23
311.391
311.555
311.715
311.905
312.083
312.345
312.282
312.185
312.073
311.87
311.583
311.339
311.143
311.087
311.226
311.497
309.064
308.981
308.773
308.739
308.846
309.026
309.106
309.24
309.398
309.601
309.556
309.484
309.407
309.242
308.992
308.835
308.64
308.638
308.734
308.971
306.481
306.412
306.284
306.241
306.294
306.466
306.501
306.577
306.705
306.868
306.807
306.787
306.722
306.621
306.407
306.314
306.171
306.184
306.256
306.414
303.887
303.84
303.777
303.747
303.777
303.881
303.885
303.96
304.01
304.11
304.071
304.101
304.043
303.963
303.851
303.79
303.692
303.702
303.758
303.849
301.304
301.295
301.261
301.26
301.262
301.304
301.293
301.329
301.342
301.371
301.358
301.377
301.358
301.33
301.294
301.264
301.232
301.247
301.267
301.292
319.961
319.576
319.247
319.165
319.43
319.591
319.979
320.443
320.739
320.908
320.896
320.974
320.658
320.344
319.831
319.286
318.963
318.895
319.087
319.451
317.274
316.976
316.697
316.615
316.859
316.986
317.322
317.735
317.979
318.15
318.104
318.186
317.908
317.653
317.202
316.732
316.444
316.402
316.57
316.848
314.611
314.373
314.15
314.051
314.299
314.399
314.67
315
315.224
315.387
315.316
315.388
315.165
314.95
314.563
314.196
313.92
313.902
314.042
314.236
311.947
311.756
311.569
311.503
311.709
311.792
312.02
312.27
312.488
312.617
312.527
312.591
312.427
312.25
311.926
311.632
311.386
311.394
311.503
311.652
309.278
309.129
309.005
308.947
309.098
309.188
309.358
309.534
309.728
309.823
309.755
309.792
309.67
309.538
309.261
309.044
308.874
308.875
308.949
309.071
306.618
306.512
306.436
306.394
306.503
306.588
306.677
306.812
306.953
307.009
306.974
306.972
306.915
306.837
306.625
306.455
306.341
306.369
306.405
306.485
303.966
303.92
303.855
303.834
303.895
303.958
303.999
304.097
304.164
304.204
304.196
304.189
304.16
304.102
303.984
303.878
303.798
303.822
303.848
303.892
301.329
301.312
301.291
301.27
301.301
301.321
301.339
301.377
301.398
301.419
301.403
301.413
301.387
301.375
301.334
301.293
301.273
301.264
301.297
301.298
320.433
319.987
319.74
319.79
319.849
320.097
320.543
320.938
321.341
321.514
321.537
321.452
321.15
320.947
320.329
319.93
319.604
319.604
319.618
319.885
317.71
317.347
317.113
317.176
317.224
317.448
317.819
318.17
318.504
318.652
318.689
318.618
318.324
318.17
317.637
317.295
317.014
317.016
316.99
317.252
314.984
314.675
314.478
314.547
314.598
314.795
315.104
315.383
315.679
315.791
315.845
315.775
315.495
315.41
314.949
314.638
314.416
314.405
314.376
314.591
312.264
312.003
311.844
311.917
311.964
312.131
312.364
312.601
312.83
312.941
312.969
312.913
312.672
312.643
312.268
311.984
311.805
311.797
311.773
311.933
309.534
309.325
309.216
309.287
309.306
309.444
309.606
309.813
309.973
310.078
310.089
310.036
309.873
309.859
309.554
309.322
309.202
309.176
309.159
309.271
306.815
306.668
306.586
306.639
306.652
306.766
306.872
307.038
307.115
307.224
307.21
307.167
307.042
307.042
306.845
306.664
306.57
306.553
306.549
306.625
304.094
304.006
303.942
303.97
303.98
304.057
304.129
304.237
304.273
304.345
304.329
304.308
304.227
304.236
304.122
304.006
303.951
303.923
303.949
303.988
301.379
301.342
301.316
301.323
301.334
301.352
301.376
301.417
301.44
301.455
301.452
301.445
301.423
301.424
301.382
301.343
301.331
301.314
301.33
301.338
321.059
320.594
320.23
320.353
320.454
320.693
321.044
321.53
321.873
322.274
322.212
322.114
321.74
321.491
320.894
320.434
320.188
320.019
320.233
320.414
318.237
317.837
317.536
317.653
317.749
317.943
318.264
318.662
318.996
319.334
319.283
319.149
318.849
318.62
318.134
317.741
317.5
317.365
317.552
317.682
315.45
315.093
314.823
314.938
315.033
315.196
315.454
315.81
316.101
316.395
316.335
316.21
315.954
315.763
315.366
315.032
314.829
314.718
314.863
314.948
312.65
312.322
312.129
312.206
312.304
312.455
312.658
312.943
313.177
313.429
313.388
313.294
313.049
312.91
312.577
312.308
312.143
312.058
312.163
312.218
309.839
309.57
309.443
309.491
309.565
309.72
309.858
310.083
310.23
310.462
310.417
310.375
310.153
310.073
309.803
309.574
309.442
309.377
309.436
309.514
307.028
306.831
306.758
306.781
306.851
306.978
307.048
307.214
307.287
307.482
307.443
307.417
307.259
307.192
307.002
306.862
306.731
306.682
306.731
306.825
304.225
304.104
304.061
304.071
304.136
304.21
304.237
304.331
304.355
304.497
304.465
304.454
304.363
304.313
304.215
304.118
304.068
304.001
304.024
304.105
301.425
301.384
301.363
301.364
301.389
301.397
301.416
301.443
301.443
301.511
301.506
301.496
301.47
301.444
301.415
301.387
301.36
301.338
301.349
301.372
321.671
321.165
320.915
320.851
320.906
321.32
321.646
322.14
322.472
322.848
322.85
322.933
322.496
322.003
321.538
321.054
320.711
320.634
320.724
320.972
318.788
318.324
318.128
318.094
318.12
318.486
318.784
319.199
319.509
319.827
319.831
319.906
319.49
319.082
318.701
318.255
317.972
317.902
317.956
318.175
315.89
315.498
315.368
315.323
315.339
315.663
315.881
316.245
316.537
316.795
316.813
316.875
316.496
316.158
315.868
315.46
315.208
315.171
315.231
315.361
312.999
312.667
312.598
312.543
312.567
312.849
312.981
313.276
313.551
313.749
313.768
313.842
313.513
313.232
313.011
312.677
312.442
312.431
312.483
312.545
310.112
309.857
309.818
309.753
309.766
310.025
310.101
310.302
310.552
310.707
310.714
310.802
310.53
310.306
310.117
309.882
309.636
309.673
309.729
309.757
307.216
307.055
307.045
306.997
306.968
307.175
307.228
307.331
307.544
307.666
307.663
307.746
307.524
307.359
307.23
307.048
306.882
306.907
306.953
306.958
304.331
304.24
304.229
304.217
304.161
304.301
304.336
304.38
304.531
304.614
304.615
304.661
304.511
304.418
304.349
304.24
304.132
304.132
304.174
304.159
301.444
301.422
301.418
301.409
301.39
301.437
301.446
301.458
301.52
301.55
301.546
301.554
301.519
301.474
301.461
301.426
301.393
301.379
301.389
301.393
322.286
321.763
321.496
321.542
321.579
321.807
322.256
322.709
323.16
323.419
323.384
323.457
323.129
322.64
322.179
321.694
321.368
321.32
321.385
321.672
319.34
318.874
318.624
318.68
318.69
318.929
319.302
319.715
320.117
320.348
320.293
320.363
320.092
319.657
319.24
318.816
318.549
318.508
318.543
318.776
316.365
315.969
315.771
315.817
315.813
316.048
316.344
316.693
317.026
317.235
317.203
317.251
317.049
316.661
316.308
315.916
315.7
315.681
315.706
315.893
313.4
313.058
312.915
312.955
312.934
313.14
313.393
313.672
313.926
314.096
314.095
314.145
313.972
313.65
313.381
313.026
312.838
312.843
312.875
312.993
310.443
310.162
310.036
310.108
310.054
310.229
310.427
310.647
310.835
310.967
310.968
311.035
310.891
310.656
310.424
310.149
310.009
310.002
310.027
310.09
307.45
307.245
307.187
307.24
307.168
307.292
307.462
307.587
307.743
307.847
307.857
307.889
307.795
307.639
307.462
307.241
307.151
307.157
307.162
307.205
304.459
304.362
304.327
304.368
304.293
304.381
304.483
304.547
304.648
304.74
304.744
304.737
304.687
304.599
304.487
304.358
304.284
304.315
304.316
304.321
301.492
301.461
301.451
301.458
301.436
301.461
301.506
301.52
301.565
301.593
301.594
301.59
301.572
301.538
301.499
301.468
301.445
301.446
301.45
301.452
322.912
322.518
322.249
322.226
322.192
322.333
322.802
323.225
323.629
323.946
324.016
323.896
323.661
323.241
322.794
322.364
322.027
322.059
322.042
322.292
319.863
319.528
319.281
319.284
319.242
319.349
319.775
320.159
320.506
320.769
320.854
320.726
320.546
320.184
319.785
319.395
319.097
319.156
319.126
319.322
316.799
316.52
316.33
316.317
316.263
316.383
316.755
317.088
317.376
317.57
317.682
317.566
317.399
317.119
316.764
316.433
316.176
316.246
316.213
316.338
313.723
313.52
313.377
313.351
313.309
313.437
313.732
314.012
314.241
314.378
314.481
314.397
314.255
314.022
313.741
313.454
313.251
313.311
313.286
313.36
310.663
310.514
310.41
310.393
310.372
310.483
310.697
310.913
311.097
311.163
311.257
311.202
311.103
310.918
310.728
310.467
310.328
310.378
310.349
310.409
307.619
307.525
307.449
307.436
307.424
307.532
307.64
307.809
307.943
307.981
308.037
307.982
307.939
307.803
307.681
307.466
307.389
307.423
307.4
307.434
304.579
304.518
304.469
304.478
304.464
304.547
304.591
304.695
304.78
304.795
304.834
304.785
304.781
304.695
304.626
304.474
304.43
304.46
304.456
304.462
301.532
301.506
301.5
301.494
301.493
301.526
301.536
301.564
301.598
301.611
301.623
301.595
301.6
301.561
301.548
301.508
301.483
301.495
301.502
301.49
323.574
323.191
322.973
322.806
322.832
323.077
323.351
323.823
324.139
324.352
324.578
324.497
324.157
323.828
323.296
323.001
322.699
322.762
322.794
322.934
320.424
320.099
319.931
319.787
319.796
320.023
320.233
320.674
320.929
321.13
321.327
321.233
320.951
320.697
320.193
319.975
319.689
319.747
319.767
319.9
317.282
317.01
316.86
316.769
316.79
316.964
317.112
317.507
317.73
317.893
318.045
317.971
317.766
317.547
317.113
316.938
316.67
316.719
316.754
316.816
314.133
313.914
313.794
313.729
313.753
313.912
314.018
314.318
314.522
314.651
314.781
314.7
314.573
314.376
314.025
313.881
313.631
313.678
313.728
313.747
310.976
310.811
310.737
310.695
310.726
310.835
310.902
311.143
311.309
311.411
311.513
311.434
311.362
311.211
310.942
310.818
310.605
310.649
310.679
310.693
307.835
307.745
307.672
307.638
307.66
307.741
307.777
307.958
308.085
308.173
308.24
308.168
308.149
308.023
307.844
307.748
307.576
307.614
307.607
307.645
304.706
304.657
304.607
304.584
304.606
304.653
304.672
304.788
304.864
304.917
304.939
304.905
304.902
304.822
304.706
304.668
304.562
304.576
304.566
304.59
301.579
301.559
301.547
301.539
301.54
301.557
301.566
301.606
301.634
301.65
301.658
301.645
301.643
301.628
301.58
301.57
301.523
301.524
301.523
301.539
324.178
323.906
323.685
323.563
323.626
323.766
323.975
324.344
324.733
324.933
325.011
324.968
324.644
324.415
323.974
323.598
323.286
323.218
323.314
323.673
320.95
320.734
320.552
320.43
320.497
320.621
320.782
321.106
321.467
321.623
321.689
321.693
321.395
321.217
320.811
320.487
320.199
320.128
320.216
320.524
317.724
317.568
317.418
317.31
317.342
317.464
317.59
317.888
318.18
318.306
318.373
318.396
318.122
318.005
317.642
317.365
317.098
317.039
317.13
317.384
314.5
314.4
314.284
314.175
314.207
314.293
314.424
314.629
314.887
314.982
315.062
315.067
314.838
314.761
314.467
314.222
314.009
313.958
314.038
314.24
311.295
311.218
311.148
311.042
311.056
311.106
311.229
311.37
311.601
311.67
311.755
311.734
311.561
311.514
311.264
311.077
310.916
310.879
310.941
311.088
308.093
308.023
307.996
307.899
307.896
307.926
308.015
308.127
308.307
308.346
308.412
308.362
308.282
308.239
308.041
307.924
307.829
307.793
307.836
307.935
304.875
304.833
304.804
304.752
304.727
304.768
304.831
304.879
305.002
305.004
305.056
305.014
304.992
304.948
304.843
304.762
304.725
304.675
304.735
304.749
301.621
301.629
301.617
301.606
301.573
301.602
301.628
301.641
301.689
301.678
301.691
301.681
301.686
301.649
301.612
301.602
301.593
301.564
301.593
301.589
324.856
324.589
324.375
324.209
324.309
324.369
324.515
324.972
325.258
325.431
325.429
325.406
325.229
324.913
324.539
324.212
323.991
323.914
324.071
324.385
321.534
321.306
321.141
320.994
321.082
321.138
321.263
321.647
321.919
322.072
322.074
322.053
321.896
321.643
321.314
321.002
320.814
320.736
320.883
321.138
318.22
318.02
317.916
317.805
317.827
317.896
318.001
318.34
318.559
318.698
318.706
318.657
318.553
318.325
318.066
317.802
317.634
317.557
317.698
317.888
314.908
314.751
314.68
314.606
314.586
314.657
314.74
315.012
315.2
315.314
315.325
315.278
315.179
314.997
314.79
314.569
314.44
314.369
314.484
314.655
311.585
311.472
311.414
311.394
311.354
311.42
311.487
311.686
311.856
311.931
311.942
311.904
311.8
311.667
311.492
311.328
311.243
311.196
311.27
311.43
308.265
308.2
308.144
308.165
308.121
308.182
308.224
308.347
308.474
308.546
308.54
308.518
308.431
308.327
308.205
308.096
308.048
308.01
308.064
308.191
304.951
304.927
304.883
304.911
304.875
304.921
304.954
304.995
305.104
305.139
305.131
305.112
305.061
305.005
304.924
304.867
304.85
304.818
304.842
304.928
301.656
301.645
301.629
301.648
301.635
301.651
301.664
301.666
301.716
301.725
301.73
301.714
301.697
301.677
301.655
301.629
301.626
301.609
301.611
301.657
325.514
325.316
325.066
324.939
324.943
325.083
325.225
325.493
325.792
325.991
325.98
325.926
325.677
325.618
325.093
324.788
324.618
324.579
324.637
325.056
322.086
321.955
321.742
321.659
321.647
321.776
321.868
322.125
322.369
322.578
322.548
322.484
322.273
322.228
321.78
321.495
321.362
321.324
321.353
321.717
318.677
318.586
318.391
318.382
318.331
318.466
318.506
318.729
318.942
319.143
319.109
319.032
318.874
318.836
318.434
318.214
318.084
318.039
318.051
318.382
315.301
315.203
315.047
315.053
314.994
315.113
315.147
315.339
315.52
315.689
315.65
315.595
315.466
315.403
315.096
314.926
314.806
314.759
314.733
315.046
311.932
311.815
311.703
311.732
311.64
311.751
311.792
311.929
312.1
312.226
312.176
312.152
312.037
311.983
311.745
311.615
311.528
311.488
311.452
311.687
308.546
308.461
308.352
308.383
308.304
308.405
308.439
308.52
308.656
308.764
308.699
308.701
308.597
308.562
308.386
308.322
308.227
308.217
308.166
308.354
305.14
305.084
305.003
305.043
305
305.072
305.084
305.127
305.215
305.284
305.216
305.236
305.165
305.161
305.039
305.006
304.945
304.91
304.906
305.008
301.723
301.71
301.682
301.694
301.679
301.704
301.708
301.71
301.741
301.785
301.745
301.756
301.733
301.729
301.702
301.676
301.658
301.645
301.638
301.674
326.34
326.089
325.739
325.67
325.628
325.753
325.834
326.047
326.239
326.513
326.447
326.347
326.231
326.144
325.664
325.435
325.294
325.253
325.389
325.696
322.806
322.63
322.327
322.277
322.226
322.363
322.421
322.571
322.787
323.025
322.942
322.847
322.774
322.686
322.276
322.059
321.965
321.916
322.001
322.286
319.261
319.143
318.915
318.855
318.82
318.931
318.989
319.086
319.298
319.515
319.44
319.346
319.302
319.214
318.866
318.67
318.59
318.558
318.615
318.869
315.756
315.658
315.499
315.441
315.399
315.488
315.547
315.584
315.81
315.956
315.891
315.854
315.817
315.732
315.467
315.301
315.228
315.191
315.238
315.45
312.275
312.171
312.051
312.026
311.989
312.054
312.095
312.118
312.319
312.406
312.344
312.355
312.322
312.252
312.073
311.912
311.854
311.821
311.857
312.011
308.773
308.698
308.614
308.606
308.574
308.612
308.642
308.656
308.816
308.864
308.799
308.825
308.806
308.766
308.644
308.515
308.483
308.439
308.481
308.578
305.265
305.213
305.155
305.168
305.165
305.176
305.175
305.196
305.293
305.332
305.282
305.314
305.295
305.266
305.196
305.116
305.101
305.07
305.093
305.167
301.768
301.748
301.727
301.733
301.735
301.737
301.726
301.736
301.777
301.788
301.765
301.782
301.782
301.769
301.746
301.708
301.715
301.694
301.713
301.733
327.048
326.769
326.447
326.353
326.281
326.342
326.513
326.653
326.832
326.919
327.021
326.841
326.725
326.614
326.251
326.099
325.934
326.012
326.099
326.478
323.437
323.236
322.935
322.871
322.813
322.86
323.008
323.123
323.29
323.351
323.445
323.314
323.224
323.115
322.791
322.653
322.509
322.562
322.637
322.966
319.819
319.669
319.441
319.381
319.331
319.379
319.497
319.56
319.743
319.803
319.865
319.767
319.708
319.586
319.29
319.199
319.066
319.105
319.162
319.431
316.199
316.103
315.919
315.879
315.822
315.873
315.938
316.016
316.179
316.22
316.25
316.186
316.138
316.045
315.784
315.749
315.617
315.641
315.69
315.878
312.597
312.536
312.4
312.373
312.3
312.364
312.394
312.462
312.605
312.628
312.624
312.598
312.563
312.493
312.285
312.288
312.172
312.164
312.216
312.333
308.988
308.955
308.867
308.84
308.788
308.829
308.858
308.901
309.047
309.014
308.994
309.001
308.982
308.927
308.77
308.8
308.69
308.686
308.74
308.804
305.383
305.376
305.332
305.301
305.288
305.307
305.321
305.353
305.442
305.404
305.377
305.401
305.399
305.372
305.252
305.292
305.219
305.22
305.258
305.309
301.802
301.805
301.774
301.782
301.772
301.782
301.787
301.789
301.825
301.8
301.795
301.809
301.814
301.807
301.768
301.766
301.751
301.755
301.754
301.778
327.722
327.464
327.083
326.897
326.973
326.962
327.084
327.258
327.333
327.304
327.352
327.336
327.262
327.072
326.733
326.567
326.436
326.635
326.893
327.111
324.043
323.84
323.516
323.335
323.422
323.395
323.492
323.661
323.713
323.681
323.721
323.728
323.651
323.508
323.184
323.061
322.923
323.114
323.325
323.507
320.347
320.183
319.919
319.76
319.817
319.824
319.925
320.041
320.092
320.056
320.109
320.117
320.024
319.914
319.617
319.533
319.408
319.578
319.757
319.869
316.625
316.525
316.307
316.185
316.249
316.233
316.334
316.417
316.449
316.412
316.48
316.489
316.39
316.334
316.075
316.001
315.909
316.048
316.198
316.257
312.912
312.867
312.695
312.588
312.674
312.652
312.719
312.786
312.808
312.762
312.835
312.832
312.773
312.733
312.532
312.447
312.394
312.494
312.605
312.633
309.227
309.195
309.062
308.986
309.062
309.061
309.089
309.153
309.159
309.104
309.175
309.176
309.142
309.109
308.97
308.886
308.869
308.925
308.998
309.036
305.548
305.544
305.444
305.392
305.444
305.473
305.473
305.499
305.502
305.459
305.512
305.527
305.495
305.474
305.404
305.322
305.327
305.375
305.412
305.439
301.864
301.853
301.823
301.806
301.822
301.838
301.834
301.847
301.842
301.831
301.846
301.847
301.838
301.841
301.818
301.791
301.786
301.797
301.822
301.824
328.426
328.203
327.802
327.523
327.438
327.56
327.606
327.739
327.82
327.861
327.899
327.85
327.72
327.457
327.316
327.208
327.063
327.185
327.445
327.697
324.664
324.446
324.094
323.875
323.796
323.897
323.94
324.077
324.147
324.174
324.188
324.165
324.069
323.849
323.699
323.572
323.486
323.572
323.818
324.024
320.891
320.683
320.405
320.214
320.166
320.245
320.274
320.406
320.468
320.465
320.483
320.472
320.404
320.208
320.044
319.96
319.879
319.939
320.165
320.35
317.129
316.915
316.72
316.542
316.513
316.577
316.583
316.727
316.773
316.743
316.784
316.772
316.715
316.552
316.411
316.361
316.246
316.331
316.501
316.667
313.35
313.161
313.042
312.843
312.86
312.887
312.925
313.013
313.066
313.023
313.064
313.053
313.03
312.903
312.767
312.743
312.613
312.714
312.84
312.971
309.556
309.405
309.322
309.16
309.204
309.198
309.25
309.304
309.352
309.315
309.362
309.327
309.316
309.238
309.125
309.108
308.993
309.097
309.175
309.253
305.756
305.642
305.615
305.496
305.527
305.518
305.564
305.599
305.634
305.596
305.645
305.603
305.615
305.553
305.495
305.482
305.399
305.464
305.505
305.547
301.926
301.884
301.878
301.839
301.857
301.846
301.872
301.876
301.887
301.883
301.895
301.876
301.894
301.864
301.84
301.843
301.805
301.835
301.848
301.86
329.078
328.75
328.428
328.127
328.114
328.162
328.086
328.194
328.308
328.318
328.338
328.215
328.133
327.971
327.687
327.721
327.69
327.763
328.073
328.368
325.229
324.92
324.659
324.386
324.375
324.413
324.352
324.452
324.58
324.551
324.569
324.477
324.383
324.26
324.001
324.041
323.992
324.076
324.348
324.615
321.373
321.095
320.883
320.635
320.633
320.696
320.611
320.712
320.79
320.769
320.803
320.721
320.641
320.531
320.308
320.358
320.279
320.386
320.605
320.824
317.497
317.269
317.115
316.892
316.895
316.962
316.857
316.974
317.001
316.993
317.02
316.978
316.911
316.796
316.635
316.676
316.595
316.686
316.869
317.026
313.639
313.436
313.337
313.141
313.146
313.203
313.118
313.212
313.219
313.225
313.242
313.219
313.175
313.068
312.959
312.983
312.914
312.967
313.122
313.232
309.762
309.62
309.556
309.396
309.379
309.421
309.377
309.453
309.444
309.461
309.471
309.467
309.413
309.331
309.254
309.276
309.226
309.254
309.374
309.455
305.878
305.791
305.735
305.638
305.643
305.65
305.651
305.681
305.665
305.676
305.687
305.691
305.659
305.596
305.561
305.554
305.535
305.544
305.628
305.677
301.966
301.944
301.91
301.893
301.886
301.908
301.896
301.907
301.894
301.911
301.908
301.9
301.893
301.877
301.857
301.848
301.857
301.858
301.88
301.902
329.662
329.274
328.893
328.482
328.638
328.569
328.531
328.54
328.721
328.651
328.727
328.676
328.553
328.385
328.005
328.014
328.146
328.273
328.529
328.885
325.673
325.374
325.011
324.66
324.79
324.753
324.717
324.727
324.922
324.808
324.885
324.856
324.74
324.597
324.26
324.27
324.384
324.498
324.715
325.021
321.699
321.476
321.158
320.836
320.948
320.929
320.904
320.958
321.097
320.981
321.048
321.019
320.937
320.818
320.521
320.526
320.629
320.713
320.893
321.144
317.738
317.558
317.313
317.047
317.131
317.106
317.107
317.174
317.274
317.168
317.229
317.189
317.138
317.03
316.768
316.79
316.894
316.936
317.094
317.261
313.788
313.67
313.478
313.265
313.313
313.283
313.313
313.377
313.453
313.338
313.419
313.371
313.31
313.246
313.023
313.064
313.147
313.18
313.295
313.422
309.863
309.755
309.648
309.49
309.516
309.487
309.524
309.562
309.606
309.524
309.599
309.541
309.5
309.465
309.295
309.325
309.413
309.419
309.483
309.591
305.921
305.84
305.804
305.691
305.713
305.693
305.711
305.754
305.746
305.715
305.773
305.738
305.692
305.68
305.596
305.59
305.658
305.643
305.693
305.768
301.988
301.947
301.95
301.915
301.914
301.909
301.909
301.923
301.926
301.916
301.936
301.92
301.906
301.905
301.875
301.873
301.902
301.884
301.898
301.94
)
;

boundaryField
{
    hotSide
    {
        type            fixedGradient;
        gradient        nonuniform List<scalar> 
400
(
206.833
207.154
208.718
211.492
215.354
220.127
225.62
231.661
238.108
244.848
251.797
258.897
266.108
273.406
280.78
288.229
295.762
303.39
311.122
318.965
198.752
199.18
200.937
203.983
208.169
213.287
219.118
225.471
232.192
239.165
246.305
253.554
260.875
268.248
275.667
283.138
290.674
298.294
306.014
313.844
194.058
194.71
196.676
199.91
204.264
209.53
215.491
221.954
228.763
235.799
242.976
250.238
257.547
264.886
272.253
279.656
287.113
294.646
302.275
310.011
192.535
193.523
195.719
199.076
203.468
208.715
214.624
221.016
227.741
234.682
241.751
248.891
256.066
263.261
270.474
277.717
285.01
292.374
299.83
307.392
193.338
194.726
197.186
200.671
205.074
210.248
216.03
222.262
228.805
235.546
242.4
249.31
256.244
263.19
270.149
277.139
284.178
291.291
298.5
305.819
195.506
197.319
200.085
203.751
208.222
213.372
219.058
225.138
231.482
237.984
244.565
251.172
257.782
264.389
271.006
277.655
284.361
291.151
298.048
305.071
198.246
200.488
203.597
207.515
212.145
217.369
223.05
229.049
235.24
241.517
247.808
254.073
260.299
266.5
272.704
278.943
285.253
291.668
298.213
304.909
200.952
203.605
207.078
211.303
216.182
221.587
227.374
233.393
239.507
245.606
251.621
257.527
263.337
269.09
274.835
280.628
286.514
292.533
298.717
305.084
203.144
206.158
209.979
214.533
219.713
225.381
231.371
237.51
243.632
249.614
255.386
260.946
266.339
271.64
276.931
282.287
287.768
293.419
299.272
305.347
204.441
207.721
211.818
216.656
222.123
228.067
234.302
240.618
246.816
252.745
258.334
263.604
268.642
273.562
278.476
283.478
288.639
294.007
299.613
305.474
204.573
207.972
212.209
217.21
222.856
228.99
235.407
241.874
248.162
254.097
259.605
264.725
269.571
274.285
278.999
283.817
288.816
294.044
299.532
305.296
203.425
206.765
210.965
215.949
221.599
227.752
234.201
240.711
247.049
253.041
258.611
263.794
268.7
273.469
278.234
283.098
288.138
293.407
298.935
304.74
201.082
204.186
208.177
212.975
218.463
224.478
230.822
237.276
243.631
249.731
255.497
260.943
266.146
271.217
276.268
281.394
286.671
292.15
297.868
303.846
197.837
200.566
204.224
208.736
213.98
219.798
226
232.39
238.786
245.046
251.091
256.908
262.536
268.047
273.526
279.051
284.692
290.503
296.522
302.773
194.182
196.448
199.719
203.922
208.935
214.594
220.714
227.105
233.6
240.066
246.42
252.627
258.697
264.672
270.609
276.573
282.625
288.818
295.192
301.774
190.809
192.573
195.454
199.385
204.234
209.819
215.943
222.411
229.055
235.745
242.392
248.95
255.411
261.795
268.144
274.51
280.948
287.51
294.239
301.162
188.635
189.905
192.426
196.135
200.879
206.45
212.623
219.19
225.979
232.858
239.738
246.567
253.327
260.027
266.698
273.385
280.139
287.016
294.057
301.29
188.766
189.606
191.804
195.301
199.927
205.443
211.606
218.196
225.041
232.009
239.013
245.998
252.943
259.849
266.738
273.652
280.639
287.752
295.036
302.517
192.181
192.714
194.622
197.852
202.236
207.538
213.516
219.957
226.691
233.592
240.572
247.579
254.584
261.583
268.593
275.645
282.784
290.056
297.502
305.143
199.178
199.54
201.186
204.074
208.063
212.957
218.544
224.634
231.071
237.735
244.541
251.432
258.376
265.362
272.399
279.508
286.721
294.074
301.597
309.304
)
;
    }
    coldSide
    {
        type            mixed;
        refValue        uniform 300;
        refGradient     uniform 0;
        valueFraction   uniform 0.991591;
        source          uniform 0;
        value           nonuniform List<scalar> 
400
(
300.011
300.011
300.011
300.011
300.011
300.012
300.012
300.012
300.013
300.013
300.013
300.014
300.014
300.014
300.015
300.015
300.016
300.016
300.017
300.017
300.01
300.011
300.011
300.011
300.011
300.011
300.012
300.012
300.012
300.013
300.013
300.014
300.014
300.014