/*--------------------------------*- C++ -*----------------------------------*\
| =========                 |                                                 |
| \\      /  F ield         | OpenFOAM: The Open Source CFD Toolbox           |
|  \\    /   O peration     | Version:  2212                                  |
|   \\  /    A nd           | Website:  www.openfoam.com                      |
|    \\/     M anipulation  |                                                 |
\*---------------------------------------------------------------------------*/
FoamFile
{
    version     2.0;
    format      ascii;
    arch        "LSB;label=32;scalar=64";
    class       volScalarField;
    location    "0";
    object      T;
}
// * * * * * * * * * * * * * * * * * * * * * * * * * * * * * * * * * * * * * //

dimensions      [0 0 0 1 0 0 0];

internalField   nonuniform List<scalar> 
3200
(
333.613
332.429
331.514
330.957
331.025
331.333
331.685
331.969
332.24
332.357
332.569
332.385
332.109
331.677
331.312
331.019
330.831
330.995
331.865
332.935
329.017
328.016
327.243
326.769
326.834
327.107
327.393
327.624
327.866
327.955
328.155
328.007
327.737
327.381
327.074
326.809
326.65
326.82
327.541
328.411
324.457
323.654
323.001
322.605
322.631
322.898
323.128
323.309
323.518
323.611
323.762
323.638
323.396
323.094
322.858
322.61
322.495
322.666
323.265
323.925
319.948
319.324
318.786
318.451
318.447
318.702
318.866
319.029
319.206
319.276
319.407
319.32
319.097
318.856
318.682
318.434
318.358
318.503
318.998
319.489
315.46
315.008
314.587
314.336
314.288
314.543
314.654
314.782
314.912
314.98
315.063
315.01
314.839
314.648
314.525
314.292
314.266
314.38
314.745
315.1
311.025
310.708
310.4
310.236
310.183
310.388
310.459
310.546
310.629
310.694
310.756
310.709
310.594
310.446
310.357
310.197
310.175
310.251
310.529
310.747
306.636
306.447
306.249
306.133
306.104
306.232
306.262
306.33
306.376
306.423
306.455
306.431
306.334
306.264
306.215
306.13
306.114
306.148
306.303
306.438
302.233
302.16
302.096
302.058
302.041
302.098
302.093
302.125
302.133
302.149
302.166
302.15
302.124
302.093
302.075
302.053
302.043
302.058
302.111
302.149
333.72
332.673
331.772
331.267
331.307
331.459
331.94
332.185
332.451
332.794
332.827
332.687
332.523
332.04
331.528
331.311
331.066
331.353
331.971
332.971
329.101
328.264
327.479
327.022
327.056
327.179
327.586
327.801
328.037
328.304
328.353
328.236
328.084
327.671
327.247
327.081
326.845
327.105
327.642
328.446
324.527
323.866
323.206
322.825
322.817
322.934
323.29
323.43
323.64
323.859
323.932
323.806
323.684
323.335
322.99
322.872
322.658
322.888
323.363
323.985
320.009
319.492
318.967
318.653
318.631
318.716
319.017
319.106
319.291
319.461
319.546
319.427
319.316
319.054
318.749
318.661
318.52
318.694
319.09
319.559
315.531
315.127
314.745
314.493
314.471
314.53
314.761
314.847
314.985
315.11
315.18
315.096
314.983
314.802
314.559
314.48
314.401
314.525
314.833
315.163
311.072
310.818
310.528
310.359
310.315
310.372
310.54
310.605
310.694
310.782
310.829
310.768
310.698
310.568
310.374
310.331
310.298
310.351
310.573
310.817
306.649
306.489
306.318
306.23
306.177
306.228
306.32
306.356
306.414
306.479
306.499
306.462
306.413
306.344
306.215
306.192
306.197
306.196
306.346
306.484
302.222
302.173
302.115
302.094
302.068
302.078
302.121
302.12
302.16
302.173
302.175
302.159
302.166
302.123
302.076
302.071
302.073
302.071
302.133
302.167
333.964
333.032
332.059
331.741
331.802
331.935
332.361
332.763
333.135
333.392
333.516
333.271
332.983
332.586
332.131
331.812
331.505
331.683
332.317
333.31
329.316
328.541
327.731
327.434
327.476
327.582
327.955
328.279
328.595
328.842
328.944
328.708
328.477
328.135
327.774
327.492
327.24
327.386
327.944
328.754
324.718
324.088
323.413
323.161
323.178
323.248
323.59
323.83
324.123
324.323
324.42
324.219
324.017
323.718
323.426
323.208
323.007
323.124
323.604
324.24
320.175
319.672
319.133
318.9
318.912
318.954
319.261
319.433
319.687
319.835
319.933
319.768
319.593
319.333
319.133
318.934
318.819
318.916
319.281
319.782
315.666
315.268
314.867
314.686
314.688
314.698
314.954
315.068
315.267
315.399
315.473
315.37
315.206
315
314.846
314.701
314.631
314.717
314.962
315.355
311.184
310.884
310.598
310.488
310.489
310.507
310.673
310.744
310.89
310.982
311.047
310.961
310.858
310.68
310.57
310.475
310.467
310.526
310.664
310.957
306.71
306.548
306.362
306.285
306.308
306.322
306.406
306.433
306.536
306.584
306.635
306.584
306.522
306.401
306.334
306.263
306.305
306.317
306.401
306.557
302.259
302.201
302.134
302.103
302.117
302.121
302.144
302.153
302.203
302.2
302.219
302.207
302.186
302.147
302.121
302.107
302.122
302.13
302.14
302.191
334.542
333.635
332.702
332.404
332.404
332.565
332.999
333.401
333.929
334.044
334.102
334.081
333.66
333.273
332.774
332.378
332.212
332.404
332.978
333.929
329.804
329.072
328.253
328.01
328.001
328.115
328.486
328.814
329.283
329.387
329.442
329.414
329.067
328.731
328.324
327.997
327.853
328.007
328.53
329.299
325.106
324.539
323.844
323.649
323.618
323.716
324.031
324.287
324.68
324.77
324.842
324.807
324.513
324.235
323.889
323.635
323.532
323.639
324.115
324.715
320.447
320.029
319.461
319.301
319.273
319.35
319.625
319.804
320.139
320.217
320.271
320.216
319.994
319.758
319.478
319.29
319.227
319.32
319.695
320.171
315.866
315.554
315.114
314.993
314.981
315.031
315.245
315.354
315.629
315.687
315.749
315.687
315.512
315.317
315.097
314.97
314.913
315.016
315.286
315.671
311.329
311.103
310.811
310.695
310.687
310.715
310.886
310.936
311.143
311.174
311.247
311.172
311.047
310.908
310.76
310.692
310.647
310.711
310.907
311.163
306.807
306.65
306.5
306.415
306.436
306.409
306.525
306.552
306.652
306.703
306.763
306.693
306.63
306.554
306.454
306.415
306.39
306.428
306.54
306.683
302.286
302.223
302.178
302.153
302.158
302.147
302.186
302.182
302.218
302.252
302.277
302.246
302.219
302.188
302.156
302.151
302.136
302.149
302.191
302.236
335.245
334.327
333.423
333.177
333.177
333.329
333.882
334.245
334.763
334.856
334.929
334.94
334.644
334.03
333.729
333.209
333.027
333.115
333.826
334.547
330.416
329.685
328.897
328.675
328.663
328.782
329.248
329.549
330.009
330.077
330.145
330.15
329.899
329.379
329.138
328.681
328.544
328.63
329.25
329.828
325.631
325.067
324.4
324.208
324.19
324.287
324.66
324.907
325.29
325.349
325.416
325.413
325.206
324.781
324.589
324.186
324.104
324.175
324.702
325.154
320.897
320.461
319.951
319.775
319.751
319.831
320.116
320.277
320.622
320.678
320.738
320.729
320.561
320.223
320.07
319.735
319.675
319.764
320.175
320.539
316.225
315.881
315.496
315.351
315.365
315.395
315.597
315.703
315.997
316.063
316.102
316.081
315.977
315.689
315.568
315.31
315.272
315.372
315.663
315.944
311.58
311.348
311.056
310.959
310.974
310.969
311.125
311.156
311.392
311.461
311.489
311.467
311.409
311.183
311.094
310.912
310.918
310.979
311.187
311.375
306.959
306.828
306.642
306.583
306.6
306.576
306.684
306.685
306.83
306.892
306.882
306.889
306.859
306.703
306.659
306.555
306.551
306.61
306.707
306.824
302.336
302.29
302.228
302.213
302.204
302.203
302.233
302.244
302.291
302.315
302.304
302.306
302.295
302.251
302.229
302.204
302.192
302.221
302.243
302.283
336.145
335.147
334.493
334.007
333.994
334.194
334.67
335.071
335.717
335.923
335.906
335.853
335.578
335.041
334.533
334.145
333.913
334.101
334.653
335.418
331.194
330.349
329.81
329.377
329.352
329.526
329.923
330.292
330.834
330.996
330.957
330.931
330.7
330.248
329.811
329.497
329.309
329.458
329.956
330.547
326.28
325.622
325.176
324.808
324.753
324.901
325.229
325.575
326.005
326.132
326.066
326.07
325.879
325.499
325.168
324.882
324.758
324.855
325.274
325.735
321.436
320.928
320.578
320.269
320.21
320.32
320.594
320.863
321.211
321.286
321.251
321.259
321.124
320.81
320.534
320.277
320.243
320.301
320.63
320.973
316.633
316.25
315.989
315.748
315.7
315.769
315.984
316.194
316.441
316.504
316.468
316.494
316.394
316.167
315.948
315.71
315.752
315.744
316.023
316.275
311.839
311.592
311.415
311.238
311.212
311.242
311.42
311.546
311.728
311.778
311.722
311.759
311.701
311.54
311.375
311.214
311.265
311.247
311.425
311.602
307.09
306.944
306.853
306.753
306.728
306.747
306.854
306.936
307.037
307.071
307.017
307.06
307.035
306.914
306.819
306.732
306.754
306.754
306.854
306.958
302.381
302.331
302.297
302.255
302.251
302.265
302.296
302.327
302.361
302.367
302.352
302.357
302.353
302.318
302.286
302.258
302.26
302.267
302.3
302.323
337.062
336.002
335.379
335.025
334.882
335.091
335.638
336.09
336.646
336.932
336.966
336.893
336.609
336.171
335.546
335.123
335.025
335.111
335.631
336.422
331.995
331.099
330.576
330.255
330.113
330.287
330.773
331.133
331.61
331.882
331.889
331.828
331.588
331.232
330.689
330.325
330.25
330.361
330.776
331.466
326.971
326.231
325.808
325.519
325.395
325.539
325.952
326.22
326.654
326.863
326.877
326.828
326.633
326.341
325.904
325.593
325.536
325.642
325.98
326.544
321.999
321.419
321.056
320.811
320.739
320.829
321.159
321.376
321.76
321.893
321.906
321.842
321.737
321.493
321.13
320.89
320.829
320.938
321.22
321.654
317.07
316.631
316.338
316.137
316.092
316.151
316.433
316.578
316.905
316.986
317.006
316.93
316.865
316.682
316.413
316.213
316.16
316.262
316.48
316.806
312.164
311.85
311.648
311.504
311.473
311.521
311.725
311.819
312.044
312.133
312.143
312.075
312.027
311.921
311.72
311.599
311.522
311.606
311.768
311.979
307.285
307.102
306.995
306.896
306.88
306.906
307.034
307.098
307.228
307.301
307.283
307.229
307.212
307.167
307.025
306.973
306.923
306.972
307.063
307.182
302.437
302.38
302.334
302.308
302.306
302.305
302.355
302.383
302.426
302.457
302.44
302.439
302.411
302.398
302.351
302.34
302.327
302.334
302.37
302.406
338.126
337.275
336.561
336.195
335.957
336.213
336.723
337.201
337.708
337.986
338.119
337.955
337.767
337.273
336.666
336.17
336.067
336.266
336.765
337.453
332.912
332.194
331.554
331.243
331.034
331.282
331.702
332.067
332.526
332.749
332.882
332.732
332.601
332.165
331.638
331.222
331.143
331.331
331.734
332.325
327.76
327.134
326.595
326.347
326.166
326.401
326.732
327.026
327.426
327.573
327.698
327.569
327.462
327.119
326.67
326.308
326.275
326.431
326.739
327.243
322.644
322.11
321.685
321.499
321.332
321.533
321.811
322.013
322.375
322.453
322.539
322.462
322.376
322.115
321.772
321.447
321.458
321.561
321.796
322.221
317.584
317.169
316.839
316.678
316.536
316.706
316.934
317.043
317.343
317.389
317.45
317.41
317.352
317.172
316.912
316.644
316.683
316.74
316.896
317.277
312.573
312.257
312.022
311.894
311.791
311.934
312.08
312.137
312.382
312.404
312.429
312.401
312.375
312.253
312.094
311.88
311.923
311.954
312.048
312.352
307.552
307.361
307.225
307.144
307.077
307.178
307.253
307.272
307.418
307.447
307.441
307.428
307.432
307.352
307.268
307.134
307.161
307.172
307.24
307.43
302.533
302.456
302.416
302.394
302.366
302.4
302.429
302.446
302.48
302.5
302.485
302.48
302.488
302.473
302.434
302.395
302.406
302.398
302.429
302.494
339.304
338.449
337.697
337.344
337.233
337.412
337.812
338.211
338.63
339.065
339.231
339.107
338.737
338.322
337.875
337.348
337.249
337.461
337.883
338.521
333.902
333.178
332.519
332.23
332.119
332.279
332.637
332.963
333.311
333.685
333.821
333.742
333.405
333.058
332.702
332.232
332.156
332.347
332.706
333.215
328.597
327.964
327.395
327.169
327.069
327.198
327.514
327.783
328.069
328.383
328.486
328.426
328.151
327.847
327.595
327.194
327.113
327.296
327.591
328.008
323.317
322.824
322.318
322.159
322.09
322.179
322.433
322.647
322.911
323.119
323.203
323.193
322.975
322.707
322.499
322.194
322.123
322.282
322.537
322.848
318.113
317.702
317.306
317.209
317.155
317.192
317.408
317.557
317.775
317.923
317.98
318.015
317.821
317.644
317.427
317.21
317.18
317.297
317.505
317.748
312.921
312.628
312.317
312.271
312.235
312.276
312.418
312.504
312.665
312.79
312.812
312.872
312.691
312.596
312.42
312.277
312.251
312.335
312.502
312.653
307.761
307.586
307.369
307.363
307.353
307.37
307.443
307.474
307.595
307.662
307.676
307.707
307.593
307.576
307.445
307.346
307.346
307.394
307.501
307.568
302.602
302.548
302.466
302.471
302.47
302.472
302.489
302.499
302.545
302.547
302.573
302.583
302.539
302.55
302.499
302.452
302.462
302.469
302.518
302.529
340.539
339.7
338.922
338.515
338.331
338.524
338.941
339.349
339.839
340.17
340.288
340.33
339.854
339.411
339.174
338.719
338.568
338.646
339.212
339.948
334.977
334.264
333.578
333.233
333.058
333.253
333.596
333.925
334.341
334.619
334.744
334.806
334.384
333.995
333.818
333.437
333.307
333.36
333.843
334.463
329.489
328.888
328.32
327.99
327.843
328.045
328.313
328.563
328.93
329.121
329.272
329.339
328.984
328.635
328.506
328.199
328.085
328.146
328.547
329.028
324.054
323.562
323.115
322.805
322.703
322.895
323.094
323.255
323.59
323.723
323.853
323.928
323.638
323.355
323.262
323.005
322.913
322.986
323.284
323.692
318.658
318.263
317.945
317.697
317.614
317.768
317.928
318.018
318.299
318.389
318.492
318.582
318.347
318.113
318.059
317.855
317.786
317.838
318.066
318.401
313.327
313.017
312.798
312.637
312.572
312.672
312.783
312.814
313.06
313.101
313.158
313.282
313.091
312.915
312.898
312.757
312.696
312.716
312.886
313.129
308.007
307.795
307.697
307.58
307.547
307.595
307.66
307.664
307.837
307.849
307.897
307.992
307.844
307.744
307.741
307.663
307.617
307.62
307.729
307.875
302.68
302.606
302.586
302.537
302.53
302.555
302.567
302.549
302.635
302.626
302.641
302.669
302.626
302.591
302.591
302.565
302.548
302.557
302.598
302.639
341.814
341.061
340.305
339.819
339.622
339.724
340.05
340.509
340.777
341.27
341.336
341.328
341.022
340.516
340.171
339.951
339.855
340.028
340.44
341.171
336.074
335.433
334.787
334.36
334.183
334.27
334.551
334.938
335.143
335.609
335.644
335.651
335.417
334.95
334.667
334.489
334.382
334.546
334.9
335.497
330.398
329.854
329.321
328.96
328.795
328.878
329.104
329.432
329.609
330.009
330.035
330.056
329.873
329.455
329.203
329.064
328.982
329.149
329.412
329.909
324.802
324.334
323.926
323.605
323.474
323.543
323.713
323.978
324.137
324.461
324.476
324.525
324.354
324.028
323.804
323.701
323.653
323.787
323.981
324.378
319.261
318.856
318.544
318.294
318.207
318.276
318.389
318.573
318.729
318.967
319.004
319.049
318.877
318.652
318.466
318.383
318.351
318.453
318.6
318.904
313.749
313.432
313.21
313.05
312.99
313.033
313.093
313.214
313.365
313.526
313.559
313.602
313.469
313.281
313.152
313.115
313.087
313.169
313.274
313.49
308.26
308.043
307.905
307.837
307.786
307.819
307.847
307.936
308.013
308.101
308.133
308.171
308.094
307.94
307.874
307.849
307.848
307.908
307.95
308.104
302.765
302.689
302.636
302.623
302.607
302.619
302.628
302.651
302.679
302.71
302.714
302.746
302.714
302.666
302.637
302.631
302.624
302.656
302.67
302.719
342.987
342.415
341.64
341.204
340.933
341.028
341.309
341.62
341.85
342.323
342.419
342.463
342.206
341.731
341.399
341.191
341.054
341.277
341.817
342.452
337.071
336.602
335.926
335.561
335.312
335.413
335.649
335.915
336.075
336.521
336.561
336.605
336.413
336
335.718
335.541
335.44
335.652
336.088
336.602
331.225
330.833
330.263
329.975
329.753
329.842
330.046
330.272
330.389
330.78
330.798
330.833
330.696
330.34
330.113
329.953
329.879
330.072
330.442
330.832
325.487
325.121
324.684
324.448
324.245
324.323
324.504
324.701
324.788
325.1
325.119
325.132
325.03
324.757
324.565
324.451
324.367
324.539
324.828
325.145
319.786
319.475
319.13
318.969
318.791
318.857
318.998
319.16
319.244
319.473
319.468
319.494
319.411
319.206
319.071
318.98
318.901
319.037
319.261
319.513
314.113
313.866
313.635
313.544
313.418
313.449
313.546
313.652
313.728
313.898
313.889
313.891
313.824
313.701
313.598
313.552
313.475
313.573
313.731
313.93
308.464
308.314
308.183
308.14
308.058
308.07
308.11
308.202
308.24
308.354
308.344
308.308
308.29
308.21
308.178
308.115
308.096
308.132
308.234
308.358
302.841
302.779
302.741
302.722
302.709
302.7
302.712
302.741
302.756
302.8
302.797
302.776
302.778
302.75
302.733
302.711
302.705
302.733
302.762
302.811
344.283
343.76
343.06
342.462
342.163
342.24
342.475
342.675
342.999
343.384
343.443
343.471
343.304
342.759
342.572
342.394
342.311
342.628
343.086
343.753
338.186
337.764
337.17
336.641
336.349
336.429
336.613
336.798
337.08
337.417
337.457
337.491
337.349
336.864
336.735
336.576
336.507
336.79
337.179
337.771
332.157
331.845
331.347
330.88
330.613
330.683
330.85
330.999
331.234
331.509
331.541
331.573
331.455
331.065
330.976
330.832
330.779
331.027
331.35
331.864
326.203
325.967
325.589
325.173
324.939
325.03
325.158
325.271
325.464
325.672
325.705
325.736
325.633
325.309
325.252
325.145
325.125
325.309
325.575
325.982
320.319
320.13
319.851
319.524
319.332
319.414
319.522
319.602
319.76
319.91
319.947
319.951
319.886
319.622
319.582
319.514
319.502
319.639
319.823
320.15
314.498
314.343
314.152
313.915
313.782
313.843
313.92
313.989
314.102
314.197
314.225
314.215
314.188
313.993
313.958
313.905
313.915
314.015
314.118
314.387
308.707
308.605
308.486
308.352
308.274
308.305
308.342
308.392
308.458
308.51
308.528
308.513
308.504
308.393
308.375
308.321
308.343
308.418
308.464
308.643
302.919
302.893
302.852
302.805
302.782
302.78
302.796
302.808
302.841
302.859
302.867
302.853
302.836
302.815
302.813
302.772
302.796
302.81
302.838
302.904
345.748
345.097
344.422
343.813
343.504
343.426
343.529
343.818
344.203
344.425
344.427
344.427
344.335
343.867
343.639
343.548
343.711
343.976
344.377
345.13
339.448
338.925
338.32
337.805
337.538
337.438
337.533
337.794
338.127
338.326
338.311
338.34
338.246
337.834
337.622
337.579
337.712
337.956
338.277
338.934
333.222
332.819
332.292
331.861
331.638
331.541
331.626
331.857
332.111
332.285
332.293
332.318
332.226
331.892
331.695
331.691
331.796
332.001
332.285
332.823
327.085
326.761
326.351
325.977
325.791
325.717
325.767
325.985
326.18
326.306
326.326
326.355
326.254
326.018
325.843
325.866
325.947
326.11
326.324
326.754
320.999
320.759
320.454
320.151
319.994
319.946
319.984
320.166
320.308
320.391
320.427
320.449
320.363
320.182
320.038
320.086
320.151
320.257
320.402
320.745
314.961
314.806
314.58
314.371
314.248
314.232
314.244
314.396
314.458
314.541
314.571
314.582
314.51
314.38
314.293
314.319
314.393
314.445
314.547
314.797
308.958
308.887
308.728
308.616
308.554
308.531
308.542
308.64
308.643
308.724
308.75
308.753
308.707
308.633
308.576
308.58
308.632
308.687
308.734
308.888
303
302.978
302.929
302.876
302.857
302.865
302.858
302.895
302.899
302.92
302.932
302.936
302.919
302.896
302.868
302.87
302.901
302.906
302.936
302.971
347.181
346.593
345.681
345.165
344.805
344.793
344.762
344.9
345.254
345.5
345.561
345.597
345.344
345.152
344.867
344.716
344.915
345.35
345.759
346.458
340.678
340.191
339.41
338.97
338.645
338.635
338.58
338.71
339.021
339.211
339.286
339.336
339.099
338.946
338.691
338.585
338.759
339.16
339.479
340.071
334.279
333.86
333.228
332.847
332.545
332.543
332.487
332.634
332.862
333
333.078
333.139
332.924
332.816
332.599
332.529
332.658
333.02
333.272
333.761
327.952
327.602
327.103
326.795
326.526
326.545
326.481
326.614
326.773
326.885
326.968
327.001
326.847
326.756
326.579
326.544
326.64
326.95
327.13
327.519
321.698
321.411
321.019
320.805
320.576
320.606
320.515
320.645
320.747
320.854
320.929
320.941
320.821
320.745
320.595
320.584
320.676
320.937
321.014
321.352
315.467
315.276
314.997
314.857
314.676
314.693
314.607
314.724
314.778
314.875
314.938
314.941
314.832
314.786
314.689
314.669
314.751
314.94
314.951
315.232
309.286
309.164
309.002
308.919
308.81
308.801
308.737
308.835
308.845
308.91
308.957
308.965
308.887
308.849
308.814
308.791
308.858
308.977
308.966
309.139
303.109
303.074
303.018
302.979
302.957
302.943
302.911
302.96
302.955
302.995
302.999
303.008
302.982
302.961
302.95
302.947
302.966
303.006
302.997
303.059
348.604
347.814
347.124
346.603
346.265
346.113
346.033
346.056
346.364
346.551
346.553
346.533
346.46
346.223
346.054
345.988
346.153
346.589
347.055
347.789
341.913
341.232
340.64
340.199
339.894
339.79
339.715
339.703
339.96
340.151
340.157
340.123
340.066
339.862
339.714
339.651
339.828
340.215
340.614
341.221
335.299
334.732
334.226
333.871
333.59
333.549
333.48
333.449
333.649
333.815
333.857
333.827
333.741
333.582
333.47
333.407
333.58
333.914
334.219
334.72
328.758
328.322
327.882
327.616
327.391
327.377
327.31
327.296
327.437
327.565
327.627
327.58
327.507
327.385
327.29
327.233
327.38
327.674
327.898
328.312
322.308
321.992
321.612
321.415
321.248
321.255
321.206
321.197
321.287
321.379
321.45
321.381
321.349
321.251
321.174
321.104
321.251
321.511
321.648
321.965
315.899
315.688
315.423
315.276
315.159
315.172
315.129
315.145
315.176
315.24
315.312
315.247
315.232
315.135
315.095
315.039
315.161
315.358
315.444
315.649
309.529
309.416
309.263
309.162
309.087
309.098
309.057
309.097
309.098
309.134
309.194
309.146
309.141
309.067
309.068
309.023
309.118
309.211
309.281
309.366
303.182
303.15
303.11
303.061
303.038
303.032
303.03
303.051
303.047
303.055
303.083
303.07
303.066
303.032
303.03
303.028
303.062
303.087
303.106
303.127
349.893
349.171
348.531
348.064
347.706
347.429
347.435
347.431
347.537
347.658
347.683
347.629
347.494
347.339
347.262
347.342
347.535
347.908
348.42
349.106
343.007
342.421
341.856
341.467
341.15
340.906
340.909
340.898
341.01
341.1
341.129
341.063
340.97
340.828
340.784
340.843
341.013
341.346
341.784
342.343
336.224
335.748
335.249
334.957
334.677
334.486
334.453
334.444
334.554
334.616
334.691
334.606
334.523
334.418
334.381
334.419
334.562
334.857
335.222
335.669
329.523
329.154
328.743
328.518
328.294
328.136
328.074
328.076
328.185
328.21
328.293
328.219
328.155
328.05
328.055
328.056
328.202
328.443
328.73
329.078
322.887
322.6
322.287
322.133
321.95
321.84
321.778
321.785
321.853
321.864
321.967
321.878
321.85
321.759
321.784
321.76
321.904
322.076
322.305
322.556
316.305
316.105
315.89
315.778
315.653
315.589
315.525
315.539
315.577
315.59
315.683
315.587
315.587
315.527
315.533
315.517
315.625
315.762
315.909
316.091
309.782
309.664
309.519
309.479
309.383
309.359
309.314
309.321
309.336
309.354
309.41
309.341
309.343
309.309
309.32
309.302
309.374
309.462
309.554
309.64
303.264
303.235
303.186
303.181
303.133
303.14
303.126
303.123
303.127
303.14
303.157
303.125
303.123
303.13
303.113
303.119
303.139
303.171
303.2
303.22
351.195
350.469
349.802
349.302
348.97
348.716
348.555
348.612
348.558
348.597
348.697
348.616
348.652
348.552
348.58
348.669
348.743
349.17
349.742
350.416
344.116
343.525
342.937
342.526
342.236
342.023
341.869
341.92
341.868
341.891
341.992
341.941
341.948
341.854
341.923
341.982
342.049
342.428
342.902
343.487
337.129
336.694
336.179
335.847
335.572
335.411
335.267
335.289
335.263
335.278
335.379
335.352
335.331
335.223
335.327
335.361
335.448
335.748
336.144
336.661
330.231
329.908
329.501
329.247
328.988
328.863
328.759
328.752
328.751
328.75
328.853
328.826
328.793
328.715
328.814
328.823
328.903
329.156
329.447
329.9
323.419
323.187
322.893
322.701
322.505
322.399
322.31
322.29
322.289
322.3
322.382
322.354
322.3
322.283
322.349
322.341
322.424
322.633
322.824
323.203
316.684
316.523
316.318
316.206
316.056
315.972
315.895
315.896
315.891
315.887
315.942
315.928
315.877
315.893
315.933
315.935
316.017
316.129
316.263
316.563
310.007
309.909
309.805
309.744
309.627
309.604
309.519
309.532
309.523
309.512
309.558
309.533
309.508
309.551
309.557
309.557
309.61
309.69
309.761
309.947
303.359
303.32
303.288
303.274
303.227
303.217
303.191
303.199
303.19
303.178
303.211
303.185
303.186
303.204
303.198
303.203
303.212
303.246
303.277
303.339
352.363
351.751
351.092
350.568
350.194
349.848
349.606
349.698
349.674
349.492
349.626
349.635
349.606
349.545
349.667
349.762
349.902
350.334
350.867
351.52
345.088
344.623
344.036
343.622
343.318
342.972
342.746
342.839
342.836
342.648
342.794
342.777
342.748
342.708
342.813
342.93
343.047
343.401
343.868
344.439
337.938
337.564
337.088
336.765
336.524
336.193
335.986
336.074
336.078
335.906
336.063
336.007
336.002
335.974
336.073
336.183
336.277
336.55
336.959
337.436
330.889
330.595
330.225
330.002
329.79
329.511
329.307
329.411
329.414
329.256
329.403
329.345
329.335
329.31
329.404
329.485
329.569
329.817
330.121
330.52
323.927
323.717
323.428
323.3
323.09
322.878
322.709
322.831
322.799
322.682
322.829
322.76
322.739
322.721
322.801
322.863
322.922
323.135
323.359
323.695
317.036
316.908
316.698
316.619
316.454
316.292
316.188
316.28
316.246
316.152
316.278
316.218
316.189
316.207
316.249
316.315
316.347
316.488
316.645
316.922
310.218
310.142
310.008
309.961
309.851
309.761
309.699
309.763
309.735
309.68
309.779
309.703
309.69
309.736
309.747
309.795
309.794
309.891
309.992
310.159
303.421
303.397
303.346
303.344
303.293
303.276
303.24
303.269
303.256
303.249
303.27
303.243
303.241
303.274
303.266
303.269
303.283
303.321
303.351
303.401
353.364
352.657
351.957
351.453
350.955
350.664
350.447
350.528
350.574
350.468
350.436
350.537
350.318
350.268
350.552
350.626
350.818
351.284
351.806
352.448
345.923
345.335
344.732
344.336
343.876
343.634
343.429
343.533
343.562
343.482
343.442
343.532
343.32
343.298
343.544
343.62
343.777
344.193
344.625
345.164
338.607
338.144
337.636
337.33
336.933
336.73
336.526
336.653
336.672
336.612
336.59
336.647
336.437
336.435
336.637
336.732
336.877
337.207
337.579
338.008
331.417
331.063
330.652
330.421
330.079
329.933
329.731
329.864
329.88
329.842
329.815
329.875
329.664
329.67
329.857
329.96
330.07
330.304
330.617
330.953
324.316
324.059
323.747
323.591
323.299
323.211
323.024
323.137
323.168
323.139
323.114
323.183
322.978
322.997
323.156
323.224
323.338
323.501
323.741
323.982
317.304
317.133
316.913
316.798
316.614
316.566
316.392
316.496
316.514
316.49
316.467
316.531
316.373
316.417
316.499
316.536
316.643
316.752
316.92
317.077
310.377
310.269
310.12
310.057
309.958
309.942
309.826
309.888
309.897
309.906
309.863
309.905
309.822
309.85
309.885
309.918
309.989
310.024
310.125
310.23
303.458
303.436
303.392
303.363
303.341
303.331
303.283
303.318
303.306
303.319
303.31
303.312
303.287
303.291
303.302
303.315
303.354
303.355
303.384
303.439
)
;

boundaryField
{
    hotSide
    {
        type            fixedGradient;
        gradient        nonuniform List<scalar> 
400
(
370.924
372.142
375.808
381.866
390.086
400.132
411.645
424.294
437.802
451.953
466.579
481.555
496.79
512.217
527.789
543.476
559.257
575.119
591.058
607.069
354.091
355.454
359.438
365.972
374.777
385.459
397.606
410.851
424.901
439.529
454.566
469.89
485.413
501.074
516.834
532.668
548.564
564.516
580.524
596.59
343.647
345.364
349.674
356.501
365.57
376.489
388.849
402.283
416.495
431.253
446.387
461.774
477.327
492.988
508.723
524.511
540.345
556.225
572.156
588.144
339.212
341.473
346.129
353.104
362.163
372.973
385.174
398.429
412.453
427.017
441.949
457.124
472.453
487.882
503.376
518.922
534.516
550.162
565.87
581.649
339.216
342.123
347.168
354.271
363.244
373.819
385.694
398.577
412.204
426.358
440.87
455.615
470.509
485.501
500.563
515.688
530.876
546.14
561.49
576.94
341.879
345.463
350.955
358.268
367.239
377.644
389.228
401.732
414.916
428.576
442.553
456.733
471.041
485.439
499.914
514.468
529.115
543.872
558.756
573.783
345.766
350.02
356.013
363.648
372.769
383.17
394.614
406.857
419.671
432.86
446.279
459.829
473.46
487.159
500.935
514.814
528.822
542.989
557.336
571.882
349.81
354.699
361.223
369.276
378.698
389.279
400.776
412.936
425.519
438.327
451.223
464.136
477.052
489.999
503.022
516.174
529.505
543.051
556.842
570.897
353.206
358.644
365.677
374.191
384.015
394.924
406.65
418.906
431.418
443.966
456.419
468.737
480.961
493.17
505.46
517.915
530.604
543.575
556.859
570.471
355.333
361.17
368.608
377.528
387.752
399.037
411.084
423.558
436.133
448.553
460.684
472.525
484.175
495.776
507.469
519.367
531.555
544.085
556.987
570.273
355.765
361.779
369.422
378.577
389.06
400.618
412.926
425.613
438.309
450.725
462.722
474.324
485.675
496.956
508.338
519.951
531.887
544.199
556.918
570.052
354.334
360.25
367.835
376.972
387.472
399.075
411.451
424.224
437.019
449.543
461.653
473.368
484.825
496.204
507.671
519.359
531.361
543.734
556.508
569.696
351.183
356.732
364.005
372.882
383.171
394.613
406.884
419.63
432.508
445.25
457.708
469.866
481.81
493.676
505.602
517.705
530.074
542.769
555.827
569.266
346.795
351.762
358.542
367.019
376.997
388.214
400.357
413.098
426.126
439.195
452.15
464.937
477.582
490.162
502.773
515.508
528.446
541.648
555.155
568.991
341.991
346.234
352.44
360.497
370.202
381.277
393.406
406.264
419.555
433.04
446.555
460.015
473.4
486.74
500.092
513.524
527.105
540.89
554.924
569.236
337.95
341.4
347.028
354.729
364.275
375.354
387.615
400.714
414.35
428.281
442.336
456.41
470.456
484.473
498.494
512.567
526.749
541.094
555.648
570.44
336.276
338.938
344.029
351.447
360.926
372.092
384.543
397.904
411.86
426.166
440.647
455.191
469.739
484.274
498.811
513.388
528.054
542.863
557.859
573.072
338.934
340.91
345.513
352.646
362.002
373.155
385.658
399.115
413.204
427.681
442.375
457.17
472.003
486.848
501.709
516.616
531.611
546.745
562.062
577.588
347.678
349.175
353.327
360.046
369.026
379.84
392.045
405.248
419.136
433.472
448.086
462.863
477.732
492.66
507.642
522.696
537.855
553.163
568.655
584.353
363.011
364.263
367.994
374.133
382.428
392.517
404.014
416.567
429.886
443.742
457.97
472.452
487.109
501.897
516.8
531.823
546.984
562.311
577.828
593.547
)
;
    }
    coldSide
    {
        type            mixed;
        refValue        uniform 300;
        refGradient     uniform 0;
        valueFraction   uniform 0.991591;
        source          uniform 0;
        value           nonuniform List<scalar> 
400
(
300.019
300.019
300.019
300.019
300.02
300.02
300.02
300.021
300.022
300.023
300.023
300.024
300.025
300.025
300.026
300.027
300.027
300.028
300.029
300.029
300.018
300.018
300.019
300.019
300.019
300.02
300.02
300.021
300.021
300.022
300.023
300.023
300.024
300.025
300.026
300.026
300.027
300.028
300.029
300.029
300.018