/*--------------------------------*- C++ -*----------------------------------*\
| =========                 |                                                 |
| \\      /  F ield         | OpenFOAM: The Open Source CFD Toolbox           |
|  \\    /   O peration     | Version:  2212                                  |
|   \\  /    A nd           | Website:  www.openfoam.com                      |
|    \\/     M anipulation  |                                                 |
\*---------------------------------------------------------------------------*/
FoamFile
{
    version     2.0;
    format      ascii;
    arch        "LSB;label=32;scalar=64";
    class       volScalarField;
    location    "0";
    object      T;
}
// * * * * * * * * * * * * * * * * * * * * * * * * * * * * * * * * * * * * * //

dimensions      [0 0 0 1 0 0 0];

internalField   nonuniform List<scalar> 
3200
(
346.916
347.643
348.72
349.733
350.522
351.4
351.921
352.34
352.286
352.325
352.609
352.325
352.008
351.44
350.938
350.344
349.268
348.425
347.499
346.534
340.553
341.129
342.102
342.967
343.672
344.391
344.829
345.211
345.109
345.193
345.391
345.182
344.946
344.395
343.996
343.512
342.546
341.8
341.026
340.253
334.251
334.698
335.516
336.258
336.922
337.469
337.761
338.152
338.095
338.132
338.281
338.158
337.958
337.472
337.144
336.747
335.9
335.246
334.625
334.003
328.029
328.318
328.985
329.654
330.224
330.606
330.779
331.154
331.133
331.108
331.241
331.16
330.997
330.586
330.325
330.002
329.294
328.771
328.29
327.843
321.849
321.984
322.523
323.05
323.492
323.755
323.869
324.142
324.202
324.188
324.246
324.221
324.043
323.779
323.538
323.309
322.778
322.348
321.995
321.666
315.652
315.666
316.059
316.442
316.786
316.898
317.019
317.238
317.278
317.302
317.307
317.314
317.147
316.988
316.8
316.632
316.253
315.988
315.701
315.483
309.425
309.405
309.619
309.867
310.061
310.147
310.224
310.349
310.355
310.399
310.386
310.392
310.28
310.195
310.081
309.971
309.743
309.603
309.403
309.293
303.181
303.157
303.228
303.307
303.385
303.417
303.425
303.467
303.482
303.487
303.47
303.483
303.432
303.434
303.387
303.331
303.257
303.23
303.146
303.107
347.737
348.811
349.962
350.795
351.96
352.593
352.896
353.57
353.609
353.884
353.625
353.697
353.199
352.623
352.226
351.269
350.616
349.423
348.751
347.722
341.147
342.094
343.095
343.788
344.832
345.375
345.63
346.196
346.234
346.483
346.234
346.312
345.853
345.365
345.024
344.213
343.683
342.635
342.023
341.226
334.655
335.481
336.374
336.949
337.788
338.265
338.512
338.938
338.97
339.207
339.008
339.04
338.671
338.251
337.952
337.31
336.852
335.927
335.45
334.775
328.276
328.908
329.705
330.161
330.838
331.268
331.434
331.733
331.792
331.983
331.872
331.875
331.518
331.2
330.968
330.46
330.083
329.318
328.951
328.428
321.971
322.409
323.05
323.435
323.972
324.261
324.397
324.62
324.682
324.82
324.772
324.778
324.426
324.198
324.057
323.686
323.364
322.774
322.451
322.099
315.681
315.944
316.458
316.722
317.136
317.304
317.4
317.564
317.6
317.712
317.698
317.7
317.417
317.287
317.162
316.919
316.674
316.247
315.998
315.808
309.409
309.552
309.891
310.036
310.305
310.376
310.437
310.492
310.565
310.636
310.599
310.611
310.419
310.37
310.309
310.142
310.036
309.749
309.594
309.515
303.167
303.199
303.313
303.337
303.452
303.458
303.485
303.503
303.528
303.576
303.56
303.546
303.484
303.468
303.444
303.384
303.382
303.26
303.203
303.198
349.294
350.31
351.39
352.414
353.319
354.027
354.534
354.919
355.249
355.701
355.231
355.349
354.88
354.054
353.624
353.093
352.035
351.044
350.092
349.08
342.498
343.362
344.306
345.158
345.987
346.553
347.011
347.36
347.585
348.004
347.595
347.743
347.304
346.583
346.207
345.793
344.872
344.026
343.263
342.37
335.84
336.502
337.375
338.039
338.751
339.254
339.639
339.941
340.063
340.42
340.129
340.237
339.866
339.281
338.887
338.599
337.86
337.095
336.48
335.762
329.247
329.755
330.515
331.026
331.604
332.031
332.353
332.592
332.663
332.929
332.735
332.802
332.456
332.073
331.707
331.492
330.91
330.263
329.737
329.238
322.722
323.064
323.7
324.054
324.547
324.817
325.119
325.307
325.343
325.542
325.374
325.452
325.127
324.967
324.613
324.431
324.042
323.499
323.084
322.745
316.223
316.462
316.868
317.125
317.533
317.657
317.926
318.034
318.054
318.224
318.107
318.202
317.909
317.854
317.566
317.487
317.239
316.736
316.466
316.236
309.728
309.85
310.103
310.279
310.519
310.585
310.739
310.811
310.808
310.932
310.869
310.961
310.726
310.719
310.554
310.497
310.364
310.023
309.866
309.737
303.257
303.29
303.37
303.428
303.516
303.549
303.596
303.61
303.625
303.668
303.626
303.676
303.575
303.601
303.534
303.522
303.485
303.367
303.308
303.258
350.628
351.716
352.959
353.96
354.83
355.709
356.105
356.552
356.871
357.345
357.069
357.006
356.508
355.875
355.383
354.761
353.78
352.798
351.647
350.377
343.693
344.581
345.62
346.513
347.222
348.037
348.357
348.69
349.006
349.41
349.162
349.125
348.698
348.16
347.717
347.21
346.299
345.495
344.498
343.451
336.835
337.583
338.39
339.152
339.746
340.5
340.739
340.943
341.263
341.597
341.4
341.351
341.016
340.54
340.156
339.766
338.945
338.285
337.465
336.635
330.079
330.658
331.267
331.935
332.391
333.03
333.173
333.354
333.666
333.872
333.76
333.672
333.449
333.054
332.707
332.43
331.728
331.214
330.511
329.896
323.346
323.784
324.257
324.773
325.141
325.634
325.733
325.897
326.143
326.301
326.169
326.128
325.96
325.672
325.377
325.134
324.612
324.208
323.646
323.238
316.681
316.96
317.317
317.703
317.945
318.299
318.365
318.477
318.664
318.78
318.676
318.671
318.523
318.348
318.135
317.932
317.586
317.261
316.832
316.561
310.014
310.199
310.375
310.622
310.776
310.993
311.032
311.108
311.178
311.282
311.227
311.217
311.084
311.055
310.858
310.738
310.543
310.332
310.106
309.907
303.342
303.394
303.465
303.545
303.616
303.678
303.7
303.722
303.739
303.789
303.777
303.752
303.713
303.706
303.659
303.597
303.519
303.459
303.383
303.311
352.086
353.179
354.578
355.552
356.494
357.329
358.005
358.334
358.874
359.074
358.772
358.773
358.253
357.663
357.063
356.454
355.348
354.373
353.039
351.739
344.892
345.824
347.029
347.88
348.674
349.449
350.013
350.23
350.721
350.932
350.622
350.643
350.196
349.693
349.148
348.664
347.683
346.817
345.716
344.625
337.835
338.631
339.616
340.328
340.957
341.669
342.156
342.295
342.745
342.91
342.633
342.64
342.28
341.845
341.374
340.99
340.188
339.425
338.447
337.64
330.857
331.53
332.303
332.903
333.413
333.943
334.366
334.476
334.884
334.996
334.787
334.73
334.412
334.093
333.703
333.456
332.779
332.115
331.335
330.726
323.941
324.467
325.054
325.512
325.955
326.293
326.658
326.718
327.091
327.183
327.026
326.936
326.641
326.453
326.137
325.987
325.448
324.927
324.313
323.839
317.111
317.459
317.858
318.181
318.531
318.699
319.009
319.035
319.309
319.379
319.276
319.212
318.956
318.904
318.599
318.541
318.163
317.84
317.368
317.017
310.294
310.5
310.694
310.912
311.095
311.185
311.398
311.434
311.58
311.628
311.554
311.534
311.38
311.386
311.116
311.118
310.897
310.695
310.414
310.212
303.45
303.531
303.585
303.653
303.708
303.727
303.798
303.827
303.89
303.905
303.861
303.855
303.813
303.821
303.702
303.712
303.654
303.566
303.495
303.415
353.479
354.619
356.182
357.203
358.116
358.931
359.481
359.992
360.498
360.712
360.55
360.388
359.762
359.378
358.683
357.842
356.743
355.847
354.515
353.398
346.094
347.101
348.405
349.323
350.093
350.77
351.253
351.705
352.123
352.338
352.148
352.021
351.449
351.16
350.527
349.855
348.904
348.121
346.981
346.084
338.849
339.686
340.736
341.537
342.227
342.717
343.161
343.536
343.894
344.094
343.93
343.805
343.329
343.111
342.532
342.023
341.184
340.523
339.566
338.894
331.746
332.352
333.168
333.881
334.448
334.811
335.217
335.478
335.792
335.946
335.786
335.694
335.315
335.166
334.651
334.301
333.563
333.073
332.255
331.742
324.662
325.094
325.703
326.305
326.762
326.94
327.352
327.506
327.786
327.918
327.759
327.669
327.382
327.297
326.891
326.62
326.001
325.699
325.034
324.655
317.627
317.925
318.358
318.784
319.114
319.147
319.573
319.61
319.841
319.941
319.811
319.749
319.523
319.48
319.213
318.977
318.51
318.306
317.867
317.583
310.568
310.761
311.02
311.293
311.478
311.479
311.756
311.756
311.928
312.011
311.871
311.863
311.699
311.663
311.528
311.4
311.093
310.981
310.688
310.572
303.526
303.607
303.687
303.783
303.848
303.824
303.92
303.947
304
304.05
303.974
303.977
303.928
303.89
303.863
303.819
303.733
303.697
303.581
303.53
355.15
356.217
357.713
358.927
359.918
360.563
361.085
361.604
361.975
362.16
362.047
362.005
361.747
361.129
360.489
359.447
358.408
357.259
355.965
354.985
347.564
348.438
349.723
350.759
351.611
352.194
352.633
353.086
353.422
353.561
353.509
353.417
353.187
352.655
352.12
351.238
350.287
349.371
348.259
347.396
340.09
340.789
341.868
342.762
343.52
343.964
344.325
344.709
344.995
345.111
345.108
345.02
344.838
344.296
343.871
343.171
342.314
341.57
340.663
339.945
332.71
333.247
334.154
334.891
335.528
335.844
336.166
336.46
336.68
336.844
336.807
336.711
336.564
336.069
335.751
335.225
334.479
333.863
333.172
332.554
325.394
325.793
326.476
327.074
327.622
327.824
328.058
328.268
328.438
328.629
328.584
328.475
328.376
327.974
327.717
327.41
326.721
326.262
325.79
325.236
318.138
318.401
318.853
319.338
319.735
319.863
319.981
320.136
320.3
320.411
320.409
320.334
320.273
319.94
319.774
319.587
319.058
318.746
318.411
318.002
310.885
311.036
311.309
311.591
311.839
311.943
312
312.074
312.218
312.256
312.269
312.249
312.217
311.962
311.881
311.765
311.429
311.216
311.06
310.834
303.659
303.683
303.791
303.892
303.977
303.998
304.015
304.043
304.095
304.1
304.1
304.108
304.112
304.011
303.985
303.939
303.844
303.755
303.725
303.625
356.493
357.329
358.928
360.291
361.332
362.003
362.732
363.551
363.539
363.856
363.762
363.677
363.2
362.641
362.085
360.831
359.8
358.824
357.279
356.31
348.696
349.414
350.788
351.969
352.898
353.443
354.099
354.796
354.738
355.031
354.948
354.901
354.483
353.968
353.546
352.405
351.528
350.687
349.377
348.596
341.043
341.623
342.758
343.806
344.593
345
345.668
346.169
346.107
346.322
346.303
346.261
345.907
345.479
345.089
344.116
343.374
342.703
341.636
340.963
333.485
333.906
334.887
335.698
336.341
336.69
337.338
337.628
337.562
337.732
337.786
337.74
337.43
337.073
336.709
335.995
335.303
334.807
333.951
333.379
325.977
326.262
327.05
327.696
328.187
328.503
329.053
329.187
329.154
329.288
329.339
329.283
329.003
328.779
328.461
327.943
327.323
327.019
326.325
325.88
318.541
318.688
319.315
319.74
320.136
320.355
320.724
320.879
320.793
320.862
320.949
320.904
320.681
320.532
320.324
319.921
319.463
319.289
318.752
318.468
311.102
311.189
311.618
311.857
312.131
312.244
312.436
312.56
312.482
312.506
312.59
312.562
312.412
312.337
312.211
311.975
311.685
311.562
311.22
311.075
303.721
303.75
303.911
303.968
304.069
304.099
304.165
304.211
304.19
304.209
304.235
304.214
304.164
304.139
304.085
303.994
303.912
303.862
303.757
303.714
357.683
358.68
360.157
361.404
362.513
363.554
364.357
364.783
365.075
365.235
365.19
365.006
364.697
364.235
363.331
362.436
361.29
360.279
358.698
357.73
349.768
350.592
351.825
352.891
353.864
354.776
355.452
355.813
356.051
356.18
356.18
356.012
355.761
355.335
354.634
353.766
352.783
351.981
350.602
349.797
341.985
342.608
343.634
344.545
345.356
346.102
346.749
347.025
347.172
347.323
347.314
347.187
346.982
346.625
346.028
345.3
344.4
343.816
342.612
341.964
334.216
334.724
335.579
336.333
336.968
337.597
338.115
338.391
338.446
338.612
338.58
338.498
338.336
338.014
337.556
336.982
336.179
335.736
334.736
334.242
326.506
326.928
327.576
328.158
328.66
329.177
329.597
329.795
329.843
329.966
329.938
329.883
329.729
329.487
329.149
328.689
328.034
327.735
326.948
326.583
318.897
319.171
319.619
320.043
320.423
320.802
321.089
321.272
321.325
321.387
321.392
321.319
321.219
321.034
320.786
320.467
320.007
319.764
319.223
318.964
311.326
311.491
311.726
312.005
312.234
312.476
312.648
312.772
312.831
312.847
312.866
312.8
312.746
312.619
312.455
312.322
312.01
311.829
311.515
311.41
303.817
303.839
303.908
304.036
304.088
304.175
304.226
304.272
304.328
304.318
304.317
304.268
304.279
304.215
304.176
304.133
304.017
303.975
303.852
303.824
358.937
359.957
361.304
362.621
363.826
364.844
365.444
366.095
366.669
366.598
366.754
366.372
366.148
365.66
364.8
363.767
362.581
361.39
359.94
358.976
350.822
351.684
352.812
353.911
355.009
355.891
356.405
356.96
357.437
357.399
357.523
357.175
356.971
356.606
355.836
354.983
353.916
352.943
351.654
350.823
342.798
343.562
344.499
345.409
346.32
347.054
347.473
347.995
348.378
348.338
348.476
348.189
347.96
347.639
347.005
346.318
345.425
344.634
343.518
342.828
334.885
335.529
336.269
337.06
337.736
338.367
338.665
339.147
339.432
339.419
339.524
339.277
339.114
338.811
338.343
337.785
337.045
336.424
335.449
334.933
327.075
327.573
328.135
328.701
329.264
329.762
329.941
330.398
330.61
330.587
330.643
330.448
330.369
330.061
329.791
329.341
328.783
328.272
327.483
327.126
319.312
319.7
320.079
320.462
320.88
321.2
321.353
321.691
321.869
321.804
321.855
321.735
321.644
321.443
321.229
320.919
320.514
320.138
319.609
319.388
311.59
311.81
312.039
312.293
312.527
312.702
312.769
313.007
313.119
313.092
313.11
313.058
312.968
312.845
312.738
312.559
312.297
312.061
311.784
311.647
303.886
303.927
304.044
304.114
304.208
304.248
304.254
304.361
304.392
304.376
304.383
304.378
304.353
304.291
304.275
304.203
304.111
304.043
303.963
303.919
359.863
360.958
362.513
363.814
365.085
366.018
366.725
367.169
367.794
367.911
367.982
367.706
367.302
366.642
366.067
365.183
364.065
362.548
361.272
360.251
351.589
352.532
353.873
354.955
356.12
356.926
357.504
357.853
358.419
358.484
358.575
358.32
357.957
357.379
356.919
356.201
355.19
353.911
352.828
351.953
343.538
344.239
345.386
346.231
347.292
347.959
348.429
348.756
349.207
349.213
349.312
349.099
348.784
348.31
347.94
347.377
346.486
345.401
344.5
343.787
335.53
336.057
336.997
337.675
338.523
339.112
339.46
339.808
340.148
340.087
340.195
340.014
339.795
339.429
339.098
338.666
337.877
336.996
336.276
335.656
327.547
327.969
328.689
329.187
329.835
330.346
330.594
330.924
331.154
331.08
331.158
331.052
330.885
330.607
330.365
330.004
329.372
328.658
328.129
327.653
319.61
319.964
320.448
320.806
321.252
321.648
321.809
322.064
322.238
322.177
322.191
322.096
322.006
321.821
321.673
321.429
320.935
320.412
320.084
319.723
311.772
311.972
312.274
312.453
312.744
312.971
313.073
313.241
313.349
313.334
313.304
313.232
313.242
313.103
312.992
312.886
312.557
312.208
312.047
311.826
303.943
304.015
304.118
304.178
304.252
304.361
304.382
304.421
304.48
304.454
304.44
304.41
304.444
304.377
304.357
304.31
304.214
304.085
304.032
303.959
360.852
362.198
363.612
364.914
366.066
366.973
367.922
368.54
369.05
369.271
369.186
368.836
368.157
367.809
367.233
366.266
365.082
363.748
362.532
361.103
352.462
353.64
354.832
355.899
356.925
357.683
358.524
359.033
359.53
359.68
359.592
359.343
358.703
358.413
357.944
357.118
356.1
354.959
353.937
352.709
344.259
345.168
346.179
347.062
347.929
348.559
349.253
349.688
350.154
350.241
350.194
349.98
349.449
349.201
348.795
348.134
347.27
346.326
345.455
344.434
336.126
336.803
337.64
338.36
339.071
339.592
340.12
340.487
340.877
340.93
340.936
340.762
340.32
340.149
339.793
339.257
338.533
337.778
337.038
336.269
328.072
328.556
329.201
329.765
330.287
330.678
331.11
331.378
331.715
331.767
331.77
331.587
331.265
331.152
330.907
330.415
329.888
329.288
328.723
328.16
320.049
320.361
320.817
321.198
321.559
321.871
322.171
322.388
322.632
322.668
322.665
322.524
322.344
322.249
322.047
321.65
321.299
320.874
320.47
320.108
312.046
312.196
312.515
312.71
312.949
313.105
313.316
313.433
313.663
313.589
313.597
313.508
313.403
313.326
313.196
312.961
312.764
312.52
312.287
312.031
304.038
304.084
304.196
304.236
304.36
304.411
304.462
304.506
304.58
304.554
304.562
304.516
304.478
304.445
304.405
304.357
304.279
304.216
304.134
304.038
361.612
363.109
364.617
366.034
366.998
367.976
369.083
369.72
370.237
370.319
370.174
370.206
369.337
369.058
368.364
367.373
366.081
364.945
363.32
362.056
353.096
354.373
355.635
356.919
357.687
358.578
359.485
360.087
360.552
360.595
360.493
360.572
359.735
359.511
358.876
358.079
356.972
355.993
354.575
353.569
344.705
345.731
346.804
347.959
348.604
349.342
350.076
350.595
350.991
351.011
350.979
351.053
350.312
350.166
349.53
348.96
348.015
347.201
345.973
345.193
336.444
337.281
338.141
339.1
339.653
340.234
340.79
341.214
341.576
341.598
341.586
341.634
341.005
340.923
340.376
339.923
339.153
338.475
337.49
336.898
328.24
328.943
329.578
330.318
330.782
331.166
331.643
331.945
332.237
332.271
332.28
332.261
331.772
331.812
331.292
330.948
330.357
329.824
329.076
328.629
320.137
320.634
321.095
321.614
321.983
322.21
322.586
322.766
322.979
322.992
323.053
322.955
322.652
322.746
322.3
322.07
321.659
321.211
320.718
320.395
312.088
312.344
312.63
312.938
313.221
313.303
313.538
313.629
313.765
313.82
313.825
313.764
313.586
313.652
313.37
313.217
313.006
312.706
312.431
312.201
304.04
304.12
304.227
304.326
304.426
304.448
304.54
304.562
304.59
304.62
304.628
304.62
304.581
304.579
304.481
304.395
304.352
304.266
304.173
304.071
362.652
363.997
365.396
366.921
367.887
369.046
369.822
370.587
370.954
371.214
371.289
371.049
370.358
369.942
369.199
368.397
366.956
365.871
364.374
362.72
353.975
355.182
356.346
357.692
358.511
359.522
360.187
360.825
361.138
361.376
361.477
361.23
360.569
360.263
359.648
358.992
357.725
356.831
355.467
354.098
345.504
346.487
347.45
348.61
349.253
350.136
350.691
351.235
351.55
351.724
351.786
351.553
351.018
350.737
350.241
349.693
348.641
347.914
346.69
345.604
337.12
337.917
338.65
339.629
340.101
340.854
341.321
341.753
342.062
342.172
342.225
342.048
341.606
341.356
340.997
340.517
339.649
339.072
338.054
337.21
328.779
329.409
329.997
330.747
331.054
331.68
332.07
332.403
332.647
332.692
332.783
332.614
332.235
332.082
331.832
331.454
330.741
330.298
329.552
328.886
320.53
320.96
321.381
321.926
322.098
322.575
322.859
323.12
323.25
323.281
323.397
323.222
322.979
322.834
322.71
322.418
321.922
321.596
321.067
320.591
312.291
312.564
312.79
313.138
313.244
313.562
313.715
313.866
313.921
313.969
314.041
313.919
313.815
313.668
313.663
313.455
313.16
312.933
312.642
312.367
304.12
304.216
304.285
304.394
304.429
304.541
304.593
304.646
304.678
304.681
304.697
304.644
304.647
304.587
304.575
304.495
304.415
304.343
304.241
304.143
363.452
364.853
366.232
367.745
368.705
369.725
370.64
371.492
371.911
372.152
371.911
371.84
371.356
370.665
369.966
369.079
367.856
366.629
365.261
363.524
354.71
355.875
357.061
358.384
359.209
360.078
360.868
361.599
361.971
362.176
361.962
361.871
361.513
360.89
360.319
359.547
358.517
357.466
356.276
354.795
346.094
347.067
348.023
349.165
349.846
350.608
351.258
351.869
352.196
352.352
352.173
352.083
351.818
351.298
350.814
350.177
349.314
348.428
347.406
346.195
337.56
338.36
339.163
340.033
340.645
341.284
341.789
342.251
342.522
342.669
342.497
342.45
342.248
341.772
341.457
340.929
340.214
339.497
338.653
337.693
329.135
329.719
330.348
330.988
331.517
332.027
332.436
332.756
332.98
333.09
332.997
332.855
332.775
332.389
332.196
331.737
331.201
330.653
329.99
329.284
320.775
321.191
321.634
322.064
322.467
322.802
323.103
323.36
323.494
323.551
323.547
323.393
323.342
323.072
322.942
322.606
322.282
321.855
321.379
320.923
312.427
312.751
312.98
313.23
313.46
313.695
313.837
313.999
314.073
314.13
314.086
314.05
313.972
313.797
313.76
313.541
313.406
313.106
312.808
312.593
304.151
304.284
304.364
304.46
304.506
304.6
304.61
304.682
304.723
304.731
304.714
304.7
304.695
304.614
304.62
304.528
304.514
304.38
304.305
304.225
364.034
365.409
366.872
368.192
369.361
370.483
371.391
372.074
372.642
372.831
372.656
372.451
372.043
371.531
370.709
369.677
368.29
367.034
365.691
363.976
355.233
356.367
357.624
358.768
359.729
360.763
361.504
362.119
362.647
362.751
362.602
362.403
362.095
361.585
360.943
360.071
358.876
357.78
356.647
355.265
346.529
347.507
348.606
349.492
350.3
351.215
351.774
352.304
352.795
352.891
352.681
352.504
352.3
351.839
351.33
350.643
349.599
348.651
347.735
346.627
337.921
338.73
339.616
340.362
341.009
341.78
342.205
342.645
343.053
343.138
342.924
342.781
342.616
342.269
341.813
341.32
340.435
339.641
338.917
338.078
329.383
330.047
330.739
331.342
331.821
332.401
332.73
333.095
333.396
333.498
333.277
333.207
333.033
332.785
332.394
332.022
331.334
330.738
330.209
329.621
320.952
321.392
321.917
322.367
322.713
323.129
323.337
323.612
323.809
323.902
323.719
323.643
323.576
323.332
323.079
322.783
322.345
321.899
321.553
321.184
312.555
312.807
313.127
313.423
313.629
313.878
313.994
314.19
314.303
314.366
314.226
314.188
314.153
314.007
313.835
313.665
313.411
313.149
312.933
312.739
304.198
304.268
304.405
304.498
304.579
304.649
304.682
304.749
304.802
304.812
304.761
304.768
304.74
304.688
304.648
304.575
304.484
304.409
304.344
304.286
364.63
366.021
367.54
368.881
369.883
370.907
371.93
372.677
373.152
373.246
373.349
373.017
372.721
372.096
371.016
370.217
369.08
367.611
366.209
364.695
355.729
356.908
358.182
359.377
360.213
361.094
361.99
362.625
363.04
363.082
363.151
362.911
362.714
362.148
361.175
360.473
359.522
358.267
357.08
355.811
346.966
347.985
348.968
350.009
350.726
351.469
352.217
352.756
353.081
353.108
353.179
352.982
352.837
352.335
351.535
350.877
350.139
349.112
348.094
347.072
338.324
339.145
339.913
340.807
341.35
341.99
342.57
342.988
343.289
343.281
343.329
343.206
343.108
342.655
342.011
341.423
340.882
340.063
339.181
338.437
329.745
330.402
330.974
331.68
332.036
332.569
333.032
333.352
333.58
333.607
333.609
333.53
333.443
333.132
332.555
332.1
331.696
331.083
330.369
329.844
321.197
321.695
322.155
322.565
322.842
323.209
323.557
323.82
323.946
323.988
323.998
323.924
323.86
323.665
323.23
322.84
322.624
322.205
321.609
321.284
312.706
312.994
313.315
313.534
313.746
313.927
314.153
314.316
314.348
314.395
314.437
314.335
314.32
314.214
313.942
313.664
313.609
313.344
312.924
312.765
304.244
304.338
304.462
304.543
304.619
304.679
304.74
304.817
304.795
304.831
304.825
304.799
304.809
304.765
304.682
304.581
304.585
304.449
304.317
304.264
364.996
366.42
367.789
369.23
370.48
371.516
372.287
373.191
373.542
373.701
373.96
373.647
373.2
372.736
371.459
370.677
369.52
367.921
366.602
365.045
356.023
357.256
358.415
359.653
360.712
361.648
362.261
363.075
363.412
363.489
363.734
363.51
363.084
362.669
361.584
360.887
359.896
358.511
357.437
356.099
347.235
348.231
349.175
350.224
351.137
351.937
352.408
353.109
353.473
353.507
353.703
353.536
353.15
352.767
351.891
351.25
350.411
349.254
348.404
347.26
338.537
339.318
340.086
340.968
341.658
342.331
342.732
343.324
343.634
343.666
343.795
343.678
343.34
343.032
342.318
341.777
341.089
340.117
339.438
338.557
329.947
330.49
331.071
331.813
332.347
332.824
333.187
333.595
333.874
333.914
333.986
333.871
333.659
333.372
332.833
332.402
331.818
331.086
330.605
329.966
321.388
321.748
322.151
322.668
323.054
323.415
323.692
323.961
324.195
324.241
324.309
324.167
324.035
323.814
323.42
323.102
322.716
322.164
321.828
321.392
312.82
313.071
313.255
313.558
313.789
314.024
314.168
314.37
314.533
314.548
314.626
314.511
314.373
314.281
314.078
313.841
313.625
313.299
313.085
312.841
304.298
304.373
304.433
304.524
304.615
304.7
304.74
304.822
304.863
304.865
304.904
304.861
304.819
304.792
304.737
304.625
304.581
304.437
304.376
304.322
364.977
366.638
367.915
369.507
370.838
371.835
372.658
373.264
373.885
373.91
374.134
373.958
373.426
372.724
371.959
371.064
369.76
368.445
366.736
365.378
356.055
357.446
358.538
359.949
361.087
361.903
362.592
363.116
363.671
363.652
363.925
363.771
363.256
362.68
362.007
361.282
360.098
358.956
357.548
356.375
347.287
348.368
349.267
350.517
351.445
352.146
352.667
353.183
353.687
353.614
353.829
353.775
353.278
352.795
352.277
351.674
350.576
349.659
348.499
347.515
338.592
339.441
340.155
341.157
341.937
342.508
342.892
343.378
343.828
343.718
343.854
343.846
343.485
343.035
342.624
342.166
341.214
340.46
339.542
338.755
329.976
330.592
331.14
331.868
332.507
332.943
333.267
333.649
334.055
333.887
334.021
333.992
333.771
333.364
333.075
332.736
331.926
331.388
330.641
330.042
321.388
321.844
322.199
322.693
323.132
323.51
323.733
324.022
324.331
324.173
324.243
324.238
324.078
323.778
323.568
323.353
322.751
322.348
321.845
321.403
312.814
313.083
313.271
313.609
313.851
314.085
314.243
314.379
314.621
314.505
314.523
314.541
314.443
314.281
314.131
314.005
313.635
313.354
313.097
312.846
304.296
304.368
304.429
304.56
304.623
304.715
304.79
304.807
304.912
304.868
304.858
304.877
304.823
304.802
304.755
304.699
304.576
304.463
304.384
304.297
365.214
366.82
368.209
369.729
371.044
372.138
372.806
373.37
374.128
374.133
374.004
373.896
373.54
372.758
372.33
371.324
369.89
368.322
366.757
365.41
356.243
357.659
358.786
360.09
361.263
362.138
362.724
363.237
363.9
363.885
363.778
363.678
363.338
362.643
362.316
361.525
360.272
358.86
357.58
356.427
347.437
348.59
349.466
350.631
351.543
352.32
352.83
353.283
353.801
353.761
353.718
353.6
353.292
352.69
352.44
351.864
350.816
349.547
348.474
347.554
338.746
339.631
340.277
341.293
341.958
342.658
343.07
343.455
343.823
343.817
343.841
343.679
343.406
342.948
342.707
342.28
341.455
340.361
339.493
338.81
330.119
330.76
331.216
332.048
332.493
333.085
333.385
333.708
333.919
333.998
334.001
333.858
333.672
333.309
333.106
332.769
332.19
331.307
330.594
330.06
321.494
321.953
322.247
322.837
323.097
323.591
323.83
324.05
324.187
324.274
324.242
324.141
323.992
323.743
323.523
323.351
322.984
322.349
321.814
321.379
312.885
313.151
313.369
313.676
313.825
314.136
314.325
314.447
314.514
314.551
314.543
314.49
314.381
314.253
314.101
313.982
313.802
313.412
313.089
312.803
304.313
304.408
304.492
304.583
304.606
304.751
304.819
304.829
304.872
304.864
304.878
304.857
304.803
304.785
304.728
304.692
304.627
304.503
304.381
304.288
)
;

boundaryField
{
    hotSide
    {
        type            fixedGradient;
        gradient        nonuniform List<scalar> 
400
(
514.982
533.386
551.415
568.988
586.026
602.448
618.175
633.132
647.243
660.438
672.65
683.815
693.874
702.775
710.47
716.919
722.086
725.944
728.473
729.659
528.462
547.428
566.013
584.133
601.706
618.649
634.881
650.323
664.899
678.534
691.16
702.711
713.127
722.352
730.337
737.041
742.426
746.465
749.135
750.423
540.566
560.047
579.141
597.763
615.827
633.248
649.944
665.834
680.837
694.88
707.889
719.798
730.544
740.07
748.327
755.269
760.861
765.07
767.877
769.265
551.227
571.172
590.724
609.798
628.305
646.159
663.275
679.57
694.962
709.374
722.731
734.967
746.015
755.818
764.323
771.486
777.268
781.638
784.573
786.057
560.388
580.741
600.698
620.171
639.071
657.308
674.797
691.451
707.188
721.929
735.598
748.125
759.444
769.496
778.226
785.589
791.545
796.062
799.116
800.691
568.004
588.707
609.012
628.829
648.066
666.634
684.444
701.41
717.447
732.474
746.414
759.196
770.752
781.022
789.951
797.491
803.602
808.252
811.415
813.075
574.04
595.032
615.625
635.727
655.245
674.089
692.168
709.394
725.682
740.95
755.119
768.116
779.874
790.33
799.428
807.121
813.367
818.133
821.392
823.129
578.47
599.689
620.508
640.834
660.574
679.636
697.929
715.362
731.851
747.311
761.664
774.836
786.757
797.365
806.603
814.423
820.781
825.645
828.988
830.794
581.278
602.66
623.641
644.13
664.03
683.251
701.7
719.286
735.923
751.527
766.018
779.32
791.366
802.09
811.436
819.354
825.802
830.745
834.158
836.021
582.456
603.935
625.014
645.601
665.6
684.919
703.465
721.148
737.88
753.576
768.157
781.546
793.675
804.478
813.899
821.888
828.401
833.403
836.869
838.78
582.005
603.514
624.625
645.245
665.28
684.636
703.22
720.942
737.714
753.451
768.073
781.504
793.674
804.519
813.981
822.01
828.562
833.604
837.107
839.055
579.932
601.404
622.481
643.07
663.076
682.407
700.969
718.673
735.429
751.155
765.769
779.196
791.365
802.213
811.682
819.721
826.287
831.346
834.87
836.841
576.252
597.62
618.597
639.089
659.004
678.247
696.727
714.354
731.041
746.702
761.259
774.636
786.762
797.574
807.015
815.034
821.588
826.642
830.17
832.154
570.987
592.184
612.995
633.327
653.086
672.181
690.52
708.013
724.574
740.12
754.57
767.85
779.891
790.63
800.008
807.976
814.492
819.521
823.036
825.019
564.166
585.128
605.708
625.816
645.358
664.243
682.382
699.685
716.067
731.445
745.74
758.88
770.794
781.42
790.702
798.59
805.042
810.023
813.508
815.478
555.826
576.489
596.776
616.597
635.861
654.478
672.359
689.417
705.567
720.728
734.821
747.775
759.522
769.999
779.151
786.93
793.293
798.207
801.645
803.591
546.013
566.315
586.248
605.723
624.65
642.941
660.509
677.268
693.135
708.03
721.877
734.603
746.143
756.436
765.426
773.067
779.317
784.143
787.52
789.43
534.781
554.663
574.183
593.254
611.788
629.699
646.901
663.31
678.845
693.428
706.984
719.442
730.738
740.812
749.611
757.087
763.201
767.921
771.221
773.084
522.193
541.598
560.65
579.262
597.35
614.828
631.614
647.626
662.783
677.01
690.233
702.385
713.402
723.225
731.803
739.091
745.048
749.643
752.852
754.659
508.321
527.198
545.729
563.831
581.422
598.42
614.743
630.311
645.047
658.877
671.73
683.54
694.245
703.788
712.119
719.194
724.974
729.429
732.536
734.278
)
;
    }
    coldSide
    {
        type            mixed;
        refValue        uniform 300;
        refGradient     uniform 0;
        valueFraction   uniform 0.991591;
        source          uniform 0;
        value           nonuniform List<scalar> 
400
(
300.027
300.027
300.027
300.028
300.029
300.03
300.031
300.031
300.032
300.033
300.033
300.034
300.034
300.035
300.035
300.035
300.036
300.036
300.036
300.036
300.027
300.027
300.028
300.029
300.03
300.03
300.031
300.032
300.032
300.033
300.034
300.034
300.035
300.035
300.036
300.036
300.036
300.037
300.037
300.037
300.027
300.028
300.028