/*--------------------------------*- C++ -*----------------------------------*\
| =========                 |                                                 |
| \\      /  F ield         | OpenFOAM: The Open Source CFD Toolbox           |
|  \\    /   O peration     | Version:  2212                                  |
|   \\  /    A nd           | Website:  www.openfoam.com                      |
|    \\/     M anipulation  |                                                 |
\*---------------------------------------------------------------------------*/
FoamFile
{
    version     2.0;
    format      ascii;
    arch        "LSB;label=32;scalar=64";
    class       volScalarField;
    location    "./ITHACAoutput/true/10";
    object      error;
}
// * * * * * * * * * * * * * * * * * * * * * * * * * * * * * * * * * * * * * //

dimensions      [0 0 0 1 0 0 0];

internalField   nonuniform List<scalar> 
3200
(
-4.14354
-2.43985
-1.12759
-0.0660862
0.467793
0.776385
1.05047
0.96667
0.970129
0.814294
0.776954
0.818144
0.90228
0.871682
0.847866
0.634557
0.38619
-0.431906
-1.70112
-3.24535
-3.3907
-2.1722
-0.919668
0.0512159
0.519739
0.839929
0.877841
0.985019
0.887484
0.847498
0.756446
0.777988
0.787444
0.856699
0.792972
0.727729
0.446603
-0.295704
-1.28162
-2.54758
-2.78876
-1.75482
-0.720004
0.0320177
0.457074
0.684154
0.806677
0.865367
0.732633
0.785412
0.716184
0.692439
0.735363
0.763249
0.791351
0.74887
0.413595
-0.129994
-1.03885
-1.97098
-2.27251
-1.35483
-0.540809
0.047254
0.438345
0.592567
0.6657
0.701401
0.665973
0.62472
0.584761
0.677776
0.651588
0.657575
0.627681
0.640058
0.397629
-0.0148422
-0.797631
-1.55475
-1.64938
-1.0397
-0.31519
0.0284659
0.370659
0.459908
0.485998
0.61258
0.427817
0.511049
0.475122
0.500647
0.538303
0.452818
0.52622
0.501169
0.298317
-0.0129856
-0.489084
-1.15464
-1.17807
-0.743455
-0.326326
0.0323392
0.214813
0.38753
0.398037
0.364951
0.41576
0.398766
0.254288
0.285631
0.410966
0.478791
0.407264
0.406598
0.239987
0.100384
-0.31249
-0.797413
-0.691796
-0.500609
-0.184454
0.0301333
0.0992198
0.220495
0.286059
0.309369
0.301277
0.20501
0.244223
0.221364
0.173048
0.300552
0.228875
0.260766
0.220514
-0.00228416
-0.159982
-0.412075
-0.198818
-0.227846
-0.0752478
0.0512817
0.0107642
0.0168511
0.0668844
0.0733498
0.00754132
0.111383
0.137244
0.0515173
0.096363
0.156252
0.113302
0.12496
0.12862
0.0562645
-0.0908304
-0.203745
-4.12568
-2.51468
-1.11666
-0.11165
0.36593
0.60479
0.767684
0.669432
0.544391
0.540822
0.441424
0.460322
0.492353
0.610342
0.580516
0.525858
0.223101
-0.581152
-1.82789
-3.22784
-3.44771
-2.11109
-0.836396
-0.0230373
0.419536
0.596058
0.719501
0.565322
0.540693
0.53576
0.516732
0.493561
0.5137
0.54853
0.673072
0.639776
0.264598
-0.419837
-1.40029
-2.66671
-2.84756
-1.76048
-0.722008
0.00941428
0.315384
0.540666
0.671442
0.649154
0.51524
0.519044
0.434496
0.38167
0.484543
0.602623
0.637843
0.629874
0.336088
-0.261586
-1.09054
-2.03486
-2.2369
-1.39959
-0.565342
-0.0533107
0.304963
0.500772
0.548987
0.493508
0.448897
0.41103
0.400099
0.43575
0.407109
0.505796
0.590189
0.500894
0.301732
-0.0584721
-0.7322
-1.67801
-1.74028
-1.06517
-0.378014
0.0554667
0.182927
0.391064
0.461885
0.398351
0.405129
0.327289
0.332903
0.369776
0.325206
0.477931
0.503831
0.395088
0.265551
-0.0619889
-0.517671
-1.19238
-1.28431
-0.792521
-0.234542
-0.00708784
0.217055
0.257063
0.301762
0.330929
0.218021
0.197825
0.228948
0.285029
0.31118
0.350305
0.303711
0.314209
0.259525
-0.0742283
-0.412015
-0.853626
-0.695389
-0.420935
-0.177963
-0.0024537
0.115897
0.135777
0.167703
0.170977
0.160214
0.167041
0.131004
0.244016
0.0957415
0.183315
0.223313
0.20757
0.188824
0.00352085
-0.202966
-0.455287
-0.251579
-0.183625
0.00954305
-0.0317054
-0.00475402
0.0735124
-0.0342367
0.0528347
0.0704594
0.028521
0.0585225
0.0511281
0.0501538
0.000429277
0.0769261
0.136747
0.0630636
-0.0279606
-0.102856
-0.149492
-4.1957
-2.60251
-1.25176
-0.422356
0.196793
0.335807
0.456939
0.256659
0.109775
-0.0450883
-0.0515596
-0.0895974
-0.0446244
0.131289
0.190948
0.168617
-0.149104
-0.736655
-1.92524
-3.36362
-3.57564
-2.2773
-1.14162
-0.293723
0.145272
0.307062
0.387186
0.300561
0.23549
0.0425114
-0.0769669
0.02371
-0.00314418
0.252932
0.232646
0.380059
0.0161559
-0.495262
-1.53224
-2.73499
-2.91374
-1.86289
-0.85668
-0.30568
0.160535
0.336441
0.348443
0.38797
0.261072
0.111862
0.0617295
0.118178
0.0415635
0.200735
0.318598
0.311658
0.0806941
-0.375591
-1.18409
-2.15128
-2.27831
-1.51168
-0.726329
-0.139508
0.154032
0.334892
0.280114
0.290093
0.243906
0.124163
0.0290064
0.088742
0.123309
0.221358
0.316802
0.368894
0.163814
-0.255811
-0.92827
-1.6318
-1.74838
-1.15868
-0.554681
-0.111504
0.161975
0.294771
0.313573
0.211005
0.0874387
0.0627823
0.00168257
0.095573
0.128595
0.292955
0.306397
0.239347
0.100262
-0.168311
-0.744675
-1.2475
-1.27125
-0.823616
-0.324191
-0.030264
0.145859
0.24436
0.250705
0.174406
0.195234
0.0242073
-0.0285
0.125504
0.125225
0.119345
0.193595
0.225255
0.142198
-0.124606
-0.439208
-0.822261
-0.737723
-0.455027
-0.20071
-0.0493154
0.0191632
0.0689326
0.0965534
0.149264
0.110813
0.0546747
0.0106287
0.0360517
0.0094852
0.112416
0.173382
0.115912
0.16723
-0.00839073
-0.254576
-0.510901
-0.252612
-0.154663
-0.116705
-0.00909875
-0.0235898
0.0309111
0.0312246
0.0405814
0.0457739
-0.0400339
-0.0387774
0.0109544
0.103321
0.0844874
0.0353612
0.126611
0.0562261
-0.0714186
-0.083903
-0.0844502
-4.29063
-2.94522
-1.5477
-0.625634
-0.255511
-0.0960459
-0.0578525
-0.266956
-0.496098
-0.640584
-0.781867
-0.683604
-0.661521
-0.415466
-0.257481
-0.173969
-0.557061
-1.12706
-2.17598
-3.60052
-3.65596
-2.36545
-1.28908
-0.536152
-0.175052
0.00383742
-0.0583465
-0.151834
-0.299198
-0.508279
-0.616945
-0.531307
-0.50514
-0.306966
-0.123864
-0.0575937
-0.257731
-0.77289
-1.78538
-2.92749
-3.05664
-2.07503
-1.10412
-0.45298
-0.0664453
0.053772
0.0418284
-0.103373
-0.182707
-0.337896
-0.417765
-0.463928
-0.280545
-0.158894
-0.00630009
0.0524144
-0.149817
-0.658774
-1.44515
-2.31845
-2.49736
-1.65475
-0.853263
-0.294532
-0.0183083
0.0674522
-0.0291808
-0.038683
-0.204557
-0.311313
-0.264775
-0.300164
-0.255804
-0.0986983
-0.0388653
0.0667974
0.0034023
-0.43216
-1.10421
-1.789
-1.86662
-1.29062
-0.582978
-0.223766
-0.0260232
0.0818568
0.0315442
0.0372662
-0.0900564
-0.215982
-0.248668
-0.254714
-0.171567
-0.0345963
0.0690999
0.174836
0.0113832
-0.35981
-0.793028
-1.33353
-1.34232
-0.824726
-0.465076
-0.10594
-0.0349988
0.0566478
0.0145838
-0.0897661
-0.0840437
-0.207724
-0.233967
-0.203851
-0.186426
0.010572
0.0340827
0.0531586
0.0654615
-0.183808
-0.593759
-0.989621
-0.796907
-0.634753
-0.250699
-0.106757
-0.025812
-0.0120939
0.0775519
0.046111
0.0283894
-0.0688097
-0.062681
-0.105078
-0.0817702
0.0438416
0.00870215
0.0602166
0.0264919
-0.0783704
-0.342517
-0.53277
-0.314459
-0.20439
-0.0499699
-0.0173778
0.00598863
-0.0145939
0.0270575
-0.0494901
0.000431197
-0.0603946
-0.028664
-0.038973
-0.000867037
0.0463994
0.0222958
0.0310376
-0.0304469
-0.0591965
-0.0813588
-0.257262
-4.66615
-3.19767
-1.88336
-1.05552
-0.554124
-0.530595
-0.628496
-0.809351
-1.14373
-1.35775
-1.46062
-1.47614
-1.32189
-1.04848
-0.868083
-0.73381
-1.02973
-1.53094
-2.62183
-3.92604
-3.9111
-2.69549
-1.6096
-0.928339
-0.56731
-0.381282
-0.468962
-0.640193
-0.882998
-1.0591
-1.18591
-1.19629
-1.07372
-0.885969
-0.616598
-0.498171
-0.768454
-1.20909
-2.09288
-3.18212
-3.21514
-2.34766
-1.38542
-0.703394
-0.332493
-0.326409
-0.396289
-0.517363
-0.744535
-0.907633
-1.00721
-0.948652
-0.842714
-0.643423
-0.489882
-0.360055
-0.55882
-0.942321
-1.70366
-2.58066
-2.57907
-1.8785
-1.04246
-0.582625
-0.311058
-0.139548
-0.302612
-0.390573
-0.557649
-0.641676
-0.798903
-0.694682
-0.674789
-0.435729
-0.392455
-0.200717
-0.414361
-0.724617
-1.29857
-1.9779
-2.05972
-1.42594
-0.804008
-0.3976
-0.248782
-0.195487
-0.20246
-0.348722
-0.361805
-0.459322
-0.611283
-0.579119
-0.436143
-0.367358
-0.180328
-0.133151
-0.195912
-0.606876
-0.990458
-1.48946
-1.39196
-0.980201
-0.54673
-0.312918
-0.151794
-0.0941579
-0.0994169
-0.240425
-0.235846
-0.391902
-0.427889
-0.398973
-0.355362
-0.151234
-0.108832
-0.10267
-0.141228
-0.355507
-0.703931
-1.05617
-0.883451
-0.543551
-0.366328
-0.108483
-0.0507869
-0.0929744
-0.0609998
-0.172658
-0.113686
-0.166053
-0.219637
-0.319782
-0.162547
-0.0502645
-0.0796368
-0.0626491
-0.0486816
-0.16284
-0.405462
-0.60616
-0.29374
-0.232872
-0.0866289
-0.0886964
0.0352679
0.079974
-0.0780913
-0.179949
-0.080707
-0.120874
-0.0822534
-0.12247
-0.0660384
-0.0573717
0.0216914
-0.0561846
-0.0994251
-0.0178363
-0.178683
-0.276803
-4.96127
-3.52051
-2.31382
-1.55584
-1.07653
-0.974395
-1.11957
-1.43754
-1.69811
-2.01854
-2.18973
-2.19918
-1.99718
-1.73467
-1.42731
-1.29621
-1.52468
-2.00633
-3.12064
-4.32364
-4.18585
-2.97154
-1.97151
-1.2161
-0.903421
-0.826968
-0.91048
-1.18856
-1.46
-1.70002
-1.87178
-1.81226
-1.69599
-1.46105
-1.15769
-1.06286
-1.17713
-1.62013
-2.52304
-3.54311
-3.45511
-2.48989
-1.64306
-1.05942
-0.75398
-0.63499
-0.814826
-0.987822
-1.16227
-1.37081
-1.47664
-1.43445
-1.30351
-1.04871
-0.897725
-0.820479
-0.84829
-1.34744
-2.04575
-2.89259
-2.84642
-1.97257
-1.26568
-0.830012
-0.614727
-0.493108
-0.591196
-0.657789
-1.00083
-1.09344
-1.0832
-1.19269
-1.1079
-0.888903
-0.720642
-0.646209
-0.698315
-1.09245
-1.54393
-2.24821
-2.11607
-1.65965
-1.06443
-0.644021
-0.353224
-0.453839
-0.505926
-0.563152
-0.695682
-0.851038
-0.874764
-0.873082
-0.892484
-0.64644
-0.484413
-0.391503
-0.498588
-0.768572
-1.21365
-1.7025
-1.43368
-1.11554
-0.6777
-0.509903
-0.347751
-0.246448
-0.356515
-0.433933
-0.472715
-0.611461
-0.627819
-0.616785
-0.464223
-0.416721
-0.398161
-0.343376
-0.331018
-0.488318
-0.815644
-1.19824
-0.887791
-0.7442
-0.403567
-0.210032
-0.249219
-0.169354
-0.248785
-0.30872
-0.197915
-0.375296
-0.347729
-0.389896
-0.409704
-0.310276
-0.25696
-0.133606
-0.155494
-0.337353
-0.412578
-0.646677
-0.328966
-0.262162
-0.0478378
-0.0847984
-0.152986
-0.0711831
-0.0474411
-0.0855118
-0.129999
-0.0506173
-0.083357
-0.183218
-0.137419
-0.0886924
-0.0883534
-0.0534945
-0.094228
-0.166484
-0.207795
-0.218065
-5.29753
-3.89844
-2.69739
-1.99873
-1.54281
-1.48378
-1.74178
-1.94413
-2.35328
-2.68587
-2.8856
-2.87677
-2.65049
-2.35628
-2.0787
-1.86907
-1.94535
-2.6419
-3.52093
-4.68068
-4.5252
-3.30915
-2.31567
-1.70642
-1.33299
-1.33406
-1.44627
-1.65476
-1.99324
-2.25369
-2.38636
-2.39562
-2.24721
-1.95924
-1.70961
-1.48725
-1.56915
-2.03982
-2.88779
-3.85391
-3.78639
-2.82626
-1.91092
-1.31304
-1.06672
-1.0396
-1.13336
-1.37515
-1.6464
-1.90009
-2.03808
-1.98829
-1.81553
-1.58846
-1.24649
-1.14948
-1.22242
-1.67269
-2.34863
-3.19176
-3.02356
-2.2582
-1.52543
-1.08773
-0.851116
-0.865821
-0.953027
-1.06882
-1.21558
-1.47727
-1.64607
-1.58059
-1.51725
-1.28806
-1.04053
-0.972785
-1.00875
-1.28133
-1.84014
-2.4356
-2.32695
-1.64925
-1.20657
-0.913998
-0.660096
-0.670916
-0.723117
-0.875191
-0.97852
-1.14734
-1.28628
-1.30781
-1.1701
-0.916087
-0.82601
-0.675857
-0.728218
-0.932381
-1.4316
-1.88616
-1.56403
-1.20698
-0.94946
-0.641167
-0.457365
-0.503557
-0.477033
-0.65749
-0.697797
-0.812824
-0.840616
-0.860145
-0.716444
-0.731581
-0.537821
-0.437515
-0.50589
-0.697708
-0.996736
-1.34842
-1.04082
-0.791388
-0.567348
-0.427458
-0.277202
-0.271429
-0.289319
-0.341262
-0.437039
-0.476342
-0.534192
-0.549391
-0.415541
-0.27147
-0.329466
-0.277132
-0.319221
-0.329925
-0.614683
-0.70814
-0.371848
-0.193735
-0.243183
-0.150452
-0.160888
-0.0649045
-0.117278
-0.0347116
-0.112707
-0.115757
-0.0826589
-0.184043
-0.170594
-0.100818
-0.109919
-0.0702381
-0.0531619
-0.0948369
-0.150026
-0.251567
-5.66074
-4.29668
-3.18486
-2.47194
-2.03959
-1.97107
-2.10664
-2.52345
-2.86711
-3.23587
-3.50161
-3.52023
-3.27054
-2.86952
-2.63765
-2.39673
-2.54602
-3.03744
-3.95166
-5.07705
-4.75758
-3.69403
-2.77215
-2.00614
-1.6864
-1.74685
-1.81245
-2.06106
-2.45425
-2.74876
-2.90771
-2.9272
-2.74546
-2.41453
-2.1786
-1.98057
-2.03919
-2.44871
-3.23868
-4.13537
-3.93755
-3.15164
-2.21612
-1.76005
-1.42161
-1.38389
-1.49685
-1.7421
-1.98153
-2.33648
-2.50777
-2.5196
-2.18936
-2.01824
-1.7323
-1.59224
-1.66793
-2.05209
-2.61065
-3.31123
-3.23274
-2.52125
-1.79351
-1.39073
-1.08667
-1.09749
-1.17801
-1.47965
-1.58912
-1.80406
-1.98035
-1.9548
-1.79945
-1.58299
-1.37666
-1.25087
-1.33333
-1.54222
-2.15431
-2.69819
-2.45319
-1.9762
-1.44119
-1.00542
-0.87702
-0.874394
-0.937771
-1.18338
-1.16429
-1.41598
-1.45489
-1.46832
-1.40077
-1.17042
-0.983066
-0.991653
-0.981063
-1.1612
-1.50513
-2.05247
-1.67542
-1.36101
-1.01815
-0.765137
-0.664225
-0.66408
-0.693452
-0.722114
-0.925926
-0.982561
-1.03344
-1.01022
-0.937768
-0.866926
-0.717274
-0.668254
-0.630838
-0.815088
-1.11142
-1.49396
-1.06707
-0.851658
-0.596471
-0.428142
-0.319529
-0.3649
-0.399729
-0.469462
-0.534099
-0.60387
-0.613588
-0.616777
-0.590925
-0.523653
-0.466653
-0.325663
-0.414674
-0.479659
-0.615291
-0.934138
-0.279638
-0.18782
-0.233915
-0.11961
-0.0796298
-0.0683145
-0.114414
-0.159525
-0.192419
-0.19151
-0.190485
-0.244837
-0.180947
-0.190734
-0.227145
-0.0547457
-0.201141
-0.215222
-0.242124
-0.311208
-5.83419
-4.65229
-3.58593
-2.82032
-2.40813
-2.371
-2.62182
-2.91909
-3.33267
-3.73901
-3.96861
-3.97549
-3.74253
-3.33695
-3.01327
-2.86499
-2.95012
-3.43681
-4.39501
-5.37996
-5.05876
-3.9409
-3.00867
-2.44064
-2.11159
-2.03937
-2.18016
-2.46606
-2.88634
-3.16334
-3.39229
-3.318
-3.12284
-2.85658
-2.54843
-2.36479
-2.42198
-2.82928
-3.62632
-4.41052
-4.18836
-3.32562
-2.55471
-2.08261
-1.66026
-1.7522
-1.81386
-2.14453
-2.32391
-2.64768
-2.78346
-2.8138
-2.62389
-2.29691
-2.02773
-1.90752
-2.05507
-2.40458
-2.95609
-3.64499
-3.41973
-2.72322
-2.09742
-1.60068
-1.42941
-1.37488
-1.43265
-1.66748
-1.93369
-2.24163
-2.24781
-2.16786
-2.056
-1.87696
-1.63312
-1.47851
-1.57264
-1.86714
-2.29829
-2.91424
-2.5739
-2.06559
-1.59003
-1.24159
-1.10251
-1.05104
-1.12654
-1.23057
-1.53895
-1.73931
-1.81127
-1.70388
-1.59647
-1.34446
-1.29792
-1.1638
-1.2029
-1.41349
-1.72975
-2.18908
-1.88308
-1.43131
-1.11034
-0.806509
-0.74539
-0.77244
-0.751378
-0.869368
-1.04942
-1.20472
-1.24776
-1.21003
-1.15134
-0.932334
-0.883983
-0.797672
-0.823029
-0.982389
-1.19356
-1.48843
-1.11109
-0.90078
-0.695421
-0.538314
-0.480076
-0.418356
-0.487892
-0.580021
-0.645874
-0.702915
-0.714413
-0.696663
-0.688283
-0.523534
-0.543553
-0.549809
-0.478773
-0.630304
-0.739651
-0.897911
-0.335522
-0.389773
-0.229929
-0.115759
-0.141903
-0.10794
-0.135022
-0.140047
-0.220096
-0.245726
-0.278425
-0.240062
-0.221704
-0.183082
-0.110066
-0.14409
-0.164882
-0.246659
-0.180968
-0.345977
-6.09428
-4.8584
-3.88227
-3.06541
-2.71698
-2.74459
-2.80226
-3.1583
-3.68504
-4.05674
-4.28533
-4.3497
-4.06568
-3.68314
-3.33222
-3.17735
-3.31583
-3.7842
-4.68148
-5.5877
-5.27411
-4.20037
-3.26595
-2.70916
-2.29575
-2.38645
-2.47926
-2.69582
-3.04038
-3.42677
-3.6011
-3.63055
-3.44933
-3.15753
-2.82917
-2.702
-2.70048
-3.1709
-3.80923
-4.66449
-4.35588
-3.60054
-2.80841
-2.14407
-1.95219
-1.88408
-2.03339
-2.26301
-2.61751
-2.87175
-3.01005
-3.04314
-2.81917
-2.65114
-2.24236
-2.23098
-2.19209
-2.50598
-3.09379
-3.88295
-3.5238
-2.79497
-2.2185
-1.78676
-1.52985
-1.58223
-1.62733
-1.87416
-2.15052
-2.25151
-2.44001
-2.43874
-2.40163
-2.0469
-1.82091
-1.73183
-1.87112
-2.01525
-2.49594
-3.06976
-2.68734
-2.29694
-1.77712
-1.42132
-1.11873
-1.2341
-1.24475
-1.45421
-1.70236
-1.79788
-1.88928
-1.83776
-1.74872
-1.65918
-1.31005
-1.33339
-1.3582
-1.57316
-1.86383
-2.32258
-1.93114
-1.50218
-1.20954
-0.941345
-0.916607
-0.850738
-0.848425
-1.07682
-1.10165
-1.20593
-1.27746
-1.33728
-1.25071
-1.08615
-0.973945
-0.940456
-0.841379
-1.04126
-1.31839
-1.62512
-1.09599
-0.960016
-0.782652
-0.561329
-0.535629
-0.481576
-0.557723
-0.635732
-0.668349
-0.775735
-0.786314
-0.727665
-0.773463
-0.64753
-0.45841
-0.536045
-0.556524
-0.69361
-0.801953
-0.912759
-0.343741
-0.246189
-0.18943
-0.190797
-0.216529
-0.194482
-0.197219
-0.137294
-0.165758
-0.256994
-0.268591
-0.336784
-0.266362
-0.255816
-0.117567
-0.149145
-0.184278
-0.172185
-0.261465
-0.313188
-6.21056
-5.11671
-3.98844
-3.33933
-2.9535
-2.95687
-2.99966
-3.45539
-3.84729
-4.17243
-4.39936
-4.36151
-4.12401
-3.89057
-3.54849
-3.45524
-3.5713
-4.03645
-4.78236
-5.78388
-5.28029
-4.35205
-3.42631
-2.8669
-2.49105
-2.43612
-2.54737
-2.90673
-3.1718
-3.53262
-3.79604
-3.7913
-3.60081
-3.24549
-2.95154
-2.85139
-2.92283
-3.35034
-3.94532
-4.81486
-4.45546
-3.63085
-2.79389
-2.3896
-2.05021
-2.03508
-2.15081
-2.43056
-2.7036
-3.01549
-3.125
-3.1752
-2.92689
-2.74914
-2.4919
-2.27262
-2.39554
-2.76275
-3.28958
-3.98339
-3.56967
-2.97607
-2.3095
-1.92273
-1.7085
-1.59983
-1.75414
-1.96092
-2.20748
-2.46429
-2.49912
-2.50308
-2.33845
-2.14788
-1.98745
-1.84334
-1.93786
-2.1876
-2.61044
-3.07955
-2.73454
-2.28441
-1.81346
-1.48438
-1.32343
-1.32314
-1.33237
-1.4601
-1.6974
-1.8557
-2.00278
-1.89916
-1.9024
-1.66841
-1.57734
-1.46158
-1.48378
-1.57204
-2.00411
-2.33761
-1.97696
-1.59675
-1.29993
-1.03238
-0.818759
-0.885662
-0.896418
-1.06648
-1.27288
-1.32038
-1.45046
-1.3961
-1.33687
-1.19338
-1.06925
-0.99846
-1.01144
-1.19372
-1.37528
-1.66204
-1.1543
-1.00202
-0.762448
-0.675452
-0.504105
-0.465466
-0.530589
-0.592076
-0.702578
-0.789791
-0.875172
-0.903856
-0.673034
-0.755797
-0.627636
-0.520835
-0.575413
-0.720958
-0.82891
-1.03668
-0.374014
-0.279916
-0.29246
-0.207997
-0.182938
-0.139348
-0.251606
-0.221052
-0.219868
-0.196193
-0.294772
-0.247636
-0.284048
-0.28775
-0.250953
-0.171001
-0.206441
-0.239131
-0.297796
-0.28237
-6.18436
-5.17398
-4.17103
-3.42712
-2.98173
-2.96858
-3.14719
-3.46453
-3.77362
-4.15678
-4.3381
-4.30578
-4.22712
-3.84903
-3.67841
-3.5177
-3.59236
-4.04881
-4.92518
-5.80963
-5.35944
-4.40225
-3.58494
-2.97416
-2.6335
-2.47626
-2.65727
-2.92168
-3.26845
-3.53337
-3.76099
-3.66349
-3.55074
-3.21079
-3.00974
-2.85033
-2.99682
-3.36437
-4.07044
-4.80288
-4.42759
-3.65912
-2.89118
-2.46277
-2.11185
-2.03524
-2.17119
-2.41557
-2.68104
-2.91359
-3.09509
-3.07922
-2.92527
-2.65604
-2.47393
-2.44627
-2.49548
-2.77054
-3.2731
-3.90627
-3.54066
-3.00385
-2.41923
-2.01668
-1.70622
-1.67242
-1.77692
-1.94314
-2.14059
-2.37108
-2.46616
-2.44
-2.27965
-2.07406
-1.99034
-1.96035
-1.94462
-2.18442
-2.71772
-3.16271
-2.82994
-2.3285
-1.83538
-1.51479
-1.34377
-1.24613
-1.35122
-1.46394
-1.67111
-1.84301
-1.89376
-1.87658
-1.82497
-1.7387
-1.59742
-1.45831
-1.49809
-1.63419
-2.00638
-2.39931
-1.97073
-1.65574
-1.28245
-1.0326
-0.947896
-0.991604
-0.998219
-1.03433
-1.14645
-1.35096
-1.31592
-1.36473
-1.26085
-1.19879
-1.05565
-1.0182
-0.989606
-1.23804
-1.39715
-1.64058
-1.20906
-0.92491
-0.75784
-0.627009
-0.589405
-0.604455
-0.632643
-0.651054
-0.691159
-0.738446
-0.735401
-0.796718
-0.791662
-0.638249
-0.654097
-0.608771
-0.623048
-0.787493
-0.865345
-0.98534
-0.397793
-0.26075
-0.221895
-0.230978
-0.201225
-0.190685
-0.202212
-0.156106
-0.280195
-0.185102
-0.306054
-0.316693
-0.290914
-0.200856
-0.19448
-0.16854
-0.226827
-0.197886
-0.309833
-0.332268
-6.11473
-5.09246
-4.07209
-3.43515
-3.07967
-2.91076
-3.02653
-3.23319
-3.62643
-3.97707
-4.08331
-4.12229
-4.02923
-3.70294
-3.53936
-3.44816
-3.53294
-4.05239
-4.72558
-5.64203
-5.19596
-4.41334
-3.42703
-2.9889
-2.58642
-2.47306
-2.6151
-2.80179
-3.00299
-3.33117
-3.39726
-3.46101
-3.30734
-3.14221
-2.94306
-2.81565
-3.04772
-3.35989
-3.97389
-4.71465
-4.39297
-3.62259
-2.91634
-2.39062
-2.09029
-2.13669
-2.13614
-2.30955
-2.60269
-2.8466
-2.87876
-2.92172
-2.81251
-2.5717
-2.42222
-2.35917
-2.43295
-2.77934
-3.28026
-3.80748
-3.56783
-2.95017
-2.35849
-2.01144
-1.80667
-1.67996
-1.72489
-1.96587
-2.04584
-2.20106
-2.31315
-2.32511
-2.25355
-2.06777
-1.94594
-1.8597
-1.97974
-2.04401
-2.5705
-3.03264
-2.79643
-2.26917
-1.81901
-1.49908
-1.3699
-1.39022
-1.35743
-1.44203
-1.62908
-1.71779
-1.79253
-1.75835
-1.7387
-1.59111
-1.43133
-1.28284
-1.46044
-1.63575
-1.99016
-2.33154
-1.8639
-1.66203
-1.32625
-1.05743
-0.918017
-0.924365
-0.941291
-1.02379
-1.11539
-1.31884
-1.28372
-1.25661
-1.16886
-1.12613
-1.0586
-1.0655
-0.999501
-1.07184
-1.36762
-1.68804
-1.18744
-0.942258
-0.808462
-0.643158
-0.538016
-0.551685
-0.523171
-0.650274
-0.672296
-0.692001
-0.819345
-0.810014
-0.740301
-0.681479
-0.616404
-0.591589
-0.569586
-0.572956
-0.794384
-1.00185
-0.305871
-0.306301
-0.264169
-0.184576
-0.233646
-0.252752
-0.226786
-0.245363
-0.233749
-0.227853
-0.305177
-0.230337
-0.271405
-0.278221
-0.244578
-0.255937
-0.228034
-0.325293
-0.33071
-0.325924
-5.95874
-4.91484
-3.94587
-3.25177
-2.89383
-2.74579
-2.79102
-3.06657
-3.37114
-3.50017
-3.72415
-3.7316
-3.55425
-3.41298
-3.24578
-3.19894
-3.3758
-3.79879
-4.60617
-5.43367
-5.10507
-4.18049
-3.3938
-2.77743
-2.49075
-2.2941
-2.31727
-2.57587
-2.85307
-2.99468
-3.15818
-3.08786
-3.00614
-2.86997
-2.73102
-2.55602
-2.88894
-3.15106
-3.82621
-4.54635
-4.17804
-3.49885
-2.80471
-2.29696
-2.00176
-1.93959
-2.00194
-2.20067
-2.28998
-2.54965
-2.64412
-2.65513
-2.47894
-2.36997
-2.26648
-2.16678
-2.27841
-2.60471
-3.15098
-3.69309
-3.45376
-2.82596
-2.29292
-1.90898
-1.63284
-1.56215
-1.56085
-1.75573
-1.8898
-2.03261
-2.14936
-2.08277
-1.9542
-1.91399
-1.74075
-1.70803
-1.79359
-2.05504
-2.55097
-2.95699
-2.56813
-2.18678
-1.72924
-1.41866
-1.32466
-1.22858
-1.27787
-1.34296
-1.4518
-1.55222
-1.58276
-1.6603
-1.52521
-1.52771
-1.36641
-1.24237
-1.3674
-1.45798
-1.81611
-2.21753
-1.85901
-1.58569
-1.20162
-0.996712
-0.867274
-0.887146
-0.889441
-0.957781
-1.0199
-1.02378
-1.16458
-1.17676
-1.11713
-1.04137
-1.01797
-0.997036
-0.951669
-1.11548
-1.21391
-1.52143
-1.11484
-0.946201
-0.702358
-0.626997
-0.625939
-0.441308
-0.45873
-0.529746
-0.593321
-0.633462
-0.756648
-0.680149
-0.63151
-0.599224
-0.600807
-0.486561
-0.593394
-0.583331
-0.798096
-0.901689
-0.389274
-0.298653
-0.27961
-0.263191
-0.169311
-0.226045
-0.227149
-0.20206
-0.250634
-0.227995
-0.166799
-0.241173
-0.268545
-0.251028
-0.277339
-0.239458
-0.18064
-0.218209
-0.294051
-0.303925
-5.6151
-4.64855
-3.7411
-3.02107
-2.62375
-2.32976
-2.43415
-2.60239
-2.85269
-2.98054
-3.13452
-3.25784
-3.09348
-2.97251
-2.88415
-2.83379
-3.05592
-3.58412
-4.18574
-5.08882
-4.76865
-3.93908
-3.13907
-2.57627
-2.20237
-1.97305
-2.09439
-2.18739
-2.31668
-2.52748
-2.68386
-2.64459
-2.59749
-2.46045
-2.28758
-2.36362
-2.48655
-2.89919
-3.51824
-4.23951
-4.04454
-3.32484
-2.63831
-2.17266
-1.79146
-1.70925
-1.68998
-1.83244
-1.95754
-2.13519
-2.21221
-2.16632
-2.13043
-2.00946
-1.9003
-1.94116
-1.95996
-2.32698
-2.82346
-3.4583
-3.18037
-2.64347
-2.12343
-1.76821
-1.47572
-1.29441
-1.38823
-1.41133
-1.67431
-1.71387
-1.81231
-1.79526
-1.76448
-1.60485
-1.48768
-1.51054
-1.6035
-1.80184
-2.29158
-2.72719
-2.43052
-2.08841
-1.68604
-1.30402
-1.14229
-1.07607
-1.0528
-1.10407
-1.21893
-1.33614
-1.34877
-1.33516
-1.34438
-1.18087
-1.15931
-1.14749
-1.1708
-1.36056
-1.73118
-2.06924
-1.74379
-1.45004
-1.2003
-0.94595
-0.842285
-0.771579
-0.733335
-0.804503
-0.729216
-0.958139
-0.938502
-0.935876
-0.966189
-0.853526
-0.862331
-0.84437
-0.882461
-1.00131
-1.27484
-1.47539
-1.1043
-0.922622
-0.614866
-0.631432
-0.457352
-0.37256
-0.362014
-0.491958
-0.438492
-0.55833
-0.603592
-0.611077
-0.538463
-0.48231
-0.476318
-0.445873
-0.470571
-0.602527
-0.683336
-0.85394
-0.327049
-0.292066
-0.197886
-0.228204
-0.16169
-0.101241
-0.126262
-0.157524
-0.181253
-0.177024
-0.218323
-0.16787
-0.193461
-0.207508
-0.149712
-0.154607
-0.179615
-0.246566
-0.188396
-0.278253
-5.15414
-4.15473
-3.33279
-2.59864
-2.16066
-1.91732
-1.92391
-2.08952
-2.13023
-2.42444
-2.50121
-2.57804
-2.49568
-2.33161
-2.28316
-2.34072
-2.56075
-3.02643
-3.78634
-4.63228
-4.35859
-3.61352
-2.7804
-2.25993
-1.83564
-1.70935
-1.66818
-1.71975
-1.87158
-2.07147
-2.09518
-2.12207
-2.00055
-1.92363
-1.8622
-1.8108
-2.13842
-2.55692
-3.1975
-3.81579
-3.59201
-2.96296
-2.31242
-1.82523
-1.55443
-1.30944
-1.38241
-1.40069
-1.56257
-1.59184
-1.77218
-1.74671
-1.64732
-1.62705
-1.45921
-1.46779
-1.63571
-1.99232
-2.49399
-3.10577
-2.89225
-2.43085
-1.86692
-1.4825
-1.24314
-1.0712
-0.989048
-1.08641
-1.23092
-1.36549
-1.31239
-1.44496
-1.29013
-1.22196
-1.14992
-1.20656
-1.30123
-1.52327
-1.95916
-2.45799
-2.26712
-1.86298
-1.45232
-1.07307
-0.943156
-0.784704
-0.739651
-0.797101
-0.975299
-0.983157
-1.09572
-0.951792
-0.994099
-0.876885
-0.823785
-0.87146
-1.0628
-1.19763
-1.47597
-1.8464
-1.6428
-1.29211
-1.02558
-0.752917
-0.68366
-0.698772
-0.579403
-0.575362
-0.623929
-0.699935
-0.720937
-0.74168
-0.736523
-0.726914
-0.571288
-0.483557
-0.709017
-0.806876
-1.0688
-1.27621
-0.968543
-0.812113
-0.595727
-0.507503
-0.432246
-0.307436
-0.438688
-0.311323
-0.404882
-0.39396
-0.461743
-0.383766
-0.385116
-0.435966
-0.392272
-0.405512
-0.418792
-0.47293
-0.601922
-0.712051
-0.348771
-0.316802
-0.172069
-0.198698
-0.0894004
-0.155063
-0.107843
-0.116867
-0.111852
-0.0882882
-0.0708585
-0.174056
-0.163591
-0.103459
-0.103021
-0.0814478
-0.111781
-0.174166
-0.27686
-0.259032
-4.65127
-3.65643
-2.67605
-2.01736
-1.5123
-1.39983
-1.38571
-1.27602
-1.47386
-1.6053
-1.73159
-1.69625
-1.65058
-1.59082
-1.64744
-1.65345
-1.92571
-2.5413
-3.14576
-4.0665
-3.80373
-3.03433
-2.28571
-1.72498
-1.34917
-1.13498
-1.11896
-1.10948
-1.27552
-1.34595
-1.41995
-1.41826
-1.41862
-1.30349
-1.28734
-1.36995
-1.57372
-1.94613
-2.64793
-3.30308
-3.18013
-2.52765
-1.89595
-1.43032
-1.11214
-0.856419
-0.807921
-0.94449
-0.975408
-1.08442
-1.11102
-1.11075
-1.09818
-1.0288
-0.991316
-1.06677
-1.18408
-1.54799
-2.1036
-2.64396
-2.62886
-2.06191
-1.52405
-1.11939
-0.895421
-0.667797
-0.67757
-0.747485
-0.793127
-0.863567
-0.937891
-0.819018
-0.87885
-0.728886
-0.68398
-0.814025
-0.997179
-1.20817
-1.6868
-1.9892
-2.01421
-1.67638
-1.21763
-0.921206
-0.685217
-0.540242
-0.511467
-0.484308
-0.583149
-0.612778
-0.702018
-0.694087
-0.671405
-0.5443
-0.561708
-0.555273
-0.74802
-0.854859
-1.20224
-1.50463
-1.41491
-1.20098
-0.773546
-0.607726
-0.517995
-0.356321
-0.344011
-0.400637
-0.416509
-0.380094
-0.48783
-0.470522
-0.381279
-0.393519
-0.407085
-0.312225
-0.427436
-0.687146
-0.787641
-1.14545
-0.756941
-0.659626
-0.459141
-0.257999
-0.221375
-0.278895
-0.269893
-0.210474
-0.293393
-0.282002
-0.294236
-0.212444
-0.264311
-0.130433
-0.202772
-0.234419
-0.325194
-0.345236
-0.449779
-0.610676
-0.288584
-0.181929
-0.188775
-0.181657
-0.165122
-0.0565614
-0.0972523
-0.100502
-0.132432
-0.149512
-0.0228848
-0.0427389
-0.0887642
-0.124968
-0.0975335
-0.0800897
-0.0547545
-0.131697
-0.0959559
-0.207416
-3.97997
-3.04561
-2.02721
-1.43841
-0.931439
-0.730347
-0.609205
-0.652083
-0.633553
-0.778632
-0.931572
-0.932192
-0.866822
-0.834614
-0.846514
-1.03122
-1.31293
-1.82033
-2.6061
-3.43216
-3.36394
-2.67845
-1.79414
-1.1917
-0.823403
-0.558096
-0.481457
-0.526806
-0.527313
-0.611816
-0.674737
-0.757974
-0.670271
-0.674347
-0.616508
-0.785442
-1.01179
-1.36742
-2.04821
-2.72437
-2.78023
-2.1173
-1.50578
-1.06682
-0.576683
-0.492067
-0.309769
-0.393023
-0.392217
-0.516847
-0.475078
-0.480898
-0.519974
-0.398804
-0.44982
-0.526154
-0.756146
-1.14115
-1.66359
-2.18563
-2.24007
-1.75807
-1.15309
-0.820558
-0.544992
-0.302559
-0.217364
-0.228332
-0.320423
-0.341934
-0.363077
-0.37106
-0.38018
-0.333961
-0.324182
-0.326926
-0.578248
-0.855496
-1.22494
-1.69111
-1.67889
-1.32846
-0.886222
-0.638748
-0.402618
-0.23278
-0.206296
-0.19986
-0.239666
-0.230504
-0.229838
-0.206003
-0.216724
-0.230502
-0.260433
-0.268383
-0.352418
-0.583993
-0.891064
-1.25714
-1.18982
-0.911927
-0.633414
-0.339691
-0.295451
-0.239533
-0.114085
-0.0918643
-0.123663
-0.217797
-0.236179
-0.13569
-0.209949
-0.159265
-0.108674
-0.0924875
-0.162718
-0.368827
-0.653724
-0.839714
-0.675997
-0.535332
-0.403404
-0.292097
-0.159144
-0.126643
-0.111689
-0.109929
-0.0775578
-0.103396
-0.0647266
-0.142327
0.0237156
-0.0287068
-0.0908783
-0.101022
-0.102817
-0.198403
-0.371295
-0.536184
-0.219932
-0.219893
-0.161848
-0.145291
-0.0797251
-0.0658224
0.0139996
-0.00173734
0.00973656
-0.125628
-0.0146176
-0.067003
-0.0355695
-0.048044
-0.0190924
0.010353
-0.0858691
-0.100707
-0.120302
-0.130233
-3.36182
-2.39909
-1.52979
-0.856614
-0.2802
0.039871
0.15396
0.151795
0.11224
0.00541979
-0.00664009
0.0154495
-0.0714288
0.0212366
-0.0689831
-0.220602
-0.564922
-1.14719
-1.92311
-2.74288
-2.84225
-2.06811
-1.22875
-0.664999
-0.21572
0.0745533
0.22431
0.245848
0.195043
0.116008
0.0636573
-0.042093
0.100219
0.124606
-0.0177423
-0.0168341
-0.286402
-0.90168
-1.45383
-2.16695
-2.3276
-1.68307
-1.04326
-0.556139
-0.230207
-0.00372925
0.126015
0.194465
0.216916
0.148099
0.0911124
0.121026
0.163304
0.095953
0.0986128
-0.0113139
-0.168827
-0.58305
-1.18654
-1.69623
-1.88677
-1.34211
-0.822647
-0.369619
-0.167715
0.077284
0.139435
0.159025
0.156898
0.179776
0.176618
0.135076
0.184801
0.15498
0.150273
0.0559252
-0.068508
-0.433079
-0.856241
-1.23355
-1.41192
-1.06315
-0.695779
-0.286182
-0.107312
0.0648779
0.143714
0.15169
0.0742314
0.206082
0.139968
0.121555
0.0715677
0.107385
0.205632
-0.0157636
-0.0705869
-0.378953
-0.590065
-0.939312
-1.00908
-0.788088
-0.485795
-0.207839
0.0237026
0.0433224
0.148618
0.107292
0.151952
0.134774
0.0969366
0.127415
0.141579
0.16345
0.140953
0.0646923
0.0257229
-0.152286
-0.38776
-0.621213
-0.625291
-0.463534
-0.282009
-0.2271
-0.0702427
0.00421996
0.0640211
0.00321506
0.0637901
-0.0146223
0.130341
0.143301
0.0260081
0.0946514
0.0737079
0.117006
-0.0571081
-0.0417624
-0.170306
-0.321463
-0.219013
-0.106467
-0.110172
-0.0771689
-0.0916279
0.0329107
0.0147273
0.0469872
0.0773324
0.0203934
0.0221405
-0.0122988
-0.034561
0.0471903
-0.00810698
-0.0139416
0.03313
-0.0370206
-0.0249747
0.00412056
-2.81938
-1.82199
-0.953998
-0.32125
0.221949
0.591335
0.692502
0.792815
0.871468
0.729064
0.791201
0.740306
0.689755
0.646955
0.541396
0.306118
-0.0219479
-0.562641
-1.2952
-2.1454
-2.32696
-1.58745
-0.79576
-0.127849
0.259285
0.482084
0.634532
0.571967
0.736867
0.695245
0.735619
0.73022
0.648759
0.602228
0.499844
0.34397
0.0766187
-0.347156
-0.958497
-1.73952
-1.9601
-1.31243
-0.650988
-0.166991
0.249354
0.450411
0.554887
0.704788
0.496227
0.589124
0.561185
0.527217
0.613069
0.58242
0.568769
0.442632
0.105336
-0.201801