/*--------------------------------*- C++ -*----------------------------------*\
| =========                 |                                                 |
| \\      /  F ield         | OpenFOAM: The Open Source CFD Toolbox           |
|  \\    /   O peration     | Version:  2212                                  |
|   \\  /    A nd           | Website:  www.openfoam.com                      |
|    \\/     M anipulation  |                                                 |
\*---------------------------------------------------------------------------*/
FoamFile
{
    version     2.0;
    format      ascii;
    arch        "LSB;label=32;scalar=64";
    class       volScalarField;
    location    "0";
    object      relativeErrorField;
}
// * * * * * * * * * * * * * * * * * * * * * * * * * * * * * * * * * * * * * //

dimensions      [0 0 0 1 0 0 0];

internalField   nonuniform List<scalar> 
3200
(
0.0123707
0.00727428
0.00335598
0.000196314
0.0013869
0.00229738
0.00310295
0.00285116
0.00285826
0.00239775
0.0022878
0.00241047
0.00266124
0.00257483
0.0025089
0.00188131
0.0011472
0.00128545
0.00507178
0.00968912
0.0102621
0.0065665
0.00277588
0.000154329
0.00156344
0.00252237
0.00263214
0.00294964
0.00265505
0.00253416
0.0022619
0.00232748
0.00235801
0.00256874
0.00238136
0.00218911
0.00134575
0.000892538
0.00387431
0.00771035
0.00855915
0.00538048
0.00220473
9.79015e-05
0.00139555
0.00208586
0.00245615
0.00263189
0.00222639
0.00238575
0.00217547
0.00210424
0.00223651
0.00232392
0.00241268
0.00228647
0.00126466
0.000398055
0.00318524
0.00604927
0.00707527
0.00421474
0.00168058
0.000146669
0.00135889
0.00183479
0.00205896
0.00216737
0.00205651
0.00192843
0.00180508
0.00209295
0.00201345
0.00203383
0.00194351
0.00198422
0.00123418
4.61228e-05
0.00248135
0.0048406
0.00521095
0.00328269
0.000994316
8.97159e-05
0.00116708
0.00144672
0.00152747
0.00192389
0.00134291
0.00160371
0.00149097
0.00157151
0.00169062
0.00142318
0.00165532
0.00157801
0.000940206
4.0965e-05
0.00154421
0.00364791
0.00377797
0.0023831
0.00104538
0.000103527
0.000687199
0.00123888
0.00127167
0.00116534
0.00132707
0.00127256
0.000811498
0.000911707
0.00131227
0.00152966
0.00130197
0.00130073
0.000768271
0.000321578
0.00100167
0.00255723
0.00225258
0.0016296
0.000600216
9.8014e-05
0.000322592
0.00071659
0.000929312
0.00100471
0.000978202
0.000665553
0.000792859
0.000718737
0.000561995
0.000976396
0.000743825
0.000847823
0.000717261
7.43269e-06
0.000520781
0.00134177
0.0006575
0.000753425
0.000248792
0.000169529
3.55794e-05
5.5691e-05
0.000221016
0.000242355
2.49152e-05
0.000367973
0.000453411
0.000170204
0.000318392
0.000516326
0.000374452
0.000413036
0.000425199
0.000186028
0.000300351
0.000673794
0.012313
0.00749484
0.00332235
0.000331563
0.00108458
0.00178915
0.00226707
0.00197402
0.00160358
0.00159217
0.00129955
0.00135595
0.00145185
0.00180242
0.00171733
0.0015586
0.000662535
0.00172908
0.00544791
0.00963344
0.0104313
0.00637985
0.0025238
6.93997e-05
0.0012617
0.00178959
0.0021569
0.00169252
0.00161727
0.00160172
0.00154483
0.00147629
0.00153797
0.00164437
0.00202081
0.00192405
0.0007971
0.00126685
0.00423176
0.00806836
0.00873727
0.00539642
0.00221032
2.87795e-05
0.000962726
0.00164805
0.002044
0.00197397
0.0015655
0.00157639
0.00131961
0.00115967
0.00147342
0.0018345
0.00194427
0.00192272
0.00102742
0.000800807
0.00334286
0.00624365
0.00696284
0.00435303
0.00175646
0.000165436
0.000945228
0.0015503
0.00169771
0.00152475
0.00138599
0.00126863
0.00123489
0.0013454
0.00125781
0.00156415
0.00182711
0.00155252
0.000936346
0.000181666
0.00227731
0.00522317
0.00549717
0.00336253
0.00119231
0.000174787
0.000575892
0.00123
0.0014515
0.00125093
0.00127155
0.00102695
0.00104457
0.00116059
0.00102124
0.00150192
0.00158468
0.00124381
0.000836806
0.000195522
0.00163419
0.00376646
0.00411815
0.00254007
0.000751261
2.26878e-05
0.000694298
0.000821715
0.000963994
0.00105662
0.00069585
0.000631262
0.000730577
0.000909715
0.00099356
0.00111907
0.000970829
0.00100507
0.000830723
0.00023776
0.00132053
0.00273715
0.00226411
0.00137014
0.000579056
7.98053e-06
0.00037679
0.00044124
0.000544783
0.000555239
0.000520166
0.000542264
0.000425276
0.000792245
0.000310916
0.000595496
0.000725706
0.000674826
0.000614139
1.14561e-05
0.000660652
0.00148236
0.00083196
0.000607183
3.15515e-05
0.000104811
1.57134e-05
0.000242945
0.000113131
0.000174567
0.000232781
9.42228e-05
0.000193337
0.000168915
0.00016571
1.4185e-06
0.000254227
0.000451989
0.000208473
9.24441e-05
0.000340107
0.000494365
0.0125132
0.00775129
0.00372187
0.00125348
0.000582937
0.000992884
0.00134874
0.000756487
0.000323219
0.000132684
0.000151728
0.000263809
0.000131528
0.000387523
0.000564578
0.000499474
0.000442514
0.00219031
0.00573412
0.0100316
0.0108117
0.00687799
0.00344282
0.000884353
0.000436662
0.000921473
0.00116019
0.000899487
0.000704104
0.000127046
0.000230017
7.08918e-05
9.40958e-06
0.000757902
0.000698155
0.00114239
4.86428e-05
0.00149358
0.00462773
0.00826981
0.00893551
0.00570739
0.00262129
0.000934026
0.000489827
0.00102512
0.00106032
0.00117934
0.000792976
0.000339628
0.000187418
0.000358951
0.000126343
0.000610843
0.000970753
0.000950934
0.000246567
0.00114924
0.00362772
0.00659729
0.00708858
0.00469963
0.00225569
0.000432755
0.000477246
0.00103641
0.000865962
0.00089601
0.000752865
0.000383121
8.95031e-05
0.00027392
0.000380863
0.00068432
0.000980427
0.00114296
0.000508153
0.000794446
0.00288588
0.00507707
0.0055208
0.00365648
0.00174897
0.000351263
0.000509779
0.000926876
0.000985172
0.000662457
0.000274377
0.000196954
5.27836e-06
0.000299902
0.00040373
0.000920394
0.000963435
0.000753292
0.000315848
0.0005307
0.00234998
0.0039392
0.00407521
0.00263908
0.00103817
9.68513e-05
0.000466463
0.000780956
0.000800743
0.00055676
0.000623021
7.72336e-05
9.09298e-05
0.000400503
0.000399759
0.000381185
0.000618713
0.000720372
0.000455065
0.00039903
0.00140733
0.0026359
0.00240157
0.00148088
0.000652972
0.000160374
6.22928e-05
0.000223985
0.000313617
0.000484677
0.000359741
0.000177473
3.45006e-05
0.000117037
3.07995e-05
0.000365141
0.000563377
0.000376788
0.000543831
2.72977e-05
0.000828518
0.00166318
0.000835328
0.000511388
0.000385835
3.00769e-05
7.79676e-05
0.000102151
0.000103174
0.000134077
0.000151221
0.000132253
0.000128102
3.61894e-05
0.000341363
0.000279169
0.000116858
0.000418468
0.000185862
0.000236114
0.000277423
0.000279257
0.0127827
0.00876295
0.00459727
0.00185503
0.000756209
0.000283748
0.000170633
0.000786283
0.00145973
0.00188388
0.00229937
0.00201145
0.00194842
0.00122539
0.000760677
0.000514877
0.00165171
0.00334779
0.00647421
0.0107267
0.0110442
0.00713771
0.00388413
0.00161294
0.000525767
1.15076e-05
0.000174716
0.00045411
0.000894061
0.00151814
0.0018427
0.00158765
0.00151079
0.000919193
0.000371442
0.000172983
0.000775348
0.0023288
0.00538736
0.00884359
0.00936621
0.00635233
0.00337586
0.00138312
0.000202602
0.000163738
0.000127212
0.000314059
0.000554669
0.00102539
0.00126776
0.00140841
0.000852328
0.00048324
1.91841e-05
0.00015982
0.000457448
0.00201422
0.00442406
0.00710421
0.0077649
0.00514106
0.00264824
0.000913102
5.66937e-05
0.000208639
9.01678e-05
0.000119426
0.000631133
0.0009602
0.000816659
0.000926118
0.000789744
0.000304975
0.000120216
0.000206846
1.05477e-05
0.00134128
0.00343063
0.00556244
0.00589102
0.00407072
0.00183727
0.000704581
8.1866e-05
0.000257284
9.90659e-05
0.000116957
0.000282495
0.000677331
0.000779835
0.000799003
0.00053845
0.000108651
0.000217188
0.000550014
3.58429e-05
0.00113395
0.00250128
0.00420859
0.00430137
0.00264163
0.00148879
0.000338914
0.000111892
0.000180987
4.65672e-05
0.000286488
0.000268129
0.000662587
0.000746295
0.000650357
0.000594978
3.37573e-05
0.000108892
0.000169949
0.000209419
0.000588402
0.00190184
0.00317117
0.00259362
0.00206533
0.000815423
0.000347099
8.38894e-05
3.92899e-05
0.000251855
0.000149703
9.21487e-05
0.000223322
0.000203431
0.000341072
0.000265474
0.000142378
2.8271e-05
0.000195705
8.61335e-05
0.000254907
0.00111447
0.00173395
0.00103976
0.000675758
0.000165191
5.74401e-05
1.9792e-05
4.82252e-05
8.93998e-05
0.000163502
1.42445e-06
0.000199505
9.46873e-05
0.000128746
2.86446e-06
0.000153307
7.36759e-05
0.000102577
0.000100638
0.000195692
0.000268989
0.000850638
0.0138817
0.00950094
0.00558691
0.00312572
0.00163804
0.0015658
0.0018518
0.00238153
0.00336226
0.0039894
0.00429167
0.00433945
0.00388969
0.00308924
0.00256174
0.00216921
0.00304937
0.00454145
0.00779
0.0116799
0.0118001
0.0081237
0.00484422
0.00278967
0.00170213
0.00114226
0.001403
0.00191306
0.00263642
0.00316082
0.00353927
0.00357183
0.00320855
0.00265056
0.00184722
0.00149469
0.00230922
0.00363885
0.00630755
0.00960073
0.00984124
0.0071794
0.00423167
0.00214568
0.00101291
0.000993088
0.00120427
0.00157064
0.00225868
0.00275244
0.00305441
0.00287791
0.00255836
0.00195528
0.00149045
0.00109687
0.00170466
0.00287827
0.00520998
0.00789914
0.00801175
0.00583112
0.00323273
0.0018048
0.0009625
0.000431335
0.000934439
0.00120507
0.00171954
0.00197802
0.00246269
0.00214208
0.00208198
0.0013455
0.00121306
0.000621076
0.00128357
0.00224708
0.00403092
0.00614426
0.00649581
0.00449441
0.00253217
0.00125115
0.00078217
0.00061409
0.000635503
0.00109389
0.0011344
0.0014398
0.00191614
0.00181576
0.00136812
0.0011531
0.000566471
0.000418627
0.000616486
0.00191132
0.00312182
0.00469736
0.00445814
0.00313805
0.00174933
0.0010006
0.000485076
0.000300707
0.000317324
0.000767039
0.000752174
0.00124965
0.0013644
0.00127243
0.00113373
0.000482717
0.000347571
0.000328095
0.000451598
0.00113749
0.00225359
0.00338268
0.00287438
0.00176804
0.00119116
0.000352615
0.000165014
0.000301974
0.000198054
0.000560426
0.000368932
0.000538816
0.000712687
0.00103776
0.000527607
0.000163199
0.000258654
0.000203556
0.000158235
0.000529496
0.00131887
0.00197219
0.00097115
0.000769841
0.00028635
0.000293146
0.000116547
0.000264249
0.000257999
0.000594457
0.000266595
0.00039926
0.000271693
0.000404548
0.000218156
0.000189545
7.16725e-05
0.000185669
0.000328605
5.89576e-05
0.000590701
0.000915155
0.0147333
0.010442
0.00685237
0.00460003
0.00317754
0.00287139
0.00329429
0.00422469
0.00498601
0.00592407
0.00642646
0.00645725
0.00586938
0.00510423
0.00420605
0.00382594
0.0045079
0.00594173
0.00925599
0.0128397
0.0126092
0.00894194
0.00592469
0.00364928
0.00270698
0.00247435
0.00272069
0.00354778
0.0043546
0.00506836
0.00558043
0.00540522
0.00506243
0.00436588
0.00346389
0.00318472
0.00353232
0.00486873
0.0075923
0.010673
0.0105614
0.0076043
0.00501227
0.0032278
0.00229429
0.00192984
0.00247363
0.00299601
0.00352272
0.00415331
0.00447398
0.00434766
0.00395347
0.00318365
0.00272834
0.00249664
0.00258454
0.00411045
0.00624786
0.00884196
0.0088323
0.00611637
0.00392078
0.00256853
0.00190032
0.0015228
0.00182402
0.0020279
0.00308372
0.00336809
0.00333654
0.00367488
0.00341554
0.00274253
0.00222546
0.00199763
0.00216098
0.00338416
0.00478731
0.00697607
0.00666757
0.0052265
0.00334955
0.00202495
0.00110969
0.00142464
0.00158698
0.0017654
0.0021799
0.00266608
0.00274041
0.00273578
0.00279781
0.00202774
0.00152062
0.00122995
0.00156768
0.00241854
0.00382198
0.00536445
0.00458877
0.00356908
0.00216706
0.00162954
0.00111066
0.000786657
0.00113738
0.00138375
0.00150694
0.00194891
0.00200105
0.00196621
0.00148034
0.00132946
0.00127092
0.00109669
0.00105786
0.00156148
0.00260958
0.00383519
0.00288735
0.00241976
0.00131176
0.000682444
0.000809472
0.000549872
0.000807512
0.00100178
0.000642098
0.00121745
0.00112802
0.00126494
0.00132946
0.0010071
0.000834318
0.000433959
0.000505239
0.00109654
0.00134149
0.00210318
0.00108747
0.000866559
0.000158106
0.000280229
0.000505501
0.000235177
0.00015672
0.00028246
0.000429379
0.00016718
0.000275314
0.000605156
0.000453917
0.000292993
0.000291905
0.000176758
0.00031139
0.000550239
0.000686852
0.000720858
0.015698
0.0115388
0.00797217
0.00589806
0.00454547
0.00436486
0.00511672
0.00570457
0.00689936
0.007871
0.00845631
0.00843414
0.00777719
0.0069219
0.00611495
0.00550672
0.00574052
0.00780818
0.0104214
0.0138701
0.0136055
0.00993946
0.00694651
0.00511185
0.00398764
0.00398547
0.00431541
0.00493251
0.00593712
0.00671033
0.00710535
0.00713565
0.00669849
0.00584604
0.00510741
0.00444911
0.00470065
0.00611903
0.00867383
0.0115872
0.0115551
0.00861781
0.00582041
0.00399463
0.00324139
0.00315534
0.0034363
0.00416576
0.00498432
0.00575047
0.00616808
0.00601936
0.00549979
0.00481615
0.00378326
0.00349284
0.00371895
0.0050948
0.00716143
0.00974048
0.00936916
0.00699274
0.00471936
0.00336192
0.00262799
0.00267083
0.00293727
0.00329177
0.00374183
0.00454612
0.00506557
0.00486538
0.00467284
0.00396985
0.00320974
0.00300367
0.00311782
0.00396418
0.00569817
0.00754725
0.00732412
0.00518828
0.00379296
0.00287102
0.00207184
0.00210421
0.00226636
0.00274142
0.00306382
0.00359163
0.00402656
0.00409486
0.00366518
0.00287116
0.00259063
0.00212131
0.00228746
0.00293103
0.00450359
0.00593674
0.00500207
0.00385868
0.00303381
0.00204757
0.00145976
0.00160631
0.00152094
0.00209543
0.00222322
0.0025893
0.00267783
0.00274047
0.00228331
0.00233253
0.00171561
0.00139641
0.00161557
0.00222939
0.00318653
0.00431249
0.00338343
0.00257199
0.00184328
0.00138831
0.000899991
0.000880953
0.000938729
0.00110698
0.00141741
0.00154472
0.00173233
0.00178179
0.00134793
0.000880815
0.00106932
0.000899766
0.00103678
0.00107191
0.0019977
0.00230197
0.00122902
0.000640275
0.000803609
0.000497117
0.000531536
0.000214405
0.000387375
0.000114644
0.000372221
0.000382282
0.000272977
0.000607812
0.00056343
0.000333007
0.000363106
0.00023205
0.000175655
0.000313393
0.00049582
0.000831468
0.0167321
0.0126862
0.00939055
0.00727777
0.00599597
0.00578629
0.00617632
0.00739042
0.00839045
0.00946578
0.0102432
0.0103018
0.00957842
0.00841295
0.00774311
0.00704588
0.00749588
0.00895588
0.0116675
0.0150068
0.0142724
0.0110714
0.0082984
0.00599758
0.0050351
0.00520906
0.00539855
0.00613331
0.00729843
0.00817139
0.0086439
0.00870487
0.00816993
0.00719192
0.00649654
0.00591341
0.00609639
0.00733017
0.00970663
0.0124058
0.0119934
0.00959198
0.00673776
0.00534522
0.00431254
0.00419361
0.00453151
0.0052697
0.00599051
0.00706141
0.00757909
0.00761718
0.00662263
0.00610993
0.00524939
0.00483016
0.00506547
0.00623905
0.00794548
0.0100857
0.0100014
0.00779511
0.00554038
0.00429217
0.00335064
0.00338097
0.00362609
0.00455152
0.0048859
0.00554537
0.00608723
0.00601023
0.00553526
0.00487266
0.00424099
0.00385692
0.004115
0.0047641
0.0066606
0.0083476
0.00771171
0.00620911
0.00452511
0.00315455
0.00274966
0.00273949
0.00293617
0.00370323
0.00364208
0.00442852
0.00455023
0.00459314
0.00438351
0.0036646
0.00307996
0.00310906
0.00307813
0.00364598
0.00472904
0.00645204
0.00535337
0.00434718
0.00325047
0.00244142
0.00211829
0.00211674
0.00220934
0.00229977
0.00294805
0.00312791
0.00328988
0.00321644
0.00298658
0.00276203
0.0022863
0.00213114
0.0020129
0.00260219
0.00354998
0.00477357
0.00346682
0.00276634
0.00193687
0.00138982
0.0010369
0.00118376
0.00129638
0.00152218
0.00173147
0.00195748
0.00198899
0.0019995
0.00191601
0.00169829
0.00151386
0.00105681
0.0013461
0.00155756
0.00199858
0.00303493
0.000924072
0.000620609
0.000772842
0.00039514
0.000263034
0.000225633
0.000377858
0.000526794
0.000635384
0.000632362
0.00062898
0.000808474
0.000597537
0.000629906
0.000750227
0.000180836
0.000664486
0.000711083
0.000800044
0.0010284
0.0171948
0.0136973
0.0105441
0.0082815
0.00706141
0.00694337
0.00766878
0.00852995
0.00973162
0.0109142
0.0115844
0.0116087
0.0109361
0.00976054
0.00882422
0.00840106
0.00866264
0.0101056
0.0129398
0.0158561
0.0151372
0.0117817
0.00898456
0.00727949
0.00629043
0.00606825
0.00648041
0.00732391
0.00856679
0.00938594
0.0100652
0.00984798
0.00927447
0.00849103
0.00758297
0.0070447
0.00722383
0.00844886
0.0108413
0.0131975
0.0127293
0.0100997
0.00775095
0.00631205
0.00502674
0.00529981
0.0054814
0.00647584
0.00701383
0.00798877
0.00839847
0.00849236
0.00792337
0.00694114
0.0061332
0.00577535
0.00622859
0.00729547
0.00897745
0.0110779
0.0105605
0.00840442
0.00646785
0.00493182
0.00440028
0.0042289
0.00440332
0.00512192
0.00593702
0.00688091
0.00689987
0.00665597
0.00631532
0.00576892
0.00502321
0.00455145
0.00484541
0.00575776
0.00709299
0.00899946
0.00807942
0.00648072
0.0049855
0.00389033
0.00345216
0.00328887
0.00352302
0.00384648
0.00480872
0.00543379
0.00565861
0.00532408
0.00499019
0.00420454
0.00406139
0.00364407
0.0037691
0.00443197
0.00542706
0.00687146
0.00601054
0.00456698
0.00354123
0.00257092
0.00237491
0.00245992
0.00239182
0.00276643
0.00333854
0.00383208
0.00396898
0.00384949
0.00366371
0.00296785
0.00281514
0.00254149
0.00262359
0.00313314
0.00380838
0.00475087
0.00360749
0.00292404
0.00225679
0.00174641
0.001557
0.00135643
0.00158148
0.0018797
0.00209279
0.00227743
0.00231468
0.00225736
0.00223055
0.00169701
0.00176236
0.00178316
0.00155325
0.00204547
0.002401
0.00291533
0.0011085
0.00128764
0.000759513
0.000382343
0.000468643
0.000356444
0.000445834
0.000462392
0.00072665
0.000811247
0.000919201
0.000792567
0.000731998
0.000604526
0.000363463
0.000475868
0.000544592
0.000814778
0.00059784
0.00114304
0.0179027
0.0142583
0.0113799
0.00897399
0.00794385
0.00801487
0.00817441
0.00920475
0.0107331
0.0118118
0.0124774
0.012669
0.0118493
0.010744
0.00973087
0.00928988
0.0097071
0.0110924
0.0137391
0.0164146
0.015736
0.0125219
0.009726
0.00805881
0.00682141
0.00708336
0.00735181
0.00798771
0.00900356
0.0101448
0.0106609
0.0107513
0.0102204
0.00936311
0.00839742
0.00802854
0.00803302
0.00944293
0.0113559
0.0139171
0.0132055
0.0109079
0.00850042
0.00648336
0.00589743
0.0056865
0.00613207
0.00681993
0.00788446
0.00864812
0.00906458
0.00916657
0.00849602
0.00799501
0.00676782
0.00673966
0.00662856
0.00758504
0.00937268
0.0117717
0.0108592
0.00860827
0.00682768
0.00549453
0.00470075
0.00485796
0.00499305
0.00574714
0.00659195
0.00690007
0.00747774
0.0074754
0.00736462
0.00628036
0.00559079
0.00532136
0.00575396
0.00620215
0.00768728
0.00946004
0.00842161
0.00719493
0.00556337
0.0044467
0.0034978
0.00385616
0.00388734
0.00453948
0.00531243
0.00560959
0.00589474
0.00573494
0.00545884
0.00518161
0.00409351
0.00416895
0.00424922
0.00492485
0.00583826
0.00727854
0.00615657
0.00478747
0.00385317
0.00299741
0.00291729
0.00270646
0.00269804
0.00342325
0.00350137
0.00383234
0.00405966
0.00425028
0.00397603
0.00345403
0.00309842
0.00299319
0.0026791
0.00331709
0.00420174
0.00518097
0.00355586
0.00311409
0.00253809
0.00181984
0.00173603
0.00156042
0.00180672
0.00205902
0.00216435
0.00251192
0.00254617
0.00235644
0.0025051
0.00209764
0.00148535
0.00173738
0.00180426
0.00224933
0.00260136
0.00296138
0.00113537
0.0008131
0.000625583
0.000630038
0.000714939
0.000642086
0.000651067
0.000453211
0.000547143
0.000848284
0.000886563
0.00111168
0.000879269
0.000844511
0.000388149
0.00049245
0.000608513
0.000568633
0.000863554
0.00103445
0.0181778
0.0149626
0.0116502
0.00974269
0.00860694
0.00860724
0.00872318
0.0100404
0.0111727
0.0121133
0.0127721
0.012666
0.0119832
0.011314
0.0103294
0.0100691
0.0104195
0.0117904
0.0139849
0.0169289
0.0157037
0.012933
0.010172
0.00850242
0.00738013
0.00721037
0.00753313
0.00858971
0.00936825
0.0104312
0.0112091
0.011198
0.0106408
0.0095976
0.0087359
0.0084477
0.0086683
0.00994646
0.0117243
0.0143195
0.0134698
0.0109697
0.0084339
0.00720705
0.00617797
0.00612724
0.00647085
0.00730799
0.00812541
0.00906071
0.00938978
0.00954277
0.00880032
0.00827094
0.00750262
0.00684819
0.00722498
0.00833989
0.0099386
0.0120426
0.0109751
0.00914515
0.00709191
0.00589984
0.00523863
0.00490199
0.00537147
0.0060016
0.00675377
0.00753806
0.00764462
0.00765817
0.00715708
0.00657718
0.0060897
0.00565208
0.00594628
0.00671759
0.0080216
0.0094682
0.00855379
0.00714277
0.00566709
0.00463599
0.0041309
0.00412771
0.00415445
0.00455091
0.00528901
0.00578138
0.00623963
0.00591766
0.00592946
0.00520226
0.00492073
0.00456212
0.00463413
0.00491265
0.00626634
0.00731216
0.00629419
0.00508215
0.00413579
0.00328315
0.0026027
0.00281424
0.0028474
0.00338658
0.00404117
0.00419152
0.00460444
0.00443234
0.00424519
0.00379066
0.00339762
0.00317393
0.00321655
0.00379787
0.00437724
0.00529157
0.00374198
0.00324773
0.00247062
0.00218814
0.00163264
0.00150713
0.00171761
0.00191632
0.00227367
0.00255573
0.00283202
0.00292505
0.00217834
0.00244665
0.00203222
0.00168682
0.00186407
0.00233618
0.00268664
0.00336067
0.00123501
0.000924239
0.000965579
0.000686655
0.000603877
0.000459945
0.000830412
0.000729527
0.00072559
0.000647443
0.000972757
0.000817226
0.00093743
0.000949705
0.000828322
0.000564472
0.00068152
0.000789507
0.000983275
0.000932399
0.0180282
0.0150702
0.0121364
0.00996106
0.00865725
0.00861043
0.00912034
0.0100327
0.0109221
0.0120279
0.0125525
0.0124623
0.012241
0.0111542
0.0106693
0.0102134
0.0104413
0.0117808
0.0143455
0.0169358
0.0158824
0.0130364
0.0106065
0.00879103
0.0077768
0.00730596
0.00783386
0.00860785
0.00962509
0.0104028
0.0110729
0.0107884
0.0104612
0.00946568
0.00887995
0.0084171
0.008858
0.00995387
0.0120538
0.014233
0.0133444
0.0110216
0.00870173
0.00740628
0.00634581
0.00611092
0.00651473
0.00724399
0.00803697
0.00873228
0.00927625
0.00923059
0.0087725
0.00796955
0.00742812
0.00735067
0.00750463
0.00833864
0.00985889
0.0117732
0.010858
0.00920719
0.00741051
0.0061732
0.00521934
0.00511269
0.00542911
0.00593421
0.00653506
0.00723754
0.00752775
0.00744914
0.00696189
0.00633695
0.00608459
0.00599672
0.00595263
0.00669124
0.00833016
0.00969895
0.00883418
0.00726601
0.00572434
0.00472191
0.00418654
0.00388039
0.00420578
0.00455495
0.0051982
0.00573216
0.00589001
0.00583736
0.00567828
0.00541183
0.00497431
0.00454342
0.00466983
0.00509685
0.00626085
0.00748989
0.00626505
0.0052622
0.00407433
0.00327928
0.0030091
0.00314669
0.00316666
0.00328035
0.00363525
0.0042833
0.00417221
0.00432737
0.00399872
0.00380292
0.00334993
0.00323227
0.00314273
0.00393322
0.00444036
0.0052155
0.00391592
0.00299511
0.00245353
0.00202948
0.0019073
0.00195556
0.00204635
0.00210557
0.00223501
0.00238778
0.00237793
0.00257636
0.00256031
0.00206449
0.00211617
0.00196997
0.00201666
0.00254954
0.00280222
0.00319133
0.00131312
0.000860691
0.000732381
0.000762299
0.000664051
0.000629218
0.000667211
0.000515052
0.000924431
0.000610685
0.00100973
0.00104485
0.000959834
0.000662736
0.000641743
0.000556187
0.0007486
0.000653138
0.00102271
0.00109682
0.0177468
0.0147684
0.0117981
0.0099428
0.00890525
0.00840917
0.00873658
0.00932707
0.0104566
0.011465
0.0117712
0.0118864
0.0116235
0.0106892
0.0102252
0.00997078
0.0102259
0.011741
0.0137044
0.0163748
0.015338
0.013019
0.0101011
0.00880201
0.00761022
0.00727087
0.007683
0.00822675
0.00881391
0.00977508
0.00996901
0.0101582
0.00971115
0.00923162
0.00865268
0.00828472
0.00897522
0.00990317
0.0117227
0.0139172
0.0131956
0.0108754
0.0087489
0.00716637
0.00626147
0.00639604
0.00639049
0.00690583
0.00777962
0.00850711
0.00860322
0.0087332
0.00840972
0.0076935
0.00725074
0.00706688
0.00729327
0.00833789
0.00984772
0.0114369
0.0109106
0.00901763
0.00720478
0.00614077
0.00551221
0.00512269
0.00525701
0.00598897
0.00623076
0.00670247
0.00704379
0.0070813
0.00686537
0.006302
0.00593371
0.00567403
0.00604399
0.00624408
0.00785712
0.00927397
0.00871014
0.00706531
0.00566101
0.00466303
0.00425914
0.00432034
0.00421673
0.00447806
0.00505778
0.00533253
0.00556454
0.00545912
0.00539934
0.00494265
0.00444809
0.00398846
0.00454284
0.00509069
0.00619656
0.00726213
0.00591582
0.00527374
0.00420686
0.00335295
0.00290985
0.002929
0.00298175
0.00324232
0.00353179
0.00417563
0.00406444
0.00397898
0.00370173
0.00356727
0.00335435
0.00337732
0.00316926
0.00339985
0.00433956
0.00535764
0.00384208
0.00304829
0.00261489
0.00207978
0.0017394
0.00178322
0.00169076
0.00210121
0.00217214
0.00223569
0.00264711
0.0026171
0.00239211
0.00220237
0.00199242
0.0019126
0.00184187
0.00185317
0.0025699
0.00324159
0.00100934
0.00101071
0.000871624
0.000608961
0.000770794
0.000833769
0.000748066
0.000809304
0.000770968
0.000751508
0.00100654
0.000759716
0.0008952
0.000917728
0.000806804
0.000844335
0.00075234
0.0010733
0.00109125
0.00107552
0.0172114
0.0141861
0.0113794
0.00936924
0.00833056
0.00789793
0.00802223
0.00880909
0.00968003
0.0100484
0.0106914
0.0107151
0.01021
0.00980991
0.00933608
0.00920891
0.00972661
0.0109552
0.0132952
0.0156948
0.015006
0.0122807
0.00996211
0.00814635
0.0072998
0.0067186
0.00678215
0.00753513
0.00834298
0.00875543
0.00923344
0.00902953
0.00879379
0.00839978
0.00799817
0.0074911
0.00847341
0.00924956
0.01124
0.0133637
0.0125042
0.010466
0.00838418
0.00686164
0.00597578
0.00578661
0.00596932
0.00655899
0.00682305
0.00759547
0.00787691
0.00791101
0.00738834
0.00706671
0.00676183
0.00646842
0.00680625
0.00778631
0.00942546
0.0110528
0.0105296
0.00861193
0.00698371
0.00581099
0.00496764
0.00475011
0.00474399
0.0053343
0.00574016
0.00617307
0.00652766
0.00632628
0.00593732
0.0058173
0.00529317
0.00519641
0.00545973
0.00625919
0.00777391
0.00901504
0.00797966
0.00679246
0.00536895
0.0044027
0.00410914
0.00380952
0.0039609
0.00416145
0.00449778
0.00480837
0.00490297
0.00514372
0.00472617
0.00473531
0.00423688
0.00385386
0.00424361
0.00452674
0.00564112
0.00689028
0.00588985
0.00502269
0.00380496
0.00315507
0.00274445
0.00280649
0.00281301
0.00302849
0.00322444
0.00323645
0.00368154
0.00372036
0.00353235
0.00329351
0.00322036
0.00315508
0.00301249
0.00353218
0.00384507
0.0048203
0.00360327
0.00305776
0.00226932
0.00202541
0.0020216
0.00142503
0.00148104
0.0017101
0.00191516
0.00204463
0.00244223
0.00219543
0.00203861
0.00193464
0.00194006
0.00157145
0.00191686
0.00188474
0.00257914
0.00291433
0.00128409
0.000985111
0.000922235
0.000868023
0.00055836
0.000745413
0.000749013
0.000666252
0.00082639
0.000751731
0.000549959
0.000795193
0.000885474
0.000827753
0.000914562
0.000789697
0.000595761
0.000719717
0.00096993
0.00100255
0.0161356
0.0133494
0.0107349
0.00866171
0.00751655
0.00666943
0.00696376
0.00744117
0.0081539
0.00851773
0.00895778
0.00931194
0.00884538
0.00850391
0.00825648
0.00811826
0.00876162
0.0102844
0.0120203
0.0146233
0.0139534
0.0115195
0.00917355
0.0075234
0.00642698
0.00575401
0.0061044
0.00637254
0.00674704
0.0073597
0.00781508
0.00770202
0.0075673
0.00717135
0.00667128
0.00689756
0.00726138
0.00847253
0.0102888
0.0124051
0.0120571
0.00990689
0.00785656
0.00646587
0.00532819
0.00508082
0.00502106
0.00544216
0.00581207
0.00633861
0.00656726
0.00643194
0.00632717
0.00597026
0.00564872
0.00577342
0.00583286
0.00692945
0.00841295
0.0103095
0.00966424
0.00802963
0.00644677
0.00536554
0.00447571
0.00392398
0.00420668
0.00427523
0.00507068
0.00518989
0.00548798
0.00543699
0.00534502
0.00486309
0.00450987
0.00458132
0.00486574
0.00547043
0.00696077
0.00828717
0.00753235
0.00647017
0.00522151
0.00403677
0.00353469
0.00332854
0.0032555
0.00341313
0.00376751
0.00412939
0.00416842
0.00412676
0.00415602
0.00365152
0.00358601
0.00355077
0.00362437
0.00421353
0.00536343
0.00641273
0.00551428
0.00458438
0.00379371
0.00298891
0.00266058
0.00243657
0.00231525
0.00253945
0.00230149
0.00302379
0.00296182
0.00295373
0.00304982
0.00269471
0.00272316
0.00266716
0.0027883
0.00316477
0.00403045
0.00466555
0.00356501
0.0029781
0.00198436
0.00203745
0.00147548
0.00120172
0.00116754
0.00158643
0.00141391
0.00180024
0.00194618
0.0019704
0.0017364
0.00155551
0.00153641
0.00143845
0.0015184
0.00194454
0.00220572
0.00275678
0.0010784
0.000963
0.000652429
0.000752342
0.000533025
0.000333732
0.000416191
0.000519217
0.000597411
0.000583464
0.000719584
0.000553303
0.000637668
0.000683997
0.000493509
0.000509677
0.000592153
0.00081293
0.000621181
0.0009175
0.01473
0.0118667
0.00951217
0.00741132
0.00615779
0.00546066
0.00547625
0.0059449
0.00605877
0.00689439
0.00711269
0.00733242
0.00710046
0.00663674
0.00650259
0.00667094
0.00730326
0.00863778
0.0108145
0.0132386
0.0126918
0.0105168
0.00808695
0.00656882
0.00533217
0.00496243
0.00484043
0.00498802
0.00542683
0.00600556
0.00607429
0.00615315
0.00580246
0.00558163
0.00540617
0.00526004
0.00621564
0.00743696
0.00930605
0.0111112
0.0106633
0.00879207
0.00685794
0.00541
0.00460482
0.00387711
0.00409138
0.00414399
0.00462178
0.00470775
0.0052411
0.00516643
0.00487368
0.00481542
0.00432059
0.00434816
0.00484827
0.00590862
0.00740048
0.00921985
0.00875801
0.00735824
0.00564863
0.00448339
0.00375779
0.00323668
0.00298736
0.00328046
0.00371605
0.00412187
0.00396158
0.0043622
0.00389562
0.00369086
0.00347454
0.00364723
0.00393518
0.00460887
0.00593042
0.00744304
0.00700648
0.00575586
0.00448547
0.00331291
0.00291078
0.00242095
0.00228128
0.0024579
0.00300689
0.00303085
0.00337786
0.00293441
0.00306535
0.00270455
0.00254152
0.00268951
0.00328122
0.00369888
0.00456018
0.00570625
0.0051844
0.00407685
0.00323506
0.00237433
0.00215535
0.00220245
0.00182582
0.00181278
0.00196556
0.00220487
0.00227102
0.00233651
0.00232055
0.00229066
0.00180064
0.00152449
0.00223588
0.00254518
0.00337225
0.0040275
0.00312286
0.00261817
0.00192025
0.00163559
0.00139283
0.000990502
0.00141318
0.00100279
0.00130405
0.00126882
0.00148713
0.00123604
0.00124048
0.00140442
0.00126383
0.00130668
0.00134969
0.00152443
0.00194053
0.00229586
0.00114953
0.00104412
0.000567075
0.000654797
0.000294597
0.000510946
0.000355336
0.000385057
0.000368523
0.000290882
0.000233457
0.000573469
0.000539003
0.000340891
0.000339464
0.000268391
0.000368366
0.000573987
0.000912478
0.000853755
0.0132167
0.0103841
0.00759486
0.00572158
0.00428639
0.00396523
0.00392323
0.00361118
0.00416985
0.00454106
0.00489831
0.00479907
0.0046712
0.00450394
0.00466663
0.00468645
0.00546166
0.00721244
0.00893384
0.011555
0.01102
0.00878681
0.00661511
0.00498933
0.0039001
0.00327919
0.00323144
0.00320289
0.00368128
0.00388405
0.00409759
0.00409325
0.00409535
0.00376436
0.00371941
0.00396015
0.00455182
0.00563233
0.00766786
0.00956957
0.0093993
0.00746782
0.00559871
0.00422155
0.00328082
0.00252529
0.00238135
0.002783
0.00287347
0.00319426
0.00327259
0.00327217
0.00323585
0.00303239
0.00292305
0.00314698
0.00349477
0.00457118
0.006215
0.00781457
0.00793138
0.00621882
0.00459469
0.0033733
0.00269724
0.00201081
0.00203957
0.00224943
0.00238634
0.00259803
0.00282163
0.00246423
0.00264475
0.00219403