/*--------------------------------*- C++ -*----------------------------------*\
| =========                 |                                                 |
| \\      /  F ield         | OpenFOAM: The Open Source CFD Toolbox           |
|  \\    /   O peration     | Version:  2212                                  |
|   \\  /    A nd           | Website:  www.openfoam.com                      |
|    \\/     M anipulation  |                                                 |
\*---------------------------------------------------------------------------*/
FoamFile
{
    version     2.0;
    format      ascii;
    arch        "LSB;label=32;scalar=64";
    class       volScalarField;
    location    "./ITHACAoutput/true/15.8";
    object      error;
}
// * * * * * * * * * * * * * * * * * * * * * * * * * * * * * * * * * * * * * //

dimensions      [0 0 0 1 0 0 0];

internalField   nonuniform List<scalar> 
3200
(
-2.6768
0.929297
0.495451
1.15897
2.54946
0.141904
0.0674064
2.07714
3.01145
1.21867
3.66407
3.26327
2.47821
3.10112
2.04457
4.76711
0.922106
2.77502
0.103364
-2.60972
-1.70313
-0.839909
2.0524
3.17169
2.61922
2.38713
2.51171
3.84896
-0.265824
3.98521
1.28407
4.60589
1.56359
5.99286
5.23799
1.48787
1.6512
1.70409
-0.835359
-0.994178
-1.42122
1.43213
-0.0492481
-0.307331
1.12412
1.80642
3.36131
1.74987
-0.222667
2.92902
2.14337
0.662192
1.40036
2.70739
3.36398
5.14336
4.0022
1.66193
-0.257043
-2.52813
-3.2738
0.937709
-1.76566
0.243337
3.94353
2.68004
3.46158
2.77453
2.22093
1.17956
1.43949
0.821309
3.63218
2.59684
2.34855
0.816417
0.951585
1.28385
1.02633
-1.41573
-0.715714
-0.654502
0.682617
0.184892
-0.256543
1.06181
2.68519
0.810614
3.12378
-2.01269
1.44309
2.81698
2.6768
0.921836
0.170606
0.265355
0.833005
1.0885
1.62496
0.900223
1.48626
2.08264
0.33974
0.915793
0.171495
2.49572
2.1955
-0.662025
0.0214225
2.74841
2.15951
1.72359
0.368293
-0.293225
0.0418831
1.09743
1.11958
-0.338507
2.39954
1.38038
-0.762875
-1.27241
-0.408106
1.45035
0.71342
1.28556
1.75185
0.637459
-0.256726
0.0107211
3.08761
-0.0462453
3.24915
0.712561
2.69084
2.97186
3.0554
0.110457
-0.776844
-1.40535
-0.10083
-2.24163
-2.21563
1.04065
1.75273
-0.319406
1.5015
1.37842
-0.142874
1.07883
-1.49757
-1.84123
-0.931138
-0.0507931
-2.89747
0.880865
-0.0689107
0.73134
2.5575
0.980795
-0.941302
-0.312563
1.55505
1.57616
3.05533
1.59085
3.36567
2.57486
1.32118
4.47129
1.1087
4.34971
2.68148
4.22908
2.57908
4.34531
5.28146
1.58514
3.08928
-1.41254
-2.09218
-0.331098
3.14847
0.336441
1.57611
-0.163114
1.24959
-0.0777975
1.16887
-0.105906
-0.286985
0.802058
-0.177377
2.89305
-0.165886
3.95038
0.140766
2.13248
0.176286
-0.860252
-3.27145
-2.50216
2.37979
0.34734
3.24099
0.663426
3.04611
1.78418
1.61282
1.48378
-0.124235
2.04996
2.10508
0.379468
1.28787
2.50903
2.84713
0.809722
2.20144
-0.440945
-3.40106
1.86482
-1.14305
2.06284
1.77476
2.22134
0.794383
1.14043
-0.728036
0.927663
1.55047
0.170631
2.61435
2.3583
2.64476
-0.0957509
1.59503
2.27064
0.445007
-2.56431
0.64128
-1.66913
-0.0415333
1.52642
0.867321
-2.60887
0.257073
-1.16222
1.58198
1.37328
1.02748
0.314485
2.5187
2.42953
2.56674
1.32907
0.643448
1.89038
0.332431
-2.14296
-1.30371
-0.789909
1.47857
1.69631
-0.599161
0.72414
-0.268439
1.27293
0.572391
0.460359
1.59343
2.11928
2.59701
-0.0321791
2.95787
2.55489
2.03032
-0.423728
0.627761
-1.79579
1.74955
0.388103
0.685212
-0.658902
2.05666
3.04854
-0.00420076
1.91547
3.0838
3.69266
0.777442
-1.91628
0.262122
-1.52185
-2.55469
0.786726
1.37518
-0.845827
0.97987
-2.26674
0.758647
-0.605963
-1.39134
1.21927
1.35436
2.1621
1.74747
-1.33687
1.37813
0.802316
-0.36228
-1.08618
0.59903
0.635513
-2.6857
-0.872477
-0.705294
0.440442
0.241526
-0.753676
-2.38567
-0.438949
0.7714
0.5775
2.74001
0.356606
1.27046
0.606192
0.877135
-1.12487
0.0946561
1.14557
0.222761
3.97086
2.35825
1.52938
2.44045
3.60309
1.67481
-1.00179
-2.46073
0.0910486
0.417401
0.122658
0.859289
2.72861
1.21747
4.50504
-1.03131
0.916864
0.256662
1.63605
2.29272
1.4494
2.76339
2.93888
2.59875
2.64663
-0.289072
1.47662
-3.19632
-3.96183
-2.33721
0.653552
2.99631
0.727426
1.12538
1.21059
1.60242
1.74333
2.53954
0.93129
1.5458
0.117249
1.79406
3.06644
1.62191
1.97883
0.618839
0.188769
-2.46799
0.519912
2.28241
-0.250693
-2.65369
-0.534984
1.72814
2.50339
1.73039
0.284743
2.48672
0.977711
1.21004
1.11411
1.78085
2.79336
0.346198
-0.773347
0.371405
-0.404212
-1.03788
-0.240545
-1.68562
2.80435
0.436633
2.5574
-2.49433
-0.846815
1.78132
0.0142981
-0.415123
-0.43367
3.95448
2.06373
1.34357
1.52946
1.85673
2.16381
-0.200526
0.118353
-1.31762
-1.18978
1.07269
1.22243
1.09608
0.483535
0.500205
0.143369
0.33151
-0.619649
-0.0195192
0.884174
0.443665
1.66057
-1.5159
-1.50028
1.50598
-0.781514
-0.25329
-0.635227
-0.832588
0.947857
1.95301
-1.42416
1.21865
1.73451
-1.1438
1.56727
1.27111
-2.88718
0.931397
-1.89441
-1.3378
-1.07458
1.62413
-0.615198
0.822939
0.0746599
-0.339395
-0.210788
2.17645
1.55705
1.8236
0.80047
1.62966
0.585347
-0.724593
-0.582362
2.70416
1.0053
-1.75184
-0.478139
-2.25502
-0.292217
-0.9738
-1.42105
-0.992054
0.478891
-1.28212
0.502212
-2.61991
-0.935698
1.1584
1.18376
3.45277
1.27464
0.56649
0.472611
1.10416
-0.201292
0.476703
-2.59257
-0.77338
0.536801
1.94456
4.29137
1.74222
2.10579
0.991598
-2.2582
-4.64727
0.230931
1.39178
0.114822
1.29417
0.00530829
3.60489
-0.203507
-0.480262
-0.0134745
-0.0419777
0.394382
-0.404676
3.14033
0.0903551
1.56162
0.308068
3.4938
-0.307239
-0.420014
-2.84996
0.316946
0.309275
-1.99642
1.18508
0.34167
2.75975
0.0565134
-0.299179
-0.102176
-0.0314596
-0.827452
1.02889
1.66392
1.7447
1.92855
2.0957
1.34967
-0.309015
-3.14408
-2.35491
-1.00873
1.76775
1.1979
-0.0856184
1.41377
2.0174
0.58931
0.367918
0.953522
0.176676
-0.119402
1.72987
0.342955
-0.655928
0.0803761
1.74991
1.76672
0.0170347
-0.658452
-6.11859
0.708099
1.11745
-0.379852
1.30751
-0.450326
1.82271
1.98565
-0.032643
2.20976
-0.105067
2.09473
1.77816
2.55573
2.01986
0.10826
2.83602
-1.18681
1.20353
-0.32473
-0.81423
-1.02522
-0.930898
1.22575
-1.40283
-1.48455
1.40423
-0.541497
0.798382
-2.28982
-0.586505
-0.882334
-1.75226
0.834144
-0.733417
0.941723
1.22924
-0.399939
0.546583
-0.784436
1.11978
0.887296
0.679029
0.802112
0.228025
1.34029
-1.56258
0.0634548
1.07029
-1.18362
0.505194
-1.85953
1.66031
0.741716
0.669514
-0.109188
-0.168256
2.78929
-1.14591
-1.06721
0.0808437
-0.180382
-0.0774818
0.366405
1.31123
-2.13096
-0.0388954
-0.0767099
0.653476
1.13627
-1.38913
-0.964945
-0.605674
2.91002
-1.73062
0.362955
-2.27228
-1.29069
1.82685
-1.80989
-4.43484
-0.83728
0.283131
3.05612
0.412925
2.25523
-0.519139
1.13104
-2.26465
1.17323
-2.05686
-0.155206
2.06443
-1.01926
0.0882802
0.271865
3.19942
0.00667895
0.135333
-1.88498
-0.281252
0.149933
-0.467231
0.926193
2.11413
1.41176
1.09017
-1.09379
0.902567
0.905391
-0.68202
-2.2542
1.6148
1.10886
2.51686
0.817655
1.1123
3.17076
-0.802142
-1.75433
-3.6892
-2.32058
1.99792
1.44674
1.08675
-0.131486
-1.58587
1.33225
-0.638694
-0.906954
-3.01939
0.734741
2.22453
-0.352627
-0.998989
2.82875
0.845336
1.73102
-0.252155
-2.0607
0.0571291
-2.47771
0.917823
1.33249
0.886777
2.80664
1.71524
3.15546
-0.256509
2.09844
-0.45508
3.54125
-0.108127
1.1783
1.97482
-0.310907
0.12821
1.08898
-1.52633
-1.17658
-1.86022
-0.396097
1.036
-0.733385
0.803082
0.787713
-0.631835
1.62597
1.97237
0.846096
-0.71387
1.05161
0.451779
0.738197
-1.86497
-0.50093
0.391911
0.0519292
-1.18526
-0.271242
-1.61647
-0.923807
-0.160123
2.05429
1.05088
1.54264
0.523886
-2.44274
1.95316
0.358087
1.6449
1.69573
-1.27414
-0.722635
2.44011
1.18996
-1.65189
-0.400047
0.48335
-1.58891
-0.782591
-1.80965
-0.645633
0.333858
-1.64456
1.23273
-0.63492
1.90828
-0.582284
0.284314
1.37758
1.4532
0.1985
1.67894
0.154928
-0.504648
-0.114905
0.607574
-0.548766
0.765252
1.05424
-2.11431
-1.4431
-2.57071
-0.435092
0.139873
-1.79916
0.829133
1.03874
-1.10307
-0.0191787
1.88162
-0.979819
0.10077
-1.58066
2.00904
-1.46652
0.275359
1.84483
0.585559
-4.32133
-2.35469
-1.68777
1.5251
2.62593
1.85367
1.81955
0.696083
-3.60297
0.155001
-1.42318
-1.67815
0.343446
-0.630813
0.355724
2.24583
0.975869
0.359671
0.412373
-1.77699
-2.23508
0.0745993
-2.04073
-0.0923858
2.01629
-0.241036
-0.528626
-0.00756328
-0.160868
-0.0176189
0.124586
-1.25005
-0.45471
0.168319
-0.0906013
-0.467271
0.10582
-0.211736
0.27557
-2.21553
-3.0992
-2.30456
-0.35501
-0.39345
0.286888
1.92932
1.68632
1.04504
-0.542597
1.659
-0.319155
-2.49088
-0.147312
0.646725
0.530733
0.243121
-0.208349
1.584
0.0841362
-1.308
-0.524696
-0.926473
0.309537
0.706437
2.70066
2.10575
-0.810052
-0.205934
1.748
0.55408
0.354578
-1.14063
0.750267
1.80312
-0.841336
0.301994
1.57474
0.668423
-0.377792
-2.55455
-0.76552
0.42591
1.73443
0.943529
1.47556
0.684196
-0.408741
-0.18254
-1.91933
0.515231
-2.34702
1.02416
-0.691202
0.585046
-1.7964
0.495271
-0.52294
-1.01383
0.507045
-2.67944
-0.152958
0.658135
0.135557
1.20415
-0.207109
-1.5966
-0.247296
-2.63446
1.49062
0.316431
0.340017
-1.09255
-0.465179
1.31343
-1.14903
0.589262
0.751224
1.44402
-0.691846
0.240714
-2.01905
0.4822
-0.0997552
-0.52008
-2.92011
0.34331
-3.10826
-2.4908
-0.555943
-0.276907
1.2249
-0.356598
-1.81046
-1.09699
1.66435
1.46805
0.810004
1.77927
-0.28846
1.50352
0.32177
-0.726236
0.627379
0.706412
1.28381
0.347091
-0.810952
3.27794
-0.273989
-2.4784
0.517403
-1.27753
0.676623
-0.0254329
-0.106925
-1.06312
-2.72752
0.901886
1.15011
0.527698
-5.87674
-1.08515
-1.50775
-0.317733
-0.33548
-2.19753
-0.503339
1.59574
-2.69317
-0.773495
-4.94364
0.511804
-1.499
-3.09493
-1.29221
0.54066
0.282219
-0.643908
-0.101664
-2.02292
-3.86909
-0.963851
-1.51791
-0.464143
0.841177
0.85162
0.450972
-0.19963
-1.77004
-2.42333
-2.71115
-1.13179
-0.306244
-0.360237
-1.18714
-1.26163
-0.0108974
0.508893
-1.82605
-1.30831
-2.80438
-3.28165
-2.63182
-3.62036
-0.0633664
0.0982631
-1.18944
-0.698488
-1.61301
-0.419688
-1.95952
-1.46087
1.18179
-3.42229
0.292003
2.29739
-1.28253
3.15039
0.663837
-3.01699
-3.37714
1.48576
0.159461
-2.36488
2.14715
-0.304313
-0.149861
0.857604
0.007081
-1.57799
-0.432541
-1.15429
-2.00406
-1.76468
0.423368
0.338166
2.40809
-1.10431
0.110107
-3.17972
-1.30793
-2.17831
1.73131
0.676223
-1.15867
-2.73863
1.10738
-0.219968
-0.969453
0.087589
-0.84375
-0.90642
-0.249598
-0.0233625
1.2689
-2.13695
0.324045
0.291016
-0.544703
-3.82611
-2.003
-1.31897
0.079698
0.0293003
-1.52838
1.83934
-0.306916
1.55764
0.072994
0.116807
-1.9349
-0.885967
2.05765
2.24441
-0.447371
-0.0642175
0.123537
-0.399419
-0.611506
-3.0905
-0.81643
-2.4463
0.493372
-0.816898
1.45721
-1.43849
-0.0381794
-0.707707
-2.30975
0.947262
-0.0175549
-0.499979
-0.347912
-0.815203
-0.736058
-1.37557
-0.772785
-1.69235
-0.510904
-1.09302
-0.839517
-1.96474
0.379572
1.3168
0.420873
0.0357226
0.490146
-2.42309
0.55517
-0.845421
-3.4843
1.37907
-0.828957
0.706067
-0.0649913
-0.682159
-0.752284
0.425889
-0.71919
-0.0734063
-6.57419
-2.76477
-4.05597
-1.44787
-2.23123
-0.875566
-1.33414
-2.45461
-2.49337
-2.92525
-1.80276
-3.53527
-1.75907
-0.833778
1.56666
-0.345633
0.619461
-1.19001
-1.21147
-1.58843
-3.56051
-0.0428308
-1.44217
-0.0494115
0.0446797
-0.700076
-1.05419
0.492196
0.0934627
-0.0184077
-0.0172158
-3.88596
0.0285174
-0.742535
-0.427023
-0.835543
0.335175
-0.807517
-0.141807
-1.87581
-1.82744
-2.00535
-2.34215
-0.473714
0.257734
-1.4777
-0.458381
-0.684584
-1.12231
-2.37575
-2.58572
-1.05499
0.088242
-1.82902
0.378258
-0.925778
-0.0308927
-0.376679
-2.98793
-0.613534
-3.87024
-0.507944
-2.31345
0.19864
1.02083
-1.2604
-0.310623
0.056993
-2.71422
0.198986
-2.4863
-2.0682
-1.32503
1.79858
0.456596
0.569021
-1.65995
0.311823
-3.35389
-2.17516
-2.41274
-3.44313
-0.642642
-1.12195
1.05474
-1.25179
-0.0767853
-1.39782
-0.460625
-1.05236
-1.91801
-1.94017
-3.34693
-1.34154
-0.392964
-3.73221
0.429993
0.493159
-1.49412
-2.12583
-3.39171
-1.45851
-0.107809
-0.349294
0.793214
-1.27783
-1.74054
1.85147
0.394848
-2.42968
1.4484
-1.93658
-0.325596
-1.15251
1.80801
0.506351
0.36333
0.675173
-0.839361
-1.78707
0.447339
0.508368
-1.89364
-3.76008
-0.332637
-2.2009
-1.14935
-1.33613
1.78482
-0.38374
-0.418797
-2.09507
-0.252398
-1.03503
-0.203527
-0.267362
-1.45122
-0.00261178
0.343655
-3.48654
-0.227635
0.394204
0.82914
-2.46872
-0.955172
-1.40685
-0.113481
0.796548
0.136429
-0.07197
-0.385898
0.945063
-0.291591
-1.53738
1.21262
-0.193642
-1.98452
0.771348
-0.425279
0.804392
-6.07569
-0.00925786
-0.204739
-2.28845
-1.73563
-1.51697
-3.64883
-0.197609
-1.77141
-1.88912
-3.24978
-3.16924
-1.13922
-0.36002
-3.26586
-1.50795
-0.830261
-1.71382
-2.74877
-2.08197
-4.05848
-2.6066
-3.32777
-2.32661
-1.10661
-0.728759
-1.43392
-2.19467
-1.11027
-2.72045
-2.13473
-1.68391
-0.652964
-0.742447
-1.18552
-2.5423
-1.64851
-0.461717
-1.01969
-2.74783
-5.63623
-2.68794
0.477251
0.0841139
-0.661487
-1.0162
-1.72675
-0.314442
-2.19099
-2.50784
-0.977869
-1.23212
-1.73978
-1.58785
-0.448734
-0.46968
0.307118
-2.49148
-0.597279
-4.08572
-2.47674
-3.12158
-0.558666
-0.874075
-0.882447
-1.69942
-2.03395
-0.223504
-1.31818
-0.98657
-2.77303
0.95354
-1.02597
0.719672
-0.418222
-1.33888
0.00233058
-1.79285
0.35642
-3.53599
-2.82828
-2.9441
-0.641023
0.686067
0.897285
-0.878007
-1.35325
-1.29196
0.879783
0.423042
-2.79535
-0.87037
-1.80172
-0.696522
-0.992457
0.00842614
0.101341
-2.44062
-1.3433
0.160104
-1.78296
-2.78349
-0.603461
-2.2518
2.23326
0.705953
0.25208
-1.25027
-1.44955
0.994879
-0.415099
0.856094
0.0218401
-0.484768
-0.207791
-1.56188
0.0912017
-1.03874
0.167716
-1.18049
-2.03784
0.55567
-2.7883
1.61202
0.123009
-1.99284
-1.97169
-0.344924
1.22318
0.56694
0.638438
1.23286
-1.33657
-1.39914
-0.486953
0.224271
0.261497
0.0442127
0.848335
2.39496
-1.04758
1.41164
1.35519
3.00912
0.0490156
-0.106412
-0.250083
0.108375
0.664661
-1.35005
1.18649
-0.0144121
-0.520141
-0.676431
0.724848
-0.352275
-0.0661131
-1.84825
0.41675
-1.76495
-5.7236
-4.60813
-2.04524
-3.64533
-1.28456
-4.09034
-0.0506962
-1.64779
-2.94988
-4.9177
-3.58506
-4.39095
-1.10729
-3.30326
-3.03833
-1.62657
-2.11304
-2.61451
-3.08695
-2.47121
-3.59064
0.448891
-1.95712
-0.54561
-0.821814
0.455236
-2.15853
-0.509619
-1.38773
-0.452519
-0.487971
-1.78805
-0.0276258
-1.64941
0.329962
0.913751
-0.496932
-1.58331
0.357447
-4.24069
-2.1447
-3.37901
-0.593605
-2.35828
-1.77443
-0.450305
-2.70826
-0.0309299
-3.23614
0.809598
-2.35172
-2.31905
-1.423
-1.27043
-2.77185
-1.54205
-0.683834
-1.5118
-3.09815
-2.96148
-2.48126
-5.26529
-2.3534
-0.404878
0.600275
1.21954
-1.50241
-0.944056
-0.96406
-0.766143
-4.07939
-0.949851
-3.33944
-1.37829
-2.43659
-1.94769
-0.677418
-3.49647
-1.36661
-4.15777
-2.24042
-1.06755
-2.12059
0.300547
-0.304055
0.471428
-1.04812
-1.86453
-0.778588
-2.65192
-2.07086
-1.52483
-0.477678
1.13634
-0.764019
1.6238
-1.4378
-0.543721
0.174381
-2.84594
-1.89833
-2.61762
-0.912168
-3.09964
-1.1123
0.80529
-0.937285
-1.87198
0.616703
-0.0381928
-0.445734
-1.00199
0.314131
-1.39545
-0.380655
-1.67598
-0.078042
-2.01177
0.283004
-1.63172
-2.24498
1.87397
0.0282443
-2.32702
-1.51126
-0.303281
-1.20583
-0.207337
-3.52626
-0.219861
1.15131
-1.50117
-1.36563
-3.50892
-2.14631
1.69851
-0.514225
1.54998
-2.56859
-1.05384
-1.16022
1.71021
1.28637
-0.040786
0.229171
-2.03153
-0.8297
-0.837302
-1.54909
-0.731621
0.295147
1.06905
-0.23453
-0.0308301
0.454039
-0.121587
-0.70058
-0.856607
-0.356117
1.0024
-6.30952
-3.06156
-3.96227
-3.52462
-0.483203
-1.97053
-1.24442
-0.444325
-2.63555
-5.2672
-4.93513
-3.0792
-2.08541
-1.36742
-2.85634
-0.0959578
-1.25485
-1.43797
-3.23251
-4.29903
-3.94433
-0.0372061
-2.82586
0.0121609
-0.969472
0.471406
-2.31956
0.5009
-4.48621
-0.384835
-0.305793
-2.4669
-0.976511
0.924389
-0.433132
-0.760833
0.120144
-1.86111
-0.156965
-1.83447
-4.13346
-3.22555
-0.829185
-2.47399
-2.61159
-2.40898
0.132596
-1.56922
-0.106388
-1.9018
-1.94358
-0.208186
-0.871474
0.197908
-0.504106
-1.06413
-1.91597
-1.08133
-2.93132
-6.53619
-2.62858
-1.73832
0.366088
-2.16037
-0.418116
-1.10283
-3.25477
-1.36296
-1.67992
-0.588819
-3.37202
0.185169
-1.44615
-2.17486
-1.4083
-1.08811
0.172351
-0.663978
-1.56037
-1.89436
-3.38951
-2.41367
0.291925
-0.827574
-2.84603
1.36012
-0.260192
-1.95725
0.613421
1.52112
-2.43269
-2.85618
0.0970835
0.545425
1.46796
2.33851
-0.665902
-1.18787
0.674506
-3.05493
-1.12884
0.654784
0.58761
0.0410394
0.036308
-0.117606
0.0988949
1.17803
0.722091
-1.66054
-0.704538
0.279276
0.0306662
-0.427844
-1.36368
1.05622
-1.20758
0.704705
-1.14747
-1.94865
0.000778238
-0.331866
-2.18967
0.599498
-2.15756
1.94556
1.31787
1.13626
-1.24647
-1.07955
0.685855
-0.688044
0.261339
1.79233
-0.124207
-0.466421
1.50021
-3.1959
-0.641734
-1.41666
0.0892219
-0.898962
1.48
0.217003
-1.18644
0.126324
0.96511
0.28555
-1.1515
1.27992
-2.57835
0.265572
0.505037
0.378453
-0.674532
-1.1337
0.72565
1.25726
-2.19862
-2.09309
-3.18047
-6.02296
-2.85206
-4.16998
-1.74012
-1.28735
-4.59988
-1.25025
-3.53963
-3.23981
-2.56585
-3.42672
-3.24278
-1.17999
-2.83982
-1.80581
-2.34532
-1.37782
-3.67373
-3.57709
-2.52761
-2.57736
-1.88891
-1.2318
0.486458
-3.21528
-1.36995
0.40643
-3.31544
-0.284467
-4.90465
-3.30039
-2.92268
0.0720638
-3.18269
-2.75554
-3.76144
-1.9279
-2.86918
-3.85366
-5.01944
-3.42702
-1.53631
-3.4464
0.031817
-0.0197907
-1.22667
0.520492
-1.70015
-0.17246
-3.40071
-1.44374
-0.762856
1.34951
-0.935651
-0.47182
-1.9412
-0.940118
-0.892005
-4.95129
-3.26327
-3.03367
-2.12119
-0.890091
-0.393872
-0.278038
-0.300159
-0.222946
-1.87141
0.206109
-0.947776
-0.186877
-2.67403
0.233023
-2.13721
-1.28512
-2.38381
-2.08664
-3.5486
-3.65396
-2.50611
-0.618186
-1.27349
-1.62735
-1.2167
-0.254675
0.62072
0.253164
0.538964
0.720784
-1.88767
-1.02979
-1.59913
-0.649045
-0.584696
-1.42741
0.742164
-2.86716
-3.25797
-2.05724
-1.054
0.167116
-0.0571958
-2.59758
-0.312075
-0.565102
-0.350878
-0.209987
-0.479947
0.400648
0.544902
-0.798163
-1.19754
0.182417
0.865085
-1.79442
-0.333696
-0.885299
0.587437
-1.59096
-2.46494
-0.31693
-0.791908
1.49345
-1.15849
-1.32559
0.694788
-0.421423
-1.43338
-0.329497
-0.948028
-1.23001
0.100187
-0.360217
0.143268
0.544406
0.925361
0.932545
0.984652
-2.30427
1.02505
0.407232
1.12025
1.41278
-1.25823
-1.02627
-1.28486
-2.07983
1.28172
-1.069
-2.08544
-0.0997276
1.68547
1.91356
-1.12319
-1.04961
-0.0490741
-0.328598
-1.00728
-0.608009
-7.85263
-4.02688
-4.27455
-2.47587
0.611232
-5.42704
-1.76677
-3.74703
-2.26736
-1.93617
-2.47421
-2.35435
-1.9359
-0.945251
0.287953
-3.46332
-2.33027
-4.49719
-3.90232
-3.58448
-4.10105
-0.420748
-3.56807
-0.200537
-1.4518
-0.133687
-0.679074
-0.0789003
-0.760495
-0.165073
-0.146575
-2.84878
-0.534394
-1.89485
0.188969
0.03822
-0.0915338
-2.49233
-0.373489
-2.80092
-2.77341
-4.23576
-3.14538
-3.11256
-3.4397
-3.76274
-0.420555
-4.51192
-1.74379
-0.00771791
-2.5762
-3.07994
-0.707212
-0.192053
-0.467954
-2.5934
-0.683872
-1.83819
-3.50119
-3.13027
-2.24386
-2.14127
-0.253272
-3.09909
-1.86153
-1.59851
-1.91558
0.643719
-1.41689
-0.883729
-2.24801
-2.40478
-1.67506
-0.609236
-0.843771
-0.476172
-0.66227
-1.53855
-2.42476
-2.83607
-2.56848
-2.40048
-2.80415
-1.04962
-0.492408
-0.673618
-0.0558998
0.0511235
-1.00241
-0.768935
-1.3434
-1.49858
-1.34615
-0.87155
-0.147785
-0.858383
-1.22028
-1.359
-2.41627
-1.31183
-0.99303
-1.87697
-2.14788
-0.163353
-0.987303
-3.48346
-1.15036
-0.431334
-1.00747
-1.25413
-1.71979
-0.584838
-0.474629
-1.64462
0.726815
-1.07273
1.68116
-0.527061
0.0956864
0.510694
-0.59601
-1.48473
-0.44312
-0.639134
-1.59382
1.90862
0.145436
-0.0359738
-2.26455
0.181974
1.40293
1.82829
0.0622561
-2.46325
0.245918
0.879003
-0.0732375
1.53798
0.457276
0.112818
0.225181
0.492291
-0.951856
-0.986514
0.766185
-1.38162
0.208924
-0.755943
0.549353
0.609629
1.54372
-2.38241
-0.243159
-0.354835
1.89704
1.94748
1.30527
-0.581539
0.0720518
0.785843
-3.83059
-3.16849
-4.82786
0.0908199
-1.52815
-0.325136
-1.4661
-0.509313
-0.290654
-1.02926
-3.43936
0.397735
-0.0899347
-0.976744
-0.378622
-0.74712
-0.889858
-2.12157
-2.5785
-4.24384
-7.57769
-2.03319
-1.33474
-1.20732
-0.312876
-0.37704
-1.60028
-0.102689
-0.560677
-0.0711999
-1.93983
-1.07162
-1.67486
-0.339149
-1.94571
-0.888593
-0.766151
-2.51385
-4.07673
-2.65524
-5.33732
-3.21511
-1.3243
-0.179416
1.508
-1.0736
-0.146177
2.07109
-0.634307
-1.77399
0.599887
-1.39968
0.181098
-1.6514
-1.40534
-1.31839
-0.469853
-0.512736
-2.44136
-1.714
-3.8961
-2.22906
-3.22236
-0.491381
-1.44297
-1.18201
-1.18153
-0.791024
1.83969
-1.66322
-1.29058
-2.22546
0.0871114
0.39999
1.03174
-2.01625
-0.365684
-0.363881
-2.95798
-1.29849
-1.60148
-1.24829
-4.46581
-2.5474
-1.6553
1.85537
-3.00787
-2.16058
-1.30209
-1.5579
-0.677827
0.345986
-2.00598
-0.206729
-0.248471
0.792034
-0.49791
0.61401
0.0720175
-1.8302
-1.8177
-1.47557
-1.47402
1.12783
-2.00954
-0.0710544
-1.65356
0.569013
-1.37586
1.9409
0.720569
-1.61117
1.55726
-0.890602
-0.836489
-2.48246
0.142705
0.791872
0.342422
-2.42935
-1.82615
0.674834
1.7061
1.83527
-0.373858
0.98189
-1.25993
-1.08001
-2.47144
-1.02955
-0.0297184
1.10983
0.977547
0.00351797
1.32496
0.354848
0.310273
0.090915
-0.943302
-1.93811
-1.49095
1.17705
-1.37776
0.0630869
-0.622485
-0.619709
0.928454
0.328115
-1.25459
0.43007
-0.730855
-0.887368
-0.641405
-0.209086
-1.21018
-1.55179
-0.255008
0.90564
-1.30957
0.802584
-2.8955
-5.64699
-3.51244
-1.74339
0.793647
0.531446
-2.05949
-0.278797
-2.26186
1.64532
-2.76095
-0.398328
-1.02243
-0.62947
-1.69525
0.608698
-3.22694
-4.29503
-1.25537
-2.26093
-5.43674
0.443448
-0.964287
-0.0796721
-0.876855
0.432523
-0.901886
-0.313454
-0.496557
0.0822634
0.194374
-1.49166
-0.62341
-3.1496
0.710281
-0.506612
-0.414175
-1.7261
0.336348
-2.23285
-4.38147
-2.20222
-2.11163
-2.61066
-2.20987
-0.377902
0.33595
-0.37202
2.05902
1.77426
1.4924
-0.216426
-0.267054
-1.08059
-0.750525
-0.369287
-0.987914
-0.279676
-0.423597
-1.10252
-2.42733
-0.588081
-1.43419
-0.0414161
1.11546
1.21138
1.7316
1.87859
1.64459
0.589852
-2.72334
-0.954609
-1.29341
-1.52704
0.216614
2.04769
0.142782
1.33099
0.458436
-2.96187
-4.18869
-3.71722
0.178043
-1.08662
-1.92765
-1.93483
-3.57427
-1.37378
-0.173943
-1.2666
-1.03668
-2.44032
-0.908085
-0.602487
-2.2873
-1.23341
-2.17782
2.15297
0.387525
-1.38014
-1.71665
0.300313
-0.158605
0.348857
1.45339
0.185893
-1.67638
0.138683
3.03259
2.01211
0.32732
-0.836126
-0.211243
-1.48891
0.0883485
-1.13061
-1.67457
-1.5387
-1.10258
-0.966064
-2.8685
-1.31166
-2.09577
0.979002
-1.08822
-1.35414
-0.0213358
0.534181
1.54075
1.64477
-1.48143
-0.486434
1.54191
-1.2335
-1.26008
-0.732324
0.792047
1.19701
-2.73492
-1.06251
0.489819
-1.52675
-1.52728
-1.46338
3.08456
0.558406
-0.86904
-0.59216
-1.7201
0.384979
2.85702
-0.595428
1.61288
1.05409
1.08986
-1.08237
-0.295703
0.642015
1.01134
-0.675056
-2.32085
-2.12953
-0.058625
-3.12054
1.62726
1.02372
0.0750438
-0.91865
-1.63134
-0.418142
-0.695348
2.15256
-1.29377
-0.261443
2.63557
0.587529
-0.44609
1.07619
0.520894
-3.61819
-2.72326
-5.14683
-2.53874
-1.68217
1.03156
-1.10585
2.27702
-0.459009
0.00492735
-1.82748
0.578584
-0.984334
1.18533
2.31477
0.471446
1.75429
1.5997
1.23784
-2.85281
-1.54932
-3.91555
-0.0196199
-1.73678
0.36217
1.46261
0.600451
-0.548116
-0.533234
0.965753
-1.04942
-0.16831
1.18699
-1.08713
0.685741
-0.518237
0.0876785
-1.55341
-1.55879
-0.0168274
-0.594708
-1.36759
-0.184382
-0.549562
-2.00729
-0.250439
0.0303124
0.740133
0.488131
-0.905788
-2.00807
1.94849
-1.90551
0.354604
0.206354
-0.0774971
0.739151
2.04212
1.57792
-0.49155
-0.0809773
-1.21455
-1.18909
-0.41055
-1.0567
-0.25876
0.109194
0.774782
-1.5528
-0.950831
-0.117507
-0.917953
-1.5296
-2.27488
0.886322
0.259308
0.705754
-1.92115
-0.290721
-2.05138
-1.97687
-0.845639
-0.572072
0.963239
1.12817
0.418847
1.43386
0.726465
1.76621
-2.0863
1.40795
0.869758
0.349678
-1.39084
0.520588
-0.680114
0.749598
1.26719
-1.6725
-1.02503
-1.1128
0.0383355
-0.385118
0.831362
-1.47292
1.89375
1.20045
1.42735
-0.57458
-0.000838967
1.07332
-1.3415
0.166165
-0.667305
2.25632
-0.914663
-0.557697
1.15926
-1.45767
-1.14687
-0.707362
0.189568
-0.453739
0.445199
0.188584
0.13435
-0.0748894
-2.68136
0.165746
-0.253446
-1.2216
-0.724118
-1.4394
2.01738
0.773281
2.33114
-0.0246321
0.088261
-1.64826
0.0226385
0.618612
-2.36217
-1.97552
1.08802
0.305189
-0.989594
2.36861
0.987987
3.22728
2.05589
3.71136
0.818093
2.54164
0.33089
2.31661
0.276156
1.38603
-0.0279147
-1.93892
-0.914257
-0.395555
-2.02027
-0.0528363
-2.51641
0.287247
0.48803
0.0584349
-0.0672631
0.0913697
3.59816
0.1645
0.146598
1.91746
-0.105138
0.829206
-0.0665065
1.82191
0.75223
0.258619
0.000503442
0.113531
-1.06215
-0.949896
0.259301
0.77729
0.912243
-0.525746
2.82446
2.86475
3.52294
1.61712
3.76092
2.0279
1.36496
1.1308
-0.755844
4.24786
-1.75225
-0.540414
-0.635221
-1.7765
-3.90437
-2.36521
-0.232628
0.72774
1.199
-0.540878
1.50882
2.07109
-1.4858
0.984045
0.976048
0.39237
-1.01255
3.05508
0.815564
0.0973753
2.32568
0.89119
0.70837
-3.12822
-0.766783
-1.91388
-2.13107
0.0721134
0.969577
-1.01483
2.44658
0.0501716
0.440174
2.12094
1.36648
2.79475
0.0393286
1.65755
1.16839
0.562382
1.49844
0.638692
0.782807
-0.765421
-1.77193
0.241232
0.691951
0.78263
-1.02716
0.166712
0.419558
-0.202024
-0.431287
0.224931
1.22958
0.0567198
-0.541979
-1.74718
-0.750849
1.64703
0.00186779
1.92231
0.638834
0.614646
-1.76769
0.100753
-0.286164
0.547817
0.0639298
1.22836
0.492034
0.395579
-1.86186
-0.75078
0.911631
-1.46048
0.0622725
1.56648
0.42122
1.07045
-1.26678
0.302835
-1.21606
1.23622
-0.752603
0.830186
-0.12714
0.453865
0.827167
0.315604
-3.4156
-0.154029
-1.00507
-1.36322
-0.971504
-0.578078
-1.8705
0.857273
3.47295
0.959517
-0.303256
-0.39666
0.600397
-0.845173
-3.65494
-1.08646
2.16277
1.51657
2.67828
2.14376
3.29928
3.47425
3.49974
3.10026
2.45598
3.04519
3.24532
1.88571
2.32569
1.2101
2.07563
1.77164
-0.714576
0.292359
0.805716
-0.128535
-1.74771
2.32592
1.88714
0.958246
3.09563
2.02939
2.10804
2.46082
2.33139
3.50718
4.3037
3.35946
1.24483
2.53695
1.54489
1.30779
-1.07654
-0.308034
-1.8235
-1.35514
-0.0850637
1.84525
0.917724
0.232753
1.72896
3.36174
2.85143
1.92997
3.10632
3.50756
2.19743
1.76417
3.14506
2.819
0.611389
2.51042
-1.13194
-1.53286
-1.05882
-2.17559
0.70436
1.81708
2.18105
1.37043
3.40741
0.0261684
0.565388
2.18804
2.81853
3.05544
1.70201
3.97895
1.29094
2.7349
1.31125
1.22384
-2.6694
-0.621451
-1.26352
-2.44324
0.124024
1.09932
0.550124
1.38717
1.44999
3.43276
0.703593
1.69835
-0.0689007
2.12558
4.27393
2.05491
1.72413
1.91165
1.45822
1.53377
-0.205878
-0.271186
-1.52002
-1.3047
-1.40888
1.75378
0.931577
1.37565
0.0844755
-0.17895
0.0274474
0.111594
0.334571
1.72476
1.26879
1.10006
3.22147
1.40091
0.606956
0.378762
2.96575
-0.0479921
-0.749951
-0.494063
0.34621
0.457178
-0.142029
1.96719
2.66079
3.18534
2.39262
-0.702697
-0.534945
2.07238
0.269835
1.19111
1.55022
-0.41706
-1.23476
-0.246721
0.829042
-0.650983
2.86095
1.76239
0.929936
-1.40604
-0.957129
-1.28056
-1.4328
0.210807
0.882624
-0.185748
-0.491611
-1.10635
-0.971602
0.491832
0.807441
-0.592003
-1.66625
-0.368317
0.561515
-0.505114
0.807666
-0.702998
0.802772
2.41429
0.91987
2.92581
2.41804
4.10684
5.33581
4.06288
2.30776
4.52221
5.80695
4.918
3.17937
2.59036
3.02865
3.26481
2.77969
-0.077907
-1.61054
0.0253459
0.834747
0.544265
3.59466
0.148542
5.64449
0.401911
3.45263
0.673234
-0.0676576
4.8281
0.319679
2.55372
0.240865
3.31869
0.384411
2.00828
0.0800977
0.911544
-0.119214
-0.995573
1.74121
0.683903
2.1417
2.86787
4.32874
4.51291
1.37971
3.68673
2.38059
3.33566
2.31845
4.27948
3.16346
1.81782
3.04398
0.349868
2.55478
0.257797
-0.741446
0.145627
-1.77773
0.60258
0.897326
2.33337
1.40128
1.83437
1.83862
1.8296
1.39348
2.03987
2.41952
1.04703
0.716768
2.07509
1.12077
3.03735
2.2773
-0.146058
-0.517713
-0.628952
-0.00972735
2.60876
2.09526
1.66365
4.32107
2.55004
-0.332058
3.00271
2.65757
1.76374
2.38695
-0.218843
0.369781
2.23241
0.631037
1.71818
1.49414
-1.57433
0.508906
2.84588
1.75777
0.798973
2.67438
-0.218706
1.79306
2.85848
1.85026
0.110479
2.43983
0.531534
3.76941
1.46989
1.3428
-0.853796
1.44713
1.09047
1.01398
0.258662
-0.179711
1.45546
-0.196533
-0.924423
-0.893678
0.237991
0.706284
0.870519
1.48388
-0.699646
1.34409
1.43126
1.46419
1.43218
0.350608
-0.933017
1.46331
3.29284
0.102738
1.41622
-1.58012
-1.89825
0.749992
0.203631
-1.32981
1.71633
-1.2004
2.24453
1.38832
0.572354
2.71859
0.115994
1.07519
0.456597
-1.3143
0.774872
-1.18875
0.598727
0.193256
-0.847232
-1.62639
-0.761977
4.23873
2.6127
4.09584
3.81327
4.89714
4.18504
4.6871
5.35673
6.14289
6.09668
4.9738
3.62992
6.07803
5.16822
5.56386
0.440309
0.0860037
0.607403
0.745329
0.864166
3.25898
1.44668
3.71095
5.69676
3.09645
4.52413
5.33643
2.98855
3.89797
3.58776
3.133
3.81225
4.7662
3.75964
3.58664
2.89938
2.02716
0.726417
-0.16208
0.952151
0.285283
0.496869
2.39374
3.49481
3.24037
3.84642
3.63078
4.1166
4.91419
3.88018
5.11627
5.26014
4.88555
2.02374
3.45954
1.40555
2.88674
1.34126
1.2032
1.34091
0.887078
1.07922
1.37117
0.881985
3.41824
3.27378
2.80645
3.75369
4.62355
3.5497
3.02082
3.05803
3.24454
2.72756
2.00943
2.93981
0.529279
-0.129203
1.665
2.77424
2.13981
0.792104
-2.00479
4.12554
1.47433
1.45183
3.74965
1.80797
3.31867
3.66424
0.306864
2.18818
2.89708
0.172262
2.34647
1.12315
2.17909
0.485439
-0.377629
0.836563
0.99702
1.67326
1.78864
3.26022
2.09496
1.31048
1.74878
-1.63731
1.15522
2.86283
0.716394
4.14736
2.6098
2.05274
0.61702
-0.512179
-0.836896
0.627894
0.876642
-0.232612
1.74261
1.2219
-0.787817
0.0633151
2.01831
2.57637
0.57304
2.17301
1.76312
-0.0587748
0.476207
0.787821
2.68228
0.666275
-0.240706
-0.640491
0.936963
0.403819
0.303289
0.901568
0.0226954
-2.74732
1.17464
-1.28413
0.548001
-0.472709
-0.684084
-0.552392
-0.335211
0.12902
0.912207
-0.242364
0.776545
0.552288
0.44593
1.11599
-0.261104
2.4689
)
;

boundaryField
{
    hotSide
    {
        type            calculated;
        value           nonuniform List<scalar> 
400
(
-1.66921
0.0705222
-1.36537
-1.58687
-3.3848
-3.24999
-4.77978
-5.44727
-4.91445
-4.52365
-5.06643
-1.8898
-6.50991
-2.43135
-1.43522
-0.795017
-0.766251
-1.9844
2.55738
0.207047
1.94415
0.706472
0.588452
0.104275
0.219491
-1.27687
0.0179991
-1.63197
1.15754
-3.40295
-1.81357
-4.72774
-2.67994
-1.76533
-4.18309
-0.600369
-0.376555
0.586888
1.04929
1.07381
1.51817
2.58189
1.80647
2.20584
1.34712
-0.603025
-0.398009
-2.91694