/*--------------------------------*- C++ -*----------------------------------*\
| =========                 |                                                 |
| \\      /  F ield         | OpenFOAM: The Open Source CFD Toolbox           |
|  \\    /   O peration     | Version:  2212                                  |
|   \\  /    A nd           | Website:  www.openfoam.com                      |
|    \\/     M anipulation  |                                                 |
\*---------------------------------------------------------------------------*/
FoamFile
{
    version     2.0;
    format      ascii;
    arch        "LSB;label=32;scalar=64";
    class       volScalarField;
    location    "0";
    object      relativeErrorField;
}
// * * * * * * * * * * * * * * * * * * * * * * * * * * * * * * * * * * * * * //

dimensions      [0 0 0 1 0 0 0];

internalField   nonuniform List<scalar> 
3200
(
0.00775391
0.00268989
0.00143274
0.00334804
0.007357
0.000409067
0.000194125
0.00597713
0.00866055
0.00350364
0.0105341
0.00938477
0.00713126
0.00893099
0.00589388
0.0137565
0.00266378
0.00802476
0.00029919
0.00755957
0.00502119
0.00247464
0.00604198
0.00932849
0.00769637
0.00700792
0.00736739
0.0112818
0.000778757
0.0116718
0.00376077
0.0134934
0.00458308
0.0175784
0.0153772
0.00437199
0.00485648
0.00501661
0.00246124
0.00293105
0.0042659
0.00429633
0.000147636
0.000920598
0.00336451
0.00540238
0.0100452
0.00522621
0.000664726
0.00874194
0.00639708
0.00197684
0.00418237
0.00809095
0.0100605
0.0153942
0.0119884
0.00498214
0.000771119
0.0075884
0.0100077
0.0028652
0.00539183
0.000742595
0.0120264
0.00816785
0.0105433
0.00844635
0.00675855
0.00358883
0.00437968
0.00249933
0.0110572
0.00790946
0.00715758
0.0024898
0.00290397
0.00392053
0.00313599
0.00432773
0.00222892
0.00203758
0.00212411
0.000575032
0.000797452
0.00329886
0.00833837
0.0025162
0.00969356
0.00624472
0.00447743
0.00874151
0.00830898
0.0028626
0.00053004
0.000824841
0.00259073
0.0033871
0.0050588
0.00280353
0.00471709
0.00660822
0.00107763
0.00290373
0.000543553
0.00790716
0.00695351
0.00209613
6.7814e-05
0.00869928
0.0068353
0.00545611
0.0011661
0.000928696
0.000132698
0.0034783
0.00354988
0.00107372
0.00761374
0.00438104
0.00246839
0.00411643
0.00132001
0.00469004
0.00230646
0.0041552
0.00566112
0.00205958
0.000829355
3.46322e-05
0.00997383
0.000149396
0.0104978
0.00230265
0.00869737
0.00960792
0.00988032
0.000357271
0.0025132
0.00454722
0.000332734
0.00739685
0.00731056
0.00343338
0.00578225
0.00105364
0.00495271
0.00454643
0.000471217
0.00355805
0.00493907
0.00607265
0.00307117
0.000167541
0.00955801
0.00290597
0.000227355
0.00241308
0.00843914
0.00323656
0.00272518
0.000904236
0.00449449
0.00455083
0.00881231
0.00458365
0.00968814
0.00740583
0.00379778
0.0128489
0.00318602
0.0125034
0.00771251
0.0121735
0.00743101
0.0125329
0.0152491
0.00458145
0.0089372
0.00408947
0.00616525
0.000975059
0.00926431
0.000989079
0.00462919
0.000478644
0.00366375
0.000227938
0.0034229
0.00031005
0.000840174
0.00234873
0.000519694
0.00848232
0.000486778
0.0116027
0.000413828
0.00627478
0.000519148
0.00253499
0.00981549
0.0075033
0.00713126
0.00104003
0.00969663
0.00198333
0.00909987
0.00532678
0.00481304
0.00442691
0.00037066
0.00611758
0.00628482
0.00113361
0.00385011
0.0075067
0.00852507
0.00242641
0.00660152
0.00132299
0.0103931
0.00569606
0.00348938
0.00629313
0.00541066
0.00676772
0.00241879
0.00347071
0.00221483
0.00282159
0.00471594
0.000519094
0.0079563
0.00718069
0.00805776
0.000291914
0.00486599
0.00693156
0.00135927
0.00783614
0.00199657
0.00519489
0.000129205
0.00474607
0.00269533
0.00810327
0.000798099
0.00360674
0.00490796
0.00425983
0.00318718
0.000975663
0.00781636
0.00754263
0.00797241
0.00413028
0.00200067
0.00588075
0.00103464
0.00667192
0.00413689
0.00250589
0.00468901
0.0053775
0.00189868
0.00229386
0.000850042
0.0040297
0.00181163
0.00145688
0.00504267
0.00670755
0.00822134
0.000101899
0.00936966
0.00809617
0.00643637
0.00134377
0.0019915
0.00569834
0.00566025
0.00125542
0.00221604
0.00213046
0.00664836
0.00985241
1.35734e-05
0.00618808
0.00996119
0.0119271
0.00251109
0.0061899
0.000846806
0.00491734
0.00825635
0.00254317
0.00444643
0.00273548
0.00316964
0.00733347
0.00250338
0.00199946
0.00459057
0.00402255
0.00446784
0.00713192
0.0057638
0.00440922
0.00454509
0.002646
0.00119478
0.00358223
0.0019757
0.00209616
0.00885907
0.00287819
0.00232687
0.00145319
0.000796948
0.00248698
0.00689926
0.0012685
0.00222717
0.00166567
0.00789478
0.00102645
0.00365349
0.00174187
0.00251898
0.00322947
0.000271755
0.00328989
0.000640095
0.011419
0.00678795
0.00440659
0.00703893
0.0104028
0.00483996
0.00289714
0.00724431
0.000267876
0.00122704
0.000360262
0.00252154
0.00799983
0.00356651
0.0131882
0.00301757
0.002682
0.000750785
0.00478701
0.00671177
0.00424593
0.00810181
0.008624
0.00763286
0.00778035
0.000850484
0.00434713
0.00958209
0.0118707
0.00699801
0.00195536
0.00895764
0.00217301
0.00335943
0.00361166
0.0047786
0.00519761
0.00757146
0.00277721
0.00461172
0.000350007
0.00535931
0.00916729
0.00485258
0.00592496
0.00185421
0.000565901
0.00753659
0.00158698
0.00696281
0.000764288
0.00808501
0.0016289
0.00525871
0.00761401
0.00526105
0.000865566
0.00755917
0.00297262
0.00368032
0.00339021
0.00542228
0.00851056
0.00105545
0.0023592
0.00113368
0.00123436
0.00322958
0.00074825
0.00524097
0.00871497
0.0013562
0.00793939
0.00774003
0.00262668
0.00552378
4.4331e-05
0.00128708
0.00134479
0.0122661
0.00640385
0.00417108
0.00475059
0.0057701
0.00672779
0.000623768
0.000368281
0.00417935
0.00377296
0.0034005
0.00387378
0.00347207
0.00153114
0.00158339
0.000453704
0.00104887
0.00196031
6.17505e-05
0.00279746
0.00140401
0.0052565
0.00480017
0.00475246
0.0047723
0.00247746
0.000803217
0.00201488
0.00269298
0.00306536
0.00631471
0.00460373
0.0039385
0.00560441
0.00369499
0.0050621
0.00410504
0.00932346
0.00300773
0.00611796
0.00432095
0.00347139
0.00524777
0.00198823
0.00266023
0.0002414
0.0010976
0.000681787
0.00718125
0.00513726
0.00601629
0.00264065
0.00537561
0.00193069
0.0023898
0.00192059
0.00891773
0.00331518
0.00577706
0.0015768
0.0074369
0.000963769
0.00321194
0.00468749
0.00327266
0.00157993
0.00423016
0.00165706
0.00756426
0.00269965
0.00333917
0.00340894
0.0099332
0.00366339
0.00162667
0.00135608
0.00316648
0.000577092
0.00136668
0.00743488
0.00221909
0.00154142
0.0055888
0.0123458
0.00501717
0.00607009
0.00286093
0.00651992
0.0136617
0.000678456
0.00408569
0.00033678
0.00379254
1.55424e-05
0.0105466
0.000594993
0.00140347
3.93667e-05
0.00012264
0.0011525
0.00118315
0.00918748
0.000264556
0.00457631
0.000903583
0.0102564
0.000902644
0.00123472
0.00853315
0.000948484
0.0009249
0.00596596
0.00353871
0.00101949
0.0082291
0.000168417
0.000891223
0.000304304
9.36942e-05
0.00246489
0.00306621
0.00496153
0.00520592
0.00575876
0.00626266
0.00403626
0.000924753
0.00941379
0.00718381
0.00307589
0.00538732
0.00364841
0.000260601
0.00430051
0.00613319
0.00179074
0.00111761
0.00289594
0.000536584
0.000362702
0.00525656
0.00104264
0.00199525
0.000244645
0.00532967
0.00538416
5.19436e-05
0.00200865
0.0190236
0.00220086
0.00347161
0.00117952
0.00405808
0.00139697
0.00565178
0.00615469
0.000101152
0.0068465
0.00032553
0.00649101
0.00551157
0.00792469
0.0062659
0.000336004
0.00880646
0.00368711
0.00374073
0.00100964
0.00258112
0.00324918
0.00294929
0.00388205
0.00444129
0.00469833
0.00444266
0.0017127
0.00252471
0.00724031
0.0018545
0.00279019
0.00554223
0.00263904
0.00232112
0.00298144
0.00389313
0.0012671
0.00173226
0.00248667
0.00362058
0.00286846
0.00219473
0.002592
0.00073669
0.00432919
0.00504619
0.000204886
0.00345538
0.00382101
0.00163089
0.00600339
0.0053609
0.00239529
0.00216255
0.000352757
0.000543714
0.00901546
0.00370452
0.00345059
0.000266712
0.00059507
0.000255591
0.00120858
0.00432475
0.00702786
0.000128267
0.000252956
0.00215479
0.0037467
0.00458046
0.00318183
0.00199725
0.00959653
0.00570754
0.00119711
0.00749508
0.00425765
0.00602668
0.00597102
0.0127764
0.00241048
0.000814408
0.00878247
0.0011855
0.00646867
0.00148777
0.00323905
0.00648212
0.00335722
0.00588576
0.000444249
0.00591211
0.00292103
0.000253214
0.000780518
0.00919428
1.92116e-05
0.000389617
0.00543046
0.00082521
0.000439651
0.00136902
0.00271157
0.0061842
0.00412624
0.00318391
0.00319246
0.00263314
0.00264074
0.00198924
0.00657639
0.00471315
0.00323849
0.00735622
0.00239178
0.00325643
0.00929057
0.00235214
0.0051473
0.0110276
0.00693313
0.00596523
0.00431646
0.00324006
0.000391734
0.00472172
0.00396444
0.00189984
0.00269724
0.00897953
0.00218554
0.00661963
0.0010499
0.00297628
0.00843365
0.00252212
0.00516833
0.000753355
0.00615978
0.000174036
0.00754492
0.00279334
0.00405296
0.00269562
0.00852658
0.00520805
0.00957675
0.000778242
0.00636554
0.00138047
0.0107441
0.000328163
0.00357773
0.00599952
0.000945092
0.000389967
0.00331424
0.00464783
0.00358427
0.00577739
0.00122979
0.00321513
0.00227493
0.00248992
0.00244113
0.00195722
0.00503492
0.00610599
0.00261896
0.00220967
0.00325555
0.00139896
0.0022867
0.00577957
0.00155311
0.00121569
0.000161158
0.00367994
0.000842412
0.00512014
0.00292547
0.000506909
0.00650116
0.00332451
0.00487856
0.00165626
0.00772068
0.00617211
0.00113147
0.0051975
0.00535863
0.00402713
0.00228461
0.00771678
0.0037645
0.00522769
0.00126645
0.00153065
0.00503286
0.0025291
0.00584743
0.0020858
0.00107834
0.0053107
0.00397998
0.00204949
0.00615887
0.00187907
0.000917443
0.00444528
0.00468959
0.000640646
0.00541953
0.000500196
0.00162964
0.000371138
0.00196284
0.0017732
0.00247306
0.0034775
0.00697383
0.0047596
0.00847806
0.00143481
0.000461227
0.00593227
0.00273371
0.00342466
0.00363668
6.32296e-05
0.0062036
0.00323054
0.000332263
0.00521217
0.00662524
0.00483649
0.000908185
0.00608498
0.00193151
0.0124155
0.00676072
0.00484184
0.00437125
0.00751962
0.00530346
0.00520163
0.00198859
0.0102881
0.000442482
0.00406276
0.00479186
0.000981167
0.00180334
0.00101775
0.00643114
0.00279704
0.00103182
0.00118399
0.00510539
0.00654206
0.000218228
0.00596545
0.000269848
0.00588464
0.000702923
0.00154051
2.20277e-05
0.000468321
5.12806e-05
0.000362613
0.00363914
0.00132432
0.000490513
0.000264217
0.00136375
0.000309089
0.000618947
0.000806134
0.00648485
0.00924484
0.00687115
0.00105781
0.00117155
0.000853655
0.00573697
0.00501133
0.00310402
0.00161104
0.00492483
0.000947429
0.00739575
0.000437551
0.00192191
0.00157817
0.000723424
0.000620388
0.0047198
0.000250856
0.00390174
0.00159565
0.00281639
0.00094047
0.00214516
0.00819603
0.00638703
0.00245574
0.000624039
0.00529533
0.00167823
0.00107397
0.00345538
0.00227352
0.00546631
0.00255188
0.0009165
0.00478183
0.00203088
0.00114845
0.00776862
0.00237426
0.00132055
0.00537546
0.00292293
0.00456898
0.00211764
0.00126457
0.000564554
0.00593459
0.0015929
0.00725609
0.00316672
0.00213773
0.00181003
0.00556001
0.00153358
0.00162
0.00314213
0.00157212
0.0083103
0.000484009
0.00208209
0.000428721
0.00380708
0.000654584
0.00504454
0.000781113
0.00831919
0.00470628
0.000998967
0.00107343
0.00344948
0.00146896
0.00414861
0.00363043
0.00186241
0.0023751
0.00456696
0.00218874
0.000761698
0.00652098
0.00155716
0.000322079
0.00167884
0.00942429
0.00110777
0.0100277
0.0080345
0.00179309
0.000893061
0.00395047
0.00115014
0.00583993
0.00353906
0.00537043
0.00473796
0.00261473
0.00574473
0.000931521
0.00485595
0.00106115
0.00239492
0.00206879
0.00232924
0.00423278
0.0011443
0.0026734
0.0108056
0.000903157
0.00816945
0.00170549
0.00421116
0.00223046
8.38425e-05
0.000352512
0.00350518
0.00899339
0.00297398
0.00379273
0.00174028
0.0168291
0.00310556
0.00431158
0.000907823
0.000957705
0.00626817
0.00143462
0.00454536
0.00766782
0.00220172
0.0140719
0.00145718
0.0042698
0.00882121
0.00368587
0.00154344
0.000806352
0.00184133
0.00029095
0.00579298
0.0112922
0.00281154
0.00442464
0.00135194
0.0024483
0.00247688
0.00131075
0.000579904
0.0051397
0.00703522
0.00787078
0.0032864
0.000889607
0.00104703
0.0034527
0.00367206
3.17415e-05
0.0014834
0.00532657
0.00381836
0.00834459
0.00976027
0.00782288
0.0107543
0.000188107
0.000291516
0.00352666
0.00207002
0.00477863
0.00124312
0.00580413
0.00432789
0.00350232
0.010147
0.000866282
0.00681994
0.00380977
0.00936428
0.00197438
0.00897724
0.010249
0.00450729
0.000483511
0.0071668
0.00650342
0.000921237
0.000453454
0.00259392
2.14112e-05
0.00477074
0.0013077
0.00349029
0.00606151
0.00533961
0.00128165
0.00102426
0.00729776
0.00334844
0.000334028
0.00964982
0.00404988
0.00674294
0.00535714
0.00209153
0.00358216
0.00846326
0.00342085
0.000679298
0.00299316
0.000270397
0.00260475
0.00279854
0.000770801
7.21701e-05
0.0039213
0.00660662
0.00100226
0.000900484
0.00168613
0.0118472
0.00633054
0.00416775
0.000251763
9.25296e-05
0.00482506
0.005805
0.000968364
0.00491345
0.000230215
0.000368365
0.00610195
0.00279424
0.00649069
0.00708144
0.00141191
0.000202733
0.000390125
0.00126175
0.00193227
0.00976762
0.00263491
0.00789403
0.0015918
0.00263511
0.0046997
0.00463846
0.00012309
0.00228131
0.00744479
0.00305304
5.65798e-05
0.00161153
0.0011215
0.00262819
0.00237344
0.00443638
0.00249281
0.00546014
0.00164865
0.00352757
0.00276792
0.00647754
0.00125133
0.00434082
0.00138731
0.000117744
0.00161545
0.00798576
0.00182961
0.0027861
0.0114826
0.00454484
0.00273199
0.0023271
0.000214215
0.00224858
0.00247989
0.00140403
0.00237109
0.000242024
0.0187546
0.00788257
0.0115552
0.00412161
0.00634649
0.00248853
0.00378925
0.00696757
0.00707462
0.00829825
0.00511402
0.0100309
0.00499323
0.0023681
0.00445276
0.000983117
0.00176341
0.00339027
0.003454
0.00453141
0.0103567
0.00012452
0.00419002
0.000143457
0.000129627
0.00202971
0.0030545
0.0014254
0.000270568
5.3279e-05
4.98291e-05
0.0112496
8.25862e-05
0.00215148
0.00123806
0.00242412
0.000973119
0.00234612
0.00041227
0.00545628
0.0054219
0.00594718
0.00694208
0.00140323
0.000762987
0.00437196
0.00135545
0.00202346
0.00331621
0.00701875
0.00763905
0.00311729
0.000260821
0.0054085
0.00111912
0.00274064
9.15097e-05
0.00111647
0.00886117
0.00182032
0.011717
0.00153723
0.00699809
0.000600573
0.00308483
0.00380691
0.000937788
0.000172002
0.00818921
0.000600285
0.0075005
0.00624005
0.00399886
0.00543002
0.0013791
0.00171952
0.00501876
0.000943251
0.0101501
0.0065852
0.0074565
0.0106379
0.00198477
0.00346371
0.00325488
0.00386147
0.00023678
0.00430916
0.0014197
0.00324314
0.00591088
0.00597984
0.0103178
0.00413686
0.0012122
0.0115175
0.00132748
0.0015231
0.00461623
0.00656979
0.0107046
0.0046023
0.000340098
0.00110157
0.00250082
0.00402755
0.00548453
0.00583284
0.00124373
0.00765264
0.00456196
0.00610001
0.00102575
0.00363162
0.0056986
0.00159641
0.00114583
0.00212992
0.00264858
0.00564018
0.00144248
0.00163907
0.00610445
0.012119
0.00107192
0.00709112
0.00370254
0.00430367
0.00574834
0.00123584
0.00134875
0.00674756
0.000812973
0.00333424
0.000655749
0.000861569
0.0046774
8.41946e-06
0.00110801
0.0112426
0.000750301
0.00129927
0.00273264
0.00813576
0.00314762
0.00463576
0.000373916
0.00262448
0.000449494
0.000237116
0.0012714
0.00311371
0.000960739
0.00506561
0.00399574
0.000638115
0.00654008
0.00254217
0.00140169
0.00265134
0.0172572
2.62811e-05
0.000580804
0.00648707
0.00491631
0.00429387
0.0103216
0.000558689
0.0050063
0.00533792
0.0091826
0.00895679
0.00322086
0.00101841
0.00924424
0.0042714
0.00235354
0.00486175
0.00780319
0.00591356
0.0117598
0.00754922
0.00963194
0.00672976
0.00319876
0.00210523
0.00413996
0.00633336
0.00320294
0.00784664
0.00615726
0.00485779
0.00188432
0.00214356
0.00342471
0.0073488
0.00476834
0.0013364
0.00295323
0.00796209
0.016667
0.0079453
0.00140997
0.000248361
0.00195204
0.00299716
0.00509037
0.000926582
0.00645445
0.00738674
0.00288027
0.00362969
0.0051267
0.00468091
0.00132349
0.00138602
0.000906818
0.00736071
0.0017655
0.012082
0.00747751
0.0094212
0.00168536
0.00263562
0.0026596
0.00511955
0.00612483
0.000672808
0.00396711
0.00296875
0.0083445
0.00286972
0.00308845
0.00216714
0.00125991
0.00403524
7.02745e-06
0.00540859
0.00107571
0.0106755
0.0087215
0.00907628
0.0019755
0.00211353
0.00276316
0.00270282
0.00416445
0.00397476
0.00270617
0.00130112
0.00859747
0.00267721
0.00554307
0.00214345
0.00305514
2.59481e-05
0.000312194
0.00752149
0.00414122
0.000493709
0.00561819
0.00876928
0.00190069
0.00709044
0.00703014
0.0022217
0.00079313
0.00393301
0.00455925
0.00312895
0.00130551
0.00269266
6.8703e-05
0.00152525
0.000653938
0.0049167
0.000287175
0.00327168
0.000528381
0.00371978
0.00656472
0.00178984
0.00897985
0.0051907
0.000396023
0.00641481
0.00634579
0.00110999
0.00393594
0.00182421
0.00205427
0.0039671
0.00430116
0.00450306
0.00156747
0.00072203
0.000842016
0.000142389
0.00273252
0.00771516
0.00345173
0.0046511
0.00446487
0.00991346
0.000161471
0.000350531
0.000823755
0.000356964
0.00218919
0.00444658
0.00390786
4.7469e-05
0.00171323
0.00222811
0.00238772
0.00116049
0.000217808
0.00608934
0.00137312
0.00581544
0.0161779
0.0130182
0.00577415
0.0102844
0.0036216
0.0115245
0.000142752
0.00463766
0.00829949
0.0138335
0.0100848
0.0123539
0.00311645
0.00930143
0.00856043
0.00458582
0.00596146
0.00738132
0.00872076
0.00698491
0.0103594
0.00129451
0.00564072
0.00157157
0.00236572
0.00130971
0.00620682
0.00146478
0.00398748
0.00130006
0.00140191
0.00513776
7.9404e-05
0.00474286
0.000949295
0.00263037
0.00143136
0.00456335
0.00103081
0.0122348
0.00631854
0.00995114
0.0017473
0.00693804
0.00521762
0.00132344
0.00795594
9.08283e-05
0.00950068
0.00237649
0.00690324
0.00680827
0.00417876
0.00373208
0.00814641
0.00453432
0.00201183
0.00445005
0.009124
0.00872488
0.00746787
0.015842
0.00707793
0.00121715
0.00180376
0.00366306
0.00451102
0.00283367
0.00289308
0.00229888
0.0122406
0.00285044
0.0100236
0.00413834
0.00731862
0.00585259
0.00203647
0.0105158
0.0041118
0.0125137
0.0068917
0.00328307
0.00651935
0.000923651
0.000934108
0.00144783
0.00321796
0.00572313
0.00238944
0.00813785
0.00635477
0.00467961
0.00146622
0.00348882
0.00234642
0.0049886
0.00441869
0.00167157
0.000536275
0.00875431
0.00597098
0.00823191
0.00286792
0.00974301
0.00349535
0.00252998
0.00294403
0.00587888
0.00193648
0.000119919
0.00139954
0.00314629
0.000986516
0.00438313
0.0011959
0.00526669
0.000245307
0.00632513
0.000889995
0.00513239
0.007224
0.0060295
9.08627e-05
0.0074849
0.00486024
0.000975212
0.00387688
0.000666536
0.0113352
0.000706714
0.00370074
0.00482552
0.00439016
0.0112815
0.00690154
0.00546242
0.00165401
0.00498633
0.00826443
0.0033911
0.00382144
0.00563274
0.00423657
0.000134318
0.000754675
0.00668961
0.00273199
0.00275692
0.00510044
0.00240885
0.000971767
0.00351988
0.000772221
0.000101516
0.0014951
0.000400394
0.00230718
0.00282116
0.00117291
0.0033016
0.0177376
0.00860259
0.0111268
0.0098915
0.00135521
0.00552332
0.0034862
0.00124423
0.00737793
0.0147425
0.0138131
0.00861988
0.00583968
0.00383078
0.00800623
0.000269127
0.0035216
0.00403809
0.00908293
0.0120856
0.0113254
0.000106786
0.0081062
3.48651e-05
0.0027779
0.00135004
0.00663979
0.00143328
0.0128334
0.00110072
0.000874635
0.00705688
0.00279421
0.00264609
0.00124043
0.00218008
0.000344452
0.00533876
0.000450506
0.00526733
0.0121274
0.00946025
0.00243082
0.00724916
0.00764867
0.00705204
0.000388003
0.00459034
0.000311135
0.0055612
0.00568339
0.000608848
0.00254927
0.00057912
0.00147572
0.00311657
0.0056141
0.00316999
0.0085973
0.0191769
0.00788397
0.00521226
0.00109728
0.00647267
0.00125221
0.0033016
0.00974062
0.00407784
0.00502515
0.00176115
0.0100857
0.000553895
0.00432671
0.00650876
0.00421608
0.00325879
0.00051638
0.00199015
0.0046787
0.00568182
0.0103978
0.00740257
0.00089504
0.00253652
0.0087203
0.00416619
0.000796775
0.00599228
0.00187774
0.00465591
0.0074461
0.00874305
0.00029723
0.00167023
0.00449652
0.00716524
0.002041
0.003642
0.00206866
0.00937142
0.00354351
0.00205507
0.00184383
0.000128745
0.000113876
0.000368776
0.000310041
0.00369258
0.00226317
0.00520412
0.00220802
0.000875302
9.61248e-05
0.00134132
0.00427607
0.0033127
0.00378833
0.00221126
0.00360139
0.00611694
2.50116e-06
0.00106647
0.00703566
0.00192598
0.00693049
0.00624864
0.00423214
0.00364857
0.00400218
0.0034661
0.00220206
0.00220918
0.000839168
0.00575582
0.000398923
0.00149823
0.00481967
0.0102688
0.00206225
0.00455297
0.000293746
0.00295957
0.00487223
0.00071435
0.00390543
0.000415805
0.0031766
0.000939835
0.00378986
0.00421245
0.00848585
0.00087406
0.00166223
0.00124565
0.00222026
0.00373185
0.00238876
0.00413898
0.0072383
0.00689112
0.00888809
0.0168241
0.00796231
0.0116349
0.00485242
0.0035879
0.0128139
0.00348147
0.00985377
0.0090178
0.00714188
0.00953944
0.00902991
0.00328711
0.00791471
0.0050356
0.0065438
0.00384655
0.0102619
0.00999649
0.0072195
0.00735877
0.00539047
0.00351344
0.00138681
0.00916186
0.00390196
0.00115721
0.00943765
0.000809652
0.0139596
0.00939479
0.00832165
0.000205256
0.00906899
0.00785559
0.0107287
0.00550175
0.00819194
0.0110071
0.0146601
0.0100059
0.00448368
0.0100537
9.27747e-05
5.76833e-05
0.00357402
0.00151605
0.00495103
0.000502166
0.00990214
0.00420432
0.00222199
0.00393193
0.00272711
0.00137577
0.0056628
0.0027437
0.00260439
0.0144611
0.00975055
0.00906204
0.00633409
0.00265691
0.00117527
0.000829346
0.000895054
0.000664643
0.00557801
0.000614282
0.00282473
0.000557017
0.00797178
0.00069486
0.00637497
0.00383466
0.00711563
0.00623091
0.0106002
0.0109179
0.00766462
0.00189025
0.00389291
0.00497311
0.00371711
0.000777835
0.00189535
0.000772875
0.00164515
0.00219998
0.00576155
0.00314335
0.00488193
0.00198184
0.00178579
0.00436082
0.00226803
0.00876453
0.00996198
0.00629181
0.00330127
0.000523352
0.000179081
0.00813132
0.000976689
0.00176823
0.00109771
0.000656841
0.00150112
0.00125303
0.00170419
0.0024964
0.00374591
0.000570686
0.00270688
0.00561594
0.00104458
0.00277189
0.00183966
0.00498311
0.00791125
0.00101709
0.00254108
0.00479155
0.0037164
0.00425191
0.00222833
0.00135147
0.00459645
0.00105656
0.00303995
0.00394428
0.000321291
0.00115529
0.000459541
0.00174643
0.00296891
0.00299236
0.00315996
0.00739557
0.00337323
0.00134007
0.00368621
0.00464859
0.00413987
0.00337653
0.00422713
0.00684237
0.00421658
0.00351673
0.0068606
0.000328083
0.00554496
0.00629555
0.00369539
0.00345347
0.000161473
0.00108126
0.00331463
0.00200083
0.0218036
0.0111764
0.0118577
0.00686452
0.0016938
0.0150316
0.00489144
0.0103703
0.00627357
0.00535652
0.00684504
0.00651426
0.00535779
0.00261699
0.00079756
0.00959728
0.00646084
0.0124753
0.0108307
0.00995265
0.0116469
0.00119449
0.0101251
0.000568795
0.00411592
0.000378843
0.00192363
0.000223434
0.00215314
0.000467305
0.000414941
0.00806555
0.00151332
0.0053676
0.000535504
0.000108355
0.000259622
0.00707246
0.00106032
0.00795455
0.00806026
0.0123065
0.00913496
0.00903597
0.00998169
0.010915
0.00121955
0.0130804
0.00505441
2.23683e-05
0.00746644
0.0089273
0.00205026
0.000556926
0.00135745
0.0075258
0.00198533
0.00533855
0.0101723
0.00909739
0.0066769
0.00637001
0.000753212
0.0092133
0.0055323
0.00474913
0.00568957
0.00191151
0.00420675
0.00262358
0.00667381
0.00713982
0.00497406
0.00180952
0.00250682
0.00141514
0.00196887
0.00457553
0.00721337
0.0084391
0.00782957
0.00731601
0.00854409
0.00319726
0.00149953
0.00205085
0.000170151
0.000155585
0.00305027
0.00233966
0.00408759
0.00456007
0.00409675
0.00265288
0.000449936
0.00261403
0.00371712
0.00414079
0.00736414
0.00399888
0.00310283
0.00586396
0.00670907
0.000510144
0.00308269
0.0108746
0.00359059
0.00134613
0.00314386
0.0039134
0.00536645
0.00182502
0.00148124
0.00513328
0.00226895
0.00334942
0.00525017
0.00164632
0.00029894
0.00159572
0.00191007
0.00475779
0.0014198
0.0020476
0.00510555
0.00611325
0.000465781
0.000115202
0.00725155
0.0005827
0.00449234
0.00585456
0.000199368
0.00788892
0.000787666
0.00281574
0.000234632
0.00492786
0.00146533
0.000361555
0.000740644
0.00161915
0.00313054
0.00324439
0.00251967
0.0045434
0.000687017
0.00248574
0.00180638
0.00200456
0.00507601
0.00783384
0.000799571
0.00116683
0.00623835
0.00640447
0.00429268
0.00191261
0.000236979
0.00258472
0.0105623
0.0087333
0.0133008
0.000250089
0.00420605
0.000894506
0.00403193
0.00140023
0.000798905
0.00282873
0.00945249
0.00109323
0.000247253
0.00268615
0.00104166
0.00205636
0.00245038
0.00584495
0.00710709
0.0117017
0.0213883
0.00573685
0.00376455
0.00340373
0.000881704
0.0010621
0.00450636
0.000289091
0.00157811
0.000200383
0.00545941
0.00301625
0.0047151
0.000955041
0.00548098
0.00250411
0.00215996
0.00709018
0.0115029
0.0074945
0.0154291
0.00929162
0.00382586
0.000518136
0.00435335
0.00309826
0.000421723
0.00597369
0.00182923
0.00511543
0.00172982
0.00403644
0.000522345
0.0047643
0.00405562
0.00380599
0.00135689
0.00148128
0.0070555
0.00495482
0.0115417
0.00660179
0.00954078
0.00145443
0.00426974
0.00349657
0.00349428
0.00233891
0.00543886
0.00491678
0.00381519
0.00657932
0.000257572
0.00118293
0.00305204
0.00596607
0.00108238
0.00107738
0.00876061
0.00384661
0.00486449
0.00379101
0.0135592
0.00773259
0.00502342
0.0056293
0.00912426
0.00655295
0.00394875
0.00472422
0.00205547
0.00104924
0.00608406
0.000627103
0.000753874
0.00240362
0.0015114
0.00186427
0.000218713
0.00555922
0.00566482
0.00459797
0.00459234
0.00351316
0.00625852
0.000221255
0.00514825
0.00177137
0.00428278
0.00604138
0.0022429
0.00501526
0.00484786
0.00277283
0.00260473
0.0077314
0.000444522
0.0024671
0.00106701
0.00757102
0.00584298
0.00215903
0.00545783
0.00587041
0.00119571
0.00314007
0.00402888
0.0034533
0.00790192
0.00329168
9.50159e-05
0.00354845
0.00312567
1.12494e-05
0.00423719
0.00113491
0.000992459
0.000290839
0.00301796
0.00620123
0.0049012
0.00386918
0.0045288
0.000207363
0.002046
0.0020368
0.00305146
0.00107836
0.00412318
0.0014134
0.00240191
0.00291631
0.00210799
0.000687185
0.0039775
0.00510045
0.000838198
0.00297691
0.00430482
0.00263832
0.00792471
0.0154499
0.00960578
0.00476571
0.00216859
0.00145157
0.00562325
0.000761018
0.00617288
0.00448983
0.0075342
0.00108708
0.00279087
0.00171871
0.00463032
0.00166323
0.00882112
0.011746
0.00343464
0.00618794
0.0152446
0.00124305
0.00270202
0.000223162
0.00245515
0.00121062
0.00252358
0.000876861
0.00138884
0.000230064
0.0005436
0.00417207
0.00174393
0.00881294
0.00198805
0.00141848
0.0011601
0.00483669
0.000942829
0.00626088
0.0125939
0.00632832
0.00606603
0.00749706
0.00634403
0.00108454
0.000963886
0.00106715
0.00590544
0.00508832
0.00428
0.000620728
0.000766049
0.00310035
0.00215393
0.00106014
0.00283701
0.00080342
0.00121725
0.00316903
0.00715633
0.00173344
0.00422629
0.000122011
0.00328523
0.0035668
0.00509741
0.00552913
0.0048398
0.00173574
0.00801387
0.00280928
0.0038068
0.00449526
0.000637801
0.00603078
0.000420635
0.00392219
0.00135129
0.00873227
0.0126747
0.0112462
0.00053854
0.00328603
0.00582813
0.00584865
0.0108024
0.00415136
0.000525575
0.0038269
0.0031322
0.00737352
0.00274409
0.00182089
0.0069141
0.00372916
0.00658594
0.00651228
0.00117243
0.00417622
0.00533499
0.000933194
0.000492772
0.00108369
0.00451408
0.000577277
0.00520519
0.000430568
0.00941455
0.00624628
0.00101612
0.00259572
0.000655844
0.00462309
0.00027436
0.00351157
0.00520189
0.00478061
0.00342616
0.00300232
0.00916232
0.00418926
0.00669298
0.00312618
0.00347459
0.00432325
6.81115e-05
0.00170519
0.00491807
0.00524999
0.00472863
0.0015527
0.004922
0.00393776
0.00402297
0.00233825
0.00252919
0.00382273
0.00873496
0.00339379
0.00160922
0.00501575
0.00501731
0.00480722
0.0101325
0.00183426
0.00285455
0.00194503
0.00564982
0.00126449
0.00938404
0.00195574
0.00529775
0.00346237
0.00357997
0.00355549
0.000971391
0.00210911
0.0033225
0.00221778
0.00630211
0.00578076
0.00015908
0.0084643
0.00441217
0.00277474
0.00020334
0.00248858
0.00441845
0.00113243
0.00188317
0.00583018
0.00350476
0.000708411
0.00714358
0.00159304
0.00121
0.00292027
0.00141401
0.00982496
0.00758288
0.0143273
0.00706473
0.00467945
0.00286862
0.00307423
0.00632833
0.0012754
1.3689e-05
0.00507665
0.00160728
0.00273465
0.00329355
0.00643325
0.00131061
0.0048784
0.00445003
0.00344463
0.00794142
0.00431407
0.0111868
5.60414e-05
0.0049594
0.00103387
0.004174
0.0017131
0.00156341
0.00152068
0.00275376
0.00299213
0.000479889
0.0033846
0.00310026
0.00195597
0.00147854
0.000250217
0.00443441
0.00445116
4.80652e-05
0.0016991
0.00401161
0.000540751
0.00161134
0.00588397
0.000733929
8.88121e-05
0.00216807
0.00142966
0.0026526
0.00588029
0.00570584
0.0055803
0.00103858
0.000604475
0.000227058
0.00216613
0.00598606
0.00462652
0.0014416
0.000237534
0.00366033
0.00358305
0.00123686
0.00318284
0.000779247
0.000328773
0.00233243
0.00467401
0.00286178
0.000353654
0.0027627
0.00460375
0.00684749
0.00266821
0.000780755
0.00212536
0.00578663
0.000875851
0.00618135
0.00595776
0.00262028
0.00177241
0.00298391
0.0034943
0.00129711
0.0044399
0.0022492
0.00546781
0.00645834
0.0043583
0.00269232
0.00108246
0.00430575
0.00161179
0.00210594
0.0023214
0.0039249
0.00518104
0.00317579
0.0034481
0.000122224
0.00122778
0.00265019
0.00469488
0.00603571
0.00382572
0.0045485
0.0018309
2.67326e-06
0.00341993
0.00427443
0.000529463
0.00212637
0.00719018
0.00291496
0.00177748
0.00369512
0.00464671
0.00365629
0.00225526
0.0006224
0.00148971
0.00146162
0.000619117
0.000441054
0.000245845
0.00880211
0.000544085
0.00083196
0.00400996
0.00237696
0.00472496
0.00662233
0.00253845
0.00765262
8.08642e-05
0.000289759
0.00541137
7.43264e-05
0.00203107
0.00636181
0.00531896
0.00292838
0.000821119
0.00266161
0.00636861
0.00265572
0.00867307
0.00552421
0.00997166
0.00219805
0.00682941
0.00088924
0.00622709
0.000742515
0.00372785
7.51052e-05
0.00521857
0.00246157
0.00106531
0.00558461
0.000146018
0.0069522
0.000793337
0.00134746
0.000161295
0.000185617
0.000252092
0.00992608
0.000453768
0.000404385
0.00528959
0.000290078
0.00228825
0.000183574
0.00503033
0.00207756
0.000714497
1.39131e-06
0.000313833
0.00301554
0.00269626
0.000735822
0.00220512
0.00258729
0.00149075
0.00800701
0.00811985
0.00998424
0.00458273
0.010658
0.00574721
0.00386886
0.00320569
0.00214319
0.0120477
0.00497102
0.00153354
0.00180306
0.00504366
0.0113926
0.00690021
0.000678513
0.00212212
0.00349555
0.00157655
0.00439711
0.00603486
0.00432897
0.00286693
0.00284363
0.0011432
0.00295042
0.00890332
0.0023772
0.000283887
0.0067818
0.00259936
0.00206659
0.00912783
0.00230118
0.0057429
0.00639348
0.000216309
0.00290778
0.00304298