/*--------------------------------*- C++ -*----------------------------------*\
| =========                 |                                                 |
| \\      /  F ield         | OpenFOAM: The Open Source CFD Toolbox           |
|  \\    /   O peration     | Version:  2212                                  |
|   \\  /    A nd           | Website:  www.openfoam.com                      |
|    \\/     M anipulation  |                                                 |
\*---------------------------------------------------------------------------*/
FoamFile
{
    version     2.0;
    format      ascii;
    arch        "LSB;label=32;scalar=64";
    class       volScalarField;
    location    "0";
    object      stateMean;
}
// * * * * * * * * * * * * * * * * * * * * * * * * * * * * * * * * * * * * * //

dimensions      [0 0 0 1 0 0 0];

internalField   nonuniform List<scalar> 
3200
(
319.322
318.272
317.172
316.343
316.884
319.512
317.123
318.965
316.692
317.71
317.777
317.756
317.694
315.485
317.284
316.211
314.139
316.793
317.674
316.102
315.993
314.54
317.227
314.952
318.33
314.778
314.529
314.057
316.292
314.186
316.297
313.348
313.977
315.366
313.956
315.187
316.803
312.412
313.86
313.033
316.03
314.684
314.063
313.429
314.271
312.013
315.373
313.615
313.631
314.845
314.015
312.015
312.748
311.909
311.679
314.024
310.515
312.176
311.285
312.261
310.134
310.614
311.941
308.882
312.345
312.411
311.259
309.477
310.943
311.213
311.154
310.669
310.171
310.603
310.028
310.997
309.521
309.125
310.658
309.445
308.963
307.763
306.782
309.871
308.796
310.73
309.957
309.718
311.132
308.851
308.282
307.021
307.407
309.518
307.877
308.838
308.591
307.367
305.574
305.733
304.449
305.187
307.5
307.468
308.373
307.363
305.639
307.439
306.37
306.597
306.766
305.187
306.584
307.373
308.177
305.826
304.138
305.692
306.982
307.545
303.476
302.364
305.278
304.435
302.836
304.645
305.1
304.01
303.94
304.163
304.099
304.267
304.842
304.947
303.051
306.272
302.907
302.436
302.321
307.171
301.646
300.991
300.189
303.179
300.006
302.553
300.527
299.005
302.238
302.007
302.68
302.009
300.925
302.337
300.448
303.56
301.363
301.156
300.225
302.086
318.255
316.82
318.582
317.039
320.115
320.169
316.814
318.76
314.518
319.058
317.373
318.088
317.522
316.802
319.77
316.803
316.123
315.401
317.538
317.506
314.866
319.256
315.18
319.406
316.093
320.424
314.802
320.305
315.706
320.925
320.104
316.09
320.01
315.322
319.864
315.383
318.949
313.248
318.09
313.599
315.539
314.044
315.433
315.634
314.211
313.119
311.585
314.187
312.939
313.427
315.049
312.785
313.944
315.281
310.318
314.501
314.435
313.444
314.152
310.734
312.616
312.154
313.11
312.04
311.345
312.171
311.716
311.99
309.983
312.688
308.124
311.141
309.858
309.228
312.215
309.882
312.667
310.584
309.84
312.426
309.374
310.681
308.061
307.821
312.22
309.178
309.859
310.048
310.798
308.94
309.805
309.481
309.395
309.624
307.148
307.72
310.596
309.723
307.33
307.095
306.416
305.147
306.063
306.514
306.84
304.554
305.101
306.898
305.47
307.686
308.877
306.852
308.552
305.693
306.621
306.184
306.609
304.366
305.728
304.306
302.663
303.591
303.084
304.28
302.155
304.484
303.541
301.433
304.717
302.697
304.04
304.698
302.44
303.457
303.055
303.538
303.47
302.683
304.696
304.898
300.548
301.87
303.818
300.749
300.362
300.211
301.333
300.76
303.033
299.251
300.842
300.938
300.486
301.528
300.623
299.61
301.02
302.972
301.362
301.933
320.661
319.361
323.311
319.964
319.817
321.605
318.928
316.599
320.096
318.81
321.566
317.014
319.805
316.947
320.126
316.978
317.79
317.238
318.488
316.492
318.237
318.169
317.756
317.634
316.515
319.111
315.695
316.214
318.841
318.521
317.253
317.475
316.69
318.199
315.827
316.442
316.029
314.985
316.211
316.437
312.362
315.223
312.978
312.969
314.83
315.588
315.623
314.892
314.993
313.213
315.318
315.707
313.153
313.563
316.641
313.887
314.074
313.35
314.277
312.516
313.712
311.362
312.051
313.369
312.386
310.93
309.046
312.427
313.554
311.286
310.063
312.791
312.588
312.851
311.929
311.476
311.857
312.782
310.324
312.997
310.48
307.376
311.713
309.852
307.88
308.074
308.8
307.626
309.847
309.325
311.317
310.355
308.869
309.22
308.319
306.834
307.424
309.117
306.898
308.246
305.958
303.262
305.299
307.495
305.11
308.394
306.922
307.737
306.025
306.837
307.255
308.588
307.132
305.927
306.742
303.847
304.878
305.235
306.429
304.635
305.678
305.189
305.598
302.618
304.916
303.011
304.079
303.59
305.08
304.642
303.724
304.385
304.934
303.359
306.211
300.7
303.459
302.475
303.54
303.081
301.331
302.469
298.989
301.247
302.808
302.473
303.664
300.019
300.034
298.194
299.883
302.105
302.322
299.747
301.09
301.343
301.501
301.833
300.881
299.7
319.746
318.879
322.667
321.241
320.932
321.205
321.586
323.358
321.674
322.433
320.702
320.35
319.427
321.382
320.515
320.707
321.017
318.018
320.365
317.321
316.322
319.187
317.589
320.213
318.02
319.865
320.023
320.425
317.351
320.588
320.879
315.961
320.608
318.045
319.745
317.172
320.003
315.882
319.165
316.303
315.405
314.89
314.617
313.586
316.417
314.397
315.064
317.465
317.249
313.989
315.592
315.284
316.234
315.632
315.667
313.006
313.035
313.122
312.853
313.023
311.974
313.868
312.225
311.242
312.014
313.77
312.201
313.473
313.359
311.36
313.008
311.492
311.739
313.824
312.92
311.306
309.732
310.547
309.362
310.811
310.04
308.681
310.249
309.099
311.269
307.699
308.946
311.094
309.64
309.728
311.634
310.913
309.882
311.008
309.718
308.499
311.82
309.335
306.914
308.655
306.096
308.138
307.23
305.622
308.892
308.716
306.29
308.126
306.292
304.315
306.861
306.919
306.072
307.067
305.969
303.612
308.641
306.872
306.913
307.743
304.372
305.143
303.105
304.435
304.565
303.907
304.672
304.534
303.907
304.921
303.19
303.921
304.369
304.581
304.098
302.963
304.103
305.316
305.232
305.32
301.135
303.294
302.338
300.452
303.933
300.294
300.962
301.472
301.58
302.163
300.439
301.285
301.724
300.737
301.937
301.5
302.837
301.685
299.429
302.861
320.894
320.334
322.252
325.21
322.204
322.892
323.509
321.679
319.712
321.769
323.102
319.356
320.955
322.564
323.128
320.424
320.007
320.585
320.13
318.405
317.229
319.403
320.222
319.744
320.048
318.22
321.691
317.66
318.301
318.373
321.66
320.18
318.072
319.868
317.629
317.506
315.898
318.153
317.292
318.197
315.493
315.783
315.475
316.19
318.258
318.187
315.939
317.802
317.15
316.565
316.743
315.894
314.902
316.519
316.64
315.857
316.452
315.297
317.685
314.4
311.327
312.736
315.275
314.137
314.444
313.311
312.407
314.585
314.441
313.947
314.396
313.599
314.431
313.3
313.572
309.885
311.805
314.155
313.293
311.307
307.391
311.229
310.505
310.429
311.404
310.364
310.807
311.148
310.109
310.107
310.596
312.709
312.241
310.212
312.219
309.105
310.047
309.997
310.614
308.347
307.023
308.232
307.359
309.183
307.428
308.04
308.146
308.825
305.607
309.948
306.667
309.515
306.964
307.177
307.669
306.385
306.452
306.982
308.978
306.722
304.608
304.764
302.857
304.923
304.978
305.499
308.041
305.945
302.77
303.073
305.08
305.082
304.585
307.654
302.188
304.343
303.711
303.34
302.736
304.384
302.472
301.925
303.041
301.935
301.651
301.569
303.084
300.889
300.246
302.573
302.483
301.887
302.165
302.744
302.722
303.26
299.998
302.593
301.723
299.941
321.369
322.837
321
324.634
324.835
324.691
324.319
324.044
323.94
323.65
323.981
323.51
320.447
324.156
323.417
321.875
322.776
322.39
320.598
319.041
318.515
319.847
320.325
321.218
321.737
320.605
319.592
320.581
322.346
321.189
321.413
321.286
320.892
320.549
321.366
319.547
320.291
318.502
320.173
317.224
316.402
317.68
318.123
315.833
317.85
317.952
317.577
317.619
319.516
317.191
318.962
317.064
315.115
318.579
315.823
318.947
315.888
316.874
315.965
313.919
314.304
314.273
314.776
312.786
311.49
314.081
314.62
314.608
315.205
315.357
312.928
314.981
313.182
316.796
313.154
313.683
312.291
310.727
314.911
311.333
309.106
313.329
312.311
310.637
308.691
311.163
309.053
311.584
311.639
314.77
312.686
312.291
311.873
311.577
311.134
311.262
308.41
309.724
308.836
308.387
308.15
309.901
307.6
308.302
309.417
308.358
306.777
308.609
309.578
310.108
307.442
307.482
307.846
306.198
308.479
307.375
307.57
307.99
305.512
306.986
302.09
303.329
306.302
303.252
305.465
305.011
305.248
306.051
305.923
304.48
306.371
304.431
304.607
305.106
304.398
305.158
304.064
302.747
303.356
303.979
301.741
303.083
301.649
301.682
301.439
302.329
299.929
301.282
299.777
301.043
300.451
302.587
301.813
304.046
299.78
301.527
300.43
301.195
300.711
301.495
323.527
324.155
325.02
325.07
324.483
323.975
326.478
325.076
326.462
323.858
325.783
324.846
325.131
324.944
321.937
323.115
326.015
323.664
323.638
318.811
321.449
319.336
321.778
320.832
320.312
323.083
321.501
321.613
322.645
323.103
322.77
320.263
321.026
320.239
321.92
320.502
318.118
318.024
319.552
317.753
316.665
320.157
319.723
317.918
318.35
319.186
319.219
319.837
319.561
318.694
317.532
319.158
314.91
315.566
317.522
317.306
316.449
317.221
316.09
315.371
314.938
313.41
312.78
314.58
314.405
314.841
313.834
314.308
316.398
315.736
315.493
317.317
313.747
315.853
315.242
316.076
312.52
312.939
314.505
312.591
310.101
309.813
311.674
312.755
312.717
311.545
312.019
311.609
313.581
311.794
311.177
310.957
312.463
310.554
309.585
311.749
310.677
309.34
311.167
311.337
309.775
306.582
306.455
307.621
308.138
308.104
306.323
310.084
307.12
307.439
309.156
309.095
306.529
308.335
305.605
308.892
308.921
309.062
308.848
306.201
306.683
305.25
304.835
303.426
305.592
305.328
304.332
303.823
304.366
304.618
304.644
303.697
306.378
304.303
304.336
307.002
303.859
304.133
303.492
302.778
301.548
303.027
304.13
301.424
301.385
301.937
301.915
301.894
300.804
302.051
301.113
301.853
300.829
301.113
302.139
299.89
301.591
302.806
300.172
301.566
326.49
323.672
325.889
326.199
327.792
326.26
327.278
325.819
326.826
326.638
325.248
325.442
323.149
325.486
324.475
325.211
324.17
324.264
324.118
322.217
322.131
321.603
322.189
321.409
320.556
322.081
321.845
322.111
323.181
321.642
321.909
324.37
321.807
320.565
321.473
323.738
321.476
321.19
321.12
320.422
320.952
318.988
318.019
320.126
314.763
317.12
320.005
319.304
318.508
317.623
319.607
319.4
318.396
319.422
318.863
317.29
319.177
317.496
316.794
317.599
315.005
314.37
316.122
315.034
315.439
314.887
315.933
315.947
315.396
315.654
313.161
316.608
314.023
315.608
314.964
315.507
312.449
316.496
313.274
313.868
313.508
311.353
312.065
310.753
309.726
313.057
312.746
309.597
310.449
312.419
311.851
311.709
313.882
312.714
311.282
312.134
311.734
310.848
308.377
309.831
310.083
310.663
310.3
307.654
308.966
310.398
308.319
309.111
308.845
310.832
309.24
308.707
308.749
309.537
308.756
308.686
308.545
307.449
308.782
308.352
306.152
303.812
306.555
304.691
304.778
304.2
303.373
305.331
307.014
304.216
304.051
307.795
304.262
304.14
306.959
304.492
304.674
306.487
305.16
303.778
302.218
300.962
300.649
302.353
302.542
302.183
301.601
300.543
303.099
303.396
302.644
303.444
301.809
304.443
300.331
303.008
303.172
302.21
302.078
300.576
324.903
326.226
327.103
327.359
328.547
326.894
328.968
328.35
326.768
327.362
327.27
326.574
326.348
327.598
325.368
325.517
326.281
323.369
323.745
323.857
324.206
320.954
321.021
322.502
325.588
323.389
325.849
323.534
323.152
322.867
325.588
323.351
322.279
323.304
322.276
323.918
322.485
322.025
320.482
319.814
319.487
321.476
318.997
321.256
318.593
320.863
321.374
319.238
320.232
318.576
321.217
319.214
320.994
319.524
319.649
319.381
319.035
317.262
317.849
317.198
317.274
315.188
315.524
316.655
315.51
315.38
317.656
318.023
316.332
313.905
316.862
315.378
316.317
317.359
314.303
316.273
314.131
315.444
315.587
314.683
313.861
313.489
312.056
311.791
311.611
310.88
312.276
313.414
313.793
312.994
311.6
310.336
312.357
312.184
310.166
313.722
312.418
311.996
312.391
313.08
307.767
308.918
308.217
307.647
308.884
309.134
309.781
308.145
310.174
308.426
308.619
308.135
310.029
309.55
309.347
309.807
310.324
310.558
310.548
308.812
307.149
305.86
306.152
304.153
304.789
305.773
305.132
306.862
306.967
305.213
307.589
307.192
305.419
306.886
306.202
305.78
304.898
304.363
303.135
304.845
302.064
299.771
301.801
301.749
302.409
301.87
301.764
299.843
303.876
302.127
301.895
301.678
299.797
300.744
301.134
302.609
301.057
301.565
302.76
298.482
326.383
326.996
326.304
328.519
326.114
328.278
330.657
328.344
330.178
328.28
327.135
326.212
327.529
326.737
325.907
327.444
325.986
325.526
325.41
328.246
323.398
322.734
325.559
323.106
324.304
323.029
325.427
322.78
327.136
323.382
323.337
325.867
323.414
324.989
322.916
324.734
322.082
322.719
322.099
322.762
319.347
318.913
321.391
318.411
319.753
320.986
322.965
319.674
320.652
322.326
319.632
320.329
320.238
321.039
320.849
318.266
316.88
320.36
318.846
318.469
316.672
316.518
315.114
317.712
316.831
316.71
320.458
314.588
316.678
319.258
316.083
316.632
316.178
317.596
318.373
315.65
315.104
314.763
316.172
316.265
312.287
313.169
313.744
312.446
312.842
314.76
313.298
312.798
313.271
314.308
313.388
312.26
313.982
313.674
312.086
312.147
314.627
311.688
311.321
311.205
308.031
309.301
308.363
310.77
308.109
308.125
312.662
308.181
310.526
307.614
311.124
310.418
307.414
309.689
308.998
308.931
308.45
310.946
310.39
310.084
307.194
305.448
306.08
304.371
306.093
304.98
304.381
306.389
303.533
306.955
307.839
306.505
307.968
306.341
305.683
304.604
304.44
306.435
304.717
306.015
298.861
304.077
301.258
301.701
301.875
303.886
300.016
301.914
304.033
303.19
299.207
300.112
301.838
301.462
299.955
302.821
303.607
302.289
301.157
302.402
326.883
327.488
328.639
329.067
330.395
330.482
330.416
329.539
328.672
329.171
328.218
329.185
329.023
329.098
327.8
326.604
324.723
324.803
327.163
325.753
324.037
322.945
324.966
324.017
325.758
323.755
324.656
323.635
324.448
323.548
323.952
326.251
323.235
324.684
323.395
324.447
322.975
320.912
322.853
322.371
321.219
320.265
320.054
320.968
320.621
322.384
319.629
321.285
323.721
319.749
320.802
323.277
321.94
322.357
322.168
320.708
320.758
319.24
319.751
318.017
317.272
316.944
318.187
315.73
316.08
319.615
319.344
318.378
316.891
317.861
315.547
318.732
318.263
320.232
314.417
318.283
317.099
315.527
315.042
314.087
313.101
317.204
315.011
312.266
314.423
315.409
314.395
313.353
315.365
314.445
313.14
315.378
314.141
316.938
311.161
311.624
311.435
310.488
313.787
313.466
309.527
311.816
310.669
310.618
310.383
310.19
311.618
310.637
310.227
310.407
311.895
309.434
310.494
311.582
309.494
308.844
307.548
308.273
308.409
308.633
306.403
305.715
305.543
306.139
307.422
303.066
305.371
307.659
305.982
305.048
306.678
306.405
306.605
306.939
305.857
306.365
307.374
306.96
306.709
304.062
302.256
301.802
303.285
301.346
302.788
303.187
301.534
302.621
303.683
301.628
301.327
302.236
300.582
302.221
301.345
300.997
301.578
302.228
301.272
299.335
327.159
329.936
330.155
329.217
329.812
329.872
329.324
332.452
329.702
330.866
331.469
332.36
328.418
332.947
329.542
328.487
328.337
328.934
325.601
327.904
323.347
327.209
325.785
326.317
326.503
328.058
326.114
327.602
326.609
325.412
327.445
324.73
324.272
325.749
327.94
325.794
324.23
322.219
323.68
322.755
319.859
321.779
322.419
321.812
323.469
320.95
322.55
322.104
322.299
325.335
324.083
324.25
320.178
323.994
321.03
320.609
322.659
320.743
321.246
318.874
316.914
318.757
318.706
317.38
318.967
317.087
319.666
318.765
319.995
317.065
318.34
320.166
318.88
317.336
318.172
317.54
317.727
315.23
317.092
318.882
312.529
313.576
313.829
312.926
313.323
315.041
312.911
314.686
315.147
315.183
315.628
315.394
314.992
314.584
313.017
315.537
313.05
313.438
313.374
310.714
309.675
309.151
308.416
311.613
311.854
308.676
310.919
310.049
309.919
310.139
310.538
309.935
310.919
309.269
311.041
308.448
309.297
311.09
309.789
309.059
305.872
306.441
303.732
304.087
307.286
307.942
307
308.822
306.011
306.335
307.876
306.742
305.821
307.329
308.077
305.796
304.473
305.449
305.628
306.682
301.824
299.554
302.291
301.387
302.824
302.717
303.585
303.494
303.783
301.632
299.434
298.727
304.972
302.89
301.909
301.671
301.57
300.336
301.415
302.871
329.832
327.368
331.355
330.556
332.42
331.158
332.249
330.802
332.31
329.131
331.656
333.305
330.689
332.492
331.111
328.346
329.321
326.644
328.539
329.599
325.775
324.78
328.859
325.398
327.765
324.86
330.28
325.402
326.222
325.545
325.385
328.835
325.341
325.797
325.175
325.928
324.953
325.086
323.72
325.543
321.882
322
322.137
322.366
324.315
322.867
324.821
325.799
323.19
322.492
320.974
324.298
323.279
321.109
324.185
323.252
322.207
323.462
322.126
321.153
319.554
318.089
318.287
318.095
320.642
316.552
317.661
319.246
321.336
318.523
320.974
321.164
318.585
321.002
321.309
317.581
315.479
315.996
318.163
317.363
312.473
314.436
315.825
315.52
316.09
312.45
316.155
314.984
316.008
313.389
314.013
313.074
313.542
313.676
315.311
314.904
315.472
315.71
314.115
311.216
310.219
308.313
311.086
310.367
312.662
310.191
308.299
310.041
310.964
312.763
309.219
311.753
309.961
310.937
311.075
310.793
311.143
310.949
311.496
309.082
305.412
307.18
305.831
308.582
306.587
305.622
308.672
307.022
306.813
307.241
307.818
307.168
305.859
305.658
306.18
305.572
305.794
307.745
306.543
305.92
299.272
301.053
302.837
299.989
303.942
302.572
303.032
303.376
301.849
302.672
302.201
302.684
300.455
300.121
300.965
303.362
301.887
301.66
300.881
302.143
330.239
333.909
329.545
332.659
332.847
333.115
334.14
333.901
333.552
331.674
333.682
332.788
333.873
330.533
334.024
330.154
330.304
330.55
328.098
328.43
325.023
329.684
325.058
328.885
327.745
329.695
327.68
329.337
327.461
327.622
327.175
329.422
330.891
328.28
326.676
328.626
325.616
327.267
324.875
326.358
321.621
322.516
323.272
324.864
324.063
323.403
324.932
324.284
324.812
325.127
322.376
323.824
326.116
322.87
323.316
324.513
323.316
323.818
321.381
321.775
318.064
320.368
319.42
319.048
319.414
319.965
321.095
320.089
321.43
320.228
320.053
320.829
319.713
319.018
320.071
320.576
319.6
319.172
317.203
317.707
313.341
314.433
314.114
315.886
315.654
316.144
314.709
317.055
315.024
316.669
315.892
315.681
314.538
316.155
317.333
316.198
314.678
311.989
312.767
313.078
310.502
311.407
309.348
309.401
312.518
311.229
312.877
311.436
311.208
310.293
309.608
310.413
312.536
309.891
311.509
312.886
309.473
310.918
309.745
308.661
305.723
305.609
305.891
307.326
307.411
307.731
307.556
305.339
307.677
306.37
307.174
304.917
306.112
305.311
307.315
306.684
306.899
305.732
306.413
305.452
301.19
303.532
300.645
301.558
303.926
302.146
300.41
303.307
304.28
303.554
305.275
299.031
301.335
303.485
304.279
301.697
302.781
302.719
304.644
302.997
331.459
329.488
331.051
332.757
333.847
334.468
333.76
332.725
331.546
333.291
329.311
334.265
331.844
333.293
333.361
332.428
330.37
331.606
329.316
329.299
327.414
326.875
326.205
327.705
329.026
326.585
327.049
327.312
329.944
327.224
327.342
328.558
327.441
331.165
327.478
327.947
326.432
326.308
326.553
327.816
321.387
325.841
322.306
323.525
322.436
326.041
323.185
324.665
326.15
325.683
323.674
324.648
323.778
324.645
325.83
325.052
320.959
322.568
321.838
321.485
320.115
319.446
319.561
320.635
320.103
318.894
321.611
320.967
321.832
321.347
319.08
323.558
319.34
320.374
319.221
319.295
319.899
319.288
319.632
318.134
314.129
316.33
313.231
315.141
316.95
314.017
317.539
316.622
315.733
315.96
314.458
317.109
316.419
316.624
316.873
315.758
315.031
315.505
315.064
313.263
311.965
311.861
311.451
311.202
311.18
311.642
311.357
310.381
310.984
311.358
311.457
311.775
312.055
310.44
311.012
311.609
309.343
311.251
312.166
311.434
305.662
305.843
306.099
307.281
306.576
305.742
306.539
305.624
307.355
302.959
308.224
308.111
305.78
306.218
308.526
307.219
306.777
306.379
306.507
307.523
302.884
301.254
302.748
301.49
302.397
303.8
304.132
303.024
300.945
302.212
299.77
301.353
302.223
302.226
303.003
303.257
305.463
301.156
303.306
301.185
333.098
334.158
333.624
332.566
334.614
334.526
332.825
334.554
336.34
335.395
333.123
334.859
334.001
334.555
334.951
331.017
333.123
332.558
332.729
330.793
328.283
326.649
328.199
326.446
328.334
328.684
330.848
329.941
328.482
330.841
329.156
328.747
329.133
330.798
329.458
328.596
328.481
326.486
326.455
326.981
324.092
325.657
325.37
324.219
324.648
324.899
325.492
324.736
327.627
327.318
324.183
324.482
325.353
324.201
324.567
324.117
322.934
321.535
324.757
321.252
319.409
319.083
320.044
320.408
320.737
323.666
321.361
321.509
322.36
322.046
320.776
320.036
320.499
319.571
319.514
318.786
319.184
318.893
318.604
317.328
314.035
316.175
315.674
315.63
315.467
314.648
317.145
314.886
316.327
316.606
317.142
316.734
317.665
315.084
317.125
315.518
314.903
314.266
314.747
315.338
309.767
311.634
310.362
309.68
311.09
312.444
311.024
312.023
310.126
311.876
311.24
310.746
310.098
311.553
311.679
310.928
310.2
311.252
309.59
310.276
308.246
308.356
307.151
306.081
308.114
306.611
305.283
308.463
307.954
309.227
306.336
308.139
308.23
305.831
306.83
304.988
305.946
304.898
307.904
305.805
299.174
304.993
303.952
302.551
302.809
302.058
299.336
304.665
302.678
301.913
304.788
301.415
300.795
302.3
299.388
302.358
301.732
302.278
301.817
301.781
332.758
332.719
332.194
335.254
334.746
334.099
334.119
335.721
333.827
335.131
333.857
332.872
333.843
334.341
334.255
335.556
335.036
333.359
330.199
328.596
327.812
329.128
329.565
329.251
329.178
329.466
328.995
329.191
332.934
329.185
329.38
331.394
329.572
329.556
328.886
330.637
328.997
327.783
328.252
327.376
323.239
324.826
326.691
325.449
326.222
325.128
326.82
324.239
327.044
326.455
326.452
327.233
327.097
327.646
325.766
323.596
323.223
325.551
320.07
323.407
320.451
320.043
319.887
319.682
320.966
319.637
322.82
320.745
321.245
321.921
321.979
321.852
321.48
321.027
321.71
320.085
320.892
320.265
317.183
319.09
314.479
314.336
316.082
315.865
318.435
317.062
316.125
317.852
315.992
316.679
316.399
317.83
317.445
313.742
317.424
317.858
316.318
313.413
316.821
316.043
311.824
312.065
311.529
311.574
312.772
313.692
313.401
312.694
311.533
312.671
312.358
312.479
312.516
312.684
310.837
312.212
308.416
310.053
312.005
309.915
308.735
307.004
307.578
306.304
311.02
304.86
306.387
306.4
307.496
308.399
308.636
306.01
307.151
307.822
308.929
307.553
303.546
307.455
306.377
307.786
303.948
301.887
302.231
302.744
302.884
303.489
304.109
300.143
302.768
303.411
302.709
303.136
304.194
303.189
301.462
303.459
303.292
302.332
302.52
302.461
333.642
335.319
333.864
336.802
334.467
335.872
334.819
337.679
337.392
336.474
337.419
337.522
333.817
335.974
335.694
334.28
329.811
333.161
331.258
331.593
331.718
331.942
330.709
330.373
330.656
330.222
333.261
331.23
330.961
330.914
331.586
330.648
330.979
332.104
331.373
330.546
328.605
329.701
326.439
328.738
324.834
324.339
326.326
325.665
324.512
326.016
327.441
327.011
327.472
329.121
326.782
327.763
327.323
326.213
327.149
326.079
325.523
324.753
325.328
321.512
322.998
321.593
320.755
321.964
319.311
323.844
320.994
322.384
320.635
322.202
322.914
323.201
320.174
321.535
319.796
321.813
321.665
318.922
318.864
319.939
315.718
318.715
317.651
314.837
319.494
315.559
318.778
318.693
317.283
314.969
316.364
318.794
317.69
317.281
317.627
315.983
316.3
315.668
314.833
316.777
311.128
311.283
313.845
312.167
314.529
312.581
315.505
312.288
310.317
312.882
311.904
312.877
310.068
311.956
312.108
312.026
313.989
311.103
308.875
310.149
306.222
306.332
308.1
305.949
307.58
306.391
306.481
306.031
307.194
309.345
306.484
307.799
307.075
306.33
306.524
307.891
306.447
307.646
304.525
307.68
302.048
300.787
302.653
301.627
302.083
304.45
302.253
302.223
301.793
301.956
305.264
302.104
301.06
301.162
301.711
302.982
302.229
302.31
301.816
302.309
335.285
333.024
333.003
333.818
338.313
338.36
335.673
337.119
336.243
336.549
336.365
337.9
335.1
335.483
338.151
336.739
334.925
332.25
333.519
332.073
329.754
330.717
331.51
331.1
331.585
330.812
332.301
331.487
333.468
331.12
332.085
329.95
331.449
330.325
331.669
330.376
331.036
327.123
330.987
329.179
327.21
323.972
324.987
326.138
326.794
328.865
327.102
328.951
327.097
326.257
329.369
328.166
326.68
326.45
325.535
328.339
326.516
327.4
326.945
320.93
320.806
320.277
319.571
322.118
322.146
321.71
322.614
321.124
324.207
324.08
322.756
322.18
323.333
321.053
322.002
323.227
319.711
321.891
318.921
320.573
314.117
315.715
313.799
316.987
316.559
317.827
318.832
317.313
318.806
317.442
318.851
316.22
315.05
318.618
319.574
315.111
313.636
315.62
316.768
315.578
310.854
312.635
311.304
310.954
314.465
314.273
311.079
313.94
315.441
310.466
311.643
314.094
313.098
312.067
314.116
309.259
311.086
311.364
310.126
312.141
304.735
308.339
306.908
308.976
305.027
308.937
306.879
308.524
306.752
308.552
310.505
305.248
309.229
306.872
307.35
309.279
307.88
306.847
307.165
308.186
302.504
301.252
302.677
300.487
302.838
303.279
303.676
302.526
301.914
299.499
302.05
302.753
302.487
303.797
301.455
301.771
303.122
302.995
301.873
301.75
333.107
333.146
335.422
336.115
335.512
337.72
337.407
338.782
342.244
335.93
336.397
335.347
336.716
337.728
335.046
337.237
334.197
333.247
332.813
333.947
329.748
333.582
331.851
332.97
332.54
334.18
332.611
333.419
333.424
332.426
331.787
332.653
330.977
331.653
331.063
331.065
331.211
330.106
327.7
330.505
323.811
325.55
328.239
326.849
328.712
326.789
326.194
328.984
330.816
329.01
326.693
328.681
327.18
327.081
326.121
328.148
325.696
324.21
323.606
326.275
322.243
319.646
322.437
323.597
323.444
322.625
321.708
320.936
323.737
321.458
322.507
323.565
320.958
322.965
322.673
321.587
321.506
322.352
320.946
319.148
314.326
315.038
317.14
317.15
318.399
317.993
317.241
317.289
317.464
317.828
318.542
317.003
316.501
317.621
317.327
318.755
316.835
314.686
313.332
316.937
311.857
311.567
312.627
313.05
314.391
313.385
311.951
313.923
313.557
312.801
310.85
311.517
313.433
312.75
311.191
312.664
310.688
311.91
314.299
310.044
308.788
308.495
308.685
308.605
305.759
309.714
307.085
308.063
304.769
308.738
308.312
309.689
307.524
306.86
309.453
308.467
308.587
307.622
306.575
307.854
301.453
301.717
300.747
305.057
303.338
303.462
302.483
301.31
302.653
303.682
299.086
301.143
303.847
302.556
302.535
302.703
302.93
304.016
302.705
304.259
)
;

boundaryField
{
    hotSide
    {
        type            fixedGradient;
        gradient        nonuniform List<scalar> 
400
(
321.511
322.87
325.591
329.677
335.133
341.965
350.181
359.788
370.794
383.208
397.037
412.289
428.971
447.088
466.647
487.651
510.105
534.011
559.372
586.191
323.738
325.08
327.767
331.802
337.194
343.949
352.078
361.591
372.498
384.81
398.537
413.687
430.268
448.289
467.755
488.672
511.043
534.872
560.161
586.913
326.149
327.47
330.116
334.091
339.406
346.071
354.099
363.503
374.296
386.491
400.101
415.136
431.606
449.52
468.885
489.706
511.988
535.735
560.948
587.63
328.704
330
332.597
336.503
341.73
348.292
356.205
365.485
376.15
388.215
401.695
416.604
432.954
450.753
470.009
490.73
512.919
536.579
561.714
588.325
331.33
332.599
335.142
338.97
344.099
350.546
358.332
367.477
378.003
389.928
403.271
418.047
434.27
451.949
471.095
491.712
513.807
537.382
562.439
588.978
333.918
335.158
337.643
341.389
346.414
352.74
360.392
369.397
379.779
391.562
404.765
419.407
435.503
453.065
472.101
492.618
514.622
538.114
563.096
589.569
336.321
337.531
339.959
343.622
348.544
354.751
362.274
371.142
381.385
393.031
406.101
420.618
436.595
454.047
472.983
493.409
515.33
538.747
563.663
590.076
338.36
339.543
341.92
345.509
350.339
356.44
363.847
372.595
382.718
394.244
407.2
421.608
437.485
454.844
473.695
494.045
515.897
539.253
564.114
590.478
339.852
341.015
343.352
346.885
351.645
357.665
364.985
373.643
383.675
395.113
407.984
422.312
438.116
455.407
474.197
494.491
516.294
539.606
564.428
590.758
340.643
341.795
344.11
347.613
352.334
358.311
365.584
374.193
384.176
395.567
408.393
422.679
438.443
455.699
474.456
494.722
516.498
539.788
564.589
590.901
340.643
341.795
344.11
347.613
352.334
358.311
365.584
374.193
384.176
395.567
408.393
422.679
438.443
455.699
474.456
494.722
516.498
539.788
564.589
590.901
339.852
341.015
343.352
346.885
351.645
357.665
364.985
373.643
383.675
395.113
407.984
422.312
438.116
455.407
474.197
494.491
516.294
539.606
564.428
590.758
338.36
339.543
341.92
345.509
350.339
356.44
363.847
372.595
382.718
394.244
407.2
421.608
437.485
454.844
473.695
494.045
515.897
539.253
564.114
590.478
336.321
337.531
339.959
343.622
348.544
354.751
362.274
371.142
381.385
393.031
406.101
420.618
436.595
454.047
472.983
493.409
515.33
538.747
563.663
590.076
333.918
335.158
337.643
341.389
346.414
352.74
360.392
369.397
379.779
391.562
404.765
419.407
435.503
453.065
472.101
492.618
514.622
538.114
563.096
589.569
331.33
332.599
335.142
338.97
344.099
350.546
358.332
367.477
378.003
389.928
403.271
418.047
434.27
451.949
471.095
491.712
513.807
537.382
562.439
588.978
328.704
330
332.597
336.503
341.73
348.292
356.205
365.485
376.15
388.215
401.695
416.604
432.954
450.753
470.009
490.73
512.919
536.579
561.714
588.325
326.149
327.47
330.116
334.091
339.406
346.071
354.099
363.503
374.296
386.491
400.101
415.136
431.606
449.52
468.885
489.706
511.988
535.735
560.948
587.63
323.738
325.08
327.767
331.802
337.194
343.949
352.078
361.591
372.498
384.81
398.537
413.687
430.268
448.289
467.755
488.672
511.043
534.872
560.161
586.913
321.511
322.87
325.591
329.677
335.133
341.965
350.181
359.788
370.794
383.208
397.037
412.289
428.971
447.088
466.647
487.651
510.105
534.011
559.372
586.191
)
;
    }
    coldSide
    {
        type            mixed;
        refValue        uniform 300;
        refGradient     uniform 0;
        valueFraction   uniform 0.991591;
        source          uniform 0;
        value           nonuniform List<scalar> 
400
(
300.014
300.005
300.011
300.01
300.021
300.015
300.013
300.019
300.017
299.99
300.019
300.015
299.994
300.01
300.024
299.993
300.033
300.017
300.021
300.012
300.008
300.016
300.021
300.028
300.016
300.026
300.025
300.008
299.998
300.034
300.015
299.996
300.009
300.03
300.011
300.042
300.016