/*--------------------------------*- C++ -*----------------------------------*\
| =========                 |                                                 |
| \\      /  F ield         | OpenFOAM: The Open Source CFD Toolbox           |
|  \\    /   O peration     | Version:  2212                                  |
|   \\  /    A nd           | Website:  www.openfoam.com                      |
|    \\/     M anipulation  |                                                 |
\*---------------------------------------------------------------------------*/
FoamFile
{
    version     2.0;
    format      ascii;
    arch        "LSB;label=32;scalar=64";
    class       volScalarField;
    location    "0";
    object      T;
}
// * * * * * * * * * * * * * * * * * * * * * * * * * * * * * * * * * * * * * //

dimensions      [0 0 0 1 0 0 0];

internalField   nonuniform List<scalar> 
3200
(
326.33
325.521
325.159
325.217
325.261
325.619
325.993
326.508
326.878
327.187
327.287
327.255
327.057
326.617
326.185
325.958
325.629
325.485
326.006
326.377
322.868
322.192
321.93
321.945
321.966
322.28
322.601
323.057
323.396
323.684
323.765
323.719
323.527
323.16
322.771
322.595
322.291
322.148
322.616
322.884
319.4
318.841
318.641
318.639
318.647
318.923
319.158
319.579
319.852
320.126
320.206
320.123
319.964
319.661
319.319
319.189
318.924
318.778
319.198
319.414
315.918
315.462
315.33
315.304
315.312
315.515
315.684
316.074
316.286
316.533
316.61
316.512
316.357
316.136
315.843
315.78
315.532
315.401
315.741
315.898
312.399
312.069
311.957
311.953
311.937
312.086
312.187
312.516
312.688
312.901
312.969
312.857
312.734
312.569
312.348
312.316
312.102
312.021
312.267
312.419
308.855
308.651
308.569
308.568
308.548
308.653
308.721
308.965
309.073
309.233
309.303
309.203
309.1
308.995
308.828
308.818
308.648
308.624
308.776
308.907
305.324
305.213
305.155
305.144
305.146
305.204
305.235
305.375
305.454
305.545
305.59
305.536
305.463
305.411
305.298
305.298
305.196
305.199
305.281
305.358
301.777
301.747
301.728
301.725
301.726
301.746
301.745
301.803
301.825
301.859
301.882
301.863
301.83
301.819
301.773
301.775
301.744
301.742
301.773
301.799
326.357
325.668
325.338
325.219
325.449
325.788
326.217
326.709
327.178
327.439
327.537
327.562
327.262
326.913
326.463
326.146
325.624
325.498
326.027
326.535
322.898
322.317
322.062
321.953
322.139
322.433
322.798
323.232
323.628
323.868
323.962
323.975
323.709
323.407
323.024
322.75
322.321
322.155
322.626
323.071
319.411
318.947
318.738
318.64
318.784
319.053
319.349
319.733
320.046
320.271
320.352
320.351
320.141
319.868
319.525
319.316
318.96
318.807
319.218
319.567
315.911
315.571
315.397
315.278
315.416
315.628
315.854
316.187
316.423
316.644
316.71
316.714
316.53
316.278
316.017
315.843
315.562
315.437
315.761
316.044
312.415
312.131
312.001
311.92
312.015
312.182
312.355
312.601
312.788
312.98
313.046
313.023
312.894
312.704
312.467
312.356
312.135
312.058
312.282
312.487
308.884
308.688
308.596
308.539
308.608
308.736
308.837
309.006
309.155
309.291
309.37
309.304
309.244
309.086
308.906
308.839
308.688
308.637
308.773
308.947
305.347
305.231
305.171
305.129
305.177
305.253
305.314
305.406
305.504
305.58
305.651
305.599
305.559
305.46
305.346
305.302
305.238
305.191
305.271
305.373
301.795
301.757
301.74
301.723
301.736
301.757
301.784
301.819
301.846
301.872
301.903
301.882
301.879
301.833
301.792
301.778
301.761
301.749
301.765
301.797
326.696
325.894
325.418
325.446
325.706
326.165
326.532
327.159
327.647
328.041
328.095
328.093
327.71
327.225
326.715
326.355
325.949
325.822
326.069
326.755
323.19
322.535
322.138
322.137
322.376
322.759
323.082
323.621
324.067
324.378
324.414
324.436
324.103
323.674
323.23
322.94
322.568
322.459
322.685
323.255
319.662
319.164
318.82
318.792
319.003
319.316
319.611
320.072
320.414
320.677
320.692
320.742
320.473
320.084
319.737
319.452
319.16
319.069
319.274
319.73
316.131
315.745
315.462
315.402
315.593
315.839
316.086
316.485
316.749
316.947
316.968
317.027
316.814
316.478
316.185
315.95
315.692
315.643
315.82
316.198
312.569
312.294
312.069
312.021
312.153
312.347
312.537
312.858
313.047
313.214
313.215
313.262
313.116
312.843
312.596
312.416
312.213
312.185
312.353
312.614
309.017
308.788
308.643
308.611
308.718
308.844
308.959
309.203
309.322
309.458
309.443
309.486
309.398
309.173
309.009
308.878
308.741
308.721
308.848
309.042
305.429
305.278
305.206
305.171
305.251
305.325
305.361
305.54
305.603
305.668
305.668
305.675
305.663
305.51
305.411
305.343
305.277
305.245
305.32
305.442
301.821
301.775
301.751
301.733
301.771
301.789
301.804
301.855
301.875
301.893
301.883
301.891
301.901
301.844
301.816
301.787
301.774
301.763
301.791
301.822
327.131
326.254
325.857
325.874
326.135
326.508
327.121
327.66
328.137
328.561
328.638
328.646
328.098
327.82
327.202
326.687
326.42
326.277
326.507
327.141
323.539
322.835
322.512
322.491
322.725
323.046
323.593
324.046
324.455
324.837
324.889
324.907
324.436
324.183
323.682
323.2
323.012
322.871
323.04
323.604
319.945
319.38
319.133
319.088
319.262
319.587
320.041
320.406
320.75
321.073
321.115
321.15
320.736
320.502
320.098
319.676
319.549
319.43
319.539
320.017
316.341
315.915
315.706
315.664
315.797
316.12
316.43
316.736
317.002
317.28
317.301
317.366
316.993
316.804
316.494
316.123
316.047
315.965
316.029
316.416
312.736
312.409
312.254
312.21
312.332
312.607
312.804
313.051
313.247
313.461
313.475
313.552
313.243
313.113
312.862
312.571
312.5
312.45
312.501
312.803
309.119
308.888
308.774
308.742
308.831
309.034
309.17
309.353
309.489
309.624
309.629
309.721
309.483
309.386
309.197
309.002
308.938
308.908
308.948
309.185
305.468
305.326
305.293
305.266
305.294
305.437
305.519
305.631
305.708
305.77
305.764
305.851
305.719
305.638
305.52
305.388
305.368
305.338
305.4
305.539
301.83
301.783
301.777
301.772
301.769
301.819
301.844
301.895
301.908
301.931
301.928
301.965
301.927
301.894
301.844
301.801
301.8
301.796
301.813
301.862
327.483
326.721
326.416
326.42
326.618
327.091
327.678
328.31
328.77
329.062
329.27
329.248
328.8
328.345
327.889
327.308
326.868
326.648
326.921
327.432
323.891
323.231
322.985
322.981
323.156
323.57
324.087
324.587
325.024
325.276
325.456
325.435
325.029
324.647
324.274
323.745
323.36
323.178
323.431
323.845
320.272
319.74
319.52
319.503
319.654
320.013
320.466
320.853
321.243
321.429
321.624
321.578
321.227
320.917
320.603
320.144
319.837
319.706
319.911
320.214
316.635
316.197
316.04
315.997
316.128
316.433
316.794
317.109
317.434
317.564
317.762
317.718
317.391
317.174
316.884
316.515
316.267
316.174
316.343
316.578
312.958
312.631
312.51
312.466
312.574
312.811
313.1
313.352
313.59
313.677
313.856
313.811
313.548
313.381
313.161
312.873
312.684
312.621
312.744
312.922
309.288
309.03
308.942
308.904
308.992
309.171
309.405
309.548
309.719
309.78
309.906
309.897
309.686
309.567
309.41
309.211
309.083
309.037
309.127
309.242
305.596
305.428
305.368
305.343
305.383
305.512
305.66
305.744
305.856
305.89
305.957
305.945
305.828
305.755
305.672
305.554
305.464
305.444
305.487
305.558
301.865
301.829
301.801
301.794
301.805
301.844
301.907
301.92
301.968
301.974
301.999
301.995
301.943
301.927
301.907
301.864
301.832
301.831
301.831
301.865
328.116
327.465
327.104
327.079
327.247
327.801
328.402
329.011
329.481
329.785
329.868
329.82
329.29
328.95
328.385
327.902
327.403
327.235
327.419
327.887
324.431
323.889
323.585
323.549
323.725
324.18
324.713
325.243
325.644
325.887
325.959
325.912
325.462
325.171
324.699
324.263
323.838
323.714
323.844
324.241
320.709
320.298
320.019
320.001
320.153
320.493
320.985
321.426
321.758
321.951
322.032
321.959
321.577
321.368
320.975
320.585
320.246
320.163
320.233
320.59
316.958
316.65
316.421
316.432
316.522
316.766
317.215
317.57
317.829
317.981
318.07
318.003
317.71
317.53
317.223
316.877
316.609
316.542
316.592
316.881
313.215
312.969
312.819
312.808
312.864
313.053
313.428
313.695
313.886
313.997
314.084
314.035
313.802
313.658
313.421
313.139
312.927
312.892
312.903
313.163
309.46
309.277
309.174
309.178
309.194
309.334
309.617
309.796
309.938
310.012
310.091
310.032
309.88
309.791
309.615
309.394
309.232
309.207
309.202
309.439
305.689
305.581
305.506
305.519
305.528
305.616
305.789
305.881
305.961
306.027
306.093
306.024
305.932
305.896
305.771
305.636
305.549
305.524
305.533
305.704
301.918
301.878
301.85
301.846
301.857
301.889
301.929
301.974
301.995
302.02
302.049
302.022
301.981
301.984
301.929
301.891
301.86
301.847
301.855
301.924
328.679
328.18
327.83
327.848
327.886
328.446
329.059
329.627
330.157
330.558
330.676
330.563
330.063
329.663
329.045
328.462
328.013
327.906
328.011
328.512
324.921
324.496
324.198
324.228
324.268
324.736
325.262
325.763
326.236
326.549
326.657
326.556
326.136
325.798
325.271
324.751
324.372
324.28
324.317
324.781
321.132
320.809
320.534
320.559
320.604
320.99
321.45
321.878
322.273
322.526
322.607
322.52
322.18
321.918
321.445
320.996
320.683
320.62
320.619
321.018
317.328
317.081
316.86
316.886
316.921
317.198
317.611
317.939
318.296
318.455
318.548
318.459
318.204
317.983
317.594
317.208
316.982
316.944
316.925
317.228
313.502
313.335
313.136
313.187
313.2
313.396
313.741
313.961
314.261
314.373
314.468
314.389
314.189
314.027
313.751
313.399
313.246
313.234
313.186
313.434
309.67
309.538
309.377
309.463
309.448
309.581
309.838
309.989
310.223
310.28
310.369
310.294
310.159
310.033
309.857
309.593
309.476
309.485
309.426
309.628
305.808
305.73
305.63
305.711
305.683
305.763
305.923
305.989
306.145
306.181
306.236
306.19
306.117
306.033
305.954
305.787
305.702
305.694
305.663
305.802
301.936
301.918
301.88
301.911
301.915
301.935
301.988
302.013
302.052
302.086
302.091
302.073
302.063
302.015
301.997
301.941
301.911
301.899
301.899
301.952
329.407
328.947
328.518
328.6
328.786
329.248
329.754
330.319
330.925
331.276
331.35
331.379
330.877
330.47
329.728
329.068
328.812
328.548
328.746
329.189
325.541
325.18
324.79
324.868
325.025
325.434
325.881
326.378
326.899
327.17
327.259
327.27
326.851
326.493
325.868
325.282
325.06
324.831
325.006
325.384
321.656
321.371
321.031
321.097
321.218
321.585
321.99
322.388
322.818
323.05
323.118
323.105
322.77
322.469
321.963
321.456
321.284
321.082
321.217
321.547
317.742
317.53
317.239
317.316
317.384
317.7
318.031
318.328
318.694
318.912
318.944
318.924
318.682
318.416
318.022
317.627
317.474
317.304
317.387
317.672
313.835
313.654
313.44
313.489
313.551
313.802
314.038
314.256
314.576
314.748
314.755
314.74
314.571
314.345
314.049
313.771
313.648
313.498
313.539
313.76
309.91
309.762
309.604
309.654
309.709
309.881
310.041
310.192
310.43
310.575
310.542
310.553
310.423
310.268
310.072
309.862
309.781
309.675
309.677
309.855
305.956
305.87
305.775
305.811
305.846
305.94
306.026
306.147
306.252
306.366
306.341
306.349
306.277
306.174
306.07
305.939
305.912
305.825
305.797
305.944
301.995
301.968
301.934
301.947
301.961
301.987
302.014
302.07
302.099
302.134
302.128
302.123
302.106
302.073
302.037
301.994
301.987
301.965
301.928
301.999
330.325
329.736
329.433
329.415
329.676
329.932
330.489
331.009
331.608
331.946
332.112
332.106
331.526
331.049
330.346
329.768
329.529
329.356
329.517
329.887
326.361
325.857
325.614
325.584
325.827
326.004
326.528
326.958
327.489
327.751
327.898
327.895
327.398
326.969
326.372
325.876
325.689
325.553
325.674
325.984
322.362
321.951
321.753
321.716
321.919
322.06
322.503
322.861
323.344
323.555
323.666
323.664
323.234
322.867
322.379
321.942
321.817
321.706
321.789
322.058
318.332
318.012
317.843
317.841
317.969
318.107
318.433
318.719
319.133
319.331
319.397
319.398
319.049
318.737
318.355
317.969
317.914
317.819
317.877
318.1
314.279
314.046
313.913
313.913
314.017
314.142
314.367
314.566
314.882
315.094
315.105
315.107
314.833
314.586
314.303
313.978
313.972
313.879
313.96
314.149
310.199
310.061
309.95
309.971
310.038
310.146
310.296
310.422
310.649
310.809
310.79
310.78
310.601
310.429
310.236
309.982
310.002
309.933
310.007
310.137
306.128
306.028
305.971
306.014
306.053
306.103
306.2
306.275
306.417
306.493
306.487
306.479
306.36
306.247
306.139
306.007
306.015
305.963
306.012
306.095
302.049
302.02
302.006
302.01
302.036
302.045
302.085
302.093
302.154
302.173
302.178
302.175
302.127
302.077
302.06
302.02
302.007
302
302.02
302.045
331.114
330.659
330.292
330.125
330.456
330.72
331.324
331.863
332.254
332.7
332.919
332.757
332.353
331.683
331.096
330.506
330.165
330.102
330.213
330.464
327.03
326.661
326.307
326.198
326.469
326.716
327.233
327.703
328.065
328.403
328.625
328.483
328.134
327.524
327.027
326.547
326.235
326.182
326.302
326.49
322.917
322.647
322.285
322.235
322.465
322.668
323.106
323.53
323.858
324.092
324.28
324.158
323.894
323.365
322.919
322.522
322.281
322.229
322.363
322.491
318.787
318.593
318.267
318.236
318.422
318.593
318.945
319.287
319.578
319.774
319.912
319.823
319.603
319.179
318.777
318.472
318.283
318.261
318.372
318.431
314.644
314.519
314.224
314.212
314.341
314.497
314.759
315.042
315.266
315.403
315.526
315.437
315.282
314.951
314.637
314.39
314.25
314.247
314.319
314.361
310.482
310.412
310.161
310.179
310.278
310.369
310.568
310.775
310.938
311.04
311.123
311.036
310.948
310.715
310.474
310.304
310.196
310.201
310.227
310.273
306.298
306.287
306.111
306.132
306.199
306.233
306.366
306.476
306.582
306.636
306.699
306.652
306.579
306.448
306.319
306.206
306.128
306.118
306.135
306.177
302.115
302.109
302.051
302.06
302.076
302.082
302.149
302.173
302.209
302.222
302.248
302.24
302.206
302.17
302.119
302.083
302.04
302.047
302.062
302.069
331.957
331.457
331.192
331.035
331.281
331.615
332.078
332.497
333.105
333.395
333.528
333.412
333.097
332.386
331.799
331.277
330.956
330.851
331.05
331.185
327.736
327.337
327.125
326.964
327.181
327.483
327.9
328.256
328.796
329.031
329.158
329.045
328.788
328.158
327.642
327.219
326.931
326.868
327.02
327.104
323.495
323.189
323.005
322.879
323.04
323.309
323.678
324.003
324.441
324.638
324.745
324.64
324.441
323.91
323.434
323.11
322.85
322.835
322.943
322.991
319.239
319.007
318.875
318.774
318.882
319.106
319.413
319.7
320.063
320.172
320.3
320.209
320.046
319.611
319.212
318.947
318.738
318.721
318.828
318.848
314.98
314.783
314.715
314.64
314.687
314.891
315.141
315.371
315.626
315.702
315.835
315.743
315.628
315.295
314.983
314.776
314.604
314.59
314.669
314.67
310.703
310.55
310.514
310.471
310.501
310.641
310.837
311.012
311.173
311.212
311.331
311.259
311.167
310.944
310.762
310.587
310.468
310.428
310.51
310.501
306.425
306.344
306.317
306.296
306.32
306.4
306.524
306.632
306.707
306.738
306.82
306.782
306.715
306.587
306.498
306.371
306.308
306.263
306.325
306.315
302.144
302.126
302.108
302.109
302.127
302.149
302.194
302.236
302.239
302.256
302.279
302.281
302.245
302.208
302.184
302.141
302.116
302.103
302.123
302.114
332.827
332.351
332.115
332.019
332.079
332.395
332.905
333.34
333.676
333.962
334.091
334.026
333.66
333.028
332.511
331.992
331.758
331.643
331.716
331.978
328.511
328.111
327.919
327.816
327.878
328.169
328.617
328.979
329.295
329.549
329.645
329.592
329.268
328.713
328.271
327.833
327.626
327.549
327.61
327.807
324.171
323.845
323.691
323.576
323.64
323.906
324.298
324.591
324.884
325.081
325.176
325.105
324.832
324.368
324
323.629
323.431
323.415
323.461
323.615
319.814
319.546
319.411
319.329
319.373
319.593
319.926
320.166
320.438
320.571
320.671
320.573
320.371
319.996
319.704
319.373
319.193
319.222
319.248
319.379
315.431
315.215
315.112
315.042
315.094
315.257
315.514
315.728
315.942
316.044
316.129
316.014
315.894
315.591
315.383
315.103
314.955
314.997
315.01
315.108
311.049
310.87
310.794
310.772
310.792
310.907
311.119
311.266
311.419
311.487
311.536
311.455
311.377
311.134
311.027
310.83
310.701
310.733
310.748
310.799
306.652
306.52
306.491
306.482
306.484
306.553
306.686
306.783
306.864
306.906
306.934
306.898
306.846
306.664
306.633
306.526
306.431
306.429
306.473
306.504
302.236
302.184
302.173
302.169
302.176
302.196
302.244
302.283
302.302
302.314
302.32
302.314
302.302
302.217
302.225
302.181
302.162
302.138
302.156
302.184
333.933
333.271
333.14
332.944
332.986
333.2
333.561
333.989
334.381
334.648
334.735
334.528
334.303
333.674
333.18
332.635
332.392
332.205
332.43
332.83
329.455
328.918
328.805
328.647
328.674
328.868
329.176
329.536
329.911
330.123
330.23
330.028
329.841
329.299
328.881
328.409
328.2
328.045
328.238
328.58
324.97
324.521
324.443
324.318
324.32
324.461
324.736
325.064
325.383
325.564
325.661
325.493
325.327
324.875
324.534
324.125
323.944
323.846
323.968
324.271
320.474
320.119
320.043
319.964
319.932
320.032
320.259
320.55
320.807
320.941
321.039
320.926
320.758
320.423
320.149
319.8
319.659
319.602
319.659
319.933
315.956
315.665
315.628
315.579
315.518
315.591
315.761
316.019
316.208
316.315
316.393
316.322
316.185
315.929
315.731
315.444
315.312
315.305
315.338
315.547
311.426
311.206
311.178
311.155
311.101
311.154
311.275
311.47
311.591
311.674
311.721
311.716
311.569
311.394
311.277
311.043
310.943
310.973
310.989
311.128
306.862
306.739
306.714
306.72
306.667
306.682
306.78
306.895
306.946
307.008
307.036
307.054
306.967
306.837
306.795
306.621
306.587
306.591
306.612
306.682
302.3
302.254
302.256
302.253
302.237
302.234
302.278
302.308
302.325
302.351
302.362
302.364
302.333
302.288
302.283
302.213
302.215
302.199
302.214
302.237
334.882
334.286
334.036
333.929
333.852
333.985
334.288
334.577
335.004
335.208
335.263
335.055
334.801
334.456
333.912
333.325
333.064
332.897
333.106
333.509
330.291
329.789
329.584
329.492
329.434
329.532
329.806
330.052
330.453
330.621
330.674
330.505
330.258
329.972
329.532
329.006
328.774
328.651
328.797
329.132
325.667
325.243
325.092
325.023
324.979
325.035
325.293
325.486
325.862
325.976
326.031
325.912
325.662
325.422
325.1
324.613
324.451
324.337
324.429
324.709
321.006
320.681
320.585
320.516
320.494
320.515
320.743
320.924
321.225
321.302
321.357
321.267
321.045
320.866
320.624
320.187
320.053
319.984
320.037
320.248
316.342
316.122
316.03
315.996
316
315.965
316.176
316.344
316.538
316.617
316.618
316.561
316.393
316.246
316.106
315.751
315.613
315.612
315.615
315.783
311.687
311.545
311.45
311.447
311.473
311.434
311.585
311.711
311.827
311.913
311.869
311.854
311.736
311.628
311.546
311.287
311.16
311.187
311.183
311.305
307.015
306.959
306.873
306.885
306.897
306.872
306.976
307.052
307.115
307.19
307.121
307.112
307.049
306.989
306.942
306.815
306.701
306.734
306.736
306.79
302.348
302.331
302.294
302.311
302.314
302.311
302.333
302.363
302.389
302.423
302.387
302.388
302.36
302.354
302.333
302.286
302.242
302.264
302.254
302.274
335.734
335.212
334.876
334.669
334.642
334.717
335.093
335.313
335.687
335.774
335.836
335.626
335.411
335.04
334.582
334.081
333.837
333.619
333.923
334.201
331.034
330.617
330.328
330.146
330.117
330.184
330.512
330.695
331.041
331.116
331.162
330.981
330.801
330.48
330.099
329.653
329.436
329.244
329.515
329.741
326.314
325.962
325.745
325.564
325.555
325.591
325.866
326.033
326.361
326.41
326.443
326.285
326.127
325.873
325.54
325.177
325
324.854
325.056
325.222
321.569
321.304
321.125
320.951
320.959
320.975
321.202
321.328
321.645
321.676
321.692
321.58
321.426
321.234
320.97
320.67
320.514
320.401
320.555
320.681
316.8
316.613
316.474
316.34
316.341
316.331
316.505
316.61
316.877
316.907
316.919
316.807
316.689
316.538
316.35
316.124
315.991
315.905
316.023
316.114
312.007
311.903
311.774
311.708
311.7
311.694
311.799
311.886
312.077
312.075
312.118
312.029
311.932
311.836
311.694
311.549
311.447
311.379
311.469
311.522
307.197
307.155
307.076
307.055
307.045
307.039
307.115
307.144
307.247
307.24
307.281
307.24
307.163
307.126
307.042
306.962
306.886
306.848
306.9
306.924
302.417
302.398
302.37
302.374
302.373
302.353
302.391
302.393
302.419
302.421
302.439
302.427
302.402
302.398
302.369
302.336
302.307
302.299
302.302
302.318
336.676
336.076
335.754
335.513
335.476
335.464
335.818
335.909
336.195
336.374
336.299
336.171
335.952
335.622
335.198
334.738
334.592
334.437
334.63
335.05
331.844
331.353
331.072
330.867
330.827
330.816
331.129
331.217
331.456
331.626
331.583
331.458
331.307
331
330.648
330.239
330.108
329.959
330.15
330.486
327
326.591
326.372
326.185
326.124
326.138
326.397
326.471
326.692
326.848
326.794
326.712
326.597
326.319
326.032
325.673
325.573
325.425
325.603
325.865
322.124
321.812
321.634
321.474
321.415
321.44
321.638
321.701
321.895
322.014
321.973
321.917
321.831
321.61
321.373
321.061
320.986
320.851
321.003
321.191
317.224
316.985
316.865
316.736
316.681
316.718
316.867
316.922
317.063
317.156
317.105
317.087
317.002
316.867
316.63
316.409
316.373
316.243
316.373
316.525
312.308
312.158
312.083
311.976
311.938
311.955
312.065
312.127
312.212
312.282
312.237
312.224
312.162
312.07
311.892
311.73
311.725
311.616
311.722
311.812
307.386
307.301
307.272
307.206
307.191
307.18
307.244
307.296
307.342
307.381
307.361
307.331
307.328
307.257
307.146
307.051
307.05
306.979
307.049
307.1
302.479
302.436
302.441
302.409
302.419
302.408
302.423
302.439
302.46
302.475
302.453
302.449
302.466
302.425
302.397
302.366
302.359
302.344
302.364
302.384
337.613
337.078
336.641
336.356
336.309
336.377
336.614
336.654
336.803
336.982
336.814
336.645
336.447
336.139
335.821
335.434
335.174
335.105
335.384
335.763
332.661
332.219
331.845
331.576
331.571
331.628
331.807
331.878
332.021
332.162
332.023
331.892
331.713
331.445
331.16
330.831
330.607
330.553
330.801
331.102
327.689
327.327
327.006
326.78
326.799
326.832
326.973
327.04
327.191
327.298
327.167
327.089
326.922
326.681
326.456
326.174
325.984
325.955
326.121
326.379
322.687
322.397
322.127
321.945
321.97
321.987
322.121
322.189
322.325
322.405
322.28
322.224
322.103
321.883
321.731
321.487
321.317
321.306
321.419
321.621
317.675
317.431
317.245
317.098
317.124
317.11
317.234
317.295
317.406
317.468
317.374
317.329
317.23
317.063
316.949
316.77
316.619
316.636
316.696
316.848
312.651
312.472
312.341
312.236
312.263
312.245
312.328
312.357
312.459
312.497
312.43
312.414
312.333
312.213
312.137
312.001
311.899
311.925
311.95
312.067
307.592
307.484
307.411
307.363
307.381
307.354
307.412
307.426
307.484
307.509
307.477
307.467
307.421
307.351
307.301
307.227
307.152
307.164
307.188
307.27
302.549
302.5
302.485
302.47
302.471
302.464
302.48
302.492
302.511
302.512
302.506
302.5
302.491
302.47
302.449
302.417
302.408
302.396
302.412
302.452
338.543
337.969
337.585
337.248
337.215
337.122
337.236
337.377
337.409
337.484
337.334
337.162
337.027
336.759
336.521
336.145
335.903
336
336.18
336.532
333.472
332.995
332.67
332.361
332.342
332.267
332.391
332.517
332.541
332.602
332.469
332.3
332.211
331.983
331.769
331.478
331.221
331.319
331.473
331.781
328.358
327.979
327.701
327.438
327.423
327.371
327.481
327.588
327.617
327.671
327.558
327.398
327.359
327.143
326.979
326.737
326.488
326.582
326.722
326.965
323.225
322.931
322.699
322.49
322.484
322.433
322.546
322.638
322.673
322.696
322.592
322.472
322.439
322.261
322.128
321.938
321.714
321.815
321.929
322.132
318.082
317.872
317.699
317.523
317.519
317.457
317.593
317.65
317.67
317.7
317.591
317.506
317.473
317.345
317.232
317.092
316.937
317.01
317.095
317.259
312.927
312.77
312.695
312.553
312.54
312.482
312.593
312.626
312.645
312.685
312.574
312.511
312.513
312.425
312.314
312.223
312.129
312.18
312.233
312.337
307.765
307.665
307.638
307.568
307.56
307.516
307.556
307.595
307.612
307.635
307.55
307.509
307.519
307.492
307.386
307.349
307.302
307.329
307.347
307.411
302.603
302.576
302.565
302.536
302.535
302.52
302.527
302.548
302.557
302.551
302.529
302.514
302.525
302.512
302.475
302.466
302.449
302.462
302.455
302.484
339.329
338.793
338.358
338.099
338.013
337.865
337.847
337.974
338.044
337.958
337.836
337.698
337.589
337.211
336.926
336.785
336.705
336.703
336.856
337.26
334.138
333.706
333.326
333.1
333.024
332.898
332.89
333.011
333.092
333.002
332.895
332.762
332.709
332.349
332.1
331.991
331.942
331.937
332.07
332.396
328.927
328.571
328.244
328.058
327.992
327.881
327.907
328.001
328.078
328.001
327.911
327.764
327.762
327.453
327.228
327.151
327.116
327.122
327.248
327.499
323.695
323.397
323.14
323.015
322.949
322.858
322.885
322.964
323.024
322.957
322.875
322.722
322.77
322.524
322.32
322.269
322.228
322.24
322.393
322.574
318.436
318.197
318.025
317.953
317.879
317.815
317.834
317.9
317.95
317.886
317.838
317.693
317.758
317.571
317.379
317.347
317.33
317.335
317.459
317.617
313.178
313.012
312.884
312.837
312.762
312.748
312.766
312.81
312.838
312.8
312.764
312.659
312.726
312.558
312.423
312.411
312.399
312.42
312.504
312.618
307.925
307.811
307.748
307.717
307.652
307.657
307.677
307.695
307.735
307.699
307.669
307.601
307.654
307.543
307.463
307.45
307.466
307.482
307.513
307.581
302.66
302.627
302.596
302.59
302.571
302.577
302.574
302.574
302.59
302.58
302.572
302.535
302.581
302.531
302.496
302.495
302.502
302.511
302.516
302.548
339.804
339.311
338.955
338.869
338.494
338.393
338.483
338.344
338.383
338.215
338.235
338.018
337.754
337.565
337.429
337.258
337.283
337.265
337.34
337.81
334.511
334.117
333.808
333.753
333.42
333.341
333.42
333.309
333.352
333.195
333.227
333.019
332.784
332.63
332.54
332.376
332.404
332.384
332.454
332.859
329.207
328.888
328.629
328.607
328.325
328.248
328.329
328.244
328.277
328.138
328.191
327.986
327.785
327.659
327.604
327.457
327.497
327.478
327.562
327.873
323.912
323.701
323.458
323.425
323.203
323.145
323.201
323.142
323.192
323.066
323.134
322.919
322.8
322.678
322.62
322.501
322.57
322.54
322.629
322.872
318.607
318.472
318.268
318.243
318.053
318.022
318.043
318.016
318.055
317.983
318.018
317.832
317.782
317.671
317.621
317.54
317.598
317.571
317.644
317.821
313.289
313.2
313.067
313.05
312.907
312.887
312.902
312.866
312.9
312.877
312.902
312.741
312.723
312.634
312.6
312.547
312.593
312.57
312.62
312.75
307.979
307.922
307.859
307.857
307.756
307.756
307.752
307.712
307.754
307.74
307.773
307.642
307.654
307.591
307.569
307.538
307.572
307.582
307.587
307.664
302.682
302.651
302.639
302.631
302.603
302.601
302.601
302.583
302.606
302.589
302.617
302.561
302.569
302.548
302.536
302.523
302.544
302.533
302.539
302.569
)
;

boundaryField
{
    hotSide
    {
        type            fixedGradient;
        gradient        nonuniform List<scalar> 
400
(
274.282
274.545
276.509
280.128
285.234
291.579
298.902
306.962
315.56
324.54
333.787
343.216
352.769
362.41
372.118
381.885
391.715
401.615
411.595
421.66
264.035
264.425
266.633
270.604
276.133
282.929
290.69
299.151
308.097
317.368
326.846
336.449
346.123
355.837
365.578
375.346
385.151
395.009
404.937
414.947
258.466
259.142
261.611
265.811
271.537
278.501
286.401
294.97
303.993
313.305
322.787
332.358
341.967
351.585
361.206
370.833
380.483
390.177
399.938
409.782
257.279
258.391
261.144
265.476
271.211
278.099
285.875
294.292
303.14
312.259
321.528
330.866
340.222
349.573
358.914
368.255
377.616
387.023
396.499
406.067
259.303
260.934
264.014
268.477
274.175
280.905
288.444
296.572
305.097
313.865
322.758
331.699
340.64
349.565
358.476
367.388
376.329
385.327
394.412
403.605
263.203
265.387
268.846
273.508
279.242
285.874
293.208
301.048
309.218
317.57
325.996
334.427
342.828
351.195
359.542
367.9
376.304
384.789
393.39
402.134
267.886
270.623
274.509
279.462
285.353
292.015
299.264
306.908
314.774
322.721
330.649
338.505
346.277
353.984
361.665
369.369
377.147
385.044
393.101
401.348
272.515
275.778
280.115
285.434
291.597
298.433
305.742
313.322
320.983
328.58
336.02
343.273
350.362
357.344
364.294
371.288
378.396
385.676
393.172
400.917
276.431
280.149
284.912
290.62
297.125
304.239
311.737
319.381
326.949
334.271
341.261
347.92
354.318
360.566
366.782
373.076
379.538
386.233
393.211
400.502
279.11
283.149
288.236
294.267
301.089
308.494
316.228
324.009
331.565
338.694
345.307
351.441
357.226
362.829
368.414
374.119
380.048
386.274
392.846
399.791
280.183
284.341
289.561
295.741
302.723
310.29
318.165
326.035
333.589
340.595
346.963
352.755
358.144
363.338
368.53
373.876
379.488
385.443
391.787
398.548
279.493
283.522
288.628
294.706
301.596
309.079
316.877
324.673
332.158
339.101
345.409
351.146
356.48
361.619
366.759
372.058
377.632
383.562
389.898
396.668
277.151
280.812
285.563
291.3
297.862
305.034
312.552
320.126
327.484
334.42
340.845
346.794
352.392
357.81
363.219
368.765
374.567
380.707
387.244
394.21
273.55
276.653
280.882
286.134
292.249
299.019
306.197
313.528
320.779
327.773
334.421
340.723
346.754
352.636
358.501
364.481
370.685
377.203
384.096
391.405
269.335
271.768
275.401
280.138
285.819
292.234
299.146
306.319
313.54
320.652
327.559
334.238
340.725
347.098
353.461
359.924
366.594
373.56
380.891
388.629
265.396
267.116
270.157
274.432
279.77
285.947
292.715
299.836
307.104
314.365
321.52
328.53
335.407
342.204
349.002
355.902
363.005
370.406
378.18
386.372
262.886
263.912
266.411
270.3
275.39
281.423
288.127
295.248
302.58
309.969
317.315
324.571
331.736
338.847
345.975
353.213
360.665
368.435
376.604
385.218
263.168
263.593
265.614
269.154
274.003
279.875
286.473
293.535
300.855
308.28
315.713
323.104
330.443
337.759
345.114
352.595
360.308
368.362
376.845
385.801
267.443
267.432
269.036
272.186
276.678
282.227
288.544
295.374
302.517
309.827
317.208
324.608
332.012
339.441
346.945
354.604
362.515
370.781
379.485
388.665
276.092
275.827
277.069
279.764
283.743
288.769
294.59
300.982
307.76
314.788
321.973
329.259
336.627
344.086
351.676
359.459
367.515
375.924
384.752
394.027
)
;
    }
    coldSide
    {
        type            mixed;
        refValue        uniform 300;
        refGradient     uniform 0;
        valueFraction   uniform 0.991591;
        source          uniform 0;
        value           nonuniform List<scalar> 
400
(
300.015
300.015
300.015
300.015
300.016
300.016
300.016
300.017
300.017
300.018
300.018
300.019
300.019
300.02
300.02
300.021
300.021
300.022
300.022
300.023
300.015
300.015
300.015
300.015
300.015
300.016
300.016
300.017
300.017
300.018
300.018
300.018
300.019
300.02
300.02
300.02
300.021
300.022
300.022
300.022