/*--------------------------------*- C++ -*----------------------------------*\
| =========                 |                                                 |
| \\      /  F ield         | OpenFOAM: The Open Source CFD Toolbox           |
|  \\    /   O peration     | Version:  2212                                  |
|   \\  /    A nd           | Website:  www.openfoam.com                      |
|    \\/     M anipulation  |                                                 |
\*---------------------------------------------------------------------------*/
FoamFile
{
    version     2.0;
    format      ascii;
    arch        "LSB;label=32;scalar=64";
    class       volScalarField;
    location    "./ITHACAoutput/true/6.6";
    object      error;
}
// * * * * * * * * * * * * * * * * * * * * * * * * * * * * * * * * * * * * * //

dimensions      [0 0 0 1 0 0 0];

internalField   nonuniform List<scalar> 
3200
(
-0.660545
1.23718
-1.11822
5.74841
3.32064
5.97539
4.68917
2.35798
3.38872
7.60367
3.16038
6.51551
4.55467
5.419
3.1459
2.70514
2.07099
2.65133
2.90923
-0.00773755
-1.61028
-0.618137
1.21695
1.00955
4.34693
3.24056
1.12157
5.65206
3.42762
2.61098
7.11389
4.20218
4.7233
3.0374
3.09419
1.44592
-0.33667
1.30909
1.98291
2.67717
-2.05589
-1.06169
1.75857
2.33902
2.1469
3.96452
5.27722
3.12193
1.08768
5.13376
4.14551
4.75426
3.29382
2.97051
3.3999
4.39125
3.2035
2.84185
1.69331
-0.541961
-2.4123
-1.45899
1.57427
0.597026
3.88313
2.60204
4.35285
4.50953
2.62621
0.781661
3.12321
0.46137
4.75254
4.89737
3.18728
3.95106
3.10437
2.11479
0.932007
-1.76974
-1.74717
-0.840837
-0.231928
1.41394
-0.722964
2.69507
0.705858
1.02356
-1.39468
1.52097
2.24137
3.00493
0.847847
1.53696
4.12644
-0.257986
1.82352
0.498369
-1.42109
1.77959
-1.62943
0.0115089
-0.0503774
1.15263
0.504526
1.92448
1.34134
0.447872
0.965195
3.57029
-1.19028
-1.48144
-0.764597
1.83419
0.868293
2.34562
2.26289
2.23443
1.97728
-0.180281
3.13908
-0.653048
-1.9791
0.669953
-0.699581
-0.0517758
1.29685
1.63814
0.968097
0.193297
-0.79888
0.460634
0.960388
2.18857
-1.39473
-0.708115
-0.0594713
-0.0925789
0.323836
2.33027
1.59292
2.1415
-0.514195
-0.813256
-2.26451
-0.403752
0.486074
-0.129354
0.44942
2.06888
1.4672
1.82677
3.19736
-1.82145
0.632033
0.458478
2.76999
1.46176
-0.208813
-1.63939
-2.4442
0.308917
1.60309
4.03591
4.99413
1.76949
1.3585
4.76016
5.67547
3.22915
4.08578
3.70689
5.24531
2.59327
4.46413
4.3879
1.94574
4.89756
1.38391
2.75772
-4.73971
0.72918
0.623555
-0.0562187
4.70967
-0.46133
4.56951
0.404628
3.21535
-0.271096
-0.612603
1.1746
-0.156081
3.50198
-0.44992
4.20179
0.434578
2.53045
-0.207528
-0.905881
-1.56415
2.31419
2.47953
5.11293
4.10224
1.59037
5.23408
5.26136
1.40163
4.16793
0.637325
1.73283
2.24899
2.42216
0.111366
1.50795
1.03926
3.77956
1.93024
-0.974088
-1.79114
-1.09016
1.43232
3.60171
0.520463
1.58415
0.650569
2.97383
1.87248
3.56018
2.38893
2.65327
1.20748
1.67146
1.09965
1.3452
2.95319
2.91322
2.36084
-2.89805
-1.29568
-1.85414
1.45213
3.58827
3.63914
3.06845
0.897397
1.79351
1.45784
0.898945
1.79637
0.999503
1.10304
2.12628
2.61306
0.626431
1.18014
1.53061
1.55835
-0.349002
2.17513
-0.565506
1.82206
-2.62245
0.851247
0.317287
1.94254
1.96566
-0.414623
0.0493175
2.00791
1.62865
4.32
0.503874
2.75515
0.720995
-1.95475
-0.381859
1.6129
-1.44386
-1.84066
2.20606
2.01247
2.56884
1.88317
-0.434645
3.21657
-0.737624
1.28293
1.64789
2.56217
1.95559
-0.10073
-3.3962
-1.00219
-1.72434
1.3709
-1.60252
1.68327
-1.10917
-1.14085
1.38135
-0.0323514
-0.948627
-0.472948
0.961126
2.96813
0.443277
-0.545561
3.03507
-0.58908
0.187364
-0.0538812
1.14926
2.14134
1.38551
1.79927
0.639873
-0.558784
-1.63057
-4.49872
-2.17445
0.523521
2.30062
2.66254
4.20865
3.82489
3.66341
-0.138993
5.26429
4.7324
2.82389
4.69197
2.5471
3.9418
3.78672
0.783359
2.71268
0.177766
-0.909965
-3.09113
-1.28071
-1.63445
3.8759
1.48355
2.48475
4.33603
2.05376
0.162858
3.87166
2.44211
1.10088
2.90989
4.6125
3.32974
5.22817
0.884727
5.50506
2.95371
0.655936
-0.411795
-1.36138
-2.56857
0.585262
1.15685
1.67102
0.393107
1.07577
3.24748
1.83669
1.50533
-1.25435
2.42227
2.14077
3.95287
3.26336
2.43808
3.22427
0.460673
-3.11555
0.825458
0.814819
1.91129
0.232906
2.06405
0.379036
3.08417
2.5009
0.668123
-0.652974
1.77824
1.60888
2.3177
1.52305
0.833079
0.631643
1.41523
-0.160984
-1.13375
-0.31913
-5.32623
-0.247693
2.45099
-0.762458
1.61646
-1.78121
0.594043
0.970411
-0.80158
0.378603
2.29202
1.45056
1.68469
1.17446
-0.607
2.13959
0.973448
0.325674
0.147518
-1.35774
-1.90914
1.07858
3.49058
1.60997
0.784065
-1.08767
0.631178
1.74799
0.66109
-0.295626
-0.00220243
1.25087
0.791916
0.507503
0.416911
-0.573078
0.115351
4.70318
-0.292742
-1.4204
-1.46924
0.931671
0.541238
0.907475
0.580827
-2.19792
1.35318
-0.25325
1.28873
1.28283
-2.7773
1.25516
0.917718
1.93951
1.10783
2.0379
-1.98394
0.698524
-0.916245
1.20718
-1.0836
1.67367
-1.01225
0.979066
-2.27238
-1.03106
1.07358
1.90938
1.10136
-0.715573
-0.480122
-1.14304
-0.827063
1.49239
1.02772
-1.10589
1.29393
-0.219554
-3.18074
-0.00471042
-2.92609
-0.789581
1.17803
-0.456608
0.839668
2.83317
1.24456
2.73774
3.4689
0.692955
1.05497
2.97661
1.7474
0.99774
2.07153
1.86916
5.36681
-0.17886
3.36786
-0.85064
-1.7186
-0.0574693
0.0929102
0.290159
0.251768
0.287374
3.96268
0.440176
4.52993
-0.231668
-0.0166144
-1.02704
0.157117
0.23804
0.175866
3.3458
-0.188868
2.34788
0.222058
-1.31262
-2.37734
2.47105
-0.184975
2.25227
1.80421
3.69601
1.4205
2.45898
0.70434
0.761689
1.59754
1.59601
3.40874
0.740527
2.49604
1.32851
4.53022
0.662476
-0.5131
-1.18977
-2.17627
-0.219136
3.28587
1.66714
2.04168
-1.12808
2.79199
0.770026
0.111524
-0.841251
1.30202
3.11106
1.92316
1.4803
1.8
1.33341
3.85354
1.20514
1.86859
-2.58454
-4.30256
0.199221
-1.60887
-0.385014
-1.85128
-1.46045
2.494
-0.999422
0.275976
-1.45635
0.630713
1.77825
2.05356
-0.110853
2.22343
2.5707
1.2906
1.61963
0.248921
0.585806
-0.534437
-2.14126
-1.58226
0.739042
1.49138
0.145576
2.61285
0.951627
0.687901
-0.444438
-1.42381
0.499073
-1.44991
2.385
1.24119
0.0807491
1.42592
0.843653
0.350492
1.07908
-1.22994
-0.529905
-1.80983
0.75659
-0.933579
-0.048368
0.0952339
2.04488
0.458508
1.43449
-0.603893
1.00446
0.76285
0.243579
-1.14172
2.57272
-1.93086
-0.19418
-0.59705
-1.61315
-2.16863
2.54719
-1.75453
0.465118
0.1213
0.283071
-2.22161
-2.39013
-0.132357
3.39854
0.773915
0.0792157
1.40508
1.70326
-1.71887
-1.15236
-2.71744
1.79925
-1.09123
3.28604
-2.79473
-0.759929
0.319614
2.32815
3.70971
-1.74779
0.519439
1.20591
0.324905
-0.649961
1.33925
2.22613
1.57767
-0.371986
1.88786
3.98743
4.01738
-1.15308
-1.60197
-1.11966
-3.3442
-1.12207
0.635314
-1.22865
1.22866
-0.248498
0.439392
3.69109
0.905543
1.19363
2.9344
0.99173
3.4369
1.64224
1.26934
1.39682
0.947491
3.57597
-0.190057
-2.85319
-3.18694
0.177575
0.957393
1.96606
3.82947
0.284125
0.900093
1.31713
-0.954078
1.55026
0.631602
-1.63016
2.55218
-1.84796
1.0498
0.971936
3.01397
0.451222
0.678332
-1.57739
-6.0907
-1.13826
1.81688
-0.509785
2.96811
1.12032
-0.276355
0.282865
0.494584
-1.61788
-1.19711
1.54905
-0.874066
-0.374437
0.0806821
0.777726
-0.246809
-1.75157
-2.92375
-4.57681
-1.92246
0.550183
2.44663
2.81685
1.88938
-0.793293
0.851054
1.80125
2.45059
0.985092
-0.390605
-2.48265
-0.13778
0.226191
0.598845
3.69411
2.2576
-1.6606
-2.59836
-0.283932
-1.59181
-1.12888
0.726516
0.186939
-1.29032
1.80002
1.35336
-0.943376
-0.0136833
-2.48465
3.32534
0.605494
-0.962884
2.00415
0.443399
2.4415
1.83166
0.985463
-1.23124
1.1665
-0.658681
0.741043
0.406033
2.07909
-0.690308
-1.04249
-1.63954
-0.543739
-0.41183
0.436512
-0.797171
-0.228751
-0.585057
1.58514
1.28548
-0.965831
1.50484
-0.403795
1.12268
0.792259
-3.77471
0.986118
3.71029
1.37909
-1.05112
0.29271
-1.24859
2.49736
1.7102
-0.830306
-2.86371
0.50027
-0.110533
1.27785
1.73066
-0.0965684
2.15236
0.0559452
1.20053
1.63621
-1.02539
-0.699572
-2.3948
2.94893
4.32601
1.94802
0.99187
-0.195596
-0.443271
-0.185999
-0.746447
-2.47931
1.11934
2.13333
1.91111
2.8626
1.43646
2.99443
-0.400969
-3.291
-4.1188
-0.174863
-0.476585
-0.182531
1.34115
-0.270742
3.15642
0.29682
0.566272
0.2744
0.265172
-0.584121
-0.280488
2.30126
-0.40222
-1.27444
0.168925
-0.950484
-0.0633553
-0.858447
-4.48603
-1.70625
1.76927
-0.0612048
1.45224
-0.586831
-0.547613
-0.0446389
0.321498
-1.41647
-2.33366
0.856624
1.81972
-0.0185227
-0.526409
0.334579
-1.502
2.59601
0.0244964
-2.17013
-2.7364
-0.260559
-0.386925
-1.22499
1.32938
1.94553
-0.905799
1.18079
2.50954
0.0788559
2.58172
-1.09273
0.43243
-0.7381
1.00147
-1.87369
-1.52491
0.796247
-1.57412
-0.215735
-2.32459
1.77966
1.29224
2.73549
0.961019
1.24903
2.75243
-0.693965
-1.19245
-0.931149
0.959199
4.04959
-0.304526
0.883507
-1.26205
3.3142
-0.519492
-0.627816
-4.62162
-2.7793
1.50757
1.73176
-1.40076
0.971583
0.267983
1.27603
0.749398
2.8494
0.601637
1.92561
-2.29749
-2.11495
0.168686
1.54387
0.428499
-0.389193
-1.75731
-1.21121
-1.42046
-0.00123938
-1.04183
-0.685474
0.0569272
-3.27748
-1.07565
-0.627798
-0.679573
1.02331
0.71429
1.30665
0.142536
-0.213732
-0.165316
-0.382494
-0.565741
-0.48687
1.82094
1.07016
2.26049
-0.384447
1.01944
-0.689795
-1.65494
0.0433759
0.324627
0.288624
-1.47591
1.91932
-0.60698
-0.160946
1.28147
-0.231001
0.786168
0.556756
-3.79244
-0.68812
1.95105
1.89706
-0.610056
-0.368128
-6.13933
-0.961511
0.569784
1.81058
-1.72622
-0.471527
0.954181
-0.237458
0.775552
-1.5768
-0.53675
-1.32855
1.33844
-3.28266
1.817
0.071691
-0.267465
0.691842
0.605657
-0.996633
-2.92053
-3.24647
-1.16845
2.43009
0.980238
0.439698
1.92705
-0.196252
-2.65462
0.912512
0.944411
-2.27135
-1.35236
-2.29026
0.194546
-0.355986
0.945497
0.912803
-1.44123
-1.16898
-0.544673
-3.60745
-0.228715
1.62686
-0.00238814
-0.854935
0.510449
-3.42762
-0.094795
-0.61619
-0.890225
-0.482168
-2.86329
-0.141235
0.218361
-1.17845
-1.36885
2.03692
-0.524396
-2.05858
-2.41083
-2.37233
-1.91885
-0.115809
-0.468046
-0.793689
0.374099
2.14456
-0.732146
-1.76883
-2.40132
-2.63867
0.268897
-0.491657
0.926978
-0.0807678
-0.141556
0.908378
-1.57786
-0.225822
-3.98478
0.717779
-1.71215
-1.397
-0.672238
2.27997
0.679316
-1.39171
2.10662
-1.82864
-1.42626
-1.43997
-0.129245
1.48341
-3.41985
0.164573
-2.53119
-1.29375
1.43375
-0.737337
-1.05896
-0.366228
-0.996982
-1.99174
-3.00722
1.49709
-0.0815848
-1.30607
1.96506
-0.742708
-0.0784881
-2.13558
0.52397
-1.06977
0.15909
-0.0334829
1.77591
1.53963
0.0810233
-0.366922
-0.549963
-2.08793
1.51362
0.00726605
0.534921
-1.31967
2.99736
1.2024
0.391247
-1.22976
0.865821
-0.205371
-2.45328
-0.645989
-0.667388
1.92413
-2.10934
-1.79442
0.961188
-1.37029
-2.55646
0.93601
-1.62424
-1.46226
1.4621
0.228773
-1.75694
-0.656098
-0.986049
-0.193124
1.21958
-0.406344
-2.4921
-0.281295
1.36521
0.258904
-0.0169186
-0.848894
-3.06751
0.291812
-3.98259
-2.29835
-1.95934
-1.48069
-2.30251
-0.234848
-1.60127
-0.808336
-1.78304
0.138731
-1.13
-2.3973
-1.01882
0.620969
-1.71959
0.746511
1.7183
-0.241026
-2.24756
-3.3357
-2.62776
-0.225957
1.1189
-0.0450877
1.51958
-0.278413
-1.25764
-0.717354
-2.29456
0.062366
0.108323
-3.38292
-0.0106736
-2.32961
0.17821
-2.76965
0.237794
-1.95753
-0.0317848
-3.02741
-4.99191
-3.84525
-1.58074
1.45022
0.088583
-1.69697
-1.2743
0.26228
-0.0245027
-1.00909
-2.32664
-0.979291
-2.06824
1.39928
-1.50228
0.847222
-1.16618
-0.971868
0.401255
-2.81165
-2.00968
-4.11677
-1.83731
-1.79401
-0.498452
1.19551
-1.41154
-3.27411
0.911137
-2.57623
-0.758519
1.01161
-0.752348
-0.927888
0.369644
2.80432
0.639939
-0.0637304
1.12836
-1.52728
3.15909
-1.94457
-0.502446
-0.941728
-2.12121
-1.58171
-0.330718
-0.231462
-3.78407
-2.01051
0.111682
-0.923949
-0.366884
-2.95981
1.71159
-2.87936
1.15547
0.458507
-2.19149
-2.22721
-0.710805
-1.50375
-1.5402
2.11593
-1.04618
0.302456
1.38949
0.264081
-0.637742
1.00268
-1.92584
-1.08266
-0.837301
0.287794
-1.54932
-1.91223
2.35612
-0.861599
-1.09326
-0.520223
-1.02697
1.05815
-0.718236
-0.940528
2.98274
1.71681
-0.565475
2.53086
-1.09452
1.06755
0.505124
-2.45621
0.333103
0.01725
-1.60209
0.876905
0.0575416
-0.714583
-0.692395
-1.90367
-1.44935
0.193541
0.387825
1.91723
3.72196
0.474187
-0.69976
0.970312
0.273404
1.0877
0.00152962
1.19361
-0.278229
1.07252
-2.40944
0.580883
-1.06259
-1.52972
1.77078
0.263682
-4.09476
-2.31028
-1.3481
-0.21422
-0.307354
0.565707
0.140162
-2.30487
0.30557
-0.297866
-3.07433
-2.6181
-4.44963
-0.779896
-1.8121
0.227964
-0.97527
-0.116594
-2.3846
-1.81953
-5.76632
-4.26576
-2.90724
0.061382
-1.28955
0.678779
-0.244085
-1.14577
-2.88392
-5.6099
-1.61361
-3.96608
-1.57773
-0.458228
-3.96841
-1.45575
-1.36054
-2.06322
-3.54713
-4.98462
-1.7694
-4.50583
-4.63287
-1.83405
2.3336
0.493708
-0.970793
-2.84484
-1.03639
-2.87808
-1.39783
-1.93969
-3.09975
-2.43177
-2.20142
0.788741
-0.521765
-1.34613
-2.75211
-0.968683
-2.67725
-2.81867
1.12014
2.5144
-1.69346
-1.63064
0.465991
0.214642
-0.756788
-4.65097
-1.89391
-3.2535
-1.85443
-3.39521
0.216279
-2.54034
-3.17593
-1.53501
-3.31642
-3.20001
-1.16024
-2.10807
-1.16533
0.636425
-2.23422
1.19521
-0.370995
1.45679
-0.829931
-2.96809
-1.19804
-2.50111
-2.192
-1.68459
-0.838185
-0.887357
0.0750374
-0.275478
-2.52246
-1.89025
-1.08364
-3.7013
-1.25462
0.361693
-2.08604
0.220837
-1.31515
0.100801
-1.85918
0.42788
-1.2233
-1.72885
-1.07292
-1.86765
0.647791
-1.47682
1.39646
-0.564318
-1.3002
-1.90739
0.160066
-2.8635
0.942364
-1.62338
0.0687219
0.928511
-1.30666
2.89928
1.89624
-0.985774
-0.172058
-0.261031
-0.617959
-1.29019
-0.154536
-0.847887
2.08469
-1.25376
-0.663462
-1.20022
-3.47467
-0.402884
-0.821054
-0.408175
1.04315
1.36197
0.707892
-2.1373
0.586194
2.54368
-0.329672
-1.85453
-3.18819
1.34846
2.196
-0.729959
-2.65782
3.59925
-0.676882
0.736357
-6.89205
-2.41133
-2.55698
-2.06108
-0.7517
-0.016653
-1.72975
-1.00573
-1.28137
-1.25163
-3.92539
-3.75141
-0.507642
0.402305
-1.34011
-0.774736
-1.36039
-1.8497
-5.66888
-2.67618
-5.48772
0.700585
-1.11818
0.121581
-1.8372
-0.235046
0.831806
-0.228508
-2.75158
-0.00171069
-0.598081
-1.71408
0.34658
-1.47767
-0.154046
1.35761
-0.622526
-0.653335
-0.503077
-2.49359
-4.5608
-0.225953
0.00452538
-0.0019632
1.59809
-0.833511
-1.72084
1.32298
-3.13459
-4.80428
-2.81426
-2.2515
-2.64877
-1.41193
-1.44361
-0.459653
-1.77242
-0.356586
-4.61062
-4.89293
-3.94286
-0.524444
1.7483
-1.44029
-0.530296
-0.684519
-2.12282
0.976993
-0.426574
-0.726933
-4.58534
-2.5962
-0.339366
0.349989
-0.814552
-0.824578
-0.963908
-3.97891
-2.7944
-1.26395
0.322058
-3.17809
-0.678184
-0.469256
1.17975
0.537858
-0.871073
-1.52706
0.0452108
-1.82814
2.58565
-3.60825
-1.31067
0.588145
-0.244676
0.851254
0.0108562
1.17479
-2.78873
-2.89824
-1.90429
-0.62742
-2.63183
-0.0551782
-1.52329
-1.26387
-2.75221
-0.416176
-2.12144
-1.57512
-1.76625
-0.920384
-2.73652
-0.685013
0.668726
1.33891
-2.74283
-2.09565
-1.36783
-0.91405
-2.61277
-2.69314
-1.55153
0.349843
0.528018
-0.65061
-0.841145
2.24976
-1.6259
-0.205362
-1.19571
0.16152
-1.09609
2.88856
0.714412
-1.47311
-1.34596
-0.126886
-1.70585
-0.559996
2.45359
-1.42457
3.46315
-1.06447
1.74163
-1.29338
0.513297
0.581758
0.313105
0.538826
0.563835
0.618703
0.895408
-0.620655
0.43059
-0.630251
2.07311
-2.51181
-1.77269
0.772406
-4.92706
-3.19771
-3.64465
0.358161
-0.0474859
0.799055
-4.00879
-1.74753
-1.91519
-3.26556
-4.06859
-3.68655
-3.29503
-1.97455
-0.570717
-1.48008
-2.74716
-3.1636
-0.228928
-7.20154
-5.43711
-0.23772
-0.227637
-0.758592
-3.5119
-0.090486
-1.32427
-0.0610229
-0.416905
0.349555
-0.239171
-3.33595
-0.873375
-1.92969
-0.347013
-1.86984
-0.155176
-2.00026
0.428594
-1.53624
-1.9641
-2.22702
-2.73331
-0.700509
-1.59849
-1.46951
-1.69762
-1.47745
-1.03796
-1.35574
-2.29958
-3.97575
-3.56498
-2.34342
1.02781
-0.47619
-2.49776
2.14979
-2.46246
-2.83537
-3.92154
-1.8169
0.715378
1.1303
-3.05737
0.42214
1.18379
-1.03635
-2.15788
-1.5741
-2.46357
-1.91288
-3.43479
-0.267345
-2.36945
-0.687532
0.545991
-1.62808
-2.14397
-6.43801
-2.55827
0.147432
-2.83726
0.647889
-2.09401
-2.92101
-0.894169
0.649639
-1.19529
-1.23895
1.13653
-2.42984
-3.75456
0.798671
0.350061
0.743298
-1.23512
0.36984
-2.77146
-0.431673
-2.08763
-1.83676
-1.76542
-1.06168
-3.61317
-0.0697231
0.250026
1.8718
-1.60441
-0.719055
-1.71314
0.290158
1.55681
-2.66789
0.204576
-0.85578
-0.739743
3.5041
-0.482273
-3.19596
-0.140502
0.389977
-1.72857
2.12701
3.19998
-0.0288306
1.55881
-1.8047
-0.97598
-2.31692
-1.1243
-0.944418
-2.12628
-0.769688
-2.19699
-1.85974
-0.910958
-1.62234
0.637337
-0.927857
-0.383625
1.93355
1.52485
-2.73887
0.86328
-1.78906
1.11218
-1.66022
-0.690677
-1.23633
-4.16257
0.880945
0.446585
-1.30302
0.0556422
-1.41791
-0.634107
0.447881
0.123992
-2.68361
-3.9119
-4.27426
-0.229439
-2.06831
-0.162755
-1.89204
-0.609962
1.09099
-0.645983
-4.05686
-1.27482
-3.31435
-2.79965
-1.03426
-0.938908
-2.14434
1.05234
-2.46376
-1.78852
-5.3852
-1.94476
-4.01834
-2.92617
0.254765
1.28258
-1.16117
-1.54598
-1.25679
-1.42106
-0.482199
-2.97849
-3.36785
-0.336121
-2.72371
-0.310953
-1.08198
-1.94701
-3.226
-0.750185
-2.08324
-6.11574
-6.02575
-0.273925
1.95201
-0.934552
-0.822753
-0.113739
-1.36638
-2.15735
-3.67151
-3.34367
-2.15713
-0.639257
-2.30564
1.05001
-0.937381
-2.2594
-0.835389
0.836796
-3.79045
-0.746335
1.89538
-3.40014
1.10106
-0.461812
-0.854569
1.40477
-0.094565
-1.27677
0.000522241
-0.240876
-2.05036
-1.18176
-2.14178
-0.622664
0.258729
-2.16772
-2.16151
-0.928449
-5.13612
-5.12395
0.686286
-0.509447
-0.599567
-0.630062
-0.369544
0.219285
0.683499
-0.0169886
-0.179909
-1.13736
-2.87593
-2.10117
-0.720201
-0.446651
-0.27479
-2.11314
-0.361658
-1.42881
0.0946221
-0.94808
-2.48476
-0.107617
-2.17605
-1.65088
-0.00259755
-1.81769
-1.08985
1.6709
-2.55988
-2.25186
0.58308
0.39643
1.68004
1.53435
-0.68904
1.87005
1.34606
-3.00272
-1.45627
0.0770415
0.437344
-1.94811
-2.33593
-2.08884
-2.34219
-0.389814
-0.0602246
0.892667
-2.08497
0.0652489
-0.734584
-1.80036
-0.989234
-1.11832
-1.3966
-0.922413
-0.0284431
0.86826
0.351497
-1.03084
0.0945562
0.2576
1.60991
-2.00141
-0.308198
-1.76648
-0.275447
-2.86518
1.56316
-4.02835
-0.286319
1.05461
1.79217
-0.803434
-1.09776
-2.70443
0.719174
-1.03086
0.279774
-5.22486
-0.964013
-1.40906
-1.4735
-1.60855
0.594391
0.356534
-0.941356
-4.30353
-2.05909
-4.61432
-3.57027
-2.87062
-1.6561
-1.24116
-1.86229
-0.203726
-3.07173
-2.79351
-4.88215
-4.24304
-0.45718
-1.63675
-0.172182
1.72884
-0.153428
-0.479373
-0.0344078
-1.47572
0.0263904
-0.226871
-4.69649
-0.33043
-3.97186
-0.452601
-1.60049
-0.0577294
-1.88986
0.892379
-1.68082
-4.98525
0.719512
-1.57164
0.734877
-0.929213
0.0528323
-1.53509
1.06287
0.791784
-0.378149
-2.02905
-3.03124
-2.59424
-1.76621
-0.979537
-2.09574
0.410014
-3.53161
-2.01836
-3.6005
-1.5068
-2.65191
1.1138
-2.33192
-0.665175
-2.28749
-1.4696
-2.05623
-0.439008
-1.76746
-2.83653
0.352716
-0.554889
-1.45396
-4.06035
-0.436623
-0.960956
-1.10879
-0.833289
-0.698299
-0.235114
-3.42954
-3.6556
-0.967192
-3.11311
0.486718
-2.14103
-1.87654
-3.03932
0.197305
-3.69503
-1.01695
0.811498
-0.329644
-1.06829
-0.130382
-1.75865
-1.49544
-2.29755
-2.97269
-2.44734
-1.45969
0.286862
0.0255602
-1.03598
-1.17407
-2.02405
1.2367
0.528136
-0.76692
-0.799088
-2.04653
0.653996
-0.73441
-1.17625
-0.219299
-0.250918
-2.78572
0.347605
-3.6191
0.602921
-1.58848
-2.16652
0.903189
0.291559
1.62965
0.0126629
-2.465
0.384748
-1.25075
-2.09003
1.0961
-2.38637
-2.16592
-1.0497
2.7703
-0.967506
-1.04791
0.0954166
0.660472
-0.911409
0.607506
0.524749
-0.132268
0.0273734
-2.15873
4.47445
0.149596
-2.21498
-2.19616
0.773347
-0.435187
0.322157
-1.62721
-1.27959
-3.35926
-0.879094
1.10201
-1.57567
-0.447935
-3.23088
-3.63261
-3.58236
-1.58041
0.514089
1.74954
1.91763
-0.327397
0.546893
-2.73055
-2.05178
-0.122937
-2.85188
-1.53675
-2.12971
-2.0105
0.595239
-2.39715
-2.56543
-1.70559
-3.55724
-1.17642
-3.21438
1.9876
1.54805
0.203008
1.23435
1.2342
1.697
-0.677658
-2.97533
-2.65978
-3.57309
-3.13969
-0.431834
-3.59044
0.316322
-4.62174
-4.1052
-3.78382
-3.09106
-2.74083
-2.47475
-1.60397
-0.274008
1.35416
0.235204
1.05883
1.55628
-1.23939
-2.62521
-0.147002
-1.20717
-0.40792
1.39438
-0.443188
-0.922855
-1.38514
-1.39533
-2.67584
-2.77103
-1.69571
-1.61494
-1.11386
-0.842124
1.00526
-1.40418
-0.405153
0.522344
0.245608
-1.57558
-3.00373
-2.90351
1.36156
-0.748061
-2.18026
-1.18011
0.259493
-0.955843
-2.27673
-2.96062
-2.45211
-1.94209
-0.53984
2.83803
1.6119
-1.9331
0.0292732
-0.659276
-2.45444
-2.62239
-2.59903
-0.454858
-1.02297
1.01701
0.306859
0.0933221
1.09566
-3.27567
-2.77053
0.358287
-3.01548
-0.181223
0.125783
-0.335832
0.555359
-0.276046
0.228734
-2.7902
-0.242749
-0.442389
-0.34969
0.329002
-1.83245
0.308242
0.712947
-1.69678
-0.301023
0.93063
-1.00602
-0.988051
-3.01449
0.578483
-0.509182
-0.229152
-0.313531
-0.592978
-0.373379
-1.84021
0.989045
-1.2976
-0.225565
-3.19047
-0.822265
1.18981
1.97467
-0.379338
0.980442
1.1049
0.308208
1.52799
0.444507
0.194092
1.16659
-0.130124
1.76934
-0.685898
-2.01565
-2.2547
-2.02444
-2.32266
1.30117
0.950803
0.546151
-2.75567
0.743506
1.44427
-1.19209
-2.25894
-2.57695
-6.62695
-0.78998
-2.52492
2.26375
-0.12784
-0.469406
1.33916
0.419915
-1.48
-0.991078
-2.81828
-0.563109
-2.03315
-1.56757
-3.13457
-1.38775
0.191031
-1.20951
-2.56057
-1.97108
-2.13878
0.640677
-1.35781
-0.153066
0.982553
0.661713
0.00518147
0.105888
-1.94819
0.67772
-0.16025
-0.0087128
-0.159633
-1.86323
-0.124745
-0.302244
0.340028
-0.746717
-0.105531
-1.66278
-0.237358
-2.69814
-2.9456
1.03075
-2.12088
0.206102
-0.574543
0.699785
-0.0738762
-0.923654
-1.74358
-4.05985
-0.164521
-0.825972
-0.77049
-1.52142
0.790361
-0.481685
-1.84694
-4.16479
-4.31994
-3.03212
-0.783056
-4.08684
-0.953765
0.594121
1.11415
-1.25547
-0.821915
0.391822
-0.544848
-1.82187
-0.151151
1.68847
-0.520521
-0.150018
-1.90552
-0.764422
-0.859877
-2.53586
-2.53059
-1.17458
-0.533084
-1.74225
-0.171708
-2.14418
-2.22591
-0.785632
-1.4679
0.93961
-0.0682739
-0.588595
1.0013
1.55484
-2.76036
2.051
1.0272
1.02835
0.336758
-0.830797
-1.49997
-1.36525
-0.982494
2.56571
-0.822329
1.16348
0.705662
0.546911
0.820529
2.0892
-4.08763
-1.0424
0.583962
-0.6577
-1.74229
-0.604552
1.66381
-0.510285
-2.68284
-0.669671
-2.08616
-0.293265
-0.583482
-0.408512
0.774248
-2.0256
-0.404047
0.595406
-1.32921
0.455523
-0.419592
0.976212
-2.0865
0.762349
-1.19461
-1.54821
-0.999362
-1.17857
0.0213921
-0.979671
-0.0940594
1.80912
-1.59085
-2.21906
0.427793
0.329643
-1.55994
-1.75642
0.962844
-0.238745
-3.85559
1.3726
-1.15176
0.575214
0.94332
-0.341557
1.0756
-0.810268
1.63284
0.279551
-2.85169
-1.58192
1.20511
-0.817845
2.1746
0.925878
3.1368
3.71543
-0.170085
-0.975288
0.793137
-1.4917
0.0957212
1.08726
1.07825
1.4281
1.61343
-0.568246
0.267361
0.0862334
-4.08932
-1.1241
-0.44089
1.82637
-0.720944
1.70398
-0.121965
0.677448
0.547059
2.66845
1.46371
-0.669815
-0.501041
-0.223205
1.50964
-0.897618
-0.681734
-0.0678267
-1.00789
-3.90781
-3.15736
-3.83615
0.503942
0.40274
-0.433755
1.64172
1.26229
1.05251
-0.39884
1.43084
2.08737
0.417394
-0.39743
1.08105
1.01756
-1.7904
-1.54149
2.50808
-1.76449
-2.53812
-0.592381
-1.17271
-0.208293
-1.88479
1.87547
1.32555
0.52683
-0.66796
1.58878
1.08236
-0.305076
-0.492671
-1.28835
1.1742
0.482927
-1.02692
0.370638
0.489677
0.603606
-2.08524
-1.13957
-2.2799
-0.592322
-3.60126
0.680129
-1.28296
0.987537
-0.614389
0.152644
1.74847
-1.03625
-2.99646
1.25045
1.69334
-1.3085
0.671554
0.632914
-1.87516
-2.93536
-0.998891
-1.71337
-2.38419
1.09938
1.49257
1.14221
2.54003
-0.173888
-1.95317
0.874163
0.0426165
0.0626397
0.999438
-0.2337
0.747437
1.09112
-0.506821
-0.709213
-1.69471
0.754296
-0.89972
-0.0607473
-1.25582
-0.510504
-0.538015
0.03282
-2.51396
-0.419669
0.166375
0.208595
2.64463
0.621958
-0.762671
-3.50134
0.465272
0.58303
-0.626021
2.185
0.973487
0.00721861
-0.216534
1.31813
0.446765
0.102132
0.271058
0.936008
0.837034
0.0760489
-3.60396
0.336239
1.03652
-1.39704
0.30912
-2.64061
0.55639
1.04647
0.21537
-0.127744
0.679599
1.62718
-1.93389
-1.84677
1.38666
0.202758
3.31875
2.54503
2.44889
3.5048
1.04547
2.62077
-0.582907
-1.00227
3.32476
2.88769
2.94922
1.05371
2.80702
0.267222
0.709978
1.18875
-2.91033
-1.64185
0.311969
-3.80519
0.551144
2.42759
0.236164
4.819
-0.174432
2.66632
-0.0209864
0.030939
-0.366341
-0.655492
1.22877
0.429005
3.24705
-0.0958264
-0.51424
-0.166377
1.15008
-3.58309
-0.742601
1.68618
-0.113879
2.3259
1.45385
1.76859
2.16202
3.26415
0.827672
4.10748
2.24944
2.58794
1.79748
-1.03919
3.13415
1.96904
-2.28178
0.195557
-4.52093
-2.2721
3.45582
1.42747
0.343608
-0.349682
1.29956
1.4693
2.35898
1.08476
-0.563839
-0.346789
-0.351825
3.13864
1.4423
0.579922
1.45912
-1.01172
-0.645429
-0.276818
-2.05909
0.564713
-2.43404
-0.212237
0.465619
0.483157
3.15485
-1.40006
3.04592
0.0194954
-0.156097
-1.2043
-0.837649
-3.26899
0.491602
-0.895923
-1.06373
-0.96343
-2.16166
1.25643
-0.543037
-3.51831
-0.954197
1.24505
2.75303
1.66073
3.60944
-0.339171
-0.855187
1.874
0.155213
1.00707
-2.10636
-0.105573
2.28629
1.53779
0.78726
-1.04411
-3.20556
-1.42085
-0.0552508
-1.41311
-1.21509
-1.38769
-0.34516
-0.201606
-1.16791
1.31826
1.96007
-0.844015
2.17273
-0.0745465
-1.39196
2.86068
-3.3192
1.07699
-0.34631
0.627225
0.0389582
0.539721
-0.785884
1.48193
-0.289359
-0.84385
0.176971
-0.590524
-0.0700249
-0.632849
2.20974
-0.956379
-1.01291
4.11744
1.25227
-1.31778
2.87373
1.05162
-1.15227
-2.15788
-0.156309
1.28099
0.709865
0.826922
-1.91674
1.98471
4.34005
2.74519
5.12838
2.80369
5.41662
3.58559
1.88361
2.05367
2.74832
2.65115
1.72481
6.08003
1.77451
1.27528
2.35099
-0.299971
1.6701
-0.766446
0.290129
0.188048
1.74793
0.790457
4.5419
1.1555
1.43074
2.67898
5.22215
2.51932
3.12141
3.62713
1.35794
4.98989
2.55364
1.08153
4.45412
0.587305
-1.98193
0.186747
0.150271
0.0413593
-0.610053
2.95683
1.71597
4.2818
5.03708
3.56663
2.56765
1.7206
0.934877
2.04327
2.54073
0.719029
3.27973
-0.839995
0.859378
1.0265
-2.10975
-1.47956
-1.3121
1.97529
-0.322596
2.28942
4.15333
1.47864
2.85076
-0.765456
2.72651
-0.16619
2.41273
1.84098
2.40648
1.15649
1.44775
-0.304615
4.19514
0.834763
1.26139
-1.6014
-0.883419
0.240601
0.637367
-2.06088
0.334414
2.33576
1.22933
1.67287
2.29386
-0.83975
2.63836
0.996194
1.72953
-0.41349
1.01795
-0.867567
0.325522
-0.503618
-1.88206
-2.16713
2.49863
2.37888
0.238759
2.71131
0.282401
2.44266
1.56268
-1.40503
0.174013
-0.105695
2.4617
-0.0370507
1.08223
-0.189066
2.21485
-0.532753
-0.919246
-1.12008
0.78196
-2.01642
-0.173512
2.33305
-0.970844
0.0282288
-1.79546
2.59061
0.587317
1.19772
-0.0709809
0.886131
0.412392
-1.41907
-0.904759
1.79653
0.890049
-0.385697
-1.49197
0.88952
-0.575563
-0.298369
0.152986
0.707073
2.2112
0.0931135
0.808893
0.0523144
0.0200748
-0.598599
-0.746797
2.38901
0.81267
1.93301
-0.370278
-0.489548
1.96725
-1.06715
-3.29087
-0.301123
1.33784
-0.0248368
1.54639
3.27293
5.08598
3.67272
5.20274
5.6483
4.92498
6.26417
5.24352
5.35021
4.47458
4.78094
2.19252
3.37259
5.22757
3.2509
1.19719
2.34248
4.09387
2.69833
0.726591
1.93112
0.0392417
3.67109
0.344867
2.2849
0.619319
2.34112
0.137306
0.751042
4.42315
0.688514
4.03049
0.270249
3.03244
0.113138
2.64756
0.103657
1.2714
-0.700935
3.05505
2.44418
1.69179
1.0518
3.48629
2.6367
2.80827
3.29796
-0.0927144
5.57598
3.19108
4.08284
5.41678
2.31027
3.45741
2.88828
2.33737
1.74121
-0.0730732
-0.329083
2.02845
2.12911
3.66956
2.26547
6.45081
1.81178
0.556461
2.41118
3.37623
2.86511
2.80178
1.04966
1.70213
2.12675
2.17054
4.98931
1.15056
-0.030739
0.613356
0.352929
1.99455
4.85471
0.423616
2.8008
3.63698
3.19261
-0.130063
3.15744
2.99023
0.348052
1.27969
3.45103
2.18284
1.36968
1.5653
1.65937
2.1107
-0.572156
2.76774
1.82073
-0.601329
-0.400842
2.74897
1.80192
2.51912
0.326613
0.246201
2.98352
-0.434423
0.425497
1.32898
0.488264
2.99989
4.5191
-0.043027
1.80678
1.45957
-1.86074
-0.118954
0.557994
0.0839544
0.0553107
0.158213
2.27515
-0.473567
0.505865
-1.47131
-2.86952
1.39239
-1.32002
1.07266
1.75213
0.592398
0.358384
2.33169
-1.89616
0.156294
-2.53147
0.844842
0.034865
0.110136
-0.764541
-0.146008
-3.67484
-1.01653
-0.953749
-1.25114
-1.7416
-0.631759
0.767874
-1.07874
-1.1784
2.81241
1.41302
0.493334
2.86986
-2.397
-0.421109
-1.87737
3.93047
1.62877
3.43165
4.95496
5.87898
3.66962
6.96553
3.84027
6.80336
3.45156
4.17942
8.49414
6.22957
5.30715
4.51016
7.13248
4.63231
3.1605
4.60028
3.48103
0.0306704
1.29823
1.35699
4.94434
2.89448
4.48894
5.70539
4.13652
8.29522
3.62845
3.2648
3.07037
3.22702
5.48304
3.16653
6.59242
3.83954
1.87661
2.1013
0.424019
1.13324
2.17124
1.82322
2.8438
2.12318
4.80556
4.51037
3.64108
4.8075
4.94901
4.00128
6.16467
2.20873
4.43112
1.5854
1.32665
4.50698
1.91513
1.61827
1.03981
3.22404
1.54243
1.43777
2.75075
0.609989
5.48353
3.80628
3.31477
0.209445
4.76688
3.80513
5.13902
1.65933
4.93629
2.75376
3.70248
3.46006
0.286147
0.767804
3.09857
-0.88568
0.525633
2.84873
4.3117
-0.207922
0.821336
0.415174
2.44748
2.61577
2.6668
1.55411
1.86227
1.97452
2.01815
3.04952
1.88667
2.88865
3.24157
1.55258
2.05468
-0.480433
-0.14659
-0.297619
1.53126
1.87079
-0.332291
0.379456
2.79876
2.26745
-0.240733
1.89606
2.31206
4.7335
2.18762
-0.105092
1.13495
1.31213
1.6563
2.72893
2.17242
3.53227
0.00550837
-1.83305
0.198077
3.56873
-0.0435805
2.08174
-0.279588
0.58223
2.21056
2.21923
4.20312
-1.29951
0.5985
-1.3921
2.17099
-0.0842215
1.04556
1.11996
0.828605
0.455452
0.680447
0.311282
2.33662
0.788116
-0.913874
1.27769
-1.50079
-0.0966159
-1.30376
-0.0298174
-0.534304
0.691752
1.92309
2.75623
2.01041
-1.13996
-0.431513
-0.412791
-0.0752618
)
;

boundaryField
{
    hotSide
    {
        type            calculated;
        value           nonuniform List<scalar> 
400
(
0.634207
-1.14646
-3.19496
-1.61322
-1.46959
0.315313
-4.77966
-2.6004
-2.68635
-5.4536
-3.45458
-2.40129
-3.67189
-1.63122
-4.97617
-1.14528
-0.0801581
2.65836
1.8761
5.90563
2.57118
1.6456
-0.83236
0.560723
0.601511
0.676077
0.431587
-0.884386
-0.871847
-0.944641
-1.6988
-2.73902
0.611816
-2.01179
0.880325
0.142463
3.16979
-0.0701356
3.46124
3.61666
0.258269
2.98189
1.90699
2.56866
1.72004
-0.981756
1.99849
-0.511685
0.122014
-1.06067
-2.11819
1.33133
0.19034
-1.93985
-0.834712
2.94772
2.00254
3.84652
5.20163
5.43217
7.1699
5.45928
3.72782
0.976527
3.76952
4.4011
3.27638
0.00187449
1.28854
-0.534402
1.91271
-0.481665
0.149649
0.0838107
3.97377
0.942801
5.13493
6.21674
7.02819