/*--------------------------------*- C++ -*----------------------------------*\
| =========                 |                                                 |
| \\      /  F ield         | OpenFOAM: The Open Source CFD Toolbox           |
|  \\    /   O peration     | Version:  2212                                  |
|   \\  /    A nd           | Website:  www.openfoam.com                      |
|    \\/     M anipulation  |                                                 |
\*---------------------------------------------------------------------------*/
FoamFile
{
    version     2.0;
    format      ascii;
    arch        "LSB;label=32;scalar=64";
    class       volScalarField;
    location    "0";
    object      relativeErrorField;
}
// * * * * * * * * * * * * * * * * * * * * * * * * * * * * * * * * * * * * * //

dimensions      [0 0 0 1 0 0 0];

internalField   nonuniform List<scalar> 
3200
(
0.0018879
0.00352946
0.00318258
0.0163189
0.00940206
0.0168753
0.0132115
0.00663026
0.00951472
0.0213329
0.00886679
0.018294
0.012807
0.0152678
0.00888443
0.00765935
0.00587922
0.00754602
0.00829955
2.21147e-05
0.00469113
0.00179791
0.00353229
0.0029237
0.0125597
0.00934181
0.00322647
0.016231
0.00983051
0.00748333
0.0203891
0.012052
0.0135639
0.00873786
0.00891985
0.00417773
0.000975011
0.00379974
0.00576748
0.00779922
0.0061073
0.00314965
0.00520778
0.00691323
0.00633271
0.0116713
0.0155078
0.00916028
0.00318792
0.0150379
0.0121431
0.0139344
0.00966463
0.00872922
0.0100091
0.0129528
0.00946829
0.00841576
0.00502344
0.00160997
0.0073103
0.00441647
0.00475838
0.00180165
0.0116986
0.00782626
0.0130726
0.013526
0.00786986
0.00234123
0.00935467
0.00138257
0.0142549
0.0147079
0.00958653
0.0119032
0.00936807
0.00639216
0.00282125
0.00536306
0.00540357
0.00259825
0.000715836
0.00435843
0.00222557
0.00828573
0.0021675
0.00313991
0.00427526
0.0046606
0.00686806
0.00921129
0.00260089
0.00471959
0.0126863
0.000794183
0.00562098
0.0015382
0.00439126
0.00550383
0.00514532
3.63195e-05
0.000158844
0.00363092
0.00158778
0.00605073
0.0042136
0.00140589
0.00302817
0.0111982
0.00373329
0.00464782
0.0024001
0.00576183
0.00272999
0.00738183
0.00712839
0.00704533
0.00623983
0.000569284
0.0101254
0.00210566
0.00637797
0.00215779
0.00225188
0.000166564
0.00416977
0.00526473
0.00311029
0.000620915
0.00256619
0.00147992
0.00308654
0.0070369
0.00448686
0.00227934
0.000191546
0.000298351
0.00104416
0.00751648
0.00525093
0.00705838
0.00169447
0.00267947
0.00745946
0.00132972
0.00160055
0.000425871
0.00147946
0.00681019
0.00482964
0.0060136
0.0105267
0.00599769
0.00208155
0.00151026
0.0091264
0.00481707
0.000688245
0.0054041
0.00698237
0.000880872
0.00456055
0.0114525
0.0141348
0.00499545
0.0038262
0.0133806
0.0159307
0.00905716
0.0114599
0.010405
0.0147443
0.00730394
0.0126027
0.012419
0.00552133
0.0139328
0.00394619
0.007878
0.013802
0.00212001
0.00180921
0.00016275
0.013603
0.00132948
0.0131414
0.00116165
0.00921931
0.00077679
0.00175533
0.00336791
0.000448092
0.0100713
0.00129659
0.0121361
0.00125808
0.00734195
0.000603364
0.00263792
0.00464479
0.00686289
0.00734027
0.0151069
0.0120967
0.00468062
0.015377
0.015434
0.00410715
0.0122062
0.00186647
0.00507767
0.00659734
0.00711595
0.00032776
0.00444666
0.00307067
0.0111888
0.00572428
0.00289259
0.00542625
0.00329902
0.00432809
0.0108659
0.00156759
0.00476362
0.00195338
0.00891797
0.00561013
0.0106615
0.00715403
0.00794945
0.00362101
0.00501867
0.00330669
0.0040516
0.00890941
0.00880299
0.00714432
0.00877962
0.00400624
0.00572805
0.00448091
0.0110584
0.0112004
0.00943189
0.00275519
0.00550096
0.0044682
0.00275416
0.00550366
0.00306341
0.00338318
0.0065281
0.0080321
0.00192801
0.00363698
0.00472309
0.00481428
0.00107911
0.00686731
0.0017843
0.00574415
0.00825974
0.00267854
0.00099744
0.00610142
0.00616955
0.00130068
0.000154667
0.0062971
0.0051091
0.0135591
0.00158264
0.00866123
0.00226869
0.00615672
0.00120383
0.00508907
0.00455855
0.00593655
0.00711234
0.00648484
0.00827294
0.00606116
0.00139814
0.0103414
0.00237044
0.00412151
0.00529307
0.00822975
0.00628247
0.000323707
0.0109189
0.00322378
0.00554997
0.00441497
0.00516386
0.00542686
0.00357734
0.00376058
0.00455276
0.000106607
0.00312538
0.00155788
0.0031653
0.00977323
0.00145937
0.00179591
0.00999042
0.00193905
0.000616775
0.000177389
0.0037842
0.00705213
0.00456383
0.00592792
0.00210856
0.00184168
0.00537484
0.012839
0.00619459
0.00148799
0.00652281
0.00752974
0.0118726
0.0107654
0.0102911
0.00038991
0.0147569
0.0132659
0.00792175
0.0131805
0.007169
0.0111199
0.010709
0.00222101
0.00771021
0.00050642
0.00259698
0.00899359
0.00372042
0.00473846
0.0112121
0.00428193
0.00715597
0.0124624
0.00589281
0.00046671
0.011088
0.00699396
0.00315487
0.00834931
0.013257
0.00958949
0.0150899
0.00255932
0.0159598
0.00858043
0.00190844
0.00122194
0.00403436
0.00759865
0.00172812
0.00340924
0.0049152
0.00115429
0.0031542
0.00951164
0.00537653
0.00440655
0.0036739
0.00710219
0.00628598
0.0116271
0.00961714
0.00719899
0.00953841
0.00136518
0.00924491
0.00249918
0.00246431
0.0057721
0.00070227
0.00621357
0.00113924
0.00925638
0.00749667
0.00200098
0.00195471
0.00532325
0.00481848
0.00694754
0.00457106
0.00250391
0.00190148
0.00426727
0.000486174
0.00342887
0.000966205
0.0164606
0.000764844
0.0075597
0.00234874
0.00497309
0.00547308
0.00182319
0.00297542
0.00245604
0.00115961
0.00702015
0.00444451
0.00516552
0.00360457
0.00186511
0.00658252
0.00299869
0.00100449
0.000455517
0.00419606
0.00602534
0.00340198
0.0110006
0.00506921
0.00246642
0.00341832
0.00198199
0.00548506
0.00207338
0.000926924
6.90565e-06
0.00392312
0.00248497
0.00159364
0.00131027
0.00180272
0.000363199
0.0148221
0.000923348
0.00448286
0.0047376
0.00300308
0.0017437
0.00292196
0.00186911
0.00706895
0.00434984
0.000813728
0.00413958
0.00411992
0.00891955
0.00403172
0.00294876
0.00623462
0.00356302
0.00655802
0.00638804
0.00225042
0.00295335
0.0038926
0.00357158
0.0055158
0.00333541
0.00322545
0.0074847
0.00339542
0.00353481
0.00628577
0.00362536
0.00235531
0.00158033
0.00376254
0.00272273
0.00491376
0.00338441
0.00364254
0.00426275
0.000723443
0.0104825
1.55258e-05
0.00833864
0.00224617
0.00334375
0.00129293
0.00237174
0.0079834
0.00349924
0.00768328
0.00972219
0.00194076
0.00295464
0.00834248
0.00490396
0.00280527
0.00583722
0.00527966
0.0151966
0.000507682
0.00958076
0.00242412
0.0049938
0.000166738
0.000269035
0.000838412
0.000725897
0.0008268
0.0113788
0.0012619
0.0129711
0.000662948
4.75443e-05
0.00294085
0.000450424
0.00068353
0.000505981
0.0096466
0.000545732
0.00679864
0.000644264
0.00381413
0.00704654
0.00731491
0.000546649
0.00664382
0.00531211
0.0108622
0.0041677
0.00720441
0.0020615
0.00222815
0.00467324
0.00467127
0.00998705
0.00217268
0.00733562
0.00391153
0.0133634
0.00195779
0.0015189
0.00352654
0.00658282
0.000662149
0.0099148
0.00502272
0.00614146
0.00338811
0.00837384
0.00230678
0.000333808
0.00251687
0.0038954
0.00931191
0.00576124
0.00443978
0.00540621
0.00401095
0.0116098
0.00363639
0.0056462
0.00781778
0.0132872
0.000614727
0.00495893
0.00118526
0.00569203
0.00448489
0.0076503
0.00306285
0.000845191
0.00445855
0.0019309
0.00544598
0.00629338
0.000340039
0.00682795
0.00790397
0.00397309
0.00499208
0.000768085
0.00180909
0.00168581
0.0067503
0.00498402
0.00232587
0.0046893
0.000457324
0.00820151
0.00298505
0.00215673
0.00139305
0.0044628
0.00156471
0.00454804
0.00748633
0.00389916
0.000253897
0.00448756
0.00265745
0.00110492
0.00340382
0.00396467
0.0017075
0.0058289
0.00243541
0.00300345
0.000155521
0.00030606
0.00656901
0.00147247
0.00460605
0.00193906
0.00322578
0.00245059
0.000782808
0.00367105
0.00827679
0.0062153
0.000625393
0.00192387
0.00519992
0.00714711
0.00839364
0.00578067
0.00153214
0.000399495
0.000932108
0.00731415
0.00786785
0.000435648
0.0111855
0.00254716
0.000260735
0.00462525
0.00560762
0.00565997
0.00379527
0.00895148
0.005928
0.00359587
0.0108297
0.00794877
0.00215772
0.000905549
0.00658096
0.0104614
0.00491747
0.00145839
0.00337979
0.000909446
0.0018181
0.0037462
0.00623118
0.00442171
0.0010444
0.00531156
0.0112446
0.0113559
0.00326697
0.00454859
0.00318454
0.0097006
0.00325005
0.00183669
0.00354474
0.00353737
0.000713982
0.00126012
0.0105691
0.00259003
0.00341199
0.00838798
0.00283654
0.00984126
0.00470972
0.00364705
0.00402149
0.00273358
0.0103381
0.000550493
0.00827631
0.00943216
0.000524906
0.00282541
0.00579188
0.011261
0.000834039
0.00263796
0.00385503
0.00278972
0.00453063
0.00184586
0.00476658
0.00746982
0.00541593
0.00308165
0.0028581
0.00887897
0.00133162
0.00200512
0.00466848
0.0184004
0.00343524
0.00547589
0.00153417
0.00891892
0.00336154
0.000828097
0.000846654
0.00147916
0.00483655
0.0035787
0.00463277
0.0026162
0.001122
0.000242087
0.002337
0.000742758
0.00527906
0.00882383
0.0138269
0.0059311
0.00169605
0.00753411
0.00866401
0.00580436
0.00243424
0.0026087
0.00551638
0.00750018
0.00301391
0.00119506
0.00759828
0.000421954
0.000693335
0.00183757
0.0113487
0.00694388
0.00511364
0.00800995
0.000875975
0.00501755
0.00355629
0.00228694
0.000587946
0.00405464
0.0056515
0.00424581
0.00295768
4.288e-05
0.0077843
0.0104182
0.00189746
0.00301884
0.00628752
0.00139213
0.00767208
0.0057608
0.00310205
0.00387873
0.00367692
0.00212229
0.00238683
0.00130717
0.0066898
0.00221998
0.00335084
0.00526739
0.00174618
0.00132218
0.00140121
0.00255893
0.000734404
0.00187887
0.00509262
0.00413186
0.00310605
0.00484205
0.00129996
0.00361606
0.00255269
0.0124383
0.00324904
0.0122226
0.00454224
0.00346138
0.00096373
0.00411023
0.00821995
0.00562848
0.0027325
0.00942435
0.00164645
0.000363814
0.00420654
0.00569811
0.000318003
0.00708912
0.000184297
0.00395546
0.0053916
0.00290925
0.00198161
0.00676955
0.00831752
0.0121741
0.00547014
0.0027797
0.000547247
0.00123872
0.000519445
0.00208463
0.00692841
0.00313173
0.00597862
0.00536649
0.00805584
0.00405156
0.00846458
0.00113579
0.0093373
0.0119216
0.00050542
0.00137501
0.000525597
0.00385415
0.000776552
0.00903751
0.000848615
0.00161727
0.000783251
0.000756911
0.00166825
0.000801922
0.00658899
0.00115366
0.00366245
0.000486418
0.00274228
0.000183121
0.00248473
0.0132522
0.00503445
0.00521224
0.000180004
0.00426373
0.00172005
0.00160267
0.000130477
0.000938863
0.00413452
0.00681169
0.00250158
0.00531895
5.42093e-05
0.00154295
0.000982315
0.00441742
0.00764783
7.22788e-05
0.00641081
0.00825396
0.000785168
0.00116445
0.00368141
0.0039894
0.0058303
0.00271103
0.00353035
0.00749734
0.000235491
0.0077099
0.00326457
0.00129289
0.00220911
0.00300117
0.00562282
0.00458273
0.0023963
0.00474345
0.000650736
0.00716287
0.00547953
0.00397469
0.00840442
0.00294923
0.00382887
0.00842901
0.00212341
0.00364647
0.00284651
0.00293226
0.0123835
0.000931793
0.00270564
0.00386879
0.0101708
0.00159607
0.00193105
0.0142299
0.00856399
0.0047477
0.00545073
0.00440559
0.00305327
0.000841453
0.00400344
0.00234944
0.00892766
0.0018842
0.00602921
0.00719358
0.0066236
0.000528521
0.00484018
0.00134438
0.00122204
0.00552246
0.00380942
0.0044709
3.90311e-06
0.00335496
0.00220665
0.000183174
0.0105406
0.00345758
0.002017
0.00218236
0.00328499
0.00229235
0.00419278
0.000457371
0.000685924
0.000530689
0.00122833
0.00181762
0.001565
0.00585626
0.00344344
0.00727688
0.00123802
0.00335861
0.0022723
0.00545079
0.00014284
0.00106883
0.000950134
0.00485785
0.00631647
0.00199739
0.000529598
0.00421671
0.000760154
0.00258728
0.00183252
0.0124845
0.00226563
0.00642495
0.00624823
0.00200962
0.00121281
0.0173673
0.00271576
0.00160619
0.00509323
0.00484563
0.00132091
0.00266802
0.000662939
0.00216279
0.00439469
0.00149597
0.00370494
0.00373669
0.00917877
0.00509003
0.000201243
0.00075239
0.00195027
0.00171066
0.00281934
0.0084313
0.00935967
0.00336289
0.00698101
0.0028107
0.00125849
0.00550648
0.00056002
0.00756771
0.00260001
0.00269091
0.00647507
0.00385906
0.00654434
0.000556823
0.00102074
0.00271616
0.00262711
0.00415511
0.00337473
0.00160541
0.0106208
0.000672366
0.00477492
6.99798e-06
0.0025013
0.00149132
0.0100022
0.000276389
0.00179579
0.00259443
0.00140583
0.00835542
0.000412629
0.000638863
0.0034532
0.00401765
0.00598805
0.00154389
0.00606761
0.00725828
0.00713568
0.00576454
0.000347444
0.00140231
0.00237486
0.00111804
0.00640297
0.0021844
0.00527545
0.0071618
0.00787263
0.000802841
0.00146938
0.00277368
0.000241988
0.000424691
0.00272892
0.00474601
0.000679881
0.0122602
0.00220681
0.00525884
0.00428632
0.00206036
0.00698064
0.00207792
0.00425367
0.00643511
0.00558434
0.00435555
0.0043987
0.000395031
0.00453752
0.0104706
0.000504404
0.00776628
0.00397373
0.00440808
0.0022686
0.00333131
0.00115148
0.00313243
0.006253
0.00943364
0.0046928
0.00025556
0.00408885
0.00614937
0.00232369
0.000245564
0.00668299
0.00164037
0.003351
0.000498686
0.000105036
0.00557542
0.00483736
0.00025475
0.00115427
0.00176983
0.00671701
0.00486726
2.33539e-05
0.00171846
0.00423753
0.00962057
0.00385797
0.00125502
0.00394423
0.00277695
0.000658778
0.00787149
0.00207342
0.00214301
0.00618135
0.00677967
0.0057702
0.0030922
0.00440972
0.00842046
0.00308268
0.00534851
0.00481434
0.00481301
0.000752964
0.0057818
0.00215885
0.00324425
0.00063538
0.00401242
0.00133693
0.0082001
0.000925696
0.00449335
0.000852271
5.57027e-05
0.00279535
0.0101026
0.000961171
0.0112273
0.00646977
0.00550528
0.00415221
0.00644397
0.000656011
0.0044652
0.00225086
0.00495988
0.000385701
0.00314165
0.00666856
0.00283696
0.00173159
0.0048034
0.00208924
0.00481852
0.000677227
0.00632679
0.00940368
0.00756297
0.000649501
0.003211
0.000129166
0.00434563
0.000794851
0.00358502
0.0020423
0.00652668
0.00017731
0.000307969
0.0096224
3.03876e-05
0.00664074
0.000508777
0.00792053
0.000681227
0.00561768
9.13637e-05
0.00871319
0.0146748
0.0112917
0.00463541
0.00424627
0.00025898
0.00495401
0.00371518
0.000763838
7.13032e-05
0.00293526
0.00676776
0.00284975
0.00602332
0.00407956
0.00438564
0.00247692
0.00341461
0.00284994
0.0011783
0.00826542
0.00603725
0.0123561
0.00550807
0.00537152
0.00149054
0.00357063
0.00421119
0.00975909
0.00271403
0.00767126
0.00225865
0.00301331
0.00224252
0.00276827
0.00110401
0.00838587
0.00191607
0.000191058
0.00338666
0.00458808
0.00970276
0.00596833
0.0015407
0.00288482
0.00649141
0.00483571
0.00101021
0.000706507
0.0115444
0.00613194
0.000340623
0.00281876
0.00111987
0.00904101
0.0052328
0.00881152
0.0035396
0.00140596
0.0067262
0.00684061
0.00223321
0.0047221
0.00483332
0.00663516
0.00327821
0.000947068
0.00434807
0.000825938
0.00199384
0.00313416
0.00601972
0.00338483
0.00261873
0.000900581
0.00485134
0.00599195
0.00738834
0.00270378
0.00343308
0.00163444
0.00330229
0.00340151
0.00230787
0.00302079
0.00957562
0.00550914
0.00181386
0.00811553
0.00350889
0.003422
0.00161916
0.00787429
0.00106814
5.53325e-05
0.005141
0.00281517
0.000184812
0.00229613
0.00222576
0.00612139
0.00477259
0.000637244
0.00127676
0.00631073
0.0122492
0.00156035
0.0023023
0.00319209
0.00089936
0.00357783
5.03147e-06
0.00392638
0.000915304
0.00352872
0.00792844
0.00191172
0.0034976
0.00503599
0.0058304
0.000868282
0.0114979
0.00647816
0.00377361
0.000598547
0.000857187
0.00157494
0.000389596
0.00639827
0.000847462
0.000825693
0.00852212
0.00726098
0.0123521
0.00216781
0.00504494
0.000635774
0.00272497
0.000326373
0.00668656
0.00510915
0.016538
0.0122197
0.00831541
0.000175282
0.00367643
0.00193214
0.000693814
0.00325309
0.0081813
0.0159076
0.0045756
0.0112512
0.00447952
0.00130252
0.0112961
0.00415026
0.00388515
0.0059013
0.0101611
0.0142961
0.00518579
0.0131924
0.0135466
0.00535525
0.00680427
0.00143761
0.00282338
0.00826545
0.00300898
0.00835288
0.00405685
0.00563157
0.00900607
0.00707236
0.0064102
0.0022998
0.0015235
0.0039361
0.00805778
0.00283904
0.00802235
0.00843905
0.00334999
0.00751099
0.00505273
0.00485979
0.00138738
0.000638512
0.00224993
0.013823
0.0056288
0.00967265
0.00551652
0.0101085
0.000644575
0.00757954
0.00948711
0.00459074
0.0099293
0.00958878
0.00355636
0.00645743
0.00356652
0.00194597
0.00682509
0.00364784
0.00113138
0.00443963
0.00252804
0.00903881
0.00364844
0.00761861
0.00668022
0.00513728
0.00255818
0.0027107
0.000229439
0.000843108
0.00772676
0.005794
0.00339958
0.0116062
0.00393161
0.00113267
0.00652807
0.000690635
0.00411049
0.0003149
0.005806
0.00133597
0.00381952
0.005399
0.00335179
0.00583734
0.00202587
0.00462156
0.00437309
0.00176841
0.00407703
0.00598385
0.000514237
0.00919681
0.00302544
0.00520965
0.000220444
0.00297725
0.00418823
0.00929027
0.0060749
0.00315772
0.000551151
0.000836253
0.00198015
0.00413546
0.000495514
0.00271983
0.00669004
0.00402516
0.00213087
0.0038559
0.0114382
0.00132611
0.00270219
0.00134316
0.00343215
0.00448048
0.00232846
0.00702947
0.00192782
0.0083651
0.00108415
0.00609902
0.0104858
0.00443546
0.00722418
0.00240169
0.00874595
0.0118456
0.00222799
0.002424
0.0192661
0.00673194
0.00712706
0.00573505
0.00208809
4.61843e-05
0.00479023
0.00278187
0.0035413
0.00345756
0.0108437
0.0103677
0.00140415
0.00111411
0.00371657
0.00215208
0.00378535
0.00515566
0.0158263
0.00748102
0.0156768
0.00199912
0.0031862
0.000345917
0.00521925
0.000666781
0.00235665
0.00064672
0.00778163
4.83605e-06
0.00169074
0.00484754
0.000980887
0.00418649
0.000436999
0.0038568
0.00177119
0.00186165
0.00143553
0.00712346
0.0133213
0.000659343
1.31891e-05
5.71423e-06
0.00464545
0.00241992
0.00499052
0.0038332
0.00907626
0.0139062
0.008146
0.00651927
0.00767458
0.00409468
0.00419121
0.00133615
0.00515893
0.00103926
0.013454
0.0142914
0.011781
0.00156578
0.00521437
0.00429103
0.00157818
0.00203504
0.00630517
0.00289963
0.00126534
0.00215568
0.0135976
0.00770109
0.00100721
0.00103953
0.00242162
0.00245397
0.00287176
0.0118672
0.00834292
0.0037766
0.000984928
0.00971336
0.00207109
0.0014318
0.00359654
0.00163834
0.00265137
0.00464523
0.000137469
0.00555743
0.00786018
0.0109713
0.00398698
0.00179019
0.000745294
0.00259511
3.31245e-05
0.00358765
0.00852337
0.00886349
0.00596418
0.00196419
0.00823428
0.000172527
0.00475991
0.00394688
0.00859009
0.00129837
0.00661628
0.00491161
0.0055076
0.00287047
0.00853729
0.00213803
0.00208833
0.00418376
0.0085761
0.00655673
0.00428208
0.00286278
0.00838536
0.00864096
0.00497629
0.00112163
0.0016922
0.00208431
0.00269381
0.00720302
0.00520459
0.000657306
0.00382712
0.000517031
0.00350933
0.00925077
0.00228871
0.00472104
0.00431527
0.000406967
0.00547323
0.00179724
0.00807411
0.00468743
0.0113938
0.00350165
0.00572842
0.00425352
0.00168788
0.00191283
0.00102942
0.00177148
0.0018537
0.00203416
0.00294411
0.00204091
0.00141608
0.00207297
0.00681961
0.00826388
0.00583289
0.00254178
0.0137046
0.00888372
0.0101103
0.000991981
0.000131315
0.0022064
0.0110548
0.00481386
0.00527167
0.00898506
0.0111946
0.0101475
0.00907672
0.0054451
0.0015759
0.00409292
0.00760869
0.00877586
0.000635997
0.0200311
0.0154638
0.000675401
0.000645901
0.00214945
0.00993713
0.000255701
0.00373784
0.000172077
0.00117482
0.000984686
0.000673737
0.0094006
0.00246281
0.00544669
0.00098061
0.00529083
0.000439686
0.00567556
0.0012177
0.00436926
0.00571491
0.00647421
0.00793705
0.0020317
0.0046306
0.00425215
0.00490723
0.00426726
0.00299615
0.00391223
0.00663588
0.0114763
0.0102966
0.00677401
0.00297406
0.00137945
0.00724431
0.00624261
0.00715867
0.00825004
0.0116799
0.00540752
0.00212711
0.00335744
0.00907253
0.00125148
0.00350652
0.00306766
0.00638429
0.00465593
0.00728684
0.00565945
0.0101672
0.000791906
0.00702451
0.0020402
0.00162182
0.00484094
0.00638093
0.0191749
0.00780393
0.000449479
0.00864351
0.00197216
0.00636904
0.00887767
0.00271577
0.00197199
0.00362689
0.0037586
0.00344789
0.00737293
0.011397
0.00242572
0.00106392
0.00226078
0.0037597
0.00112669
0.00844943
0.00131681
0.00652624
0.00573962
0.00551363
0.00331382
0.0112712
0.000217379
0.00077913
0.00583053
0.00499617
0.00223883
0.00533397
0.000903562
0.00484937
0.00831367
0.000637814
0.00266958
0.00230895
0.0109438
0.00150703
0.00999105
0.000450409
0.00124983
0.00553798
0.00681207
0.0102447
9.2269e-05
0.00498729
0.00577256
0.00312124
0.00740896
0.00359525
0.0030203
0.00680116
0.00246255
0.00703121
0.00595394
0.00291748
0.00519764
0.0020426
0.00297444
0.00126191
0.00635973
0.00501485
0.00900636
0.00283842
0.00588163
0.00365599
0.00545704
0.00227007
0.00406336
0.0136808
0.00289543
0.00146789
0.00428331
0.000182927
0.00466202
0.00208516
0.00147297
0.000407828
0.00882754
0.0108213
0.0118105
0.000633107
0.00569902
0.000447818
0.00519896
0.00167406
0.00299137
0.00176999
0.0111118
0.00349176
0.00908129
0.00767632
0.00283858
0.00257993
0.00590012
0.0028996
0.00679842
0.004942
0.0148969
0.00550429
0.0113622
0.00826394
0.000718575
0.00361302
0.00326713
0.00434524
0.0035294
0.00398827
0.00135289
0.00835664
0.00945205
0.000943916
0.00765546
0.00087491
0.00304792
0.00549162
0.00911069
0.00212121
0.00589624
0.0177202
0.0174451
0.000792206
0.00563907
0.00269683
0.00237177
0.000327579
0.00393238
0.00620547
0.0105579
0.00961518
0.00620483
0.00183975
0.00664047
0.0030269
0.00270499
0.00652709
0.00241599
0.00242259
0.0109827
0.00221506
0.00562152
0.0100757
0.00325976
0.00136597
0.00252551
0.00414833
0.00027908
0.00376632
1.54019e-06
0.000710392
0.00604832
0.00348761
0.00632474
0.00184016
0.000765282
0.00641769
0.00640524
0.00275369
0.0152436
0.0155866
0.00208651
0.00154779
0.00182024
0.00191143
0.00112032
0.000664383
0.00206981
5.14277e-05
0.000544518
0.00344238
0.00870601
0.00636287
0.00218204
0.00135408
0.000833633
0.00641535
0.00109878
0.00434402
0.000287833
0.00295775
0.00774879
0.000335434
0.00677892
0.00514014
8.08361e-06
0.00565412
0.00338887
0.00519427
0.00795673
0.00699935
0.0018126
0.00123269
0.00522594
0.00477492
0.00214538
0.00582568
0.00419557
0.00936407
0.00454317
0.00024666
0.00139989
0.00623374
0.00747223
0.00667961
0.00748742
0.0012458
0.000192427
0.00285175
0.00666019
0.00020843
0.00234673
0.00575244
0.00316147
0.00357502
0.00446599
0.00295064
9.10148e-05
0.00277921
0.00112537
0.0033894
0.000310875
0.000846826
0.00529178
0.00657787
0.00101282
0.00580458
0.000905036
0.00941362
0.00513563
0.0132348
0.000940707
0.00346513
0.00588899
0.0026403
0.00360792
0.00888945
0.0023642
0.00338919
0.000919898
0.0143668
0.00264802
0.00386561
0.00403708
0.0044014
0.00162444
0.000973349
0.0025677
0.0117314
0.00561127
0.0125746
0.00973253
0.00783008
0.00452122
0.00339202
0.0050957
0.000558168
0.008427
0.00767341
0.0134245
0.0119454
0.00128595
0.00459871
0.000483208
0.00484622
0.00042962
0.00134104
9.61812e-05
0.00412289
7.37089e-05
0.000633655
0.0131211
0.000923661
0.0111112
0.00126735
0.00448642
0.00016201
0.00530984
0.00251007
0.00473202
0.0143782
0.00207361
0.00452506
0.00211371
0.00267001
0.000151667
0.00440321
0.00304667
0.00226854
0.00108317
0.00581201
0.00868481
0.00743627
0.00506616
0.00281199
0.00602192
0.00117931
0.0101682
0.00581684
0.0103844
0.00445484
0.00783542
0.00328822
0.00687859
0.00196046
0.00673662
0.00432495
0.00604799
0.00129074
0.00519549
0.00833805
0.00103703
0.00163209
0.00427893
0.0119577
0.00128685
0.00283458
0.00327345
0.00246207
0.00206451
0.000713
0.0103952
0.0110733
0.00292777
0.00941737
0.00147143
0.00646914
0.00566745
0.0091763
0.000595606
0.0111542
0.00307036
0.00245085
0.000996023
0.00322963
0.000394414
0.00532357
0.00452991
0.00696408
0.00901489
0.00761785
0.00454195
0.000892177
7.9456e-05
0.00321886
0.00364623
0.00628342
0.00383794
0.00163862
0.00237919
0.00247898
0.00634964
0.00202959
0.00227989
0.003653
0.000681375
0.000780001
0.00866396
0.0010816
0.0112652
0.00192766
0.00507758
0.00692328
0.00288532
0.000931133
0.00520303
4.0419e-05
0.00786652
0.00122766
0.00399061
0.00666842
0.00349746
0.00761557
0.00691347
0.00335141
0.00884733
0.00309079
0.00334868
0.000304999
0.00211167
0.00299528
0.00199637
0.00172425
0.000434566
8.99261e-05
0.00709107
0.0146966
0.000491323
0.00727435
0.00721238
0.00253973
0.00142922
0.00105807
0.00534467
0.00420323
0.0110357
0.00288827
0.00362103
0.00517792
0.0014721
0.00882639
0.00991446
0.00976601
0.00430327
0.00139817
0.00475303
0.0052047
0.000887913
0.00148238
0.00739922
0.0055599
0.000333229
0.00773438
0.00417095
0.00578585
0.00546796
0.00162077
0.00653497
0.00700182
0.00465947
0.00995712
0.00329023
0.00898084
0.00554737
0.00431612
0.000565457
0.00343523
0.00343246
0.00471724
0.00188326
0.00826864
0.00739356
0.00993718
0.00873785
0.00120283
0.0100105
0.000882854
0.012913
0.0114815
0.0105913
0.00887065
0.00786011
0.00709076
0.00459153
0.000783671
0.00386968
0.000671628
0.00302169
0.00443945
0.00353471
0.00748704
0.000419338
0.00344502
0.00116482
0.00398462
0.00126753
0.00264177
0.00396877
0.00400149
0.00767906
0.00815826
0.00498953
0.00474835
0.0032725
0.00247228
0.00294911
0.00411688
0.00118726
0.00153013
0.000719343
0.00461461
0.00879899
0.00850844
0.00399193
0.00219458
0.00640071
0.00346715
0.000762978
0.00281251
0.006703
0.00894836
0.00740802
0.00586377
0.00162894
0.00855843
0.00485812
0.00582331
8.81477e-05
0.00198466
0.00738766
0.00789317
0.00782402
0.00136968
0.00308161
0.00306518
0.000925368
0.000281594
0.00330814
0.00989607
0.00837383
0.00111251
0.00936025
0.000562285
0.000390093
0.00104106
0.00172087
0.000855058
0.000708301
0.00863837
0.00075146
0.00136947
0.00108263
0.00101879
0.00567606
0.000955135
0.00221009
0.00526226
0.000933989
0.00288874
0.00312377
0.00315422
0.00962142
0.00184586
0.00162428
0.000730788
0.000999627
0.00189016
0.00118995
0.00586397
0.00315146
0.00413462
0.00071878
0.010168
0.00262102
0.00379346
0.00629742
0.00121008
0.00312847
0.00352653
0.000983913
0.005019
0.00145998
0.000637433
0.00383092
0.000427268
0.00580922
0.00225181
0.00661699
0.00740142
0.00664538
0.00762431
0.0042713
0.0031213
0.00179302
0.00904758
0.00244134
0.00474279
0.00391504
0.00741945
0.00846452
0.0179781
0.00214126
0.00683663
0.00612281
0.000345407
0.00126703
0.0036116
0.0011317
0.00398675
0.00266905
0.00758985
0.00151688
0.00547946
0.00422761
0.00846093
0.00374953
0.000516686
0.00327494
0.00694047
0.00534729
0.00594974
0.00178091
0.00377084
0.000424677
0.0027235
0.00183258
1.43389e-05
0.00029285
0.00538571
0.00187311
0.000442905
2.40862e-05
0.000441488
0.00515621
0.000345475
0.000837778
0.000943398
0.00207374
0.000293349
0.00462558
0.000677517
0.00769667
0.0083958
0.00293548
0.00603512
0.000586036
0.00163259
0.00198741
0.000209732
0.00262172
0.00494901
0.0115258
0.000467245
0.00234704
0.00219083
0.00432932
0.00225087
0.00137294
0.00526856
0.011888
0.0126613
0.00888213
0.00229229
0.0119553
0.00278814
0.00173569
0.0032531
0.00366411
0.00239802
0.00114299
0.00158939
0.00531549
0.000441135
0.00493002
0.00152068
0.000438549
0.00557425
0.00223774
0.00251888
0.00743235
0.00762114
0.00353591
0.00160391
0.00523902
0.000516051
0.00644081
0.00668334
0.00235803
0.0044047
0.00281911
0.000204842
0.00176619
0.00300536
0.00466846
0.00829173
0.00616406
0.00308882
0.00309404
0.00101376
0.00250204
0.00464526
0.00422676
0.00304056
0.00793692
0.00254282
0.00359637
0.00218053
0.00168953
0.00253433
0.00645218
0.0126241
0.00321961
0.00180399
0.00203232
0.00538552
0.0018694
0.00514691
0.0015792
0.00830599
0.00207391
0.00664894
0.000934513
0.00185886
0.0013011
0.00246536
0.00644841
0.001286
0.00189476
0.00422945
0.00144935
0.00133503
0.00310624
0.00663986
0.00242641
0.00380299
0.00492981
0.00318296
0.00375469
6.81677e-05
0.00312238
0.000308784
0.00593873
0.00522177
0.00728314
0.00140393
0.00108174
0.00511865
0.00576304
0.00315909
0.000783306
0.0126499
0.0045035
0.00377907
0.00188746
0.00309554
0.00112092
0.0035302
0.00265961
0.00536005
0.00091773
0.00767902
0.00425642
0.00323944
0.00219628
0.00583424
0.00248186
0.00840192
0.0099457
0.0004551
0.00260901
0.00212174
0.00399135
0.000256232
0.00291223
0.0028903
0.00383145
0.00433278
0.0015275
0.00071938
0.000232209
0.0113011
0.00310438
0.00121656
0.00503514
0.0019859
0.0046901
0.000335471
0.00186234
0.00150332
0.00733148
0.00402148
0.00184066
0.00137739
0.000613939
0.00415518
0.00247256
0.00187948
0.000187156
0.00278345
0.0107995
0.00896109
0.0108812
0.00142838
0.00114066
0.0012276
0.0046432
0.00356796
0.00297361
0.00112645
0.00404042
0.00589435
0.00117885
0.00112284
0.00305569
0.0028779
0.00506714
0.0043659
0.00710892
0.00500495
0.00720358
0.00172791
0.00341901
0.000606899
0.00548817
0.00545765
0.00385516
0.00153144
0.00194092
0.00461528
0.00314373
0.000886094
0.00143117
0.00374363
0.00341328
0.00140452
0.00298836
0.00107923
0.00142676
0.0017598
0.00608241
0.00341882
0.00683733
0.00177548
0.0107892
0.00203662
0.00384002
0.00295461
0.0018376
0.000456448
0.00522778
0.00309829
0.00896024
0.00374001
0.00506631
0.00391646
0.00201094
0.00189618
0.00562075
0.00880302
0.00299677
0.00529125
0.00736081
0.00339293
0.00460469
0.00352251
0.00783067
0.000535922
0.00601825
0.00269309
0.00013128
0.000192962
0.00307903
0.000720095
0.00230361
0.00336382
0.00156301
0.00218797
0.00523026
0.00232877
0.00277853
0.000193276
0.00399488
0.0016236
0.00171069
0.000104332
0.00799003
0.00133358
0.000528608
0.000662683
0.00840124
0.00197579
0.00242292
0.0111245
0.00147849
0.00185303
0.00199007
0.0069475
0.00309607
2.29631e-05
0.000688935
0.00432465
0.0014657
0.00033504
0.000889118
0.00307004
0.00274521
0.000249401
0.0118186
0.0011026
0.0033989
0.0045811
0.00101367
0.00865943
0.00182467
0.00343211
0.000706396
0.000419025
0.00222939
0.00533827
0.0063449
0.00493443
0.00370238
0.000540892
0.00884548
0.00677748
0.00651637
0.00931975
0.00277854
0.00696251
0.00154829
0.00266219
0.0088328
0.00767459
0.00784238
0.00280386
0.00747519
0.000712228
0.00189399
0.00317396
0.00777622
0.00450618
0.000855688
0.010429
0.00150935
0.00664308
0.000645807
0.0131699
0.000476476
0.0072808
5.72967e-05
8.44692e-05
0.00100035
0.00179053
0.00335812
0.00117315
0.0088855
0.000262427
0.0014094
0.00045635
0.00315647
0.0101088
0.00209395
0.00475143
0.000320675
0.00654519
0.00408873
0.00497125
0.00607453
0.00916845
0.00232444
0.0115355
0.00631829
0.00727124
0.00505245
0.00292256
0.00881964
0.00554467
0.00642975
0.000551422
0.0127547
0.00659435
0.0100254
0.00413881
0.000995676
0.00101271
0.00376172
0.00425116
0.00682284
0.00313667
0.00163017
0.00100263
0.00101733
0.00907784
0.00417304
0.00167865
0.00422574
0.00293166
0.00187135
0.000803056
0.00597611
0.00168743
0.00727066
0.000633685
0.00138957
0.00144127
0.0094071
0.0041732
0.00907644
5.80822e-05
0.000465007
0.00358757
0.00249559
0.00974117
0.00146533
0.00267145
0.00317312
0.00287522
0.00645415