/*--------------------------------*- C++ -*----------------------------------*\
| =========                 |                                                 |
| \\      /  F ield         | OpenFOAM: The Open Source CFD Toolbox           |
|  \\    /   O peration     | Version:  2212                                  |
|   \\  /    A nd           | Website:  www.openfoam.com                      |
|    \\/     M anipulation  |                                                 |
\*---------------------------------------------------------------------------*/
FoamFile
{
    version     2.0;
    format      ascii;
    arch        "LSB;label=32;scalar=64";
    class       volScalarField;
    location    "0";
    object      stateMean;
}
// * * * * * * * * * * * * * * * * * * * * * * * * * * * * * * * * * * * * * //

dimensions      [0 0 0 1 0 0 0];

internalField   nonuniform List<scalar> 
3200
(
350.544
349.292
352.473
346.507
349.861
348.116
350.242
353.281
352.767
348.825
353.269
349.64
351.084
349.512
350.945
350.477
350.184
348.704
347.62
349.891
344.871
344.427
343.304
344.289
341.754
343.647
346.492
342.574
345.244
346.296
341.793
344.47
343.503
344.577
343.794
344.655
345.636
343.212
341.826
340.584
338.684
338.144
335.923
336.001
336.871
335.717
335.018
337.69
340.1
336.253
337.241
336.434
337.518
337.324
336.282
334.627
335.136
334.84
335.389
337.17
332.398
331.811
329.267
330.781
328.049
329.873
328.623
328.888
331.079
333.085
330.744
333.244
328.645
328.079
329.288
327.981
328.274
328.726
329.42
331.756
325.083
324.458
324.228
323
325.568
322.572
324.95
324.959
327.617
324.826
324.106
323.217
325.135
324.119
321.141
325.103
322.59
323.498
325.038
321.556
318.31
316.868
317.2
316.295
317.251
316.133
316.994
318.121
317.774
315.258
320.018
320.22
319.334
316.501
317.189
315.41
315.185
314.916
314.903
316.861
306.882
310.793
312.281
309.811
311.366
310.899
309.716
309.516
310.288
311.117
312.109
310.795
310.194
308.824
312.242
311.374
310.54
310.395
309.816
307.691
301.767
301.257
303.968
304.327
305.84
304.04
303.206
303.868
303.324
301.722
302.324
301.946
300.542
305.513
303.004
303.117
300.744
301.992
303.608
304.999
352.497
350.385
349.91
348.368
348.328
352.452
353.693
350.991
350.585
353.301
352.444
352.553
350.506
352.458
349.757
348.934
350.458
346.615
349.31
347.295
348.148
343.222
344.033
345.485
341.512
347.462
343.148
347.918
345.548
349.266
349.608
347.588
348.479
344.216
347.451
342.02
344.994
342.127
344.159
344.314
338.317
334.889
335.318
333.336
335.018
338.188
335.15
335.633
339.863
337.293
340.824
339.532
338.645
337.962
339.667
337.612
337.41
334.018
335.273
337.727
331.879
331.54
329.503
327.866
331.496
330.969
332.397
330.491
331.896
330.368
331.539
331.115
332.258
331.377
331.453
330.671
328.515
328.022
328.089
332.986
324.711
325.548
322.618
320.896
321.271
322.259
324.815
324.242
324.813
325.496
324.599
325.271
324.933
323.586
322.714
324.284
323.304
322.539
322.136
323.764
314.562
317.5
315.381
320.12
316.951
317.784
316.432
316.64
319.189
318.813
316.854
317.145
314.286
317.871
315.346
317.081
319.453
317.585
315.321
318.181
311.896
307.967
308.322
307.942
308.811
311.308
307.821
311.914
309.994
309.682
308.768
309.321
311.277
314.434
311.875
312.418
309.14
311.937
308.49
311.164
304.512
302.029
303.496
304.473
304.058
302.684
300.732
303.303
304.326
300.763
304.387
303.593
303.8
302.551
301.504
302.199
301.725
302.824
303.969
305.002
354.893
353.199
351.306
350.403
350.94
350.274
351.469
352.314
356.612
351.471
352.003
353.649
351.285
352.747
350.541
349.816
351.921
349.117
350.847
351.304
346.794
345.519
346.566
341.813
344.983
344.743
343.593
346.465
348.785
345.302
346.732
347.847
345.609
343.316
343.898
341.239
344.804
339.427
341.284
343.047
337.414
338.806
340.599
338.085
338.17
338.299
340.169
339.984
338.175
339.776
340.108
342.676
338.638
338.421
336.017
336.064
336.232
334.806
336.984
340.118
329.467
329.833
329.214
331.415
330.121
332.332
330.11
331.1
333.229
334.705
332.274
332.288
331.283
331.671
331.878
331.553
330.233
331.286
331.782
330.611
328.9
324.096
321.767
325.386
323.426
327.231
325.232
325.172
327.173
326.113
324.2
324.92
324.457
324.652
326.057
322.902
323.651
323.892
323.7
324.932
318.76
315.965
313.817
315.988
317.112
319.276
317.825
316.934
318.185
319.228
318.934
317.595
317.89
317.948
317.771
318.469
317.483
312.605
317.337
318.271
311.592
309.307
309.856
309.664
310.169
313.124
309.734
311.475
310.031
310.089
314.149
310.065
310.304
309.147
309.818
308.712
312.555
309.698
311.155
308.916
304.478
301.758
304.497
302.565
305.876
304.693
302.642
301.853
302.694
304.528
304.292
304.938
304.589
302.224
302.634
304.71
302.25
303.705
306.613
303.399
353.833
352.313
351.13
353.615
353.191
352.05
354.421
353.586
353.333
356.361
355.999
353.825
354.577
354.668
352.811
352.162
347.791
352.487
348.155
351.758
345.866
344.726
345.253
345.792
346.585
347.287
344.288
348.38
344.703
349.683
349.468
350.26
348.663
348.013
347.398
343.491
346.271
342.998
344.447
345.46
339.754
335.339
338.565
336.75
337.836
336.567
339.415
338.857
340.96
341.086
340.25
340.068
337.907
340.094
337.767
338.311
334.472
337.718
338.323
338.567
332.774
331.166
328.125
330.253
330.4
334.079
330.626
333.04
333.983
335.086
332.943
330.984
331.887
331.938
331.151
331.109
328.066
330.206
329.078
333.183
328.115
323.881
326.049
325.22
327.092
327.097
323.506
327.303
326.249
328.098
326.011
324.747
324.25
326.111
323.414
322.67
323.544
322.82
323.831
323.226
317.555
319.351
319.049
317.01
316.548
318.176
315.968
317.846
318.268
319.483
320.463
318.457
320.248
316.196
317.081
317.958
316.323
316.623
316.86
315.942
311.456
310.869
312.303
309.905
311.77
311.054
311.066
309.247
310.927
310.002
312.04
310.382
310.529
310.917
312.148
308.263
312.593
310.687
310.936
311.839
305.597
300.919
305.272
303.109
303.511
303.406
305.963
306.175
303.949
300.435
303.06
303.738
302.38
302.038
305.408
304.784
306.291
301.718
304.557
300.142
354.388
352.951
352.63
351.442
350.899
357.173
355.654
355.595
356.931
358.145
356.156
355.03
355.223
356.545
353.537
350.622
349.753
354.103
353.793
352.713
348.086
346.37
345.267
347.841
346.109
348.293
348.253
345.543
348.721
348.64
346.9
348.635
345.797
347.05
346.776
345.941
345.665
342.326
345.438
347.595
341.067
338.121
337.894
337.485
336.235
340.378
340.308
340.349
342.952
340.623
341.541
343.628
339.114
343.056
339.612
339.092
336.437
338.4
337.621
339.457
337.1
332.485
329.979
332.797
329.82
332.157
333.999
333.815
333.873
336.129
335.708
332.819
334.972
334.097
333.196
332.01
332.534
333.548
334.271
335.586
326.054
323.841
322.293
322.304
323.622
326.683
325.386
324.727
324.287
325.864
327.24
329.221
326.666
326.011
325.291
321.817
322.863
326.401
326.989
324.416
318.841
318.562
316.954
317.766
319.522
316.703
317.398
319.901
319.122
321.672
315.862
318.503
319.921
316.747
318.06
315.791
316.121
316.696
318.664
316.083
311.022
309.731
310.215
308.706
311.642
312.156
312.903
311.932
311.89
311.088
312.322
311.707
311.973
309.678
309.829
311.918
309.28
311.025
309.349
309.571
307.249
302.525
299.85
302.236
304.722
303.433
305.025
301.32
302.138
304.693
306.727
303.348
303.928
302.498
301.995
303.768
301.463
303.504
302.31
301.838
353.482
353.732
356.155
351.595
351.018
354.171
355.835
357.615
358.29
358.258
358.818
360.326
356.3
354.694
354.208
352.481
353.108
350.766
353.433
355.748
349.608
346.151
347.081
347.466
346.634
348.917
346.102
349.473
349.574
350.061
350.07
350.724
350.05
346.957
349.048
349.249
347.114
347.554
346.039
346.347
342.997
340.621
337.675
340.079
339.151
341.757
342.236
342.165
342.112
344.013
344.931
341.576
340.3
341.707
341.696
340.268
341.52
336.848
338.891
340.681
334.261
332.112
332.669
333.976
331.9
331.747
335.022
333.288
332.214
334.779
332.276
335.817
334.037
334.854
332.692
335.103
334.276
331.486
333.425
331.741
326.858
323.003
323.825
322.747
324.893
324.965
323.791
327.511
328.208
328.051
326.161
322.966
327.122
325.659
327.476
322.54
326.001
325.745
329.405
327.312
316.028
315.98
319.352
317.239
318.209
317.458
318.22
316.316
318.704
317.455
321.678
321.421
318.996
317.425
318.306
318.866
319.968
319.162
319.132
317.537
311.577
311.325
310.726
314.217
312.175
311.882
312.074
310.489
310.883
310.335
311.499
311.811
311.677
311.776
311.82
311.586
309.119
309.713
308.38
310.919
302.513
304.257
305.27
303.624
303.396
303.483
305.296
301.94
304.494
304.063
302.621
304.118
303.073
303.263
307.564
304.409
301.716
301.718
304.177
303.9
359.638
355.011
354.172
353.676
357.968
357.444
356.682
358.426
357.812
360.374
359.334
359.917
356.851
360.919
355.155
356.17
355.754
354.05
353.443
354.496
349.312
350.103
348.623
345.67
347.773
348.945
348.033
350.634
353.438
350.051
350.02
353.054
351.79
352.25
349.19
349.109
347.155
346.542
348.298
347.56
339.819
343.267
340.393
339.082
341.264
342.651
341.771
346.114
343.072
343.746
344.02
343.459
345.549
342.422
341.578
342.44
342.078
338.127
340.184
341.333
334.56
334.832
334.79
333.432
334.236
334.999
334.228
332.787
335.902
337.064
337.696
337.809
334.663
335.094
333.278
333.849
333.458
331.963
334.038
332.375
329.003
324.538
327.287
327.318
326.945
324.333
326.242
328.57
325.256
329.288
328.885
328.803
327.307
325.438
330.033
326.108
328.452
326.869
323.822
325.755
318.941
318.417
319.275
320.517
321.783
317.522
319.321
320.728
317.589
320.367
319.702
321.69
318.898
320.309
318.86
318.809
316.749
316.738
317.97
318.249
311.293
312.931
309.466
311.121
310.744
312.745
308.56
310.465
311.355
313.018
310.922
311.951
314.12
312.203
312.092
309.355
313.237
312.774
309.882
312.113
306.157
302.699
305.305
305.192
302.319
303.601
305.631
304.567
304.923
304.144
302.731
304.343
306.403
304.155
302.465
303.522
303.747
304.53
306.703
303.309
358.706
357.543
357.861
358.085
359.615
358.229
360.212
359.931
361.275
359.546
360.815
361.889
360.142
357.99
359.714
356.565
354.886
356.143
357.493
358.059
350.079
348.119
347.34
349.112
348.16
350.549
352.063
351.965
353.862
351.672
351.626
354.95
351.259
353.135
350.093
352.45
348.829
350.417
347.925
350.478
345.162
344.381
342.595
340.077
341.957
344.242
344.271
343.109
343.666
344.791
346.109
344.62
345.439
341.598
344.047
341.199
342.693
341.986
340.135
342.982
334.891
337.294
335.403
335.78
334.908
333.622
336.599
338.767
334.802
338.405
336.588
334.701
336.245
336.115
334.448
331.606
333.346
333.63
332.049
334.408
322.428
327.759
326.618
327.384
328.893
328.671
327.707
327.845
331.569
329.886
327.763
328.709
327.981
330.336
325.377
329.651
325.287
325.657
328.005
327.814
318.999
319.953
320.204
316.781
320.179
319.058
318.176
319.471
320.495
318.918
321.847
320.94
320.572
319.277
320.909
321.045
316.541
319.526
319.542
318.808
312.014
310.024
311.93
312.293
308.51
309.912
312.317
309.323
313.023
310.898
311.461
314.384
311.521
311.735
313.231
310.616
311.294
311.927
311.774
312.891
305.132
303.521
303.37
301.888
300.131
303.424
304.64
303.004
303.725
302.923
304.009
302.804
304.252
302.867
306.307
303.272
304.868
305.288
301.944
303.419
360.227
358.936
358.591
358.115
358.868
358.626
359.622
362.538
360.265
361.045
363.821
363.189
364.683
360.542
361.004
358.333
358.876
357.36
359.011
357.952
354.437
353.354
352.528
350.129
352.052
350.63
352.046
353.356
355.386
358.265
354.269
356.468
353.788
352.26
355.277
352.218
351.551
351.684
352.635
353.656
342.97
346.053
346.629
344.312
340.627
342.93
344.812
347.03
345.468
347.439
345.959
346.372
347.285
346.273
345.625
342.172
343
343.342
344.299
342.17
336.401
336.822
333.25
332.249
336.851
337.168
335.412
335.945
337.118
341.118
338.361
339.615
338.014
339.273
335.321
337.698
337.939
335.905
337.319
336.924
327.403
328.565
327.906
326.411
329.588
326.454
328.285
326.676
329.12
331.34
329.57
330.791
330.325
329.599
328.487
328.241
326.972
327.016
328.979
328.133
319.841
322.609
320.366
318.967
321.635
319.538
321.264
320.004
322.076
319.848
321.499
321.946
321.178
321.817
319.111
321.026
317.933
319.675
320.208
320.664
311.108
314.221
310.538
313.234
311.674
310.94
313.29
309.178
310.248
313.165
312.351
312.405
312.695
313.273
312.024
312.591
309.526
312.734
312.021
312.468
307.252
304.211
304.669
304.3
302.893
302.617
303.309
306.185
303.485
301.539
304.413
305.926
307.236
302.669
301.783
304.666
306.55
300.249
304.485
303.041
364.621
360.604
361.328
361.444
360.746
360.593
362.829
362.535
363.117
363.249
365.922
365.587
362.037
360.697
361.916
360.769
360.743
360.621
363.862
360.405
355.541
349.745
352.063
351.352
353.841
352.743
352.129
353.562
356.351
353.74
354.336
355.313
352.986
354.439
352.662
350.646
352.097
351.598
350.949
352.547
346.931
342.921
343.111
343.566
342.414
345.272
346.542
343.813
348.496
350.282
348.292
347.613
347.785
346.233
345.882
344.472
345.336
343.473
347.306
347.263
338.623
335.466
333.537
337.091
336.548
337.052
338.803
335.96
337.548
337.944
341.802
339.717
337.276
336.33
337.182
336.843
336.615
339.264
337.736
335.944
326.664
330.365
328.131
328.207
326.843
327.756
329.408
330.264
328.835
330.783
326.369
332.488
330.048
327.949
328.539
327.172
327.727
326.278
329.976
329.884
321.192
320.057
322.251
319.878
321.549
321.484
323.146
320.953
322.76
322.268
322.459
321.559
323.274
321.079
319.551
318.687
322.566
321.715
320.798
320.202
314.2
314.365
313.337
311.557
311.502
312.797
313.092
310.086
314.024
312.635
313.626
312.236
313.432
309.362
311.432
313.503
313.253
311.912
313.378
312.147
301.43
305.338
300.488
305.056
302.291
305.365
303.594
303.553
303.843
303.628
303.603
303.537
303.24
304.728
303.641
304.663
301.919
306.463
305.686
303.112
364.445
363.149
364.134
360.698
361.666
361.354
366.638
364.768
365.213
366.709
367.512
366.985
366.315
364.604
362.724
363.099
363.803
363.653
360.18
366.72
357.039
352.207
352.661
353.683
356.924
353.964
355.61
354.686
355.283
354.641
355.23
358.202
355.498
356.216
354.221
355.282
353.079
354.433
351.54
353.138
345.643
346.21
347.107
345.49
346.8
347.063
347.64
347.706
347.47
347.894
348.838
350.408
349.794
348.285
344.565
345.678
347.287
342.224
346.445
346.514
339.673
337.813
335.6
335.524
340.049
336.89
336.413
338.867
340.156
339.659
340.549
339.911
341.266
337.864
339.681
337.68
336.108
337.943
338.14
342.189
330.376
327.859
331.09
327.869
330.874
331.95
330.145
328.783
330.758
330.869
328.493
331.993
333.188
328.452
328.679
328.037
329.752
327.883
330.777
328.25
321.97
321.852
321.956
321.442
324.181
320.815
320.654
319.162
322.731
321.894
322.888
320.837
319.477
323.572
320.54
321.424
321.12
316.687
320.497
323.078
312.085
311.633
313.858
310.115
309.155
312.491
310.998
314.44
313.666
315.036
313.843
313.634
314.761
313.327
314.659
314.215
313.153
313.751
311.386
312.872
304.388
302.096
302.541
306.843
303.278
305.966
303.097
305.895
304.945
305.5
308.427
303.373
303.788
305.512
304.121
305.559
304.738
303.618
303.906
306.688
365.411
366.177
362.631
364.992
363.604
365.819
364.97
363.622
365.61
369.151
366.369
368.278
367.513
365.394
364.866
365.585
361.872
364.866
363.692
366.884
355.262
357.677
357.015
354.287
353.706
356.572
357.332
357.349
357.73
356.904
359.4
359.677
356.428
358.51
355.722
356.071
356.489
357.315
354.409
355.4
351.245
351.439
346.049
344.206
347.472
347.717
347.325
348.836
349.81
351.421
351.093
349.81
348.109
349.517
345.844
347.474
348.417
346.61
344.576
348.919
337.683
335.27
340.86
336.672
338.545
339.23
337.23
338.941
340.274
339.074
339.316
341.047
340.028
340.777
338.998
337.824
339.941
339.622
338.093
342.073
333.864
328.229
329.654
329.988
330.259
330.226
329.839
329.54
330.356
330.58
331.537
333.215
332.324
330.778
330.303
329.904
331.501
329.507
330.344
328.645
321.489
323.149
320.936
323.178
322.825
321.339
323.299
322.688
320.011
324.285
323.977
321.099
321.202
319.801
319.802
321.863
319.132
319.482
323.667
321.997
312.262
311.976
314.459
314.951
314.808
315.158
313.293
313.034
312.131
315.135
312.985
313.759
314.774
313.892
313.934
314.116
313.537
312.539
311.545
311.988
305.167
304.066
303.936
302.619
306.265
304.604
306.091
304.624
307.231
302.812
308.403
304.652
303.294
302.533
305.099
305.362
306.933
303.475
305.192
303.856
368.901
365.015
365.92
366.464
367.072
365.311
365.939
367.555
371.143
369.015
371.57
370.409
369.485
367.952
367.146
367.325
365.195
367.583
366.845
368.558
359.445
355.976
357.553
356.504
355.012
357.277
357.942
357.773
359.41
358.009
358.262
362.63
358.069
361.435
357.577
358.341
356.39
357.806
354.627
356.883
351.708
346.266
348.892
346.937
348.947
348.29
350.164
347.8
348.236
349.491
351.142
352.059
351.457
350.395
349.323
350.114
347.262
350.852
349.004
350.324
339.746
341.103
337.61
341.344
339.96
341.847
341.265
342.042
340.56
341.958
343.028
339.768
340.541
341.249
343.62
339.732
339.973
339.833
339.284
338.937
329.988
333.345
333.783
331.318
333.684
330.291
333.101
332.986
334.253
331.071
334.963
332.231
330.298
331.29
331.846
330.701
332.11
331.622
332.213
332.726
323.711
322.839
321.243
321.664
322.883
323.169
324.149
320.994
321.778
323.112
323.144
324.353
321.577
322.859
323.171
322.066
321.941
324.316
321.031
324.883
312.17
314.43
315.1
312.126
312.831
311.582
313.277
315.819
313.014
314.673
315.512
312.303
315.74
315.456
314.262
310.353
313.997
313.981
312.747
312.113
305.193
303.697
303.81
304.499
304.372
306.588
299.981
304.326
306.707
306.695
303.726
304.927
304.154
306.082
305.709
307.758
305.246
303.233
305.881
304.73
369.279
370.028
370.401
368.838
367.174
366.339
366.523
369.054
368.381
371.763
371.084
369.051
371.579
369.978
370.219
369.699
366.663
369.216
368.96
367.754
360.813
358.725
361.129
356.307
357.12
358.812
358.087
358.334
358.046
360.511
362.808
362.403
363.141
362.461
359.447
362.258
357.979
362.537
361.654
361.04
351.55
351.443
351.485
350.936
349.921
348.587
349.965
349.35
349.001
351.873
353.259
350.704
351.616
350.608
348.547
350.09
350.255
350.395
350.097
351.135
342.43
341.55
341.721
341.483
341.469
339.863
342.483
341.656
340.85
341.188
343.01
344.376
344.155
339.717
341.616
342.807
341.549
339.847
340.81
341.936
333.817
333.459
333.144
331.946
328.769
330.182
333.892
332.063
332.845
334.689
334.857
334.785
332.547
332.982
330.777
331.3
331.313
330.106
334.283
333.627
321.694
325.173
322.479
322.318
322.923
322.166
323.115
322.705
325.791
323.279
323.478
323.351
322.605
324.671
322.413
321.874
324.141
322.599
321.227
323.058
314.235
316.324
312.816
313.99
313.797
313.962
314.312
314.149
315.656
312.848
315.135
314.042
316.966
314.541
312.458
311.593
313.86
312.414
312.205
312.939
302.913
304.017
304.296
303.352
304.678
302.806
305.285
306.634
306.886
306.662
306.961
303.33
303.667
304.053
307.331
303.804
303.075
305.682
306.721
307.018
375.24
369.723
371.847
367.46
370.242
370.945
369.454
370.629
372.709
372.313
374.14
371.792
373.082
372.361
373.611
371.502
369.533
370.532
371.494
370.584
361.614
359.105
361.44
360.582
359.785
360.42
361.352
361.472
363.682
361.137
361.975
361.743
361.738
363.22
361.207
361.07
360.089
360.829
359.852
361.138
350.572
353.257
353.788
350.105
353.544
351.482
352.496
351.409
352.315
353.233
354.053
356.301
352.274
352.747
352.458
352.944
350.346
351.324
352.406
354.5
345.512
344.405
342.387
345.931
343.033
341.702
341.373
343.895
343.57
342.412
343.349
344.57
342.791
340.799
342.817
342.229
343.75
342.368
342.233
343.728
334.579
333.362
332.899
334.295
332.907
335.049
335.279
333.959
334.725
332.36
333.368
333.846
332.172
331.498
335.665
330.684
331.526
331.338
331.85
332.879
324.403
324.366
324.111
320.697
324.215
322.351
322.914
323.159
322.945
321.708
327.885
324.808
323.122
324.278
325.256
323.998
321.599
323.639
325.684
323.573
315.844
314.109
314.476
314.382
313.277
316.15
314.592
313.644
315.604
313.838
314.714
313.299
316.326
313.426
315.319
315.599
314.972
315.072
313.795
314.738
304.706
302.822
306.248
306.903
304.282
304.405
306.316
306.529
303.822
305.03
308.647
303.412
305.925
304.181
303.792
305.052
303.608
305.467
302.998
304.332
374.213
373.237
370.806
373.195
370.556
372.132
370.206
369.857
373.902
374.79
373.022
375.224
373.476
372.256
371.98
371.303
370.764
372.579
371.388
371.275
365.94
363.224
362.849
360.899
363.753
361.611
363.684
363.084
363.353
361.304
362.508
364.57
364.262
363.785
361.805
363.93
363.407
362.476
363.108
365.759
355.498
356.384
352.303
352.672
353.769
351.933
352.522
352.899
354.469
352.7
352.044
353.653
354.349
352.703
352.557
355.125
354.616
350.299
354.312
354.879
343.423
344.17
343.417
345.313
341.766
342.511
343.482
344.814
342.654
343.211
344.598
344.736
345.434
342.835
343.354
344.668
343.057
342.719
342.393
344.916
334.462
335.729
334.205
337.385
333.27
335.385
333.248
334.957
334.265
332.709
335.493
337.414
333.093
332.543
335.41
333.278
333.151
335.488
336.384
334.321
325.525
326.287
322.921
322.649
323.118
321.829
324.638
326.494
323.721
324.579
324.559
323.596
324.775
323.717
323.278
324.767
324.851
325.715
323.149
324.712
314.364
315.613
314.938
315.039
314.539
317.151
315.115
314.575
314.564
312.145
314.168
315.536
318.242
314.23
314.054
315.198
312.316
313.454
314.35
314.52
303.477
304.366
304.734
304.59
303.949
304.07
304.85
308.545
304.616
303.921
306.355
304.643
307.582
304.37
303.861
304.67
304.989
304.156
303.186
306.729
376.108
373.144
374.655
371.872
372.967
373.357
372.557
375.222
373.79
377.067
377.486
373.086
373.379
373.113
374.752
372.705
374.924
374.148
373.342
377.171
365.997
364.271
368.67
364.603
363.004
365.452
361.091
366.262
363.546
366.297
366.245
366.578
366.743
364.681
365.259
362.185
365.25
365.379
364.749
363.205
358.035
355.385
353.193
355.238
353.034
354.122
353.995
353.753
352.756
355.246
351.967
353.771
353.327
353.967
356.615
352.226
353.155
357.161
354.446
358.973
346.825
341.25
343.473
344.756
345.643
344.17
344.155
343.388
344.748
346.442
346.225
346.185
342.608
344.182
344.89
343.834
346.112
345.545
344.983
346.612
334.093
337.209
335.137
334.615
334.748
332.214
336.889
332.539
335.633
335.843
336.891
336.49
338.854
334.997
336.265
336.295
336.044
337.087
333.519
335.201
328.283
325.802
323.711
322.314
323.513
321.664
325.697
326.282
323.601
325.345
324.493
327.581
325.533
323.072
323.735
324.387
326.111
328.162
326.269
324.82
316.288
316.14
316.377
315.401
315.322
316.347
313.913
313.312
316.145
313.143
315.391
316.693
312.411
318.55
314.102
315.466
314.429
314.95
314.385
315.661
303.504
305.292
305.868
304.87
305.659
305.158
305.738
302.909
306.085
306.147
301.017
303.877
306.437
302.231
304.036
306.22
307.205
305.18
303.722
304.276
376.412
379.405
375.802
373.751
375.638
373.521
376.075
373.646
375.605
377.373
377.203
376.443
376.412
377.154
372.569
376.608
376.816
375.436
377.788
375.569
367.68
366.834
367.195
365.898
367.109
363.589
367.176
367.059
365.923
363.437
366.14
365.481
364.863
366.973
363.141
365.345
366.564
362.929
366.537
368.896
356.414
356.626
356.953
357.827
354.474
355.911
353.515
352.895
354.459
355.507
356.354
357.091
355.889
355.256
356.908
354.151
358.057
356.135
355.75
358.711
347.78
347.753
344.643
347.124
344.688
342.984
345.797
344.536
348.229
344.777
347.67
345.051
345.546
344.87
345.981
345.529
347.106
342.423
345.606
345.039
337.61
337
336.014
335.76
338.595
336.325
334.431
335.625
335.241
334.651
337.785
334.276
335.858
335.037
337.072
335.516
337.265
335.929
336.621
337.891
327.894
323.304
323.523
325.764
323.39
325.909
323.825
324.767
327.778
326.221
326.501
323.911
326.367
325.186
326.38
323.886
326.536
326.821
326.923
324.945
317.467
315.671
313.223
316.588
315.647
317.524
313.185
315.226
314.641
315.923
314.966
315.427
317.232
316.681
313.932
314.785
316.003
317.048
314.607
316.027
305.477
305.041
304.507
303.023
305.161
304.463
305.236
305.28
305.908
306.06
302.924
304.496
303.367
305.658
305.762
303.287
306.301
308.505
305.495
303.841
380.13
378.789
377.337
375.804
377.483
376.196
375.96
376.85
375.627
376.706
376.6
377.416
376.994
379.415
378.026
375.928
377.639
379.413
377.993
376.011
366.648
368.814
367.848
369.983
366.583
370.12
368.362
370.172
368.551
370.807
370.193
366.469
370.102
366.617
370.195
367.222
369.909
367.131
369.437
368.075
359.323
355.728
356.541
357.498
358.335
356.08
357.083
357.035
356.63
360.065
354.396
356.737
355.76
354.303
357.256
355.93
356.302
356.648
357.042
358.695
348.256
346.029
346.093
344.72
346.287
342.247
347.013
348.37
346.585
345.656
346.167
346.194
347.876
347.123
346.571
346.381
343.401
347.071
348.088
347.314
336.906
335.364
332.632
337.194
334.942
334.221
334.764
338.165
334.933
335.128
337.77
336.81
334.584
335.774
336.488
336.178
335.959
335.376
337.931
334.491
324.79
327.283
327.174
324.118
325.155
324.52
326.782
326.92
324.221
327.659
326.8
325.876
326.678
324.109
322.52
327
325.06
325.313
328.543
326.73
315.421
315.937
316.021
315.974
313.911
316.709
315.772
317.782
319.205
314.955
317.667
315.262
314.559
315.686
315.877
313.854
318.028
315.92
318.552
315.134
305.32
305.259
306.153
305.553
309.1
306.458
306.409
306.718
307.217
306.111
304.711
306.554
306.645
302.643
304.028
304.932
302.537
307.785
305.79
307.232
378.422
380.939
379.396
378.135
377.46
379.896
376.794
380.075
377.219
380.625
379.898
375.528
377.685
378.453
379.056
376.207
378.458
379.668
377.968
378.871
371.151
370.067
370.233
366.875
369.142
367.745
366.698
368.401
364.337
369.052
369.415
369.562
369.311
366.92
369.067
365.444
367.979
369.713
369.264
370.758
358.966
358.081
358.619
357.792
358.698
356.183
356.624
357.608
356.521
356.42
357.368
355.163
359.04
356.703
359.404
359.494
356.129
358.527
358.634
359.059
345.864
347.669
347.929
346.775
349.068
344.333
346.129
346.715
349.886
345.362
346.324
344.956
348.371
344.999
347.063
345.976
346.066
349.081
348.443
345.989
339.019
337.702
335.5
334.162
338.8
337.879
338.378
336.419
336.302
336.277
337.39
337.056
336.891
336.775
335.65
336.705
335.585
335.107
336.675
336.078
327.701
327.436
327.673
325.933
325.678
327.958
327.314
324.947
325.515
328.042
325.905
325.47
323.013
325.505
327.731
326.414
326.152
325.719
324.56
325.049
312.807
316.374
318.265
316.287
312.967
316.627
314.541
316.934
316.094
314.477
314.469
312.473
317.954
316.025
317.975
314.365
316.569
315.386
315.26
315.51
305.02
304.809
305.195
303.187
304.753
306.471
304.292
307.082
305.685
306.896
305.622
306.122
304.889
303.647
302.801
303.531
306.664
305.938
305.902
305.55
)
;

boundaryField
{
    hotSide
    {
        type            fixedGradient;
        gradient        nonuniform List<scalar> 
400
(
321.511
322.87
325.591
329.677
335.133
341.965
350.181
359.788
370.794
383.208
397.037
412.289
428.971
447.088
466.647
487.651
510.105
534.011
559.372
586.191
323.738
325.08
327.767
331.802
337.194
343.949
352.078
361.591
372.498
384.81
398.537
413.687
430.268
448.289
467.755
488.672
511.043
534.872
560.161
586.913
326.149
327.47
330.116
334.091
339.406
346.071
354.099
363.503
374.296
386.491
400.101
415.136
431.606
449.52
468.885
489.706
511.988
535.735
560.948
587.63
328.704
330
332.597
336.503
341.73
348.292
356.205
365.485
376.15
388.215
401.695
416.604
432.954
450.753
470.009
490.73
512.919
536.579
561.714
588.325
331.33
332.599
335.142
338.97
344.099
350.546
358.332
367.477
378.003
389.928
403.271
418.047
434.27
451.949
471.095
491.712
513.807
537.382
562.439
588.978
333.918
335.158
337.643
341.389
346.414
352.74
360.392
369.397
379.779
391.562
404.765
419.407
435.503
453.065
472.101
492.618
514.622
538.114
563.096
589.569
336.321
337.531
339.959
343.622
348.544
354.751
362.274
371.142
381.385
393.031
406.101
420.618
436.595
454.047
472.983
493.409
515.33
538.747
563.663
590.076
338.36
339.543
341.92
345.509
350.339
356.44
363.847
372.595
382.718
394.244
407.2
421.608
437.485
454.844
473.695
494.045
515.897
539.253
564.114
590.478
339.852
341.015
343.352
346.885
351.645
357.665
364.985
373.643
383.675
395.113
407.984
422.312
438.116
455.407
474.197
494.491
516.294
539.606
564.428
590.758
340.643
341.795
344.11
347.613
352.334
358.311
365.584
374.193
384.176
395.567
408.393
422.679
438.443
455.699
474.456
494.722
516.498
539.788
564.589
590.901
340.643
341.795
344.11
347.613
352.334
358.311
365.584
374.193
384.176
395.567
408.393
422.679
438.443
455.699
474.456
494.722
516.498
539.788
564.589
590.901
339.852
341.015
343.352
346.885
351.645
357.665
364.985
373.643
383.675
395.113
407.984
422.312
438.116
455.407
474.197
494.491
516.294
539.606
564.428
590.758
338.36
339.543
341.92
345.509
350.339
356.44
363.847
372.595
382.718
394.244
407.2
421.608
437.485
454.844
473.695
494.045
515.897
539.253
564.114
590.478
336.321
337.531
339.959
343.622
348.544
354.751
362.274
371.142
381.385
393.031
406.101
420.618
436.595
454.047
472.983
493.409
515.33
538.747
563.663
590.076
333.918
335.158
337.643
341.389
346.414
352.74
360.392
369.397
379.779
391.562
404.765
419.407
435.503
453.065
472.101
492.618
514.622
538.114
563.096
589.569
331.33
332.599
335.142
338.97
344.099
350.546
358.332
367.477
378.003
389.928
403.271
418.047
434.27
451.949
471.095
491.712
513.807
537.382
562.439
588.978
328.704
330
332.597
336.503
341.73
348.292
356.205
365.485
376.15
388.215
401.695
416.604
432.954
450.753
470.009
490.73
512.919
536.579
561.714
588.325
326.149
327.47
330.116
334.091
339.406
346.071
354.099
363.503
374.296
386.491
400.101
415.136
431.606
449.52
468.885
489.706
511.988
535.735
560.948
587.63
323.738
325.08
327.767
331.802
337.194
343.949
352.078
361.591
372.498
384.81
398.537
413.687
430.268
448.289
467.755
488.672
511.043
534.872
560.161
586.913
321.511
322.87
325.591
329.677
335.133
341.965
350.181
359.788
370.794
383.208
397.037
412.289
428.971
447.088
466.647
487.651
510.105
534.011
559.372
586.191
)
;
    }
    coldSide
    {
        type            mixed;
        refValue        uniform 300;
        refGradient     uniform 0;
        valueFraction   uniform 0.991591;
        source          uniform 0;
        value           nonuniform List<scalar> 
400
(
300.015
300.038
300.038
300.047
300.061
300.021
300.052
300.043
300.061
300.012
300.037
300.043
300.044
300.024
300.04
300.029
300.029
300.046
300.045
300.042
300.011
300.017
300.015
300.008
300.021
300.036
300.023
300.03
300.035
300.045
300.018
300.034
300.031
300.034
300.024
300.037
300.045
300.042
300.044