/*--------------------------------*- C++ -*----------------------------------*\
| =========                 |                                                 |
| \\      /  F ield         | OpenFOAM: The Open Source CFD Toolbox           |
|  \\    /   O peration     | Version:  2212                                  |
|   \\  /    A nd           | Website:  www.openfoam.com                      |
|    \\/     M anipulation  |                                                 |
\*---------------------------------------------------------------------------*/
FoamFile
{
    version     2.0;
    format      ascii;
    arch        "LSB;label=32;scalar=64";
    class       volScalarField;
    location    "0";
    object      T;
}
// * * * * * * * * * * * * * * * * * * * * * * * * * * * * * * * * * * * * * //

dimensions      [0 0 0 1 0 0 0];

internalField   nonuniform List<scalar> 
3200
(
353.361
351.795
350.484
349.997
349.897
350.258
350.695
351.249
351.479
351.702
351.447
350.886
350.141
348.911
347.855
346.8
346.153
346.116
346.673
347.802
346.266
344.992
343.856
343.441
343.325
343.639
344.036
344.548
344.774
344.955
344.729
344.272
343.605
342.576
341.666
340.75
340.226
340.198
340.648
341.622
339.186
338.128
337.175
336.857
336.698
336.966
337.319
337.803
337.981
338.142
337.951
337.595
337.009
336.147
335.388
334.618
334.191
334.156
334.548
335.347
332.09
331.248
330.451
330.218
330.064
330.29
330.569
330.991
331.136
331.287
331.125
330.856
330.356
329.673
329.034
328.411
328.054
328.032
328.356
328.995
324.987
324.359
323.717
323.537
323.417
323.58
323.802
324.163
324.255
324.376
324.263
324.086
323.642
323.124
322.641
322.166
321.89
321.864
322.089
322.584
317.878
317.421
316.959
316.825
316.758
316.856
317.006
317.284
317.348
317.454
317.358
317.227
316.918
316.544
316.224
315.858
315.662
315.644
315.805
316.141
310.742
310.481
310.186
310.095
310.083
310.116
310.212
310.378
310.437
310.497
310.434
310.353
310.174
309.958
309.763
309.538
309.417
309.407
309.502
309.692
303.606
303.517
303.407
303.373
303.381
303.392
303.426
303.481
303.503
303.527
303.5
303.478
303.421
303.343
303.272
303.2
303.154
303.159
303.183
303.243
353.644
352.089
350.81
350.397
350.351
350.703
351.207
351.741
352.083
352.246
351.99
351.607
350.738
349.653
348.473
347.234
346.507
346.415
346.873
348.04
346.51
345.242
344.135
343.765
343.711
344.035
344.49
344.942
345.249
345.417
345.177
344.851
344.114
343.185
342.188
341.136
340.526
340.444
340.83
341.806
339.369
338.352
337.437
337.09
337.044
337.33
337.72
338.121
338.367
338.546
338.314
338.049
337.442
336.661
335.821
334.948
334.464
334.385
334.697
335.492
332.233
331.428
330.67
330.403
330.355
330.596
330.895
331.257
331.449
331.624
331.397
331.177
330.7
330.076
329.404
328.683
328.32
328.24
328.48
329.145
325.086
324.479
323.87
323.668
323.628
323.831
324.058
324.353
324.512
324.65
324.463
324.286
323.903
323.431
322.926
322.363
322.064
322.006
322.216
322.745
317.944
317.518
317.06
316.922
316.896
317.034
317.209
317.409
317.542
317.623
317.497
317.376
317.099
316.736
316.394
315.994
315.782
315.737
315.898
316.285
310.776
310.537
310.233
310.166
310.144
310.234
310.353
310.467
310.537
310.595
310.516
310.425
310.258
310.056
309.847
309.605
309.476
309.441
309.563
309.801
303.606
303.527
303.426
303.407
303.399
303.424
303.477
303.512
303.534
303.551
303.518
303.492
303.437
303.371
303.302
303.214
303.173
303.16
303.206
303.282
354.146
352.529
351.389
350.941
350.985
351.341
351.937
352.5
352.968
353.282
353.043
352.538
351.645
350.572
349.291
348.111
347.283
347.041
347.578
348.582
346.963
345.602
344.641
344.251
344.276
344.585
345.1
345.601
346
346.285
346.074
345.669
344.883
344.004
342.887
341.887
341.196
340.974
341.457
342.32
339.762
338.642
337.86
337.513
337.541
337.783
338.241
338.664
338.998
339.242
339.061
338.716
338.053
337.356
336.421
335.568
335
334.825
335.255
335.95
332.581
331.651
331.01
330.757
330.764
330.942
331.322
331.681
331.957
332.166
331.996
331.729
331.192
330.627
329.9
329.206
328.728
328.589
328.935
329.498
325.382
324.618
324.142
323.957
323.95
324.092
324.382
324.664
324.894
325.047
324.906
324.695
324.3
323.886
323.328
322.796
322.394
322.283
322.562
322.973
318.176
317.599
317.271
317.137
317.123
317.233
317.442
317.629
317.815
317.908
317.792
317.65
317.375
317.08
316.703
316.313
316.054
315.96
316.159
316.434
310.934
310.572
310.382
310.307
310.307
310.35
310.472
310.594
310.709
310.764
310.684
310.595
310.445
310.251
310.055
309.805
309.662
309.591
309.701
309.893
303.665
303.539
303.486
303.459
303.459
303.465
303.507
303.552
303.59
303.614
303.586
303.548
303.501
303.431
303.376
303.295
303.238
303.213
303.255
303.317
354.812
353.309
352.336
351.769
351.795
352.242
353.099
353.728
354.209
354.501
354.354
353.805
352.908
351.766
350.359
349.205
348.186
347.922
348.415
349.474
347.543
346.276
345.46
344.948
344.971
345.357
346.102
346.66
347.079
347.373
347.196
346.75
345.991
345.033
343.84
342.854
341.97
341.767
342.165
343.062
340.256
339.236
338.551
338.11
338.117
338.407
339.075
339.553
339.9
340.174
339.994
339.647
338.994
338.221
337.217
336.392
335.658
335.513
335.847
336.584
332.955
332.167
331.597
331.235
331.236
331.439
332.013
332.414
332.694
332.935
332.756
332.501
331.961
331.385
330.549
329.871
329.256
329.167
329.438
330.01
325.638
325.057
324.621
324.324
324.317
324.489
324.926
325.232
325.444
325.668
325.526
325.312
324.906
324.458
323.817
323.277
322.819
322.779
322.984
323.379
318.324
317.918
317.618
317.378
317.365
317.52
317.83
318.041
318.181
318.374
318.283
318.111
317.815
317.49
317.031
316.647
316.336
316.307
316.465
316.732
311.025
310.747
310.593
310.443
310.435
310.527
310.727
310.84
310.927
311.052
310.991
310.88
310.709
310.521
310.211
310.01
309.818
309.797
309.902
310.055
303.694
303.595
303.546
303.496
303.487
303.526
303.604
303.643
303.662
303.702
303.688
303.65
303.592
303.535
303.422
303.362
303.292
303.279
303.326
303.377
355.885
354.6
353.534
352.918
353.072
353.487
354.259
355.011
355.525
355.88
355.871
355.386
354.353
353.173
351.636
350.303
349.428
349.106
349.528
350.706
348.462
347.405
346.486
345.953
346.101
346.426
347.102
347.758
348.226
348.537
348.538
348.108
347.262
346.256
344.916
343.802
343.034
342.791
343.169
344.158
341.007
340.166
339.388
338.946
339.095
339.328
339.911
340.484
340.859
341.139
341.131
340.78
340.108
339.26
338.129
337.191
336.545
336.376
336.681
337.513
333.57
332.898
332.252
331.921
332.059
332.202
332.689
333.161
333.468
333.702
333.688
333.431
332.877
332.204
331.27
330.511
329.988
329.868
330.14
330.786
326.129
325.628
325.11
324.858
324.969
325.072
325.433
325.834
326.054
326.256
326.218
326.053
325.628
325.112
324.362
323.793
323.391
323.294
323.525
323.993
318.682
318.338
317.958
317.772
317.866
317.921
318.174
318.488
318.636
318.787
318.743
318.662
318.354
317.975
317.433
317.041
316.747
316.672
316.849
317.149
311.223
311.032
310.777
310.673
310.747
310.758
310.916
311.111
311.204
311.296
311.279
311.231
311.023
310.804
310.476
310.25
310.085
310.028
310.124
310.305
303.754
303.69
303.609
303.568
303.598
303.607
303.658
303.735
303.748
303.786
303.788
303.756
303.694
303.616
303.512
303.438
303.386
303.371
303.394
303.452
357.058
355.865
354.941
354.424
354.469
354.892
355.652
356.486
357.113
357.482
357.479
356.991
355.968
354.634
353.188
351.834
350.94
350.773
351.176
352.185
349.475
348.485
347.699
347.25
347.273
347.685
348.309
349.05
349.575
349.927
349.927
349.5
348.629
347.506
346.279
345.12
344.331
344.243
344.582
345.462
341.891
341.062
340.438
340.038
340.043
340.412
340.934
341.537
341.989
342.324
342.344
341.967
341.24
340.307
339.291
338.319
337.62
337.61
337.899
338.631
334.293
333.62
333.142
332.789
332.815
333.11
333.533
334.006
334.408
334.68
334.7
334.393
333.808
333.03
332.241
331.425
330.841
330.888
331.11
331.723
326.658
326.16
325.81
325.516
325.555
325.791
326.115
326.468
326.819
327.014
327.008
326.792
326.339
325.728
325.151
324.515
324.036
324.095
324.264
324.725
319.033
318.701
318.449
318.218
318.27
318.446
318.688
318.928
319.217
319.317
319.295
319.174
318.861
318.403
318.005
317.543
317.196
317.248
317.367
317.697
311.417
311.222
311.084
310.942
310.976
311.085
311.247
311.381
311.574
311.619
311.593
311.534
311.325
311.063
310.838
310.548
310.347
310.383
310.449
310.638
303.819
303.76
303.715
303.666
303.677
303.711
303.783
303.811
303.879
303.9
303.887
303.872
303.799
303.707
303.637
303.538
303.474
303.485
303.51
303.561
358.528
357.417
356.409
355.997
356.034
356.436
357.155
357.996
358.811
359.123
359.192
358.616
357.66
356.214
354.938
353.529
352.716
352.452
352.863
353.713
350.742
349.827
348.981
348.619
348.654
348.965
349.626
350.37
351.032
351.304
351.409
350.906
350.116
348.86
347.788
346.579
345.886
345.681
346.06
346.763
342.937
342.226
341.517
341.191
341.216
341.463
342.059
342.676
343.216
343.468
343.598
343.136
342.518
341.441
340.571
339.528
338.995
338.831
339.143
339.711
335.12
334.571
334.005
333.733
333.767
333.939
334.452
334.97
335.375
335.608
335.733
335.337
334.872
333.985
333.288
332.426
332.009
331.883
332.126
332.604
327.321
326.91
326.461
326.261
326.305
326.405
326.828
327.253
327.542
327.734
327.843
327.539
327.161
326.472
325.934
325.264
324.969
324.864
325.055
325.425
319.528
319.242
318.901
318.777
318.801
318.862
319.186
319.521
319.687
319.844
319.921
319.709
319.416
318.949
318.566
318.074
317.902
317.808
317.955
318.215
311.733
311.576
311.332
311.262
311.303
311.333
311.535
311.734
311.841
311.925
311.976
311.845
311.678
311.396
311.179
310.884
310.783
310.712
310.796
310.957
303.932
303.885
303.79
303.778
303.802
303.804
303.87
303.932
303.965
303.994
304.026
303.979
303.909
303.828
303.752
303.642
303.619
303.595
303.618
303.674
360.288
358.98
358.052
357.563
357.626
358.119
358.77
359.71
360.368
360.908
360.914
360.338
359.402
358.012
356.591
355.294
354.563
354.203
354.619
355.34
352.271
351.177
350.412
349.976
350.029
350.45
351.034
351.841
352.4
352.897
352.899
352.408
351.609
350.432
349.233
348.099
347.523
347.185
347.586
348.167
344.227
343.367
342.723
342.342
342.408
342.732
343.267
343.933
344.397
344.838
344.843
344.419
343.766
342.798
341.797
340.83
340.361
340.076
340.429
340.906
336.157
335.534
335.012
334.687
334.744
334.979
335.448
335.993
336.376
336.747
336.733
336.416
335.861
335.11
334.296
333.502
333.1
332.889
333.181
333.558
328.092
327.677
327.272
326.976
327.062
327.23
327.6
328.038
328.302
328.633
328.586
328.396
327.926
327.383
326.751
326.14
325.785
325.63
325.892
326.167
320.045
319.811
319.504
319.274
319.352
319.459
319.744
320.034
320.241
320.496
320.443
320.338
319.981
319.599
319.146
318.732
318.432
318.353
318.548
318.738
312.019
311.91
311.718
311.591
311.631
311.693
311.87
312.033
312.175
312.323
312.292
312.245
312.018
311.792
311.511
311.27
311.075
311.023
311.161
311.257
304.026
304
303.93
303.894
303.895
303.903
303.987
304.031
304.081
304.13
304.129
304.114
304.026
303.961
303.856
303.774
303.714
303.697
303.74
303.763
361.995
360.758
359.935
359.426
359.389
359.81
360.535
361.282
362.031
362.494
362.627
362.158
361.078
359.864
358.416
357.196
356.393
356.1
356.414
356.996
353.763
352.726
352.019
351.589
351.557
351.912
352.554
353.203
353.847
354.259
354.384
353.991
353.064
352.022
350.806
349.733
349.087
348.824
349.125
349.617
345.5
344.667
344.08
343.725
343.711
344.002
344.537
345.076
345.642
345.988
346.076
345.761
344.998
344.125
343.122
342.204
341.684
341.471
341.731
342.148
337.25
336.584
336.121
335.808
335.823
336.054
336.486
336.916
337.391
337.68
337.752
337.502
336.892
336.166
335.362
334.608
334.205
334.05
334.252
334.579
328.996
328.476
328.135
327.871
327.897
328.098
328.399
328.758
329.12
329.31
329.396
329.205
328.753
328.17
327.543
326.977
326.685
326.549
326.707
326.937
320.736
320.37
320.12
319.919
319.945
320.086
320.312
320.576
320.833
320.955
321.036
320.87
320.579
320.178
319.699
319.302
319.076
318.991
319.103
319.285
312.456
312.235
312.098
311.974
311.98
312.069
312.206
312.375
312.525
312.598
312.659
312.541
312.372
312.143
311.848
311.61
311.452
311.406
311.496
311.596
304.174
304.106
304.051
304.017
304.014
304.039
304.094
304.154
304.2
304.223
304.239
304.197
304.139
304.07
303.988
303.891
303.841
303.827
303.853
303.893
363.867
362.647
361.739
361.22
361.178
361.564
362.273
362.943
363.589
364.071
364.108
363.851
362.791
361.643
360.249
359.08
358.39
358.06
358.301
358.932
355.409
354.35
353.581
353.157
353.139
353.427
354.062
354.638
355.201
355.633
355.67
355.472
354.562
353.617
352.411
351.373
350.814
350.551
350.745
351.292
346.924
346.027
345.389
345.058
345.049
345.278
345.816
346.292
346.785
347.13
347.177
347.047
346.269
345.506
344.495
343.606
343.154
342.943
343.113
343.561
338.428
337.679
337.197
336.914
336.911
337.076
337.539
337.925
338.324
338.602
338.628
338.57
337.947
337.31
336.512
335.773
335.409
335.262
335.398
335.759
329.926
329.315
328.977
328.741
328.73
328.839
329.244
329.541
329.841
330.061
330.081
330.05
329.576
329.078
328.476
327.892
327.612
327.5
327.627
327.882
321.397
320.964
320.72
320.528
320.539
320.61
320.929
321.115
321.346
321.498
321.511
321.493
321.168
320.808
320.366
319.984
319.763
319.691
319.798
319.954
312.848
312.593
312.448
312.328
312.342
312.372
312.593
312.702
312.829
312.931
312.933
312.913
312.732
312.522
312.239
312.026
311.881
311.844
311.913
311.981
304.303
304.215
304.176
304.129
304.139
304.147
304.231
304.269
304.303
304.344
304.331
304.336
304.273
304.198
304.115
304.034
303.999
303.972
303.986
304.011
365.693
364.497
363.639
363.057
363.112
363.253
363.965
364.621
365.115
365.649
365.742
365.337
364.57
363.245
362.001
360.936
360.32
359.995
360.307
360.837
356.986
355.987
355.232
354.739
354.785
354.863
355.523
356.085
356.515
356.996
357.094
356.738
356.098
354.98
353.911
352.992
352.517
352.246
352.524
352.957
348.249
347.429
346.815
346.381
346.411
346.471
347.037
347.52
347.878
348.285
348.39
348.089
347.546
346.637
345.744
344.967
344.608
344.37
344.625
344.961
339.514
338.845
338.371
338.02
337.995
338.058
338.545
338.94
339.205
339.542
339.644
339.388
338.961
338.227
337.513
336.897
336.617
336.425
336.613
336.871
330.767
330.253
329.891
329.619
329.559
329.639
330.011
330.323
330.526
330.78
330.847
330.667
330.35
329.768
329.228
328.783
328.57
328.402
328.555
328.721
322.004
321.643
321.379
321.179
321.131
321.199
321.465
321.686
321.837
322.011
322.056
321.929
321.711
321.273
320.91
320.599
320.469
320.321
320.453
320.546
313.231
312.998
312.852
312.732
312.69
312.75
312.921
313.027
313.131
313.237
313.246
313.177
313.045
312.777
312.559
312.401
312.325
312.209
312.308
312.35
304.441
304.347
304.302
304.275
304.251
304.27
304.33
304.366
304.405
304.448
304.435
304.424
304.373
304.282
304.214
304.157
304.133
304.097
304.138
304.133
367.592
366.398
365.449
364.917
364.87
365.131
365.69
366.236
366.771
367.16
367.184
366.841
366.047
364.92
363.698
362.807
362.229
361.869
362.208
362.864
358.611
357.614
356.807
356.351
356.312
356.528
357.016
357.505
357.955
358.322
358.338
358.07
357.419
356.439
355.4
354.638
354.162
353.835
354.179
354.712
349.612
348.799
348.119
347.737
347.711
347.881
348.309
348.713
349.104
349.425
349.465
349.235
348.715
347.897
346.999
346.382
346.009
345.703
346.03
346.454
340.617
339.948
339.422
339.088
339.072
339.212
339.573
339.907
340.215
340.482
340.536
340.356
339.94
339.277
338.513
338.069
337.777
337.506
337.769
338.09
331.605
331.073
330.688
330.443
330.447
330.522
330.813
331.083
331.303
331.51
331.568
331.432
331.129
330.623
330.007
329.681
329.455
329.259
329.46
329.698
322.589
322.214
321.937
321.781
321.788
321.823
322.033
322.239
322.387
322.538
322.58
322.49
322.264
321.91
321.472
321.244
321.073
320.959
321.116
321.26
313.551
313.348
313.179
313.106
313.084
313.108
313.237
313.358
313.442
313.551
313.585
313.513
313.376
313.165
312.903
312.775
312.673
312.612
312.717
312.772
304.537
304.475
304.419
304.398
304.382
304.399
304.446
304.479
304.501
304.556
304.562
304.532
304.482
304.414
304.328
304.285
304.246
304.24
304.265
304.284
369.358
368.338
367.337
366.987
366.704
366.906
367.406
367.811
368.288
368.742
368.643
368.324
367.509
366.603
365.492
364.592
364.097
363.82
364.163
364.879
360.129
359.285
358.423
358.135
357.895
358.093
358.519
358.856
359.29
359.69
359.614
359.367
358.685
357.893
356.937
356.19
355.799
355.537
355.835
356.461
350.886
350.199
349.467
349.24
349.034
349.203
349.577
349.859
350.254
350.588
350.519
350.344
349.772
349.12
348.311
347.707
347.382
347.134
347.437
347.932
341.646
341.105
340.493
340.323
340.15
340.318
340.589
340.832
341.156
341.448
341.402
341.274
340.805
340.276
339.611
339.128
338.862
338.679
338.946
339.33
332.395
332.021
331.502
331.379
331.24
331.393
331.6
331.811
332.033
332.282
332.247
332.163
331.807
331.383
330.844
330.494
330.285
330.145
330.372
330.668
323.14
322.894
322.501
322.416
322.351
322.461
322.595
322.756
322.922
323.097
323.056
322.981
322.745
322.472
322.062
321.826
321.668
321.579
321.717
321.952
313.885
313.756
313.517
313.469
313.444
313.488
313.568
313.675
313.781
313.892
313.87
313.808
313.665
313.525
313.255
313.127
313.033
312.969
313.048
313.178
304.644
304.61
304.535
304.512
304.503
304.524
304.538
304.591
304.632
304.661
304.652
304.634
304.59
304.534
304.45
304.39
304.365
304.343
304.378
304.414
371.301
370.412
369.364
368.897
368.598
368.693
368.961
369.346
369.791
370.076
370.209
369.775
368.995
368.145
367.288
366.505
366.078
365.768
366.106
366.858
361.826
361.098
360.208
359.819
359.525
359.641
359.838
360.213
360.594
360.857
360.993
360.622
359.963
359.233
358.516
357.861
357.506
357.253
357.549
358.188
352.33
351.768
351.02
350.697
350.43
350.554
350.698
351.031
351.35
351.598
351.701
351.417
350.854
350.252
349.655
349.134
348.83
348.606
348.878
349.43
342.837
342.394
341.794
341.527
341.322
341.433
341.541
341.825
342.056
342.297
342.367
342.162
341.677
341.189
340.711
340.308
340.05
339.896
340.117
340.567
333.335
332.993
332.542
332.329
332.184
332.284
332.347
332.567
332.745
332.955
332.989
332.858
332.461
332.082
331.716
331.42
331.207
331.104
331.288
331.623
323.824
323.606
323.296
323.1
323.017
323.084
323.137
323.272
323.418
323.575
323.606
323.497
323.226
322.929
322.711
322.492
322.328
322.246
322.406
322.639
314.297
314.191
314.019
313.863
313.814
313.876
313.899
313.991
314.066
314.159
314.199
314.136
313.962
313.769
313.653
313.533
313.423
313.366
313.487
313.628
304.789
304.763
304.708
304.64
304.637
304.651
304.657
304.692
304.714
304.742
304.763
304.732
304.678
304.621
304.589
304.542
304.507
304.484
304.52
304.585
373.343
372.419
371.383
370.764
370.475
370.564
370.732
370.976
371.251
371.5
371.494
371.217
370.479
369.772
369.013
368.397
368.082
367.874
368.183
368.916
363.603
362.829
361.961
361.437
361.173
361.24
361.401
361.614
361.86
362.108
362.122
361.891
361.256
360.658
360.014
359.529
359.239
359.07
359.367
359.98
353.864
353.21
352.504
352.054
351.822
351.861
352.024
352.209
352.428
352.672
352.7
352.487
351.959
351.448
350.906
350.549
350.281
350.15
350.42
350.916
344.089
343.586
343.011
342.631
342.429
342.494
342.609
342.768
342.939
343.168
343.211
343.032
342.607
342.17
341.733
341.482
341.247
341.151
341.376
341.764
334.291
333.932
333.477
333.175
333.014
333.105
333.166
333.298
333.436
333.626
333.668
333.541
333.191
332.866
332.525
332.333
332.159
332.072
332.279
332.557
324.489
324.258
323.923
323.704
323.604
323.686
323.699
323.814
323.9
324.059
324.086
324.003
323.753
323.529
323.293
323.138
323.002
322.937
323.104
323.305
314.705
314.572
314.365
314.242
314.176
314.216
314.223
314.312
314.352
314.456
314.471
314.419
314.301
314.138
314.011
313.914
313.812
313.792
313.911
314.003
304.935
304.888
304.82
304.773
304.755
304.767
304.762
304.807
304.818
304.845
304.859
304.834
304.805
304.734
304.696
304.67
304.637
304.627
304.669
304.698
375.165
374.273
373.392
372.678
372.342
372.231
372.348
372.573
372.903
372.946
372.834
372.612
372.054
371.388
370.605
370.107
369.8
369.739
370.114
370.827
365.178
364.422
363.706
363.082
362.789
362.695
362.806
363.022
363.324
363.371
363.26
363.103
362.626
362.041
361.386
360.985
360.742
360.707
361.034
361.668
355.176
354.547
353.989
353.443
353.171
353.112
353.212
353.408
353.677
353.729
353.629
353.532
353.129
352.64
352.105
351.758
351.583
351.583
351.814
352.364
345.162
344.66
344.205
343.773
343.541
343.508
343.582
343.77
343.979
344.031
343.964
343.891
343.556
343.16
342.742
342.47
342.306
342.362
342.528
342.985
335.155
334.756
334.404
334.07
333.895
333.88
333.93
334.083
334.248
334.292
334.248
334.183
333.929
333.609
333.313
333.112
332.958
333.041
333.166
333.511
325.139
324.849
324.598
324.367
324.247
324.212
324.255
324.365
324.473
324.553
324.483
324.446
324.274
324.036
323.848
323.728
323.596
323.679
323.753
323.987
315.126
314.927
314.777
314.643
314.575
314.529
314.573
314.648
314.696
314.769
314.698
314.69
314.583
314.452
314.345
314.276
314.191
314.246
314.294
314.431
305.072
305.006
304.956
304.918
304.881
304.876
304.888
304.915
304.925
304.95
304.928
304.934
304.887
304.84
304.804
304.785
304.747
304.783
304.797
304.855
377.149
376.24
375.222
374.622
374.083
373.913
374.057
374.133
374.342
374.352
374.14
373.882
373.435
372.929
372.346
371.932
371.678
371.684
372.099
372.839
366.88
366.135
365.304
364.769
364.308
364.139
364.29
364.365
364.559
364.58
364.386
364.188
363.817
363.407
362.904
362.586
362.38
362.384
362.739
363.388
356.602
356.011
355.355
354.875
354.5
354.33
354.468
354.55
354.729
354.747
354.583
354.425
354.125
353.813
353.369
353.12
352.969
352.97
353.263
353.836
346.326
345.865
345.35
344.955
344.652
344.491
344.625
344.724
344.836
344.882
344.735
344.593
344.37
344.137
343.777
343.568
343.478
343.461
343.679
344.184
336.03
335.719
335.321
334.994
334.765
334.636
334.748
334.835
334.909
334.976
334.849
334.724
334.566
334.402
334.112
333.957
333.918
333.876
334.024
334.445
325.729
325.539
325.253
325.023
324.867
324.759
324.83
324.903
324.958
325.011
324.913
324.827
324.746
324.615
324.399
324.281
324.277
324.249
324.348
324.642
315.461
315.34
315.159
315.039
314.923
314.893
314.908
314.972
314.995
315.035
314.973
314.921
314.856
314.797
314.661
314.598
314.595
314.576
314.646
314.809
305.183
305.143
305.081
305.044
304.999
304.997
304.994
305.017
305.022
305.046
305.022
305.006
304.984
304.968
304.924
304.894
304.901
304.877
304.919
304.956
378.984
378.096
377.169
376.541
375.898
375.733
375.783
375.789
375.794
375.796
375.584
375.329
374.845
374.467
373.959
373.599
373.544
373.51
373.934
374.747
368.493
367.741
366.96
366.414
365.865
365.723
365.804
365.792
365.807
365.81
365.668
365.446
365.059
364.715
364.301
364.013
363.966
363.982
364.32
365.014
357.968
357.367
356.7
356.249
355.802
355.648
355.797
355.757
355.758
355.773
355.691
355.479
355.209
354.881
354.542
354.342
354.281
354.334
354.574
355.167
347.447
346.968
346.425
346.054
345.704
345.555
345.713
345.661
345.664
345.696
345.642
345.462
345.274
345.001
344.727
344.593
344.497
344.571
344.769
345.253
336.925
336.57
336.155
335.847
335.58
335.447
335.584
335.547
335.565
335.595
335.533
335.399
335.271
335.05
334.854
334.748
334.676
334.736
334.906
335.262
326.406
326.127
325.843
325.649
325.443
325.323
325.433
325.412
325.433
325.44
325.399
325.308
325.231
325.08
324.941
324.86
324.807
324.872
324.967
325.234
315.886
315.695
315.533
315.422
315.286
315.214
315.271
315.269
315.298
315.282
315.261
315.204
315.165
315.084
314.992
314.94
314.915
314.967
315.008
315.16
305.33
305.26
305.213
305.179
305.126
305.1
305.122
305.119
305.128
305.133
305.116
305.096
305.084
305.072
305.033
305.011
305.003
305.02
305.024
305.074
380.787
379.893
378.935
378.23
377.554
377.451
377.37
377.168
377.149
377.079
377.06
376.782
376.37
375.901
375.514
375.173
375.15
375.219
375.719
376.361
370.001
369.26
368.469
367.864
367.291
367.223
367.142
366.953
366.984
366.913
366.931
366.675
366.345
365.967
365.624
365.351
365.342
365.446
365.841
366.401
359.223
358.605
357.973
357.456
356.99
356.955
356.869
356.697
356.766
356.682
356.733
356.534
356.266
355.948
355.667
355.424
355.453
355.537
355.852
356.323
348.437
347.949
347.47
347.028
346.657
346.651
346.576
346.441
346.498
346.418
346.456
346.321
346.115
345.851
345.621
345.43
345.478
345.56
345.777
346.154
337.683
337.31
336.949
336.579
336.321
336.313
336.267
336.134
336.208
336.147
336.158
336.061
335.913
335.715
335.539
335.405
335.455
335.543
335.654
335.936
326.936
326.652
326.397
326.14
325.97
325.971
325.94
325.82
325.887
325.847
325.852
325.78
325.678
325.55
325.415
325.342
325.382
325.448
325.504
325.691
316.175
316.006
315.852
315.696
315.612
315.601
315.609
315.515
315.57
315.533
315.539
315.481
315.424
315.348
315.276
315.239
315.258
315.311
315.33
315.431
305.421
305.366
305.326
305.257
305.236
305.235
305.235
305.196
305.221
305.194
305.213
305.184
305.169
305.144
305.135
305.119
305.106
305.144
305.139
305.173
382.131
381.128
380.298
379.419
378.765
378.609
378.463
378.169
378.177
378.188
378.006
377.733
377.387
376.888
376.731
376.488
376.319
376.61
377.122
377.723
371.137
370.289
369.594
368.844
368.283
368.169
368.052
367.762
367.822
367.847
367.692
367.504
367.188
366.749
366.631
366.436
366.309
366.584
367.03
367.517
360.156
359.467
358.896
358.304
357.801
357.694
357.625
357.363
357.443
357.479
357.365
357.222
356.947
356.547
356.484
356.328
356.217
356.486
356.842
357.244
349.199
348.63
348.194
347.718
347.284
347.206
347.158
346.936
347.04
347.085
347.011
346.904
346.669
346.308
346.286
346.162
346.079
346.314
346.586
346.904
338.255
337.817
337.488
337.125
336.785
336.718
336.698
336.51
336.617
336.66
336.612
336.522
336.346
336.044
336.038
335.952
335.9
336.1
336.292
336.536
327.348
327.031
326.792
326.529
326.292
326.234
326.228
326.077
326.202
326.203
326.186
326.131
325.986
325.768
325.789
325.73
325.687
325.831
325.966
326.143
316.427
316.24
316.113
315.921
315.792
315.749
315.753
315.657
315.759
315.749
315.741
315.714
315.615
315.483
315.518
315.471
315.442
315.532
315.605
315.726
305.507
305.441
305.412
305.332
305.292
305.269
305.277
305.248
305.287
305.283
305.272
305.269
305.238
305.184
305.218
305.197
305.18
305.196
305.225
305.268
)
;

boundaryField
{
    hotSide
    {
        type            fixedGradient;
        gradient        nonuniform List<scalar> 
400
(
566.022
567.996
573.254
581.71
593.04
606.78
622.431
639.539
657.724
676.689
696.208
716.119
736.304
756.688
777.223
797.889
818.68
839.605
860.674
881.895
542.586
544.858
550.643
559.835
572.043
586.718
603.289
621.25
640.195
659.814
679.88
700.231
720.758
741.395
762.107
782.885
803.739
824.691
845.763
866.974
527.83
530.702
537.048
546.752
559.421
574.509
591.446
609.722
628.926
648.741
668.937
689.351
709.878
730.457
751.062
771.694
792.373
813.129
833.995
854.996
521.191
524.946
531.904
541.943
554.727
569.783
586.603
604.714
623.719
643.302
663.229
683.339
703.525
723.732
743.941
764.16
784.418
804.751
825.199
845.793
520.463
525.262
532.916
543.297
556.12
570.999
587.501
605.207
623.746
642.814
662.183
681.692
701.245
720.794
740.334
759.884
779.484
799.178
819.01
839.021
523.139
529.044
537.499
548.358
561.369
576.194
592.455
609.773
627.8
646.25
664.905
683.619
702.317
720.976
739.612
758.269
777.002
795.871
814.928
834.218
527.153
534.171
543.522
555.041
568.476
583.506
599.765
616.884
634.519
652.388
670.29
688.108
705.804
723.399
740.953
758.546
776.261
794.175
812.352
830.842
530.925
539.007
549.304
561.632
575.725
591.242
607.796
624.984
642.436
659.852
677.043
693.934
710.548
726.978
743.349
759.79
776.419
793.335
810.61
828.298
533.21
542.221
553.421
566.611
581.504
597.726
614.835
632.362
649.863
666.997
683.576
699.581
715.125
730.396
745.601
760.93
776.535
792.53
808.994
825.976
533.015
542.7
554.613
568.55
584.207
601.176
618.954
636.981
654.717
671.75
687.887
703.17
717.819
732.128
746.387
760.834
775.649
790.955
806.83
823.316
529.646
539.616
551.884
566.245
582.386
599.877
618.169
636.635
654.655
671.756
687.733
702.674
716.873
730.698
744.489
758.514
772.965
787.97
803.602
819.902
522.825
532.604
544.755
559.072
575.237
592.806
611.224
629.851
648.063
665.38
681.588
696.765
711.197
725.242
739.239
753.457
768.093
783.275
799.084
815.561
512.804
521.923
533.5
547.33
563.086
580.328
598.517
617.059
635.388
653.065
669.874
685.831
701.134
716.061
730.899
745.891
761.227
777.042
793.425
810.428
500.402
508.488
519.17
532.245
547.386
564.155
582.035
600.485
619.001
637.192
654.83
671.863
688.382
704.565
720.621
736.753
753.134
769.9
787.148
804.941
486.987
493.801
503.441
515.714
530.283
546.694
564.431
582.972
601.844
620.677
639.228
657.39
675.174
692.675
710.034
727.41
744.956
762.803
781.056
799.781
474.488
479.924
488.519
500.091
514.272
530.558
548.391
567.226
586.589
606.108
625.529
644.712
663.618
682.289
700.819
719.334
737.973
756.863
776.11
795.785
465.487
469.563
477.188
488.191
502.146
518.46
536.501
555.681
575.509
595.609
615.723
635.697
655.466
675.041
694.489
713.917
733.452
753.224
773.341
793.874
463.104
465.996
472.749
483.203
496.872
513.086
531.148
550.439
570.462
590.845
611.331
631.761
652.06
672.219
692.287
712.355
732.542
752.976
773.765
794.975
470.113
472.163
478.125
487.856
500.875
516.514
534.082
552.971
572.697
592.9
613.325
633.811
654.272
674.684
695.075
715.519
736.116
756.981
778.21
799.858
487.343
488.933
494.175
502.951
514.867
529.359
545.826
563.725
582.607
602.13
622.044
642.181
662.442
682.785
703.218
723.785
744.559
765.625
787.051
808.877
)
;
    }
    coldSide
    {
        type            mixed;
        refValue        uniform 300;
        refGradient     uniform 0;
        valueFraction   uniform 0.991591;
        source          uniform 0;
        value           nonuniform List<scalar> 
400
(
300.03
300.03
300.031
300.031
300.032
300.032
300.033
300.034
300.035
300.036
300.037
300.038
300.039
300.04
300.042
300.043
300.044
300.045
300.046
300.046
300.03
300.03
300.03
300.03
300.031
300.032
300.033
300.034
300.035
300.035
300.037
300.038
300.039
300.04
300.041
300.042
300.043