/*--------------------------------*- C++ -*----------------------------------*\
| =========                 |                                                 |
| \\      /  F ield         | OpenFOAM: The Open Source CFD Toolbox           |
|  \\    /   O peration     | Version:  2212                                  |
|   \\  /    A nd           | Website:  www.openfoam.com                      |
|    \\/     M anipulation  |                                                 |
\*---------------------------------------------------------------------------*/
FoamFile
{
    version     2.0;
    format      ascii;
    arch        "LSB;label=32;scalar=64";
    class       volScalarField;
    location    "0";
    object      T;
}
// * * * * * * * * * * * * * * * * * * * * * * * * * * * * * * * * * * * * * //

dimensions      [0 0 0 1 0 0 0];

internalField   nonuniform List<scalar> 
3200
(
345.713
346.566
347.514
348.317
349.302
349.909
350.32
350.808
350.547
350.685
350.212
350.304
350.067
349.684
348.668
348.113
347.089
345.967
344.882
344.252
339.705
340.412
341.213
341.934
342.827
343.334
343.675
344.064
343.883
344.009
343.549
343.614
343.42
343.14
342.27
341.713
340.852
339.882
338.986
338.462
333.674
334.22
334.884
335.49
336.299
336.709
336.991
337.322
337.198
337.295
336.855
336.928
336.741
336.583
335.783
335.325
334.641
333.78
333.037
332.619
327.606
327.987
328.576
329.043
329.746
330.082
330.301
330.547
330.471
330.551
330.194
330.259
330.064
330.011
329.308
328.892
328.402
327.681
327.03
326.729
321.495
321.779
322.251
322.581
323.185
323.423
323.61
323.778
323.729
323.799
323.529
323.538
323.347
323.342
322.811
322.442
322.156
321.553
321.006
320.808
315.37
315.557
315.887
316.085
316.597
316.744
316.896
317.033
316.972
317.005
316.852
316.8
316.638
316.7
316.305
316.019
315.857
315.401
315.014
314.861
309.252
309.356
309.526
309.656
309.951
310.094
310.153
310.239
310.181
310.243
310.15
310.116
309.976
310.046
309.79
309.609
309.536
309.283
309.04
308.943
303.085
303.136
303.181
303.247
303.328
303.389
303.411
303.434
303.412
303.441
303.408
303.419
303.346
303.347
303.28
303.217
303.204
303.103
303.047
303.013
346.628
347.391
348.289
349.226
350.118
350.634
351.331
351.538
351.538
351.675
351.412
351.482
351.115
350.448
349.539
348.893
348.139
346.802
345.874
344.879
340.435
341.091
341.848
342.671
343.43
343.869
344.532
344.72
344.682
344.771
344.609
344.628
344.295
343.74
342.911
342.385
341.74
340.637
339.757
338.97
334.25
334.762
335.463
336.101
336.736
337.114
337.697
337.869
337.834
337.911
337.796
337.798
337.471
337.045
336.337
335.875
335.384
334.418
333.685
333.059
328.05
328.458
329.064
329.527
330.077
330.329
330.835
330.989
330.99
331.045
330.945
330.938
330.63
330.344
329.749
329.35
328.998
328.204
327.604
327.098
321.825
322.183
322.67
322.914
323.381
323.589
323.994
324.095
324.093
324.166
324.082
324.09
323.848
323.616
323.137
322.821
322.582
321.966
321.497
321.106
315.577
315.862
316.145
316.364
316.724
316.865
317.122
317.231
317.198
317.247
317.209
317.19
317.064
316.896
316.512
316.292
316.152
315.707
315.377
315.121
309.361
309.562
309.688
309.805
310.064
310.137
310.283
310.368
310.328
310.374
310.336
310.295
310.268
310.173
309.902
309.774
309.717
309.432
309.238
309.1
303.134
303.195
303.257
303.294
303.362
303.417
303.455
303.488
303.444
303.478
303.453
303.449
303.453
303.429
303.312
303.287
303.274
303.141
303.077
303.044
347.776
348.606
349.714
350.334
351.382
351.911
352.493
353.034
352.943
352.96
352.757
352.65
352.24
351.516
350.865
349.974
349.138
348.176
347.041
345.956
341.451
342.161
343.139
343.548
344.526
344.952
345.512
345.94
345.908
345.875
345.683
345.635
345.227
344.633
344.079
343.274
342.585
341.762
340.757
339.875
335.097
335.733
336.51
336.811
337.674
338.007
338.5
338.866
338.868
338.837
338.64
338.564
338.233
337.763
337.331
336.606
336.085
335.348
334.526
333.745
328.709
329.239
329.864
330.075
330.793
331.038
331.461
331.818
331.791
331.806
331.59
331.533
331.304
330.954
330.582
329.932
329.581
328.956
328.279
327.61
322.325
322.756
323.191
323.393
323.947
324.073
324.433
324.738
324.705
324.734
324.566
324.519
324.397
324.093
323.804
323.278
323.081
322.544
322.039
321.491
315.944
316.262
316.547
316.671
317.111
317.168
317.446
317.64
317.645
317.675
317.569
317.502
317.462
317.205
317.003
316.613
316.524
316.141
315.795
315.344
309.587
309.773
309.927
310.024
310.28
310.308
310.488
310.616
310.597
310.636
310.581
310.503
310.525
310.324
310.182
309.991
309.946
309.684
309.512
309.196
303.217
303.274
303.318
303.357
303.437
303.46
303.513
303.546
303.546
303.578
303.563
303.523
303.57
303.464
303.423
303.356
303.339
303.235
303.193
303.101
348.863
349.865
350.883
351.683
352.616
353.034
353.611
354.477
354.389
354.497
354.46
353.935
353.546
352.987
352.352
351.366
350.649
349.445
348.173
347.157
342.374
343.168
344.118
344.787
345.593
345.903
346.462
347.213
347.099
347.21
347.177
346.703
346.397
345.884
345.311
344.46
343.804
342.83
341.699
340.874
335.896
336.522
337.319
337.882
338.542
338.808
339.33
339.932
339.833
339.9
339.903
339.451
339.282
338.796
338.292
337.618
337.022
336.208
335.234
334.597
329.414
329.884
330.549
330.951
331.486
331.727
332.203
332.631
332.563
332.61
332.618
332.259
332.13
331.718
331.307
330.768
330.263
329.637
328.827
328.279
322.875
323.224
323.783
324.074
324.472
324.675
325.042
325.388
325.247
325.348
325.38
325.083
324.974
324.629
324.334
323.947
323.539
323.052
322.428
322.008
316.312
316.571
316.997
317.188
317.487
317.653
317.879
318.076
318.027
318.102
318.138
317.91
317.802
317.622
317.37
317.111
316.859
316.451
316.068
315.711
309.79
309.939
310.193
310.303
310.507
310.631
310.751
310.848
310.808
310.882
310.904
310.741
310.673
310.584
310.421
310.268
310.142
309.897
309.661
309.409
303.278
303.344
303.434
303.447
303.525
303.549
303.592
303.635
303.614
303.638
303.648
303.607
303.577
303.558
303.49
303.453
303.397
303.32
303.23
303.144
350.042
351.038
352.209
352.919
353.859
354.413
354.781
355.576
355.818
355.586
355.815
355.371
355.006
354.43
353.704
352.783
351.697
350.758
349.467
348.479
343.407
344.219
345.25
345.808
346.604
347.098
347.472
348.117
348.335
348.12
348.378
347.933
347.675
347.148
346.521
345.692
344.811
343.99
342.852
342.051
336.735
337.391
338.314
338.742
339.389
339.797
340.157
340.668
340.902
340.711
340.916
340.526
340.379
339.885
339.374
338.662
337.89
337.218
336.2
335.616
330.087
330.605
331.325
331.675
332.2
332.507
332.851
333.226
333.46
333.319
333.436
333.128
333.02
332.572
332.228
331.638
330.997
330.407
329.615
329.147
323.421
323.79
324.353
324.603
325.021
325.246
325.58
325.854
326.066
325.909
325.989
325.747
325.669
325.298
325.081
324.636
324.162
323.63
323.061
322.699
316.779
316.954
317.428
317.583
317.865
317.984
318.353
318.454
318.633
318.462
318.594
318.386
318.32
318.037
317.92
317.621
317.292
316.899
316.456
316.223
310.072
310.213
310.485
310.565
310.742
310.789
311.072
311.087
311.209
311.091
311.184
311.019
311.013
310.812
310.768
310.6
310.392
310.136
309.848
309.745
303.364
303.429
303.517
303.521
303.585
303.634
303.734
303.719
303.762
303.696
303.762
303.707
303.682
303.596
303.616
303.535
303.479
303.384
303.293
303.246
351.274
352.28
353.19
354.25
355.307
355.901
356.386
356.8
357.155
357.022
357.275
356.639
356.42
355.657
355.04
354.138
353.157
351.975
350.669
349.592
344.461
345.23
346.059
346.957
347.925
348.408
348.865
349.147
349.499
349.364
349.622
349.059
348.85
348.203
347.626
346.868
346.045
345.051
343.855
342.994
337.613
338.194
338.933
339.701
340.507
340.894
341.364
341.53
341.848
341.739
341.954
341.475
341.357
340.788
340.268
339.635
338.948
338.089
337.01
336.426
330.764
331.229
331.845
332.476
333.069
333.379
333.832
333.956
334.243
334.144
334.305
333.911
333.82
333.349
332.954
332.384
331.821
331.106
330.216
329.797
323.948
324.228
324.775
325.211
325.689
325.906
326.306
326.352
326.602
326.528
326.7
326.323
326.305
325.934
325.636
325.184
324.76
324.189
323.473
323.196
317.101
317.315
317.723
317.995
318.357
318.524
318.761
318.79
318.981
318.904
319.087
318.812
318.746
318.538
318.338
317.967
317.711
317.266
316.743
316.57
310.265
310.399
310.682
310.833
311.036
311.144
311.271
311.263
311.386
311.336
311.473
311.297
311.272
311.139
311.019
310.785
310.642
310.35
310.037
309.973
303.432
303.458
303.568
303.613
303.689
303.734
303.783
303.78
303.814
303.807
303.851
303.795
303.78
303.742
303.707
303.618
303.563
303.462
303.346
303.351
352.313
353.276
354.285
355.302
356.264
356.986
357.481
357.935
358.542
358.375
358.384
357.98
357.762
356.893
356.155
355.502
354.193
353.158
351.787
350.539
345.376
346.169
347.024
347.855
348.713
349.282
349.721
350.162
350.693
350.516
350.56
350.191
350.042
349.26
348.619
348.083
346.939
345.984
344.845
343.854
338.427
339.046
339.714
340.421
341.135
341.637
342.018
342.447
342.863
342.712
342.736
342.435
342.328
341.644
341.111
340.649
339.715
338.858
337.923
337.162
331.423
331.948
332.452
333.051
333.626
334.029
334.357
334.667
335.087
334.922
334.953
334.712
334.626
334.042
333.616
333.207
332.448
331.783
330.98
330.453
324.446
324.84
325.258
325.698
326.144
326.472
326.68
326.924
327.267
327.14
327.161
326.983
326.944
326.463
326.146
325.847
325.219
324.694
324.056
323.673
317.449
317.741
318.03
318.367
318.66
318.934
319.064
319.224
319.442
319.388
319.39
319.288
319.248
318.896
318.674
318.469
318.028
317.625
317.129
316.926
310.49
310.642
310.81
311.021
311.213
311.398
311.463
311.563
311.684
311.605
311.602
311.598
311.552
311.339
311.202
311.111
310.865
310.578
310.261
310.189
303.524
303.573
303.633
303.686
303.762
303.82
303.837
303.872
303.926
303.862
303.888
303.897
303.888
303.807
303.765
303.711
303.65
303.551
303.428
303.428
353.411
354.395
355.396
356.538
357.392
357.96
358.635
359.364
359.597
359.61
359.433
359.103
358.931
358.131
357.256
356.519
355.279
354.117
352.766
351.5
346.299
347.136
347.991
348.957
349.698
350.176
350.761
351.351
351.585
351.587
351.439
351.228
351.027
350.352
349.578
348.933
347.871
346.866
345.731
344.599
339.176
339.856
340.559
341.402
342
342.434
342.925
343.412
343.575
343.599
343.499
343.346
343.116
342.556
341.94
341.36
340.496
339.597
338.657
337.707
331.992
332.544
333.166
333.856
334.316
334.689
335.077
335.47
335.617
335.639
335.58
335.471
335.263
334.795
334.34
333.812
333.144
332.363
331.629
330.818
324.874
325.281
325.741
326.309
326.673
326.997
327.286
327.57
327.693
327.695
327.696
327.61
327.419
327.036
326.711
326.321
325.767
325.178
324.614
323.996
317.811
318.037
318.365
318.792
319.04
319.29
319.535
319.71
319.794
319.751
319.806
319.719
319.536
319.276
319.092
318.8
318.388
318.031
317.56
317.184
310.727
310.831
310.999
311.303
311.452
311.599
311.714
311.822
311.889
311.821
311.893
311.847
311.735
311.53
311.473
311.258
311.024
310.846
310.524
310.325
303.608
303.641
303.69
303.771
303.841
303.88
303.915
303.938
303.98
303.951
303.982
303.985
303.925
303.873
303.85
303.761
303.7
303.64
303.501
303.462
354.353
355.356
356.588
357.664
358.611
359.118
359.804
360.316
360.539
360.53
360.501
360.259
359.77
359.324
358.526
357.662
356.52
355.264
353.815
352.874
347.112
347.901
348.98
349.921
350.725
351.199
351.753
352.211
352.414
352.4
352.425
352.164
351.765
351.358
350.707
349.951
348.991
347.848
346.624
345.799
339.893
340.489
341.393
342.211
342.878
343.274
343.729
344.181
344.295
344.313
344.333
344.127
343.786
343.446
342.909
342.233
341.441
340.465
339.477
338.764
332.632
333.088
333.82
334.502
335.045
335.377
335.72
336.175
336.2
336.254
336.24
336.07
335.799
335.516
335.151
334.578
333.923
333.093
332.35
331.695
325.362
325.737
326.27
326.834
327.238
327.484
327.761
328.115
328.106
328.161
328.13
328.046
327.83
327.632
327.365
326.942
326.388
325.767
325.178
324.627
318.113
318.425
318.752
319.19
319.429
319.608
319.848
320.072
320.054
320.092
320.085
320.03
319.89
319.727
319.548
319.269
318.826
318.367
317.993
317.566
310.886
311.062
311.239
311.515
311.655
311.78
311.936
312.05
312.018
312.053
312.065
312.024
311.915
311.845
311.772
311.566
311.307
311.004
310.815
310.545
303.658
303.702
303.78
303.846
303.912
303.938
304.022
304.039
304.025
304.03
304.028
304.032
303.978
303.965
303.949
303.865
303.772
303.691
303.609
303.529
355.263
356.202
357.504
358.741
359.475
360.167
360.73
361.42
361.7
361.582
361.686
361.296
360.699
360.424
359.545
358.63
357.404
356.139
354.844
353.855
347.898
348.663
349.807
350.854
351.485
352.066
352.582
353.171
353.404
353.271
353.407
353.04
352.525
352.267
351.582
350.746
349.73
348.624
347.525
346.68
340.517
341.099
342.106
342.991
343.487
343.983
344.427
344.951
345.11
344.989
345.212
344.798
344.402
344.192
343.642
342.926
342.088
341.097
340.203
339.467
333.124
333.611
334.417
335.134
335.547
335.895
336.312
336.742
336.862
336.753
337.054
336.592
336.309
336.121
335.693
335.104
334.428
333.589
332.864
332.24
325.708
326.113
326.759
327.285
327.655
327.902
328.213
328.568
328.639
328.546
328.846
328.437
328.239
328.052
327.782
327.286
326.781
326.068
325.596
325.074
318.339
318.633
319.093
319.488
319.768
319.981
320.086
320.375
320.417
320.332
320.638
320.334
320.19
320.053
319.859
319.502
319.15
318.652
318.297
317.869
311.007
311.204
311.439
311.717
311.851
312.027
312.034
312.206
312.211
312.201
312.398
312.22
312.126
312.064
311.944
311.721
311.481
311.238
311.027
310.682
303.69
303.759
303.83
303.921
303.971
304.027
304.022
304.079
304.087
304.094
304.165
304.102
304.057
304.045
304.012
303.921
303.842
303.762
303.69
303.585
355.762
356.953
358.256
359.449
360.49
361.03
361.833
362.141
362.413
362.429
362.77
362.467
361.771
361.449
360.578
359.607
358.353
357.088
355.446
354.493
348.272
349.287
350.466
351.461
352.369
352.774
353.501
353.792
354.048
354.029
354.355
354.113
353.454
353.246
352.475
351.619
350.569
349.435
348.046
347.208
340.828
341.649
342.7
343.5
344.266
344.613
345.167
345.482
345.704
345.631
345.973
345.739
345.169
345.041
344.362
343.638
342.746
341.747
340.669
339.968
333.425
334.046
334.913
335.592
336.153
336.432
336.902
337.16
337.416
337.248
337.619
337.383
336.891
336.819
336.269
335.668
334.943
334.114
333.271
332.729
326.043
326.484
327.145
327.669
328.12
328.32
328.626
328.917
329.102
328.964
329.264
329.039
328.643
328.625
328.164
327.751
327.19
326.504
325.914
325.462
318.622
318.932
319.37
319.764
320.096
320.198
320.425
320.675
320.789
320.674
320.922
320.761
320.46
320.443
320.112
319.816
319.421
318.943
318.521
318.188
311.193
311.371
311.665
311.884
312.085
312.149
312.24
312.423
312.478
312.407
312.592
312.487
312.282
312.256
312.065
311.917
311.669
311.393
311.133
310.912
303.73
303.818
303.913
303.989
304.065
304.067
304.092
304.168
304.191
304.167
304.215
304.181
304.118
304.119
304.034
303.999
303.906
303.82
303.739
303.654
356.336
357.611
359.253
360.12
361.18
361.911
362.75
363.166
363.352
363.398
363.59
363.482
362.733
362.042
361.353
360.35
359.258
357.957
356.366
355.115
348.768
349.936
351.338
352.091
352.991
353.578
354.299
354.666
354.923
354.873
355.1
354.982
354.336
353.713
353.162
352.254
351.334
350.193
348.824
347.728
341.269
342.221
343.441
344.058
344.827
345.3
345.861
346.21
346.481
346.385
346.625
346.505
345.929
345.406
344.955
344.184
343.387
342.452
341.266
340.338
333.746
334.501
335.525
336.015
336.672
336.981
337.429
337.767
338.018
337.941
338.154
338.053
337.621
337.128
336.768
336.14
335.445
334.683
333.766
332.994
326.263
326.838
327.614
328.007
328.527
328.706
329.048
329.353
329.568
329.504
329.699
329.605
329.244
328.837
328.594
328.082
327.52
326.96
326.244
325.696
318.769
319.187
319.73
320.023
320.389
320.471
320.744
320.946
321.1
321.05
321.252
321.157
320.878
320.596
320.443
320.084
319.627
319.276
318.724
318.381
311.266
311.501
311.835
312.06
312.236
312.259
312.432
312.56
312.634
312.642
312.781
312.716
312.515
312.354
312.306
312.082
311.781
311.598
311.211
311.05
303.778
303.844
303.972
304.063
304.098
304.111
304.151
304.193
304.211
304.226
304.288
304.267
304.181
304.137
304.128
304.067
303.935
303.891
303.758
303.696
357.274
358.297
359.82
360.902
361.977
362.83
363.363
363.843
364.275
364.277
364.277
364.215
363.662
362.749
362.024
360.859
359.982
358.706
357.066
355.705
349.589
350.44
351.765
352.744
353.67
354.392
354.853
355.267
355.657
355.633
355.636
355.587
355.112
354.346
353.684
352.686
351.936
350.883
349.418
348.319
341.929
342.64
343.718
344.585
345.416
345.957
346.377
346.754
347.1
347.042
347.077
347.024
346.568
345.934
345.377
344.571
343.914
343.038
341.793
340.939
334.261
334.828
335.766
336.467
337.147
337.58
337.94
338.244
338.493
338.474
338.571
338.489
338.092
337.568
337.082
336.461
335.923
335.199
334.154
333.535
326.612
327.055
327.818
328.394
328.934
329.262
329.547
329.766
329.878
329.928
330.065
329.931
329.572
329.251
328.8
328.363
327.905
327.325
326.567
326.13
319.002
319.315
319.885
320.309
320.667
320.902
321.147
321.289
321.317
321.394
321.528
321.353
321.087
320.899
320.56
320.295
319.926
319.506
318.991
318.68
311.418
311.612
311.904
312.209
312.436
312.558
312.719
312.816
312.838
312.886
312.941
312.852
312.644
312.586
312.364
312.199
311.922
311.696
311.396
311.181
303.828
303.89
303.993
304.093
304.145
304.207
304.266
304.286
304.315
304.313
304.337
304.337
304.223
304.213
304.144
304.07
303.972
303.901
303.821
303.739
357.637
358.859
360.147
361.611
362.761
363.432
363.884
364.427
364.953
365.039
364.967
364.808
364.264
363.329
362.652
361.632
360.508
359.241
357.57
356.476
349.936
350.943
352.051
353.329
354.312
354.922
355.256
355.777
356.214
356.287
356.241
356.128
355.685
354.819
354.225
353.365
352.412
351.278
349.861
348.956
342.228
343.106
344.03
345.09
345.881
346.441
346.681
347.119
347.512
347.55
347.534
347.417
347.042
346.343
345.838
345.107
344.302
343.359
342.181
341.421
334.533
335.243
336.079
336.906
337.516
337.993
338.176
338.522
338.839
338.917
338.821
338.76
338.443
337.917
337.474
336.908
336.236
335.492
334.517
333.87
326.84
327.406
328.131
328.719
329.198
329.55
329.683
329.919
330.143
330.264
330.178
330.166
329.866
329.501
329.084
328.711
328.152
327.626
326.825
326.331
319.207
319.573
320.134
320.507
320.883
321.104
321.17
321.356
321.501
321.634
321.541
321.546
321.309
321.124
320.733
320.485
320.116
319.736
319.168
318.821
311.55
311.747
312.123
312.269
312.521
312.675
312.682
312.823
312.916
312.986
312.928
312.974
312.795
312.69
312.434
312.291
312.093
311.846
311.553
311.306
303.871
303.937
304.061
304.107
304.201
304.25
304.244
304.301
304.303
304.35
304.312
304.359
304.272
304.251
304.161
304.11
304.066
303.97
303.899
303.796
358.268
359.306
360.846
362.172
363.241
364.047
364.43
364.975
365.396
365.478
365.513
365.128
364.553
363.799
363.335
362.217
360.872
359.586
358.054
356.966
350.498
351.361
352.671
353.829
354.774
355.447
355.77
356.207
356.57
356.697
356.7
356.409
355.875
355.286
354.865
353.88
352.732
351.554
350.242
349.388
342.717
343.463
344.523
345.461
346.313
346.841
347.142
347.459
347.807
347.941
347.963
347.657
347.284
346.782
346.385
345.547
344.627
343.557
342.458
341.823
334.885
335.587
336.398
337.155
337.879
338.287
338.588
338.778
339.072
339.21
339.235
338.926
338.703
338.223
337.94
337.251
336.484
335.605
334.676
334.216
327.157
327.697
328.298
328.914
329.434
329.806
330.005
330.14
330.335
330.496
330.497
330.252
330.124
329.697
329.477
328.948
328.342
327.706
326.935
326.626
319.411
319.761
320.224
320.676
321.007
321.312
321.457
321.474
321.676
321.76
321.806
321.601
321.554
321.178
321.039
320.7
320.239
319.791
319.239
318.992
311.659
311.827
312.158
312.448
312.602
312.815
312.878
312.901
313.021
313.065
313.117
312.986
312.985
312.702
312.629
312.431
312.145
311.907
311.548
311.41
303.91
303.932
304.061
304.176
304.225
304.294
304.316
304.326
304.374
304.374
304.386
304.347
304.35
304.255
304.241
304.166
304.079
303.995
303.895
303.815
358.6
359.797
361.441
362.513
363.563
364.277
364.831
365.609
365.805
365.816
365.781
365.367
365.009
364.442
363.669
362.672
361.287
360.054
358.546
357.322
350.808
351.793
353.234
354.112
355.056
355.615
356.145
356.833
356.961
356.963
356.968
356.62
356.277
355.825
355.129
354.259
353.06
352.016
350.7
349.673
343.042
343.789
344.988
345.741
346.557
347.022
347.481
348.046
348.156
348.128
348.149
347.895
347.596
347.219
346.623
345.872
344.837
343.952
342.871
342.038
335.231
335.812
336.736
337.396
338.086
338.462
338.87
339.289
339.38
339.319
339.374
339.183
338.908
338.58
338.113
337.532
336.654
335.93
335.1
334.399
327.413
327.848
328.532
329.066
329.624
329.864
330.271
330.546
330.667
330.56
330.613
330.482
330.248
329.942
329.632
329.185
328.519
327.927
327.352
326.743
319.609
319.915
320.389
320.789
321.138
321.333
321.647
321.805
321.905
321.849
321.863
321.79
321.569
321.386
321.171
320.841
320.41
319.924
319.541
319.12
311.796
311.934
312.228
312.491
312.66
312.802
312.992
313.094
313.167
313.11
313.147
313.093
312.944
312.849
312.724
312.504
312.275
311.965
311.741
311.484
303.959
303.991
304.097
304.19
304.251
304.311
304.341
304.369
304.427
304.392
304.417
304.413
304.321
304.323
304.261
304.187
304.122
304.016
303.95
303.847
358.889
360.031
361.531
362.574
363.773
364.569
365.314
365.817
366.113
366.309
366.179
365.998
365.239
364.668
363.845
362.745
361.517
360.223
358.795
357.583
351.046
351.993
353.273
354.197
355.206
355.935
356.538
357.016
357.237
357.436
357.315
357.121
356.493
355.971
355.308
354.302
353.314
352.156
350.932
349.93
343.223
343.957
345.04
345.806
346.684
347.294
347.802
348.194
348.393
348.571
348.469
348.303
347.757
347.319
346.802
345.905
345.136
344.148
343.09
342.238
335.403
335.952
336.798
337.465
338.193
338.669
339.092
339.362
339.562
339.71
339.605
339.469
339.057
338.695
338.329
337.566
336.989
336.131
335.207
334.568
327.559
327.974
328.597
329.174
329.704
330.065
330.411
330.572
330.74
330.913
330.82
330.679
330.389
330.077
329.856
329.172
328.796
328.12
327.377
326.901
319.686
320.003
320.439
320.845
321.204
321.477
321.727
321.801
321.954
322.083
322.025
321.903
321.702
321.471
321.33
320.873
320.579
320.107
319.568
319.182
311.808
312.07
312.281
312.519
312.714
312.887
313.059
313.058
313.159
313.268
313.243
313.153
313.031
312.904
312.797
312.577
312.381
312.075
311.78
311.532
303.942
304.052
304.113
304.22
304.242
304.323
304.38
304.377
304.424
304.436
304.441
304.406
304.376
304.344
304.267
304.233
304.151
304.053
303.94
303.859
358.858
360.12
361.551
362.614
363.886
364.929
365.545
365.917
366.302
366.561
366.419
366.29
365.491
365.012
364.208
363.072
361.921
360.549
358.959
357.727
351.012
352.07
353.273
354.176
355.303
356.239
356.784
357.073
357.374
357.664
357.517
357.381
356.638
356.276
355.573
354.603
353.598
352.413
351.069
349.999
343.153
344.022
345.029
345.791
346.752
347.532
348.026
348.25
348.435
348.795
348.663
348.556
347.855
347.565
346.976
346.169
345.359
344.327
343.201
342.318
335.324
336.076
336.823
337.457
338.25
338.86
339.278
339.44
339.587
339.951
339.803
339.692
339.138
338.896
338.381
337.741
337.142
336.251
335.332
334.665
327.514
328.011
328.616
329.109
329.75
330.198
330.539
330.667
330.803
331.083
331.007
330.85
330.434
330.248
329.83
329.342
328.914
328.16
327.515
326.95
319.639
319.965
320.424
320.765
321.281
321.521
321.848
321.894
321.995
322.221
322.174
322.004
321.773
321.622
321.268
320.932
320.685
320.064
319.677
319.257
311.786
311.982
312.243
312.446
312.787
312.935
313.138
313.128
313.224
313.376
313.341
313.232
313.081
312.976
312.759
312.562
312.424
311.995
311.825
311.624
303.937
304.021
304.089
304.162
304.292
304.338
304.403
304.404
304.43
304.501
304.479
304.452
304.377
304.366
304.275
304.204
304.167
304.007
303.956
303.913
359.083
360.057
361.474
362.713
363.994
365.103
365.681
366.261
366.266
366.694
366.577
366.261
365.593
365.069
364.423
363.362
362.164
360.646
359.189
357.762
351.203
352.022
353.21
354.295
355.415
356.39
356.89
357.355
357.337
357.722
357.633
357.4
356.795
356.341
355.778
354.848
353.833
352.538
351.215
350.064
343.292
344.016
344.936
345.87
346.858
347.693
348.115
348.457
348.438
348.818
348.732
348.509
347.988
347.652
347.152
346.338
345.523
344.447
343.267
342.393
335.394
335.992
336.69
337.463
338.335
338.979
339.352
339.631
339.572
339.958
339.871
339.667
339.228
338.986
338.547
337.862
337.24
336.361
335.363
334.727
327.514
327.994
328.464
329.099
329.835
330.276
330.589
330.796
330.762
331.07
331.008
330.858
330.489
330.34
329.967
329.449
328.96
328.288
327.487
327.05
319.63
320.025
320.301
320.727
321.329
321.626
321.828
321.986
321.97
322.217
322.145
322.042
321.758
321.657
321.409
321.028
320.706
320.222
319.649
319.362
311.763
312.058
312.21
312.417
312.826
313.006
313.059
313.21
313.179
313.377
313.292
313.252
313.047
313.021
312.85
312.653
312.423
312.169
311.813
311.627
303.942
304.046
304.087
304.165
304.301
304.36
304.384
304.421
304.422
304.482
304.46
304.44
304.369
304.36
304.319
304.252
304.163
304.069
303.955
303.899
359.094
360.18
361.445
362.551
364.079
365.214
365.615
366.081
366.385
366.815
366.471
366.424
365.984
365.479
364.463
363.215
362.177
360.748
359.254
357.789
351.25
352.097
353.217
354.171
355.514
356.455
356.807
357.199
357.485
357.921
357.568
357.536
357.138
356.746
355.821
354.81
353.838
352.612
351.39
350.099
343.341
344.035
344.957
345.815
346.974
347.729
348.033
348.357
348.618
348.94
348.717
348.665
348.337
348.009
347.187
346.426
345.511
344.511
343.488
342.43
335.455
335.968
336.728
337.487
338.42
339.013
339.219
339.535
339.726
339.957
339.869
339.8
339.57
339.26
338.537
337.968
337.233
336.421
335.555
334.743
327.593
327.914
328.568
329.109
329.892
330.3
330.469
330.707
330.843
331.044
331.054
330.979
330.796
330.502
329.937
329.475
328.951
328.345
327.672
327.054
319.71
319.923
320.416
320.75
321.367
321.585
321.742
321.876
322.026
322.198
322.192
322.13
322.021
321.751
321.359
321.091
320.725
320.272
319.798
319.355
311.823
311.951
312.261
312.465
312.843
312.932
313.048
313.149
313.206
313.33
313.349
313.322
313.225
313.029
312.836
312.678
312.448
312.19
311.9
311.606
303.955
303.997
304.119
304.174
304.301
304.315
304.385
304.403
304.42
304.466
304.458
304.466
304.441
304.362
304.315
304.247
304.163
304.099
304.021
303.889
)
;

boundaryField
{
    hotSide
    {
        type            fixedGradient;
        gradient        nonuniform List<scalar> 
400
(
477.144
491.817
506.067
519.829
533.04
545.639
557.567
568.764
579.176
588.749
597.437
605.192
611.975
617.75
622.486
626.157
628.742
630.226
630.602
629.865
489.343
504.452
519.128
533.306
546.922
559.911
572.213
583.766
594.515
604.404
613.384
621.408
628.433
634.424
639.347
643.175
645.888
647.47
647.911
647.209
500.195
515.7
530.764
545.322
559.307
572.653
585.297
597.178
608.236
618.416
627.666
635.938
643.189
649.381
654.48
658.458
661.293
662.969
663.477
662.812
509.634
525.492
540.904
555.802
570.118
583.785
596.737
608.912
620.25
630.694
640.189
648.688
656.146
662.522
667.784
671.901
674.852
676.619
677.193
676.569
517.606
533.773
549.489
564.685
579.291
593.239
606.464
618.899
630.485
641.162
650.877
659.578
667.221
673.765
679.174
683.419
686.477
688.331
688.969
688.387
524.07
540.497
556.471
571.921
586.775
600.964
614.421
627.081
638.88
649.76
659.664
668.543
676.348
683.039
688.58
692.941
696.097
698.031
698.731
698.193
528.994
545.634
561.818
577.474
592.532
606.919
620.569
633.414
645.391
656.44
666.504
675.532
683.476
690.294
695.949
700.411
703.654
705.661
706.42
705.926
532.361
549.162
565.507
581.323
596.537
611.078
624.878
637.869
649.986
661.17
671.362
680.511
688.567
695.49
701.24
705.787
709.107
711.179
711.993
711.542
534.161
551.073
567.528
583.454
598.777
613.427
627.333
640.428
652.648
663.93
674.217
683.457
691.599
698.603
704.428
709.045
712.428
714.557
715.42
715.012
534.397
551.365
567.879
583.865
599.25
613.962
627.93
641.088
653.37
664.714
675.062
684.361
692.563
699.622
705.503
710.172
713.604
715.78
716.687
716.32
533.077
550.05
566.571
582.567
597.964
612.69
626.676
639.854
652.158
663.526
673.901
683.229
691.46
698.552
704.466
709.169
712.637
714.85
715.794
715.465
530.221
547.145
563.622
579.576
594.937
609.631
623.59
636.744
649.03
660.385
670.751
680.075
688.308
695.406
701.331
706.052
709.541
711.779
712.754
712.46
525.856
542.679
559.058
574.922
590.197
604.812
618.698
631.787
644.014
655.317
665.64
674.929
683.134
690.214
696.128
700.846
704.342
706.595
707.593
707.331
520.015
536.685
552.917
568.64
583.782
598.271
612.04
625.02
637.148
648.363
658.608
667.829
675.979
683.014
688.895
693.593
697.08
699.337
700.351
700.116
512.742
529.207
545.242
560.776
575.736
590.055
603.662
616.493
628.483
639.573
649.705
658.828
666.893
673.858
679.685
684.344
687.807
690.056
691.078
690.867
504.085
520.297
536.086
551.383
566.117
580.22
593.624
606.264
618.078
629.006
638.993
647.986
655.94
662.81
668.562
673.163
676.588
678.818
679.841
679.65
494.102
510.013
525.51
540.524
554.987
568.831
581.991
594.402
606.003
616.735
626.544
635.379
643.193
649.946
655.601
660.127
663.5
665.701
666.717
666.542
482.858
498.421
513.582
528.27
542.42
555.965
568.841
580.985
592.337
602.841
612.441
621.089
628.74
635.352
640.89
645.325
648.632
650.793
651.795
651.632
470.424
485.598
500.379
514.701
528.498
541.705
554.261
566.103
577.173
587.416
596.779
605.214
612.676
619.127
624.53
628.858
632.086
634.197
635.179
635.025
456.881
471.625
485.988
499.905
513.311
526.145
538.346
549.853
560.611
570.564
579.663
587.86
595.112
601.38
606.632
610.838
613.976
616.028
616.982
616.834
)
;
    }
    coldSide
    {
        type            mixed;
        refValue        uniform 300;
        refGradient     uniform 0;
        valueFraction   uniform 0.991591;
        source          uniform 0;
        value           nonuniform List<scalar> 
400
(
300.026
300.026
300.027
300.028
300.028
300.029
300.03
300.03
300.031
300.031
300.031
300.032
300.032
300.033
300.033
300.033
300.033
300.033
300.033
300.033
300.026
300.027
300.028
300.028
300.029
300.029
300.03
300.031
300.031
300.032
300.032
300.032
300.033
300.033
300.033
300.034
300.034
300.034
300.034