/*--------------------------------*- C++ -*----------------------------------*\
| =========                 |                                                 |
| \\      /  F ield         | OpenFOAM: The Open Source CFD Toolbox           |
|  \\    /   O peration     | Version:  2212                                  |
|   \\  /    A nd           | Website:  www.openfoam.com                      |
|    \\/     M anipulation  |                                                 |
\*---------------------------------------------------------------------------*/
FoamFile
{
    version     2.0;
    format      ascii;
    arch        "LSB;label=32;scalar=64";
    class       volScalarField;
    location    "0";
    object      stateMean;
}
// * * * * * * * * * * * * * * * * * * * * * * * * * * * * * * * * * * * * * //

dimensions      [0 0 0 1 0 0 0];

internalField   nonuniform List<scalar> 
3200
(
344.129
345.014
345.897
346.742
347.564
348.08
348.529
348.849
349.011
348.912
348.87
348.628
348.17
347.637
346.931
346.237
345.323
344.232
343.215
342.292
338.324
339.1
339.814
340.597
341.181
341.67
342.141
342.363
342.532
342.457
342.412
342.159
341.792
341.337
340.776
340.102
339.253
338.467
337.488
336.683
332.364
333.037
333.763
334.309
334.832
335.34
335.645
335.848
335.96
335.9
335.949
335.742
335.414
335.023
334.501
333.942
333.328
332.565
331.807
331.141
326.609
327.057
327.595
328.082
328.513
328.923
329.175
329.375
329.514
329.396
329.472
329.229
329.017
328.678
328.261
327.793
327.259
326.639
326
325.471
320.644
321.024
321.559
321.937
322.23
322.518
322.743
322.917
322.969
322.972
322.891
322.723
322.526
322.315
322
321.702
321.202
320.743
320.248
319.825
314.805
315.056
315.374
315.634
315.861
316.052
316.213
316.295
316.396
316.424
316.408
316.18
316.149
315.944
315.705
315.49
315.169
314.748
314.457
314.21
308.824
309.091
309.228
309.33
309.508
309.62
309.735
309.806
309.855
309.827
309.837
309.777
309.728
309.635
309.537
309.25
309.117
308.84
308.774
308.523
303.005
302.995
303.135
303.174
303.166
303.25
303.283
303.36
303.277
303.316
303.3
303.243
303.255
303.206
303.144
303.105
303.113
302.99
302.949
302.891
345
345.906
346.834
347.64
348.371
348.993
349.437
349.837
349.953
349.908
349.766
349.491
349.139
348.56
347.966
347.149
346.19
345.153
344.05
343.037
338.987
339.761
340.548
341.289
341.91
342.401
342.806
343.155
343.239
343.256
343.189
342.901
342.567
342.082
341.461
340.809
340.017
339.158
338.193
337.393
333.029
333.604
334.29
334.953
335.473
335.909
336.2
336.53
336.628
336.615
336.578
336.304
336.037
335.61
335.132
334.462
333.783
333.109
332.287
331.626
326.993
327.483
328.025
328.598
329
329.382
329.623
329.862
329.97
329.97
329.898
329.705
329.432
329.097
328.729
328.274
327.75
327.104
326.371
325.932
321.081
321.427
321.795
322.164
322.559
322.835
323.017
323.227
323.287
323.363
323.234
323.059
322.969
322.716
322.328
321.964
321.523
321.105
320.565
320.145
315.033
315.261
315.56
315.947
316.094
316.367
316.535
316.562
316.64
316.641
316.64
316.552
316.436
316.181
315.995
315.737
315.458
315.022
314.703
314.434
309.065
309.114
309.428
309.518
309.653
309.831
309.939
309.932
309.992
309.943
310.008
309.947
309.806
309.675
309.646
309.477
309.321
309.03
308.808
308.682
303.031
303.103
303.061
303.196
303.373
303.263
303.297
303.318
303.322
303.34
303.344
303.328
303.35
303.25
303.181
303.173
303.084
303.039
303.014
302.899
346.005
346.967
347.952
348.807
349.646
350.192
350.659
350.948
351.157
351.218
350.997
350.853
350.345
349.764
349.091
348.255
347.315
346.229
345.162
344.142
339.889
340.604
341.602
342.222
342.928
343.449
343.877
344.219
344.308
344.296
344.24
343.983
343.514
343.09
342.516
341.742
341.013
340.055
339.139
338.292
333.819
334.36
335.073
335.657
336.387
336.782
337.131
337.301
337.485
337.459
337.367
337.182
336.899
336.478
335.957
335.379
334.679
333.886
333.036
332.399
327.594
328.169
328.696
329.291
329.673
330.13
330.267
330.525
330.629
330.691
330.566
330.399
330.157
329.772
329.42
328.909
328.325
327.784
326.967
326.482
321.484
321.805
322.333
322.711
323.098
323.394
323.581
323.75
323.826
323.788
323.795
323.665
323.387
323.212
322.87
322.495
322.086
321.58
321.021
320.647
315.367
315.625
316.006
316.251
316.512
316.69
316.86
317.035
316.982
317.062
316.921
316.902
316.764
316.571
316.35
315.969
315.734
315.391
315.126
314.813
309.214
309.36
309.553
309.747
309.9
310.033
310.054
310.139
310.172
310.242
310.176
310.126
310.112
309.961
309.778
309.663
309.495
309.249
309.004
308.868
303.116
303.209
303.248
303.297
303.318
303.354
303.411
303.407
303.393
303.466
303.472
303.44
303.385
303.356
303.29
303.225
303.148
303.086
302.97
302.912
347.142
348.149
349.15
350.032
350.788
351.446
351.955
352.29
352.446
352.417
352.288
352.11
351.626
351.021
350.343
349.469
348.554
347.413
346.227
345.24
340.884
341.686
342.553
343.362
343.966
344.584
344.938
345.247
345.456
345.291
345.303
345.11
344.744
344.181
343.594
342.877
341.996
341.077
340.027
339.247
334.527
335.246
335.922
336.576
337.169
337.644
337.976
338.233
338.388
338.336
338.32
338.164
337.785
337.357
336.808
336.247
335.6
334.716
333.921
333.149
328.286
328.825
329.46
329.969
330.431
330.774
331.108
331.264
331.374
331.401
331.306
331.192
330.962
330.571
330.102
329.609
329.022
328.402
327.743
327.216
321.962
322.401
322.811
323.306
323.673
323.915
324.218
324.297
324.424
324.437
324.372
324.254
324.011
323.73
323.503
323.015
322.563
322.09
321.572
321.136
315.72
316.071
316.337
316.566
316.886
317.076
317.303
317.402
317.392
317.483
317.427
317.332
317.181
316.979
316.755
316.495
316.223
315.758
315.378
315.135
309.443
309.629
309.776
309.969
310.194
310.301
310.339
310.52
310.467
310.476
310.461
310.392
310.34
310.172
310.053
309.916
309.677
309.462
309.229
309.107
303.21
303.255
303.302
303.305
303.393
303.362
303.482
303.533
303.525
303.495
303.505
303.467
303.439
303.418
303.36
303.355
303.21
303.214
303.089
303.02
348.285
349.234
350.254
351.302
352.068
352.648
353.239
353.522
353.736
353.744
353.512
353.357
352.868
352.289
351.585
350.675
349.686
348.555
347.455
346.386
341.875
342.668
343.493
344.319
345.067
345.562
346.151
346.303
346.453
346.482
346.423
346.164
345.777
345.299
344.653
343.844
343.072
342.1
341.105
340.106
335.356
336.01
336.806
337.478
338.117
338.572
338.971
339.214
339.36
339.364
339.221
339.032
338.723
338.252
337.808
337.108
336.432
335.656
334.749
333.981
328.893
329.551
330.152
330.633
331.157
331.55
331.761
332.04
332.153
332.181
332.078
331.991
331.69
331.391
330.899
330.367
329.815
329.136
328.471
327.867
322.552
322.985
323.368
323.886
324.21
324.532
324.753
324.945
324.976
324.972
324.919
324.88
324.585
324.305
323.99
323.527
323.192
322.664
322.054
321.67
316.082
316.46
316.803
317.02
317.262
317.519
317.649
317.775
317.92
317.779
317.807
317.659
317.518
317.427
317.108
316.83
316.603
316.209
315.815
315.484
309.702
309.808
310.083
310.264
310.39
310.535
310.67
310.703
310.736
310.746
310.687
310.66
310.564
310.409
310.256
310.181
309.934
309.716
309.398
309.317
303.234
303.313
303.313
303.359
303.504
303.474
303.552
303.577
303.583
303.577
303.583
303.602
303.565
303.477
303.35
303.409
303.297
303.307
303.21
303.184
349.405
350.289
351.446
352.352
353.193
353.891
354.413
354.725
354.996
355.009
354.907
354.572
354.095
353.542
352.821
351.969
350.842
349.693
348.469
347.442
342.771
343.603
344.599
345.35
346.079
346.628
347.101
347.391
347.589
347.617
347.556
347.278
346.921
346.382
345.702
344.953
344.027
343.111
342.048
341.142
336.197
336.911
337.702
338.278
338.965
339.436
339.828
340.059
340.246
340.265
340.231
339.951
339.597
339.183
338.694
338.036
337.312
336.487
335.546
334.774
329.65
330.187
330.722
331.337
331.827
332.292
332.541
332.744
332.931
332.933
332.824
332.673
332.367
332.094
331.533
331.07
330.543
329.847
329.096
328.49
322.986
323.414
323.861
324.353
324.738
325.023
325.371
325.507
325.524
325.628
325.531
325.38
325.157
324.927
324.547
324.133
323.7
323.165
322.661
322.151
316.434
316.748
317.117
317.337
317.665
317.899
318.042
318.244
318.276
318.242
318.293
318.191
318.07
317.853
317.539
317.321
316.914
316.529
316.2
315.761
309.833
310.031
310.248
310.426
310.644
310.765
310.831
310.899
310.984
310.989
310.95
310.955
310.822
310.686
310.532
310.424
310.105
309.952
309.723
309.471
303.334
303.342
303.458
303.473
303.573
303.571
303.628
303.628
303.612
303.712
303.708
303.652
303.626
303.562
303.535
303.458
303.414
303.323
303.227
303.139
350.44
351.427
352.511
353.558
354.403
354.97
355.551
355.91
356.163
356.23
356.072
355.788
355.356
354.707
353.939
353.057
352.039
350.817
349.562
348.496
343.712
344.526
345.477
346.315
346.987
347.615
348.069
348.389
348.605
348.659
348.537
348.29
347.86
347.308
346.672
345.976
345.047
344.019
343.041
342.06
336.956
337.669
338.504
339.218
339.728
340.25
340.662
340.943
341.095
341.127
341.029
340.842
340.48
340.018
339.504
338.808
338.063
337.231
336.403
335.568
330.202
330.802
331.427
331.926
332.434
332.961
333.154
333.508
333.586
333.67
333.536
333.463
333.064
332.727
332.342
331.817
331.117
330.429
329.72
329.072
323.502
323.932
324.426
324.865
325.305
325.656
325.905
326.052
326.117
326.171
326.076
325.965
325.748
325.452
325.083
324.64
324.177
323.731
323.115
322.672
316.8
317.094
317.45
317.76
317.982
318.256
318.415
318.511
318.684
318.658
318.643
318.563
318.413
318.186
318.052
317.676
317.366
317.002
316.488
316.211
310.002
310.302
310.455
310.716
310.913
310.966
311.12
311.201
311.26
311.201
311.227
311.106
311.03
310.853
310.825
310.61
310.398
310.195
309.901
309.692
303.395
303.465
303.533
303.519
303.616
303.762
303.693
303.753
303.74
303.718
303.768
303.734
303.693
303.65
303.615
303.633
303.502
303.398
303.373
303.298
351.449
352.37
353.5
354.513
355.43
356.05
356.618
357.094
357.185
357.269
357.213
356.821
356.444
355.747
355.019
354.147
353.052
351.797
350.583
349.507
344.536
345.342
346.312
347.184
347.957
348.578
349.022
349.38
349.572
349.592
349.525
349.245
348.954
348.287
347.63
346.861
345.928
344.931
343.836
342.904
337.644
338.403
339.178
339.893
340.504
341.087
341.431
341.685
341.959
341.937
341.852
341.594
341.304
340.915
340.309
339.579
338.742
338.007
337.073
336.332
330.796
331.37
331.988
332.686
333.186
333.622
333.9
334.215
334.331
334.291
334.251
333.966
333.724
333.421
332.954
332.36
331.792
331.066
330.342
329.71
323.943
324.389
324.873
325.377
325.758
326.101
326.381
326.578
326.706
326.607
326.636
326.469
326.269
325.964
325.609
325.247
324.726
324.188
323.619
323.082
317.092
317.441
317.791
318.122
318.401
318.591
318.842
318.991
319.059
319.027
319.005
318.9
318.752
318.535
318.339
317.951
317.649
317.266
316.834
316.502
310.354
310.473
310.674
310.834
311.047
311.192
311.316
311.37
311.471
311.394
311.39
311.364
311.269
311.153
310.93
310.805
310.601
310.398
310.092
309.907
303.489
303.579
303.588
303.684
303.758
303.86
303.8
303.821
303.851
303.85
303.856
303.766
303.744
303.668
303.723
303.575
303.605
303.526
303.408
303.323
352.237
353.282
354.465
355.461
356.361
357.165
357.636
358.106
358.347
358.343
358.306
357.908
357.474
356.858
356.031
355.103
354.047
352.851
351.589
350.361
345.301
346.12
347.122
348.055
348.83
349.452
349.876
350.27
350.529
350.563
350.396
350.155
349.759
349.192
348.544
347.663
346.748
345.793
344.593
343.643
338.35
339.034
339.877
340.573
341.27
341.764
342.162
342.524
342.605
342.644
342.637
342.424
342.05
341.602
341.005
340.296
339.515
338.653
337.767
336.92
331.345
331.925
332.665
333.184
333.764
334.23
334.475
334.782
334.926
334.931
334.888
334.67
334.335
334.019
333.588
332.99
332.409
331.592
330.876
330.274
324.376
324.797
325.335
325.889
326.21
326.597
326.927
326.994
327.131
327.109
327.142
326.965
326.732
326.483
326.094
325.707
325.17
324.583
324.004
323.503
317.387
317.713
318.076
318.528
318.799
318.98
319.163
319.273
319.371
319.432
319.34
319.285
319.128
318.93
318.608
318.348
317.954
317.565
317.108
316.824
310.49
310.623
310.906
311.089
311.248
311.421
311.5
311.552
311.684
311.675
311.612
311.557
311.471
311.328
311.134
311.005
310.749
310.57
310.345
310.059
303.486
303.554
303.686
303.679
303.755
303.858
303.878
303.802
303.9
303.83
303.96
303.778
303.801
303.843
303.672
303.696
303.604
303.544
303.491
303.38
353.121
354.099
355.339
356.33
357.283
358.019
358.636
359.099
359.269
359.299
359.137
358.895
358.407
357.771
356.977
356.101
354.877
353.732
352.397
351.24
346.05
346.919
347.898
348.812
349.626
350.157
350.838
351.055
351.333
351.332
351.223
350.874
350.517
350.069
349.303
348.434
347.572
346.532
345.387
344.462
338.896
339.617
340.457
341.288
341.861
342.565
342.859
343.195
343.346
343.409
343.412
343.171
342.748
342.331
341.727
340.991
340.176
339.297
338.359
337.543
331.818
332.342
333.143
333.722
334.287
334.73
335.065
335.286
335.454
335.472
335.38
335.196
334.971
334.597
334.127
333.594
332.893
332.122
331.351
330.708
324.783
325.169
325.75
326.253
326.697
327.006
327.292
327.46
327.656
327.564
327.566
327.366
327.175
326.862
326.499
326.039
325.533
325.041
324.412
324.004
317.723
318.03
318.369
318.641
319.051
319.3
319.431
319.633
319.664
319.716
319.721
319.591
319.455
319.245
318.935
318.577
318.338
317.831
317.458
317.015
310.616
310.789
310.993
311.228
311.453
311.562
311.619
311.778
311.751
311.811
311.763
311.688
311.659
311.57
311.393
311.248
310.989
310.714
310.462
310.248
303.576
303.591
303.673
303.835
303.822
303.854
303.961
303.969
303.997
304.037
303.97
303.891
303.863
303.904
303.791
303.753
303.663
303.561
303.531
303.394
353.845
354.995
356.118
357.209
358.137
358.943
359.494
359.943
360.082
360.13
359.982
359.77
359.23
358.61
357.812
356.837
355.676
354.52
353.144
351.95
346.659
347.558
348.59
349.499
350.335
351.061
351.443
351.862
352.037
352.086
351.996
351.716
351.279
350.754
350.048
349.162
348.221
347.176
346.093
345.032
339.513
340.235
341.097
341.853
342.505
343.118
343.445
343.828
343.936
343.973
343.995
343.741
343.394
342.898
342.263
341.529
340.844
339.887
338.954
338.093
332.216
332.877
333.608
334.218
334.813
335.247
335.636
335.8
335.939
335.992
335.978
335.653
335.476
335.096
334.556
334.061
333.322
332.596
331.886
331.205
325.144
325.58
326.108
326.592
327.021
327.407
327.644
327.833
327.902
327.973
327.893
327.756
327.589
327.254
326.877
326.514
325.982
325.369
324.756
324.26
317.94
318.233
318.67
319.031
319.319
319.59
319.815
319.904
320.008
320.042
319.915
319.903
319.679
319.5
319.188
318.897
318.544
318.075
317.728
317.37
310.816
310.988
311.136
311.371
311.562
311.767
311.895
311.972
311.957
311.996
311.967
311.968
311.833
311.681
311.489
311.367
311.13
310.842
310.59
310.458
303.642
303.702
303.801
303.834
303.94
303.981
304.02
303.964
304.017
303.969
304.002
304.021
304.035
303.922
303.817
303.845
303.689
303.598
303.543
303.502
354.565
355.607
356.806
357.927
358.909
359.612
360.233
360.675
360.888
360.868
360.883
360.522
359.998
359.466
358.527
357.57
356.483
355.266
353.864
352.674
347.232
348.159
349.215
350.178
350.965
351.638
352.04
352.4
352.74
352.772
352.698
352.389
351.937
351.456
350.694
349.892
348.924
347.812
346.591
345.692
340.01
340.712
341.612
342.395
343.032
343.712
344.081
344.411
344.587
344.636
344.566
344.287
343.986
343.498
342.88
342.129
341.347
340.495
339.525
338.63
332.656
333.235
334.04
334.676
335.221
335.679
335.991
336.231
336.466
336.461
336.371
336.245
335.95
335.579
335.06
334.502
333.777
333.055
332.329
331.589
325.418
325.899
326.358
326.949
327.353
327.692
327.956
328.234
328.342
328.308
328.337
328.096
327.974
327.676
327.271
326.767
326.275
325.664
325.098
324.587
318.161
318.554
318.874
319.275
319.531
319.796
319.993
320.15
320.183
320.2
320.22
320.085
319.972
319.743
319.541
319.126
318.813
318.332
317.885
317.573
310.869
311.076
311.293
311.557
311.727
311.912
312.04
312.177
312.123
312.109
312.144
312.078
312.033
311.87
311.639
311.493
311.28
311.023
310.835
310.575
303.656
303.746
303.785
303.922
303.892
303.955
304.062
304.082
304.075
304.099
304.069
304.027
303.983
303.96
303.914
303.905
303.722
303.722
303.664
303.558
355.051
356.239
357.392
358.473
359.453
360.346
360.848
361.307
361.517
361.677
361.467
361.179
360.758
360.097
359.208
358.24
357.098
355.859
354.482
353.31
347.725
348.682
349.693
350.677
351.525
352.204
352.725
353.14
353.229
353.294
353.257
353.041
352.547
352.021
351.241
350.428
349.461
348.355
347.205
346.119
340.365
341.074
342.044
342.861
343.487
344.15
344.567
344.878
345.067
345.148
345.01
344.792
344.472
344.026
343.313
342.626
341.789
340.893
339.908
339.116
332.989
333.704
334.402
335.024
335.576
336.096
336.4
336.7
336.857
336.861
336.785
336.627
336.359
335.952
335.404
334.851
334.185
333.379
332.64
331.994
325.678
326.157
326.669
327.229
327.669
328.022
328.329
328.528
328.656
328.647
328.642
328.538
328.205
327.959
327.551
327.154
326.589
325.995
325.343
324.881
318.257
318.687
319.015
319.471
319.699
320.054
320.272
320.455
320.409
320.513
320.406
320.399
320.244
319.976
319.7
319.404
318.991
318.586
318.156
317.778
311.025
311.188
311.451
311.654
311.919
312.014
312.149
312.282
312.383
312.309
312.251
312.22
312.155
311.99
311.809
311.623
311.355
311.111
310.871
310.686
303.608
303.837
303.921
303.904
303.978
304.059
304.081
304.069
304.133
304.084
304.094
304.141
304.071
304.019
303.969
303.888
303.843
303.798
303.692
303.526
355.611
356.722
357.987
359.028
360.019
360.827
361.481
361.893
362.157
362.224
362.071
361.828
361.292
360.625
359.799
358.861
357.587
356.427
355.02
353.814
348.178
349.102
350.164
351.058
351.984
352.647
353.267
353.603
353.801
353.877
353.756
353.537
353.112
352.565
351.773
350.905
349.876
348.781
347.707
346.636
340.71
341.497
342.437
343.197
343.945
344.479
344.998
345.294
345.508
345.514
345.502
345.281
344.928
344.405
343.759
343.055
342.264
341.319
340.338
339.503
333.302
333.85
334.669
335.316
335.921
336.364
336.84
337.049
337.21
337.23
337.175
337.019
336.669
336.275
335.743
335.225
334.52
333.799
332.967
332.294
325.861
326.352
326.932
327.444
327.942
328.299
328.588
328.787
328.944
328.97
328.947
328.808
328.512
328.196
327.833
327.461
326.874
326.289
325.604
325.063
318.566
318.827
319.211
319.668
319.928
320.188
320.394
320.561
320.637
320.676
320.621
320.508
320.352
320.125
319.92
319.545
319.154
318.771
318.33
317.965
311.178
311.392
311.583
311.831
311.999
312.178
312.238
312.391
312.427
312.435
312.369
312.32
312.249
312.138
311.922
311.767
311.491
311.22
311.02
310.775
303.83
303.819
303.852
303.912
304.017
304.107
304.169
304.143
304.125
304.17
304.229
304.092
304.039
304.065
304.042
303.992
303.829
303.758
303.624
303.576
355.956
356.969
358.396
359.41
360.459
361.317
361.935
362.349
362.597
362.662
362.574
362.274
361.776
361.068
360.319
359.245
358.074
356.892
355.51
354.213
348.456
349.51
350.551
351.537
352.342
353.137
353.557
353.961
354.171
354.325
354.135
353.902
353.498
352.903
352.235
351.315
350.306
349.201
348.105
347.031
340.96
341.79
342.698
343.543
344.154
344.859
345.331
345.659
345.805
345.836
345.876
345.531
345.23
344.761
344.156
343.457
342.617
341.634
340.596
339.753
333.509
334.128
334.893
335.609
336.205
336.669
336.98
337.304
337.493
337.511
337.397
337.266
336.958
336.594
336.106
335.489
334.76
333.967
333.239
332.609
326.167
326.609
327.189
327.683
328.145
328.518
328.805
329.054
329.116
329.185
329.136
328.96
328.766
328.442
328.061
327.646
327.029
326.41
325.837
325.32
318.627
319.001
319.342
319.779
320.084
320.365
320.507
320.795
320.796
320.858
320.78
320.673
320.51
320.299
319.993
319.728
319.323
318.963
318.482
318.03
311.137
311.336
311.633
311.928
312.077
312.232
312.334
312.467
312.505
312.482
312.508
312.443
312.302
312.16
312.095
311.843
311.606
311.339
311.044
310.838
303.713
303.861
303.908
304.017
303.994
304.162
304.121
304.19
304.209
304.2
304.063
304.201
304.169
304.088
303.988
303.928
303.856
303.755
303.752
303.656
356.247
357.434
358.702
359.781
360.787
361.613
362.27
362.722
363.012
362.999
362.931
362.62
362.185
361.458
360.707
359.608
358.431
357.182
355.805
354.47
348.77
349.72
350.833
351.781
352.706
353.414
353.874
354.322
354.552
354.536
354.532
354.161
353.78
353.269
352.513
351.644
350.689
349.505
348.318
347.22
341.24
342
342.94
343.807
344.487
345.104
345.525
345.887
346.12
346.151
346.111
345.907
345.508
345.021
344.425
343.646
342.839
341.877
340.818
339.992
333.689
334.42
335.107
335.778
336.368
336.94
337.215
337.451
337.747
337.78
337.686
337.52
337.252
336.83
336.385
335.746
335.034
334.256
333.368
332.716
326.275
326.647
327.271
327.818
328.251
328.66
329.026
329.178
329.297
329.279
329.298
329.192
328.984
328.661
328.268
327.756
327.251
326.604
326.005
325.401
318.803
319.173
319.541
319.866
320.114
320.47
320.664
320.897
320.952
320.908
320.882
320.788
320.703
320.496
320.127
319.773
319.451
318.98
318.598
318.211
311.254
311.502
311.647
311.995
312.179
312.273
312.357
312.545
312.5
312.591
312.57
312.515
312.387
312.283
312.055
311.898
311.701
311.408
311.131
310.901
303.722
303.882
303.977
303.961
304.027
304.079
304.166
304.154
304.189
304.19
304.255
304.215
304.124
304.211
304.091
303.983
303.899
303.815
303.728
303.627
356.485
357.648
358.852
360.087
361.046
361.883
362.511
362.963
363.243
363.277
363.248
362.922
362.395
361.74
360.936
359.93
358.723
357.46
355.982
354.808
348.952
349.864
351.02
351.997
352.933
353.51
354.085
354.503
354.65
354.79
354.712
354.5
354.07
353.503
352.772
351.883
350.839
349.699
348.589
347.402
341.396
342.209
343.165
343.973
344.596
345.249
345.754
346.034
346.278
346.327
346.292
346.051
345.63
345.232
344.615
343.869
343.015
342.051
341.002
340.209
333.916
334.434
335.277
335.978
336.586
336.968
337.417
337.692
337.891
337.907
337.768
337.668
337.369
336.967
336.538
335.868
335.196
334.408
333.522
332.941
326.336
326.913
327.428
327.967
328.379
328.753
329.044
329.286
329.397
329.433
329.388
329.263
329.048
328.752
328.373
327.841
327.281
326.719
326.048
325.578
318.772
319.193
319.588
319.848
320.351
320.567
320.826
320.919
320.994
321.048
320.96
320.95
320.817
320.549
320.27
319.856
319.524
319.098
318.669
318.267
311.301
311.504
311.867
311.978
312.124
312.356
312.504
312.577
312.592
312.646
312.598
312.516
312.426
312.296
312.209
311.991
311.79
311.433
311.195
310.942
303.824
303.862
303.919
304.029
304.129
304.102
304.233
304.212
304.208
304.235
304.255
304.229
304.101
304.085
304.064
304.047
303.936
303.809
303.68
303.733
356.568
357.776
359.075
360.19
361.163
362.012
362.668
363.126
363.444
363.481
363.351
363.069
362.575
361.909
361.062
360.047
358.922
357.536
356.17
354.97
349.018
350.013
351.1
352.137
352.999
353.714
354.278
354.608
354.862
354.937
354.906
354.604
354.144
353.61
352.924
352.043
351.009
349.885
348.699
347.577
341.49
342.228
343.162
344.016
344.777
345.384
345.952
346.161
346.439
346.463
346.413
346.204
345.844
345.359
344.743
343.973
343.082
342.181
341.134
340.241
333.892
334.551
335.322
336.022
336.676
337.141
337.484
337.781
338.019
337.979
337.878
337.771
337.4
337.09
336.545
335.995
335.306
334.476
333.729
333.02
326.357
326.904
327.431
328.023
328.456
328.803
329.186
329.374
329.538
329.563
329.504
329.439
329.126
328.799
328.453
327.934
327.471
326.714
326.198
325.607
318.851
319.2
319.635
320.039
320.315
320.579
320.824
320.993
321.018
321.097
321.059
321.013
320.797
320.605
320.339
319.957
319.582
319.195
318.679
318.32
311.354
311.49
311.748
311.986
312.186
312.437
312.504
312.637
312.702
312.685
312.633
312.593
312.502
312.382
312.278
312.011
311.764
311.494
311.234
310.956
303.776
303.808
303.944
304.038
304.11
304.113
304.228
304.192
304.18
304.213
304.211
304.254
304.123
304.124
304.09
304.011
303.943
303.84
303.832
303.665
356.67
357.757
359.055
360.223
361.236
362.126
362.758
363.114
363.459
363.533
363.477
363.19
362.578
361.984
361.209
360.116
359.028
357.656
356.237
354.989
349.024
349.991
351.124
352.136
352.986
353.772
354.324
354.717
354.958
354.933
354.934
354.69
354.239
353.738
352.953
352.027
351.044
349.935
348.762
347.648
341.503
342.283
343.206
344.035
344.865
345.447
345.959
346.249
346.424
346.529
346.497
346.231
345.842
345.348
344.747
344.087
343.128
342.182
341.243
340.336
333.936
334.626
335.322
336.094
336.595
337.159
337.542
337.838
337.955
338.089
337.977
337.803
337.561
337.119
336.532
336.065
335.303
334.455
333.803
333.023
326.338
326.914
327.527
328.073
328.469
328.874
329.195
329.375
329.568
329.513
329.522
329.367
329.145
328.857
328.443
327.983
327.407
326.834
326.258
325.714
318.788
319.234
319.669
320.082
320.413
320.572
320.846
321.029
321.06
321.131
321.113
320.967
320.894
320.645
320.356
320.035
319.61
319.183
318.671
318.359
311.361
311.487
311.818
312.01
312.162
312.415
312.5
312.639
312.637
312.684
312.662
312.566
312.484
312.387
312.22
312.035
311.787
311.54
311.193
310.99
303.819
303.885
303.934
304.076
304.157
304.148
304.197
304.188
304.195
304.238
304.239
304.221
304.255
304.161
304.121
304.01
303.924
303.816
303.74
303.741
356.63
357.76
359.036
360.22
361.251
362.047
362.685
363.206
363.466
363.504
363.392
363.093
362.686
362.041
361.122
360.085
358.967
357.61
356.252
355.007
349.054
349.978
351.049
352.145
353.013
353.74
354.328
354.694
354.978
355.01
354.91
354.682
354.292
353.633
352.934
352.131
351.039
349.942
348.71
347.672
341.553
342.292
343.168
344.11
344.801
345.442
345.903
346.191
346.448
346.567
346.373
346.135
345.897
345.387
344.761
343.993
343.225
342.186
341.214
340.418
333.979
334.58
335.328
336.041
336.654
337.125
337.51
337.824
337.927
338.057
337.998
337.798
337.538
337.107
336.601
336.021
335.335
334.499
333.754
332.98
326.391
326.927
327.405
328.048
328.431
328.936
329.211
329.401
329.569
329.466
329.536
329.369
329.216
328.857
328.459
328.038
327.44
326.842
326.291
325.702
318.828
319.178
319.659
320
320.29
320.675
320.836
320.991
321.113
321.183
321.041
321.037
320.853
320.597
320.32
319.967
319.628
319.222
318.74
318.356
311.326
311.464
311.834
312.053
312.189
312.365
312.523
312.668
312.707
312.688
312.609
312.577
312.494
312.372
312.204
312.023
311.802
311.551
311.259
310.984
303.77
303.852
303.918
304.009
304.029
304.109
304.216
304.245
304.207
304.294
304.233
304.292
304.176
304.117
304.109
304.051
303.944
303.933
303.702
303.68
)
;

boundaryField
{
    hotSide
    {
        type            fixedGradient;
        gradient        nonuniform List<scalar> 
400
(
321.511
322.87
325.591
329.677
335.133
341.965
350.181
359.788
370.794
383.208
397.037
412.289
428.971
447.088
466.647
487.651
510.105
534.011
559.372
586.191
323.738
325.08
327.767
331.802
337.194
343.949
352.078
361.591
372.498
384.81
398.537
413.687
430.268
448.289
467.755
488.672
511.043
534.872
560.161
586.913
326.149
327.47
330.116
334.091
339.406
346.071
354.099
363.503
374.296
386.491
400.101
415.136
431.606
449.52
468.885
489.706
511.988
535.735
560.948
587.63
328.704
330
332.597
336.503
341.73
348.292
356.205
365.485
376.15
388.215
401.695
416.604
432.954
450.753
470.009
490.73
512.919
536.579
561.714
588.325
331.33
332.599
335.142
338.97
344.099
350.546
358.332
367.477
378.003
389.928
403.271
418.047
434.27
451.949
471.095
491.712
513.807
537.382
562.439
588.978
333.918
335.158
337.643
341.389
346.414
352.74
360.392
369.397
379.779
391.562
404.765
419.407
435.503
453.065
472.101
492.618
514.622
538.114
563.096
589.569
336.321
337.531
339.959
343.622
348.544
354.751
362.274
371.142
381.385
393.031
406.101
420.618
436.595
454.047
472.983
493.409
515.33
538.747
563.663
590.076
338.36
339.543
341.92
345.509
350.339
356.44
363.847
372.595
382.718
394.244
407.2
421.608
437.485
454.844
473.695
494.045
515.897
539.253
564.114
590.478
339.852
341.015
343.352
346.885
351.645
357.665
364.985
373.643
383.675
395.113
407.984
422.312
438.116
455.407
474.197
494.491
516.294
539.606
564.428
590.758
340.643
341.795
344.11
347.613
352.334
358.311
365.584
374.193
384.176
395.567
408.393
422.679
438.443
455.699
474.456
494.722
516.498
539.788
564.589
590.901
340.643
341.795
344.11
347.613
352.334
358.311
365.584
374.193
384.176
395.567
408.393
422.679
438.443
455.699
474.456
494.722
516.498
539.788
564.589
590.901
339.852
341.015
343.352
346.885
351.645
357.665
364.985
373.643
383.675
395.113
407.984
422.312
438.116
455.407
474.197
494.491
516.294
539.606
564.428
590.758
338.36
339.543
341.92
345.509
350.339
356.44
363.847
372.595
382.718
394.244
407.2
421.608
437.485
454.844
473.695
494.045
515.897
539.253
564.114
590.478
336.321
337.531
339.959
343.622
348.544
354.751
362.274
371.142
381.385
393.031
406.101
420.618
436.595
454.047
472.983
493.409
515.33
538.747
563.663
590.076
333.918
335.158
337.643
341.389
346.414
352.74
360.392
369.397
379.779
391.562
404.765
419.407
435.503
453.065
472.101
492.618
514.622
538.114
563.096
589.569
331.33
332.599
335.142
338.97
344.099
350.546
358.332
367.477
378.003
389.928
403.271
418.047
434.27
451.949
471.095
491.712
513.807
537.382
562.439
588.978
328.704
330
332.597
336.503
341.73
348.292
356.205
365.485
376.15
388.215
401.695
416.604
432.954
450.753
470.009
490.73
512.919
536.579
561.714
588.325
326.149
327.47
330.116
334.091
339.406
346.071
354.099
363.503
374.296
386.491
400.101
415.136
431.606
449.52
468.885
489.706
511.988
535.735
560.948
587.63
323.738
325.08
327.767
331.802
337.194
343.949
352.078
361.591
372.498
384.81
398.537
413.687
430.268
448.289
467.755
488.672
511.043
534.872
560.161
586.913
321.511
322.87
325.591
329.677
335.133
341.965
350.181
359.788
370.794
383.208
397.037
412.289
428.971
447.088
466.647
487.651
510.105
534.011
559.372
586.191
)
;
    }
    coldSide
    {
        type            mixed;
        refValue        uniform 300;
        refGradient     uniform 0;
        valueFraction   uniform 0.991591;
        source          uniform 0;
        value           nonuniform List<scalar> 
400
(
300.025
300.025
300.026
300.027
300.027
300.028
300.029
300.029
300.029
300.03
300.031
300.031
300.03
300.032
300.031
300.031
300.032
300.032
300.032
300.032
300.025
300.026
300.027
300.027
300.028
300.028
300.029
300.03
300.03
300.03
300.031
300.032
300.032
300.032
300.032
300.033
300.032
300.032
300.033
300.032
300.026
300.026