/*--------------------------------*- C++ -*----------------------------------*\
| =========                 |                                                 |
| \\      /  F ield         | OpenFOAM: The Open Source CFD Toolbox           |
|  \\    /   O peration     | Version:  2212                                  |
|   \\  /    A nd           | Website:  www.openfoam.com                      |
|    \\/     M anipulation  |                                                 |
\*---------------------------------------------------------------------------*/
FoamFile
{
    version     2.0;
    format      ascii;
    arch        "LSB;label=32;scalar=64";
    class       volScalarField;
    location    "0";
    object      relativeErrorField;
}
// * * * * * * * * * * * * * * * * * * * * * * * * * * * * * * * * * * * * * //

dimensions      [0 0 0 1 0 0 0];

internalField   nonuniform List<scalar> 
3200
(
0.00470073
0.00445593
0.00443753
0.00467862
0.00523055
0.00604177
0.00693346
0.00766397
0.00859574
0.00924572
0.00918864
0.00955494
0.00896519
0.00883444
0.0083195
0.00795793
0.00798714
0.00810183
0.00852807
0.00896343
0.00406326
0.00383945
0.00372695
0.00392257
0.00429947
0.00497742
0.0057079
0.006618
0.00702615
0.0077772
0.00807954
0.00806292
0.00789651
0.00727616
0.00725802
0.00699914
0.00681487
0.00675374
0.00714926
0.0076968
0.00303704
0.00312144
0.00305722
0.00317151
0.00334059
0.00410287
0.00501368
0.00544165
0.00595548
0.00655747
0.00679363
0.00648816
0.00647717
0.00636014
0.00603531
0.00566902
0.00566035
0.00558906
0.00597387
0.00629253
0.00272602
0.00254619
0.00246121
0.0024265
0.00282643
0.00342061
0.00364692
0.0044626
0.00483731
0.0050769
0.00562997
0.00513666
0.00526164
0.0052551
0.00475855
0.00465857
0.00460073
0.00453838
0.00488131
0.00510233
0.00215416
0.00169288
0.00195902
0.00173331
0.00200494
0.00246351
0.00287088
0.00346894
0.00376108
0.00420642
0.00406648
0.00411916
0.00411478
0.00373002
0.00377548
0.00368052
0.00363777
0.00357577
0.00361777
0.00394225
0.00132654
0.00118128
0.00115966
0.00117633
0.00174672
0.00168217
0.0020709
0.00236078
0.0027415
0.00293065
0.00297086
0.00293971
0.00282058
0.00293163
0.0026313
0.00247471
0.00246684
0.00251928
0.00258318
0.00287412
0.000911307
0.000685057
0.000770072
0.000705935
0.000968735
0.0011331
0.00121788
0.00157809
0.00174368
0.00165732
0.00181018
0.00181766
0.00184377
0.00177562
0.00162147
0.00151606
0.00155318
0.00173882
0.00184506
0.00166104
0.000350399
0.000248729
0.0005207
0.000473345
0.000248688
0.000300886
0.000321235
0.000564283
0.000604544
0.000523219
0.000626097
0.000631348
0.000627572
0.000454307
0.000661105
0.000527173
0.000687425
0.000601603
0.000658226
0.000626998
0.00230357
0.00190193
0.00181077
0.00197553
0.00230542
0.00310883
0.00398127
0.00493956
0.0055635
0.00618477
0.00648407
0.00659766
0.00618351
0.00604745
0.005554
0.00533839
0.00506701
0.00546947
0.00589806
0.00635631
0.0018149
0.00158205
0.00137136
0.0016285
0.00187987
0.00286383
0.00340061
0.00422734
0.00469386
0.00530157
0.00556856
0.00525274
0.00552009
0.00506169
0.00468505
0.00461163
0.00454828
0.0046931
0.00508176
0.00558422
0.00169913
0.00122385
0.00131878
0.00144831
0.00160767
0.00224456
0.00282199
0.00346165
0.00395932
0.00451666
0.00441799
0.00458085
0.00467178
0.00402589
0.00381624
0.00368482
0.00381964
0.00389006
0.00424424
0.00454029
0.00115416
0.0010811
0.00115394
0.00104753
0.00127376
0.00176498
0.00227368
0.00295881
0.00320483
0.00343858
0.00376254
0.00391353
0.00372904
0.00332721
0.00308295
0.00294082
0.00298786
0.00327852
0.00362926
0.00387236
0.00105938
0.000728742
0.000437339
0.000792746
0.000953618
0.00136236
0.00177953
0.00224618
0.0026586
0.0028889
0.00287633
0.00300394
0.0026466
0.00275003
0.0024275
0.00228029
0.00231261
0.00244417
0.00275301
0.00278556
0.000778675
0.000429567
0.000585857
0.000698596
0.000691027
0.000859244
0.0012824
0.00159628
0.00167785
0.00193116
0.00227158
0.00197801
0.00201471
0.00185588
0.00173695
0.00142578
0.00162889
0.00159861
0.00186791
0.00202483
0.000586341
0.000532584
0.000330318
0.000302254
0.000519778
0.000445473
0.000558451
0.00102546
0.00100243
0.00105909
0.00134062
0.00152304
0.0010767
0.000965992
0.00107427
0.000990994
0.000900679
0.00114005
0.00109227
0.00143448
3.61708e-06
6.63785e-05
6.3221e-05
0.000376877
9.85495e-05
0.0001272
0.000422726
0.000463277
0.000350713
0.000277907
0.000460644
0.000538768
0.000286427
0.000195604
0.000214419
3.15768e-05
0.000344836
0.000309252
0.000378723
0.000481227
0.000670647
0.00132328
0.00152995
0.00158575
0.00100677
0.000355718
0.000424234
0.00113278
0.00195186
0.00244842
0.00249827
0.00245616
0.00242729
0.00201918
0.00189719
0.00155964
0.00148031
0.00197957
0.00265489
0.00328196
0.000852347
0.000711292
0.00131224
0.00109986
0.0010048
0.00058799
8.24217e-05
0.000933342
0.00157657
0.00191744
0.0021547
0.00221803
0.00206965
0.00170583
0.00159204
0.00127171
0.00128345
0.00166901
0.00223404
0.00276155
0.000432006
0.00104054
0.00114559
0.00107462
0.000859631
0.000326971
0.000140696
0.00090369
0.00130873
0.00158262
0.00180515
0.00186653
0.00171373
0.00147296
0.00144231
0.00110215
0.00120416
0.00101166
0.00203247
0.00228963
0.000534307
0.000545529
0.00101629
0.00107293
0.000866575
0.000399203
6.67796e-05
0.000404358
0.00128123
0.00128697
0.00145492
0.00156809
0.00126856
0.00132915
0.00111049
0.000835687
0.000929933
0.00115949
0.00135156
0.00184454
0.000348435
0.000621598
0.000776486
0.00096415
0.000817573
0.000298694
0.000253951
0.00048793
0.000681611
0.000960034
0.00116656
0.00136215
0.00105616
0.000912403
0.000608366
0.000774606
0.000552798
0.000970289
0.00119626
0.00150467
0.000439851
0.000685362
0.00035537
0.00045369
0.000401063
0.000401038
8.71166e-05
0.000259801
0.00064884
0.000663904
0.000685093
0.000941397
0.000813724
0.000828653
0.000483436
0.000519076
0.000395002
0.000670149
0.000885733
0.000821221
5.15334e-05
0.000373762
0.000273205
0.000436106
0.000378702
0.000157476
0.000150775
1.07045e-05
0.000277994
0.000617874
0.000378024
0.000550833
0.000534948
0.000521119
0.000353608
0.000226568
0.000308823
0.000440885
0.000479176
0.000283574
0.000182008
0.00013991
0.000138382
0.000196177
2.06717e-05
3.8613e-05
3.70065e-05
7.48636e-05
5.70633e-06
0.000259718
4.08124e-05
9.17221e-05
0.000111783
6.86035e-05
2.13953e-05
9.70444e-05
0.000121165
0.000246722
0.000318204
0.000193235
0.00349752
0.00426532
0.00479855
0.00473459
0.00454364
0.00433619
0.00356222
0.00277795
0.00220684
0.00158421
0.00141025
0.00127189
0.00177377
0.00168227
0.00178445
0.00220939
0.00178417
0.001274
0.00082949
2.91654e-05
0.00317869
0.00360352
0.00410595
0.00434014
0.00394252
0.00346862
0.00324243
0.00229134
0.00195608
0.00134661
0.00130436
0.00127205
0.00129077
0.00150154
0.00149672
0.00175674
0.00153922
0.00140464
0.000443579
0.000107672
0.00275493
0.00328549
0.00344504
0.00376821
0.00351223
0.00325184
0.00266477
0.00213426
0.00194987
0.00127522
0.00120271
0.00118507
0.00115643
0.00142069
0.00136848
0.00159537
0.0013493
0.000997249
0.000435547
0.000193131
0.00228686
0.00251621
0.00288143
0.0029761
0.00271698
0.00258052
0.00223422
0.00173976
0.00128482
0.00111863
0.000928042
0.000887608
0.00102342
0.00110573
0.00142561
0.00141685
0.0012645
0.000843068
0.0005497
6.76136e-05
0.00184665
0.00193575
0.00223041
0.00231916
0.00223833
0.00204739
0.00183523
0.00118091
0.00121607
0.000828871
0.000913659
0.000785088
0.000803113
0.00109317
0.00120122
0.00107386
0.000773079
0.000741611
0.000344145
8.21027e-05
0.00116867
0.00148391
0.00149811
0.00148029
0.00168309
0.00139848
0.00142831
0.00119859
0.000793314
0.000694426
0.000576207
0.000633718
0.000671042
0.000831983
0.000630066
0.00075083
0.000728153
0.000741076
0.000278624
2.35442e-05
0.000753084
0.000840126
0.000955871
0.000889998
0.000723303
0.000789247
0.000754404
0.000610058
0.000466154
0.000319937
0.00040929
0.000437143
0.000438614
0.000454101
0.000392395
0.000357551
0.000517805
0.000342748
9.33498e-05
0.000105127
0.00019747
0.000339788
7.89786e-05
0.000170455
0.000162362
0.000321892
0.000124123
0.000165047
0.000378535
3.1524e-05
1.06955e-05
0.000225372
7.74317e-05
0.000119159
0.000187816
9.47078e-06
6.98203e-05
0.000292908
1.10365e-05
0.000115315
0.00629534
0.00728954
0.00748002
0.00795261
0.00794719
0.00755101
0.00684782
0.00650512
0.00584132
0.00555378
0.00534441
0.00528337
0.00546459
0.00524755
0.00548365
0.00552441
0.00515869
0.00450661
0.00359996
0.00263045
0.00541602
0.00576856
0.00636286
0.00687407
0.00691777
0.00649701
0.00631384
0.00558881
0.00517123
0.00486482
0.00463824
0.00448753
0.00452777
0.0047937
0.00489708
0.00469904
0.00446013
0.00404684
0.00315736
0.00242871
0.00474521
0.00519651
0.00569159
0.00615715
0.00592638
0.00570453
0.00547051
0.00478278
0.00435655
0.0040567
0.00423206
0.00403014
0.00407318
0.00402542
0.00422626
0.00419509
0.00407823
0.00340404
0.00276569
0.00188423
0.00394744
0.00434211
0.00477018
0.0049304
0.00497017
0.00474648
0.00448549
0.00429909
0.00375788
0.00354988
0.00352139
0.00331025
0.00339085
0.00367944
0.00370937
0.00355689
0.00308419
0.00305574
0.00230851
0.00177036
0.00299533
0.00341801
0.00350502
0.00382505
0.00384625
0.00378759
0.00355033
0.00321558
0.00302865
0.00270179
0.00267073
0.00268783
0.00224163
0.00285867
0.00277589
0.00283478
0.00244491
0.00236365
0.00190237
0.00140752
0.00208743
0.00253638
0.0026173
0.00296928
0.00281076
0.00295197
0.00265245
0.00243461
0.00229032
0.00205649
0.00203134
0.00186175
0.00188755
0.00201393
0.00202556
0.00199885
0.00191901
0.00156608
0.00142135
0.000755808
0.00123106
0.00143411
0.00177354
0.00154011
0.00184424
0.00162554
0.00151437
0.00148261
0.00126345
0.0012539
0.00117074
0.00126414
0.00128277
0.00124195
0.00134281
0.00136265
0.00101964
0.000981221
0.000686896
0.000579141
0.000333727
0.000517326
0.000673072
0.000495372
0.000531843
0.000455662
0.00036205
0.000586109
0.000452406
0.000380439
0.00037535
0.000295996
0.000389877
0.000458585
0.00044264
0.000487952
0.000404316
0.00034082
0.000190352
0.000165505
0.00865259
0.00945482
0.0103521
0.0105798
0.0109444
0.0107769
0.0102228
0.00966138
0.00930456
0.00897877
0.00875516
0.00871155
0.00866248
0.0086447
0.00856125
0.00851805
0.00785326
0.00726557
0.00623503
0.00516819
0.00739089
0.00826028
0.00892877
0.00926636
0.00949365
0.00936392
0.00915159
0.0087833
0.00805394
0.00781601
0.00773403
0.00753768
0.00752328
0.0077478
0.00768042
0.00750888
0.00714675
0.00635009
0.00548112
0.00433762
0.00664578
0.00695415
0.00772355
0.00812398
0.00817379
0.00795823
0.00790802
0.00742366
0.00685666
0.00675906
0.00654754
0.00644843
0.00650631
0.00673447
0.00668257
0.00662027
0.00592046
0.00549746
0.0047506
0.00383593
0.00540605
0.00581986
0.00649609
0.00668608
0.00679501
0.00651766
0.00644286
0.00614009
0.00598517
0.00565453
0.00579724
0.00555388
0.00546538
0.00550149
0.00538242
0.0052037
0.00509443
0.00441624
0.00391051
0.00342592
0.00428058
0.00432895
0.00491687
0.00518019
0.0052613
0.00521828
0.00509258
0.00466679
0.00476657
0.00446633
0.00437704
0.00453737
0.00429264
0.00416493
0.00416001
0.00425394
0.00397041
0.00352747
0.0029779
0.00267135
0.00309071
0.00343383
0.00358712
0.00401513
0.00376907
0.00375594
0.00396124
0.00363829
0.00350158
0.00313393
0.00315089
0.00325051
0.00309223
0.00325572
0.00307967
0.00323019
0.00293927
0.00278763
0.00229692
0.00193427
0.00205807
0.00194377
0.00222567
0.00218385
0.0023104
0.00255237
0.00229669
0.00211273
0.00193298
0.00219625
0.00191759
0.00193043
0.0019545
0.00177914
0.0022226
0.00201944
0.0017446
0.0015038
0.00138735
0.00110653
0.000693409
0.000700236
0.000928645
0.000856552
0.000874534
0.000589033
0.000780956
0.000804395
0.000617134
0.000757546
0.000703676
0.000448127
0.000684134
0.000610895
0.000615447
0.000757428
0.000580567
0.000673869
0.000555129
0.000106856
0.0105331
0.0114249
0.0124193
0.0131096
0.0133114
0.0132407
0.0131462
0.0127818
0.0125236
0.0120772
0.0117351
0.0116233
0.0119476
0.0116665
0.0115028
0.0114221
0.0104525
0.00943993
0.0083063
0.00702496
0.0088962
0.00994017
0.010806
0.0112978
0.011717
0.011681
0.0113163
0.0111539
0.0110021
0.0106185
0.0102947
0.0104985
0.0105105
0.010172
0.0100133
0.00975028
0.00922174
0.00840202
0.0072033
0.00645752
0.00777272
0.00839742
0.00928874
0.00953496
0.0100641
0.00990527
0.00992218
0.00973838
0.00931256
0.00943731
0.0092116
0.00908688
0.00880448
0.00868386
0.00867599
0.00837776
0.00789647
0.00723033
0.00633678
0.00541959
0.00638271
0.00709993
0.00761982
0.00811932
0.00836588
0.00828767
0.00825919
0.00801941
0.00775349
0.00764466
0.00755945
0.00762213
0.00736367
0.0072693
0.00715056
0.00717269
0.00653907
0.00615713
0.00529799
0.00466386
0.00506477
0.00536224
0.00610062
0.00660869
0.00669126
0.00639307
0.00632614
0.00616967
0.00637795
0.00610418
0.00597392
0.00603562
0.00588028
0.00568934
0.00568357
0.00553664
0.00506635
0.00480317
0.00416679
0.00371516
0.0038072
0.00404261
0.00450753
0.00467823
0.00498017
0.00464346
0.00480976
0.00455275
0.00428797
0.00444774
0.00420393
0.00425594
0.004285
0.00434298
0.00394819
0.00386597
0.00384773
0.00346085
0.00304539
0.00260398
0.00215661
0.00235699
0.00267205
0.0028316
0.00285557
0.0030052
0.00311729
0.00274161
0.00293955
0.00285933
0.00275256
0.00267818
0.00254273
0.00257521
0.00251172
0.00252362
0.00241357
0.001946
0.00175429
0.00170714
0.000781122
0.000832183
0.00077601
0.00100668
0.0011109
0.00114122
0.000867747
0.00101226
0.00092466
0.000985714
0.000867273
0.00108907
0.00084326
0.000962512
0.000972455
0.00096018
0.000676947
0.000705423
0.00100199
0.000689851
0.0116366
0.0130929
0.0139061
0.0148822
0.0151357
0.015421
0.01551
0.0153022
0.0149006
0.0148748
0.0146025
0.0144244
0.0144273
0.0140383
0.0138578
0.0133381
0.0124685
0.0114679
0.0100661
0.00869065
0.0101753
0.0112043
0.0122635
0.0131737
0.0133529
0.0134085
0.0134739
0.0133253
0.0129137
0.0130188
0.0127459
0.0125441
0.0125837
0.0123
0.0121462
0.0117168
0.0108074
0.0099623
0.00877141
0.00755677
0.00879025
0.00971774
0.0105007
0.0110819
0.0114682
0.0117246
0.0115872
0.0113586
0.0114713
0.0112297
0.0110562
0.0109299
0.010649
0.010617
0.0103905
0.0102242
0.00928833
0.00857171
0.00754567
0.00655535
0.00711928
0.00806827
0.00858085
0.00907627
0.00955333
0.00972832
0.00951915
0.00966244
0.00934858
0.00934187
0.00930712
0.0090784
0.00896481
0.00886073
0.00854598
0.00825045
0.0078684
0.00698862
0.0062861
0.00539486
0.00594685
0.00633731
0.00694628
0.00720803
0.00771134
0.00771141
0.00747379
0.00782881
0.00743574
0.00737403
0.00727131
0.0070642
0.00699646
0.00691719
0.00684553
0.00652734
0.00628605
0.0059312
0.00494288
0.00454382
0.00415218
0.00459275
0.0052844
0.00516193
0.0054783
0.00565178
0.00548987
0.0055009
0.0054878
0.00518149
0.00522874
0.00526401
0.00520069
0.00508596
0.00486219
0.00448033
0.00445856
0.00405526
0.00369551
0.00322287
0.00246624
0.0028631
0.00298578
0.003386
0.00313174
0.00345109
0.00322893
0.00328153
0.00330254
0.00317925
0.00325486
0.00322042
0.00310255
0.00319892
0.00268834
0.0030771
0.00282008
0.00260244
0.0025776
0.00204387
0.00110816
0.00098871
0.00110595
0.0012247
0.000971804
0.001069
0.00113425
0.00122975
0.000952952
0.00111522
0.00114118
0.00119256
0.00112599
0.000937149
0.000845119
0.000910548
0.000855147
0.000804012
0.000608358
0.000699755
0.0123793
0.0137472
0.0150102
0.0160271
0.0167821
0.01719
0.0171951
0.0170411
0.0169676
0.0166553
0.0168098
0.0163867
0.0162429
0.0159845
0.0155035
0.0150408
0.0137517
0.0127542
0.0111066
0.00947488
0.0107712
0.0122559
0.0133331
0.0140598
0.0147879
0.01495
0.0150408
0.0149995
0.0150221
0.0148515
0.0145448
0.0144159
0.0143039
0.0144103
0.0136969
0.0130539
0.0120364
0.0111822
0.00973917
0.00831075
0.00923851
0.0103642
0.0113877
0.0120549
0.0125139
0.0128943
0.0131316
0.012984
0.0127138
0.0126697
0.0126842
0.0123491
0.0123343
0.0121811
0.0117379
0.0113853
0.0102353
0.00946995
0.00817439
0.00756442
0.00776174
0.0083746
0.00932607
0.0100136
0.0103932
0.0106122
0.0107824
0.0108842
0.010807
0.0106493
0.0102923
0.0103377
0.0103136
0.0098322
0.00966171
0.00933191
0.00852803
0.00786654
0.00678037
0.00600668
0.00608745
0.00660622
0.00762286
0.00757751
0.00820196
0.00853278
0.00861867
0.00851698
0.00827916
0.00817969
0.00825579
0.00802357
0.00816851
0.00777925
0.00755381
0.00741188
0.00703773
0.0062367
0.00564705
0.00483102
0.00456805
0.00473796
0.00536404
0.00563297
0.00601499
0.00618709
0.00627131
0.00618438
0.00626885
0.00592538
0.00631277
0.00579809
0.00588984
0.00560307
0.00554248
0.00540062
0.00485148
0.00444936
0.0040709
0.00351099
0.00267214
0.00284704
0.00308058
0.00355204
0.00368857
0.0038228
0.00399341
0.00379664
0.00385878
0.00374614
0.00371416
0.00367314
0.00371215
0.00343655
0.00336326
0.00327039
0.00287892
0.00286849
0.0024185
0.0021825
0.00100536
0.00107834
0.0012712
0.00108463
0.00128691
0.00123631
0.00122508
0.00142616
0.00120889
0.00103857
0.00113754
0.00107034
0.00123604
0.00124845
0.00104777
0.00095273
0.00105346
0.000783488
0.00117944
0.00079874
0.0125913
0.0139909
0.0156157
0.0167362
0.0175106
0.018178
0.0183677
0.0184412
0.0183183
0.0185022
0.0182832
0.0181149
0.0175218
0.0174361
0.0169154
0.0160217
0.0147005
0.0133534
0.0116128
0.00999874
0.0108798
0.0122005
0.013528
0.0145432
0.0153058
0.015885
0.0161927
0.0163435
0.016448
0.0159805
0.0159926
0.0159049
0.0155126
0.0150117
0.0146721
0.0138342
0.0127964
0.0115786
0.0102496
0.0088037
0.0092398
0.0105747
0.011494
0.0123435
0.013213
0.0136302
0.0138243
0.0140751
0.0139671
0.0138643
0.0136436
0.0138211
0.0132316
0.0131452
0.0126035
0.0117133
0.0111157
0.0100163
0.0089137
0.00747728
0.00795502
0.00861566
0.00928812
0.0102976
0.0109462
0.0111209
0.0114066
0.0115657
0.0116303
0.0115463
0.0111239
0.0110413
0.0112363
0.0109623
0.0104335
0.0099683
0.00934927
0.00830165
0.00727959
0.00643543
0.00627021
0.00680135
0.00759935
0.00839983
0.00854032
0.00900356
0.00916634
0.00920517
0.00917057
0.00917639
0.00910468
0.0091194
0.00870825
0.0087933
0.00824003
0.00789299
0.00746036
0.00660565
0.00590139
0.00478332
0.00439891
0.00468851
0.00552921
0.0059793
0.00614952
0.00644528
0.00671917
0.00652317
0.00669327
0.00668476
0.00663315
0.00639679
0.00638413
0.00626547
0.00595141
0.00591838
0.0053108
0.00464958
0.00430688
0.00363866
0.00266773
0.00301735
0.00360412
0.00371608
0.00375232
0.00390983
0.00422455
0.00404277
0.00406873
0.00416166
0.00403073
0.00419949
0.00379736
0.00363449
0.00360514
0.00350473
0.00335244
0.00272405
0.00267675
0.00219279
0.000882487
0.00113233
0.00106317
0.00149556
0.00117962
0.00117934
0.0013431
0.00126308
0.00148779
0.00140085
0.00151401
0.00126532
0.00132673
0.00143754
0.0014513
0.00136062
0.000953439
0.000875334
0.00081951
0.000726904
0.012095
0.0134907
0.0153418
0.0168819
0.0179839
0.0184051
0.0190552
0.0192836
0.019105
0.0193941
0.0191544
0.0190347
0.0185608
0.0178787
0.0172568
0.016278
0.0151377
0.0134609
0.0114669
0.00975643
0.0105256
0.011967
0.0134363
0.0148359
0.0156575
0.0162628
0.0165871
0.0169279
0.0170276
0.0168685
0.0166807
0.0167188
0.0160923
0.0157529
0.0150726
0.0142143
0.0129278
0.0115959
0.0100333
0.00869873
0.00896066
0.0100889
0.0114524
0.0124669
0.0132971
0.0139178
0.0142656
0.0145279
0.0146956
0.014651
0.0143412
0.0142304
0.0138505
0.0135058
0.0129854
0.0119529
0.011206
0.010098
0.00871591
0.00729396
0.0074865
0.00837609
0.00948887
0.0104972
0.011125
0.0113918
0.0119536
0.0122164
0.0121989
0.0122656
0.0120109
0.012142
0.0113698
0.0111656
0.0108928
0.0101093
0.00917962
0.00835801
0.0072846
0.00633844
0.00594158
0.0065151
0.00747198
0.00805786
0.00876504
0.00904827
0.00919322
0.00955907
0.00949523
0.00953724
0.00968643
0.00949103
0.00918406
0.00885813
0.00882254
0.00816416
0.00723728
0.00650401
0.00564888
0.00472428
0.00405701
0.00481324
0.00539064
0.00578478
0.00643394
0.00676154
0.00679957
0.00687761
0.00706461
0.00688282
0.00710392
0.00683205
0.00661352
0.00643931
0.00610649
0.0055454
0.00542724
0.00470159
0.00412924
0.00342105
0.0026094
0.00293231
0.0032584
0.00359058
0.00373029
0.00395666
0.00433977
0.00418413
0.00418499
0.00423804
0.00395641
0.0041208
0.00421494
0.00407401
0.00384239
0.00346641
0.00328677
0.00297488
0.00257276
0.00230183
0.00107086
0.00112368
0.00103669
0.00135967
0.0012463
0.00126106
0.00152695
0.00125498
0.00125668
0.00149507
0.00159226
0.0013489
0.00120969
0.00132374
0.00138792
0.00111698
0.00106637
0.00116153
0.00072905
0.000670607
0.0109528
0.0129262
0.0145888
0.0163225
0.017545
0.0183716
0.0189582
0.0193623
0.0194881
0.0196048
0.0192756
0.0190866
0.0186519
0.017811
0.0171948
0.0161881
0.0147208
0.0128152
0.0109681
0.00912285
0.00958749
0.01122
0.012771
0.0142746
0.0153252
0.0158701
0.0169163
0.0167894
0.017179
0.0168841
0.0167963
0.0169149
0.0162794
0.0157796
0.0151001
0.0138089
0.0128429
0.0113132
0.00933387
0.00780518
0.00824888
0.00941186
0.0109713
0.0120843
0.0128153
0.0138083
0.0143393
0.0146484
0.0147592
0.0146818
0.0146023
0.0144767
0.0140341
0.0135733
0.0129169
0.0121187
0.0111055
0.00967953
0.00824427
0.00678695
0.00698834
0.00787472
0.00898774
0.0100181
0.0108421
0.0115019
0.0117309
0.0121216
0.0122841
0.0122619
0.0120523
0.0121394
0.0118506
0.0114039
0.0107628
0.00996729
0.00896059
0.00808101
0.00682296
0.00567086
0.0052928
0.00615411
0.00733493
0.00809637
0.00877177
0.00914886
0.00924751
0.00956649
0.00953476
0.00969713
0.00950462
0.00932465
0.00933034
0.00902575
0.00846902
0.00791074
0.00699191
0.0063734
0.00527193
0.00460221
0.00383905
0.00443264
0.00508534
0.00594746
0.00640175
0.00638849
0.00688027
0.00693645
0.00688981
0.00717124
0.0070366
0.00690466
0.00681974
0.00655025
0.00627466
0.00566571
0.00514483
0.00467451
0.00395589
0.00316296
0.00246976
0.00283919
0.00327161
0.00372148
0.00394538
0.00406175
0.00399977
0.00419244
0.00444964
0.00424062
0.0043173
0.0043819
0.00431361
0.00382452
0.00407171
0.00366423
0.00304008
0.00318368
0.00218295
0.00201611
0.000630938
0.00101664
0.00111537
0.00132828
0.00118978
0.00134577
0.00162238
0.0014612
0.00150688
0.00143717
0.00147089
0.00173275
0.00150544
0.00138048
0.00121095
0.00124293
0.0011308
0.0010908
0.000946648
0.000774838
0.00946868
0.0112061
0.0134323
0.0151262
0.0165307
0.0174772
0.0182201
0.0186078
0.0190403
0.0187869
0.0189466
0.0186988
0.0181211
0.0176134
0.0163687
0.0152683
0.0136323
0.0119879
0.00953865
0.00762226
0.00825308
0.00986161
0.0114118
0.0131103
0.0143699
0.0152158
0.0158406
0.0162657
0.0165735
0.0166256
0.0166848
0.0164738
0.0157877
0.0153367
0.014387
0.0133696
0.0120878
0.0102134
0.00843723
0.00679469
0.00692225
0.00847874
0.00998724
0.0112558
0.0121711
0.0129658
0.0136124
0.0141196
0.0142359
0.0143124
0.0141856
0.0138777
0.0135847
0.0129944
0.0125936
0.0115008
0.0102443
0.00877122
0.00714513
0.0059342
0.00574949
0.00707079
0.00823796
0.00963369
0.010098
0.0107141
0.0113093
0.0116117
0.0119625
0.0119619
0.0116819
0.0116561
0.0113315
0.0108692
0.0102899
0.00935823
0.00855954
0.00743699
0.00608516
0.00461581
0.0045346
0.00530414
0.0067973
0.00728619
0.00774882
0.00842152
0.00905011
0.00935471
0.00954037
0.00949709
0.00940727
0.00917837
0.00904032
0.00849386
0.00803375
0.00742261
0.00683853
0.00572738
0.00476765
0.00398511
0.00318247
0.00395921
0.0047897
0.00531783
0.00583098
0.0064558
0.00651192
0.00672531
0.00665081
0.00684792
0.00687707
0.00679866
0.0066263
0.00624609
0.00596646
0.00550992
0.00489004
0.00423965
0.00334942
0.00265302
0.00212347
0.00256998
0.00282255
0.003436
0.00341415
0.00392669
0.0039873
0.00399796
0.00423807
0.0041491
0.00417818
0.00420043
0.00411289
0.00380478
0.00363549
0.0033563
0.00283721
0.00242904
0.00204017
0.0015626
0.00085472
0.00091507
0.00105854
0.00098993
0.000946142
0.00120678
0.00125044
0.00146811
0.00157311
0.00145503
0.00145248
0.00147711
0.00129656
0.00155151
0.0011717
0.00105511
0.00105843
0.00091901
0.000628273
0.000801275
0.00710832
0.00907532
0.0115575
0.013042
0.0149267
0.0160322
0.017069
0.0173701
0.0178495
0.0178784
0.0175953
0.0172708
0.0170334
0.0161837
0.0149234
0.0136736
0.0121093
0.00998425
0.00746695
0.00559735
0.00614886
0.00787421
0.00970598
0.0115668
0.0127968
0.0138662
0.0147504
0.0153022
0.0156385
0.0157723
0.0157476
0.0150994
0.0147213
0.0140932
0.0132327
0.0119418
0.0104313
0.00857168
0.00666289
0.00474929
0.0052295
0.00683767
0.00837831
0.00983679
0.0108075
0.0119204
0.0125757
0.0131105
0.0133206
0.0135411
0.013579
0.0130989
0.0127207
0.0121663
0.0112336
0.010092
0.00893639
0.00753008
0.00580705
0.00415964
0.00436523
0.00538635
0.0069016
0.00794363
0.00909972
0.00984861
0.0105309
0.0107489
0.0110792
0.0111236
0.0111888
0.0110395
0.0106579
0.00996138
0.00946373
0.00867289
0.007405
0.00621942
0.00466191
0.00340773
0.00328185
0.00441817
0.00532882
0.00637791
0.00718983
0.00801965
0.0083186
0.0084283
0.00880851
0.00876999
0.00858802
0.00876721
0.00847911
0.00812088
0.00743058
0.0067188
0.00596542
0.00487446
0.00405474
0.00251966
0.00249551
0.00294534
0.00408772
0.00475237
0.00529988
0.00560895
0.00608199
0.00638853
0.00650641
0.00642775
0.00652531
0.00637095
0.0060364
0.00570752
0.00523574
0.00481653
0.00432837
0.00337679
0.00295899
0.00216109
0.00128464
0.00190396
0.0024237
0.00287913
0.00316666
0.00345773
0.00380585
0.00380852
0.00381985
0.00413778
0.00390506
0.00383827
0.00378132
0.00337589
0.0034247
0.00332422
0.0025774
0.00210457
0.00137627
0.00120167
0.000570796
0.00086073
0.000817594
0.00111699
0.00108852
0.0011955
0.00119026
0.00127263
0.00130632
0.00126721
0.00143021
0.00137804
0.00139413
0.0012518
0.000786079
0.0010635
0.000873358
0.000679003
0.000453511
0.00017018
0.00425713
0.00654803
0.00872834
0.0107006
0.0123951
0.0138111
0.0149582
0.0154248
0.0159409
0.0159366
0.0160356
0.0156867
0.0152044
0.0141621
0.0130826
0.0116821
0.00954365
0.00762352
0.00521896
0.00281152
0.00364161
0.00549655
0.007525
0.00961187
0.0106896
0.0120402
0.0130125
0.0134013
0.0139962
0.0140783
0.0139553
0.0137672
0.0133189
0.0123444
0.0113534
0.0101385
0.00859115
0.00659979
0.00449286
0.00258466
0.00295447
0.00478718
0.00656271
0.00800726
0.00939574
0.00995585
0.011157
0.011805
0.0119143
0.0118403
0.0119712
0.0117079
0.0113333
0.0107054
0.00982199
0.00857481
0.00709019
0.00544726
0.00383373
0.00215607
0.00253644
0.00390881
0.00505875
0.00656884
0.00761821
0.00863552
0.00924133
0.00973419
0.00981518
0.0100972
0.00986029
0.00964234
0.00956141
0.0088026
0.00799208
0.00706129
0.00605024
0.00485968
0.00314733
0.00180162
0.00182289
0.00286164
0.00414046
0.0051506
0.00600976
0.00668445
0.00735082
0.00763005
0.0080531
0.00790062
0.00783929
0.00762099
0.00750352
0.00687644
0.00641842
0.00564077
0.00453669
0.00363877
0.00230924
0.00147018
0.00148621
0.00211535
0.00297619
0.00367967
0.00444418
0.00490456
0.00538625
0.00538515
0.00562743
0.0058228
0.00552741
0.00567185
0.00533792
0.00508921
0.00468531
0.00410132
0.00346437
0.00273944
0.00187216
0.000911479
0.000710551
0.00119075
0.00200216
0.00240403
0.00260405
0.0030106
0.00335807
0.00335785
0.00367206
0.00339485
0.00358362
0.00337052
0.00330218
0.00308731
0.00268063
0.002461
0.0020968
0.00171179
0.000982597
0.000707562
0.000247042
0.000422182
0.000469212
0.000807744
0.000869622
0.00122812
0.00123272
0.00131824
0.00109171
0.00140892
0.00133926
0.0012966
0.0012082
0.00119795
0.000952707
0.00101613
0.000825281
0.000605428
0.000320741
0.000347216
0.000819641
0.00290855
0.00542002
0.00763524
0.00954498
0.0109382
0.0122977
0.0128116
0.0134007
0.0134813
0.0134441
0.0131963
0.0125625
0.0114373
0.0101851
0.00880381
0.00675763
0.00455645
0.00196044
0.000167807
0.000639562
0.0023937
0.00476774
0.00660938
0.00825856
0.0094078
0.0104577
0.0111336
0.0115402
0.0121437
0.0119481
0.0112985
0.0108625
0.00984537
0.00890277
0.00742017
0.00578392
0.00410383
0.00160139
0.000260642
0.000268321
0.00193152
0.00381408
0.00543778
0.00704091
0.00786191
0.00908903
0.00963287
0.00988367
0.0100938
0.0101203
0.00985806
0.00924054
0.00854891
0.00749484
0.00641084
0.00507443
0.00322172
0.00123312
0.000358329
0.000246948
0.00159513
0.00309033
0.0045335
0.005838
0.00665508
0.00731343
0.00792094
0.00823094
0.00839877
0.008514
0.00823021
0.00781771
0.00704361
0.00617576
0.00544716
0.00394286
0.00270736
0.00106604
4.22466e-05
0.000134739
0.00128432
0.00234406
0.00354614
0.00463697
0.0053658
0.00590561
0.00630275
0.00627445
0.00658385
0.0066236
0.00654899
0.00600148
0.00571387
0.00488041
0.00437088
0.00303199
0.00213384
0.000714235
6.30677e-05
9.04235e-05
0.000751875
0.00169233
0.00272046
0.00326831
0.00368536
0.00441895
0.00468589
0.00469752
0.00495318
0.00467854
0.00468712
0.00442418
0.00408354
0.00372418
0.0029996
0.00243997
0.00138928
0.000371109
0.000217223
3.50474e-05
0.000457096
0.000950388
0.00157999
0.00209861
0.00229629
0.00274447
0.00287235
0.00284492
0.00289217
0.0030111
0.00297865
0.00269618
0.00251484
0.00227417
0.00192504
0.00126628
0.000924264
0.000488019
6.04504e-05
3.67641e-05
7.12368e-05
0.000306583
0.000781112
0.000743905
0.000979375
0.000950651
0.000790041
0.00122151
0.00118176
0.000741754
0.00115039
0.000813236
0.000714071
0.000908102
0.000720384
0.000586724
0.000380432
0.000143005
4.83019e-05
0.00323934
0.000970098
0.00176243
0.00383826
0.0059618
0.00753256
0.00881414
0.00958727
0.0103079
0.010428
0.0103003
0.0100777
0.00927882
0.008338
0.00701411
0.00544403
0.00332113
0.000997562
0.00173588
0.00403728
0.002856
0.000962002
0.00127236
0.00336841
0.00512621
0.00645046
0.00769959
0.00841758
0.0088868
0.00904525
0.00910264
0.00872802
0.00812818
0.00731552
0.00616208
0.00452525
0.00274685
0.000622798
0.00153484
0.0035789
0.00251745
0.00101861
0.000962083
0.00284159
0.00418567
0.00554385
0.00640453
0.0069883
0.00769551
0.00769881
0.00751276
0.00750186
0.00687459
0.00618719
0.00524779
0.00390806
0.00245685
0.000417422
0.00137401
0.00328642
0.0023751
0.000842975
0.000645117
0.00204589
0.00340552
0.00451218
0.00542621
0.00577676
0.00617333
0.00630636
0.00627783
0.00601712
0.00567856
0.00508654
0.00434226
0.00302841
0.00186879
0.000516389
0.00122265
0.00271539
0.0019676
0.000829215
0.000493543
0.00169372
0.00278029
0.00339029
0.00422135
0.00454634
0.00505979
0.00503836
0.00485663
0.00497882
0.00443296
0.00402906
0.00339236
0.00247512
0.00117232
0.000334299
0.00102862
0.00208761
0.00149241
0.000535214
0.00040179
0.00134266
0.0019258
0.00241829
0.00275119
0.00340288
0.00366358
0.00358498
0.00360385
0.00350529
0.00345734
0.00283417
0.00243448
0.0019325
0.000975651
0.000126708
0.000850235