/*--------------------------------*- C++ -*----------------------------------*\
| =========                 |                                                 |
| \\      /  F ield         | OpenFOAM: The Open Source CFD Toolbox           |
|  \\    /   O peration     | Version:  2212                                  |
|   \\  /    A nd           | Website:  www.openfoam.com                      |
|    \\/     M anipulation  |                                                 |
\*---------------------------------------------------------------------------*/
FoamFile
{
    version     2.0;
    format      ascii;
    arch        "LSB;label=32;scalar=64";
    class       volScalarField;
    location    "./ITHACAoutput/true/12";
    object      error;
}
// * * * * * * * * * * * * * * * * * * * * * * * * * * * * * * * * * * * * * //

dimensions      [0 0 0 1 0 0 0];

internalField   nonuniform List<scalar> 
3200
(
0.0350955
0.743901
1.46226
1.81436
2.06082
2.19049
2.1499
2.17392
2.02764
1.90122
1.76419
1.64985
1.56513
1.4863
1.42307
1.29354
1.09834
0.582942
0.00590551
-0.724152
-0.120427
0.447822
1.06376
1.48145
1.67826
1.73894
1.77854
1.70134
1.64595
1.50518
1.36673
1.34579
1.24552
1.15124
1.17789
1.00698
0.817431
0.402043
-0.0108126
-0.663827
-0.167795
0.266879
0.686583
1.10817
1.27802
1.40588
1.37824
1.35456
1.27651
1.15639
1.03543
0.963463
0.971276
0.871252
0.869058
0.769963
0.652703
0.270934
-0.11925
-0.661982
-0.337752
0.12244
0.603339
0.829305
0.944097
0.991261
1.11789
1.00143
0.915565
0.902431
0.820441
0.72101
0.76085
0.708116
0.613953
0.544669
0.426349
0.23791
-0.156742
-0.503707
-0.287689
0.122626
0.360506
0.655684
0.666704
0.795412
0.827435
0.774574
0.722851
0.662049
0.583955
0.518785
0.473534
0.545861
0.50773
0.435764
0.353151
0.15088
-0.250581
-0.450154
-0.161016
-0.00198794
0.318805
0.502412
0.500364
0.576328
0.4985
0.527597
0.440461
0.453706
0.461109
0.351434
0.308197
0.283765
0.323466
0.350499
0.219001
0.0611729
-0.192359
-0.257625
-0.120197
-0.043568
0.129343
0.286649
0.314125
0.260059
0.358046
0.279554
0.302857
0.271739
0.274719
0.166882
0.213456
0.205197
0.128789
0.111584
0.135461
0.0275413
-0.0794251
-0.172931
-0.0670778
-0.0248219
0.01418
0.0639942
0.133698
0.0919708
0.0750047
0.120125
0.0668929
0.12286
0.0955693
0.0651491
0.138812
0.0438011
0.0221827
-0.0120941
0.0349902
0.0295442
0.00215907
-0.00689253
0.0542229
0.713317
1.43677
1.8145
2.01907
2.06785
2.07377
1.97192
1.85477
1.69412
1.51033
1.43043
1.29839
1.23909
1.22873
1.09052
0.959786
0.602095
-0.0856768
-0.751731
-0.174954
0.481793
1.01264
1.40235
1.5752
1.69043
1.60821
1.52982
1.41778
1.25982
1.18738
1.04648
1.06144
0.974916
0.99393
0.926993
0.760179
0.379069
-0.151723
-0.687737
-0.242625
0.189766
0.818549
1.1144
1.1978
1.25104
1.17378
1.24314
1.07276
1.0012
0.861798
0.78523
0.719855
0.660475
0.712612
0.733805
0.560707
0.336413
-0.153452
-0.639663
-0.238771
0.0979164
0.546173
0.7629
0.872475
0.94928
0.944674
0.950461
0.888604
0.722562
0.631747
0.62647
0.624406
0.581313
0.558435
0.498114
0.388885
0.150383
-0.196648
-0.540121
-0.295406
0.0127165
0.415418
0.544521
0.640796
0.77257
0.672189
0.662519
0.573944
0.563076
0.489557
0.443823
0.421626
0.409253
0.338159
0.326695
0.337829
0.0548686
-0.223119
-0.438481
-0.22582
0.0349494
0.295722
0.306229
0.434933
0.478319
0.446897
0.39236
0.444034
0.440601
0.282276
0.288934
0.283999
0.235942
0.231098
0.251179
0.143564
0.0902939
-0.157158
-0.351168
-0.134246
-0.00273525
0.170821
0.222897
0.291217
0.277151
0.263218
0.260112
0.232741
0.223789
0.239381
0.187608
0.203233
0.132264
0.192118
0.136713
0.134373
0.00284609
-0.087485
-0.225115
0.0387536
0.0332371
0.0303614
0.128115
0.090088
0.118363
0.141601
0.10464
-7.75408e-05
0.0735159
0.0886619
0.076376
0.0933585
0.00111238
0.0408732
0.0808378
0.0633861
0.00448783
-0.0687938
-0.134315
-0.0254155
0.731742
1.30846
1.69728
1.86344
1.90069
1.73355
1.60425
1.46084
1.34081
1.11595
0.966682
0.998049
0.973489
1.03324
0.953284
0.800004
0.515451
-0.119116
-0.689378
-0.180232
0.404494
0.981717
1.26578
1.46042
1.43317
1.45876
1.31736
1.13196
0.925055
0.821884
0.763454
0.703745
0.850551
0.774153
0.741434
0.658219
0.352942
-0.108164
-0.707997
-0.238953
0.259168
0.713874
0.96383
1.11618
1.14504
1.0887
1.02592
0.89317
0.700292
0.625264
0.543429
0.571419
0.650891
0.53487
0.603521
0.481079
0.167497
-0.235186
-0.697178
-0.335096
0.046926
0.512098
0.706275
0.815526
0.862413
0.765086
0.796507
0.729647
0.513527
0.477243
0.394683
0.408372
0.341816
0.378793
0.400661
0.2273
0.110643
-0.151162
-0.592659
-0.276044
0.0640558
0.337617
0.483013
0.590122
0.692576
0.576839
0.576419
0.556389
0.38139
0.300037
0.261204
0.286386
0.237375
0.312866
0.357209
0.19905
0.137243
-0.188749
-0.464906
-0.251415
-0.0507106
0.148226
0.399643
0.449917
0.422944
0.362972
0.360366
0.256739
0.180016
0.139357
0.0906468
0.141391
0.212278
0.210765
0.197478
0.0907318
0.0192728
-0.221182
-0.378744
-0.124684
0.0124704
0.0754501
0.246633
0.214981
0.292359
0.218996
0.140179
0.149594
0.13377
0.100829
0.105628
0.0604014
0.0597626
0.102849
0.160481
0.076915
-0.0449945
-0.102573
-0.218395
-0.116261
-0.00307553
-0.0189388
0.0992374
0.0909167
0.0981284
0.0967555
0.092821
-0.00306234
0.085868
-0.0434795
0.0766649
0.104823
-0.032338
-0.00998727
0.0506006
0.0981478
-0.0101688
-0.0696949
-0.159875
-0.147658
0.527147
1.2028
1.51334
1.64299
1.69361
1.56746
1.22288
1.07651
0.790636
0.682912
0.617369
0.561362
0.653921
0.733472
0.727084
0.618542
0.360729
-0.194959
-0.809536
-0.259797
0.31824
0.882177
1.17291
1.31799
1.22736
1.17969
0.882995
0.806964
0.541777
0.485703
0.42223
0.455105
0.444556
0.49317
0.557142
0.43435
0.173056
-0.272338
-0.819808
-0.329119
0.17144
0.560097
0.882132
0.990165
0.907166
0.804664
0.782896
0.674585
0.437406
0.299717
0.296968
0.266604
0.306355
0.396704
0.376123
0.330014
0.0639327
-0.30108
-0.712706
-0.38812
0.0608881
0.418658
0.5741
0.625369
0.702843
0.726858
0.541472
0.382474
0.231299
0.218473
0.120071
0.196643
0.12844
0.187206
0.211565
0.186646
-0.0547012
-0.209494
-0.598827
-0.304637
0.000235393
0.264308
0.44597
0.461649
0.520967
0.502503
0.40631
0.233343
0.178754
0.104185
0.126785
0.139282
0.161987
0.143607
0.124123
0.0498278
0.0904167
-0.280493
-0.500485
-0.175903
-0.00648144
0.131281
0.329562
0.309202
0.264347
0.303123
0.245068
0.120498
0.0735874
0.0724097
0.0777615
0.0223321
0.170404
0.102937
0.0766044
0.124197
-0.0237516
-0.211627
-0.331495
-0.172388
0.0394805
0.0859548
0.188268
0.222824
0.33195
0.141947
0.138494
0.130721
0.0153607
0.0163075
0.0505101
0.0175746
0.0614582
-0.0216691
0.0693389
0.0674536
0.0514449
-0.058213
-0.245129
-0.036569
-0.0168198
0.0147636
0.0145825
0.0539039
0.0331577
0.0439919
0.083046
0.0226084
0.0172753
0.0474375
0.0149762
0.0924271
0.031431
0.00651824
-0.0285127
0.0297727
-0.0300341
-0.160413
-0.0511672
-0.181352
0.446612
1.02477
1.2743
1.43093
1.35559
1.17956
0.963034
0.697671
0.411614
0.200131
0.0656154
0.150177
0.271012
0.407334
0.396368
0.388362
0.0371837
-0.312983
-0.935571
-0.355429
0.229655
0.628868
0.926078
1.07084
1.02775
0.882933
0.639706
0.50435
0.281546
0.104749
-0.00179197
0.0608255
0.0550955
0.235607
0.276699
0.175319
-0.0274823
-0.457921
-0.909552
-0.450403
0.0463688
0.509405
0.712731
0.761668
0.721174
0.662179
0.421136
0.185594
0.097764
-0.00955266
-0.0735326
-0.00109771
0.0966891
0.120977
0.305594
0.139876
-0.127414
-0.428165
-0.742831
-0.384529
-0.11924
0.267361
0.563884
0.572843
0.521153
0.545634
0.360646
0.0989006
-0.0407028
-0.0844007
-0.0611726
-0.126242
-0.0465937
0.0714932
0.0805656
0.158248
-0.116346
-0.398286
-0.710071
-0.489434
-0.0378064
0.148568
0.29558
0.42277
0.425726
0.315464
0.159732
0.0225138
-0.0663597
-0.0279241
-0.104304
-0.0476859
-0.0602758
0.00603839
-0.0277711
0.00171805
-0.0990498
-0.321509
-0.606009
-0.295102
-0.0724743
0.168626
0.254265
0.249422
0.233409
0.222773
0.162617
0.110664
-0.0455345
-0.156016
-0.0988788
-0.121801
-0.0895632
-0.0769318
-0.0273182
-0.0461665
-0.0857786
-0.24016
-0.42932
-0.162686
-0.0990915
0.0317538
0.086061
0.145888
0.119633
0.145401
0.104703
-0.0165859
-0.0274193
-0.053226
-0.0941222
-0.0332606
0.0277745
-0.000268634
0.0495635
0.086396
-0.0814393
-0.0738055
-0.254727
-0.0686225
-0.0406554
-0.0542686
0.0363654
0.0849448
-0.0102108
0.0321877
0.0664901
-0.0312423
-0.0937505
-0.0656345
-0.0426303
0.0183013
-0.0364515
0.0590447
0.0140188
0.0240423
-0.0524859
-0.0756408
-0.0912615
-0.375568
0.273839
0.802047
1.10056
1.18444
1.04953
0.836053
0.626057
0.266224
-0.0969262
-0.258786
-0.361309
-0.291097
-0.105487
0.0571401
0.113044
0.180628
-0.111338
-0.48915
-1.00304
-0.537027
0.0325351
0.492972
0.808712
0.832101
0.852889
0.541135
0.368848
0.0970661
-0.154773
-0.382906
-0.461194
-0.368412
-0.144542
-0.0167474
0.101151
0.0136923
-0.227465
-0.54667
-1.01533
-0.467862
-0.0892716
0.296082
0.517059
0.660154
0.557712
0.459078
0.139889
-0.0002314
-0.238673
-0.352445
-0.424103
-0.37907
-0.312145
-0.130225
-0.0593117
0.00205398
-0.208463
-0.458043
-1.02864
-0.554443
-0.155228
0.150754
0.414634
0.396362
0.425698
0.243128
0.127782
-0.101508
-0.196206
-0.419255
-0.402279
-0.361636
-0.253125
-0.14417
-0.0102761
-0.11352
-0.294
-0.438658
-0.791473
-0.41372
-0.120042
0.06951
0.235006
0.354432
0.263683
0.135905
0.0369123
-0.0974663
-0.24456
-0.300135
-0.412031
-0.291572
-0.198269
-0.162453
-0.0698559
-0.141456
-0.223883
-0.348408
-0.7209
-0.368699
-0.189333
-0.00594878
0.144871
0.183389
0.121214
0.0283424
0.0604861
-0.0986366
-0.143521
-0.269018
-0.291047
-0.238079
-0.174083
-0.123998
-0.0815857
-0.0659828
-0.161072
-0.323891
-0.443736
-0.178193
-0.0699997
-0.0400161
0.0404289
0.107932
0.159574
0.0850024
0.0110638
-0.0953589
-0.119196
-0.160283
-0.215434
-0.139294
-0.147742
-0.112456
-0.056208
-0.0583234
-0.0729314
-0.167568
-0.255906
-0.16687
-0.0550218
-0.0603932
0.0182767
0.0508311
0.0422178
-0.0348536
0.00563321
-0.0218801
-0.0931879
-0.0610516
-0.111403
-0.00620654
-0.0546344
-0.070755
-0.0170341
-0.0605486
0.00535216
-0.0533834
-0.0991089
-0.491633
0.0965322
0.633025
0.814982
0.875015
0.772476
0.575119
0.290134
-0.0989604
-0.469532
-0.719871
-0.748436
-0.687941
-0.397683
-0.193523
-0.0315982
-0.0838594
-0.285784
-0.659769
-1.17113
-0.584907
-0.151081
0.294054
0.521878
0.632511
0.593062
0.327072
0.0439717
-0.385319
-0.623231
-0.702924
-0.855912
-0.719604
-0.492363
-0.314283
-0.208441
-0.173718
-0.33623
-0.660033
-1.1451
-0.636779
-0.207099
0.161079
0.371953
0.354958
0.238225
0.184355
-0.0732634
-0.270878
-0.419318
-0.686018
-0.708792
-0.602247
-0.554788
-0.380749
-0.232566
-0.261793
-0.381972
-0.649282
-1.00761
-0.55757
-0.315943
-0.0331412
0.26992
0.190646
0.231646
0.116176
-0.137564
-0.302297
-0.58248
-0.647293
-0.702064
-0.555913
-0.548633
-0.350862
-0.227175
-0.231151
-0.382977
-0.569876
-0.846959
-0.436651
-0.224588
-0.0293658
0.123037
0.134781
0.0583814
-0.0043948
-0.130915
-0.33706
-0.370196
-0.498711
-0.567379
-0.470414
-0.331617
-0.323443
-0.21195
-0.202433
-0.329465
-0.527915
-0.697422
-0.379091
-0.217027
-0.11648
0.119146
0.144744
0.0703559
-0.0508469
-0.128342
-0.234685
-0.339267
-0.409119
-0.401929
-0.342531
-0.377297
-0.213097
-0.136342
-0.161834
-0.153958
-0.319786
-0.528989
-0.232039
-0.133533
-0.0251678
0.0247741
0.0103625
0.0537117
0.0112579
-0.0393904
-0.165381
-0.183731
-0.289963
-0.206855
-0.244083
-0.153958
-0.136876
-0.054727
-0.119632
-0.244556
-0.222399
-0.344811
-0.105943
-0.0310499
-0.0307125
0.032421
0.0196966
0.0668283
0.00925848
0.0813584
-0.0677179
-0.097491
-0.110188
-0.0968741
-0.140839
-0.0365314
-0.103065
-0.0460627
-0.0736997
-0.0624126
-0.0884864
-0.11366
-0.731032
-0.0593066
0.396258
0.58512
0.587107
0.496628
0.273318
-0.0421975
-0.508205
-0.824431
-1.06602
-1.03605
-1.01387
-0.789988
-0.560302
-0.390289
-0.334212
-0.44006
-0.782498
-1.27326
-0.77686
-0.255823
0.125981
0.334504
0.414832
0.269889
0.079433
-0.212183
-0.57652
-0.789798
-0.993093
-1.0764
-0.973063
-0.761619
-0.511649
-0.418243
-0.402183
-0.528358
-0.861807
-1.19297
-0.794315
-0.347391
0.0474724
0.18474
0.147204
0.10051
-0.0337922
-0.27671
-0.494666
-0.83435
-1.0272
-0.940309
-0.983451
-0.723273
-0.56309
-0.376877
-0.35916
-0.451758
-0.786892
-1.0105
-0.603496
-0.409554
-0.0873133
0.0592278
0.0950352
-0.0179871
-0.0694171
-0.280816
-0.636118
-0.701238
-0.80766
-0.859207
-0.778672
-0.697973
-0.476848
-0.450133
-0.340549
-0.419086
-0.629337
-0.882747
-0.501425
-0.377303
-0.177389
-0.0923947
0.0161151
-5.39657e-05
-0.180718
-0.247252
-0.446544
-0.607915
-0.731678
-0.732191
-0.649393
-0.592563
-0.422498
-0.337061
-0.329349
-0.420379
-0.550446
-0.711143
-0.475605
-0.299095
-0.0977324
-0.00924924
-0.00884595
0.0139275
-0.0807111
-0.198948
-0.340707
-0.440612
-0.474693
-0.582722
-0.489566
-0.447153
-0.350742
-0.262346
-0.25367
-0.304367
-0.446549
-0.564523
-0.265492
-0.219889
-0.0548949
0.00180916
-0.111901
-0.0489144
-0.0664903
-0.09191
-0.254353
-0.287348
-0.437066
-0.37797
-0.27331
-0.296018
-0.23063
-0.111641
-0.152899
-0.157257
-0.207449
-0.27897
-0.0509533
-0.117423
0.00621128
-0.0340512
-0.0374726
-0.0230402
-0.018251
-0.000687655
-0.0559254
-0.130403
-0.15578
-0.0706872
-0.146161
-0.0418392
-0.0215133
-0.0603669
-0.0326715
-0.113918
-0.0724686
-0.163118
-0.763701
-0.176805
0.0998707
0.485715
0.421271
0.285944
0.0911079
-0.255065
-0.709257
-1.11394
-1.40851
-1.40667
-1.3103
-0.966754
-0.744112
-0.542302
-0.466322
-0.667103
-0.951746
-1.29257
-0.837475
-0.351589
0.0066028
0.207296
0.272908
0.145376
-0.203811
-0.377854
-0.784465
-1.091
-1.34362
-1.31821
-1.27402
-0.996799
-0.751329
-0.513784
-0.507928
-0.63195
-0.866803
-1.28775
-0.778453
-0.419194
-0.0848299
0.0329199
0.0850857
-0.0388279
-0.162203
-0.488259
-0.754366
-0.963763
-1.1105
-1.2239
-1.12802
-0.968106
-0.72642
-0.631402
-0.563493
-0.623124
-0.88268
-1.14722
-0.758125
-0.447726
-0.19964
-0.0725917
-0.0633108
-0.148137
-0.206304
-0.385677
-0.654335
-0.858041
-1.0798
-1.13379
-0.993277
-0.779442
-0.594069
-0.497243
-0.501339
-0.566175
-0.66936
-0.949585
-0.635316
-0.425907
-0.161423
-0.0766558
-0.02239
-0.0127968
-0.29115
-0.392714
-0.548527
-0.719736
-0.823517
-0.834142
-0.777428
-0.639805
-0.467752
-0.454437
-0.35559
-0.467232
-0.626843
-0.787546
-0.513177
-0.342282
-0.221403
-0.157713
-0.115249
-0.108967
-0.234132
-0.33517
-0.4602
-0.53755
-0.582833
-0.629194
-0.513053
-0.519915
-0.321852
-0.375189
-0.237938
-0.334047
-0.441122
-0.618835
-0.346601
-0.181761
-0.0611775
-0.0520542
-0.0627332
-0.0618718
-0.0985412
-0.275534
-0.247476
-0.311004
-0.369065
-0.293948
-0.408636
-0.352298
-0.267408
-0.206074
-0.185184
-0.181271
-0.292758
-0.33686
-0.0543687
-0.129849
0.031904
0.051701
-0.102263
-0.0728208
-0.0729973
-0.131785
-0.158019
-0.157438
-0.0769083
-0.174479
-0.101155
-0.106909
-0.0853938
-0.0879241
-0.0886317
-0.0967686
-0.147443
-0.223937
-0.810033
-0.338858
0.0784793
0.329735
0.298642
0.0850491
-0.0940618
-0.538876
-0.863229
-1.23182
-1.55284
-1.55841
-1.40208
-1.17627
-0.77611
-0.720001
-0.56487
-0.662479
-0.880849
-1.28661
-0.909031
-0.481696
-0.0581738
-0.0136443
0.056188
-0.044675
-0.297678
-0.609739
-0.908899
-1.22779
-1.44884
-1.49121
-1.3133
-1.10548
-0.83814
-0.648039
-0.580628
-0.663391
-0.926983
-1.21275
-0.845725
-0.487985
-0.249823
-0.00297878
-0.0855148
-0.0791475
-0.332128
-0.638528
-0.911836
-1.17265
-1.38851
-1.37258
-1.22802
-0.993923
-0.769552
-0.635978
-0.642329
-0.600208
-0.932028
-1.07902
-0.779193
-0.486205
-0.33161
-0.0693843
-0.0166336
-0.152258
-0.293228
-0.564985
-0.678611
-0.969944
-1.08366
-1.13792
-0.985298
-0.907186
-0.651982
-0.599591
-0.50573
-0.456807
-0.843792
-1.00923
-0.694675
-0.442146
-0.306838
-0.187059
-0.177458
-0.184021
-0.374308
-0.534965
-0.653147
-0.789005
-0.853765
-0.872398
-0.919805
-0.739933
-0.548939
-0.530712
-0.396912
-0.525143
-0.669363
-0.724924
-0.562394
-0.410025
-0.193141
-0.144847
-0.176903
-0.149512
-0.248458
-0.349279
-0.459265
-0.648355
-0.6481
-0.664022
-0.637578
-0.571219
-0.414782
-0.403336
-0.329361
-0.325972
-0.468852
-0.564726
-0.314283
-0.274916
-0.145546
-0.142595
-0.0831551
-0.16192
-0.204351
-0.216975
-0.313552
-0.380946
-0.430895
-0.383637
-0.300017
-0.31932
-0.273796
-0.249566
-0.132967
-0.182036
-0.276198
-0.363959
-0.0682319
-0.0818801
-0.031498
-0.036996
-0.0133595
-0.0159626
-0.141158
-0.0325041
-0.122205
-0.206062
-0.115084
-0.0975594
-0.197758
-0.109633
-0.0297901
-0.0596144
-0.0736573
-0.0782639
-0.0564521
-0.142172
-0.814764
-0.413003
0.0721253
0.188127
0.187231
0.0952842
-0.253835
-0.624329
-0.957039
-1.42753
-1.48417
-1.59974
-1.40635
-1.21433
-0.894516
-0.713163
-0.624727
-0.695628
-0.927748
-1.2898
-0.892
-0.476422
-0.156449
0.0414523
0.045049
-0.104933
-0.306979
-0.590343
-1.07666
-1.281
-1.54696
-1.54033
-1.43343
-1.11588
-0.86901
-0.698353
-0.582014
-0.674694
-0.894552
-1.20049
-0.9101
-0.527633
-0.330094
-0.178201
-0.0971322
-0.19241
-0.413194
-0.712264
-0.948008
-1.19613
-1.42307
-1.39974
-1.19939
-0.999883
-0.849898
-0.678284
-0.543173
-0.690304
-0.846086
-1.0492
-0.780295
-0.505525
-0.436497
-0.133472
-0.153615
-0.222263
-0.458352
-0.663974
-0.865368
-1.03625
-1.2039
-1.21758
-1.12806
-0.912732
-0.75469
-0.619295
-0.537993
-0.608338
-0.782916
-1.03511
-0.690345
-0.474974
-0.287393
-0.160969
-0.194857
-0.272898
-0.338848
-0.563501
-0.703596
-0.839384
-0.930847
-0.897477
-0.816469
-0.757742
-0.6287
-0.482757
-0.377844
-0.504423
-0.538769
-0.760574
-0.54124
-0.336647
-0.184449
-0.11792
-0.208603
-0.238885
-0.257591
-0.367927
-0.514811
-0.579367
-0.649081
-0.694468
-0.655897
-0.538319
-0.464352
-0.270195
-0.298976
-0.34333
-0.543557
-0.487565
-0.318676
-0.208691
-0.186097
-0.172193
-0.0848948
-0.171139
-0.13622
-0.270704
-0.35261
-0.37454
-0.402447
-0.47257
-0.335905
-0.348192
-0.261081
-0.28292
-0.288898
-0.302245
-0.279211
-0.371444
-0.14086
-0.0793644
-0.0658398
-0.053914
-0.0244575
-0.0360539
-0.042539
-0.051193
-0.0874114
-0.112784
-0.105179
-0.124393
-0.146849
-0.19901
-0.0735116
-0.0498391
-0.0537644
-0.00486074
-0.116252
-0.127096
-0.696331
-0.350358
0.0399819
0.260406
0.175821
0.0759297
-0.193339
-0.564309
-0.992358
-1.34551
-1.42003
-1.52526
-1.35842
-1.09338
-0.862303
-0.55176
-0.523861
-0.640726
-0.910349
-1.15804
-0.825255
-0.543008
-0.0696778
-0.0555132
0.033338
-0.0953677
-0.452277
-0.647385
-1.05827
-1.30485
-1.38023
-1.46504
-1.32078
-1.07054
-0.806591
-0.654556
-0.486062
-0.6415
-0.844244
-1.10703
-0.907938
-0.551427
-0.270792
-0.181317
-0.0939413
-0.185417
-0.413995
-0.690597
-0.922251
-1.14589
-1.3114
-1.27926
-1.2176
-0.978224
-0.767698
-0.64241
-0.520707
-0.588203
-0.720255
-1.01552
-0.84648
-0.618467
-0.368752
-0.222422
-0.162723
-0.219907
-0.366231
-0.592877
-0.761542
-1.02931
-1.08842
-1.08803
-1.02806
-0.847915
-0.73177
-0.577571
-0.533124
-0.571818
-0.73645
-0.892294
-0.663901
-0.428472
-0.404905
-0.185244
-0.219616
-0.2764
-0.415879
-0.508167
-0.709127
-0.802363
-0.867651
-0.873652
-0.80519
-0.701161
-0.600383
-0.477293
-0.36442
-0.40715
-0.534147
-0.700489
-0.483717
-0.314956
-0.363378
-0.097337
-0.147087
-0.224334
-0.212489
-0.344234
-0.509399
-0.646982
-0.644379
-0.614556
-0.527092
-0.497722
-0.515564
-0.344748
-0.29269
-0.356265
-0.38859
-0.481637
-0.343785
-0.163029
-0.146912
-0.0451264
-0.111364
-0.214008
-0.137539
-0.264152
-0.286324
-0.386319
-0.382105
-0.402755
-0.441731
-0.336819
-0.28441
-0.212383
-0.148897
-0.249196
-0.164796
-0.318875
-0.110357
-0.124796
-0.0466275
-0.0231339
-0.0339755
-0.0425895
-0.100574
-0.151774
-0.149009
-0.076957
-0.122155
-0.146534
-0.0980009
-0.154358
-0.0938602
-0.0739699
-0.029931
-0.0931228
-0.0802805
-0.0804657
-0.60148
-0.199871
0.128424
0.269883
0.274187
0.196867
-0.126486
-0.410181
-0.775709
-1.16946
-1.27854
-1.33024
-1.13827
-0.91748
-0.577741
-0.44174
-0.432018
-0.448701
-0.708156
-1.02985
-0.713964
-0.458558
-0.213224
0.0719395
0.0409573
-0.090912
-0.245976
-0.516751
-0.822235
-1.02013
-1.24986
-1.21827
-1.10704
-0.932915
-0.715428
-0.528616
-0.445158
-0.451423
-0.709428
-1.00947
-0.826549
-0.478457
-0.192355
-0.132189
-0.0194619
-0.10469
-0.338191
-0.57435
-0.821887
-1.12228
-1.05581
-1.16981
-1.06257
-0.954413
-0.646059
-0.491911
-0.547174
-0.438366
-0.701558
-0.900684
-0.736263
-0.556401
-0.309689
-0.176785
-0.11117
-0.218187
-0.350967
-0.541167
-0.746202
-0.882809
-0.97706
-1.06502
-0.861331
-0.775542
-0.58574
-0.527604
-0.443935
-0.486979
-0.582087
-0.784156
-0.638515
-0.499361
-0.269949
-0.157448
-0.164239
-0.175799
-0.290626
-0.540244
-0.645718
-0.703593
-0.759673
-0.766968
-0.716288
-0.663533
-0.549537
-0.319542
-0.33446
-0.402359
-0.489941
-0.60969
-0.517367
-0.330589
-0.264793
-0.0916163
-0.144238
-0.227065
-0.308861
-0.350936
-0.48068
-0.496481
-0.594429
-0.564326
-0.611378
-0.448849
-0.369964
-0.251248
-0.29833
-0.298508
-0.428545
-0.445016
-0.294675
-0.209382
-0.120432
-0.0701016
-0.105899
-0.141338
-0.196803
-0.251438
-0.258309
-0.302626
-0.367611
-0.413266
-0.397083
-0.296202
-0.254095
-0.101015
-0.214053
-0.187266
-0.200424
-0.32557
-0.120648
-0.0495423
-0.0486384
-0.0676512
0.00210519
-0.0135489
-0.0822847
-0.00561346
-0.19363
-0.130291
-0.17022
-0.105456
-0.113525
-0.138365
-0.0912953
0.00690261
-0.0445191
-0.0258171
-0.122749
-0.0953195
-0.474099
-0.0590299
0.169346
0.454693
0.439663
0.304058
0.0221387
-0.188592
-0.591715
-0.815624
-0.995759
-0.960284
-0.861132
-0.648259
-0.448557
-0.183078
-0.136249
-0.281442
-0.410083
-0.794839
-0.67406
-0.309449
0.0416173
0.178212
0.211945
0.0734652
-0.135619
-0.381002
-0.697315
-0.830987
-1.02231
-0.9687
-0.939016
-0.658419
-0.506969
-0.347231
-0.23315
-0.259561
-0.52028
-0.781073
-0.651559
-0.407031
-0.118574
0.0125147
-0.000742895
-0.00959152
-0.214268
-0.401553
-0.604887
-0.850076
-0.949216
-0.959936
-0.848034
-0.68868
-0.493255
-0.386946
-0.300869
-0.301296
-0.406204
-0.706171
-0.626276
-0.377177
-0.174263
-0.0935756
-0.0062107
-0.0742086
-0.299248
-0.390643
-0.651811
-0.801808
-0.852907
-0.824915
-0.714904
-0.619858
-0.415492
-0.296212
-0.246493
-0.274199
-0.536135
-0.566107
-0.554513
-0.396435
-0.226153
-0.115982
-0.170594
-0.0745478
-0.192115
-0.371072
-0.476729
-0.593284
-0.721769
-0.650355
-0.63453
-0.474892
-0.369993
-0.281687
-0.250064
-0.261955
-0.364162
-0.521176
-0.42054
-0.400498
-0.221252
-0.0488833
-0.151318
-0.0873893
-0.197942
-0.220322
-0.344317
-0.423256
-0.511651
-0.558337
-0.450463
-0.409241
-0.275786
-0.197303
-0.275175
-0.136289
-0.296861
-0.383978
-0.258943
-0.192722
-0.168507
-0.120405
-0.108939
-0.163541
-0.143968
-0.167623
-0.23322
-0.273579
-0.345897
-0.310425
-0.246012
-0.256999
-0.170233
-0.130096
-0.145796
-0.143284
-0.145688
-0.297666
-0.0927609
-0.12551
-0.0191027
-0.0509372
0.0379939
0.0297564
-0.0199827
-0.135098
-0.0668735
-0.183494
-0.0704592
-0.0851358
-0.118664
-0.134448
-0.0319953
0.00966839
-0.0338959
-0.0555799
-0.0670099
-0.0337207
-0.256506
0.151224
0.49723
0.632975
0.736979
0.507071
0.365421
0.0680303
-0.285677
-0.43325
-0.58054
-0.649303
-0.47698
-0.220931
-0.0650631
0.134802
0.22206
0.0920062
-0.0659634
-0.409759
-0.411022
-0.0188483
0.213705
0.390495
0.377734
0.304587
0.0836457
-0.052968
-0.387552
-0.600536
-0.59739
-0.660574
-0.553394
-0.328205
-0.213036
0.0045267
0.104072
0.0561772
-0.27829
-0.465022
-0.476935
-0.228133
0.139364
0.216999
0.187585
0.17662
0.0249272
-0.267635
-0.395783
-0.593811
-0.633683
-0.620826
-0.575973
-0.396472
-0.19945
-0.138233
-0.0612995
-0.136419
-0.224224
-0.511597
-0.509476
-0.281057
-0.0545647
0.0187056
0.00344208
0.0298596
-0.0396485
-0.240926
-0.449229
-0.537173
-0.569042
-0.586562
-0.525577
-0.393368
-0.276036
-0.225125
-0.0973008
-0.15237
-0.276655
-0.430343
-0.398348
-0.26296
-0.186003
0.031551
0.0257185
-0.0678798
-0.107946
-0.226328
-0.335025
-0.485989
-0.468344
-0.500698
-0.400028
-0.302506
-0.186381
-0.125472
-0.076355
-0.0926804
-0.264302
-0.393937
-0.473026
-0.285985
-0.141032
-0.0788825
0.0364282
-0.0910429
-0.157109
-0.214233
-0.28458
-0.317307
-0.399061
-0.359204
-0.346889
-0.307601
-0.196828
-0.126185
-0.0769748
-0.130692
-0.210466
-0.346397
-0.162796
-0.170706
-0.0420394
-0.0269647
-0.0108949
-0.0256369
-0.078723
-0.081521
-0.175599
-0.196503
-0.187974
-0.264947
-0.195097
-0.173577
-0.176937
-0.0887623
-0.0440691
-0.118573
-0.120458
-0.118985
-0.0645974
-0.0270179
-0.0334377
0.000372863
0.0377746
-0.0392922
-0.0143218
-0.0398568
-0.116528
-0.104668
0.0368938
-0.0687595
-0.123721
-0.0246254
-0.0593691
-0.0524001
-0.0176066
-0.105336
-0.0773495
-0.111217
0.160272
0.490016
0.746577
0.984553
0.928125
0.799323
0.690199
0.425495
0.26226
-0.0608227
-0.117498
-0.123698
-0.0442962
0.229348
0.28548
0.603735
0.574669
0.417785
0.272232
-0.0652891
-0.120918
0.171878
0.427281
0.705342
0.587915
0.616442
0.311493
0.179441
0.021239
-0.158106
-0.244636
-0.230486
-0.252897
0.0122435
0.171721
0.394513
0.404573
0.278945
0.188208
-0.192861
-0.332661
0.0117587
0.225916
0.300482
0.367028
0.365988
0.259437
0.158174
-0.104197
-0.197054
-0.244377
-0.26883
-0.27244
-0.0289822
0.0769076
0.213079
0.207927
0.109746
0.068301
-0.250085
-0.354199
-0.0995805
0.0787341
0.268492
0.171512
0.228504
0.103809
-0.110573
-0.0875837
-0.194301
-0.31655
-0.287418
-0.240999
-0.140104
-0.00159969
0.102691
0.0926377
0.12502
-0.0912185
-0.150875
-0.301136
-0.170192
-0.00178086
0.0532852
0.159872
0.108613
0.0325307
-0.094078
-0.156141
-0.156944
-0.317168
-0.232669
-0.272629
-0.140549
-0.0241071
0.0671343
0.0500816
-0.0145021
-0.137495
-0.199336
-0.195666
-0.118121
-0.0400752
-0.0130991
0.111432
-0.0279993
0.0507278
-0.0820348
-0.12234
-0.249374
-0.162515
-0.215454
-0.159414
-0.138362
-0.0307783
0.0398419
0.0671616
-0.00771769
-0.0512297
-0.141872
-0.117009
-0.0855661
0.0027626
0.0598725
0.0412396
-0.0538995
-0.0652094
-0.0430589
0.0143979
-0.150915
-0.190959
-0.133815
-0.0803513
-0.0377758
-0.0621092
0.0329859
0.030918
-0.00100701
-0.0815839
-0.0958986
-0.0742254
0.00438368
0.000982368
0.0191121
-0.0357857
0.0431082
-0.00359491
0.0207631
-0.0478699
-0.0137459
0.0073879
-0.0465359
-0.0769938
-0.100791
-0.00951009
0.00604894
0.00326658
-0.00451102
-0.0742927
-0.084518
0.396486
0.826177
1.10288
1.22756
1.31284
1.25397
1.1285
0.951021
0.635049
0.555742
0.495091
0.447832
0.565534
0.694066
0.878321
0.982717
1.00476
0.942183
0.640486
0.379313
0.182658
0.530414
0.673217
0.854392
0.975536
0.83325
0.808256
0.574822
0.45413
0.227397
0.238072
0.220384
0.30518
0.53184
0.591017
0.74412
0.705411
0.658307
0.49304
0.184714
-0.036598
0.164198
0.448858
0.594466
0.576344
0.591224
0.554508
0.397823
0.218627
0.141451
0.20268
0.166051
0.147845
0.253754
0.412191
0.508605
0.550193
0.488641
0.340367
0.0165081
-0.104166
0.131968
0.290615
0.407953
0.444755
0.477268
0.33148
0.170929
0.120416
0.0409729
0.132582
0.0228159
0.13078
0.180345
0.291074
0.331656
0.406036
0.346659
0.227563
-0.0507478
-0.190144
0.0445213
0.154109
0.210868
0.296104
0.284224
0.227828
0.162053
0.0306399
-0.0435711
-0.0156568
0.021
0.0188848
0.109589
0.105656
0.16689
0.274504
0.231241
0.107961
-0.0630558
-0.152274
-0.0337242
0.100714
0.0619056
0.203726
0.163424
0.149769
0.0480754
0.00685903
-0.000345601
-0.0358416
-0.0314504
-0.0111848
0.0819781
0.0442426
0.130881
0.19521
0.107882
0.162075
0.0211792
-0.063078
-0.0843085
-0.0702055
0.122699
0.0667099
0.0886855
0.0324878
0.0147975
-0.00539883
0.0030957
-0.0468649
-0.0657606
-0.0382798
-0.0284821
0.0501138
0.085168
0.0204053
0.125558
0.0478946
-0.0509224
0.0404086
-0.0486361
0.0948292
-0.00375692
0.0159357
0.000280894
-0.0540617
-0.01904
-0.0108192
0.00866592
-0.0536181
-0.00873224
0.00324888
0.05237
0.0893521
0.0183369
0.0491735
0.0328435
-0.0775544
0.00326385
0.812187
1.13285
1.49172
1.66043
1.74261
1.68854
1.56528
1.46002
1.23476
1.12555
0.996473
1.05061
1.17501
1.27148
1.36583
1.47577
1.39167
1.4088
1.23009
0.847287
0.520414
0.812363
1.02331
1.28632
1.27537
1.28676
1.17317
1.12424
0.869914
0.753715
0.695884
0.811374
0.813079
0.940179
1.09663
1.13551
1.14581
1.08074
0.866478
0.595146
0.245691
0.509323
0.767605
0.969448
0.910086
0.940304
0.854596
0.758883
0.706484
0.552019
0.514987
0.550533
0.541465
0.697082
0.822955
0.899196
0.906115
0.892962
0.581587
0.503562
0.0516707
0.289759
0.537179
0.57468
0.707495
0.713069
0.610496
0.562386
0.47354
0.342976
0.334981
0.328612
0.351296
0.485561
0.606667
0.597339
0.588444
0.57643
0.494709
0.318794
0.0874363
0.139649
0.368353
0.445597
0.400007
0.500506
0.396516
0.291219
0.307316
0.249118
0.203395
0.221859
0.225965
0.37795
0.364475
0.544971
0.426988
0.408497
0.339965
0.191645
-0.0659534
0.0343041
0.212017
0.323619
0.327643
0.307985
0.214911
0.130283
0.239662
0.147841
0.220468
0.140575
0.16699
0.180542
0.22046
0.316556
0.267206
0.243105
0.280703
0.118711
-0.0403221
0.0399395
0.16159
0.146494
0.17167
0.205843
0.158886
0.0820567
0.0578401
0.0956268
0.0766921
0.0356317
0.150298
0.141799
0.193411
0.0680594
0.206278
0.0913255
0.145975
0.0569576
-0.0353374
0.0028206
0.0015898
0.0629125
0.0755452
0.108114
0.09092
0.0209892
0.0323913
0.0348115
0.0176009
-0.00608286
0.0853349
0.0537941
0.0571655
0.0336561
0.0122049
0.0921635
0.0772701
0.0762066
1.25714
1.5873
1.93093
2.10798
2.1465
2.14949
2.02819
1.89747
1.80792
1.68197
1.62236
1.51191
1.67988
1.78189
1.88789
2.04773
1.93664
1.81318
1.61215
1.31375
0.846589
1.12055
1.39051
1.57108
1.63615
1.6122
1.59092
1.53526
1.28471
1.33308
1.27164
1.20419
1.28293
1.36822
1.53234
1.49754
1.59234
1.5338
1.27598
0.956752
0.477707
0.817562
1.0305
1.18485
1.27306
1.25297
1.16952
1.07348
1.00435
0.958953
0.881599
0.929298
1.03566
1.01614
1.20786
1.25751
1.25591
1.16449
1.07039
0.758415
0.346902
0.492951
0.77779
0.83001
0.970685
0.913233
0.885983
0.859752
0.724437
0.678407
0.681133
0.685635
0.701677
0.800509
0.838599
0.809916
0.992024
0.90754
0.733153
0.577347
0.227444
0.393033
0.506628
0.63495
0.635746
0.619091
0.587906
0.638192
0.55848
0.472381
0.507706
0.508912
0.416192
0.569958
0.670547
0.70394
0.674943
0.603015
0.61191
0.432825
0.0465018
0.21166
0.337923
0.377698
0.490959
0.494806
0.446683
0.401038
0.366275
0.314107
0.306226
0.340359
0.291415
0.449603
0.385359
0.475512
0.434888
0.460944
0.284962
0.303156
0.030233
0.0899565
0.181246
0.208122
0.278451
0.255712
0.188032
0.215532
0.220167
0.252026
0.109414
0.19846
0.224777
0.220992
0.236344
0.208542
0.233421
0.200264
0.177369
0.200297
-0.0367193
-0.0133178
0.0372997
-0.0163857
0.11355
0.0835486
0.121567