/*--------------------------------*- C++ -*----------------------------------*\
| =========                 |                                                 |
| \\      /  F ield         | OpenFOAM: The Open Source CFD Toolbox           |
|  \\    /   O peration     | Version:  2212                                  |
|   \\  /    A nd           | Website:  www.openfoam.com                      |
|    \\/     M anipulation  |                                                 |
\*---------------------------------------------------------------------------*/
FoamFile
{
    version     2.0;
    format      ascii;
    arch        "LSB;label=32;scalar=64";
    class       volScalarField;
    location    "0";
    object      relativeErrorField;
}
// * * * * * * * * * * * * * * * * * * * * * * * * * * * * * * * * * * * * * //

dimensions      [0 0 0 1 0 0 0];

internalField   nonuniform List<scalar> 
3200
(
0.000109863
0.00232597
0.0045652
0.00565522
0.00641264
0.00680491
0.00666866
0.00673456
0.00627555
0.00588137
0.00545748
0.00510629
0.00484858
0.00461029
0.00442087
0.00402511
0.00342346
0.00181996
1.84649e-05
0.00226689
0.000379999
0.00141164
0.00334886
0.00465714
0.00526811
0.00545072
0.00556747
0.00531987
0.00514249
0.00470069
0.00426829
0.00420469
0.0038946
0.0036038
0.0036921
0.00316093
0.00256971
0.00126568
3.40839e-05
0.00209465
0.00053377
0.00084825
0.00217982
0.00351401
0.00404756
0.00444704
0.0043547
0.00427582
0.00402665
0.0036464
0.003265
0.00303917
0.00306594
0.00275282
0.00274898
0.00243851
0.00206973
0.000860184
0.000379026
0.00210582
0.00108331
0.000392447
0.00193206
0.002653
0.00301712
0.00316464
0.00356559
0.00319161
0.0029163
0.00287361
0.00261253
0.0022966
0.00242488
0.00225859
0.00196007
0.00174064
0.00136392
0.000761857
0.000502391
0.00161559
0.000930482
0.000396406
0.00116455
0.0021164
0.00215023
0.0025633
0.00266455
0.00249279
0.0023253
0.0021292
0.00187804
0.00166885
0.00152396
0.00175781
0.00163621
0.00140541
0.00113989
0.00048739
0.000810033
0.00145595
0.000525215
6.48196e-06
0.00103897
0.00163642
0.0016288
0.001875
0.00162095
0.0017148
0.00143113
0.00147391
0.00149796
0.00114186
0.00100171
0.000922705
0.00105235
0.00114095
0.000713312
0.00019936
0.000627213
0.00084034
0.000395446
0.000143306
0.000425309
0.000942241
0.00103219
0.000854241
0.00117573
0.000917737
0.000994045
0.000891816
0.000901595
0.000547745
0.000700749
0.000673817
0.000423044
0.000366657
0.000445273
9.05618e-05
0.000261249
0.000568942
0.00022261
8.23692e-05
4.70502e-05
0.000212313
0.000443515
0.000305057
0.000248756
0.000398364
0.000221818
0.000407392
0.000316899
0.000216036
0.000460333
0.000145268
7.35777e-05
4.01195e-05
0.000116086
9.80296e-05
7.1647e-06
2.28741e-05
0.000169712
0.00222999
0.00448497
0.00565493
0.00628202
0.00642332
0.00643205
0.00610842
0.00574025
0.00524052
0.00467198
0.00442696
0.00402203
0.0038432
0.00381676
0.00339298
0.0029912
0.00187949
0.000267845
0.00235283
0.000551974
0.00151852
0.00318751
0.00440798
0.00494411
0.00529823
0.00503394
0.0047833
0.00442942
0.00393428
0.00370804
0.00326941
0.0033188
0.00305164
0.00311523
0.00290957
0.00238945
0.00119321
0.000478203
0.00216978
0.000771714
0.000603082
0.00259852
0.00353346
0.00379319
0.00395697
0.00370846
0.00392392
0.0033838
0.00315696
0.0027174
0.00247686
0.00227219
0.00208672
0.00225396
0.00232381
0.00177784
0.00106796
0.000487677
0.00203457
0.000765757
0.000313812
0.00174885
0.00244037
0.00278804
0.00303044
0.00301296
0.00302907
0.00283035
0.00230079
0.00201162
0.00199541
0.00198995
0.00185405
0.00178273
0.00159175
0.00124397
0.000481525
0.000630237
0.00173221
0.000955364
4.11044e-05
0.00134184
0.00175748
0.00206656
0.00248958
0.00216454
0.0021321
0.00184624
0.00181086
0.00157442
0.00142767
0.00135687
0.00131785
0.0010897
0.00105359
0.00109037
0.00017723
0.000721205
0.00141808
0.000736554
0.000113951
0.000963701
0.000997379
0.00141575
0.00155609
0.00145311
0.00127522
0.00144271
0.00143132
0.000916989
0.000938777
0.000923038
0.000767179
0.000751818
0.00081761
0.000467585
0.00029425
0.000512407
0.0011454
0.000441653
8.99663e-06
0.000561679
0.000732664
0.000956896
0.000910365
0.000864329
0.000853901
0.000763898
0.000734441
0.000785611
0.000615764
0.000667178
0.000434314
0.000631055
0.000449219
0.000441686
9.35827e-06
0.00028775
0.0007406
0.000128609
0.000110293
0.00010074
0.000425042
0.000298845
0.000392594
0.000469623
0.000347009
2.57126e-07
0.000243771
0.000293993
0.000253263
0.000309598
3.68922e-06
0.000135571
0.00026816
0.000210293
1.48908e-05
0.000228284
0.000445742
7.95212e-05
0.00228687
0.00408328
0.00528825
0.0057965
0.00590295
0.00537599
0.00496889
0.00452061
0.00414724
0.00345174
0.00299143
0.00309128
0.00301893
0.00320892
0.00296533
0.00249259
0.00160856
0.000372268
0.00215696
0.000568457
0.00127454
0.00308939
0.00397779
0.00458296
0.00449117
0.00456553
0.00411855
0.00353615
0.00288861
0.00256645
0.00238497
0.00220017
0.002662
0.00242599
0.0023267
0.0020685
0.00111068
0.00034082
0.00223305
0.000759845
0.000823452
0.00226573
0.00305543
0.00353411
0.00362118
0.00343925
0.00323798
0.00281711
0.00220799
0.00197143
0.001714
0.00180349
0.0020562
0.00169152
0.0019109
0.00152507
0.000531611
0.000747254
0.00221695
0.00107445
0.000150363
0.00163944
0.00225888
0.00260569
0.0027528
0.00243994
0.00253822
0.00232389
0.00163508
0.00151955
0.00125704
0.00130136
0.00109009
0.0012091
0.00128015
0.000726974
0.000354213
0.000484364
0.0019003
0.0008926
0.00020702
0.00109038
0.00155876
0.00190293
0.00223159
0.00185735
0.00185491
0.00178968
0.0012265
0.000964876
0.000840186
0.000921586
0.000764319
0.0010081
0.00115187
0.000642368
0.000443243
0.000610013
0.0015033
0.000819942
0.000165322
0.000482988
0.00130151
0.0014644
0.00137585
0.00118016
0.00117119
0.000834141
0.000584773
0.000452694
0.00029451
0.00045952
0.000690195
0.000685624
0.000642756
0.000295484
6.27998e-05
0.000721075
0.0012352
0.000410168
4.10141e-05
0.000248074
0.00081064
0.000706361
0.00096028
0.000719089
0.000460169
0.000490984
0.000439005
0.000330899
0.000346684
0.000198282
0.000196235
0.000337817
0.000527292
0.000252806
0.000147938
0.000337354
0.000718442
0.000385817
1.02055e-05
6.28381e-05
0.000329228
0.000301589
0.000325475
0.000320888
0.000307812
1.01547e-05
0.000284727
0.000144172
0.000254219
0.000347614
0.000107249
3.3126e-05
0.000167852
0.000325614
3.37396e-05
0.000231269
0.000530553
0.000461765
0.00164668
0.00375189
0.00471327
0.005109
0.00525828
0.00485973
0.00378691
0.00333076
0.00244514
0.00211199
0.00191016
0.00173837
0.0020274
0.00227726
0.00226092
0.00192644
0.00112523
0.000609005
0.00253163
0.000819048
0.00100234
0.00277508
0.00368466
0.00413471
0.00384523
0.00369132
0.00276008
0.00252052
0.00169155
0.00151648
0.00131882
0.00142257
0.00139104
0.00154506
0.00174784
0.0013645
0.000544385
0.000857763
0.00258456
0.00104617
0.000544519
0.00177708
0.00279562
0.0031343
0.00286827
0.0025415
0.00247056
0.0021274
0.00137896
0.000944883
0.000936533
0.000841315
0.000967608
0.0012543
0.00119059
0.00104587
0.000202846
0.000956273
0.00226548
0.00124408
0.000195044
0.00133993
0.00183569
0.00199768
0.00224304
0.00231767
0.00172528
0.00121803
0.000736392
0.000695557
0.00038238
0.00062656
0.000409545
0.000597447
0.000675826
0.000596805
0.000175074
0.000671076
0.00191948
0.000984817
7.60585e-07
0.000853432
0.00143894
0.00148839
0.00167839
0.0016178
0.00130736
0.000750504
0.000574804
0.000335019
0.00040778
0.000448161
0.000521515
0.000462654
0.000400183
0.000160771
0.000291949
0.000906308
0.00161794
0.000573571
2.11266e-05
0.000427707
0.00107312
0.00100627
0.000859838
0.000985479
0.000796408
0.000391471
0.000239031
0.000235206
0.00025263
7.25737e-05
0.000553998
0.000334822
0.000249303
0.000404413
7.73818e-05
0.000689808
0.00108092
0.000567034
0.000129835
0.000282585
0.00061875
0.000732074
0.00109025
0.000466069
0.000454617
0.000429024
5.04089e-05
5.35161e-05
0.000165774
5.769e-05
0.000201792
7.11697e-05
0.000227809
0.000221689
0.000169131
0.000191438
0.0008063
0.000121352
5.58113e-05
4.89837e-05
4.83774e-05
0.000178806
0.000109976
0.000145896
0.000275392
7.49681e-05
5.7282e-05
0.000157295
4.96601e-05
0.000306502
0.000104238
2.16194e-05
9.45802e-05
9.87707e-05
9.96489e-05
0.00053228
0.000169795
0.000566754
0.00139422
0.00319469
0.00396666
0.00444745
0.00420706
0.0036558
0.00298135
0.00215807
0.00127268
0.000618789
0.000202965
0.000464917
0.000839949
0.00126416
0.00123195
0.0012089
0.000115919
0.000977057
0.00292381
0.00111988
0.00072292
0.00197721
0.00290788
0.00335796
0.00321869
0.00276189
0.00199908
0.00157497
0.000878873
0.000326984
5.5959e-06
0.00019008
0.000172344
0.00073787
0.00086768
0.000550499
8.64064e-05
0.00144147
0.00286579
0.00143097
0.000147204
0.00161552
0.00225784
0.00241014
0.00227949
0.00209091
0.00132867
0.000585187
0.000308155
3.01103e-05
0.000231851
3.46323e-06
0.000305308
0.000382384
0.000966986
0.00044311
0.000404078
0.00135926
0.00236004
0.00123206
0.00038181
0.000855383
0.00180242
0.00182935
0.00166277
0.00173943
0.0011489
0.000314908
0.000129567
0.000268668
0.000194779
0.000402169
0.000148536
0.000228103
0.000257282
0.000505831
0.000372232
0.00127533
0.00227511
0.0015817
0.000122119
0.000479576
0.000953447
0.00136272
0.00137127
0.00101545
0.000513886
7.2402e-05
0.000213362
8.97826e-05
0.00033543
0.000153414
0.000194023
1.94498e-05
8.95152e-05
5.54189e-06
0.000319732
0.00103851
0.00195843
0.000962018
0.00023618
0.000549262
0.000827781
0.000811587
0.000759093
0.000724165
0.000528408
0.000359489
0.000147895
0.000506737
0.000321205
0.00039578
0.000291141
0.000250198
8.88901e-05
0.000150299
0.000279405
0.000782636
0.00139956
0.000535044
0.000325825
0.000104381
0.00028281
0.000479257
0.000392884
0.000477373
0.000343673
5.44315e-05
8.99765e-05
0.000174662
0.00030889
0.000109174
9.11877e-05
8.82215e-07
0.000162821
0.000283911
0.000267707
0.000242681
0.00083775
0.000227708
0.000134896
0.000180048
0.000120637
0.000281762
3.38656e-05
0.000106745
0.000220486
0.000103595
0.000310855
0.000217629
0.000141357
6.06883e-05
0.000120885
0.000195831
4.65005e-05
7.9757e-05
0.000174134
0.000250979
0.00030283
0.00117271
0.000854167
0.00249846
0.00342347
0.00367907
0.00325547
0.00258997
0.00193736
0.000823207
0.000299591
0.000799885
0.00111723
0.000900813
0.000326783
0.000177239
0.000351135
0.000561876
0.00034683
0.00152577
0.00313198
0.00169079
0.000102343
0.00154892
0.00253781
0.00260791
0.00266979
0.00169202
0.00115224
0.000303019
0.000482998
0.00119493
0.00143975
0.00115088
0.000451955
5.24243e-05
0.000317021
4.29677e-05
0.000714695
0.00171961
0.00319668
0.00148549
0.00028323
0.000938455
0.00163713
0.00208794
0.0017621
0.00144908
0.00044121
7.29417e-07
0.000752114
0.00111064
0.00133685
0.00119559
0.000985286
0.000411448
0.000187592
6.50338e-06
0.00066074
0.00145322
0.00326599
0.00177553
0.000496796
0.000482088
0.00132478
0.00126527
0.00135775
0.000774839
0.00040697
0.000323136
0.00062444
0.00133431
0.0012806
0.00115177
0.000806698
0.000459826
3.28035e-05
0.000362703
0.00094017
0.00140389
0.00253459
0.00133646
0.000387595
0.000224294
0.000757797
0.0011421
0.000849101
0.000437366
0.000118729
0.000313386
0.000786184
0.000964842
0.00132481
0.000937846
0.000638062
0.000523125
0.000225099
0.000456137
0.000722424
0.00112495
0.00232876
0.00120158
0.000616826
1.93717e-05
0.000471526
0.000596593
0.000394135
9.21163e-05
0.000196514
0.000320377
0.000466097
0.000873658
0.000945336
0.0007735
0.000565792
0.000403189
0.000265411
0.000214761
0.000524515
0.0010552
0.00144612
0.000585938
0.000230128
0.000131519
0.000132836
0.000354521
0.000523991
0.000279047
3.63121e-05
0.000312924
0.000391113
0.000525931
0.000706956
0.000457173
0.000485009
0.000369271
0.000184625
0.000191632
0.0002397
0.000550889
0.000841476
0.000553685
0.000182553
0.000200356
6.06275e-05
0.000168599
0.000140016
0.000115582
1.86796e-05
7.25498e-05
0.000308982
0.000202428
0.000369388
2.05807e-05
0.00018118
0.00023466
5.64997e-05
0.000200852
1.7756e-05
0.000177118
0.00032885
0.00153353
0.000300809
0.00197012
0.00253298
0.00271585
0.00239443
0.00178056
0.000897354
0.000305854
0.00145062
0.00222405
0.00231317
0.00212773
0.00123122
0.000599862
9.80737e-05
0.000260637
0.000889425
0.00205594
0.00365307
0.00183987
0.00047483
0.00092317
0.00163648
0.00198103
0.00185534
0.00102214
0.000137297
0.00120237
0.00194412
0.00219272
0.00267083
0.0022469
0.0015387
0.000983204
0.000652837
0.000544738
0.00105558
0.00207441
0.00360198
0.00202024
0.000656571
0.0005102
0.00117693
0.00112201
0.000752284
0.000581648
0.000230978
0.000853539
0.00132091
0.00216105
0.00223342
0.00189871
0.00175039
0.00120236
0.000735135
0.000828364
0.00120985
0.00205844
0.00319673
0.0017844
0.00101053
0.00010592
0.000861953
0.00060829
0.000738511
0.000370108
0.000437975
0.000962024
0.00185324
0.00205946
0.00223424
0.00176991
0.0017478
0.00111858
0.000724842
0.000738149
0.001224
0.00182273
0.00271054
0.00140983
0.000724806
9.47148e-05
0.000396579
0.000434144
0.000187933
1.4139e-05
0.000420977
0.00108349
0.00118979
0.00160283
0.00182386
0.00151269
0.00106688
0.00104118
0.000682714
0.00065249
0.00106264
0.00170373
0.00225178
0.001235
0.000706801
0.000379183
0.000387678
0.000470747
0.00022871
0.000165223
0.000416891
0.000762133
0.00110162
0.00132843
0.00130525
0.00111264
0.00122599
0.000692729
0.000443419
0.000526578
0.000501184
0.00104146
0.00172333
0.000762828
0.000438903
8.27016e-05
8.13844e-05
3.40316e-05
0.000176346
3.69526e-05
0.000129267
0.000542647
0.000602807
0.000951347
0.000678728
0.000801002
0.000505347
0.000449391
0.00017973
0.000393
0.000803611
0.000730995
0.00113356
0.0003515
0.000103011
0.000101883
0.00010754
6.53271e-05
0.000221626
3.07017e-05
0.000269771
0.00022453
0.000323238
0.000365337
0.000321202
0.000467
0.00012114
0.0003418
0.000152774
0.000244461
0.000207042
0.000293562
0.000377104
0.0022775
0.000184592
0.00123188
0.00181671
0.00182055
0.00153809
0.000845543
0.000130422
0.0015697
0.00254555
0.00329148
0.00320008
0.00313364
0.00244392
0.00173529
0.00121024
0.00103768
0.00136806
0.00243552
0.00396678
0.00244105
0.000803198
0.00039513
0.00104798
0.00129819
0.00084369
0.000248072
0.000662119
0.00179799
0.00246239
0.00309622
0.00335697
0.00303645
0.00237856
0.00159945
0.00130886
0.00126001
0.00165715
0.00270579
0.00374854
0.00251774
0.00110038
0.000150239
0.000584106
0.000464979
0.000317195
0.000106554
0.000871929
0.00155795
0.0026271
0.00323434
0.0029615
0.00309891
0.00228064
0.00177703
0.00119046
0.00113558
0.0014297
0.00249251
0.00320296
0.00192992
0.00130899
0.000278863
0.000189016
0.000303049
5.73142e-05
0.000221039
0.00089367
0.00202356
0.00223024
0.00256871
0.00273323
0.00247805
0.00222249
0.00151943
0.00143539
0.0010868
0.00133848
0.00201144
0.00282293
0.001618
0.00121696
0.00057183
0.000297661
5.18846e-05
1.73646e-07
0.000581186
0.000794804
0.00143497
0.00195321
0.00235086
0.0023529
0.0020875
0.00190567
0.00135948
0.00108521
0.00106104
0.00135513
0.00177542
0.00229471
0.00154875
0.000973672
0.000318027
3.00843e-05
2.87597e-05
4.52612e-05
0.000262191
0.000646078
0.00110618
0.00143037
0.00154101
0.00189194
0.00158985
0.00145258
0.00113984
0.000852934
0.000825092
0.000990428
0.00145369
0.0018383
0.000872576
0.000722562
0.000180342
5.94189e-06
0.000367422
0.000160566
0.00021821
0.000301574
0.000834463
0.00094264
0.00143379
0.00124001
0.000896779
0.000971482
0.000757064
0.000366567
0.000502173
0.000516625
0.000681684
0.000916876
0.000169039
0.00038953
2.06031e-05
0.000112939
0.000124276
7.64047e-05
6.05182e-05
2.28003e-06
0.000185421
0.000432342
0.000516475
0.000234364
0.000484621
0.000138734
7.13411e-05
0.000200203
0.000108363
0.000377871
0.000240402
0.000541147
0.00237592
0.000549558
0.000310079
0.00150626
0.00130485
0.000884681
0.000281589
0.000787666
0.00218892
0.0034368
0.0043456
0.00434131
0.00404633
0.00298797
0.00230221
0.00167974
0.00144612
0.00207122
0.00295829
0.00402127
0.00262826
0.00110256
2.06857e-05
0.000648759
0.00085321
0.000454046
0.000635981
0.0011782
0.00244477
0.00339914
0.0041862
0.00410819
0.00397256
0.00311046
0.00234659
0.00160628
0.00158962
0.00197982
0.00271823
0.00404137
0.00246485
0.00132646
0.000268206
0.000103991
0.000268538
0.00012244
0.000511098
0.00153752
0.00237442
0.00303279
0.00349454
0.00385231
0.00355214
0.00305049
0.00229069
0.00199276
0.00178002
0.00197013
0.00279308
0.0036325
0.00242228
0.00142979
0.000637104
0.00023149
0.000201745
0.000471719
0.000656528
0.00122671
0.00208044
0.00272759
0.00343253
0.00360486
0.00315929
0.00248044
0.00189172
0.00158451
0.00159873
0.00180681
0.00213756
0.00303401
0.00204863
0.00137282
0.000520034
0.00024681
7.20476e-05
4.11556e-05
0.000935897
0.00126185
0.00176199
0.0023116
0.00264491
0.00267945
0.002498
0.00205664
0.00150432
0.00146231
0.0011449
0.00150521
0.00202049
0.0025395
0.00167027
0.00111373
0.000720131
0.000512761
0.000374545
0.000353989
0.000760326
0.00108812
0.0014937
0.00174457
0.00189154
0.00204222
0.00166561
0.00168839
0.00104557
0.00121932
0.000773593
0.00108651
0.00143534
0.00201416
0.00113881
0.000597099
0.000200926
0.000170919
0.000205932
0.000203055
0.000323329
0.000903907
0.000811756
0.00102007
0.00121051
0.000964189
0.00134056
0.00115594
0.000877598
0.000676472
0.000608048
0.000595351
0.000961733
0.0011068
0.000180351
0.000430708
0.000105817
0.000171464
0.00033912
0.000241466
0.000242034
0.000436926
0.00052388
0.000521942
0.000254969
0.000578453
0.000335374
0.000354473
0.000283157
0.000291571
0.000293943
0.000320955
0.000489067
0.000742841
0.00251601
0.00105163
0.000243303
0.00102112
0.000923814
0.000262814
0.00029039
0.00166235
0.00266146
0.00379678
0.00478624
0.00480481
0.00432521
0.00363143
0.00239829
0.00222724
0.00174928
0.00205383
0.00273368
0.0039963
0.00284881
0.0015085
0.000182015
4.26492e-05
0.000175462
0.000139382
0.000927967
0.00189949
0.00283008
0.00382207
0.00451018
0.00464326
0.00409125
0.00344618
0.00261492
0.00202368
0.00181492
0.00207563
0.00290299
0.00380063
0.00267462
0.00154234
0.000788985
9.39976e-06
0.000269627
0.000249355
0.00104564
0.00200912
0.0028679
0.00368741
0.00436619
0.00431702
0.00386395
0.00312916
0.00242448
0.00200523
0.00202692
0.00189557
0.00294579
0.00341242
0.00248711
0.00155116
0.00105728
0.000221069
5.29611e-05
0.000484473
0.000932491
0.00179584
0.00215627
0.00308143
0.00344268
0.00361573
0.00313183
0.00288493
0.00207456
0.00190909
0.00161133
0.00145645
0.00269199
0.00322138
0.00223827
0.00142408
0.00098778
0.000601862
0.000570666
0.00059147
0.00120253
0.00171803
0.00209701
0.00253285
0.00274074
0.00280094
0.00295393
0.00237717
0.00176437
0.00170666
0.00127706
0.00169055
0.00215591
0.00233574
0.00182942
0.00133342
0.000627877
0.000470699
0.000574647
0.000485492
0.000806521
0.00113349
0.00149013
0.00210344
0.00210262
0.00215449
0.00206909
0.00185424
0.00134687
0.00131019
0.0010703
0.0010597
0.00152473
0.00183701
0.00103227
0.00090282
0.000477865
0.000468068
0.000272893
0.000531259
0.000670341
0.000711635
0.00102827
0.00124921
0.001413
0.00125811
0.000983997
0.00104748
0.000898324
0.000819011
0.000436465
0.000597674
0.00090703
0.00119543
0.000226312
0.000271565
0.000104459
0.000122683
4.42982e-05
5.29254e-05
0.000467991
0.000107757
0.000405115
0.000683092
0.000381504
0.000323415
0.000655604
0.000363473
9.87719e-05
0.000197672
0.000244256
0.000259553
0.00018723
0.000471557
0.00252613
0.00127949
0.000223229
0.000581663
0.000578305
0.000294024
0.000782603
0.00192353
0.00294712
0.00439482
0.0045692
0.00492625
0.00433289
0.00374391
0.00276026
0.00220277
0.00193157
0.00215298
0.00287419
0.00399897
0.00279102
0.0014897
0.000488777
0.00012939
0.000140492
0.000326973
0.000955838
0.00183702
0.00334888
0.00398354
0.00481061
0.00479107
0.00446053
0.00347452
0.00270786
0.00217792
0.0018167
0.00210788
0.00279713
0.00375626
0.00287431
0.00166545
0.00104118
0.000561651
0.000305908
0.000605542
0.00129955
0.00223899
0.00297893
0.00375788
0.00447085
0.00439842
0.00377026
0.00314476
0.00267475
0.00213619
0.00171197
0.00217735
0.00267064
0.00331361
0.00248784
0.00161104
0.00139024
0.000424838
0.000488648
0.000706597
0.00145638
0.00210881
0.0027476
0.00328963
0.00382185
0.00386589
0.00358278
0.00290013
0.00239924
0.00196997
0.00171242
0.00193755
0.00249506
0.00330028
0.00222236
0.0015285
0.000924421
0.000517511
0.000626153
0.00087652
0.0010879
0.00180854
0.00225763
0.00269299
0.00298643
0.00287973
0.00262044
0.00243278
0.00201932
0.00155129
0.00121476
0.00162251
0.00173379
0.00244844
0.00175949
0.00109411
0.000599266
0.000382979
0.000677257
0.000775311
0.000835769
0.00119347
0.00166963
0.00187883
0.0021049
0.00225229
0.00212758
0.00174661
0.00150707
0.000877224
0.00097101
0.00111546
0.00176657
0.001585
0.00104629
0.00068508
0.000610786
0.00056503
0.000278511
0.000561334
0.00044672
0.000887613
0.00115605
0.00122788
0.00131937
0.00154935
0.0011014
0.00114186
0.000856344
0.000928164
0.000947981
0.000991992
0.00091658
0.00121954
0.000467142
0.000263188
0.000218323
0.000178764
8.10885e-05
0.000119528
0.000141019
0.000169699
0.000289748
0.000373845
0.000348639
0.000412333
0.000486787
0.000659728
0.00024371
0.000165241
0.000178268
1.61181e-05
0.000385515
0.000421498
0.0021546
0.0010833
0.000123512
0.000803688
0.000542131
0.000233919
0.000595164
0.00173604
0.00305151
0.0041365
0.0043656
0.00469019
0.00417904
0.0033658
0.00265653
0.00170132
0.00161679
0.00197933
0.00281477
0.00358324
0.00257762
0.00169499
0.000217328
0.000173006
0.000103813
0.000296743
0.00140633
0.00201189
0.00328753
0.0040527
0.00428682
0.00455115
0.00410461
0.0033288
0.00250976
0.00203825
0.0015148
0.00200086
0.00263529
0.00345773
0.00286315
0.001738
0.000852922
0.000570697
0.000295476
0.000582817
0.00130055
0.00216845
0.00289486
0.00359622
0.00411566
0.00401548
0.00382321
0.00307305
0.00241308
0.00202059
0.00163893
0.00185268
0.00227012
0.00320241
0.00269548
0.00196857
0.00117309
0.000707169
0.000517065
0.000698394
0.00116254
0.00188125
0.00241578
0.00326473
0.00345219
0.00345145
0.00326212
0.00269157
0.002324
0.00183528
0.00169502
0.00181909
0.00234411
0.00284137
0.00213513
0.00137753
0.0013012
0.000595031
0.000705116
0.000887057
0.00133419
0.00162975
0.00227376
0.00257243
0.00278174
0.0028013
0.00258234
0.0022494
0.00192682
0.00153244
0.00117057
0.00130841
0.00171727
0.0022528
0.00157137
0.00102291
0.00117981
0.000315927
0.000477246
0.000727659
0.00068905
0.00111602
0.00165123
0.00209704
0.00208861
0.0019921
0.00170886
0.00161399
0.00167231
0.00111858
0.000949982
0.00115671
0.00126205
0.00156461
0.00112824
0.000534956
0.00048198
0.000148019
0.000365212
0.000701694
0.000450892
0.000865851
0.000938435
0.00126611
0.0012523
0.00132004
0.00144793
0.00110419
0.00093253
0.000696497
0.000488394
0.000817548
0.000540754
0.00104649
0.000365931
0.000413789
0.000154594
7.66954e-05
0.000112631
0.000141178
0.000333369
0.000503057
0.000493876
0.000255063
0.000404865
0.000485672
0.000324826
0.000511645
0.000311133
0.000245215
9.923e-05
0.000308749
0.000266188
0.000266815
0.00185699
0.00061666
0.000395899
0.00083126
0.000843804
0.000605373
0.000388678
0.00125972
0.00238135
0.00358936
0.00392417
0.00408371
0.00349578
0.00281931
0.00177658
0.00135944
0.00133065
0.00138323
0.00218487
0.00317953
0.00222568
0.00142866
0.000663833
0.000223801
0.000127322
0.000282419
0.000763655
0.00160351
0.00255054
0.00316381
0.0038763
0.00377903
0.00343521
0.00289633
0.00222248
0.00164329
0.00138487
0.00140542
0.00221026
0.00314688
0.00260216
0.00150556
0.000604912
0.000415435
6.11251e-05
0.000328612
0.00106099
0.00180111
0.00257659
0.00351775
0.0033094
0.00366732
0.00333212
0.00299423
0.00202791
0.00154497
0.00171962
0.00137856
0.00220759
0.00283555
0.00234128
0.00176863
0.000983911
0.000561365
0.000352827
0.00069213
0.00111285
0.00171533
0.00236464
0.00279718
0.00309581
0.00337494
0.00273015
0.0024591
0.00185808
0.00167448
0.00140968
0.00154718
0.00185028
0.00249358
0.00205126
0.00160373
0.000866616
0.000505243
0.000526818
0.000563681
0.000931544
0.00173116
0.00206874
0.00225393
0.00243358
0.0024572
0.00229528
0.00212682
0.00176203
0.00102497
0.00107327
0.00129169
0.00157348
0.00195865
0.00167936
0.00107286
0.000859083
0.000297146
0.000467679
0.000736035
0.00100093
0.00113705
0.00155721
0.00160828
0.00192557
0.00182819
0.0019809
0.00145459
0.00119924
0.000814649
0.000967596
0.000968465
0.00139075
0.00144451
0.000966612
0.000686736
0.000394928
0.00022984
0.000347144
0.000463238
0.000644929
0.000823869
0.000846311
0.000991463
0.00120437
0.001354
0.00130109
0.000970662
0.000832799
0.000331136
0.000701808
0.000614097
0.000657355
0.00106795
0.000399989
0.000164242
0.000161236
0.00022425
6.97786e-06
4.49067e-05
0.000272711
1.86036e-05
0.000641689
0.000431779
0.0005641
0.000349483
0.000376234
0.000458575
0.00030259
2.28794e-05
0.000147572
8.55839e-05
0.000406938
0.000316017
0.00146018
0.000181693
0.000520849
0.00139737
0.00135014
0.000933052
6.78933e-05
0.000578065
0.00181305
0.00249866
0.0030505
0.00294236
0.00263951
0.00198803
0.00137647
0.000562206
0.000418723
0.000865615
0.00126223
0.00244802
0.00209682
0.000962101
0.000129306
0.000553327
0.000657621
0.000227804
0.0004203
0.00118025
0.00215942
0.00257295
0.00316535
0.00299984
0.00290883
0.00204053
0.00157203
0.00107738
0.000723901
0.00080646
0.00161759
0.00242971
0.00204752
0.00127852
0.000372241
3.92645e-05
2.32947e-06
3.00596e-05
0.000671195
0.00125738
0.00189357
0.00266075
0.00297106
0.00300504
0.00265545
0.00215729
0.00154585
0.00121333
0.000943968
0.000945861
0.00127592
0.00221914
0.00198852
0.00119716
0.000552855
0.000296727
1.96847e-05
0.000235098
0.000947667
0.00123671
0.00206306
0.00253753
0.00269924
0.00261096
0.00226326
0.00196299
0.00131631
0.000938837
0.000781627
0.000869903
0.0017017
0.00179748
0.00177929
0.0012717
0.000725197
0.000371774
0.000546625
0.000238785
0.000615178
0.00118792
0.0015259
0.0018988
0.00231001
0.00208164
0.00203134
0.00152067
0.00118513
0.000902592
0.000801566
0.00084
0.00116817
0.00167232
0.0013639
0.00129864
0.000717233
0.000158421
0.000490258
0.000283063
0.000641011
0.00071336
0.00111469
0.00137016
0.00165631
0.00180756
0.00145851
0.00132528
0.000893299
0.000639248
0.000891788
0.000441807
0.000962587
0.00124532
0.000848957
0.000631771
0.000552305
0.000394575
0.000356944
0.000535767
0.00047158
0.000549005
0.000763793
0.000895932
0.00113276
0.00101664
0.000805748
0.000841824
0.000557689
0.000426264
0.000477786
0.000469634
0.000477586
0.000975913
0.00030748
0.00041602
6.33149e-05
0.000168819
0.000125914
9.86099e-05
6.62177e-05
0.000447663
0.000221588
0.000608007
0.000233466
0.000282101
0.000393207
0.000445527
0.000106029
3.20417e-05
0.00011234
0.000184216
0.000222113
0.000111776
0.00078794
0.000464266
0.00152547
0.00194053
0.0022578
0.00155245
0.00111814
0.000208069
0.00087346
0.00132444
0.00177471
0.00198525
0.00145883
0.000676023
0.000199198
0.000412978
0.000680776
0.000282268
0.000202511
0.00125871
0.00127563
5.84684e-05
0.000662522
0.00120984
0.00116959
0.000942568
0.00025872
0.000163767
0.0011979
0.00185595
0.00184623
0.0020418
0.00171099
0.00101515
0.000659256
1.40161e-05
0.000322437
0.000174159
0.000863271
0.00144323
0.00149581
0.000715197
0.000436679
0.000679576
0.000587152
0.000552564
7.79529e-05
0.000836669
0.00123698
0.00185566
0.00198027
0.00194033
0.00180058
0.00123985
0.000623989
0.00043268
0.000191972
0.000427453
0.000702944
0.00160452
0.00161503
0.000890647
0.000172837
5.92249e-05
1.08935e-05
9.44613e-05
0.000125385
0.000761692
0.00141996
0.00169777
0.00179849
0.00185406
0.00166162
0.00124399
0.000873243
0.000712473
0.00030807
0.000482642
0.000876697
0.00136417
0.00127655
0.000842465
0.000595714
0.000101013
8.23121e-05
0.000217181
0.000345276
0.000723773
0.00107121
0.00155377
0.00149736
0.00160093
0.00127925
0.000967597
0.000596325
0.000401574
0.000244457
0.000296828
0.000846763
0.00126241
0.00153269
0.000926474
0.000456775
0.00025542
0.000117925
0.000294656
0.000508374
0.000693104
0.000920593
0.0010264
0.00129085
0.001162
0.00112228
0.000995338
0.000637025
0.000408483
0.000249243
0.000423286
0.000681822
0.00112239
0.000533435
0.000559291
0.000137715
8.83186e-05
3.56792e-05
8.39455e-05
0.00025774
0.000266874
0.000574816
0.000643222
0.000615303
0.000867294
0.000638686
0.000568292
0.000579362
0.000290685
0.000144342
0.000388427
0.000394662
0.00038988
0.000214084
8.95373e-05
0.000110807
1.23554e-06
0.000125166
0.000130188
4.7451e-05
0.000132049
0.00038606
0.000346763
0.000122228
0.000227801
0.0004099
8.15887e-05
0.000196709
0.000173627
5.83423e-05
0.000349066
0.000256336
0.000368587
0.000490941
0.00150022
0.00228424
0.0030104
0.00283607
0.00244107
0.00210674
0.00129824
0.000799962
0.000185498
0.000358348
0.00037731
0.000135154
0.000700057
0.000871835
0.00184483
0.00175712
0.00127826
0.000833457
0.000199992
0.00037435
0.000531881
0.0013215
0.00218024
0.00181626
0.00190342
0.000961386
0.000553626
6.5512e-05
0.000487617
0.000754485
0.000710939
0.00078026
3.77883e-05
0.000530233
0.00121878
0.00125055
0.000862721
0.000582414
0.00059708
0.00104112
3.6787e-05
0.000706441
0.000939151
0.0011466
0.00114285
0.00080982
0.000493581
0.000325077
0.000614706
0.00076233
0.000838703
0.000850149
9.04664e-05
0.000240155
0.000665659
0.00064987
0.000343177
0.000213678
0.000782683
0.00112084
0.000315018
0.000248975
0.000848689
0.000541928
0.000721743
0.000327784
0.000349052
0.000276432
0.000613199
0.000999006
0.00090715
0.000760777
0.00044239
5.05272e-06
0.000324474
0.000292823
0.000395343
0.000288566
0.000477431
0.000963695
0.000544517
5.69598e-06
0.000170376
0.000511024
0.000347078
0.000103927
0.000300496
0.000498662
0.000501189
0.00101285
0.000743066
0.000870808
0.000449018
7.70352e-05
0.000214591
0.000160132
4.63843e-05
0.000439907
0.000637913
0.000633362
0.000382287
0.000129671
4.23748e-05
0.000360396
9.05377e-05
0.000164002
0.000265179
0.000395425
0.00080598
0.000525252
0.000696387
0.000515308
0.00044732
9.95238e-05
0.000128858
0.000217264
2.49721e-05
0.0001658
0.000459233
0.000383172
0.000280175
9.04456e-06
0.000195991
0.000134978
0.000176393
0.000213383
0.000140888
4.71068e-05
0.000493745
0.000624755
0.000437815
0.000262908
0.000123613
0.00020326
0.000107964
0.000101209
3.29689e-06
0.000267136
0.000314041
0.000245941
1.45246e-05
3.25476e-06
6.33185e-05
0.000118553
0.000142806
1.19085e-05
6.8778e-05
0.000158566
4.55318e-05
2.44717e-05
0.000154147
0.000255043