/*--------------------------------*- C++ -*----------------------------------*\
| =========                 |                                                 |
| \\      /  F ield         | OpenFOAM: The Open Source CFD Toolbox           |
|  \\    /   O peration     | Version:  2212                                  |
|   \\  /    A nd           | Website:  www.openfoam.com                      |
|    \\/     M anipulation  |                                                 |
\*---------------------------------------------------------------------------*/
FoamFile
{
    version     2.0;
    format      ascii;
    arch        "LSB;label=32;scalar=64";
    class       volScalarField;
    location    "0";
    object      stateMean;
}
// * * * * * * * * * * * * * * * * * * * * * * * * * * * * * * * * * * * * * //

dimensions      [0 0 0 1 0 0 0];

internalField   nonuniform List<scalar> 
3200
(
319.412
319.08
318.843
319.015
319.308
319.709
320.238
320.627
321.074
321.36
321.497
321.452
321.236
320.902
320.476
320.075
319.731
319.722
319.818
320.171
317.035
316.786
316.585
316.622
316.892
317.29
317.673
318.107
318.422
318.7
318.838
318.722
318.562
318.301
317.851
317.563
317.286
317.247
317.245
317.579
314.526
314.356
314.285
314.248
314.473
314.732
315.117
315.441
315.738
315.975
316.096
316.052
315.825
315.624
315.269
314.981
314.703
314.701
314.742
315.02
312.117
311.87
311.674
311.762
311.969
312.239
312.404
312.767
313.031
313.139
313.221
313.226
313.007
312.814
312.616
312.368
312.165
312.039
312.149
312.283
309.471
309.223
309.206
309.155
309.395
309.513
309.707
309.95
310.141
310.276
310.354
310.345
310.251
309.988
309.8
309.626
309.458
309.416
309.597
309.633
306.733
306.69
306.527
306.518
306.699
306.798
307.038
307.144
307.332
307.37
307.363
307.421
307.364
307.252
307.051
306.849
306.801
306.785
306.88
306.83
304.072
304.065
303.987
303.933
304.013
304.173
304.172
304.332
304.368
304.431
304.428
304.504
304.399
304.325
304.304
304.215
304.085
304.088
304.1
304.125
301.392
301.374
301.366
301.351
301.317
301.395
301.444
301.426
301.499
301.454
301.481
301.501
301.407
301.475
301.465
301.463
301.38
301.35
301.347
301.332
319.446
319.161
318.914
319.056
319.386
319.861
320.338
320.848
321.262
321.58
321.764
321.687
321.522
321.173
320.7
320.314
319.91
319.749
319.96
320.252
317.136
316.796
316.676
316.737
317.026
317.365
317.865
318.295
318.664
318.957
319.03
319.036
318.764
318.498
318.061
317.674
317.379
317.31
317.43
317.649
314.64
314.47
314.187
314.272
314.579
314.909
315.339
315.568
315.954
316.14
316.279
316.242
316.091
315.853
315.447
315.043
314.825
314.67
314.813
315.037
312.05
311.925
311.759
311.853
312.063
312.299
312.592
312.83
313.067
313.326
313.417
313.33
313.156
312.956
312.69
312.437
312.227
312.155
312.22
312.351
309.503
309.357
309.174
309.285
309.438
309.549
309.874
310.072
310.298
310.381
310.454
310.428
310.313
310.137
309.984
309.752
309.492
309.534
309.593
309.646
306.816
306.67
306.565
306.728
306.776
306.907
307.098
307.287
307.333
307.388
307.547
307.488
307.395
307.309
307.154
306.96
306.89
306.771
306.862
306.941
304.097
304.034
303.954
304.005
304.044
304.162
304.272
304.356
304.442
304.482
304.467
304.487
304.413
304.403
304.247
304.198
304.094
304.122
304.118
304.188
301.29
301.319
301.353
301.29
301.364
301.371
301.379
301.443
301.568
301.504
301.489
301.492
301.455
301.52
301.448
301.373
301.355
301.379
301.421
301.463
319.632
319.243
319.135
319.256
319.614
320.089
320.728
321.256
321.689
321.961
322.186
322.183
321.862
321.489
320.957
320.524
320.153
319.928
320.094
320.296
317.234
316.961
316.788
316.945
317.204
317.675
318.057
318.543
318.978
319.317
319.42
319.347
319.156
318.665
318.334
317.923
317.553
317.417
317.473
317.762
314.715
314.475
314.361
314.484
314.715
315.061
315.462
315.815
316.159
316.463
316.538
316.509
316.27
315.9
315.671
315.227
314.967
314.908
314.969
315.173
312.211
312.037
311.85
311.96
312.163
312.424
312.803
313.008
313.247
313.554
313.591
313.582
313.397
313.226
312.907
312.578
312.439
312.251
312.235
312.469
309.534
309.354
309.295
309.387
309.523
309.658
309.993
310.178
310.332
310.578
310.659
310.627
310.468
310.333
310.038
309.756
309.671
309.496
309.607
309.723
306.877
306.79
306.745
306.662
306.786
306.983
307.199
307.333
307.532
307.659
307.7
307.698
307.552
307.35
307.195
307.039
306.971
306.874
306.96
307.005
304.109
304.04
304.069
303.998
304.135
304.16
304.327
304.484
304.532
304.578
304.611
304.576
304.564
304.486
304.349
304.19
304.168
304.189
304.155
304.202
301.452
301.362
301.409
301.325
301.368
301.395
301.427
301.458
301.573
301.494
301.623
301.493
301.446
301.556
301.503
301.408
301.326
301.4
301.429
301.496
319.916
319.6
319.381
319.567
319.945
320.391
320.974
321.701
322.126
322.559
322.667
322.586
322.363
321.887
321.352
320.861
320.461
320.223
320.322
320.578
317.454
317.18
317.01
317.148
317.443
317.964
318.405
319.034
319.351
319.742
319.798
319.736
319.462
319.14
318.698
318.204
317.887
317.719
317.77
318.014
314.923
314.676
314.619
314.659
314.923
315.369
315.805
316.107
316.418
316.763
316.9
316.796
316.623
316.304
315.879
315.537
315.211
315.115
315.148
315.307
312.361
312.115
312.028
312.169
312.422
312.641
312.889
313.304
313.629
313.867
313.88
313.891
313.648
313.488
313.157
312.835
312.556
312.502
312.385
312.572
309.639
309.49
309.436
309.484
309.704
309.876
310.106
310.38
310.682
310.804
310.879
310.788
310.647
310.447
310.253
310.042
309.88
309.61
309.77
309.834
306.856
306.797
306.81
306.775
306.965
307.174
307.286
307.471
307.688
307.783
307.785
307.73
307.694
307.419
307.335
307.197
306.981
306.965
307.003
307.011
304.189
304.044
304.087
304.083
304.15
304.139
304.42
304.5
304.562
304.707
304.706
304.642
304.62
304.501
304.493
304.304
304.204
304.122
304.141
304.262
301.384
301.386
301.384
301.417
301.412
301.466
301.486
301.472
301.551
301.567
301.537
301.559
301.463
301.499
301.492
301.495
301.402
301.429
301.529
301.398
320.165
319.885
319.749
319.978
320.31
320.861
321.473
322.056
322.586
323.011
323.223
323.218
322.869
322.382
321.81
321.345
320.864
320.737
320.645
320.92
317.737
317.447
317.429
317.546
317.824
318.279
318.801
319.36
319.725
320.067
320.244
320.231
319.939
319.629
319.071
318.618
318.297
318.085
318.135
318.292
315.204
314.952
314.811
314.956
315.265
315.654
316.032
316.54
316.968
317.158
317.266
317.228
316.962
316.597
316.254
315.721
315.529
315.447
315.426
315.497
312.489
312.42
312.296
312.284
312.568
312.904
313.14
313.543
313.963
314.186
314.229
314.123
314.03
313.733
313.354
313.06
312.69
312.679
312.699
312.814
309.925
309.625
309.641
309.716
309.816
310.035
310.348
310.672
310.932
311.085
311.047
311.059
310.88
310.723
310.455
310.267
310.01
309.889
309.909
310.042
307.048
306.932
306.836
306.91
307.077
307.251
307.405
307.586
307.726
307.929
308.039
307.936
307.871
307.718
307.561
307.353
307.21
307.091
307.1
307.182
304.224
304.224
304.179
304.221
304.258
304.379
304.441
304.553
304.728
304.765
304.791
304.805
304.691
304.558
304.499
304.354
304.221
304.292
304.199
304.316
301.431
301.424
301.466
301.408
301.392
301.519
301.506
301.496
301.611
301.683
301.655
301.623
301.544
301.574
301.45
301.463
301.42
301.464
301.459
301.453
320.633
320.318
320.215
320.373
320.756
321.341
321.968
322.523
323.132
323.626
323.788
323.759
323.44
322.909
322.334
321.827
321.293
321.128
321.081
321.26
318.156
317.87
317.776
317.856
318.236
318.606
319.275
319.745
320.233
320.598
320.826
320.791
320.482
319.961
319.476
318.967
318.651
318.496
318.45
318.634
315.423
315.28
315.203
315.316
315.514
315.947
316.347
316.918
317.24
317.575
317.688
317.664
317.437
317.118
316.635
316.233
315.831
315.707
315.649
315.984
312.823
312.613
312.559
312.568
312.866
313.106
313.536
313.856
314.235
314.407
314.63
314.535
314.346
314.032
313.676
313.272
313.097
313.004
312.897
313.06
309.978
309.83
309.835
309.882
309.98
310.28
310.6
310.858
311.108
311.317
311.372
311.423
311.187
310.934
310.706
310.404
310.258
310.129
310.058
310.285
307.214
307.137
307.093
307.094
307.211
307.423
307.653
307.735
307.976
308.065
308.19
308.168
308.033
307.855
307.668
307.476
307.305
307.248
307.272
307.289
304.294
304.247
304.301
304.312
304.337
304.375
304.532
304.675
304.83
304.88
304.921
304.95
304.825
304.765
304.647
304.501
304.41
304.334
304.345
304.372
301.547
301.456
301.489
301.441
301.44
301.479
301.583
301.565
301.61
301.69
301.658
301.699
301.577
301.603
301.592
301.508
301.52
301.424
301.454
301.479
321.081
320.812
320.68
320.933
321.313
321.841
322.425
323.032
323.653
324.146
324.396
324.302
324.01
323.398
322.807
322.22
321.832
321.599
321.569
321.76
318.492
318.33
318.233
318.381
318.651
319.059
319.66
320.222
320.852
321.195
321.275
321.323
320.986
320.479
319.966
319.492
319.077
318.863
318.839
319.052
315.837
315.632
315.557
315.664
316.003
316.431
316.768
317.261
317.629
317.866
318.133
318.067
317.79
317.507
317.05
316.591
316.298
316.1
316.074
316.208
313.027
312.966
312.923
312.879
313.222
313.435
313.783
314.229
314.532
314.885
314.95
314.932
314.647
314.448
314.018
313.64
313.38
313.273
313.22
313.316
310.157
310.084
310.074
310.124
310.317
310.592
310.833
311.11
311.424
311.513
311.642
311.654
311.449
311.161
310.973
310.664
310.449
310.374
310.387
310.417
307.336
307.272
307.304
307.213
307.333
307.55
307.799
307.983
308.167
308.311
308.381
308.334
308.198
308.125
307.833
307.614
307.494
307.342
307.375
307.486
304.415
304.376
304.346
304.383
304.486
304.527
304.647
304.761
304.933
304.976
305.082
304.975
304.966
304.812
304.718
304.551
304.528
304.566
304.464
304.528
301.509
301.454
301.48
301.446
301.488
301.469
301.553
301.502
301.667
301.704
301.717
301.696
301.724
301.599
301.639
301.554
301.552
301.511
301.511
301.517
321.711
321.344
321.272
321.492
321.902
322.389
322.973
323.587
324.267
324.696
324.938
324.795
324.559
324.036
323.446
322.879
322.411
322.108
322.067
322.253
319.025
318.761
318.709
318.855
319.132
319.621
320.123
320.673
321.223
321.534
321.737
321.722
321.434
320.964
320.403
319.965
319.592
319.363
319.367
319.441
316.282
316.049
315.933
316.094
316.435
316.771
317.17
317.631
318.006
318.427
318.62
318.451
318.337
317.859
317.435
316.959
316.638
316.432
316.489
316.498
313.309
313.288
313.192
313.29
313.502
313.852
314.119
314.509
314.992
315.124
315.231
315.215
315.007
314.748
314.311
314.047
313.69
313.524
313.507
313.589
310.406
310.414
310.39
310.495
310.579
310.78
311.128
311.333
311.633
311.846
311.97
311.918
311.735
311.54
311.202
310.932
310.732
310.633
310.587
310.616
307.565
307.481
307.406
307.453
307.59
307.699
307.914
308.131
308.344
308.481
308.515
308.586
308.422
308.28
308.064
307.843
307.698
307.612
307.629
307.654
304.527
304.538
304.448
304.473
304.669
304.686
304.774
304.86
305.065
305.12
305.27
305.189
305.041
305.004
304.868
304.669
304.628
304.55
304.525
304.541
301.481
301.565
301.467
301.535
301.565
301.578
301.597
301.6
301.669
301.751
301.777
301.684
301.745
301.621
301.577
301.588
301.534
301.587
301.52
301.593
322.198
321.899
321.982
321.979
322.428
322.931
323.458
324.079
324.73
325.237
325.532
325.428
325.134
324.516
323.961
323.391
322.931
322.749
322.674
322.727
319.479
319.237
319.189
319.32
319.587
320.034
320.671
321.082
321.659
322.055
322.308
322.193
321.978
321.464
320.93
320.374
320.035
319.828
319.752
319.93
316.6
316.443
316.371
316.533
316.763
317.157
317.523
318.05
318.46
318.745
318.891
318.93
318.69
318.329
317.844
317.479
317.129
316.909
316.907
316.969
313.738
313.59
313.556
313.658
313.879
314.184
314.441
314.785
315.171
315.436
315.658
315.651
315.392
315.014
314.63
314.313
314.086
313.922
313.811
313.93
310.753
310.669
310.57
310.664
310.788
310.951
311.383
311.613
311.86
312.079
312.183
312.145
311.997
311.732
311.406
311.22
310.943
310.876
310.87
310.906
307.755
307.672
307.669
307.733
307.818
307.935
308.17
308.362
308.553
308.665
308.71
308.722
308.54
308.456
308.148
308.078
307.813
307.782
307.771
307.861
304.701
304.589
304.539
304.606
304.694
304.767
304.87
305.102
305.112
305.196
305.254
305.159
305.235
305.123
304.972
304.837
304.739
304.659
304.7
304.691
301.514
301.608
301.47
301.475
301.655
301.651
301.673
301.75
301.789
301.795
301.715
301.805
301.719
301.707
301.663
301.641
301.616
301.599
301.625
301.684
322.761
322.56
322.48
322.585
322.972
323.525
324.009
324.704
325.207
325.67
325.991
325.902
325.567
325.091
324.386
323.991
323.48
323.22
323.102
323.238
320
319.802
319.668
319.933
320.172
320.567
321.083
321.612
322.066
322.466
322.687
322.648
322.315
321.89
321.36
320.876
320.5
320.273
320.247
320.304
317.05
316.881
316.888
316.902
317.246
317.488
317.964
318.454
318.858
319.188
319.404
319.319
319.043
318.626
318.179
317.796
317.541
317.238
317.325
317.283
314.071
313.931
313.977
313.927
314.089
314.427
314.75
315.173
315.394
315.741
315.855
315.853
315.593
315.364
314.927
314.672
314.364
314.102
314.289
314.301
311.057
310.921
310.941
310.987
311.143
311.308
311.64
311.918
312.119
312.298
312.363
312.338
312.303
312.006
311.673
311.497
311.197
311.159
311.148
311.087
307.978
307.909
307.802
307.873
308.023
308.109
308.309
308.493
308.663
308.883
308.883
308.868
308.782
308.632
308.374
308.249
308.057
307.935
307.968
307.981
304.773
304.783
304.721
304.789
304.8
304.947
305.05
305.113
305.246
305.331
305.381
305.316
305.196
305.165
305.059
304.967
304.779
304.757
304.784
304.823
301.563
301.594
301.565
301.595
301.595
301.621
301.766
301.675
301.776
301.866
301.775
301.752
301.84
301.735
301.635
301.642
301.632
301.612
301.568
301.637
323.349
323.199
323.028
323.242
323.571
323.974
324.601
325.199
325.694
326.249
326.305
326.337
325.981
325.561
324.964
324.471
324.055
323.796
323.714
323.824
320.489
320.287
320.238
320.327
320.607
321.026
321.469
321.949
322.577
322.854
323.12
323.04
322.792
322.278
321.79
321.35
320.95
320.757
320.706
320.797
317.543
317.338
317.368
317.458
317.618
317.941
318.365
318.831
319.186
319.495
319.722
319.638
319.318
318.952
318.599
318.199
317.823
317.728
317.656
317.682
314.424
314.293
314.409
314.304
314.522
314.776
315.179
315.521
315.819
316.041
316.209
316.172
315.985
315.634
315.309
314.987
314.709
314.581
314.57
314.679
311.326
311.221
311.177
311.205
311.392
311.615
311.81
312.141
312.357
312.531
312.623
312.55
312.393
312.229
311.971
311.68
311.422
311.394
311.285
311.397
308.153
308.027
307.976
308.02
308.221
308.354
308.466
308.652
308.853
308.945
309.015
309.032
308.94
308.746
308.579
308.282
308.201
308.135
308.234
308.1
304.896
304.832
304.871
304.923
304.902
305.05
305.07
305.251
305.365
305.404
305.431
305.485
305.316
305.282
305.14
305.1
305.04
304.987
304.902
304.948
301.676
301.629
301.637
301.647
301.639
301.672
301.698
301.721
301.768
301.799
301.791
301.805
301.817
301.854
301.71
301.665
301.647
301.576
301.666
301.662
323.879
323.768
323.669
323.754
324.138
324.522
325.043
325.62
326.194
326.624
326.698
326.727
326.414
325.943
325.46
324.866
324.538
324.35
324.328
324.341
320.987
320.904
320.682
320.931
321.103
321.477
322.052
322.426
322.963
323.276
323.351
323.37
323.1
322.671
322.189
321.791
321.361
321.253
321.205
321.269
318.02
317.828
317.759
317.892
318.026
318.325
318.738
319.166
319.504
319.784
319.949
319.861
319.693
319.302
318.908
318.574
318.232
318.076
317.997
318.128
314.883
314.788
314.711
314.746
314.868
315.095
315.392
315.743
315.999
316.312
316.371
316.325
316.178
315.874
315.607
315.283
315.057
314.914
314.906
314.929
311.606
311.472
311.583
311.504
311.68
311.868
312.126
312.314
312.583
312.711
312.777
312.748
312.611
312.411
312.192
311.937
311.683
311.585
311.578
311.642
308.315
308.218
308.361
308.197
308.347
308.519
308.591
308.791
309.005
309.168
309.165
309.111
308.974
308.877
308.811
308.545
308.393
308.354
308.292
308.313
305.052
304.915
304.956
304.915
305.041
305.201
305.175
305.342
305.394
305.509
305.505
305.511
305.52
305.374
305.271
305.142
305.019
305.058
304.917
305.027
301.689
301.718
301.66
301.656
301.687
301.715
301.79
301.855
301.862
301.795
301.84
301.86
301.801
301.843
301.766
301.727
301.663
301.706
301.673
301.659
324.501
324.319
324.259
324.397
324.668
325.002
325.553
326.023
326.52
326.981
327.091
327.074
326.751
326.344
325.777
325.384
325.099
324.836
324.827
324.93
321.499
321.429
321.414
321.372
321.641
321.996
322.349
322.78
323.199
323.456
323.686
323.595
323.37
323.036
322.62
322.211
321.889
321.652
321.679
321.794
318.467
318.271
318.181
318.326
318.414
318.689
319.089
319.461
319.805
320.155
320.089
320.153
319.95
319.705
319.23
318.887
318.741
318.427
318.495
318.541
315.206
315.15
315.063
315.097
315.196
315.458
315.728
316.029
316.313
316.49
316.584
316.632
316.349
316.153
315.826
315.613
315.364
315.24
315.176
315.254
311.919
311.873
311.768
311.785
311.92
312.053
312.274
312.61
312.777
312.867
312.923
312.898
312.786
312.647
312.427
312.076
311.962
311.9
311.864
311.89
308.59
308.47
308.493
308.413
308.556
308.725
308.883
308.987
309.161
309.199
309.297
309.244
309.247
309.023
308.868
308.663
308.619
308.527
308.568
308.518
305.149
305.103
305.066
305.072
305.163
305.25
305.352
305.443
305.476
305.535
305.6
305.631
305.589
305.451
305.363
305.158
305.216
305.133
305.094
305.18
301.749
301.691
301.708
301.746
301.694
301.727
301.811
301.747
301.944
301.885
301.925
301.855
301.855
301.867
301.804
301.689
301.723
301.685
301.764
301.723
325.16
324.947
324.966
324.937
325.202
325.571
326.059
326.436
326.957
327.241
327.421
327.325
327.108
326.729
326.324
325.825
325.528
325.416
325.298
325.481
322.142
321.948
321.81
321.896
322.079
322.42
322.807
323.197
323.614
323.801
323.992
323.886
323.755
323.329
323
322.638
322.307
322.112
322.159
322.249
318.871
318.768
318.66
318.715
318.913
319.093
319.448
319.758
320.047
320.337
320.436
320.402
320.204
319.923
319.576
319.299
319.029
318.842
318.767
318.925
315.571
315.436
315.38
315.453
315.515
315.724
316.072
316.264
316.595
316.782
316.833
316.768
316.588
316.393
316.065
315.805
315.605
315.48
315.595
315.511
312.204
312.133
312.077
312.086
312.258
312.271
312.484
312.741
312.902
313.046
313.175
313.075
313.005
312.767
312.566
312.369
312.22
312.113
312.101
312.17
308.758
308.799
308.701
308.614
308.8
308.814
308.994
309.071
309.234
309.333
309.422
309.448
309.301
309.205
309.003
308.846
308.84
308.616
308.696
308.721
305.272
305.243
305.267
305.27
305.309
305.411
305.432
305.489
305.578
305.631
305.703
305.655
305.567
305.545
305.417
305.33
305.296
305.241
305.196
305.311
301.774
301.819
301.729
301.778
301.706
301.729
301.793
301.919
301.859
301.979
301.866
301.877
301.903
301.907
301.791
301.734
301.761
301.766
301.76
301.715
325.797
325.576
325.456
325.554
325.678
326.119
326.445
326.892
327.35
327.552
327.7
327.713
327.437
327.031
326.691
326.28
325.965
325.861
325.793
325.95
322.621
322.386
322.349
322.376
322.585
322.841
323.222
323.488
323.914
324.174
324.17
324.187
323.988
323.634
323.359
322.958
322.662
322.507
322.645
322.675
319.325
319.207
319.005
319.098
319.294
319.46
319.748
320.15
320.355
320.593
320.633
320.58
320.458
320.169
319.836
319.62
319.376
319.28
319.203
319.36
315.969
315.846
315.755
315.821
315.974
316.074
316.255
316.545
316.816
316.937
316.969
316.954
316.83
316.608
316.38
316.202
315.937
315.852
315.842
315.89
312.449
312.395
312.422
312.313
312.425
312.618
312.744
312.932
313.09
313.266
313.248
313.256
313.106
312.939
312.736
312.576
312.421
312.329
312.396
312.445
309.097
308.967
308.897
308.913
308.874
309.071
309.199
309.306
309.412
309.462
309.544
309.486
309.439
309.35
309.177
309.036
308.911
308.887
308.891
308.97
305.348
305.39
305.306
305.338
305.367
305.425
305.515
305.548
305.663
305.695
305.686
305.752
305.661
305.61
305.576
305.445
305.355
305.383
305.339
305.304
301.804
301.777
301.798
301.781
301.758
301.85
301.837
301.873
301.957
301.949
301.807
301.909
301.957
301.848
301.87
301.848
301.799
301.87
301.827
301.85
326.299
326.14
326.091
326.066
326.329
326.649
326.924
327.322
327.579
327.95
328.006
327.965
327.791
327.385
327.163
326.653
326.476
326.42
326.358
326.524
323.128
322.98
322.904
322.811
323.107
323.244
323.693
323.94
324.179
324.4
324.487
324.43
324.372
323.992
323.688
323.3
323.111
323.052
322.964
323.2
319.856
319.632
319.569
319.651
319.735
319.876
320.105
320.304
320.635
320.763
320.81
320.8
320.734
320.393
320.165
319.889
319.743
319.685
319.576
319.773
316.367
316.21
316.154
316.093
316.313
316.371
316.595
316.891
316.924
317.059
317.182
317.123
317.021
316.839
316.602
316.382
316.268
316.108
316.201
316.164
312.782
312.726
312.653
312.698
312.687
312.827
312.981
313.17
313.276
313.3
313.46
313.353
313.349
313.155
312.96
312.78
312.701
312.666
312.693
312.68
309.128
309.103
309.093
309.137
309.082
309.284
309.261
309.439
309.51
309.653
309.567
309.603
309.516
309.45
309.287
309.153
309.057
309.061
309.036
309.074
305.487
305.488
305.44
305.425
305.486
305.619
305.663
305.668
305.63
305.805
305.845
305.778
305.705
305.636
305.627
305.494
305.454
305.444
305.484
305.466
301.875
301.807
301.824
301.821
301.889
301.823
301.881
301.865
301.941
301.91
301.889
301.94
301.963
301.978
301.876
301.847
301.837
301.83
301.885
301.886
327.035
326.763
326.676
326.745
326.847
327.078
327.353
327.65
328.049
328.171
328.232
328.236
328.035
327.787
327.454
327.177
326.968
326.837
326.949
327.052
323.666
323.452
323.474
323.461
323.501
323.793
323.947
324.284
324.477
324.742
324.731
324.711
324.554
324.223
324.035
323.733
323.61
323.489
323.489
323.664
320.273
320.182
320.036
320.033
320.189
320.3
320.445
320.69
320.93
321.04
320.978
320.983
320.94
320.746
320.479
320.256
320.077
319.996
320.006
320.219
316.7
316.553
316.507
316.506
316.582
316.653
316.889
317.121
317.222
317.327
317.235
317.319
317.161
317.04
316.839
316.695
316.508
316.451
316.457
316.647
313.124
312.958
312.936
312.97
312.972
313.065
313.191
313.313
313.483
313.578
313.55
313.493
313.456
313.309
313.243
313.101
312.906
312.859
312.895
312.997
309.408
309.338
309.265
309.369
309.29
309.388
309.451
309.593
309.662
309.684
309.72
309.7
309.652
309.519
309.507
309.363
309.236
309.258
309.142
309.235
305.628
305.677
305.701
305.547
305.64
305.653
305.74
305.781
305.818
305.818
305.868
305.879
305.834
305.8
305.692
305.622
305.65
305.505
305.545
305.616
301.826
301.925
301.793
301.905
301.898
301.926
301.99
301.963
301.96
301.943
302.006
301.958
301.941
301.884
301.837
301.896
301.852
301.855
301.954
301.863
327.62
327.444
327.259
327.268
327.355
327.564
327.823
328.035
328.335
328.482
328.612
328.519
328.32
328.117
327.887
327.622
327.536
327.342
327.347
327.585
324.192
324.022
323.962
323.853
324.011
324.134
324.364
324.506
324.825
324.974
325.032
324.884
324.817
324.597
324.324
324.15
323.993
323.904
323.968
324.117
320.716
320.555
320.423
320.352
320.536
320.62
320.804
320.979
321.087
321.269
321.306
321.242
321.197
320.962
320.737
320.547
320.415
320.298
320.482
320.458
317.136
316.98
316.836
316.905
316.875
316.963
317.147
317.259
317.392
317.546
317.554
317.537
317.47
317.271
317.069
316.985
316.892
316.797
316.775
316.869
313.306
313.316
313.168
313.173
313.299
313.271
313.438
313.594
313.613
313.689
313.735
313.698
313.659
313.457
313.408
313.154
313.192
313.128
313.116
313.201
309.649
309.593
309.472
309.42
309.473
309.545
309.683
309.804
309.719
309.824
309.752
309.818
309.767
309.717
309.633
309.484
309.477
309.441
309.346
309.464
305.801
305.747
305.66
305.711
305.719
305.717
305.791
305.889
305.928
305.898
305.917
305.95
305.821
305.808
305.73
305.823
305.651
305.731
305.641
305.704
301.967
301.938
301.95
301.901
301.9
301.878
301.904
301.981
301.975
301.975
301.992
302.013
301.917
301.941
301.929
301.942
301.952
301.86
301.864
301.856
328.137
327.941
327.758
327.744
327.861
328
328.243
328.471
328.627
328.788
328.848
328.923
328.688
328.489
328.261
327.959
327.915
327.876
327.916
328.08
324.684
324.524
324.393
324.354
324.424
324.571
324.698
324.838
325.147
325.129
325.19
325.228
325.09
324.921
324.651
324.562
324.333
324.25
324.369
324.574
321.167
320.921
320.825
320.791
320.818
320.942
321.115
321.284
321.402
321.473
321.55
321.477
321.321
321.269
320.987
320.833
320.72
320.692
320.669
320.887
317.392
317.322
317.133
317.179
317.132
317.275
317.376
317.461
317.638
317.705
317.702
317.676
317.619
317.461
317.349
317.293
317.017
317.003
317.082
317.162
313.59
313.482
313.443
313.391
313.464
313.547
313.636
313.632
313.743
313.846
313.81
313.792
313.854
313.654
313.495
313.396
313.351
313.347
313.263
313.384
309.836
309.712
309.639
309.654
309.594
309.637
309.726
309.805
309.863
309.927
309.935
309.889
309.915
309.723
309.747
309.609
309.597
309.516
309.639
309.58
305.91
305.875
305.816
305.821
305.783
305.834
305.926
305.918
305.928
305.903
306.046
305.95
305.909
305.893
305.854
305.852
305.796
305.797
305.788
305.74
302.029
302.013
301.974
302.038
301.918
301.958
301.928
302.025
302.053
301.976
301.989
301.947
302.059
301.938
301.983
302.006
301.979
301.991
301.919
301.977
328.557
328.38
328.152
328.197
328.197
328.369
328.531
328.748
328.886
329.049
329.077
329.065
328.886
328.761
328.493
328.372
328.137
328.189
328.26
328.48
325.032
324.813
324.689
324.721
324.755
324.825
325.012
325.201
325.289
325.425
325.334
325.423
325.337
325.16
324.978
324.791
324.652
324.604
324.675
324.917
321.433
321.219
321.077
321.032
321.082
321.186
321.336
321.462
321.537
321.676
321.739
321.667
321.525
321.388
321.263
321.099
320.966
320.997
321.032
321.123
317.635
317.538
317.392
317.329
317.342
317.502
317.575
317.655
317.763
317.884
317.829
317.822
317.729
317.572
317.511
317.35
317.236
317.245
317.269
317.447
313.846
313.681
313.613
313.512
313.535
313.699
313.767
313.809
313.911
313.966
313.981
313.901
313.789
313.751
313.615
313.535
313.5
313.452
313.517
313.545
309.974
309.858
309.791
309.725
309.738
309.829
309.826
310.016
309.978
310.052
309.927
309.919
309.905
309.834
309.866
309.736
309.644
309.68
309.715
309.74
305.932
305.841
305.857
305.894
305.841
305.927
305.974
305.903
306.046
305.953
305.98
306.056
305.991
305.947
305.895
305.791
305.879
305.851
305.896
305.878
302.07
301.978
302.008
301.876
302.003
301.942
301.901
301.988
301.999
302.091
301.999
302.002
301.985
302.071
301.879
301.929
301.894
301.97
301.966
301.954
)
;

boundaryField
{
    hotSide
    {
        type            fixedGradient;
        gradient        nonuniform List<scalar> 
400
(
321.511
322.87
325.591
329.677
335.133
341.965
350.181
359.788
370.794
383.208
397.037
412.289
428.971
447.088
466.647
487.651
510.105
534.011
559.372
586.191
323.738
325.08
327.767
331.802
337.194
343.949
352.078
361.591
372.498
384.81
398.537
413.687
430.268
448.289
467.755
488.672
511.043
534.872
560.161
586.913
326.149
327.47
330.116
334.091
339.406
346.071
354.099
363.503
374.296
386.491
400.101
415.136
431.606
449.52
468.885
489.706
511.988
535.735
560.948
587.63
328.704
330
332.597
336.503
341.73
348.292
356.205
365.485
376.15
388.215
401.695
416.604
432.954
450.753
470.009
490.73
512.919
536.579
561.714
588.325
331.33
332.599
335.142
338.97
344.099
350.546
358.332
367.477
378.003
389.928
403.271
418.047
434.27
451.949
471.095
491.712
513.807
537.382
562.439
588.978
333.918
335.158
337.643
341.389
346.414
352.74
360.392
369.397
379.779
391.562
404.765
419.407
435.503
453.065
472.101
492.618
514.622
538.114
563.096
589.569
336.321
337.531
339.959
343.622
348.544
354.751
362.274
371.142
381.385
393.031
406.101
420.618
436.595
454.047
472.983
493.409
515.33
538.747
563.663
590.076
338.36
339.543
341.92
345.509
350.339
356.44
363.847
372.595
382.718
394.244
407.2
421.608
437.485
454.844
473.695
494.045
515.897
539.253
564.114
590.478
339.852
341.015
343.352
346.885
351.645
357.665
364.985
373.643
383.675
395.113
407.984
422.312
438.116
455.407
474.197
494.491
516.294
539.606
564.428
590.758
340.643
341.795
344.11
347.613
352.334
358.311
365.584
374.193
384.176
395.567
408.393
422.679
438.443
455.699
474.456
494.722
516.498
539.788
564.589
590.901
340.643
341.795
344.11
347.613
352.334
358.311
365.584
374.193
384.176
395.567
408.393
422.679
438.443
455.699
474.456
494.722
516.498
539.788
564.589
590.901
339.852
341.015
343.352
346.885
351.645
357.665
364.985
373.643
383.675
395.113
407.984
422.312
438.116
455.407
474.197
494.491
516.294
539.606
564.428
590.758
338.36
339.543
341.92
345.509
350.339
356.44
363.847
372.595
382.718
394.244
407.2
421.608
437.485
454.844
473.695
494.045
515.897
539.253
564.114
590.478
336.321
337.531
339.959
343.622
348.544
354.751
362.274
371.142
381.385
393.031
406.101
420.618
436.595
454.047
472.983
493.409
515.33
538.747
563.663
590.076
333.918
335.158
337.643
341.389
346.414
352.74
360.392
369.397
379.779
391.562
404.765
419.407
435.503
453.065
472.101
492.618
514.622
538.114
563.096
589.569
331.33
332.599
335.142
338.97
344.099
350.546
358.332
367.477
378.003
389.928
403.271
418.047
434.27
451.949
471.095
491.712
513.807
537.382
562.439
588.978
328.704
330
332.597
336.503
341.73
348.292
356.205
365.485
376.15
388.215
401.695
416.604
432.954
450.753
470.009
490.73
512.919
536.579
561.714
588.325
326.149
327.47
330.116
334.091
339.406
346.071
354.099
363.503
374.296
386.491
400.101
415.136
431.606
449.52
468.885
489.706
511.988
535.735
560.948
587.63
323.738
325.08
327.767
331.802
337.194
343.949
352.078
361.591
372.498
384.81
398.537
413.687
430.268
448.289
467.755
488.672
511.043
534.872
560.161
586.913
321.511
322.87
325.591
329.677
335.133
341.965
350.181
359.788
370.794
383.208
397.037
412.289
428.971
447.088
466.647
487.651
510.105
534.011
559.372
586.191
)
;
    }
    coldSide
    {
        type            mixed;
        refValue        uniform 300;
        refGradient     uniform 0;
        valueFraction   uniform 0.991591;
        source          uniform 0;
        value           nonuniform List<scalar> 
400
(
300.012
300.011
300.012
300.012
300.012
300.013
300.013
300.012
300.013
300.013
300.014
300.014
300.015
300.015
300.015
300.016
300.015
300.017
300.017
300.017
300.012
300.011
300.011
300.012
300.012
300.012
300.012
300.013
300.014
300.013
300.014
300.014
300.014
300.015
300.015
300.015
300.016
300.016
300.017
300.017
300.011
300.011