/*--------------------------------*- C++ -*----------------------------------*\
| =========                 |                                                 |
| \\      /  F ield         | OpenFOAM: The Open Source CFD Toolbox           |
|  \\    /   O peration     | Version:  2212                                  |
|   \\  /    A nd           | Website:  www.openfoam.com                      |
|    \\/     M anipulation  |                                                 |
\*---------------------------------------------------------------------------*/
FoamFile
{
    version     2.0;
    format      ascii;
    arch        "LSB;label=32;scalar=64";
    class       volScalarField;
    location    "./ITHACAoutput/true/2.2";
    object      error;
}
// * * * * * * * * * * * * * * * * * * * * * * * * * * * * * * * * * * * * * //

dimensions      [0 0 0 1 0 0 0];

internalField   nonuniform List<scalar> 
3200
(
-4.97688
-1.65623
0.118438
0.0445831
0.741656
1.17266
2.2733
3.47346
3.93338
3.63372
3.29318
2.40267
2.85319
1.68992
2.30533
0.667569
-1.24069
-0.170627
-1.48526
-2.76783
-6.82368
-2.71218
0.166692
0.28244
1.87299
1.50942
2.14022
3.97232
1.52635
2.47205
2.28099
4.08685
2.37623
2.19181
2.55766
0.0627698
-1.16357
-0.765872
-3.8882
-3.52728
-3.1559
-3.32001
-0.317562
0.523399
1.72522
0.0938624
1.22984
0.842218
4.73189
2.20728
2.27969
1.4315
4.32932
2.16674
0.767366
1.62839
1.1237
-0.60179
-2.14216
-3.21551
-3.78461
-4.26954
0.497488
1.00484
1.91419
1.95191
1.74798
-0.314489
-0.462721
1.12938
3.02781
1.44168
-0.875705
1.41728
0.96362
3.9889
0.923838
-1.20415
-1.05051
-1.58509
-0.952795
-0.840656
0.18334
1.49412
-0.328095
1.6858
0.414322
4.06658
2.18365
4.07759
0.241104
0.985507
0.745156
-0.162804
-0.649842
1.61457
-0.46555
-0.278269
0.104628
-1.25179
-1.10842
-2.20305
1.04193
-1.24918
-0.349905
0.301896
2.19922
0.636268
0.960986
0.394357
-0.49084
1.08621
1.96883
0.624784
-0.332281
1.4188
-1.6655
0.977601
0.355704
-1.79027
-0.158153
0.319666
-1.08161
-0.136138
0.445858
-0.974021
0.120849
0.109621
2.90978
2.20349
2.00382
3.83884
1.60181
0.119644
-1.4073
1.03094
1.14716
-0.935341
0.0133029
-2.48701
-0.987232
0.397336
-0.15652
-1.1816
0.285821
-0.376443
0.718501
-0.0930832
-0.895199
1.82758
-0.979778
-0.478923
0.0597759
0.583751
0.166091
0.427063
0.440353
1.7824
-0.67256
-3.11573
-5.85073
-1.95355
-1.40333
1.44987
1.88854
2.66235
1.58941
2.8156
5.02949
3.6657
2.26233
3.03016
2.23222
3.03357
3.0785
2.61513
2.82217
0.153647
-0.666313
-2.43686
-3.38222
-0.429883
-2.22371
-0.18316
1.30375
0.108428
1.6193
0.205656
1.14365
0.571878
0.172954
3.50651
0.436055
0.610849
-0.162911
2.9556
0.299365
0.580648
0.304744
-2.28773
-4.58161
-0.987004
-1.14186
0.0140326
2.29536
0.228157
3.10596
2.10043
1.3436
-0.160571
2.99831
0.838347
1.53715
4.07104
0.0434069
2.25594
-1.47442
0.0706596
-1.74356
-1.2199
-0.430292
-3.24587
-0.72938
0.4043
1.50118
2.35477
1.70567
1.58089
5.47885
0.194031
1.51169
2.20568
1.77035
1.93517
-1.2106
1.57905
1.44843
-0.133932
-2.08916
-0.269216
-0.201895
-2.27511
-0.199662
1.47907
-0.920222
1.26976
2.35915
3.05069
2.00875
1.28696
0.360754
1.29885
0.389138
2.10303
2.3639
0.132993
0.139578
0.195617
-0.498062
-1.11535
0.239756
1.11133
-1.54019
-1.46416
0.69669
0.304819
2.67811
2.66454
0.0620771
0.216173
-1.13706
2.89432
-1.19186
1.57374
0.357962
-2.11485
-0.203876
1.62691
-0.0724883
-1.3905
-0.638386
-2.23507
-0.037615
1.2393
0.729095
0.0424044
1.85736
0.932744
-0.129133
0.594549
0.974056
0.641071
1.53536
0.674861
-0.569519
-0.00396094
0.550813
-0.568008
-1.07705
-0.372794
0.152423
-0.928427
1.54607
-1.78737
-1.01364
-0.81832
0.233828
0.659287
-0.379507
-0.917471
0.926998
-1.51169
-0.194268
-1.08619
-0.48399
-1.19844
-1.53755
-0.511602
-0.551319
0.780169
-3.97524
-2.64445
0.629194
0.829318
-0.0229721
3.39991
3.232
3.30996
1.62658
2.00556
3.72568
4.02784
1.07655
1.91259
-0.300325
0.15092
-0.932615
-3.05763
-3.6176
-4.67929
-6.74343
-2.50094
-1.09813
-1.17671
1.3998
1.91493
0.408787
1.74465
1.00793
1.2859
3.79001
2.9153
0.423576
2.90026
1.01599
2.03115
1.64179
-0.510583
-2.17925
-1.17957
-2.68547
-1.82541
-1.7106
1.30223
0.229797
2.30859
1.64772
0.766208
3.22045
1.85705
1.40536
1.50465
1.74743
2.79957
0.298651
0.134092
-0.470236
-0.882298
-0.00825111
-0.578653
-4.00549
-1.68962
-0.155342
1.24054
0.611959
1.06463
0.735674
2.06865
0.214309
2.24295
-1.1027
1.7607
0.71861
0.313703
0.230834
0.369282
-0.183347
0.734614
0.228219
-2.93496
-2.25087
-1.16667
0.945079
1.13439
0.165102
0.546046
0.9823
-0.0761775
0.5709
1.48837
-0.271284
0.671481
1.27574
0.676753
0.542143
0.343507
1.51625
-1.17014
-0.188955
-3.02008
-1.56568
-0.982365
-0.396425
0.129212
0.81808
-0.425154
3.32232
3.32639
0.195015
1.24743
-0.426079
1.2136
1.48404
0.905389
0.700692
0.214182
-0.0449567
1.85024
0.00584054
-1.05756
-0.0841476
-1.81444
0.436748
1.27385
1.69157
-0.10481
1.34711
3.10166
-0.795404
0.108523
1.38097
-1.17949
1.45298
-1.16091
1.33055
1.07884
1.77866
2.46448
-0.340165
-3.01074
-1.03237
1.21395
0.983255
1.11186
0.307234
-0.626724
0.437732
0.358902
0.951757
1.11845
1.50585
0.685955
0.908725
-1.351
-1.13749
2.87706
-0.391425
-1.1036
0.247354
1.17524
-3.74208
-3.29968
-2.68816
-0.364165
1.84425
1.07084
1.01858
2.53968
1.56215
2.06281
0.540509
2.72097
0.627421
3.24768
1.23888
-0.272298
-1.25438
-0.661911
-1.19245
-3.14465
-7.42658
0.305251
-1.49016
-0.722905
-0.341461
0.467114
2.33569
0.728733
2.07681
-0.473941
0.127476
2.76335
0.474017
0.501466
-0.449371
-1.38645
-0.0617764
-0.832041
0.00605256
-2.77137
-5.23145
-0.17651
-0.816724
-0.625129
0.18726
0.61778
3.05305
1.34813
0.40861
0.50617
-2.13703
-0.473339
1.59489
1.15034
0.699629
-0.552004
-3.25964
1.18392
-0.821349
-1.29103
-0.753921
-2.80224
-0.909076
2.87593
1.99219
2.62708
1.50119
2.30013
2.10806
0.011108
2.11805
1.07341
1.54009
0.422965
1.95983
-1.57726
-0.181278
-0.343534
-3.27639
0.285773
-2.58794
-1.99112
-0.486014
-0.91234
0.894558
2.35979
0.223977
1.52085
0.306636
1.68789
0.643299
0.841715
0.408738
0.285854
-0.841626
-1.60527
0.545962
-1.67222
-0.387218
-2.58749
1.31554
1.00491
2.38513
2.05342
1.58215
-0.192357
0.479822
1.62534
1.87786
0.832572
1.06363
0.326095
-1.29715
1.46542
1.24972
1.0959
1.47466
0.017742
-0.488577
-0.602361
-1.61953
-0.483954
2.41097
-0.881828
-1.07492
1.20277
-0.112587
1.03977
2.51129
1.94692
0.0060398
2.41544
-0.320383
-0.378375
-0.556683
-1.64596
-0.477325
-0.484307
1.00801
0.0563169
0.305805
-1.27361
-0.96497
0.199391
0.957376
3.05447
1.09719
1.71126
-0.254789
1.16986
-2.62748
1.2139
-0.930115
-0.137261
-2.50506
-0.455329
2.13154
0.243219
-0.694042
0.0155008
-5.31421
-3.808
-1.87485
0.216224
1.54255
1.40822
1.93172
2.71451
1.56383
0.0152163
2.0289
0.572095
-0.0126603
-0.789327
-1.5454
2.47321
-1.8876
-1.52675
-1.80227
-2.83422
-5.73056
-1.44038
-0.346557
1.41812
0.593953
0.848085
-0.900717
0.0381941
0.341896
1.74567
0.124225
-1.00289
2.33232
1.63246
-0.237479
0.0334379
0.429674
-0.587129
0.183331
-2.70992
-3.88901
-1.84505
-0.934448
-0.228104
1.06013
-0.404471
0.183781
0.327425
0.992896
0.208414
0.363945
1.68624
3.08782
-0.467447
0.216859
1.5467
-0.843545
0.0214549
-2.65711
-3.18058
-3.3879
-2.76063
-0.829251
1.29348
1.04928
0.854352
0.854861
0.81637
1.29471
-0.0535476
0.905184
1.28915
2.38076
-0.104208
-1.20571
0.860389
1.48103
-0.832884
-3.26997
-2.79309
-2.22151
-2.14358
-1.75516
-1.75525
-2.13935
0.475336
0.388402
0.669606
2.00571
0.282676
-1.14936
0.019521
1.9781
0.212546
0.566882
-0.0189633
-2.23466
-2.36192
-0.538859
-2.01148
-1.0407
-0.738985
-0.739765
-1.52786
1.0717
-1.38338
-0.918783
1.19947
-0.80102
1.23148
0.403036
-0.520604
1.28475
-0.108972
-1.17898
0.552078
-0.506612
-1.13446
-1.60309
-2.73062
-1.51875
-2.26209
-0.371192
-1.55044
1.0422
-0.0168553
0.459044
-0.420873
0.530325
0.509989
1.5325
-0.420325
0.435282
-0.865522
0.109446
-0.422272
-1.45029
-0.359131
0.387536
-3.125
-1.43729
-1.07074
1.42418
-0.771003
-0.571088
2.58435
-0.11467
-1.84941
-0.219404
-0.0272027
-0.0698158
-0.962768
-1.24199
-0.545129
1.0023
1.46707
0.257339
0.586729
0.151581
0.316549
-7.07421
-5.63201
-1.23246
-0.955039
-1.64387
1.57918
1.67433
0.0237041
-0.386449
-2.85925
0.11782
-0.866499
-0.037573
-0.462529
-0.726516
0.771982
-1.64739
-0.992566
-1.79292
-6.69641
-4.75079
-0.232802
-0.570278
-0.119056
0.72484
0.0490263
0.535326
-0.110737
1.91475
-0.513712
0.18917
0.399482
0.0673336
-1.03501
0.0442214
-0.161195
-0.536541
-0.659481
0.00140351
-3.232
-3.92065
-2.55535
0.132259
-0.114764
0.503264
-0.597296
0.311403
0.680601
2.11075
-2.24604
1.43204
0.705046
-0.644651
1.14192
3.45053
0.329213
-0.123691
-2.49336
0.0907063
-3.12847
-2.94393
-3.12583
-1.36163
-0.115098
-0.239541
0.28364
0.566327
0.266104
-0.998526
-2.78758
0.0529361
-1.47149
-0.858392
0.131899
-2.08711
1.01461
1.4326
-1.31673
-1.22581
-2.53724
-2.16668
-2.26951
-0.113292
1.30991
0.821937
-0.132876
0.949239
1.08991
-0.292425
-2.57467
-2.00533
-0.470361
-0.189761
-1.25915
-0.393758
0.375518
1.69137
-0.809638
-3.83972
-2.91088
-1.43675
-0.671722
0.0432605
-2.62769
1.54295
2.37845
0.671586
-0.23494
1.17806
2.0992
0.844733
0.515228
1.0974
1.16679
-0.43974
2.05975
0.750216
-1.46285
-0.288737
-1.61057
-1.69066
-0.24297
-1.02839
-0.134918
1.24262
-1.69533
0.447744
-1.22394
-0.334057
1.31741
0.559356
-1.07629
-0.738068
0.931527
0.779412
0.391711
0.121218
-0.988797
1.36245
-2.21403
1.00392
0.334178
-0.197428
1.28624
0.579158
1.32985
2.07624
-0.0593104
0.499773
-0.795183
1.83531
-0.392503
1.82366
-0.440676
0.73516
-3.14592
1.69961
0.703134
0.493238
-0.870026
-4.85506
-3.21529
-3.23544
-2.18459
-0.141578
0.275684
0.511432
0.264449
-0.94844
-1.09849
-1.42974
0.381716
-1.8329
-0.52574
-0.400331
0.60476
-2.36739
-1.84024
-4.99585
-2.97509
-5.17555
-1.92158
-0.252171
0.501401
0.347533
0.948363
-0.570463
0.0281953
-0.587818
0.00549519
0.239577
-1.38223
-1.20677
-0.25897
-1.6489
0.587825
-0.740893
-0.417925
-1.94438
-3.4741
-4.74403
-2.61579
-1.90396
-2.11119
-1.07036
-0.315316
-1.23978
-0.38516
-0.392574
-2.01231
-0.471191
-1.68582
0.842827
-2.31026
2.08796
0.189453
-1.96204
-0.83561
-3.51843
-2.77145
-2.61783
-1.83437
-2.15861
-0.516011
-0.963329
-1.29352
0.543644
-0.264037
0.449659
-1.27864
1.19564
-1.08869
0.367702
-0.00809559
-0.855211
-2.43618
-1.30363
-0.78051
-0.102399
-3.42097
-2.01371
-3.64494
-1.12174
1.31675
0.514247
0.818749
-0.902498
2.26369
0.402139
0.0807114
-0.482096
-1.31352
-0.276352
-0.251288
-0.473456
0.145633
0.0583441
-0.67677
-0.446939
-0.304038
0.276789
-1.77216
-0.422468
-0.705509
-0.0833235
-1.83097
-1.64311
-2.33197
1.56577
0.267611
-0.106069
0.842367
-0.357467
1.65442
-1.00065
-1.98975
-2.17028
-0.351142
-0.214061
-1.60451
0.402895
-0.176863
0.761501
1.20475
-0.688687
0.0280772
0.582342
2.01702
0.109014
-1.14205
1.61558
-1.70083
0.968797
0.193241
1.26123
-0.0648728
0.402012
-0.23273
0.359703
-1.46916
-0.378317
0.621842
-1.7163
0.369159
-0.6867
-1.50696
2.9408
-1.69819
-0.53369
0.810037
-0.63746
-1.69
-0.811067
1.23789
0.148749
0.778255
2.50885
2.43535
-1.52355
-0.0505793
-5.32918
-4.92092
-0.347957
-1.00445
-0.318009
-0.958287
-0.569523
-1.76985
-0.702896
-2.07984
-2.29981
-2.45652
-2.04172
-1.71732
-2.58771
-1.71452
-1.88529
-2.31567
0.199675
-4.57313
-3.86693
-0.134906
-1.42462
-0.127376
-0.93293
-0.243183
-0.808213
0.0764352
-0.891711
0.225739
-0.153698
-2.21819
0.102685
0.132923
-0.720215
-1.20136
-0.901062
-0.148372
-0.365739
-3.24166
-3.92759
-0.958345
-2.02991
-1.12051
5.46717e-05
1.34467
0.78467
0.65029
-0.0332594
-0.470805
-2.18427
-3.03913
-0.814555
-0.185121
-0.237367
-0.421523
-2.12768
-0.0632165
-1.77537
-1.75972
-0.584782
-1.23631
-0.36016
0.51403
3.12393
-1.24716
-0.0304929
-1.67895
0.567871
-0.351149
-1.38121
0.461787
0.964292
-1.32403
0.0280565
-1.59892
0.173556
-0.751876
-1.54269
-1.85468
-1.93743
-1.78269
-1.49411
-1.87645
1.89688
-1.98284
-1.97961
-0.533309
0.881117
0.546488
0.0661046
1.04225
-1.01111
-4.01712
-1.84099
0.012853
-1.30371
-0.806245
-1.46095
-2.93866
-1.50108
0.00847043
0.697727
1.72155
-0.926506
0.273788
0.499456
1.33019
1.16316
-1.73317
-0.634362
-0.94322
-1.1313
-0.59085
-0.896486
-1.98204
-0.178821
-1.10781
0.394278
-1.67246
-2.10927
0.0789202
-0.729613
-1.11902
-0.586567
0.393376
-1.12971
1.93058
0.340887
1.11928
-2.41683
0.904152
0.942006
-1.76479
1.47803
0.278765
-0.842423
0.662156
-1.72254
-0.593459
0.959172
-0.314047
1.6693
0.474516
0.828659
-2.09903
-0.849342
0.977819
-1.51962
-0.600343
0.563468
0.94822
1.10609
-0.476237
0.88038
0.0558292
-0.579268
1.64461
-0.370492
-0.898225
-5.90234
-3.36638
-0.775105
0.212826
1.42876
1.33289
-0.538873
-1.0485
-0.446706
-3.52965
-1.46649
-1.34599
-2.99329
-1.21332
-1.90518
-0.499887
-4.16831
-3.12027
-2.59417
-5.94249
-4.39444
-4.24564
-1.02945
-1.30253
-0.0491485
-0.40141
0.420443
-1.7498
-2.28219
-1.17977
-2.29144
-1.13241
0.26438
-0.902749
-0.985742
-1.06434
-0.43628
-2.50802
-4.24941
-4.29746
-3.31392
-2.59933
-1.79674
-1.90155
0.353641
-2.4064
-0.516209
0.125064
-1.79117
-1.9587
-1.3459
-0.27077
0.721784
0.276078
-1.70717
-0.461883
-0.299539
-0.400725
-1.7555
-2.20951
-1.65071
0.433749
-0.625314
0.220283
0.753992
1.00915
-0.918659
-2.73904
-1.01431
-1.312
-0.596562
-0.0389072
-1.5945
-0.740295
-1.11503
0.497093
-1.08198
-0.377974
-3.30735
-2.28087
-2.4305
-2.47905
0.308442
-1.12523
-0.765105
0.278882
1.70241
1.905
-2.01245
-0.114986
-1.45142
-3.22099
-1.7267
0.0639893
-0.450469
-1.23171
-0.120528
-2.36359
-0.406934
-2.24982
-3.67618
-1.04007
-1.02151
-0.276688
1.48753
-0.795504
-1.70217
1.23614
-0.721511
-1.2411
-0.869082
-0.77716
-0.506987
-0.821893
0.932873
-0.392549
-1.19583
-1.08871
-0.217002
-0.942818
-0.579681
-1.87066
-0.919334
-1.05556
2.06195
-1.82269
1.44346
0.911542
-0.80307
0.581869
-1.44215
0.772534
-1.34078
-1.19107
-1.23341
-0.360149
-2.3203
-0.81986
-3.15455
-2.55759
0.385444
1.7638
0.54214
0.0264641
0.0337652
0.055346
-0.599306
0.242558
0.953938
1.09201
-0.532313
1.52584
0.0268529
0.761602
0.157908
-1.04934
-1.43369
-0.449782
-1.12146
1.51419
-4.27773
-3.01188
-1.31494
-0.409123
0.00270679
-1.18335
-1.30472
-2.65652
-1.20478
-1.89566
-1.7856
-3.45628
-2.26381
-1.97813
-0.222364
-2.79494
-0.6821
-3.59953
-2.5662
-5.3437
-3.06571
0.152961
-2.49239
0.0342045
0.856876
0.101566
-2.00899
-0.0928813
-2.35553
-0.0472983
0.0263909
-1.95279
-0.821802
-3.00956
-0.0060561
-0.942592
-0.119592
-1.92316
0.0704426
-2.31321
-2.61187
-2.28344
-0.0471261
-2.55298
0.579352
-0.00985353
-1.52551
0.523783
-1.10157
-1.95272
-2.09437
-0.853955
-3.95641
-2.35073
-1.35568
-0.745872
-1.04683
-2.19507
-2.05509
-2.482
-1.52148
-1.77643
-1.33761
-1.72843
-1.4174
0.556454
-1.09378
-0.572635
-2.88545
-1.54347
-0.956977
-1.80321
-3.07181
0.445956
-2.80949
-1.56139
-1.59304
1.14512
-1.45488
-0.457863
-2.00407
-1.66185
-0.466914
-0.989256
-1.2709
-0.360086
1.26553
-0.797941
-1.45719
-1.86712
-2.0168
-1.86243
0.903314
-2.7698
1.23996
2.9065
0.566099
-1.05616
-1.27504
-3.24848
-1.10808
-4.61979
-0.14248
-0.125442
0.95417
0.747943
-1.69023
0.246985
-1.12345
-1.83526
-1.15356
-0.648069
-0.658064
-3.71574
-0.39222
-0.871687
0.099697
-0.752504
-1.21238
-2.21208
-1.62757
-2.29236
-0.418326
-1.25639
0.716043
-0.383064
0.749441
-0.177556
0.169473
-1.34685
1.68559
0.462493
-0.205455
-0.559583
0.0861844
-0.0299942
-1.11769
-1.62482
-0.725535
-0.885883
-0.750979
0.0965959
-1.63101
-1.19229
0.696749
1.04057
-0.423107
-0.868494
0.467483
2.08814
1.39597
-1.7194
-1.12266
0.95086
1.3321
0.523433
-0.78257
1.2123
-1.49638
1.01856
-5.68141
-3.39467
-2.94449
-0.236614
0.800917
-0.357838
-0.69828
-1.47696
-2.40817
-2.37518
-2.20973
-0.725307
-3.41278
-3.55772
-2.09574
-2.78138
-1.17525
-2.06968
0.33038
-3.78822
-4.23388
-0.612579
0.572103
-0.156337
-1.80216
-0.241037
-1.73223
0.0926623
-2.97312
-0.315445
-0.184033
-1.39327
-0.283997
-0.30349
-0.959287
0.503905
-0.494869
-0.587175
1.08366
-4.11285
-3.54527
-3.54209
-2.59049
-3.69922
-1.30175
-1.86894
0.940395
-0.785006
-1.09709
-2.68792
-3.46945
-3.03366
-1.9715
-0.881596
-0.756893
-3.12896
1.42757
-2.12064
-3.29108
-2.10432
-2.73619
-2.81262
2.50164
0.242403
-1.81009
-0.418202
0.335108
-0.957429
-1.64315
-2.64178
-0.918318
-1.63779
-2.4686
-1.40971
-0.741586
-2.56085
0.158999
-0.67139
-1.48587
-1.96618
-3.27431
0.103583
-2.31876
-1.72029
0.615905
-0.549207
-1.01503
1.08872
-0.720998
-1.83578
-1.41654
-2.09132
-3.71119
0.17232
-0.34351
-1.6265
-3.98698
0.350972
-0.79181
-0.764409
0.568732
-1.13468
-1.13403
-1.19116
1.64942
-1.36161
-2.35771
-0.671956
-0.895939
-0.770829
-0.561341
-1.76741
-2.68941
-1.4498
-0.960484
-0.145671
-0.839178
0.340933
-1.13632
0.00407894
-1.36078
-1.7384
0.63528
-2.89791
1.53183
1.32863
-1.3738
1.35939
0.400182
-1.60711
-0.262012
-1.76781
-0.987203
-2.06051
-0.503697
0.927368
-2.14828
0.338968
-0.608419
-2.00023
0.224588
1.29244
0.0792972
1.18418
2.37248
-0.0624321
0.381422
1.07975
0.624704
-0.450714
0.518964
-2.57311
-0.991778
-1.20534
-1.82916
-0.728155
0.210671
-0.408431
0.838923
-0.51648
-3.02608
-2.94307
-1.13367
-1.65586
0.657713
-1.12963
-0.868671
1.32663
-2.37177
-1.38566
-3.34412
-2.37969
-2.92924
-0.374015
-0.977954
-0.681893
-0.943551
-0.213443
-2.74185
-3.37354
-3.43931
-1.50174
-3.83819
-0.781864
-0.194118
1.3916
-0.875433
-1.08082
-3.24483
-3.42813
-0.825898
-1.49785
-1.95988
0.0158615
-2.03092
-3.03054
-1.91006
-1.62292
-2.50433
-0.496619
-2.70179
-1.39166
0.00224211
-0.217294
-0.386007
1.93396
-0.115183
-1.87067
-0.839331
-2.11936
-0.759914
-1.42279
-0.429731
-1.17769
-2.2222
-1.58385
0.16923
-1.96443
-3.08176
-3.13159
-1.28087
-2.98963
-0.487636
-0.739026
-0.909691
-0.749225
-1.40594
-2.12123
-0.48268
0.676235
-2.31793
-2.38475
-0.998305
-1.58296
-2.74723
1.62121
1.16403
0.551899
-1.11971
-0.843756
-0.493238
-1.44025
-2.28103
-0.888493
0.355302
-0.793033
-0.846025
0.0421735
-1.37536
-1.92588
-2.53708
-2.6983
-1.34542
1.66463
-1.49345
0.296416
0.192167
-2.44952
1.06928
-0.786507
-0.230974
-0.724341
1.22892
-0.935947
-0.0518725
-0.330471
0.398467
-1.0216
-2.11216
0.522924
-1.22376
-1.57198
0.786936
-0.685357
-2.09499
-0.224936
-0.597607
-1.35362
-1.51209
0.389987
-0.664493
1.10269
-1.75011
-0.871357
-0.171721
-2.26004
-1.73497
-0.572935
0.269221
0.738091
-0.944043
0.084566
-1.71997
3.20969
1.13945
0.591916
-0.00978977
-0.285214
-1.88787
-1.79926
-0.929094
-0.663609
-0.225851
-1.17037
0.266124
-1.22127
-0.972835
-0.179932
0.569035
2.53671
0.196222
1.59621
-0.0920241
-0.493756
-0.787278
-1.68872
-0.767883
1.11213
2.24631
1.82344
-3.3337
-2.84961
-2.55485
1.65416
0.840131
1.28375
0.360194
0.347246
-1.33699
-3.51098
-1.19447
-2.12097
-1.47945
-0.744792
-1.21977
-2.98901
1.8862
-3.17215
-1.78845
-3.22258
-4.43815
-0.482082
-1.45781
0.267317
-2.12165
0.136174
1.51072
-0.581531
-2.78398
-0.0193091
0.135771
-0.7729
-0.325035
-2.69057
-0.573189
-3.43036
-0.0271399
-0.172378
-0.448118
-1.85659
-3.7636
-3.86538
-2.41822
-2.4885
-1.8165
-1.44728
0.15362
-2.45856
-1.66792
-2.69736
-2.73421
-3.51982
-0.895312
-0.30084
-2.95179
-2.24878
1.93177
-0.665341
-0.159159
-3.35658
-3.38771
-0.872064
-0.445051
-2.70438
0.106748
1.29242
0.899663
-1.10695
-0.48061
-1.95223
-1.49791
-2.63631
-0.394446
-0.302344
0.272057
-2.93944
-1.45465
-0.498473
1.03425
-2.38614
-0.745032
-2.04593
0.0244512
0.44809
1.06931
-1.50795
-1.39812
-1.63411
-2.14105
2.70207
0.314872
-0.292244
-1.86102
-0.254638
-2.00551
0.698751
-0.410762
-0.432862
-1.27669
-2.95072
-3.00172
-1.7536
-1.07067
-1.02159
-0.223181
0.680372
0.814912
0.66305
-0.819024
-0.116544
-0.719881
-2.10218
-0.357725
0.586915
0.737391
1.41731
0.441938
-1.20518
-0.933358
-1.38072
-1.05846
-2.47186
0.405605
-0.300173
0.99011
-0.42024
0.259308
0.520593
1.27097
-2.08465
-3.37534
-0.489665
1.76574
2.02865
-1.7228
1.14573
-0.142777
-0.536605
-1.16161
-1.50182
-1.03466
1.68862
-0.0775105
1.17522
-0.920835
0.0609228
-0.709269
1.92046
-0.92944
-0.494712
1.48593
1.15503
-1.04231
-0.149536
-0.138866
1.92042
-0.0568767
-0.785573
-1.24238
0.833568
-3.08105
-3.3436
-1.16068
0.330572
0.520155
-1.01736
0.607552
-1.1417
-0.91748
-0.760079
-1.4162
-1.97683
-0.530503
-2.1041
-0.999932
-1.74616
-2.75602
0.770141
0.296017
-1.12827
-4.65107
-2.48801
2.28873
-1.10428
0.12578
-0.328043
-1.27389
0.186874
-0.522527
0.736433
-1.15081
-3.11078
-0.504933
-2.7239
-2.43696
2.04415
-0.876724
-3.35995
-2.66803
-0.655986
-3.097
-0.284632
-2.19211
0.753704
-0.587509
0.729663
0.672898
-2.06801
-0.592809
-1.76189
-1.62564
-1.10171
-1.75574
-0.155214
-1.31096
0.698769
-0.0864615
0.627561
0.793416
-3.30021
-1.99598
-2.12821
-3.79045
-3.28544
-0.173123
-0.765749
0.133667
0.0544643
0.339146
-0.347311
-1.21954
-0.15956
-1.18428
0.0223523
-2.02108
-2.28292
-0.327907
0.825707
-0.33347
-0.693302
-0.93611
-1.57101
-1.48342
-2.18721
-0.938831
0.857031
1.89228
-0.381249
-0.173496
1.41193
-2.79363
-0.0968488
-2.66671
-0.255795
0.634905
0.913101
-0.515695
-0.455534
-1.91386
-0.23867
-1.15167
-1.50572
-0.732651
-0.757533
1.45657
1.44455
0.346729
1.31283
-0.380704
0.0679716
-0.379592
0.420645
-1.94779
-1.39861
-1.90426
-0.557572
-0.809444
-1.26909
-0.312759
-1.12782
0.526857
-1.34391
-1.17733
-1.69811
-1.01801
0.106597
-0.496761
-1.0431
-0.303156
-0.756153
0.457244
2.16311
-0.142598
0.456987
0.466596
-0.641934
-0.498343
0.840172
-2.52008
-1.55657
1.5736
1.79015
0.477044
-0.548336
-1.11016
-0.092161
1.96334
-1.60578
0.715055
-0.620947
-0.672746
1.3764
0.82625
-0.0392367
0.435964
-0.131815
1.5925
-0.337806
-1.30225
-0.974997
-3.74395
0.631692
-0.904246
0.790373
1.15899
1.94853
0.716
-0.467156
-0.297555
-1.22037
-0.777568
-0.9858
-0.566016
-2.84917
0.133201
-1.5737
0.920385
-2.17758
0.79786
-2.54299
-1.79086
0.0224726
-2.13254
0.24159
0.369828
-0.0919252
0.245778
0.289068
-0.0230012
-0.274462
0.0614446
0.0614048
-0.641671
0.937013
-0.0993958
0.351399
0.483854
-0.868906
0.0981507
-1.69868
-2.2859
-0.450687
-1.09798
-0.449853
1.41748
-0.255021
0.0508889
-0.065148
-0.876073
1.60938
0.849503
1.03718
0.512378
1.24013
0.957507
-0.74859
0.481645
-0.643975
-1.73123
-2.26632
-1.83475
-2.42392
-1.86157
-0.685231
-1.10685
0.279215
0.211239
0.366401
-1.91685
1.27987
0.538585
0.624274
0.683561
-0.582737
0.418667
1.29128
1.17484
-0.49981
-0.394314
-1.97356
-2.70114
-0.696266
0.292297
-2.00854
-0.902776
-0.169041
0.963262
0.0510201
0.0109314
0.820181
-1.66768
0.584065
-1.36047
1.92185
-0.279995
-0.265147
-0.622012
1.24297
0.281659
-0.17319
-0.959082
-0.671774
0.197519
-0.703605
-0.520131
-1.99253
0.0934943
-0.379174
0.0876951
-1.89852
-0.201728
-1.43462
0.651138
-2.31029
0.865
0.0316658
0.384306
1.19564
-1.41437
-0.417615
1.02056
0.840022
2.63259
-0.426699
-1.71505
-1.63626
-1.0078
0.161439
-0.453201
-0.658203
0.422784
1.96755
-0.335075
-0.683475
-1.59909
-2.03381
0.00444733
0.946258
-2.12548
-0.469526
-1.34418
-0.42257
0.535002
-2.26377
-0.686063
0.884427
0.780078
-2.29691
0.792245
-1.56301
-1.04328
0.312054
-1.97974
0.418344
-2.65338
2.25514
0.0924335
0.650002
1.03699
-0.354642
-4.03713
-1.80194
-0.049701
2.57529
0.131598
3.1225
-1.44937
2.16981
-0.322916
-0.0998875
0.485226
-1.29472
-0.386954
-0.420767
1.49354
2.74681
-0.0584075
3.23751
-2.6454
-0.076806
-2.67489
0.275765
0.293991
0.386335
1.432
1.35426
1.13928
2.47324
-0.270981
0.51787
-0.958456
-1.24524
1.43933
1.23884
-1.24552
0.0408857
0.446692
0.568256
1.36105
-1.38029
-1.08304
0.699936
-1.44691
1.73311
0.526703
0.0602083
1.04752
0.372413
0.689782
0.166915
0.130889
0.194038
-0.427466
-0.297514
-0.201177
0.21673
2.62462
0.292392
0.458454
-1.79042
-2.40266
0.109528
1.72889
0.978929
-2.14577
-0.731197
0.523174
-0.451373
-0.283781
0.839927
-1.12795
-0.779214
-1.09053
-2.15122
0.595196
-0.388977
2.6871
0.252509
1.1314
-0.205573
-0.285372
-0.303503
-0.239226
1.35863
0.316339
-1.57233
0.210963
1.5436
-1.28699
1.13746
-0.263769
-0.548686
-0.345988
0.346182
1.0259
1.01075
1.89481
-0.0108953
-0.943447
-1.58456
-0.453382
0.383167
-1.16268
-0.300221
1.06448
-0.038868
0.466291
0.0185061
2.03893
2.18447
0.784993
-0.212946
-1.54216
1.25983
2.81899
1.20217
1.50575
-1.39507
-0.832418
0.153568
0.663874
-0.899341
-0.606331
-0.283897
-0.759222
-1.31933
-0.438872
1.73064
-0.170437
-1.05321
-0.647097
0.184807
-0.187606
-1.16773
1.75512
0.174531
0.574121
-1.87317
2.00758
-0.157705
1.18093
0.594755
-0.632621
1.16928
-2.75519
0.25654
1.44072
-0.57174
-1.00614
0.953238
0.487236
1.87932
-1.73871
-0.423222
-0.0445661
-0.834094
0.625925
-1.27542
-0.460935
0.309191
-1.76883
1.80519
0.954874
-0.36495
3.69168
1.49893
0.86247
1.23127
1.11104
3.24384
1.63146
1.23256
-1.21399
0.0273056
1.82545
3.22836
2.02658
3.22919
-1.00026
1.91556
-1.73505
-0.236086
1.52961
0.0825805
2.33437
0.200433
1.70005
-0.272831
0.460289
0.194956
-0.19991
3.20881
0.090087
0.625115
-0.205626
1.69646
0.440188
1.69166
0.570566
-0.744384
-3.20775
0.134566
-0.550825
-0.73685
0.789947
3.58796
2.57448
-0.317054
1.44021
0.488971
2.77613
1.0439
-1.08985
-0.12074
0.0475961
1.40197
3.19748
-0.722537
-0.32184
0.699638
-1.46351
0.126281
1.88543
-1.11107
1.37558
0.403296
0.805701
-0.461776
0.304766
0.903257
-0.878117
0.464588
1.29952
0.966539
1.11792
1.86594
0.208452
2.428
1.02311
-0.212298
0.0220239
1.43422
-1.60086
3.21671
-0.0901085
0.929876
-0.965502
1.6725
0.335179
0.0103241
1.02035
2.22142
0.943736
1.12925
0.291561
0.73942
2.39949
2.27369
-0.678331
0.0361706
-0.371291
0.385757
-0.0156931
-0.314828
-0.0638154
-0.832306
1.74113
-0.518066
-0.659967
2.02167
-1.27114
1.0044
-0.233038
0.646115
1.00899
1.65895
1.43344
-0.368642
-1.18488
0.923712
1.24435
-0.641875
-0.199421
2.08391
-0.290178
1.89053
0.80961
-0.874093
1.09119
-0.88422
1.27729
-1.64365
0.215719
0.0420943
-0.92172
0.440089
2.4944
0.352398
0.462078
0.539521
2.37397
0.715607
-1.22824
-1.34321
-3.22723
-0.18341
0.924134
-1.17997
0.9688
0.290041
1.42482
-0.119965
0.28046
0.447417
1.60349
0.643604
0.032793
-1.01024
-1.34317
-0.361016
-0.842359
2.5194
2.378
1.09497
1.86686
3.3378
3.37434
4.97498
1.22295
2.69898
1.04844
1.66349
2.85355
4.81339
2.63922
5.71013
4.10445
1.46549
2.26232
3.04266
0.267881
1.70494
1.25406
1.50693
1.7662
2.36388
1.25722
3.06458
5.16785
1.34634
4.4953
2.15611
2.21509
2.79458
2.93088
2.30064
1.81258
1.398
-0.817552
1.13515
-0.399832
1.87218
0.837871
0.973126
2.07447
2.57311
1.74603
3.15244
3.48333
-0.654332
1.26865
1.05766
3.95495
1.64144
3.84309
0.708052
1.74565
4.138
0.691875
1.20835
-1.0105
1.66904
1.50678
0.540141
2.7597
2.65157
1.93713
-0.0823135
1.44401
1.79429
1.69883
0.905074
-0.346082
0.466961
2.10152
1.60189
1.86775
2.34473
1.40638
1.88327
-0.0749479
-0.680111
0.283536
0.358366
1.29907
1.94017
2.94001
-0.290379
0.350295
1.56587
1.01891
-0.823233
2.92547
2.45314
1.31115
0.615387
0.470543
-0.141403
0.639235
2.24449
0.551683
1.23963
2.71673
-0.586335
1.45848
-0.708536
2.30951
0.317693
1.34231
0.422683
0.527963
2.26273
0.145295
2.46071
1.13791
2.82838
1.73105
2.00882
-0.0946751
-0.19738
-1.95399
-0.204165
-0.223262
0.705977
1.05492
-1.48019
-0.756315
0.42686
0.159566
2.35534
0.029789
0.726715
0.530947
0.285978
0.753734
0.749903
-0.191626
0.449302
-0.501602
2.11197
0.747147
0.458313
0.366005
1.05243
1.20273
0.763817
-2.35403
-1.48675
-0.313295
0.20259
0.612408
-0.756197
2.04419
1.99484
1.0368
-2.28304
1.21894
-0.122794
-0.610181
0.685227
-0.512904
0.521382
0.882644
2.43625
3.25424
4.00743
4.10577
2.0232
2.7197
2.58507
4.01292
2.33126
3.97115
4.57099
1.65159
5.00864
3.3657
4.27182
2.17747
1.13258
1.24139
0.253428
2.20886
0.266256
3.68142
0.341249
2.80461
-0.0613827
-0.0196551
1.03572
0.421207
4.88116
0.0311474
4.30409
0.168623
4.73029
0.482983
2.29508
0.247085
1.90506
-0.845262
1.95246
1.06728
4.17051
3.95521
1.81434
3.44102
2.03741
1.97848
1.33993
3.66423
3.55626
3.1751
4.53091
2.5413
3.07785
-0.595773
3.47975
1.7857
2.47304
-0.126854
1.45802
2.20386
1.25868
2.04177
4.00476
1.9033
1.04302
1.18801
2.57481
2.80412
3.11133
2.19878
-0.805315
3.52433
1.59627
2.70698
1.77815
-0.241504
0.621495
0.754543
-0.923617
0.416701
0.732749
1.4505
-0.502231
0.903405
1.11698
2.65447
1.9639
1.77081
1.75763
2.23431
2.65279
1.29953
3.62196
0.862013
0.443041
-0.408113
0.559216
1.66387
0.731449
1.16049
-1.35068
0.671779
-1.28795
1.35417
0.335659
-0.8486
1.31435
0.662295
1.03893
0.498595
-1.392
0.508086
0.846186
2.25994
-0.121214
-0.220822
0.157792
0.622718
0.409181
0.594507
1.40961
-0.318588
3.22131
0.968928
1.43796
0.644195
-1.00872
2.17396
-1.12761
0.581598
-0.867925
-1.93387
0.881695
1.86812
0.492684
0.879203
-0.214252
1.19425
-1.62102
0.59596
1.00073
0.543557
-0.0805417
-0.52368
-1.3603
0.200985
-0.617412
2.19627
-0.337443
-0.527874
-0.785999
0.34087
0.0607371
0.0784106
-0.916304
2.6741
-0.0106339
4.29356
2.73423
2.282
2.77983
3.85643
4.65205
3.44565
4.21187
4.2162
3.15134
3.42639
4.57705
5.95887
4.94872
5.37839
3.63337
5.02119
4.21567
3.20075
4.31027
1.3909
1.67805
3.95182
3.86074
4.00504
2.66944
3.52177
2.33484
4.49114
4.73989
4.03208
3.26952
1.61721
2.64363
5.2699
2.39465
4.94433
3.30937
3.01032
3.48851
1.45836
3.18608
3.21486
0.733888
3.24101
3.22013
2.75987
2.08532
2.55926
2.44963
3.26071
3.08653
0.280505
2.98255
4.04599
4.57813
4.2396
4.98477
2.15647
-0.117381
2.49506
0.982695
-0.663848
2.67599
2.92873
2.33036
2.7895
1.17082
3.26536
2.21605
3.19812
2.13715
1.57111
1.90656
1.6863
1.91965
2.8699
2.57025
0.63467
1.47633
0.168829
3.51225
1.69759
0.464961
3.1286
0.9657
0.380787
4.27791
2.80649
3.00693
2.74391
-0.10668
2.8406
3.89488
2.79428
1.63611
2.02999
2.69847
-0.969524
4.75834
-0.343771
1.34219
0.454583
1.10826
2.19949
-0.902538
-0.216985
0.306759
0.583013
1.86048
2.83676
0.326641
1.54433
1.34965
1.34736
-1.51379
3.65115
1.83935
0.540371
2.22837
0.590119
0.398893
0.197177
0.153688
2.30258
0.725166
1.68725
0.447477
1.05809
0.0647169
1.57568
0.976493
0.0865273
0.112044
0.584393
1.12819
-0.473264
0.53025
1.3453
-0.193845
-1.65694
1.11702
1.00512
0.490251
0.925946
-1.22125
1.01675
-0.0202617
-1.20467
0.137264
0.712126
-0.842788
-0.428934
0.507712
-0.482652
-0.441848
0.31975
0.768578
-0.778029
-0.185738
)
;

boundaryField
{
    hotSide
    {
        type            calculated;
        value           nonuniform List<scalar> 
400
(
-4.17757
-5.05321
-3.18125
-2.95326
-4.53204
-6.29996
-4.0898
-4.57372
-5.15726
-3.54334
-4.9578
-2.31308
-2.63096
-2.38801
-3.0599
-3.36121
-1.10008
-0.179691
0.144819
4.94755
-0.788269
-1.08793
-1.78343
-2.44538
-2.96234
-4.79662
-2.39157
-4.1099
-2.56879
-2.22812
-2.62485
-2.18701
-2.10689
-2.61356
1.34989
-1.09457
2.50285
3.20859
1.20342
3.41049