/*--------------------------------*- C++ -*----------------------------------*\
| =========                 |                                                 |
| \\      /  F ield         | OpenFOAM: The Open Source CFD Toolbox           |
|  \\    /   O peration     | Version:  2212                                  |
|   \\  /    A nd           | Website:  www.openfoam.com                      |
|    \\/     M anipulation  |                                                 |
\*---------------------------------------------------------------------------*/
FoamFile
{
    version     2.0;
    format      ascii;
    arch        "LSB;label=32;scalar=64";
    class       volScalarField;
    location    "0";
    object      stateMean;
}
// * * * * * * * * * * * * * * * * * * * * * * * * * * * * * * * * * * * * * //

dimensions      [0 0 0 1 0 0 0];

internalField   nonuniform List<scalar> 
3200
(
347.52
345.203
344.711
346.181
346.923
347.904
348.107
348.008
348.349
349.072
349.413
349.879
348.628
348.69
346.772
346.997
347.467
345
345.032
345.311
343.732
340.47
338.696
339.79
339.444
341.03
341.526
340.645
343.783
343.202
343.393
341.222
342.241
341.474
339.981
341.254
341.236
339.629
341.646
340.435
334.414
335.283
333.213
333.393
333.243
335.906
335.722
336.912
333.606
336.44
336.367
336.907
333.425
334.785
335.233
333.34
332.792
333.497
334.105
334.474
329.381
330.433
326.426
326.752
326.703
327.509
328.49
331.207
331.833
330.492
328.593
329.928
331.769
328.821
328.497
324.628
326.833
328.127
327.214
327.181
320.877
321.2
320.765
320.103
322.593
321.235
323.11
319.966
322.219
320.521
324.358
323.417
323.288
323.687
323.571
320.65
322.063
321.226
320.254
321.176
315.351
316.755
313.93
316.684
316.262
316.078
314.612
316.538
316.477
317.184
318.069
316.352
315.205
316.186
316.712
314.493
317.1
313.994
314.196
316.033
308.716
308.422
310.076
309.408
309.112
310.813
309.977
310.206
307.564
308.355
308.554
306.635
308.714
309.978
311.246
308.527
308.125
309.929
308.729
311.045
303.856
302.534
303.172
304.29
302.918
303.674
302.666
303.551
304.406
301.711
304.519
303.99
303.398
302.801
303.132
302.777
302.668
301.233
303.604
305.985
348.491
345.59
346.31
344.841
345.826
346.45
348.811
348.671
347.249
349.03
350.434
349.248
349.255
347.366
346.033
345.1
343.469
344.753
344.302
345.077
340.374
338.265
341.155
340.312
340.057
342.461
342.064
344.416
344.162
345.094
345.493
341.799
344.186
343.072
342.732
338.405
339.83
338.35
337.53
339.28
335.911
333.015
334.094
333.95
332.71
335.798
333.861
335.659
336.992
338.801
335.642
337.498
336.222
332.896
335.983
332.749
335.438
332.881
333.772
332.549
326.084
329.463
327.699
327.392
327.147
327.127
328.544
329.316
325.889
331.422
330.104
329.162
329.127
328.315
330.693
327.069
326.348
327.104
328.306
325.923
320.171
322.676
321.185
320.148
323.209
321.667
321.175
320.986
322.393
323.308
324.234
323.103
323.648
321.431
320.573
322.156
321.487
320.789
320.899
321.084
314.036
313.471
316.538
316.921
315.232
316.087
314.14
314.512
317.376
317.359
318.712
314.544
318.369
315.244
316.034
318.044
315.661
313.371
314.654
315.667
309.215
310.995
309.047
308.046
308.84
309.804
308.245
309.384
310.603
309.961
309.582
309.833
308.782
309.427
310.416
309.573
308.734
309.577
309.837
308.95
302.724
303.865
301.474
304.899
304.222
304.119
303.152
302.8
303.891
304.456
302.612
305.023
303.653
304.472
303.785
304.406
304.65
303.532
303.488
302.096
346.811
346.46
344.436
345.595
347.842
345.786
347.212
348.194
350.648
350.676
348.956
348.247
350.427
348.531
349.486
347.668
347.357
348.123
347.434
347.515
343.904
340.492
340.166
341.421
340.051
340.719
343.313
342.893
344.296
344.369
341.865
342.389
344.214
340.822
341.618
339.42
338.602
339.579
340.17
338.341
334.157
333.985
334.779
332.759
334.852
333.772
335.352
337.007
335.115
336.774
337.226
336.83
336.026
334.2
335.782
334.948
334.531
333.95
332.168
332.051
329.775
328.014
327.219
326.635
328.098
328.462
329.541
328.84
331.154
329.367
332.713
329.607
330.19
329.963
329.296
328.341
328.059
326.329
326.096
328.705
322.31
321.651
320.113
320.555
322.173
322.426
322.573
324.122
323.831
323.102
324.861
323.731
322.77
322.878
322.43
321.994
320.173
322.228
320.673
323.079
315.906
315.623
315.446
315.372
315.146
316.842
313.511
313.857
317.243
316.325
317.998
316.224
315.699
315.928
315.716
315.75
315.546
313.2
314.635
315.398
308.7
310.61
308.604
308.037
307.898
309.967
308.764
307.22
311.269
310.445
309.173
311.653
308.869
311.272
308.531
308.511
307.532
306.577
309.136
311.627
303.921
301.735
302.048
302.009
302.908
303.933
302.951
303.101
302.559
302.42
302.032
302.825
302.551
304.74
304.443
300.338
303.512
304.135
302.702
301.714
346.874
347.389
347.995
346.992
346.139
348.235
349.502
349.003
350.723
350.614
352.136
349.564
350.916
347.273
348.067
348.255
347.882
345.969
345.281
346.277
344.844
337.922
340.768
341.144
341.934
342.271
341.453
343.943
343.237
346.126
345.525
342.551
344.198
343.288
343.187
342.979
340.483
340.11
338.221
340.188
336.919
332.537
334.062
334.836
335.015
335.551
334.004
336.455
337.935
338.123
340.766
338.817
336.208
335.907
335.469
335.754
337.471
332.061
333.181
332.979
326.701
329.29
328.118
325.123
326.817
326.972
328.824
328.634
329.267
331.597
329.49
330.302
329.394
329.902
327.639
330.386
328.18
327.553
329.764
325.661
322.784
322.602
321.657
322.697
321.519
320.669
323.368
322.544
324.101
322.901
323.946
323.566
323.656
323.306
323.871
324.019
321.239
322.843
320.998
322.783
313.122
313.727
312.746
313.516
314.437
316.649
316.38
315.572
315.564
316.738
316.507
317.116
318.494
315.395
315.207
314.923
314.094
315.113
315.221
315.04
310.295
309.334
306.678
310.234
310.697
308.683
310.24
309.29
307.966
308.607
310.548
308.062
310.65
310.505
310.443
311.268
309.829
309.573
307.842
308.619
302.602
304.241
304.012
302.936
302.269
300.26
302.298
301.752
303.767
302.368
306.165
302.298
304.393
303.532
305.819
303.681
301.003
302.804
303.661
302.892
348.846
348.268
347.512
346.695
346.67
348.073
348.711
348.902
350.759
352.68
350.666
351.751
351.63
351.432
351.026
345.74
348.799
347.164
346.262
346.366
343.493
339.988
339.911
339.248
341.199
342.042
344.796
344.699
345.006
343.923
345.545
346.351
342.405
342.263
343.127
341.76
340.236
340.151
338.365
340.472
335.868
334.476
334.421
334.646
334.311
336.702
336.963
337.531
337.38
338.436
338.28
336.687
334.77
337.614
336.081
333.824
335.262
333.466
335.288
335.16
329.572
329.47
328.236
326.875
327.898
328.851
329.544
330.164
330.105
331.676
330.717
330.111
328.599
330.503
330.911
328.087
326.687
328.24
329.979
328.977
322.603
322.927
323.08
323.671
324.661
322.636
323.262
323.431
322.422
324.317
325.749
324.408
322.123
323.437
322.544
322.541
324.151
323.687
321.322
322.392
315.611
315.594
315.981
317.191
315.024
317.899
317.82
316.024
318.258
316.348
317.176
317.978
315.938
317.01
317.695
315.544
316.17
316.375
316.458
317.301
310.273
311.186
309.526
310.959
308.627
309.938
309.693
310.767
309.956
310.049
309.027
310.906
309.911
311.018
309.812
310.091
310.859
309.514
308.536
311.879
304.372
304.063
301.645
303.925
303.812
300.742
303.518
305.317
303.734
303.567
303.61
304.478
304.71
303.948
302.324
301.774
302.897
302.482
302.84
302.618
351.112
350.564
347.294
348.235
350.165
348.146
349.15
351.719
352.793
355.616
352.639
353.273
351.781
351.287
350.452
347.749
348.927
347.055
346.725
350.734
342.951
339.189
340.501
341.105
341.335
343.053
343.518
344.958
343.507
346.238
345.535
345.023
344.78
345.088
343.058
342.221
341.523
340.59
338.955
341.432
336.27
335.531
333.665
334.803
335.094
337.074
336.97
337.271
336.326
340.938
337.26
337.732
338.597
336.139
333.026
335.268
334.812
336.29
332.885
335.477
329.43
330.117
329.023
328.504
329.372
329.568
329.942
330.791
332.452
334.449
331.608
332.924
331.915
330.376
331.939
328.117
326.956
328.978
328.217
329.023
322.782
323.273
321.635
320.778
321.844
323.358
322.787
323.072
324.761
327.206
326.636
324.939
324.352
324.995
323.619
322.29
320.397
322.332
324.843
323.526
316.174
315.683
315.339
318.414
314.655
314.22
316.29
317.502
316.308
315.503
316.757
316.971
316.17
315.795
317.038
314.138
315.036
316.845
315.3
316.348
310.545
309.261
310.268
309.618
308.487
311.665
309.741
311.596
310.838
309.256
310.014
311.58
311.11
309.257
309.191
309.338
309.362
310.229
307.656
311.068
301.964
302.689
303.294
301.893
302.683
302.012
301.34
303.536
303.021
304.339
301.709
303.914
301.653
303.857
302.607
306.408
301.479
302.394
302.53
303.838
349.511
348.725
349.822
349.929
349.058
349.773
350.569
351.674
353.506
353.981
354.313
352.176
353.771
351.606
350.449
348.311
350.111
348.427
350.506
347.631
343.91
341.379
340.638
340.886
342.054
342.435
344.845
344.99
346.141
345.829
345.594
346.935
346.225
344.534
345.032
341.814
342.128
340.804
341.401
342.208
337.543
336.015
336.086
337.139
336.956
337.031
338.709
338.482
338.942
340.798
339.257
340.235
337.254
339.779
334.628
335.697
336.99
335.018
336.917
335.57
329.472
329.171
330.134
329.183
330.332
331.341
330.119
331.44
331.095
333.018
330.543
332.634
330.808
330.671
330.902
331.805
329.971
328.756
327.439
330.275
322.915
324.916
322.889
320.987
322.336
322.558
324.758
321.99
324.14
324.611
325.174
325.856
324.53
324.107
323.85
322.704
322.246
322.444
321.718
321.205
314.664
316.975
315.978
316.646
316.413
318.538
318.692
319.665
315.972
317.378
317.752
316.696
317.69
315.395
317.708
318.32
318.11
315.907
315.417
316.546
308.574
309.31
308.583
308.37
310.498
310.007
309.659
308.395
310.426
311.741
308.983
312.236
309.443
310.048
308.774
309.874
309.173
309.578
308.773
310.446
303.387
302.44
304.849
302.841
303.975
304.871
300.492
305.188
304.065
302.743
304.19
305.221
304.301
302.195
303.215
302.51
300.701
300.698
304.586
303.06
350.719
351.122
347.569
349.315
349.729
351.427
351.997
353.992
353.497
355.174
355.394
355.251
354.264
353.144
353.057
351.126
350.196
349.537
346.001
349.963
343.235
340.19
342.359
342.005
343.763
343.99
345.384
345.188
346.651
345.792
346.172
347.977
345.161
344.443
344.467
344.031
342.779
341.082
340.421
342.61
337.263
334.862
336.675
336.564
336.249
335.678
336.939
337.656
338.757
339.414
341.127
341.763
339.121
337.909
337.26
336.671
337.571
334.708
335.679
335.095
327.877
328.986
328.714
328.492
326.541
331.546
330.902
333.026
331.121
332.219
333.249
331.227
330.383
332.196
330.271
331.264
328.832
329.106
329.293
329.147
323.178
323.376
323.555
324.444
321.183
325.556
325.999
324.921
323.773
324.247
324.727
323.612
325.399
328.036
325.414
323.067
323.872
322.867
323.054
324.18
316.684
315.425
315.069
314.407
317.422
316.573
316.666
316.099
316.455
319.45
318.351
318.561
318.56
317.756
317.743
318.477
316.308
316.875
315.039
316.855
311.231
309.192
310.201
310.808
310.495
309.727
311.441
308.538
310.242
309.523
313.059
309.679
309.527
312.076
308.642
309.629
310.531
308.809
310.994
309.715
302.099
303.422
301.506
302.773
302.492
305.491
304.305
302.531
305.068
304.167
303.004
302.6
302.403
303.932
302.512
303.265
303.827
301.53
303.478
303.956
352.147
350.377
348.745
348.777
348.586
349.663
352.42
353.66
353.583
356.94
354.876
354.482
355.605
353.094
352.901
350.515
353.158
351.09
349.605
352.187
344.501
345.002
342.612
343.769
343.403
344.605
344.549
347.352
348.338
347.473
348.584
347.188
345.338
345.872
345.19
344.418
342.902
344.091
345.005
344.404
337.272
337.095
336.991
337.843
336.337
339.816
338.573
338.467
340.767
341.135
340.522
339.247
337.87
337.781
339.117
337.153
336.241
335.595
336.252
336.168
329.452
327.8
329.428
329.193
329.273
329.606
332.063
334.321
332.909
333.371
332.656
331.934
333.176
331.884
331.73
329.53
330.495
329.181
331.541
330.082
324.066
324.448
322.102
324.009
324.127
323.54
322.529
322.666
326.826
325.057
326.393
328.035
326.298
324.167
324.269
324.594
323.005
324.774
322.376
323.886
319.142
316.741
317.038
316.632
315.208
317.818
319.018
316.323
318.455
319.065
318.693
318.51
318.066
318.138
316.089
317.089
317.551
317.105
315.918
316.409
309.872
311.303
310.54
310.88
307.967
312.048
308.959
309.636
311.455
310.125
312.149
309.879
311.889
311.593
311.458
310.389
312.144
310.441
312.587
311.85
302.73
301.398
302.683
303.267
303.328
303.373
304.086
303.293
302.617
302.497
304.121
302.045
303.509
302.725
303.27
304.411
304.727
303.675
304.283
301.601
351.502
350.957
350.157
350.201
350.738
352.828
353.761
355.781
354.806
355.746
355.636
357.057
355.388
354.434
351.867
353.536
350.474
352.442
350.511
352.568
344.02
341.411
344.83
343.126
343.126
344.664
347.477
346.139
348.815
346.722
346.649
348.412
346.868
348.478
344.772
344.926
343.28
344.261
341.494
343.267
337.286
337.462
335.879
339.08
336.644
337.895
340.005
338.444
340.419
341.452
341.593
340.171
342.924
340.83
339.241
337.969
337.574
338.027
337.234
337.156
329.906
330.568
330.662
331.621
331.879
330.448
332.583
332.462
335.06
333.867
333.281
333.978
334.961
331.043
333.813
332.023
331.486
328.179
330.247
328.843
324.094
324.065
323.282
324.246
324.971
324.481
323.233
325.608
326.489
327.015
327.165
326.894
323.907
327.269
322.881
320.793
322.691
323.871
323.678
325.338
316.898
320.631
316.447
316.746
315.983
316.49
319.198
317.483
319.012
319.807
319.126
318.537
318.388
321.224
317.63
317.809
316.521
317.058
317.223
318.002
311.114
311.91
310.213
311.24
309.458
310.738
309.768
310.828
310.577
312.142
309.109
310.284
310.855
311.077
310.269
310.204
311.102
311.42
310.344
310.372
303.931
303.127
304.914
304.539
302.714
302.43
303.948
304.438
303.135
301.531
302.223
305.321
304.693
302.574
302.139
302.888
304.13
302.071
304.72
302.161
354.015
352.403
352.787
350.96
350.796
352.784
353.863
355.249
356.612
356.804
356.639
354.929
357.185
356.723
354.522
354.378
351.898
351.913
348.678
352.122
346.148
343.097
342.632
344.122
346.526
345.683
347.814
346.515
349.955
347.492
347.361
348.375
346.892
346.385
346.401
344.22
344.461
343.791
341.4
346.027
339.029
339.499
339.154
340.908
339.152
340.326
338.059
340.228
340.856
342.612
343.393
342.793
341.415
339.881
339.214
340.979
335.781
338.685
339.248
337.588
331.783
332.241
327.421
330.208
332.784
331.889
331.58
333.235
334.18
335.313
333.589
334.175
334.747
333.325
332.213
333.535
330.291
330.594
330.914
331.013
325.879
322.793
325.6
325.411
323.483
325.034
325.845
324.023
326.034
327.254
326.835
327.404
328.823
324.658
324.829
325.726
327.678
322.93
323.689
323.369
315.588
317.499
317.772
318.122
315.573
318.86
320.102
318.618
318.986
318.936
318.726
319.857
320.635
319.194
318.458
317.368
317.77
316.297
317.5
316.153
311.068
311.568
309.359
313.068
308.813
309.182
312.033
309.421
310.466
312.518
311.173
312.634
311.767
312.72
311.015
309.418
312.318
309.655
310.438
311.707
303.029
302.003
303.271
302.225
301.096
303.585
303.192
302.534
303.018
304.109
303.139
306.216
304.606
304.778
305.352
304.196
303.198
303.758
302.456
303.77
352.604
353.148
352.113
353.447
351.935
354.478
354.889
353.241
357.329
356.546
358.504
357.337
357.497
354.394
354.326
353.275
352.735
351.192
352.947
352.952
346.428
345.022
348.026
345.673
345.78
344.849
347.697
348.378
350.88
351.238
348.636
349.133
349.257
346.806
348.272
348.617
346.801
345.811
346.024
343.486
339.095
338.225
337.394
338.207
338.964
337.198
339.739
341.897
341.15
342.579
341.22
341.734
340.456
340.802
341.354
340.162
337.821
339.36
339.915
339.525
331.071
333.134
331.091
331.828
332.48
332.773
333.832
334.876
333.471
332.433
335.427
335.373
333.753
334.009
334.771
329.949
329.925
330.051
331.264
330.634
323.674
324.893
326.091
325.075
324.207
325.707
326.074
325.441
327.04
327.685
328.296
328.363
326.828
323.563
326.407
324.266
323.995
326.26
322.384
323.968
316.8
317.485
315.786
318.221
317.605
318.135
317.631
319.233
320.453
317.885
319.632
319.913
317.424
318.714
319.9
317.778
317.883
318.369
318.273
316.179
310.618
308.966
311.971
311.254
310.716
312.955
312.565
311.512
310.748
310.32
312.002
310.932
312.659
307.62
309.556
309.952
310.393
310.506
311.957
311.753
304.266
304.039
303.652
304.651
303.268
304.806
304.603
303.847
303.124
301.17
303.511
302.097
303.759
304.124
304.372
305.223
304.249
302.314
301.129
301.514
354.293
354.391
354.811
351.348
352.894
353.137
354.668
355.175
357.208
359.563
357.246
357.992
357.001
355.773
355.641
356.723
351.116
355.428
353.329
354.182
348.622
345.158
346.751
345.672
348.696
347.033
346.184
348.705
351.21
348.602
348.447
349.199
348.448
350.386
347.742
350.004
345.966
345.465
345.124
346.041
341.166
341.675
340.748
341.365
341.229
341.364
340.208
343.183
342.649
343.81
343.847
344.501
341.619
340.663
342.869
341.662
336.944
338.995
337.969
340.759
334.002
331.815
331.812
334.517
332.146
331.373
332.13
334.433
334.016
335.596
335.142
336.171
333.72
333.332
332.393
335.192
333.268
331.865
329.909
333
324.567
326.12
324.379
324.302
324.024
326.921
327.095
327.561
328.231
323.473
325.86
326.382
327.788
325.952
327.419
324.394
325.161
324.836
325.351
326.773
320.029
318.959
318.51
318.71
318.155
317.481
317.549
317.865
319.464
318.822
319.425
320.747
318.886
317.777
317.424
316.515
317.246
318.644
318.138
318.408
311.286
312.807
310.07
310.925
309.781
311.329
310.772
310.609
309.929
313.321
314.611
311.69
309.364
309.002
312.632
309.625
310.768
311.013
311.497
311.73
304.464
301.775
303.59
302.386
304.532
303.596
304.407
301.811
304.683
304.261
302.28
302.599
304.773
303.848
303.796
301.691
303.618
304.298
304.706
302.595
355.562
356.363
354.838
354.028
354.506
356.665
355.588
357.781
357.869
357.874
358.53
358.929
357.17
358.3
356.648
356.772
357.115
352.907
352.723
353.609
350.151
348.443
344.234
348.218
347.566
348.559
349.98
348.903
349.884
348.766
350.653
352.472
349.595
351.43
350.668
345.648
347.991
349.883
348.623
346.156
341.61
339.176
341.561
339.115
340.947
340.085
340.544
343.61
342.364
343.652
343.516
342.873
343.298
341.372
342.126
339.66
339.955
338.741
338.098
341.813
333.518
333.954
336.006
335.91
333.199
334.165
333.594
333.94
333.843
334.626
335.499
334.342
335.178
333.706
335.42
335.309
332.953
331.39
332.159
332.215
325.464
326.332
326.547
327.569
326.632
325.127
324.348
326.828
326.766
325.256
329.462
326.69
329.114
326.496
325.349
324.78
325.898
325.52
326.675
324.767
318.682
319.201
318.644
318.896
316.904
317.124
318.404
317.586
319.385
318.99
319.438
318.583
320.847
320.15
320.473
318.919
318.947
319.18
318.008
318.658
310.004
311.973
311.936
312.593
312.047
311.047
311.76
312.395
311.718
312.204
310.991
309.252
311.495
310.806
310.687
311.671
311.393
309.919
313.149
312.088
301.956
301.773
303.129
304.2
304.807
303.831
301.813
305.411
303.111
304.458
304.51
302.45
302.979
303.815
303.303
303.829
302.059
303.944
304.865
304.505
357.885
354.006
356.146
355.075
355.312
355.084
356.81
358.39
358.5
359.567
359.125
359.188
358.489
360.375
356.9
358.045
354.945
357.42
353.84
356.684
348.727
347.333
350.01
348.175
348.572
349.522
349.61
349.912
350.466
350.842
350.507
350.382
350.843
348.919
349.529
348.591
347.933
348.746
347.257
348.635
342.012
340.525
341.611
341.42
339.998
342.082
342.138
342.545
343.561
341.182
341.941
341.648
341.968
340.949
340.869
342.164
340.488
341.157
341.805
341.992
334.348
335.217
335.013
334.21
334.996
333.948
334.311
334.395
336.846
333.735
334.476
334.305
334.077
335.105
333.808
332.598
332.35
333.651
333.187
334.487
327.998
326.208
325.498
328.09
327.267
326.796
325.894
326.992
327.162
326.421
328.909
326.589
328.403
324.935
326.907
326.629
326.703
324.547
325.23
325.47
319.039
318.904
318.232
319.341
319.36
321.021
319.099
319.704
319.33
321.365
319.668
320.853
318.674
321.502
318.163
318.808
318.253
317.234
319.646
318.498
309.84
310.111
308.437
311.622
313.031
313.065
312.536
311.447
312.117
312.351
311.27
309.696
311.943
312.211
313.028
313.35
311.191
310.124
313.076
311.331
304.985
304.094
303.176
306.017
304.479
302.947
303.084
306.188
303.118
305.483
304.963
303.598
305.871
303.446
306.484
301.538
303.661
303.061
302.634
303.996
359.973
358.195
356.997
354.94
357.932
355.45
360.463
357.199
359.942
359.847
359.262
360.914
359.756
359.435
357.078
355.317
357.573
353.709
359.038
356.013
351.162
348.597
349.057
349.457
348.888
349.405
350.004
348.978
351.938
351.261
352.737
352.912
350.012
349.904
352.005
350.279
349.396
348.783
347.512
349.867
342.118
340.655
343.205
340.441
342.051
342.89
342.227
343.164
343.029
343.646
343.682
343.525
343.963
343.573
343.151
342.361
339.549
341.466
340.897
342.825
335.984
333.729
332.439
333.529
336.985
335.874
334.886
336.074
336.057
335.01
336.978
336.552
336.714
337.56
334.548
335.228
331.821
333.915
332.708
333.787
326.412
326.629
326.819
325.486
326.786
328.911
327.335
326.168
329.116
326.752
328.153
328.378
328.058
327.2
326.313
326.091
324.95
326.591
327.268
327.712
319.125
318.429
320.156
319.483
318.302
319.575
319.218
319.784
317.847
317.745
319.144
320.099
321.345
318.424
316.717
318.164
317.677
320.388
319.644
318.518
310.552
312.198
312.014
311.806
312.391
313.053
312.262
310.164
312.115
313.023
312.617
311.76
312.083
312.991
309.979
311.457
310.948
313.281
309.291
311.374
302.579
303.193
304.457
302.693
306.654
303.676
302.522
304.559
305.01
303.06
303.526
302.125
305.726
304.386
303.978
304.733
303.236
305.099
304.249
303.451
359.616
356.462
357.819
359.656
356.098
358.748
359.782
359.731
360.074
358.056
359.669
359.952
362.176
360.617
358.422
356.562
357.264
355.545
359.267
355.931
351.87
350.726
349.397
351.293
349.474
352.005
350.849
353.098
352.558
352.923
353.318
349.809
352.735
351.924
352.411
350.112
350.936
349.235
349.919
350.879
345.631
342.583
343.638
344.203
343.042
340.58
341.886
345.011
343.417
344.452
342.165
343.813
345.784
344.581
344.12
342.43
340.269
343.81
343.04
341.723
336.177
334.824
333.366
336.673
334.485
335.734
335.57
337.029
336.396
335.867
337.648
336.236
335.267
335.409
335.019
333.995
335.354
332.823
333.927
334.925
326.983
325.753
329.021
324.445
327.985
327.179
329.261
326.771
328.213
328.592
327.582
326.327
327.5
327.166
327.817
327.156
325.263
325.146
327.865
326.969
319.669
319.04
319.609
320.08
319.996
320.917
318.477
320.843
321.059
318.416
321.709
319.395
320.558
319.572
319.076
318.273
318.332
319.962
320.611
318.374
310.347
312.31
311.967
309.788
312.262
310.173
311.334
313.082
311.161
313.159
310.998
313.896
311.992
312.102
312.986
311.532
309.378
311.416
311.206
311.051
301.511
303.195
305.173
305.322
307.24
304.227
303.147
305.272
303.138
303.825
302.69
304.227
303.812
303.624
302.441
303.369
303.946
304.955
305.254
304.246
360.666
357.692
358.297
360.052
359.733
358.675
358.997
357.681
361.632
360.259
361.91
361.192
359.802
357.558
359.374
355.89
357.043
359.21
357.949
356.781
351.564
350.454
351.306
351.462
351.596
351.357
352.775
351.214
349.284
353.195
350.046
352.296
352.064
351.237
350.79
351.061
351.156
351.162
352.977
350.697
344.248
342.247
343.619
343.83
343.062
342.867
343.958
342.762
342.577
346.789
344.866
345.002
341.959
344.063
341.597
344.428
343.057
340.319
343.427
342.64
336.88
334.419
334.857
336.108
334.161
334.518
335.449
337.64
336.234
335.945
336.04
336.773
337.904
336.919
335.068
335.319
334.78
334.019
334.682
333.987
327.975
328.747
327.997
328.144
327.415
326.968
326.136
329.5
328.954
327.786
328.333
330.127
326.285
326.623
327.597
328.099
328.031
328.422
327.428
325.656
319.382
318.812
317.488
320.949
319.057
321.363
318.464
320.552
319.594
320.548
320.443
318.673
320.725
318.313
319.516
317.687
318.632
318.196
320.147
320.131
313.926
312.247
312.358
311.523
311.266
313.884
313.232
312.107
312.414
310.24
312.565
311.847
312.003
312.19
311.65
311.571
312.421
311.686
312.545
309.86
303.266
303.579
303.701
303.047
302.927
303.394
306.536
305.688
304.528
304.019
303.61
304.971
302.157
302.187
303.121
306.413
302.88
304.19
304.647
303.328
362.252
361.575
361.642
360.522
360.118
359.742
359.968
362.309
361.792
362.02
360.592
362.181
360.361
359.503
362.097
358.363
359.592
358.253
359.919
360.606
352.215
353.505
351.92
354.239
351.184
354.852
352.67
355.761
355.876
354.9
355.515
350.975
355.669
351.171
355.024
350.135
354.022
351.834
353.511
351.551
346.04
343.494
344.692
341.907
342.428
344.847
343.46
345.055
345.246
345.953
343.629
343.668
343.917
342.37
344.12
343.305
346.674
342.279
343.66
342.722
337.082
335.699
335.208
336.415
335.882
334.147
336.446
337.462
337.426
336.095
335.866
335.503
336.306
339.154
334.628
336.328
334.967
335.634
337.399
336.334
327.977
329.811
328.669
328.556
328.033
330.164
328.912
328.82
327.368
328.102
328.295
328.264
327.703
327.162
328.362
325.862
328.427
328.643
329.295
328.173
318.859
319.902
319.614
322.271
320.387
322.475
319.942
321.047
322.293
320.161
320.813
320.405
320.884
322.688
320.679
320.213
318.66
320.895
320.854
320.365
311.7
311.98
311.879
311.152
312.964
309.501
311.819
311.402
312.233
313.905
310.722
314.005
312.258
313.656
314.656
311.763
310.694
311.981
311.51
312.537
302.936
305.773
303.585
303.209
303.694
304.345
304.81
305.664
304.115
304.939
302.126
304.653
304.832
305.072
303.923
304.177
304.132
305.097
301.478
304.141
358.957
360.852
361.707
361.616
360.927
360.483
361.991
361.465
361.628
362.778
362.503
361.267
359.718
360.488
359.757
361.15
359.375
359.773
360.385
358.941
353.298
353.296
351.371
351.817
352.01
353.653
353.063
354.46
352.449
352.275
352.983
353.67
355.178
353.941
351.052
353.62
350.734
352.014
351.964
351.2
344.729
343.238
343.504
346.287
344.067
344.349
345.033
345.886
345.536
345.709
344.898
345.008
347.69
344.81
343.523
342.73
342.781
341.734
344.268
346.304
335.238
336.942
338.83
335.738
335.721
336.534
336.259
338.024
336.032
337.133
336.151
337.16
337.624
337.141
337.178
336.73
335.544
335.596
337.29
336.257
329.149
325.953
327.955
329.381
326.901
329.232
329.96
326.178
327.729
327.569
327.832
330.642
327.615
326.446
327.404
328.394
327.816
326.955
330.435
324.56
321.275
319.694
320.715
320.2
319.241
322.463
321.88
321.438
321.219
319.971
318.994
321.475
320.201
320.313
320.213
322.954
317.657
319.331
320.496
318.703
311.975
312.228
312.511
312.637
310.567
312.218
311.318
312.607
312.03
313.041
311.53
312.112
312.967
312.893
312.359
311.742
313.264
312.178
311.282
312.759
305.868
303.114
303.253
303.796
303.387
305.558
303.341
304.395
305.591
304.255
303.68
305.229
304.804
303.85
304.82
304.755
303.966
303.489
305.009
304.397
)
;

boundaryField
{
    hotSide
    {
        type            fixedGradient;
        gradient        nonuniform List<scalar> 
400
(
321.511
322.87
325.591
329.677
335.133
341.965
350.181
359.788
370.794
383.208
397.037
412.289
428.971
447.088
466.647
487.651
510.105
534.011
559.372
586.191
323.738
325.08
327.767
331.802
337.194
343.949
352.078
361.591
372.498
384.81
398.537
413.687
430.268
448.289
467.755
488.672
511.043
534.872
560.161
586.913
326.149
327.47
330.116
334.091
339.406
346.071
354.099
363.503
374.296
386.491
400.101
415.136
431.606
449.52
468.885
489.706
511.988
535.735
560.948
587.63
328.704
330
332.597
336.503
341.73
348.292
356.205
365.485
376.15
388.215
401.695
416.604
432.954
450.753
470.009
490.73
512.919
536.579
561.714
588.325
331.33
332.599
335.142
338.97
344.099
350.546
358.332
367.477
378.003
389.928
403.271
418.047
434.27
451.949
471.095
491.712
513.807
537.382
562.439
588.978
333.918
335.158
337.643
341.389
346.414
352.74
360.392
369.397
379.779
391.562
404.765
419.407
435.503
453.065
472.101
492.618
514.622
538.114
563.096
589.569
336.321
337.531
339.959
343.622
348.544
354.751
362.274
371.142
381.385
393.031
406.101
420.618
436.595
454.047
472.983
493.409
515.33
538.747
563.663
590.076
338.36
339.543
341.92
345.509
350.339
356.44
363.847
372.595
382.718
394.244
407.2
421.608
437.485
454.844
473.695
494.045
515.897
539.253
564.114
590.478
339.852
341.015
343.352
346.885
351.645
357.665
364.985
373.643
383.675
395.113
407.984
422.312
438.116
455.407
474.197
494.491
516.294
539.606
564.428
590.758
340.643
341.795
344.11
347.613
352.334
358.311
365.584
374.193
384.176
395.567
408.393
422.679
438.443
455.699
474.456
494.722
516.498
539.788
564.589
590.901
340.643
341.795
344.11
347.613
352.334
358.311
365.584
374.193
384.176
395.567
408.393
422.679
438.443
455.699
474.456
494.722
516.498
539.788
564.589
590.901
339.852
341.015
343.352
346.885
351.645
357.665
364.985
373.643
383.675
395.113
407.984
422.312
438.116
455.407
474.197
494.491
516.294
539.606
564.428
590.758
338.36
339.543
341.92
345.509
350.339
356.44
363.847
372.595
382.718
394.244
407.2
421.608
437.485
454.844
473.695
494.045
515.897
539.253
564.114
590.478
336.321
337.531
339.959
343.622
348.544
354.751
362.274
371.142
381.385
393.031
406.101
420.618
436.595
454.047
472.983
493.409
515.33
538.747
563.663
590.076
333.918
335.158
337.643
341.389
346.414
352.74
360.392
369.397
379.779
391.562
404.765
419.407
435.503
453.065
472.101
492.618
514.622
538.114
563.096
589.569
331.33
332.599
335.142
338.97
344.099
350.546
358.332
367.477
378.003
389.928
403.271
418.047
434.27
451.949
471.095
491.712
513.807
537.382
562.439
588.978
328.704
330
332.597
336.503
341.73
348.292
356.205
365.485
376.15
388.215
401.695
416.604
432.954
450.753
470.009
490.73
512.919
536.579
561.714
588.325
326.149
327.47
330.116
334.091
339.406
346.071
354.099
363.503
374.296
386.491
400.101
415.136
431.606
449.52
468.885
489.706
511.988
535.735
560.948
587.63
323.738
325.08
327.767
331.802
337.194
343.949
352.078
361.591
372.498
384.81
398.537
413.687
430.268
448.289
467.755
488.672
511.043
534.872
560.161
586.913
321.511
322.87
325.591
329.677
335.133
341.965
350.181
359.788
370.794
383.208
397.037
412.289
428.971
447.088
466.647
487.651
510.105
534.011
559.372
586.191
)
;
    }
    coldSide
    {
        type            mixed;
        refValue        uniform 300;
        refGradient     uniform 0;
        valueFraction   uniform 0.991591;
        source          uniform 0;
        value           nonuniform List<scalar> 
400
(
300.032
300.023
300.033
300.022
300.037
300.017
300.028
300.018
300.023
300.033
300.025
300.036
300.038
300.016
300.042
300.022
300.013
300.027
300.025
300.049
300.021
300.033
300.015
300.036
300.034
300.023
300.021
300.029
300.012
300.026
300.017
300.034
300.015
300.015
300.034
300.027