/*--------------------------------*- C++ -*----------------------------------*\
| =========                 |                                                 |
| \\      /  F ield         | OpenFOAM: The Open Source CFD Toolbox           |
|  \\    /   O peration     | Version:  2212                                  |
|   \\  /    A nd           | Website:  www.openfoam.com                      |
|    \\/     M anipulation  |                                                 |
\*---------------------------------------------------------------------------*/
FoamFile
{
    version     2.0;
    format      ascii;
    arch        "LSB;label=32;scalar=64";
    class       volScalarField;
    location    "0";
    object      T;
}
// * * * * * * * * * * * * * * * * * * * * * * * * * * * * * * * * * * * * * //

dimensions      [0 0 0 1 0 0 0];

internalField   nonuniform List<scalar> 
3200
(
344.095
344.948
345.764
346.715
347.412
347.97
348.455
348.806
348.647
348.488
348.498
348.649
347.883
347.459
346.579
346.201
345.147
344.288
343.29
342.264
338.263
338.998
339.688
340.555
341.138
341.622
342.078
342.353
342.211
342.054
342.092
342.182
341.524
341.155
340.397
340.101
339.18
338.455
337.607
336.755
332.389
333.018
333.587
334.324
334.839
335.259
335.629
335.867
335.757
335.64
335.62
335.696
335.168
334.879
334.233
333.98
333.212
332.602
331.898
331.206
326.455
327.02
327.492
328.043
328.571
328.853
329.169
329.351
329.258
329.197
329.186
329.204
328.816
328.608
328.027
327.828
327.207
326.693
326.152
325.632
320.608
321.03
321.428
321.794
322.226
322.455
322.68
322.87
322.784
322.696
322.724
322.717
322.417
322.303
321.782
321.638
321.145
320.757
320.397
319.966
314.741
315.021
315.351
315.553
315.873
316.065
316.26
316.341
316.298
316.19
316.254
316.269
316.028
315.961
315.574
315.458
315.113
314.831
314.619
314.248
308.85
309.031
309.2
309.312
309.539
309.68
309.768
309.842
309.788
309.727
309.758
309.777
309.62
309.606
309.338
309.288
309.085
308.904
308.811
308.529
302.982
303.026
303.09
303.127
303.214
303.255
303.267
303.294
303.293
303.259
303.266
303.277
303.223
303.225
303.117
303.114
303.047
302.966
302.957
302.84
345.038
345.956
346.63
347.506
348.428
348.767
349.378
349.567
349.666
349.482
349.471
349.447
348.839
348.409
347.635
347.071
346.018
345.014
343.916
343.035
339.049
339.845
340.365
341.198
341.934
342.219
342.847
342.949
343.059
342.872
342.908
342.872
342.318
341.994
341.285
340.786
339.911
339.069
338.136
337.373
333.063
333.701
334.161
334.821
335.495
335.701
336.296
336.34
336.475
336.283
336.356
336.277
335.803
335.541
334.985
334.525
333.776
333.13
332.36
331.665
327.061
327.554
327.978
328.457
329.067
329.215
329.731
329.716
329.861
329.686
329.778
329.658
329.278
329.07
328.636
328.234
327.675
327.151
326.542
325.951
321.024
321.421
321.797
322.085
322.636
322.699
323.117
323.122
323.224
323.094
323.175
323.063
322.76
322.607
322.309
321.97
321.55
321.139
320.675
320.195
315.01
315.329
315.593
315.753
316.153
316.207
316.519
316.523
316.573
316.467
316.544
316.47
316.281
316.131
315.961
315.705
315.378
315.088
314.76
314.473
309.014
309.205
309.401
309.461
309.711
309.686
309.948
309.926
309.95
309.881
309.901
309.875
309.809
309.687
309.605
309.424
309.233
309.068
308.852
308.71
303.026
303.085
303.158
303.173
303.237
303.226
303.332
303.31
303.349
303.32
303.319
303.325
303.284
303.262
303.244
303.175
303.101
303.032
302.958
302.936
345.908
346.85
347.86
348.711
349.48
349.964
350.517
350.799
351.043
350.835
350.905
350.795
349.947
349.472
348.818
348.189
347.026
345.959
344.969
344.071
339.832
340.6
341.443
342.176
342.887
343.281
343.746
343.989
344.222
344.017
344.124
344.051
343.27
342.885
342.324
341.774
340.768
339.83
338.984
338.2
333.692
334.353
335.074
335.675
336.297
336.612
336.993
337.219
337.389
337.215
337.34
337.28
336.639
336.25
335.856
335.373
334.503
333.696
332.971
332.306
327.565
328.082
328.701
329.176
329.718
329.926
330.25
330.438
330.559
330.45
330.558
330.464
330.019
329.618
329.366
328.938
328.224
327.578
326.979
326.421
321.43
321.844
322.358
322.717
323.176
323.272
323.537
323.695
323.78
323.72
323.76
323.664
323.337
323.028
322.839
322.492
321.955
321.47
321
320.553
315.309
315.617
315.961
316.255
316.599
316.661
316.801
316.902
316.955
316.935
316.973
316.904
316.676
316.441
316.335
316.061
315.705
315.336
315.033
314.679
309.189
309.403
309.602
309.776
309.97
310.017
310.071
310.151
310.174
310.169
310.165
310.164
310.042
309.888
309.815
309.681
309.472
309.233
309.042
308.821
303.078
303.147
303.224
303.292
303.354
303.358
303.368
303.378
303.419
303.39
303.409
303.411
303.36
303.298
303.296
303.26
303.187
303.098
303.014
302.948
347.103
348.023
349.059
350.091
350.8
351.383
351.548
351.882
351.996
352.267
352.033
352.015
351.416
350.859
350.151
349.234
348.327
347.253
346.113
345.006
340.841
341.612
342.462
343.413
344.023
344.478
344.581
344.907
345.013
345.298
345.086
345.12
344.559
344.044
343.469
342.613
341.876
340.961
339.945
339.062
334.589
335.207
335.87
336.717
337.28
337.592
337.662
337.98
338.099
338.34
338.158
338.154
337.712
337.258
336.814
336.009
335.431
334.663
333.8
333.057
328.303
328.807
329.371
330.02
330.519
330.733
330.807
331.083
331.158
331.39
331.246
331.219
330.828
330.467
330.113
329.434
328.954
328.362
327.652
327.059
321.987
322.403
322.81
323.313
323.727
323.883
323.933
324.198
324.248
324.421
324.279
324.28
323.956
323.657
323.434
322.875
322.492
322.071
321.496
321.046
315.668
316.031
316.278
316.667
316.945
317.067
317.072
317.33
317.338
317.425
317.278
317.369
317.111
316.912
316.765
316.323
316.081
315.796
315.338
315.024
309.402
309.633
309.771
310.012
310.145
310.245
310.237
310.428
310.399
310.43
310.352
310.471
310.292
310.137
310.082
309.812
309.681
309.499
309.206
309.014
303.161
303.219
303.272
303.351
303.396
303.429
303.44
303.507
303.489
303.491
303.468
303.538
303.458
303.397
303.378
303.283
303.232
303.18
303.092
302.998
348.226
349.091
350.26
351.144
351.731
352.563
352.924
353.276
353.313
353.608
353.474
353.152
352.714
352.058
351.356
350.291
349.525
348.484
347.419
345.904
341.794
342.486
343.515
344.263
344.789
345.485
345.802
346.132
346.153
346.427
346.334
346.064
345.666
345.117
344.493
343.545
342.906
341.997
341.078
339.816
335.372
335.918
336.804
337.409
337.895
338.448
338.705
339.03
339.029
339.261
339.197
338.985
338.631
338.183
337.643
336.77
336.241
335.517
334.727
333.763
328.956
329.375
330.104
330.584
331.031
331.399
331.648
331.898
331.939
332.089
332.052
331.923
331.606
331.259
330.797
329.998
329.667
329.013
328.418
327.666
322.558
322.83
323.432
323.772
324.179
324.397
324.6
324.82
324.853
324.937
324.934
324.892
324.563
324.308
323.95
323.301
323.093
322.584
322.084
321.554
316.096
316.335
316.716
317.023
317.286
317.409
317.556
317.757
317.746
317.789
317.814
317.818
317.562
317.353
317.119
316.613
316.536
316.162
315.767
315.42
309.636
309.837
310.013
310.227
310.363
310.441
310.504
310.637
310.643
310.675
310.721
310.7
310.547
310.415
310.24
309.969
309.935
309.725
309.492
309.29
303.221
303.312
303.352
303.446
303.492
303.508
303.525
303.584
303.557
303.579
303.594
303.591
303.525
303.483
303.413
303.341
303.341
303.255
303.169
303.117
349.203
350.307
351.306
352.327
352.688
353.813
354.116
354.443
354.609
354.737
354.752
354.47
354.138
353.455
352.551
351.607
350.789
349.501
348.319
347.174
342.624
343.589
344.433
345.299
345.58
346.587
346.913
347.139
347.257
347.427
347.432
347.155
346.887
346.334
345.52
344.697
344.013
342.942
341.891
340.907
336.045
336.871
337.599
338.274
338.485
339.414
339.663
339.902
339.909
340.123
340.13
339.867
339.646
339.147
338.516
337.768
337.249
336.325
335.439
334.66
329.487
330.182
330.735
331.317
331.474
332.227
332.435
332.624
332.615
332.844
332.839
332.597
332.456
331.985
331.532
330.862
330.495
329.687
328.984
328.368
322.94
323.477
323.916
324.343
324.476
325.021
325.21
325.371
325.341
325.586
325.51
325.378
325.253
324.887
324.503
324.007
323.728
323.049
322.548
322.055
316.34
316.802
317.114
317.392
317.49
317.843
318.018
318.165
318.069
318.24
318.203
318.129
318.041
317.786
317.488
317.174
316.962
316.441
316.141
315.748
309.81
310.104
310.307
310.419
310.487
310.722
310.817
310.922
310.854
310.972
310.913
310.873
310.815
310.662
310.48
310.298
310.19
309.852
309.677
309.481
303.27
303.385
303.451
303.501
303.501
303.603
303.618
303.673
303.661
303.671
303.674
303.65
303.627
303.565
303.502
303.452
303.424
303.323
303.234
303.169
350.403
351.295
352.271
353.391
353.964
354.843
355.476
355.731
355.863
355.885
355.861
355.781
355.292
354.471
353.77
352.778
351.867
350.576
349.371
348.271
343.695
344.449
345.24
346.193
346.709
347.513
348.061
348.255
348.373
348.392
348.386
348.333
347.912
347.157
346.622
345.706
344.901
343.823
342.766
341.835
336.971
337.631
338.268
339.054
339.453
340.169
340.647
340.776
340.918
340.935
340.912
340.95
340.551
339.922
339.463
338.629
337.965
337.069
336.151
335.448
330.253
330.788
331.329
331.956
332.281
332.868
333.232
333.318
333.457
333.485
333.456
333.521
333.149
332.704
332.275
331.579
331.059
330.333
329.523
329.003
323.526
323.937
324.396
324.906
325.12
325.515
325.847
325.866
325.99
326.085
326.008
326.079
325.754
325.456
325.102
324.562
324.145
323.574
322.938
322.572
316.793
317.086
317.421
317.795
317.962
318.197
318.477
318.425
318.5
318.643
318.576
318.624
318.392
318.195
317.967
317.552
317.233
316.818
316.367
316.144
310.071
310.231
310.487
310.677
310.783
310.926
311.067
311.045
311.043
311.239
311.17
311.179
311.03
310.941
310.787
310.516
310.354
310.08
309.823
309.708
303.375
303.429
303.532
303.58
303.627
303.669
303.7
303.693
303.698
303.775
303.737
303.78
303.705
303.687
303.607
303.524
303.459
303.394
303.286
303.263
351.228
352.438
353.195
354.29
355.172
355.824
356.341
356.787
357.021
356.925
356.99
356.749
356.313
355.587
354.821
353.601
352.681
351.553
350.45
349.131
344.409
345.406
346.053
347.01
347.748
348.329
348.781
349.167
349.427
349.289
349.419
349.159
348.755
348.175
347.483
346.455
345.68
344.683
343.72
342.611
337.596
338.402
338.983
339.774
340.326
340.86
341.274
341.525
341.765
341.69
341.868
341.586
341.224
340.748
340.196
339.342
338.699
337.811
337.005
336.099
330.754
331.418
331.881
332.51
332.93
333.458
333.801
333.927
334.135
334.103
334.263
333.993
333.693
333.323
332.902
332.205
331.705
330.935
330.313
329.589
323.906
324.447
324.786
325.274
325.628
326.019
326.326
326.357
326.513
326.526
326.645
326.448
326.172
325.88
325.577
325.065
324.68
324.038
323.589
323.058
317.094
317.474
317.698
318.035
318.326
318.569
318.785
318.821
318.94
318.962
319.051
318.892
318.667
318.459
318.254
317.917
317.657
317.156
316.89
316.532
310.278
310.478
310.612
310.837
311.001
311.131
311.26
311.293
311.372
311.363
311.48
311.337
311.206
311.086
310.986
310.755
310.623
310.297
310.186
309.968
303.446
303.514
303.552
303.617
303.707
303.721
303.771
303.775
303.808
303.805
303.86
303.781
303.777
303.698
303.681
303.621
303.576
303.453
303.429
303.342
352.064
353.42
354.369
355.179
356.06
356.72
357.357
357.835
358.005
358.111
358.255
357.921
357.358
356.604
355.833
354.775
353.921
352.474
351.23
350.313
345.114
346.261
347.044
347.796
348.495
349.083
349.625
350.049
350.28
350.277
350.471
350.191
349.681
349.101
348.366
347.443
346.696
345.454
344.387
343.661
338.155
339.114
339.747
340.411
340.988
341.504
341.895
342.289
342.501
342.494
342.724
342.433
342.033
341.587
340.909
340.175
339.477
338.433
337.539
336.978
331.242
331.994
332.51
333.034
333.486
333.907
334.238
334.535
334.784
334.693
334.973
334.651
334.398
334.05
333.488
332.876
332.278
331.431
330.694
330.297
324.302
324.859
325.292
325.675
326.011
326.353
326.623
326.808
327.037
326.947
327.223
326.943
326.74
326.51
326.015
325.572
325.096
324.45
323.863
323.548
317.389
317.704
318.064
318.352
318.559
318.824
319.019
319.14
319.282
319.216
319.435
319.261
319.113
318.917
318.571
318.25
317.926
317.489
317.054
316.823
310.439
310.596
310.826
311.024
311.14
311.295
311.417
311.458
311.587
311.511
311.638
311.584
311.477
311.368
311.15
310.963
310.744
310.478
310.236
310.08
303.474
303.549
303.633
303.707
303.729
303.776
303.823
303.832
303.875
303.862
303.894
303.882
303.86
303.822
303.747
303.686
303.592
303.522
303.421
303.394
352.951
354.112
355.264
356.222
356.959
357.612
358.316
358.854
359.003
359.075
359.034
358.616
358.15
357.603
356.714
355.783
354.752
353.388
352.214
351.037
345.888
346.827
347.893
348.649
349.319
349.892
350.523
350.983
351.114
351.157
351.149
350.784
350.375
349.865
349.116
348.321
347.4
346.241
345.226
344.273
338.814
339.592
340.479
341.129
341.692
342.165
342.684
343.069
343.254
343.259
343.216
343.002
342.571
342.156
341.551
340.853
340.122
339.113
338.297
337.454
331.668
332.369
333.067
333.645
334.106
334.45
334.871
335.208
335.406
335.398
335.317
335.214
334.829
334.505
333.984
333.416
332.809
332.02
331.337
330.647
324.606
325.206
325.641
326.168
326.535
326.803
327.085
327.333
327.528
327.513
327.441
327.374
327.097
326.861
326.442
325.959
325.483
324.909
324.398
323.804
317.568
318.029
318.283
318.724
318.977
319.132
319.334
319.538
319.665
319.652
319.614
319.536
319.384
319.255
318.886
318.536
318.202
317.823
317.408
317.008
310.54
310.817
310.952
311.277
311.372
311.493
311.603
311.701
311.796
311.797
311.785
311.725
311.66
311.611
311.342
311.122
310.945
310.694
310.468
310.254
303.533
303.635
303.68
303.803
303.794
303.86
303.896
303.895
303.973
303.948
303.936
303.934
303.901
303.891
303.799
303.715
303.664
303.588
303.542
303.438
353.616
354.903
356.17
356.98
357.845
358.516
359.314
359.659
359.742
359.803
359.889
359.552
358.905
358.217
357.488
356.658
355.277
354.237
353.17
351.748
346.484
347.547
348.624
349.323
350.082
350.668
351.347
351.663
351.779
351.768
351.835
351.628
350.999
350.421
349.778
349.111
347.865
347.008
346.119
344.84
339.331
340.213
341.068
341.744
342.326
342.834
343.396
343.689
343.8
343.766
343.768
343.695
343.12
342.674
342.05
341.497
340.516
339.798
339.022
337.982
332.211
332.893
333.549
334.157
334.628
335.062
335.518
335.722
335.817
335.775
335.743
335.714
335.237
334.907
334.397
333.915
333.147
332.572
331.902
331.09
325.075
325.557
326.088
326.594
326.932
327.303
327.662
327.792
327.875
327.801
327.773
327.719
327.391
327.137
326.732
326.329
325.792
325.347
324.786
324.191
317.929
318.231
318.623
319.043
319.29
319.515
319.793
319.851
319.907
319.825
319.849
319.767
319.577
319.382
319.097
318.79
318.447
318.17
317.68
317.256
310.768
310.94
311.181
311.481
311.587
311.722
311.917
311.928
311.97
311.87
311.911
311.843
311.769
311.635
311.463
311.271
311.095
310.932
310.602
310.334
303.603
303.683
303.756
303.861
303.868
303.922
304.007
304.016
304.032
303.972
303.981
303.972
303.954
303.877
303.842
303.769
303.718
303.671
303.553
303.463
354.468
355.489
356.649
357.666
358.577
359.371
360.181
360.487
360.591
360.749
360.743
360.182
359.642
359.148
358.222
357.27
356.114
354.999
353.929
352.879
347.195
348.101
349.028
349.915
350.727
351.385
352.086
352.372
352.459
352.615
352.674
352.153
351.642
351.228
350.425
349.575
348.541
347.647
346.793
345.86
339.926
340.694
341.438
342.171
342.903
343.46
344.021
344.267
344.366
344.445
344.563
344.144
343.61
343.302
342.626
341.882
341.039
340.3
339.663
338.846
332.652
333.278
333.892
334.491
335.106
335.606
335.976
336.146
336.316
336.267
336.443
336.117
335.614
335.416
334.832
334.244
333.578
332.95
332.496
331.803
325.418
325.877
326.379
326.803
327.33
327.724
327.956
328.061
328.251
328.137
328.373
328.097
327.684
327.501
327.129
326.627
326.12
325.628
325.297
324.842
318.173
318.51
318.855
319.119
319.542
319.843
319.941
320.049
320.188
320.114
320.258
320.059
319.79
319.613
319.406
319.034
318.632
318.312
318.084
317.802
310.938
311.128
311.344
311.508
311.765
311.934
312.004
312.069
312.125
312.125
312.147
312.058
311.891
311.752
311.636
311.468
311.172
310.973
310.858
310.694
303.67
303.736
303.814
303.875
303.952
304.006
304.017
304.055
304.069
304.093
304.058
304.047
303.965
303.931
303.904
303.844
303.734
303.678
303.654
303.598
355.08
356.123
357.288
358.218
359.374
360.024
360.501
361.096
361.369
361.311
361.296
361.013
360.421
359.801
358.829
357.888
356.583
355.757
354.591
353.289
347.718
348.64
349.604
350.403
351.449
351.955
352.378
352.89
353.163
353.085
353.12
352.837
352.336
351.78
350.963
350.173
348.981
348.309
347.322
346.236
340.403
341.179
341.941
342.639
343.544
343.917
344.292
344.785
344.96
344.898
344.959
344.676
344.291
343.778
343.117
342.417
341.432
340.864
340.03
339.142
333.094
333.654
334.287
334.873
335.625
335.935
336.203
336.627
336.763
336.703
336.775
336.515
336.239
335.777
335.276
334.712
333.859
333.434
332.732
332.041
325.706
326.146
326.612
327.093
327.718
327.938
328.133
328.492
328.606
328.56
328.629
328.406
328.199
327.833
327.415
327.002
326.349
326.007
325.491
324.982
318.337
318.647
318.99
319.384
319.805
319.957
320.129
320.404
320.461
320.401
320.463
320.343
320.138
319.89
319.556
319.3
318.819
318.578
318.234
317.847
310.978
311.183
311.417
311.623
311.898
311.989
312.103
312.237
312.304
312.257
312.332
312.236
312.098
311.934
311.714
311.61
311.266
311.133
310.963
310.716
303.668
303.736
303.854
303.872
304.008
304.021
304.057
304.091
304.119
304.117
304.138
304.088
304.041
304.002
303.929
303.866
303.752
303.716
303.684
303.6
355.754
356.714
357.918
358.875
359.91
360.676
361.214
361.617
361.92
361.901
361.855
361.574
361.17
360.363
359.639
358.566
357.404
356.207
354.751
353.567
348.376
349.144
350.173
350.953
351.846
352.575
352.995
353.343
353.564
353.621
353.597
353.329
353.02
352.264
351.674
350.734
349.689
348.713
347.435
346.414
340.946
341.595
342.437
343.07
343.782
344.494
344.784
345.072
345.267
345.32
345.355
345.061
344.844
344.19
343.732
342.89
342.026
341.168
340.156
339.26
333.504
334.059
334.655
335.238
335.816
336.342
336.616
336.812
337.022
337.082
337.135
336.848
336.694
336.141
335.739
335.066
334.382
333.604
332.84
332.097
326.069
326.507
326.949
327.398
327.878
328.223
328.437
328.569
328.775
328.866
328.871
328.66
328.583
328.11
327.744
327.232
326.752
326.125
325.514
324.978
318.594
318.951
319.275
319.587
319.931
320.128
320.287
320.385
320.524
320.62
320.639
320.42
320.44
320.093
319.836
319.453
319.122
318.645
318.214
317.889
311.161
311.396
311.577
311.78
311.97
312.102
312.18
312.244
312.333
312.404
312.393
312.261
312.276
312.078
311.908
311.643
311.503
311.153
310.94
310.735
303.739
303.816
303.89
303.946
304.025
304.065
304.095
304.105
304.14
304.168
304.174
304.111
304.125
304.041
303.984
303.908
303.859
303.74
303.684
303.611
355.977
356.927
358.072
359.501
360.388
360.967
361.544
361.873
362.372
362.523
362.448
362.124
361.606
360.789
360.197
359.245
357.976
356.581
355.3
353.672
348.553
349.288
350.298
351.528
352.317
352.832
353.244
353.617
354.021
354.146
354.079
353.816
353.356
352.657
352.094
351.337
350.221
349.021
347.903
346.553
341.088
341.667
342.541
343.564
344.245
344.676
344.985
345.363
345.702
345.781
345.705
345.521
345.123
344.518
344.066
343.408
342.512
341.476
340.507
339.436
333.604
334.065
334.769
335.568
336.21
336.509
336.752
337.088
337.406
337.445
337.325
337.239
336.913
336.376
336.07
335.499
334.786
333.941
333.094
332.334
326.119
326.442
327.041
327.631
328.173
328.383
328.582
328.824
329.072
329.091
329.004
328.944
328.729
328.301
328.036
327.601
327.065
326.423
325.679
325.257
318.673
318.877
319.389
319.725
320.099
320.259
320.428
320.595
320.759
320.77
320.684
320.659
320.554
320.247
320.01
319.726
319.338
318.905
318.314
318.099
311.211
311.341
311.669
311.841
312.07
312.143
312.291
312.362
312.476
312.495
312.405
312.403
312.344
312.169
312.026
311.837
311.619
311.36
310.958
310.907
303.763
303.815
303.923
303.976
304.028
304.07
304.123
304.152
304.172
304.186
304.16
304.134
304.136
304.07
304.022
303.947
303.885
303.829
303.682
303.663
355.946
357.246
358.433
359.768
360.836
361.443
361.929
362.374
362.777
362.79
362.895
362.716
362.318
361.382
360.58
359.572
358.326
357.017
355.58
354.076
348.532
349.576
350.543
351.774
352.708
353.208
353.604
354.049
354.392
354.392
354.497
354.336
353.982
353.169
352.45
351.619
350.595
349.39
348.168
346.87
341.127
341.936
342.73
343.819
344.578
345.007
345.304
345.692
346.043
346.016
346.111
345.984
345.667
344.952
344.378
343.673
342.779
341.771
340.745
339.671
333.659
334.249
334.975
335.879
336.47
336.796
337.034
337.334
337.647
337.613
337.702
337.611
337.353
336.736
336.338
335.702
334.979
334.173
333.337
332.53
326.205
326.615
327.16
327.909
328.408
328.59
328.76
329.026
329.232
329.233
329.282
329.212
329.04
328.519
328.298
327.758
327.212
326.555
325.951
325.354
318.762
319.026
319.385
319.92
320.312
320.383
320.508
320.733
320.835
320.874
320.895
320.845
320.76
320.381
320.242
319.807
319.43
318.97
318.57
318.151
311.261
311.455
311.671
311.966
312.203
312.211
312.316
312.448
312.481
312.541
312.505
312.525
312.498
312.259
312.151
311.889
311.664
311.417
311.16
310.912
303.789
303.837
303.894
304.004
304.09
304.09
304.145
304.155
304.193
304.187
304.2
304.181
304.217
304.099
304.072
303.949
303.899
303.823
303.753
303.664
356.331
357.676
358.832
360.018
361.099
361.671
362.348
362.759
363.004
363.268
363.022
362.543
362.444
361.669
360.84
359.557
358.496
357.258
355.762
354.225
348.835
349.969
350.933
352.017
352.883
353.404
353.965
354.341
354.576
354.784
354.563
354.183
354.112
353.385
352.652
351.576
350.663
349.6
348.271
346.992
341.368
342.279
343.067
344.032
344.674
345.176
345.637
345.984
346.171
346.345
346.13
345.838
345.804
345.119
344.507
343.62
342.864
341.969
340.809
339.777
333.851
334.573
335.201
336.031
336.488
336.932
337.314
337.611
337.789
337.902
337.703
337.435
337.449
336.882
336.389
335.682
335.095
334.331
333.371
332.569
326.363
326.902
327.345
328
328.353
328.682
328.969
329.271
329.412
329.454
329.314
329.03
329.147
328.674
328.294
327.773
327.33
326.715
325.957
325.361
318.825
319.219
319.553
319.974
320.248
320.47
320.708
320.939
321.016
321.016
320.892
320.682
320.859
320.495
320.209
319.785
319.569
319.14
318.544
318.121
311.31
311.514
311.754
311.999
312.161
312.279
312.445
312.587
312.627
312.624
312.545
312.367
312.527
312.305
312.161
311.862
311.739
311.487
311.129
310.871
303.774
303.875
303.935
304.032
304.076
304.108
304.182
304.239
304.239
304.212
304.189
304.133
304.204
304.142
304.064
303.953
303.931
303.834
303.77
303.652
356.533
357.858
358.809
359.8
361.166
362.026
362.512
363.03
363.422
363.21
363.074
362.637
362.236
361.77
360.995
359.678
358.714
357.399
356.094
354.655
348.97
350.157
350.903
351.778
352.951
353.709
354.152
354.574
355.019
354.754
354.614
354.238
353.891
353.504
352.875
351.697
350.889
349.709
348.624
347.382
341.435
342.467
343.009
343.742
344.737
345.411
345.811
346.167
346.603
346.324
346.15
345.853
345.574
345.289
344.696
343.754
343.082
342.071
341.128
340.097
333.91
334.813
335.13
335.774
336.575
337.137
337.44
337.771
338.146
337.912
337.718
337.521
337.296
337.049
336.584
335.827
335.25
334.456
333.659
332.829
326.343
327.057
327.338
327.829
328.431
328.895
329.095
329.368
329.646
329.467
329.292
329.21
328.989
328.834
328.437
327.886
327.451
326.758
326.197
325.564
318.833
319.317
319.539
319.899
320.31
320.688
320.726
320.959
321.194
321.069
320.931
320.869
320.715
320.626
320.339
319.928
319.642
319.086
318.71
318.312
311.326
311.57
311.759
311.961
312.185
312.437
312.433
312.588
312.735
312.676
312.566
312.526
312.438
312.393
312.188
311.967
311.82
311.427
311.245
311.045
303.782
303.884
303.948
304.017
304.086
304.17
304.161
304.224
304.274
304.237
304.213
304.198
304.146
304.151
304.064
304.003
303.966
303.83
303.765
303.699
356.423
357.655
358.611
359.898
361.274
361.898
362.833
363.284
363.259
363.345
363.18
362.754
362.269
361.606
361
359.892
358.853
357.317
356.057
354.624
348.866
349.958
350.744
351.879
353.067
353.651
354.456
354.847
354.785
354.924
354.702
354.339
353.887
353.394
352.877
351.859
351.036
349.675
348.576
347.413
341.312
342.286
342.898
343.868
344.819
345.42
346.071
346.377
346.327
346.464
346.237
345.935
345.564
345.18
344.741
343.868
343.198
342.016
341.104
340.157
333.807
334.606
335.059
335.88
336.591
337.137
337.711
337.928
337.902
338.028
337.79
337.58
337.254
336.932
336.611
335.901
335.348
334.387
333.622
332.882
326.262
326.885
327.257
327.92
328.433
328.893
329.319
329.495
329.513
329.598
329.397
329.21
328.944
328.744
328.502
327.887
327.516
326.749
326.146
325.595
318.739
319.19
319.436
319.951
320.311
320.667
320.924
321.054
321.108
321.137
320.987
320.87
320.651
320.561
320.355
319.901
319.633
319.112
318.669
318.285
311.252
311.509
311.671
312.015
312.218
312.425
312.566
312.64
312.678
312.662
312.582
312.545
312.366
312.364
312.203
311.934
311.811
311.462
311.204
311.015
303.766
303.849
303.907
304.024
304.11
304.157
304.209
304.237
304.254
304.238
304.221
304.203
304.147
304.153
304.07
304.006
303.963
303.842
303.741
303.684
356.222
357.58
358.724
359.848
361.15
361.892
362.558
363.111
363.207
363.239
363.393
362.783
362.248
361.716
361.114
360.019
358.888
357.316
356.05
354.407
348.71
349.888
350.837
351.84
352.914
353.62
354.172
354.697
354.74
354.781
354.902
354.376
353.913
353.468
352.948
352.002
351.052
349.649
348.596
347.159
341.189
342.233
342.987
343.826
344.772
345.362
345.806
346.293
346.325
346.319
346.431
346.005
345.611
345.212
344.824
344.026
343.213
341.999
341.084
339.906
333.693
334.554
335.142
335.828
336.603
337.08
337.441
337.912
337.935
337.853
337.954
337.645
337.295
336.975
336.668
335.981
335.382
334.355
333.561
332.649
326.216
326.863
327.307
327.855
328.469
328.825
329.094
329.516
329.543
329.413
329.48
329.253
329.003
328.779
328.523
327.993
327.539
326.722
326.071
325.42
318.724
319.189
319.477
319.876
320.349
320.594
320.792
321.05
321.164
320.988
321.066
320.901
320.754
320.608
320.37
319.977
319.669
319.102
318.628
318.147
311.241
311.524
311.688
311.933
312.225
312.381
312.499
312.595
312.714
312.61
312.606
312.556
312.48
312.387
312.22
312.011
311.792
311.459
311.211
310.873
303.746
303.868
303.907
303.989
304.101
304.144
304.192
304.202
304.249
304.246
304.2
304.211
304.204
304.156
304.092
304.041
303.948
303.856
303.772
303.65
)
;

boundaryField
{
    hotSide
    {
        type            fixedGradient;
        gradient        nonuniform List<scalar> 
400
(
462.384
476.121
489.433
502.262
514.55
526.239
537.273
547.599
557.167
565.927
573.836
580.851
586.938
592.063
596.198
599.32
601.413
602.464
602.465
601.416
473.839
487.967
501.663
514.866
527.516
539.554
550.922
561.565
571.431
580.471
588.637
595.889
602.187
607.499
611.795
615.052
617.252
618.381
618.433
617.405
483.967
498.45
512.493
526.035
539.014
551.368
563.04
573.972
584.111
593.406
601.809
609.278
615.772
621.257
625.704
629.088
631.39
632.596
632.699
631.698
492.71
507.507
521.858
535.701
548.972
561.609
573.552
584.743
595.127
604.651
613.269
620.933
627.605
633.249
637.835
641.337
643.735
645.015
645.171
644.198
500.021
515.089
529.707
543.81
557.335
570.218
582.397
593.815
604.414
614.141
622.947
630.786
637.617
643.403
648.114
651.723
654.211
655.562
655.768
654.827
505.865
521.159
536
550.322
564.061
577.151
589.531
601.141
611.923
621.823
630.791
638.78
645.749
651.66
656.482
660.187
662.756
664.173
664.429
663.521
510.218
525.692
540.711
555.209
569.119
582.377
594.919
606.685
617.617
627.66
636.762
644.877
651.961
657.978
662.895
666.684
669.324
670.801
671.105
670.233
513.067
528.674
543.825
558.454
572.493
585.877
598.543
610.428
621.475
631.628
640.836
649.049
656.226
662.329
667.323
671.183
673.885
675.416
675.764
674.928
514.41
530.101
545.338
560.051
574.175
587.644
600.393
612.36
623.487
633.717
642.999
651.285
658.531
664.697
669.753
673.668
676.422
677.998
678.388
677.587
514.253
529.981
545.255
560.007
574.172
587.682
600.473
612.483
623.654
633.928
643.254
651.584
658.873
665.083
670.18
674.136
676.93
678.545
678.971
678.204
512.612
528.326
543.59
558.336
572.496
586.004
598.797
610.811
621.989
632.274
641.613
649.958
657.265
663.495
668.615
672.597
675.419
677.063
677.521
676.788
509.51
525.162
540.368
555.06
569.171
582.635
595.388
607.368
618.516
628.777
638.097
646.429
653.729
659.957
665.082
669.073
671.91
673.575
674.059
673.358
504.976
520.519
535.62
550.213
564.23
577.607
590.279
602.186
613.268
623.471
632.741
641.031
648.298
654.502
659.611
663.596
666.436
668.113
668.617
667.945
499.048
514.434
529.384
543.833
557.713
570.96
583.512
595.308
606.288
616.399
625.588
633.809
641.017
647.175
652.249
656.212
659.041
660.72
661.24
660.595
491.77
506.953
521.708
535.967
549.668
562.745
575.137
586.784
597.628
607.614
616.692
624.815
631.94
638.029
643.05
646.974
649.781
651.453
651.982
651.362
483.193
498.128
512.643
526.672
540.151
553.019
565.213
576.675
587.348
597.178
606.115
614.114
621.131
627.131
632.079
635.95
638.722
640.378
640.909
640.312
473.373
488.018
502.25
516.008
529.227
541.847
553.807
565.049
575.518
585.162
593.93
601.778
608.665
614.554
619.413
623.215
625.94
627.572
628.1
627.522
462.374
476.688
490.599
504.045
516.967
529.302
540.993
551.983
562.218
571.645
580.218
587.891
594.625
600.384
605.136
608.856
611.523
613.122
613.642
613.081
450.266
464.21
477.762
490.862
503.45
515.467
526.857
537.563
547.534
556.718
565.07
572.546
579.106
584.717
589.347
592.971
595.569
597.127
597.635
597.089
437.125
450.664
463.822
476.541
488.763
500.431
511.489
521.883
531.563
540.479
548.586
555.843
562.211
567.656
572.149
575.666
578.186
579.696
580.186
579.653
)
;
    }
    coldSide
    {
        type            mixed;
        refValue        uniform 300;
        refGradient     uniform 0;
        valueFraction   uniform 0.991591;
        source          uniform 0;
        value           nonuniform List<scalar> 
400
(
300.025
300.025
300.026
300.027
300.027
300.028
300.028
300.029
300.029
300.03
300.03
300.031
300.031
300.031
300.032
300.032
300.032
300.032
300.032
300.032
300.025
300.026
300.026
300.027
300.028
300.028
300.029
300.03
300.03
300.031
300.031
300.031
300.031
300.032
300.032