/*--------------------------------*- C++ -*----------------------------------*\
| =========                 |                                                 |
| \\      /  F ield         | OpenFOAM: The Open Source CFD Toolbox           |
|  \\    /   O peration     | Version:  2212                                  |
|   \\  /    A nd           | Website:  www.openfoam.com                      |
|    \\/     M anipulation  |                                                 |
\*---------------------------------------------------------------------------*/
FoamFile
{
    version     2.0;
    format      ascii;
    arch        "LSB;label=32;scalar=64";
    class       volScalarField;
    location    "./ITHACAoutput/true/16.7";
    object      error;
}
// * * * * * * * * * * * * * * * * * * * * * * * * * * * * * * * * * * * * * //

dimensions      [0 0 0 1 0 0 0];

internalField   nonuniform List<scalar> 
3200
(
0.412433
-0.0121743
-0.656335
-0.971793
-1.23076
-1.40313
-1.42784
-1.47872
-1.28744
-1.18541
-1.03326
-0.808687
-0.657558
-0.343045
-0.0044316
0.446322
0.977153
1.5835
2.25823
2.89846
0.186567
-0.209389
-0.616088
-1.02512
-1.15995
-1.38093
-1.42084
-1.39195
-1.26536
-1.10996
-1.03123
-0.879261
-0.650584
-0.411667
-0.142688
0.265604
0.674233
1.23475
1.8551
2.38791
0.111653
-0.240559
-0.580653
-0.878472
-1.1634
-1.25699
-1.27171
-1.26747
-1.15606
-1.07922
-0.979462
-0.785209
-0.641861
-0.449304
-0.214178
0.146224
0.591208
0.876971
1.51484
1.89464
0.0612753
-0.261482
-0.544282
-0.79966
-0.999383
-1.04128
-1.13257
-1.07887
-1.10177
-0.977352
-0.860981
-0.711394
-0.591913
-0.441153
-0.192023
0.0184887
0.434546
0.771841
1.21765
1.50959
-0.00770075
-0.167824
-0.435712
-0.637096
-0.85342
-0.850078
-0.966383
-0.908901
-0.875333
-0.78517
-0.701722
-0.569642
-0.469359
-0.362841
-0.138948
0.025406
0.191454
0.547459
0.812166
1.13745
-0.00751322
-0.177016
-0.423144
-0.491101
-0.55807
-0.684863
-0.633529
-0.726181
-0.54367
-0.569357
-0.555673
-0.530768
-0.34168
-0.205938
-0.26183
-0.0126427
0.178739
0.39002
0.670012
0.841484
-0.00809622
-0.0985886
-0.231365
-0.391524
-0.302354
-0.370232
-0.373657
-0.361108
-0.385758
-0.392915
-0.30347
-0.244463
-0.262494
-0.228464
-0.0688379
-0.0306636
0.128187
0.255708
0.405902
0.487037
0.0352364
-0.0186593
-0.0804257
-0.136473
-0.146525
-0.080705
-0.122973
-0.137509
-0.131433
-0.182288
-0.0674971
-0.0481833
-0.0682009
-0.126162
-0.0971885
0.00962638
0.0112309
0.0913993
0.142999
0.174691
-0.475036
-1.02342
-1.53707
-1.96731
-2.21635
-2.50023
-2.49322
-2.5204
-2.36747
-2.25709
-2.05207
-1.93428
-1.72889
-1.43513
-1.0936
-0.57551
-0.043358
0.622448
1.37247
1.99962
-0.496428
-0.904557
-1.42768
-1.77945
-2.03562
-2.17634
-2.23779
-2.21967
-2.17782
-2.06172
-1.91114
-1.76773
-1.58979
-1.31941
-0.962003
-0.546533
-0.0739224
0.48213
1.14177
1.66544
-0.477075
-0.784332
-1.22678
-1.53846
-1.85786
-1.9079
-1.92424
-1.96164
-1.87001
-1.77131
-1.6645
-1.50417
-1.38209
-1.14654
-0.801905
-0.471861
-0.0868368
0.322674
0.909836
1.36023
-0.434043
-0.70217
-1.07362
-1.31291
-1.51134
-1.56412
-1.61372
-1.63726
-1.55665
-1.45055
-1.42405
-1.22451
-1.18417
-0.955587
-0.824524
-0.429208
-0.105771
0.220744
0.713432
1.08333
-0.391946
-0.523774
-0.82074
-1.09691
-1.16463
-1.2786
-1.36982
-1.34693
-1.27327
-1.23652
-1.1244
-1.03407
-0.893906
-0.744862
-0.641377
-0.380206
-0.0630583
0.234199
0.531233
0.815037
-0.205076
-0.500708
-0.623441
-0.723438
-0.834561
-0.910263
-0.962785
-0.941337
-0.87911
-0.879379
-0.835034
-0.754395
-0.657053
-0.546756
-0.37485
-0.243413
-0.0769094
0.103636
0.398122
0.569869
-0.148668
-0.21535
-0.365883
-0.417492
-0.578817
-0.591387
-0.517444
-0.564315
-0.543102
-0.526642
-0.517071
-0.45584
-0.455668
-0.396313
-0.267154
-0.234611
-0.0855036
0.0156226
0.224278
0.337541
-0.0918493
-0.104044
-0.100906
-0.149968
-0.182589
-0.106613
-0.168115
-0.206039
-0.12009
-0.203158
-0.183511
-0.155174
-0.143545
-0.0738223
-0.0380998
-0.0274128
-0.0797794
0.00841514
0.107146
0.129647
-1.46543
-2.06739
-2.67731
-3.14747
-3.48625
-3.70801
-3.79062
-3.82413
-3.73532
-3.67559
-3.47071
-3.2665
-3.00617
-2.62362
-2.23947
-1.79649
-1.2304
-0.583544
0.199879
0.941044
-1.42547
-1.83619
-2.39152
-2.78005
-3.14491
-3.26407
-3.3329
-3.23213
-3.21068
-3.20425
-3.00028
-2.82661
-2.66074
-2.37326
-2.07963
-1.6552
-1.07942
-0.462238
0.184059
0.813787
-1.26852
-1.5828
-1.98505
-2.40674
-2.63812
-2.77736
-2.84293
-2.8414
-2.74146
-2.7443
-2.62322
-2.46122
-2.2857
-2.01252
-1.78605
-1.37845
-0.97065
-0.445126
0.11039
0.662993
-1.03475
-1.32096
-1.61291
-2.00443
-2.28847
-2.28476
-2.34517
-2.38337
-2.32205
-2.22613
-2.25214
-2.03829
-1.86379
-1.68447
-1.52325
-1.12104
-0.72101
-0.424077
0.090467
0.485314
-0.833919
-1.04103
-1.30424
-1.52664
-1.74291
-1.84525
-1.8391
-1.8714
-1.80483
-1.79346
-1.74743
-1.63774
-1.47511
-1.39229
-1.13046
-0.940049
-0.61705
-0.290539
0.0249259
0.393827
-0.588867
-0.713267
-0.972773
-1.12622
-1.19064
-1.23285
-1.35043
-1.32508
-1.30866
-1.31077
-1.2055
-1.15724
-1.02949
-0.915126
-0.862959
-0.603386
-0.43382
-0.158368
0.025519
0.256557
-0.365996
-0.490626
-0.541791
-0.670244
-0.812967
-0.729994
-0.813513
-0.893721
-0.750917
-0.768237
-0.765798
-0.738378
-0.64373
-0.565592
-0.492765
-0.360865
-0.249948
-0.144838
0.0570311
0.13884
-0.0716261
-0.203766
-0.235251
-0.204749
-0.277142
-0.23673
-0.310633
-0.330046
-0.241854
-0.242116
-0.259153
-0.237283
-0.243648
-0.191179
-0.121556
-0.0823608
-0.0876468
-0.0117674
0.0475608
0.0178434
-2.57846
-3.20813
-3.78519
-4.33807
-4.64091
-4.88897
-5.05362
-5.09973
-4.97435
-4.87773
-4.75822
-4.54523
-4.27587
-3.9486
-3.51681
-2.99068
-2.41656
-1.6515
-0.873125
-0.112474
-2.24539
-2.81678
-3.27473
-3.77891
-4.19257
-4.37657
-4.40212
-4.40776
-4.36426
-4.29025
-4.13234
-3.97547
-3.76219
-3.51618
-3.07345
-2.64592
-2.11924
-1.42592
-0.767634
-0.126005
-1.97252
-2.36786
-2.81461
-3.20219
-3.48535
-3.58522
-3.79447
-3.73553
-3.75671
-3.67572
-3.61036
-3.39703
-3.21678
-2.93506
-2.64887
-2.32193
-1.82184
-1.23763
-0.718887
-0.151578
-1.63059
-1.94335
-2.3159
-2.64864
-2.86808
-3.05349
-3.07263
-3.12572
-3.08889
-3.01498
-2.95936
-2.77227
-2.74731
-2.39095
-2.25416
-1.84984
-1.52505
-1.05134
-0.541552
-0.102495
-1.30378
-1.48327
-1.78436
-2.06667
-2.26684
-2.39523
-2.41133
-2.45555
-2.42792
-2.28126
-2.32179
-2.20795
-2.1199
-1.87316
-1.81674
-1.44251
-1.17304
-0.826768
-0.410133
-0.123474
-0.983429
-1.11656
-1.27971
-1.49247
-1.62364
-1.65691
-1.81522
-1.75206
-1.75846
-1.70652
-1.65602
-1.57631
-1.54244
-1.39244
-1.18284
-1.05775
-0.853799
-0.578363
-0.332942
-0.11053
-0.5289
-0.700045
-0.806077
-0.868327
-0.981704
-0.994649
-0.974869
-1.07094
-1.03137
-1.00959
-0.969608
-0.957297
-0.836686
-0.790224
-0.756822
-0.615722
-0.447873
-0.324439
-0.221441
-0.0994703
-0.183977
-0.170587
-0.262748
-0.29686
-0.283077
-0.333747
-0.405544
-0.347089
-0.398343
-0.395025
-0.3437
-0.319125
-0.282036
-0.229151
-0.223176
-0.183202
-0.179854
-0.122197
-0.0748608
-0.0920947
-3.42606
-4.03297
-4.7069
-5.26161
-5.73208
-5.97591
-6.17857
-6.20994
-6.19562
-6.0864
-5.90826
-5.75098
-5.44519
-4.99857
-4.63509
-4.03797
-3.49377
-2.59947
-1.80474
-0.999429
-3.0121
-3.53873
-4.2088
-4.63815
-5.01802
-5.28264
-5.39551
-5.51769
-5.45765
-5.33033
-5.15182
-4.93453
-4.77732
-4.50591
-4.1104
-3.58432
-2.94053
-2.32012
-1.54514
-0.906722
-2.54483
-3.06149
-3.54033
-3.89777
-4.18701
-4.4757
-4.49798
-4.61548
-4.60806
-4.56128
-4.45729
-4.26634
-3.99747
-3.85054
-3.44369
-3.09247
-2.55902
-1.91292
-1.3057
-0.706329
-2.08651
-2.4655
-2.85243
-3.2992
-3.48124
-3.70432
-3.8095
-3.77475
-3.76285
-3.69007
-3.61939
-3.48147
-3.32204
-3.08319
-2.80875
-2.55792
-2.07017
-1.64486
-1.13173
-0.673723
-1.7079
-1.96121
-2.25578
-2.55399
-2.73712
-2.87451
-2.94169
-2.99883
-2.97057
-2.88114
-2.80122
-2.81082
-2.62398
-2.50264
-2.20826
-1.92422
-1.70038
-1.29948
-0.880603
-0.509958
-1.22748
-1.41025
-1.69197
-1.7927
-1.91407
-1.97302
-2.16801
-2.1924
-2.10782
-2.1607
-2.00645
-1.96499
-1.84847
-1.69713
-1.61345
-1.42595
-1.18446
-0.868905
-0.665188
-0.360673
-0.730428
-0.813392
-1.01279
-1.06593
-1.12715
-1.2177
-1.18562
-1.25854
-1.24114
-1.2162
-1.22025
-1.20808
-1.17367
-1.01725
-0.979495
-0.811244
-0.700194
-0.563545
-0.365589
-0.299315
-0.199778
-0.257902
-0.304047
-0.400334
-0.424093
-0.352143
-0.458539
-0.422708
-0.381915
-0.439093
-0.444619
-0.390774
-0.349227
-0.326671
-0.306697
-0.336989
-0.213798
-0.192119
-0.154404
-0.0565665
-4.04912
-4.6535
-5.43314
-6.04043
-6.56193
-6.91749
-7.10223
-7.16115
-7.1909
-7.11128
-6.94445
-6.69851
-6.35379
-6.07282
-5.55815
-4.95026
-4.17235
-3.47518
-2.45384
-1.60355
-3.52554
-4.17851
-4.74643
-5.32933
-5.73579
-5.97898
-6.17088
-6.28728
-6.28435
-6.1444
-6.16083
-5.83729
-5.58052
-5.25453
-4.84397
-4.34582
-3.71549
-2.90225
-2.19868
-1.5049
-3.09573
-3.4946
-4.10464
-4.46395
-4.86403
-5.15789
-5.25725
-5.40178
-5.31078
-5.3299
-5.11985
-4.97054
-4.78405
-4.53008
-4.07324
-3.69094
-3.16384
-2.56284
-1.8233
-1.26645
-2.49699
-2.90098
-3.31857
-3.73911
-4.02362
-4.209
-4.37622
-4.38255
-4.37613
-4.34024
-4.21418
-4.10872
-3.87689
-3.6885
-3.38525
-3.02195
-2.53169
-2.05261
-1.54346
-1.05652
-1.96695
-2.33215
-2.60724
-2.90166
-3.06341
-3.32698
-3.35229
-3.41052
-3.41835
-3.35119
-3.31783
-3.28528
-3.07821
-2.88432
-2.6557
-2.3589
-2.02003
-1.58753
-1.24147
-0.832109
-1.41199
-1.71691
-1.90701
-2.15704
-2.24439
-2.26426
-2.45106
-2.39128
-2.43718
-2.43469
-2.30999
-2.25643
-2.18825
-2.14432
-1.86106
-1.74117
-1.47672
-1.20037
-0.849602
-0.628572
-0.838581
-0.976138
-1.16661
-1.23484
-1.35096
-1.37763
-1.44859
-1.49699
-1.46905
-1.49781
-1.36656
-1.42754
-1.31745
-1.24566
-1.1069
-0.964691
-0.851718
-0.715841
-0.446635
-0.373965
-0.229009
-0.360074
-0.383279
-0.449466
-0.520801
-0.568989
-0.543889
-0.502266
-0.48769
-0.521571
-0.443726
-0.504262
-0.427099
-0.469253
-0.399125
-0.32911
-0.263516
-0.269426
-0.207794
-0.0565094
-4.45698
-5.19646
-5.99177
-6.59053
-7.19698
-7.67095
-7.84731
-7.94429
-8.00187
-7.89396
-7.78997
-7.48092
-7.217
-6.83353
-6.34035
-5.64705
-4.859
-3.98899
-3.01142
-2.15991
-3.96712
-4.56477
-5.32538
-5.85132
-6.30432
-6.55593
-6.77897
-6.91997
-6.92447
-6.91256
-6.71719
-6.62387
-6.21529
-5.90804
-5.39881
-4.85564
-4.28049
-3.46915
-2.59545
-1.90527
-3.35161
-3.88147
-4.46751
-4.92767
-5.28595
-5.60759
-5.8397
-5.90511
-5.90579
-5.82436
-5.78351
-5.61537
-5.36388
-5.0085
-4.65227
-4.20934
-3.61435
-3.02782
-2.24555
-1.64973
-2.69593
-3.19982
-3.67962
-4.07481
-4.38616
-4.60423
-4.78076
-4.83527
-4.88292
-4.84849
-4.71279
-4.59234
-4.36842
-4.11644
-3.70346
-3.41294
-2.91089
-2.35629
-1.81107
-1.34806
-2.1035
-2.50587
-2.81244
-3.16064
-3.45209
-3.61134
-3.7313
-3.81165
-3.81355
-3.75724
-3.76113
-3.55896
-3.44837
-3.21729
-3.03542
-2.67131
-2.25243
-1.9798
-1.49302
-1.11845
-1.64931
-1.77407
-2.0743
-2.23277
-2.38689
-2.56932
-2.66977
-2.74937
-2.7207
-2.73398
-2.66079
-2.58691
-2.48815
-2.29208
-2.16559
-1.84907
-1.70189
-1.31374
-1.06382
-0.810854
-0.941118
-1.06703
-1.22337
-1.36119
-1.46553
-1.47363
-1.57686
-1.65602
-1.60573
-1.64066
-1.60943
-1.56179
-1.53128
-1.35041
-1.26546
-1.09481
-1.00321
-0.813428
-0.66894
-0.478127
-0.262007
-0.372741
-0.383803
-0.46928
-0.450407
-0.513575
-0.536366
-0.468886
-0.531635
-0.531685
-0.565611
-0.538661
-0.466619
-0.459346
-0.427003
-0.380779
-0.359887
-0.232965
-0.18684
-0.155735
-4.72412
-5.5826
-6.36243
-7.0197
-7.5902
-8.01786
-8.32931
-8.50067
-8.5609
-8.45492
-8.37175
-8.12067
-7.75871
-7.2945
-6.68105
-6.00975
-5.22997
-4.37046
-3.37774
-2.39179
-4.05809
-4.78961
-5.45992
-6.12501
-6.61324
-6.92235
-7.23742
-7.41264
-7.45024
-7.4
-7.35742
-7.02584
-6.6895
-6.34623
-5.84823
-5.2871
-4.54221
-3.76941
-2.91532
-2.07424
-3.56267
-4.04569
-4.72021
-5.19673
-5.65542
-5.97929
-6.16354
-6.1616
-6.28527
-6.3204
-6.23912
-5.96023
-5.69233
-5.43982
-5.01517
-4.52875
-3.86639
-3.18441
-2.47552
-1.84073
-2.92872
-3.32924
-3.91882
-4.3358
-4.58672
-4.91209
-5.11256
-5.18816
-5.1612
-5.17356
-5.07781
-4.9443
-4.64149
-4.42616
-4.09482
-3.6914
-3.20731
-2.6697
-2.09641
-1.4839
-2.26153
-2.59519
-2.92668
-3.32635
-3.60082
-3.78249
-3.92803
-4.05902
-4.09434
-4.00733
-3.95027
-3.85167
-3.70356
-3.48688
-3.21597
-2.92887
-2.53563
-2.08065
-1.60779
-1.19916
-1.62522
-1.83598
-2.13106
-2.34036
-2.6443
-2.81961
-2.89171
-2.8553
-2.93843
-2.86448
-2.82706
-2.72837
-2.59804
-2.46049
-2.26508
-2.0325
-1.7485
-1.43655
-1.13476
-0.856494
-0.984535
-1.14217
-1.31861
-1.44073
-1.53488
-1.62438
-1.76021
-1.75909
-1.7472
-1.72227
-1.70778
-1.60324
-1.6178
-1.55571
-1.4204
-1.24608
-1.08982
-0.87532
-0.637124
-0.50596
-0.33265
-0.443843
-0.469503
-0.498758
-0.559662
-0.600571
-0.585479
-0.587164
-0.605834
-0.52218
-0.49892
-0.545612
-0.512919
-0.536885
-0.435263
-0.393764
-0.338063
-0.222313
-0.236201
-0.120199
-4.66928
-5.5081
-6.43128
-7.17473
-7.72177
-8.28542
-8.62557
-8.78349
-8.90602
-8.8711
-8.6922
-8.40234
-7.97134
-7.51088
-6.98948
-6.29884
-5.41827
-4.43489
-3.34364
-2.53006
-4.0519
-4.80433
-5.56323
-6.18821
-6.71564
-7.1889
-7.49982
-7.67856
-7.77184
-7.68187
-7.58649
-7.30307
-7.03092
-6.58921
-6.04343
-5.40686
-4.71679
-3.87739
-2.95582
-2.0821
-3.53663
-4.21349
-4.73324
-5.28727
-5.74702
-6.13167
-6.34253
-6.53174
-6.52859
-6.58647
-6.39562
-6.25426
-6.05598
-5.64107
-5.14658
-4.61241
-3.9717
-3.23957
-2.53771
-1.84699
-2.91517
-3.33769
-3.94529
-4.31525
-4.70423
-4.98841
-5.22844
-5.30762
-5.37453
-5.38037
-5.30981
-5.05183
-4.82897
-4.5418
-4.25447
-3.78919
-3.2704
-2.70935
-1.9879
-1.46889
-2.22157
-2.61525
-3.02088
-3.32274
-3.63162
-3.98995
-4.07339
-4.14312
-4.20338
-4.17712
-4.1101
-3.99425
-3.77045
-3.52995
-3.33437
-2.95021
-2.55141
-2.09228
-1.6069
-1.19733
-1.63634
-1.88593
-2.17849
-2.42345
-2.66961
-2.82928
-2.86697
-2.95007
-2.99003
-2.985
-2.94444
-2.84977
-2.8012
-2.5872
-2.37131
-2.08541
-1.83902
-1.47866
-1.11352
-0.866108
-0.9266
-1.06976
-1.28419
-1.50079
-1.57621
-1.66783
-1.72598
-1.84411
-1.74527
-1.78266
-1.80148
-1.75845
-1.57893
-1.43048
-1.39386
-1.33639
-1.12552
-0.954286
-0.721234
-0.571335
-0.358716
-0.388048
-0.429558
-0.501846
-0.578128
-0.533305
-0.582597
-0.619613
-0.625898
-0.613814
-0.624061
-0.58899
-0.613643
-0.583687
-0.400757
-0.420797
-0.394778
-0.309109
-0.244364
-0.176075
-4.40251
-5.27411
-6.16238
-6.98465
-7.68923
-8.17394
-8.54228
-8.82398
-8.89603
-8.91239
-8.85526
-8.44068
-8.10958
-7.59704
-6.93412
-6.16164
-5.36524
-4.28427
-3.16774
-2.25611
-3.92241
-4.57085
-5.39804
-6.08846
-6.63556
-7.13013
-7.41772
-7.68044
-7.75824
-7.73393
-7.61693
-7.33418
-7.0241
-6.58614
-6.02754
-5.38517
-4.65193
-3.78138
-2.82196
-1.97195
-3.27677
-3.88651
-4.57967
-5.19616
-5.65098
-6.1099
-6.33273
-6.56109
-6.55443
-6.63294
-6.41419
-6.263
-5.99647
-5.58809
-5.19449
-4.63117
-3.90625
-3.19307
-2.38295
-1.73011
-2.66106
-3.18632
-3.74353
-4.38191
-4.6857
-5.02975
-5.21418
-5.29495
-5.40192
-5.40294
-5.28678
-5.10171
-4.89705
-4.63344
-4.22149
-3.73156
-3.28377
-2.61161
-1.98488
-1.37823
-2.24424
-2.59119
-2.98554
-3.31985
-3.58461
-3.93733
-4.07931
-4.12507
-4.23784
-4.21475
-4.11672
-4.00119
-3.77898
-3.56686
-3.27177
-2.91183
-2.52497
-2.04667
-1.5148
-1.12917
-1.61106
-1.80675
-2.16121
-2.39998
-2.61028
-2.81621
-2.88681
-2.96579
-3.06562
-3.0667
-2.96788
-2.87782
-2.76987
-2.62973
-2.28535
-2.08935
-1.81642
-1.47312
-1.09847
-0.874812
-0.963941
-1.06773
-1.2884
-1.42527
-1.61705
-1.70708
-1.76191
-1.7795
-1.83425
-1.78823
-1.74473
-1.73131
-1.63079
-1.53405
-1.4392
-1.23594
-1.12944
-0.866527
-0.636482
-0.511197
-0.316355
-0.314763
-0.429781
-0.57063
-0.492352
-0.567478
-0.556964
-0.602747
-0.596634
-0.626083
-0.551826
-0.579854
-0.544505
-0.518372
-0.514794
-0.388986
-0.346267
-0.324182
-0.1916
-0.120057
-3.85479
-4.74985
-5.77543
-6.68662
-7.34424
-7.88196
-8.35944
-8.54727
-8.7227
-8.67277
-8.529
-8.32052
-7.90184
-7.34489
-6.75614
-5.9425
-4.91105
-3.81584
-2.73313
-1.73362
-3.368
-4.17101
-5.05908
-5.72345
-6.3319
-6.92316
-7.21332
-7.47668
-7.55593
-7.57959
-7.43522
-7.1826
-6.82444
-6.35819
-5.78813
-5.08419
-4.3503
-3.40589
-2.44642
-1.54144
-2.8904
-3.56324
-4.21613
-4.90009
-5.41123
-5.80529
-6.18535
-6.32656
-6.41254
-6.41744
-6.31813
-6.12213
-5.8554
-5.4781
-4.98335
-4.4217
-3.63512
-2.83838
-2.14428
-1.32296
-2.39138
-2.9387
-3.47001
-4.00768
-4.44466
-4.80503
-5.00515
-5.31623
-5.29391
-5.24546
-5.17064
-5.03452
-4.77358
-4.50642
-4.05386
-3.54174
-2.98414
-2.34732
-1.72199
-1.16899
-1.84898
-2.25603
-2.76087
-3.20571
-3.51574
-3.79067
-3.93135
-4.10835
-4.1224
-4.13733
-4.06975
-4.00397
-3.69238
-3.49268
-3.16224
-2.79512
-2.29826
-1.87667
-1.34615
-0.838916
-1.4077
-1.62038
-1.94995
-2.26597
-2.56676
-2.69532
-2.81642
-2.89048
-2.93822
-2.97042
-2.94221
-2.78281
-2.71122
-2.49542
-2.24597
-1.99461
-1.60871
-1.27277
-0.932799
-0.64126
-0.787177
-1.0274
-1.18391
-1.38355
-1.48441
-1.59327
-1.7268
-1.74422
-1.75937
-1.78312
-1.71281
-1.62603
-1.62106
-1.53886
-1.38243
-1.19488
-0.98401
-0.795906
-0.548506
-0.348853
-0.28492
-0.293772
-0.395319
-0.481623
-0.537129
-0.545433
-0.544337
-0.613866
-0.526427
-0.553789
-0.588596
-0.611594
-0.540279
-0.513406
-0.470786
-0.420516
-0.374443
-0.292351
-0.183693
-0.0473868
-3.01775
-4.03512
-4.95786
-5.99613
-6.66901
-7.36527
-7.79896
-8.02551
-8.20373
-8.26433
-8.1344
-7.81214
-7.38215
-6.85145
-6.14071
-5.28152
-4.31239
-3.21839
-2.13732
-0.968868
-2.64195
-3.50787
-4.3333
-5.16495
-5.87031
-6.36305
-6.78492
-7.00608
-7.19717
-7.18429
-7.02073
-6.83675
-6.4084
-5.98072
-5.36919
-4.59555
-3.72892
-2.82527
-1.80195
-0.907424
-2.32322
-2.90329
-3.6962
-4.39481
-4.9823
-5.44112
-5.7703
-5.96214
-6.0206
-6.05758
-5.99774
-5.80132
-5.50913
-5.01627
-4.51433
-3.93952
-3.22323
-2.41529
-1.61609
-0.784049
-1.8473
-2.43953
-3.11029
-3.58305
-4.04903
-4.37622
-4.71368
-4.90085
-4.97958
-4.9366
-4.85326
-4.74842
-4.55189
-4.14308
-3.76497
-3.20016
-2.67179
-1.98995
-1.28084
-0.616791
-1.52223
-1.85737
-2.32061
-2.78368
-3.18685
-3.38054
-3.68208
-3.77918
-3.90082
-3.9313
-3.84455
-3.72517
-3.53717
-3.24953
-2.87577
-2.56525
-2.02122
-1.48024
-1.05767
-0.48833
-1.02718
-1.37436
-1.67842
-2.02146
-2.25227
-2.48542
-2.67761
-2.69568
-2.79833
-2.75214
-2.74741
-2.63994
-2.49854
-2.3802
-2.0877
-1.7633
-1.44152
-1.09341
-0.681057
-0.346312
-0.656696
-0.882288
-1.064
-1.21521
-1.35472
-1.55952
-1.54812
-1.63411
-1.68862
-1.65561
-1.63293
-1.51453
-1.55489
-1.3778
-1.25447
-1.06005
-0.855133
-0.676062
-0.396315
-0.174447
-0.213442
-0.315658
-0.35109
-0.389388
-0.456871
-0.499318
-0.514738
-0.603957
-0.575638
-0.5928
-0.573582
-0.467394
-0.471307
-0.448647
-0.43134
-0.366045
-0.267489
-0.228699
-0.244725
-0.0593834
-2.00908
-2.98236
-4.02081
-5.02876
-5.75297
-6.54696
-6.96417
-7.30834
-7.43504
-7.5465
-7.36433
-7.09807
-6.62045
-6.03285
-5.33125
-4.54647
-3.44806
-2.36327
-1.07352
-0.039211
-1.75923
-2.61556
-3.44009
-4.34527
-5.04933
-5.71804
-6.02321
-6.28889
-6.36635
-6.46073
-6.33538
-6.10717
-5.69512
-5.20904
-4.56133
-3.85291
-3.02432
-2.00444
-0.983459
-0.0101656
-1.41991
-2.20051
-2.98338
-3.74105
-4.33798
-4.74594
-5.04683
-5.38423
-5.51407
-5.49929
-5.36424
-5.28646
-4.89867
-4.41115
-3.86267
-3.21898
-2.51789
-1.74471
-0.853685
-0.0683248
-1.27255
-1.74901
-2.48551
-3.01539
-3.53095
-3.90483
-4.20947
-4.40471
-4.50029
-4.47637
-4.39001
-4.26295
-4.02776
-3.65333
-3.17298
-2.77856
-2.06722
-1.38999
-0.67755
-0.0646766
-1.00862
-1.38576
-1.90921
-2.3621
-2.6923
-2.99855
-3.28584
-3.39065
-3.45867
-3.51038
-3.50118
-3.30317
-3.07512
-2.8495
-2.50561
-2.10546
-1.5831
-1.10822
-0.510352
-0.0620643
-0.659573
-1.02794
-1.33752
-1.66812
-1.92024
-2.2486
-2.32092
-2.45243
-2.51569
-2.54835
-2.51751
-2.33367
-2.25422
-2.07718
-1.746
-1.51059
-1.16467
-0.805706
-0.407489
-0.0166628
-0.381586
-0.649697
-0.902412
-1.07467
-1.21709
-1.35004
-1.37394
-1.45827
-1.52534
-1.53431
-1.45946
-1.44889
-1.39647
-1.23017
-1.07313
-0.917703
-0.66394
-0.488684
-0.250691
-0.0599602
-0.112761
-0.289793
-0.310455
-0.401346
-0.383982
-0.356811
-0.480858
-0.542551
-0.453253
-0.545755
-0.510737
-0.441148
-0.435007
-0.33973
-0.351485
-0.259429
-0.164301
-0.17722
-0.0890653
-0.0779412
-0.656688
-1.67286
-2.83491
-3.86515
-4.62656
-5.31033
-5.81751
-6.20268
-6.37745
-6.32299
-6.32985
-5.97656
-5.57661
-5.02845
-4.1989
-3.37555
-2.31161
-1.05896
0.15594
1.33799
-0.604799
-1.45012
-2.46666
-3.3085
-3.98064
-4.66321
-5.15695
-5.45128
-5.57077
-5.55043
-5.46055
-5.24367
-4.84674
-4.33722
-3.63842
-2.88318
-1.97421
-0.914272
0.131926
1.07668
-0.517612
-1.19595
-2.0698
-2.73679
-3.35666
-3.9825
-4.32327
-4.54573
-4.69367
-4.65155
-4.65464
-4.44224
-4.11139
-3.6845
-3.13162
-2.39346
-1.65111
-0.862786
0.130334
0.86506
-0.414471
-1.06105
-1.70633
-2.30861
-2.76873
-3.23636
-3.52862
-3.69538
-3.83305
-3.83188
-3.79519
-3.65593
-3.37378
-3.01373
-2.51625
-2.03167
-1.35514
-0.654055
0.0904563
0.729715
-0.331902
-0.805621
-1.30828
-1.77811
-2.14865
-2.44509
-2.71104
-2.92768
-3.03012
-2.97655
-2.93464
-2.81456
-2.53836
-2.37286
-2.00132
-1.59643
-1.01091
-0.51584
0.132905
0.610897
-0.284264
-0.559648
-0.957215
-1.26629
-1.5349
-1.79589
-1.98496
-2.11687
-2.11504
-2.15223
-2.11947
-1.99696
-1.84527
-1.7271
-1.47722
-1.15162
-0.779466
-0.365574
0.052091
0.40031
-0.0831173
-0.274378
-0.54969
-0.780167
-1.00641
-1.1504
-1.20734
-1.23578
-1.28682
-1.26098
-1.19432
-1.2371
-1.17277
-1.02355
-0.865048
-0.684424
-0.497678
-0.212527
-0.00783721
0.324796
-0.0389585
-0.272473
-0.233736
-0.229884
-0.304763
-0.361857
-0.314831
-0.448322
-0.526002
-0.461754
-0.436154
-0.381616
-0.442067
-0.35046
-0.229928
-0.216769
-0.0446034
-0.131024
0.0410884
0.100924
0.939817
-0.159261
-1.23896
-2.33509
-3.15552
-3.90919
-4.43597
-4.85548
-5.0113
-5.02009
-5.00897
-4.6008
-4.23559
-3.58298
-2.80166
-1.9661
-0.815097
0.405603
1.68998
2.84359
0.819819
-0.0997094
-1.02021
-1.96297
-2.80066
-3.33979
-3.92369
-4.13543
-4.41029
-4.36042
-4.23427
-4.03906
-3.652
-3.08731
-2.46477
-1.66383
-0.660407
0.354483
1.48818
2.48587
0.704043
-0.0392047
-0.932851
-1.65144
-2.28848
-2.84749
-3.24942
-3.58352
-3.62509
-3.70619
-3.60965
-3.36596
-3.09639
-2.57198
-2.03997
-1.40876
-0.593207
0.277613
1.23382
2.09571
0.569205
-0.0513582
-0.772133
-1.33934
-1.94622
-2.36503
-2.6931
-2.89758
-3.07349
-2.96463
-2.91193
-2.79735
-2.50154
-2.19053
-1.74788
-1.10804
-0.542485
0.215985
1.03783
1.71783
0.447636
-0.0273892
-0.536864
-1.03831
-1.47823
-1.8113
-2.14526
-2.31463
-2.31299
-2.37074
-2.32995
-2.21612
-1.90264
-1.6961
-1.30687
-0.918077
-0.362849
0.122037
0.756386
1.28746
0.302868
-0.076743
-0.356652
-0.745396
-1.0305
-1.29673
-1.52393
-1.63128
-1.75101
-1.72219
-1.68123
-1.6024
-1.3844
-1.19553
-0.916103
-0.630202
-0.257877
0.0464629
0.550137
0.994059
0.109957
-0.0389987
-0.28337
-0.498749
-0.584244
-0.826372
-0.818224
-0.990288
-1.08043
-1.00361
-1.01866
-0.916925
-0.753835
-0.732522
-0.551504
-0.493336
-0.134678
0.0796885
0.327485
0.549764
0.0539418
0.0182819
-0.109546
-0.133563
-0.193616
-0.299516
-0.322593
-0.344574
-0.354824
-0.303601
-0.253434
-0.264934
-0.293261
-0.274797
-0.123525
-0.169926
-0.0563633
0.0241974
0.124251
0.151041
2.94017
1.74791
0.654535
-0.490216
-1.36633
-2.17265
-2.79955
-3.18577
-3.35323
-3.40288
-3.2701
-3.04479
-2.53812
-1.92387
-1.12349
-0.224131
0.921567
2.09526
3.49984
4.60915
2.49284
1.554
0.471067
-0.385179
-1.15535
-1.89266
-2.41298
-2.7279
-2.93969
-2.92689
-2.83266
-2.63009
-2.23977
-1.64977
-0.97585
-0.0794919
0.784489
1.89938
2.98392
3.99389
2.03862
1.33393
0.429336
-0.354355
-0.982737
-1.57167
-1.99412
-2.25
-2.47082
-2.53532
-2.45065
-2.21421
-1.86843
-1.37865
-0.781435
-0.148218
0.653831
1.63904
2.57619
3.40737
1.71308
1.13479
0.369472
-0.273019
-0.816054
-1.28905
-1.63555
-1.89698
-2.03496
-2.03254
-2.00419
-1.83283
-1.57464
-1.15539
-0.723338
-0.136358
0.538006
1.31693
2.0821
2.68924
1.30301
0.866676
0.238062
-0.253019
-0.678803
-0.961669
-1.28441
-1.51333
-1.55352
-1.65648
-1.57014
-1.41103
-1.18686
-0.90508
-0.574646
-0.0923187
0.426779
0.972686
1.67243
2.19642
0.961031
0.631374
0.186544
-0.136465
-0.460196
-0.661024
-0.860221
-1.10498
-1.13997
-1.19405
-1.17066
-0.960726
-0.831171
-0.674464
-0.380187
-0.0885088
0.269198
0.776566
1.16447
1.61912
0.564329
0.347896
0.164305
-0.119707
-0.327345
-0.440787
-0.622357
-0.673302
-0.692953
-0.744876
-0.654574
-0.622337
-0.521273
-0.373107
-0.241245
0.0304378
0.193501
0.44698
0.696658
0.887984
0.155671
0.15851
0.0689887
0.00481564
-0.110967
-0.125868
-0.186604
-0.206501
-0.244765
-0.242187
-0.254466
-0.170127
-0.250499
-0.122224
-0.0706374
0.00130089
0.111392
0.0878798
0.277771
0.287695
5.00035
3.82646
2.60425
1.59392
0.598641
-0.199096
-0.82212
-1.22284
-1.46144
-1.52313
-1.37614
-1.05601
-0.635356
-0.0525709
0.781211
1.79554
2.93794
4.13308
5.50883
6.68897
4.27261
3.37883
2.34269
1.28017
0.468615
-0.131685
-0.668009
-1.04716
-1.2369
-1.33409
-1.18557
-0.941616
-0.564011
0.0550739
0.700324
1.58338
2.50775
3.6707
4.8178
5.8648
3.59966
2.89357
1.96688
1.18953
0.412103
-0.161074
-0.593855
-0.915865
-1.08462
-1.20785
-1.06242
-0.835301
-0.487405
0.03879
0.606117
1.30476
2.11153
3.10412
4.06044
4.85792
2.93757
2.2851
1.60804
0.872005
0.390822
-0.106693
-0.492792
-0.761731
-0.888958
-0.955554
-0.791602
-0.649248
-0.484572
-0.0505621
0.516448
1.14373
1.7325
2.50363
3.33278
3.99458
2.31895
1.88118
1.24114
0.744739
0.218609
-0.0813678
-0.33434
-0.600173
-0.606696
-0.721734
-0.678845
-0.517467
-0.274073
-0.0425362
0.325006
0.810897
1.36011
1.97089
2.61491
3.11112
1.69803
1.29308
0.858245
0.46838
0.233167
-0.0454661
-0.271977
-0.459755
-0.494065
-0.486309
-0.498078
-0.333104
-0.156647
-0.0022797
0.26841
0.603767
1.00505
1.44139
1.82465
2.20319
1.03592
0.792049
0.552727
0.312407
0.0680425
-0.0022318
-0.179203
-0.181279
-0.289138
-0.321069
-0.258898
-0.192524
-0.141416
-0.00277241
0.133736
0.346899
0.544408
0.790665
1.16147
1.31246
0.319826
0.292572
0.125718
0.120423
0.0775592
-0.0345406
-0.0885258
-0.0521461
-0.0919513
-0.121495
-0.102613
-0.0420195
-0.0336386
-0.0460901
-0.0650498
0.0504025
0.237659
0.324023
0.392532
0.462489
7.31645
6.10787
4.91887
3.76971
2.75901
1.9166
1.34442
0.900472
0.711531
0.611517
0.698119
1.07948
1.49754
2.13025
2.88945
3.89986
5.05927
6.35865
7.681
9.02183
6.25221
5.37137
4.2698
3.24332
2.38408
1.72784
1.16798
0.82692
0.59199
0.531954
0.568245
0.883084
1.29906
1.78688
2.56555
3.3813
4.36168
5.58872
6.63867
7.75803
5.33641
4.56184
3.57201
2.74427
2.02506
1.4351
1.03677
0.628482
0.488434
0.409283
0.519298
0.775592
1.10844
1.60045
2.11072
2.8373
3.74095
4.61808
5.68048
6.57664
4.33623
3.67224
2.90354
2.29407
1.7267
1.08619
0.77848
0.503541
0.407792
0.320436
0.426137
0.623367
0.861111
1.22626
1.7763
2.2637
3.02739
3.84933
4.59357
5.31389
3.32059
2.89325
2.28317
1.74756
1.29785
0.90974
0.590253
0.399953
0.322109
0.265162
0.256103
0.439468
0.62844
0.981641
1.40048
1.69734
2.30468
2.94748
3.53766
4.12907
2.31501
2.05072
1.71513
1.25895
0.949361
0.653347
0.379971
0.275037
0.207338
0.188686
0.191431
0.300397
0.464291
0.686401
0.984369
1.30698
1.68767
1.99723
2.54823
2.94258
1.46086
1.22491
0.962585
0.769638
0.567188
0.434359
0.281214
0.201145
0.0808311
0.061838
0.114282
0.189023
0.187331
0.409579
0.539004
0.739999
0.978119
1.34227
1.54065
1.72347
0.429981
0.442499
0.343788
0.255088
0.17114
0.146999
0.106294
0.0884081
0.014878
0.0409451
0.0565274
0.0938506
0.174962
0.11004
0.211585
0.28125
0.292701
0.464221
0.518865
0.652441
9.61272
8.45231
7.1373
6.0007
5.05672
4.19103
3.56558
3.13058
2.81961
2.72634
2.83902
3.15094
3.57541
4.2792
5.09008
6.09798
7.26681
8.54585
9.99965
11.2063
8.27207
7.33325
6.20934
5.18277
4.30532
3.5649
3.00609
2.64524
2.43342
2.35456
2.47439
2.71336
3.12411
3.66583
4.4158
5.24066
6.24577
7.44511
8.61563
9.63417
6.89986
6.09203
5.24523
4.35718
3.59819
2.99205
2.46214
2.22419
2.01163
1.95809
2.11299
2.2377
2.5955
3.06062
3.69023
4.4244
5.26723
6.23892
7.24319
8.09096
5.62821
5.01025
4.31225
3.59115
2.9219
2.46488
2.02482
1.77381
1.62798
1.54601
1.70871
1.81658
2.14331
2.47867
2.93055
3.60367
4.32959
5.07114
5.94182
6.65058
4.37597
3.80972
3.34007
2.77454
2.21616
1.86141
1.58132
1.30069
1.19869
1.2129
1.24517
1.42716
1.65533
1.89075
2.33096
2.81077
3.32235
3.92479
4.59852
5.08637
3.07942
2.75234
2.25202
1.94143
1.60985
1.28958
1.1242
0.985996
0.888646
0.818691
0.813838
0.987413
1.10398
1.42407
1.58164
1.89744
2.33015
2.833
3.27069
3.6564
1.83479
1.60269
1.37504
1.15158
0.960133
0.785504
0.58151
0.594999
0.528995
0.500386
0.576923
0.55967
0.642478
0.830141
1.02888
1.22113
1.48723
1.63015
1.93577
2.18679
0.655963
0.55927
0.504224
0.311751
0.28227
0.281152
0.195101
0.217441
0.189355
0.199166
0.226688
0.208626
0.210075
0.259738
0.35653
0.375452
0.44279
0.52181
0.64229
0.708974
11.4786
10.3393
9.10548
7.8637
6.81275
5.93007
5.37736
4.83845
4.6372
4.55261
4.62826
4.86043
5.39169
5.96961
6.85614
7.83178
9.06281
10.3904
11.799
13.0542
9.82435
8.74643
7.65551
6.67043
5.85265
5.06054
4.42686
4.1702
3.93224
3.78614
3.82964
4.14679
4.46353
5.13283
5.80359
6.68807
7.67972
8.85214
10.1453
11.1587
8.17779
7.30582
6.42453
5.57788
4.76623
4.2182
3.71463
3.34006
3.18384
3.0103
3.17596
3.37236
3.70559
4.25799
4.77679
5.58149
6.44445
7.38665
8.40527
9.32676
6.57167
5.98673
5.18263
4.44368
3.88883
3.35835
2.95477
2.67159
2.54361
2.52952
2.52091
2.66741
2.89305
3.42512
3.91491
4.56185
5.29903
6.01186
6.8628
7.54425
5.10903
4.62081
4.05068
3.4474
2.92818
2.61505
2.21857
1.97936
1.89586
1.87793
1.91383
2.0125
2.25435
2.6216
2.95696
3.45516
3.99355
4.6113
5.25369
5.90291
3.56666
3.23499
2.86704
2.47896
2.07649
1.83773
1.63089
1.47211
1.34866
1.43302
1.33108
1.47851
1.59917
1.8317
2.12168
2.45622
2.83257
3.27175
3.74782
4.11826
2.17399
1.93465
1.65988
1.48999
1.20033
1.07386
1.00449
0.892535
0.813662
0.775787
0.808382
0.862001
0.945649
1.1157
1.28827
1.42824
1.7183
2.03041
2.23297
2.52614
0.691639
0.60689
0.51488
0.443986
0.438148
0.332901
0.327635
0.273094
0.289895
0.262832
0.29278
0.340221
0.364524
0.365401
0.46406
0.531093
0.594031
0.613036
0.772947
0.856098
)
;

boundaryField
{
    hotSide
    {
        type            calculated;
        value           nonuniform List<scalar> 
400
(
1.04206
0.157163
-0.828082
-1.93337
-2.77063
-3.38074