/*--------------------------------*- C++ -*----------------------------------*\
| =========                 |                                                 |
| \\      /  F ield         | OpenFOAM: The Open Source CFD Toolbox           |
|  \\    /   O peration     | Version:  2212                                  |
|   \\  /    A nd           | Website:  www.openfoam.com                      |
|    \\/     M anipulation  |                                                 |
\*---------------------------------------------------------------------------*/
FoamFile
{
    version     2.0;
    format      ascii;
    arch        "LSB;label=32;scalar=64";
    class       volScalarField;
    location    "0";
    object      relativeErrorField;
}
// * * * * * * * * * * * * * * * * * * * * * * * * * * * * * * * * * * * * * //

dimensions      [0 0 0 1 0 0 0];

internalField   nonuniform List<scalar> 
3200
(
0.00120942
3.56752e-05
0.00192161
0.00284248
0.00359639
0.00409613
0.00416454
0.0043097
0.00375016
0.00345195
0.00300889
0.00235561
0.00191644
0.00100055
1.29371e-05
0.0013042
0.00285816
0.00463614
0.00661743
0.00849945
0.000555795
0.000623412
0.00183285
0.00304715
0.00344495
0.00409774
0.00421288
0.00412447
0.00374758
0.0032865
0.00305339
0.00260408
0.00192774
0.00122062
0.000423409
0.000788818
0.00200415
0.00367338
0.00552316
0.00711372
0.000338052
0.000727981
0.00175601
0.00265476
0.00351318
0.00379304
0.00383489
0.00381991
0.00348271
0.00325053
0.00295005
0.0023655
0.00193445
0.00135489
0.000646293
0.000441562
0.00178664
0.00265213
0.0045842
0.00573642
0.000188632
0.000804623
0.00167393
0.00245786
0.00306983
0.00319658
0.00347488
0.00330855
0.00337765
0.00299568
0.00263899
0.00218089
0.00181522
0.00135352
0.000589483
5.67921e-05
0.00133564
0.00237379
0.00374693
0.00464718
2.41128e-05
0.000525326
0.00136329
0.00199244
0.00266766
0.00265594
0.00301799
0.00283741
0.00273188
0.00245013
0.00218973
0.00177783
0.00146525
0.00113314
0.000434122
7.94152e-05
0.00059875
0.00171293
0.00254226
0.00356161
2.39383e-05
0.000563872
0.00134747
0.00156333
0.00177589
0.0021786
0.00201466
0.00230867
0.00172809
0.00180955
0.00176606
0.00168708
0.00108627
0.000654893
0.0008329
4.02316e-05
0.000568986
0.00124199
0.00213427
0.0026811
2.62581e-05
0.000319704
0.000750129
0.00126912
0.000979866
0.00119959
0.00121045
0.0011696
0.00124929
0.00127239
0.000982738
0.000791702
0.000850196
0.0007401
0.000223041
9.93741e-05
0.000415517
0.000829053
0.00131626
0.00157958
0.000116371
6.16207e-05
0.000265581
0.000450629
0.000483785
0.000266446
0.000405967
0.000453925
0.000433852
0.000601707
0.000222798
0.00015905
0.000225135
0.000416493
0.000320865
3.17836e-05
3.70841e-05
0.000301818
0.000472242
0.00057693
0.0013923
0.00299753
0.00449803
0.00575159
0.00647335
0.00729552
0.00726866
0.00734243
0.00689321
0.00656993
0.00597316
0.00563191
0.00503661
0.00418392
0.00319107
0.00168091
0.000126761
0.00182151
0.00401985
0.00586073
0.00147823
0.00269195
0.00424549
0.00528714
0.00604308
0.00645542
0.00663256
0.00657455
0.00644754
0.00610229
0.00565661
0.00523345
0.00470889
0.00391059
0.00285348
0.00162248
0.00021964
0.00143371
0.00339788
0.00495925
0.0014439
0.00237265
0.00370867
0.00464756
0.0056083
0.0057552
0.00580063
0.00591004
0.0056317
0.00533329
0.0050117
0.00452995
0.00416399
0.00345625
0.00241895
0.0014244
0.000262326
0.00097547
0.00275231
0.00411681
0.00133575
0.00216002
0.00330088
0.00403416
0.00464103
0.00480023
0.00494971
0.00501958
0.00477084
0.00444486
0.00436367
0.00375287
0.00363049
0.00293104
0.00253044
0.00131802
0.000325003
0.000678685
0.00219466
0.0033339
0.00122696
0.00163912
0.00256736
0.00342962
0.00363961
0.00399387
0.00427694
0.00420393
0.00397295
0.00385776
0.00350796
0.00322659
0.00278999
0.00232565
0.00200342
0.00118818
0.00019716
0.000732598
0.00166246
0.00255142
0.000653284
0.00159468
0.00198494
0.00230253
0.00265527
0.00289513
0.0030612
0.00299221
0.00279387
0.00279443
0.00265351
0.00239752
0.00208856
0.00173843
0.00119223
0.00077445
0.000244784
0.000329961
0.00126796
0.00181535
0.000482112
0.000698258
0.00118613
0.00135315
0.00187563
0.00191595
0.00167607
0.00182759
0.00175868
0.00170528
0.00167428
0.00147611
0.00147573
0.00128371
0.000865514
0.000760244
0.00027713
5.06456e-05
0.000727208
0.00109461
0.000303327
0.000343583
0.000333198
0.000495168
0.000602835
0.000351967
0.000554969
0.000680125
0.000396395
0.000670571
0.000605723
0.000512203
0.000473835
0.000243697
0.000125781
9.05059e-05
0.000263418
2.77874e-05
0.000353828
0.000428153
0.00429076
0.00604922
0.00782713
0.00919309
0.0101729
0.0108099
0.0110412
0.0111307
0.0108665
0.0106898
0.0100939
0.00950267
0.00874994
0.00764199
0.00652868
0.00524216
0.00359375
0.00170599
0.00058485
0.00275536
0.00424091
0.00545967
0.00710554
0.00825317
0.00932847
0.00967397
0.00987051
0.00956601
0.00949813
0.00947677
0.00887352
0.00836193
0.00787488
0.0070285
0.00616357
0.00490969
0.00320448
0.00137337
0.000547278
0.0024211
0.00383633
0.00478445
0.00599649
0.00726526
0.00795797
0.00837208
0.00856414
0.00855487
0.00825069
0.00825751
0.0078932
0.0074073
0.00688179
0.0060626
0.00538387
0.00415812
0.00293011
0.00134465
0.000333685
0.00200506
0.00318238
0.00406098
0.00495585
0.00615527
0.00702326
0.00700779
0.00718915
0.00730295
0.00711272
0.00681774
0.00689739
0.00624354
0.0057109
0.00516376
0.0046721
0.00344047
0.0022141
0.00130303
0.000278119
0.00149258
0.00260921
0.00325622
0.00407779
0.00477093
0.0054442
0.0057612
0.00573955
0.00583827
0.00562913
0.00559288
0.00544935
0.00510799
0.00460194
0.00434511
0.00352949
0.00293637
0.00192835
0.000908389
7.79653e-05
0.00123223
0.00187519
0.00227081
0.00309605
0.00358324
0.00378687
0.0039198
0.0042923
0.00421064
0.00415767
0.00416398
0.00382954
0.0036766
0.00327136
0.00290871
0.00274375
0.00191909
0.00138026
0.000504037
8.12442e-05
0.00081698
0.00118662
0.00159047
0.00175601
0.00217189
0.00263382
0.00236452
0.00263454
0.00289384
0.00243116
0.00248708
0.00247919
0.00239056
0.00208437
0.00183166
0.00159611
0.00116912
0.000809945
0.000469436
0.000184879
0.000450144
0.000236523
0.000672845
0.000776757
0.000675997
0.000914944
0.000781474
0.00102537
0.00108939
0.000798264
0.00079911
0.000855341
0.000783176
0.000804218
0.000631065
0.000401273
0.000271902
0.000289374
3.8854e-05
0.000157048
5.89223e-05
0.00753834
0.0093731
0.0110498
0.0126524
0.0135231
0.0142331
0.0147002
0.014824
0.0144522
0.0141678
0.0138206
0.0132055
0.0124292
0.0114859
0.0102383
0.00871453
0.00704812
0.0048211
0.00255098
0.000328828
0.00667139
0.00836435
0.00971714
0.0112043
0.0124206
0.0129554
0.0130215
0.0130302
0.0128959
0.0126742
0.0122077
0.0117471
0.0111218
0.0104009
0.00909795
0.00783861
0.00628341
0.00423115
0.00227947
0.00037438
0.00595857
0.00714941
0.00849299
0.0096559
0.0105024
0.0107959
0.0114189
0.0112356
0.011295
0.0110492
0.0108528
0.0102136
0.00967527
0.00883258
0.00797637
0.00699665
0.00549357
0.0037345
0.00217057
0.000457887
0.00501008
0.00596873
0.00710927
0.00812607
0.00879419
0.00935737
0.00941113
0.00956956
0.00945377
0.00922606
0.00905583
0.00848474
0.00841102
0.00732323
0.00690784
0.00567203
0.00467888
0.00322738
0.0016633
0.000314923
0.00407626
0.00463603
0.00557479
0.00645392
0.00707573
0.00747315
0.00752027
0.00765554
0.00756749
0.00710942
0.00723575
0.00688187
0.00660908
0.00584186
0.00566823
0.00450268
0.00366323
0.00258304
0.00128189
0.000386039
0.0031299
0.00355284
0.00407076
0.00474597
0.00516138
0.00526543
0.00576677
0.0055647
0.00558404
0.00541858
0.00525822
0.00500559
0.00489895
0.00442366
0.00375888
0.00336246
0.00271504
0.00183977
0.0010594
0.000351777
0.0017142
0.00226859
0.00261172
0.00281286
0.00317947
0.00322075
0.00315613
0.00346662
0.00333817
0.0032675
0.00313808
0.00309842
0.00270834
0.00255834
0.00245065
0.00199416
0.00145084
0.0010512
0.00071761
0.00032239
0.000607457
0.00056322
0.00086745
0.000980003
0.000934435
0.00110162
0.00133853
0.00114553
0.00131464
0.00130366
0.00113428
0.0010532
0.000930831
0.00075633
0.000736656
0.000604749
0.000593739
0.000403428
0.000247165
0.000304079
0.00999632
0.0117596
0.0137137
0.0153165
0.0166713
0.0173654
0.0179401
0.0180192
0.017969
0.0176478
0.0171313
0.0166795
0.0158002
0.0145139
0.0134691
0.0117441
0.0101703
0.00757365
0.00526241
0.00291607
0.00893355
0.0104898
0.0124672
0.0137285
0.0148413
0.015612
0.0159345
0.0162858
0.0161018
0.0157227
0.0151962
0.0145585
0.0141006
0.0133073
0.0121477
0.010601
0.00870371
0.00687263
0.00458022
0.00268924
0.00767568
0.00922976
0.0106669
0.0117361
0.0125985
0.0134584
0.0135173
0.0138635
0.0138362
0.013693
0.0133809
0.0128101
0.0120072
0.0115716
0.0103552
0.00930511
0.00770514
0.00576357
0.0039364
0.00213042
0.00640275
0.00756289
0.00874539
0.0101096
0.0106615
0.0113385
0.0116546
0.0115435
0.0115036
0.0112793
0.0110633
0.0106434
0.0101591
0.00943259
0.00859727
0.00783375
0.00634354
0.00504306
0.00347156
0.00206741
0.00533433
0.00612368
0.00704066
0.00796801
0.00853555
0.0089601
0.00916592
0.00934087
0.00925063
0.008971
0.00872218
0.00875315
0.00817326
0.0077979
0.00688334
0.00600055
0.00530489
0.00405591
0.0027496
0.00159277
0.00390376
0.00448406
0.00537829
0.00569669
0.00608038
0.00626569
0.00688294
0.00695872
0.0066891
0.00685626
0.00636682
0.00623582
0.00586709
0.00538799
0.00512381
0.0045298
0.00376387
0.002762
0.00211504
0.00114705
0.0023663
0.00263473
0.00328004
0.00345149
0.00364898
0.00394138
0.00383685
0.00407225
0.00401553
0.00393462
0.00394772
0.00390856
0.00379765
0.003292
0.00317037
0.00262629
0.00226723
0.0018251
0.00118421
0.000969662
0.000659528
0.000851374
0.00100365
0.0013214
0.00139973
0.00116218
0.00151322
0.00139491
0.00126025
0.0014489
0.00146713
0.00128948
0.00115243
0.00107805
0.00101219
0.00111224
0.000705694
0.000634177
0.000509711
0.000186743
0.0117847
0.0135355
0.015791
0.0175414
0.0190398
0.020055
0.0205753
0.020733
0.0208097
0.0205744
0.0200918
0.0193848
0.0183955
0.017593
0.016114
0.0143634
0.0121165
0.0101003
0.0071374
0.004667
0.0104332
0.0123591
0.0140294
0.0157408
0.0169288
0.0176338
0.0181878
0.0185207
0.0185047
0.0180888
0.0181372
0.0171883
0.0164388
0.015487
0.0142863
0.0128264
0.0109742
0.00857843
0.00650323
0.00445349
0.00931946
0.0105156
0.0123441
0.0134162
0.0146093
0.0154823
0.0157716
0.0161975
0.0159193
0.0159737
0.0153442
0.0148994
0.0143452
0.0135901
0.0122265
0.0110859
0.00950878
0.00770736
0.00548649
0.00381254
0.00765016
0.00888469
0.0101587
0.0114401
0.012304
0.0128643
0.013369
0.0133831
0.0133597
0.0132482
0.0128634
0.0125433
0.011839
0.0112681
0.0103466
0.00924091
0.00774588
0.00628337
0.00472708
0.00323693
0.00613566
0.00727281
0.00812759
0.00904163
0.00954164
0.0103584
0.0104333
0.0106112
0.0106332
0.010423
0.0103193
0.0102192
0.00957727
0.00897681
0.00826837
0.00734729
0.00629445
0.00494882
0.00387152
0.00259567
0.0044864
0.00545414
0.00605637
0.00684834
0.0071235
0.00718444
0.00777501
0.0075837
0.007728
0.00771943
0.00732404
0.00715487
0.00693978
0.00680201
0.0059051
0.00552634
0.00468842
0.00381218
0.00269895
0.0019972
0.00271514
0.00316013
0.00377613
0.00399624
0.00437121
0.00445667
0.00468546
0.00484135
0.0047505
0.00484324
0.00441885
0.00461626
0.00426071
0.00402908
0.00358086
0.00312138
0.00275636
0.00231706
0.00144593
0.00121082
0.000755882
0.00118843
0.00126495
0.00148329
0.0017186
0.0018775
0.00179457
0.00165716
0.00160901
0.00172076
0.00146394
0.00166369
0.00140915
0.00154831
0.001317
0.00108604
0.000869634
0.000889196
0.000685829
0.000186519
0.0129328
0.0150698
0.0173635
0.0190836
0.0208231
0.0221774
0.0226714
0.0229382
0.0230948
0.0227784
0.0224783
0.0215913
0.0208383
0.0197425
0.0183305
0.0163387
0.0140698
0.0115596
0.00873315
0.0062674
0.0117089
0.0134661
0.0156998
0.0172384
0.01856
0.0192876
0.0199315
0.0203357
0.0203414
0.0203025
0.0197287
0.0194584
0.0182648
0.0173708
0.0158834
0.014295
0.0126106
0.0102275
0.00765661
0.00562337
0.0100667
0.0116532
0.0134052
0.0147772
0.015842
0.0167962
0.0174822
0.0176702
0.0176667
0.0174202
0.017298
0.0167979
0.0160507
0.0149938
0.0139348
0.0126154
0.0108388
0.00908531
0.00674174
0.00495502
0.00824389
0.00978135
0.0112428
0.0124442
0.0133883
0.0140471
0.0145792
0.01474
0.0148814
0.0147744
0.0143609
0.0139958
0.0133169
0.0125533
0.0112989
0.0104176
0.00888965
0.0071995
0.00553614
0.00412223
0.00655167
0.00780281
0.00875424
0.0098342
0.0107367
0.0112278
0.0115966
0.0118429
0.0118464
0.0116702
0.0116822
0.0110555
0.0107142
0.00999914
0.00943722
0.00830836
0.00700833
0.00616248
0.00464899
0.00348359
0.00523468
0.00562955
0.00658053
0.00708122
0.00756782
0.00814397
0.00846016
0.00871059
0.00861846
0.0086598
0.00842797
0.00819466
0.007883
0.00726331
0.00686425
0.00586263
0.00539754
0.00416771
0.00337574
0.00257353
0.00304507
0.00345205
0.00395719
0.00440223
0.00473885
0.00476421
0.00509718
0.00535236
0.00518935
0.00530197
0.00520104
0.00504734
0.0049492
0.00436517
0.0040912
0.0035401
0.00324449
0.00263118
0.00216415
0.00154702
0.000864594
0.00122996
0.00126639
0.00154833
0.00148598
0.00169428
0.00176937
0.0015467
0.00175363
0.00175377
0.00186567
0.00177681
0.00153923
0.0015153
0.00140868
0.00125626
0.0011874
0.000768689
0.000616529
0.000513908
0.01366
0.0161335
0.0183745
0.0202577
0.0218878
0.0231045
0.0239864
0.0244667
0.0246306
0.0243208
0.0240815
0.023364
0.0223312
0.0210064
0.0192523
0.0173303
0.0150928
0.0126217
0.00976154
0.00691598
0.0119403
0.0140861
0.0160477
0.0179908
0.0194121
0.0203066
0.0212188
0.0217222
0.021825
0.0216739
0.0215492
0.0205817
0.0196031
0.018606
0.0171557
0.0155194
0.0133417
0.011079
0.00857385
0.00610316
0.010672
0.012114
0.0141264
0.0155438
0.0169062
0.0178647
0.0184061
0.0183928
0.0187565
0.0188585
0.018616
0.0177865
0.016992
0.0162449
0.0149841
0.0135382
0.0115647
0.00953014
0.00741248
0.00551391
0.00893573
0.0101544
0.0119475
0.0132126
0.0139707
0.0149549
0.0155589
0.0157836
0.0156978
0.0157334
0.0154422
0.0150381
0.0141205
0.01347
0.0124668
0.0112436
0.00977373
0.00813926
0.0063942
0.00452749
0.00703141
0.00806672
0.00909397
0.010332
0.0111804
0.0117403
0.0121881
0.0125911
0.0126982
0.0124271
0.0122502
0.0119456
0.0114885
0.0108192
0.0099819
0.00909403
0.00787597
0.00646515
0.00499753
0.00372834
0.00515156
0.00581854
0.00675201
0.00741316
0.00837364
0.00892643
0.00915252
0.00903552
0.00929728
0.00906263
0.00894426
0.00863265
0.00822141
0.00778768
0.00717086
0.00643627
0.00553841
0.00455154
0.00359626
0.00271487
0.00318303
0.00369224
0.00426198
0.0046559
0.00495935
0.00524769
0.00568568
0.00568136
0.00564249
0.00556171
0.00551492
0.00517758
0.00522506
0.0050251
0.00458872
0.00402619
0.0035219
0.00282918
0.00205961
0.00163578
0.00109741
0.00146418
0.00154875
0.00164516
0.00184595
0.00198078
0.0019309
0.00193638
0.00199789
0.001722
0.00164529
0.00179929
0.00169153
0.00177064
0.00143557
0.00129876
0.00111511
0.000733346
0.000779201
0.000396536
0.0134476
0.0158552
0.0185006
0.020625
0.0221823
0.0237857
0.0247475
0.0251882
0.0255305
0.0254258
0.024913
0.0240866
0.0228592
0.0215494
0.0200654
0.0180947
0.0155758
0.0127576
0.00962471
0.00728659
0.01188
0.0140798
0.0162946
0.0181142
0.0196461
0.0210183
0.0219159
0.0224285
0.0226939
0.0224275
0.022149
0.0213251
0.0205367
0.0192549
0.0176693
0.0158174
0.013807
0.0113568
0.00866247
0.00610463
0.0105617
0.0125783
0.014123
0.0157678
0.0171299
0.0182672
0.0188868
0.019443
0.0194285
0.019598
0.0190301
0.0186121
0.0180268
0.0167981
0.0153325
0.013748
0.0118445
0.00966618
0.00757565
0.00551579
0.00887171
0.0101544
0.0119981
0.0131175
0.0142936
0.0151507
0.0158738
0.0161092
0.0163086
0.0163244
0.0161104
0.0153294
0.0146564
0.0137891
0.0129216
0.0115133
0.00994132
0.00823948
0.00604789
0.00447027
0.00689318
0.00811272
0.00936799
0.0103006
0.0112542
0.0123605
0.0126152
0.012828
0.0130123
0.0129298
0.0127223
0.0123649
0.0116741
0.0109322
0.0103296
0.00914251
0.00790942
0.00648835
0.00498475
0.00371511
0.00517912
0.00596807
0.00689225
0.00766532
0.00844178
0.00894452
0.00906171
0.00932269
0.00944773
0.00943121
0.00930307
0.00900456
0.00885224
0.00817743
0.00749671
0.00659444
0.00581679
0.00467816
0.00352377
0.00274129
0.002993
0.00345504
0.00414702
0.00484574
0.00508846
0.00538342
0.00557036
0.00595097
0.00563156
0.00575198
0.00581271
0.00567411
0.00509523
0.00461667
0.00449912
0.00431425
0.00363405
0.00308166
0.0023294
0.00184546
0.00118304
0.00127973
0.00141655
0.00165485
0.00190629
0.0017584
0.00192084
0.0020428
0.00206347
0.00202361
0.00205739
0.00194179
0.00202312
0.00192443
0.00132137
0.00138751
0.00130179
0.00101935
0.000805877
0.00058069
0.0126225
0.0151141
0.0176489
0.0199912
0.0219938
0.0233661
0.0244057
0.0251993
0.0253969
0.0254394
0.0252763
0.024097
0.0231591
0.0217051
0.0198219
0.0176244
0.0153562
0.0122701
0.00907785
0.00646849
0.0114547
0.0133428
0.0157491
0.0177535
0.0193379
0.0207681
0.0215954
0.0223514
0.0225715
0.0224974
0.0221571
0.0213377
0.0204414
0.0191744
0.0175565
0.0156939
0.0135647
0.0110324
0.00823759
0.00575872
0.00975206
0.0115626
0.0136186
0.0154444
0.0167881
0.0181431
0.018797
0.0194682
0.0194437
0.0196741
0.0190253
0.0185792
0.0177928
0.0165868
0.0154248
0.0137584
0.0116104
0.00949528
0.00708944
0.00514901
0.00807515
0.0096663
0.0113524
0.0132829
0.0141981
0.0152347
0.0157879
0.0160279
0.0163484
0.0163497
0.0159982
0.0154398
0.0148234
0.0140295
0.0127865
0.0113069
0.00995415
0.0079198
0.0060215
0.00418231
0.00694761
0.00801988
0.00923764
0.0102687
0.0110841
0.0121711
0.0126065
0.012745
0.0130913
0.0130189
0.0127161
0.0123603
0.0116757
0.0110228
0.0101137
0.00900379
0.00781005
0.00633267
0.00468839
0.00349563
0.00509063
0.00570802
0.00682638
0.00757878
0.00824094
0.00888911
0.00911012
0.00935785
0.00967171
0.00967451
0.00936276
0.0090792
0.00873967
0.00829886
0.0072135
0.00659632
0.005736
0.00465298
0.00347038
0.00276423
0.00311043
0.00344498
0.00415644
0.00459731
0.00521517
0.00550474
0.00568087
0.00573701
0.00591309
0.00576453
0.00562431
0.00558124
0.00525759
0.0049462
0.00464092
0.00398603
0.00364307
0.00279545
0.00205358
0.00164952
0.00104297
0.00103768
0.0014168
0.00188103
0.00162291
0.00187046
0.00183572
0.00198655
0.00196636
0.00206339
0.00181866
0.00191106
0.00179459
0.00170853
0.00169681
0.00128219
0.00114144
0.00106869
0.000631648
0.000395805
0.0109972
0.0135445
0.0164598
0.0190455
0.0209064
0.0224247
0.0237714
0.0242957
0.0247872
0.0246416
0.0242331
0.0236444
0.022461
0.0208864
0.0192217
0.0169162
0.0139882
0.010875
0.00779371
0.00494576
0.00979235
0.0121224
0.0146962
0.0166175
0.0183746
0.0200806
0.020913
0.0216688
0.0218929
0.0219586
0.0215404
0.0208112
0.0197785
0.0184338
0.0167884
0.0147539
0.0126307
0.00989384
0.00711014
0.00448168
0.00856939
0.0105607
0.0124905
0.0145103
0.0160168
0.0171759
0.0182935
0.0187054
0.0189554
0.0189678
0.0186742
0.018097
0.0173123
0.0162018
0.0147441
0.0130878
0.0107644
0.00840887
0.00635524
0.00392228
0.00723369
0.00888685
0.0104899
0.0121108
0.0134263
0.0145097
0.0151093
0.0160443
0.015974
0.0158263
0.0156005
0.0151913
0.0144065
0.0136038
0.0122414
0.0106988
0.00901773
0.007096
0.00520742
0.00353607
0.00570947
0.00696495
0.00852116
0.00989118
0.0108445
0.0116893
0.0121201
0.0126632
0.0127047
0.0127497
0.0125415
0.0123397
0.011381
0.0107677
0.00975143
0.00862174
0.00709126
0.00579214
0.00415592
0.00259049
0.0044398
0.00510979
0.00614785
0.00714265
0.00808903
0.00849247
0.00887239
0.00910437
0.00925374
0.00935465
0.0092658
0.00876428
0.00853973
0.00786117
0.00707663
0.00628595
0.00507086
0.00401282
0.00294155
0.0020225
0.00253716
0.00331111
0.00381504
0.00445777
0.0047821
0.00513216
0.00556168
0.00561726
0.00566569
0.00574197
0.00551556
0.0052363
0.00522062
0.00495635
0.00445301
0.00384939
0.00317046
0.00256473
0.00176773
0.00112439
0.000938965
0.000968106
0.00130269
0.00158702
0.00176983
0.00179712
0.00179344
0.00202246
0.00173434
0.00182446
0.00193914
0.00201492
0.00178002
0.00169153
0.00155117
0.0013856
0.00123384
0.000963383
0.000605347
0.000156165
0.00856229
0.0114441
0.0140538
0.0169878
0.0188841
0.0208453
0.0220628
0.0226955
0.0231934
0.0233617
0.0229944
0.0220863
0.0208761
0.0193823
0.0173795
0.0149553
0.0122176
0.00912305
0.00606169
0.00274897
0.0076443
0.0101461
0.0125279
0.0149251
0.0169554
0.0183705
0.0195807
0.0202124
0.020759
0.0207194
0.0202477
0.0197194
0.0184882
0.0172599
0.0155011
0.0132735
0.0107755
0.00816805
0.00521192
0.00262556
0.00685903
0.00856902
0.010905
0.0129608
0.0146874
0.0160338
0.0169981
0.0175583
0.017727
0.0178341
0.0176579
0.0170814
0.0162242
0.0147769
0.0133028
0.0116134
0.0095057
0.0071259
0.00476987
0.00231482
0.00556832
0.00735165
0.00936999
0.0107905
0.0121897
0.0131705
0.014182
0.0147418
0.0149761
0.0148456
0.014595
0.0142809
0.0136921
0.0124653
0.0113309
0.00963413
0.00804621
0.00599486
0.00385988
0.00185919
0.00468741
0.0057183
0.00714264
0.00856555
0.00980352
0.0103967
0.0113215
0.0116179
0.0119903
0.0120832
0.0118165
0.0114504
0.0108739
0.00999152
0.00884429
0.00789132
0.00621942
0.00455603
0.00325625
0.00150371
0.00323307
0.0043252
0.00528112
0.00635922
0.00708389
0.00781577
0.00841877
0.00847441
0.0087963
0.00865067
0.00863579
0.00829843
0.00785466
0.00748367
0.00656506
0.00554599
0.00453482
0.00344039
0.00214333
0.00109002
0.00211396
0.00283991
0.0034244
0.00391058
0.00435901
0.00501742
0.00498022
0.00525639
0.00543144
0.0053251
0.00525214
0.00487147
0.00500156
0.00443232
0.00403598
0.00341085
0.00275185
0.00217585
0.00127566
0.000561558
0.000703105
0.00103978
0.00115645
0.00128255
0.00150476
0.0016445
0.00169522
0.001989
0.0018957
0.0019522
0.00188891
0.00153923
0.00155214
0.00147756
0.00142062
0.00120562
0.000881043
0.00075331
0.000806129
0.000195616
0.00566662
0.0084085
0.011331
0.0141645
0.0161965
0.0184235
0.0195897
0.0205512
0.0209026
0.0212134
0.0207013
0.0199553
0.0186168
0.01697
0.0150024
0.0127998
0.00971212
0.0066599
0.00302671
0.000110595
0.00506344
0.00752566
0.00989392
0.0124918
0.0145097
0.0164247
0.0172952
0.0180528
0.0182714
0.0185403
0.0181806
0.0175276
0.0163483
0.0149573
0.0131021
0.0110717
0.00869435
0.00576491
0.00282967
2.92588e-05
0.00417304
0.00646537
0.00876238
0.0109836
0.0127314
0.0139239
0.0148022
0.0157878
0.0161657
0.0161209
0.015725
0.0154984
0.014364
0.0129378
0.0113325
0.00944731
0.00739242
0.00512433
0.00250823
0.000200803
0.00382123
0.00525072
0.00745956
0.00904701
0.0105905
0.0117086
0.0126188
0.0132013
0.0134858
0.0134131
0.0131543
0.0127746
0.0120716
0.0109516
0.00951413
0.00833385
0.00620223
0.00417165
0.00203409
0.000194212
0.0030964
0.00425345
0.00585874
0.00724668
0.00825768
0.00919486
0.0100738
0.0103934
0.0106006
0.0107585
0.0107303
0.010124
0.00942618
0.00873603
0.0076833
0.00645777
0.00485679
0.00340078
0.00156647
0.000190534
0.0020714
0.00322783
0.00419922
0.00523622
0.00602653
0.00705587
0.00728172
0.00769338
0.00789118
0.00799328
0.00789652
0.00732021
0.00707158
0.006517
0.00547877
0.00474088
0.00365589
0.00252956
0.00127956
5.23297e-05
0.00122667
0.00208839
0.00290042
0.00345367
0.00391096
0.00433769
0.00441409
0.00468469
0.00489986
0.00492855
0.00468812
0.0046543
0.00448616
0.00395221
0.00344799
0.00294891
0.00213371
0.00157067
0.000805825
0.000192752
0.000371274
0.000954139
0.00102213
0.00132133
0.00126411
0.00117462
0.00158293
0.00178597
0.001492
0.00179647
0.0016812
0.00145215
0.00143196
0.00111835
0.00115709
0.00085407
0.000540916
0.000583472
0.000293246
0.000256627
0.00184036
0.0046865
0.00793858
0.0108187
0.0129442
0.0148512
0.0162638
0.0173356
0.0178204
0.0176663
0.0176855
0.0167002
0.0155858
0.0140579
0.0117429
0.00944413
0.00647029
0.0029654
0.000436864
0.00374969
0.00173088
0.00414885
0.00705452
0.00945837
0.0113755
0.0133212
0.014727
0.0155636
0.0159018
0.0158422
0.0155857
0.0149681
0.0138376
0.0123861
0.0103938
0.00823928
0.00564389
0.00261477
0.000377446
0.00308137
0.00151377
0.00349666
0.0060496
0.00799635
0.00980419
0.0116285
0.0126201
0.0132665
0.0136961
0.0135721
0.0135811
0.0129624
0.0119989
0.0107554
0.00914402
0.00699087
0.00482422
0.00252175
0.000381065
0.00252988
0.00123945
0.00317235
0.0051002
0.00689844
0.008271
0.00966546
0.0105359
0.0110317
0.0114412
0.0114369
0.0113274
0.0109125
0.0100717
0.00899849
0.00751482
0.00606919
0.00404934
0.00195496
0.000270448
0.00218218
0.00101558
0.00246469
0.00400164
0.00543746
0.00656911
0.00747387
0.00828526
0.00894601
0.00925808
0.00909391
0.00896586
0.00859947
0.00775638
0.00725174
0.00611739
0.00488081
0.00309136
0.0015778
0.000406606
0.00186927
0.000890591
0.00175315
0.00299809
0.00396547
0.00480586
0.00562218
0.00621322
0.00662544
0.00661918
0.00673532
0.00663281
0.00624964
0.00577538
0.0054061
0.00462454
0.00360579
0.00244095
0.00114501
0.00016318
0.00125416
0.000266799
0.000880665
0.00176415
0.00250358
0.00322926
0.00369095
0.00387332
0.00396428
0.00412782
0.00404486
0.00383101
0.00396833
0.00376216
0.00328369
0.00277543
0.00219612
0.00159706
0.000682075
2.51549e-05
0.00104257
0.000128208
0.00089666
0.000769157
0.000756453
0.00100281
0.00119064
0.00103588
0.00147507
0.00173062
0.00151922
0.00143499
0.00125557
0.00145449
0.00115311
0.000756547
0.00071327
0.000146771
0.000431163
0.000135215
0.000332131
0.00261585
0.000443137
0.00344598
0.00649209
0.00876963
0.0108602
0.0123197
0.0134813
0.0139114
0.0139345
0.0139036
0.0127718
0.0117601
0.00995075
0.00778335
0.00546406
0.00226616
0.00112813
0.00470231
0.00791474
0.00233203
0.000283551
0.00290023
0.00557829
0.00795601
0.00948448
0.0111395
0.0117379
0.0125161
0.0123735
0.0120156
0.0114625
0.0103658
0.008765
0.00699956
0.00472655
0.00187672
0.00100772
0.00423205
0.00707122
0.00204816
0.000114025
0.00271234
0.00480022
0.00664985
0.00827189
0.00943717
0.0104054
0.0105247
0.0107593
0.0104791
0.00977233
0.00899093
0.00746972
0.00592605
0.00409358
0.00172426
0.000807183
0.00358852
0.00609672
0.00169467
0.000152877
0.00229782
0.00398474
0.00578886
0.0070329
0.00800682
0.00861333
0.0091352
0.00881109
0.00865444
0.00831443
0.00743606
0.00651266
0.00519766
0.00329575
0.00161398
0.00064276
0.00308928
0.00511444
0.00136489
8.35001e-05
0.00163638
0.00316414
0.00450386
0.00551763
0.00653385
0.00704877
0.00704313
0.00721861
0.00709442
0.00674815
0.00579414
0.00516584
0.003981
0.00279719
0.00110575
0.000371974
0.00230596
0.00392561
0.000946429
0.000239787
0.00111421
0.00232833
0.00321841
0.00404933
0.00475823
0.00509292
0.00546635
0.00537619
0.00524832
0.00500243
0.00432217
0.00373285
0.00286073
0.00196822
0.000805509
0.000145154
0.00171893
0.00310633
0.000352391
0.000124975
0.000908003
0.001598
0.00187175
0.00264724
0.00262093
0.0031719
0.00346048
0.00321438
0.00326257
0.0029368
0.00241454
0.00234641
0.00176671
0.00158051
0.000431509
0.000255346
0.00104946
0.00176189
0.00017742
6.01295e-05
0.00036029
0.000439264
0.000636747
0.000984995
0.00106086
0.00113312
0.00116681
0.00099836
0.000833391
0.000871213
0.000964376
0.000903678
0.000406228
0.000558837
0.000185368
7.95833e-05
0.000408664
0.000496789
0.00812444
0.00482849
0.00180746
0.00135321
0.00377032
0.00599335
0.00772046
0.00878353
0.00924376
0.00937987
0.00901385
0.00839348
0.00699788
0.00530556
0.00309919
0.000618478
0.00254392
0.00578596
0.0096681
0.0127362
0.00704557
0.00439098
0.00133062
0.00108766
0.00326141
0.00534122
0.00680786
0.0076948
0.00829102
0.00825433
0.00798858
0.00741783
0.00631789
0.00465458
0.00275392
0.000224397
0.00221522
0.00536517
0.00843136
0.011288
0.00589765
0.00385817
0.00124144
0.00102434
0.00284004
0.00454088
0.00576015
0.00649813
0.00713498
0.00732077
0.00707627
0.00639399
0.00539613
0.00398232
0.00225772
0.00042834
0.00189005
0.00473937
0.0074512
0.00985737
0.00507648
0.0033622
0.00109444
0.000808537
0.00241616
0.00381579
0.0048406
0.00561347
0.00602115
0.00601369
0.00592979
0.0054231
0.00465961
0.00341951
0.00214119
0.000403726
0.00159328
0.00390095
0.00616893
0.0079692
0.00395822
0.00263238
0.000722941
0.000768217
0.00206061
0.00291879
0.00389779
0.00459195
0.00471349
0.00502566
0.00476371
0.00428117
0.00360132
0.00274664
0.00174413
0.000280247
0.00129579
0.00295383
0.00507973
0.00667218
0.00299491
0.00196738
0.000581202
0.000425115
0.00143341
0.00205868
0.00267877
0.00344067
0.0035494
0.00371766
0.00364483
0.0029913
0.00258808
0.00210032
0.00118405
0.000275685
0.000838601
0.00241949
0.00362854
0.00504575
0.00180552
0.00111299
0.000525604
0.000382903
0.00104698
0.00140971
0.00199027
0.00215307
0.00221583
0.00238181
0.00209306
0.00199002
0.00166692
0.00119318
0.000771539
9.73524e-05
0.000618946
0.00142986
0.00222875
0.00284102
0.000511721
0.000521042
0.000226767
1.58287e-05
0.00036473
0.000413697
0.000613308
0.000678688
0.000804436
0.00079596
0.000836314
0.000559134
0.000823291
0.00040171
0.000232168
4.27582e-06
0.000366138
0.000288863
0.000913066
0.000945709
0.0137131
0.010491
0.00713773
0.00436715
0.00163968
0.000545166
0.00225056
0.00334685
0.00399931
0.00416783
0.00376561
0.00288982
0.00173893
0.000143913
0.00213911
0.004918
0.00804963
0.0113279
0.0151035
0.0183441
0.011995
0.00948361
0.00657349
0.00359105
0.00131416
0.000369192
0.00187241
0.00293463
0.00346592
0.00373801
0.00332188
0.00263851
0.00158062
0.000154371
0.00196344
0.00444035
0.00703459
0.0102999
0.0135225
0.016465
0.0103534
0.00832085
0.00565461
0.00341892
0.00118417
0.000462738
0.0017057
0.00263019
0.00311448
0.00346814
0.00305054
0.00239856
0.00139973
0.000111415
0.00174127
0.00374919
0.00606892
0.0089241
0.0116763
0.0139723
0.00866281
0.00673759
0.00474032
0.00257001
0.00115161
0.000314325
0.00145156
0.00224345
0.00261792
0.0028139
0.0023311
0.00191199
0.00142716
0.000148935
0.00152149
0.00337016
0.0051061
0.00738039
0.00982665
0.0117799
0.00701709
0.00569169
0.00375456
0.00225252
0.000661088
0.000246025
0.00101078
0.00181426
0.00183384
0.00218148
0.00205185
0.00156413
0.000828493
0.000128596
0.000982694
0.00245221
0.00411375
0.00596211
0.00791166
0.00941419
0.00527661
0.00401786
0.00266642
0.00145499
0.000724229
0.000141204
0.0008446
0.00142762
0.00153407
0.00150995
0.00154649
0.00103429
0.000486415
7.07939e-06
0.000833601
0.00187533
0.00312212
0.00447816
0.00566955
0.0068464
0.00330852
0.0025295
0.00176506
0.000997553
0.000217252
7.12539e-06
0.000572101
0.000578701
0.000922991
0.0010249
0.000826443
0.000614579
0.000451445
8.85083e-06
0.000426974
0.00110761
0.00173836
0.00252488
0.00370929
0.00419172
0.00105069
0.000961136
0.000412991
0.000395584
0.000254773
0.000113459
0.000290784
0.000171283