/*--------------------------------*- C++ -*----------------------------------*\
| =========                 |                                                 |
| \\      /  F ield         | OpenFOAM: The Open Source CFD Toolbox           |
|  \\    /   O peration     | Version:  2212                                  |
|   \\  /    A nd           | Website:  www.openfoam.com                      |
|    \\/     M anipulation  |                                                 |
\*---------------------------------------------------------------------------*/
FoamFile
{
    version     2.0;
    format      ascii;
    arch        "LSB;label=32;scalar=64";
    class       volScalarField;
    location    "0";
    object      stateMean;
}
// * * * * * * * * * * * * * * * * * * * * * * * * * * * * * * * * * * * * * //

dimensions      [0 0 0 1 0 0 0];

internalField   nonuniform List<scalar> 
3200
(
340.606
341.266
342.211
342.854
343.451
343.954
344.285
344.594
344.59
344.587
344.435
344.112
343.773
343.2
342.555
341.774
340.905
339.972
338.996
338.12
335.49
336.085
336.752
337.444
337.871
338.379
338.683
338.877
338.913
338.843
338.764
338.527
338.136
337.674
337.141
336.445
335.745
334.901
334.021
333.289
330.17
330.688
331.247
331.783
332.315
332.651
332.889
333.072
333.098
333.094
332.994
332.727
332.447
332.066
331.608
331.006
330.314
329.789
328.932
328.387
324.78
325.235
325.696
326.148
326.549
326.789
327.063
327.163
327.297
327.231
327.115
326.906
326.676
326.371
325.94
325.532
324.913
324.38
323.756
323.331
319.372
319.634
320.04
320.393
320.766
320.917
321.174
321.237
321.289
321.245
321.162
320.984
320.797
320.571
320.206
319.888
319.565
319.057
318.654
318.227
313.866
314.107
314.452
314.628
314.807
315.044
315.094
315.271
315.151
315.209
315.196
315.138
314.887
314.666
314.621
314.262
313.958
313.639
313.26
313.017
308.34
308.474
308.665
308.892
308.869
309.003
309.067
309.106
309.168
309.194
309.104
309.026
309.007
308.921
308.702
308.598
308.372
308.178
307.969
307.845
302.759
302.828
302.909
302.986
303.02
302.976
303.038
303.071
303.076
303.134
303.019
302.993
303.001
303.041
302.992
302.863
302.839
302.738
302.666
302.619
341.664
342.446
343.258
344.013
344.596
345.207
345.503
345.785
345.817
345.805
345.6
345.384
344.994
344.445
343.801
342.956
342.089
341.099
340.051
339.189
336.322
336.928
337.709
338.34
338.887
339.31
339.633
339.835
339.954
339.922
339.771
339.544
339.205
338.714
338.096
337.398
336.635
335.799
334.881
334.161
330.885
331.356
332.015
332.564
333.128
333.417
333.654
333.878
333.921
333.894
333.787
333.555
333.298
332.877
332.311
331.742
331.113
330.465
329.662
329.048
325.378
325.778
326.327
326.76
327.158
327.406
327.637
327.811
327.842
327.794
327.767
327.51
327.358
326.979
326.667
326.076
325.553
325.032
324.363
323.861
319.836
320.07
320.504
320.93
321.154
321.42
321.651
321.745
321.757
321.766
321.653
321.518
321.292
321.026
320.782
320.369
319.896
319.449
319.015
318.629
314.121
314.488
314.708
314.916
315.139
315.322
315.475
315.537
315.536
315.569
315.525
315.411
315.253
315.059
314.787
314.547
314.27
313.981
313.589
313.346
308.516
308.625
308.834
308.95
309.178
309.256
309.242
309.339
309.355
309.358
309.348
309.268
309.231
309.121
308.932
308.834
308.619
308.452
308.186
308.029
302.898
302.924
302.941
303.012
303.067
303.013
303.094
303.149
303.075
303.165
303.146
303.11
303.087
303
302.944
302.911
302.942
302.832
302.713
302.676
342.997
343.829
344.732
345.52
346.187
346.729
347.107
347.389
347.481
347.517
347.312
347.013
346.571
345.94
345.26
344.497
343.603
342.639
341.562
340.591
337.548
338.154
338.963
339.626
340.275
340.671
340.995
341.109
341.244
341.32
341.116
340.86
340.538
340.035
339.487
338.785
337.925
337.033
336.134
335.309
331.929
332.405
333.02
333.674
334.145
334.518
334.8
334.979
335.011
335.084
334.963
334.731
334.424
333.97
333.527
332.885
332.238
331.48
330.712
329.997
326.186
326.602
327.068
327.649
328.129
328.317
328.554
328.74
328.786
328.747
328.773
328.502
328.221
327.893
327.555
326.962
326.366
325.879
325.191
324.666
320.44
320.746
321.144
321.515
321.883
322.134
322.265
322.412
322.429
322.461
322.415
322.262
322.016
321.818
321.419
321.08
320.605
320.131
319.68
319.212
314.62
314.815
315.171
315.429
315.603
315.751
315.966
316.023
316.067
316.1
315.994
315.915
315.727
315.531
315.381
315.015
314.737
314.356
314.076
313.774
308.802
308.969
309.078
309.269
309.478
309.458
309.601
309.73
309.623
309.659
309.657
309.61
309.48
309.353
309.221
309.026
308.849
308.681
308.421
308.297
302.901
303.047
303.098
303.089
303.183
303.164
303.258
303.293
303.217
303.224
303.241
303.212
303.207
303.138
303.049
302.988
302.972
302.875
302.795
302.811
344.624
345.478
346.341
347.204
347.824
348.383
348.833
349.119
349.167
349.162
349.042
348.738
348.295
347.728
347.011
346.174
345.283
344.207
343.143
342.158
338.815
339.577
340.281
341.054
341.743
342.195
342.467
342.68
342.786
342.792
342.634
342.397
342.034
341.581
340.891
340.196
339.394
338.432
337.528
336.696
333.012
333.565
334.219
334.833
335.348
335.675
336.093
336.21
336.357
336.343
336.277
335.997
335.691
335.234
334.739
334.185
333.453
332.642
331.916
331.191
327.093
327.532
328.074
328.593
329.001
329.372
329.562
329.758
329.825
329.805
329.749
329.508
329.379
328.88
328.573
327.983
327.469
326.809
326.131
325.564
321.152
321.428
321.86
322.287
322.635
322.907
323.055
323.211
323.264
323.159
323.2
323.044
322.875
322.517
322.329
321.811
321.393
320.903
320.355
319.971
315.187
315.39
315.647
315.962
316.199
316.335
316.587
316.604
316.667
316.646
316.595
316.485
316.394
316.164
315.861
315.633
315.324
314.945
314.606
314.315
309.069
309.282
309.444
309.567
309.745
309.82
309.856
310
309.994
309.991
309.951
309.92
309.766
309.671
309.582
309.379
309.147
308.962
308.803
308.639
303.048
303.049
303.16
303.214
303.222
303.293
303.384
303.341
303.404
303.407
303.356
303.325
303.276
303.207
303.182
303.122
303.097
303.019
302.953
302.956
346.158
346.983
347.933
348.787
349.562
350.104
350.579
350.839
350.99
350.968
350.79
350.545
350.074
349.399
348.763
347.868
347.019
345.825
344.755
343.731
340.179
340.89
341.798
342.486
343.13
343.653
344.001
344.321
344.404
344.351
344.173
343.881
343.58
343.111
342.48
341.696
340.789
339.909
338.896
338.074
334.09
334.759
335.439
336.016
336.528
337.034
337.256
337.539
337.653
337.67
337.566
337.311
336.921
336.609
336.002
335.433
334.677
333.812
333.004
332.251
327.964
328.466
329.016
329.642
330.006
330.407
330.675
330.777
330.864
330.843
330.772
330.582
330.324
329.949
329.512
329.083
328.413
327.809
327.132
326.551
321.879
322.227
322.649
323.085
323.41
323.687
323.88
324.043
324.092
324.042
323.962
323.932
323.668
323.441
323.02
322.597
322.231
321.692
321.147
320.681
315.663
315.913
316.285
316.485
316.708
316.865
317.151
317.25
317.221
317.303
317.148
317.078
316.906
316.68
316.505
316.22
315.876
315.462
315.168
314.797
309.41
309.532
309.787
309.899
310.021
310.171
310.194
310.312
310.327
310.319
310.323
310.294
310.227
310.025
309.932
309.705
309.533
309.338
309.085
308.979
303.111
303.182
303.246
303.362
303.407
303.355
303.48
303.459
303.429
303.492
303.498
303.438
303.385
303.348
303.31
303.32
303.176
303.134
303.078
302.968
347.641
348.455
349.499
350.392
351.205
351.843
352.285
352.56
352.746
352.748
352.581
352.254
351.753
351.256
350.484
349.593
348.524
347.541
346.255
345.196
341.44
342.27
343.066
343.896
344.555
345.043
345.458
345.76
345.892
345.823
345.84
345.445
345.054
344.542
343.908
343.165
342.282
341.222
340.29
339.419
335.275
335.821
336.624
337.192
337.805
338.306
338.593
338.896
338.918
338.997
338.787
338.578
338.278
337.866
337.221
336.632
335.892
335.082
334.149
333.445
328.894
329.416
329.992
330.582
331.042
331.395
331.717
331.852
331.938
331.951
331.825
331.671
331.346
331.03
330.571
330.04
329.375
328.726
328.058
327.454
322.543
322.999
323.396
323.824
324.12
324.515
324.66
324.819
324.898
324.869
324.836
324.765
324.486
324.192
323.844
323.416
322.942
322.377
321.908
321.408
316.138
316.507
316.784
317.129
317.312
317.426
317.699
317.71
317.807
317.833
317.708
317.626
317.507
317.392
317.023
316.809
316.449
316.077
315.64
315.355
309.693
309.868
310.111
310.236
310.41
310.494
310.616
310.707
310.71
310.755
310.624
310.669
310.527
310.413
310.223
310.024
309.853
309.66
309.339
309.228
303.198
303.342
303.383
303.468
303.559
303.626
303.618
303.591
303.587
303.626
303.548
303.603
303.516
303.543
303.456
303.367
303.283
303.269
303.19
303.026
349.083
350.022
351.071
351.941
352.822
353.562
353.98
354.278
354.481
354.449
354.345
353.96
353.551
352.967
352.231
351.272
350.209
349.068
347.837
346.786
342.78
343.547
344.525
345.286
345.977
346.459
346.892
347.207
347.336
347.391
347.195
347.036
346.502
346.021
345.302
344.529
343.715
342.669
341.577
340.718
336.294
336.963
337.734
338.393
338.952
339.468
339.877
340.089
340.196
340.17
340.13
339.905
339.548
339.045
338.512
337.875
337.079
336.294
335.328
334.592
329.718
330.335
330.965
331.522
331.998
332.375
332.697
332.871
333.006
333.016
332.881
332.715
332.404
332.032
331.474
331.025
330.358
329.641
328.946
328.37
323.166
323.656
324.078
324.554
324.973
325.255
325.488
325.662
325.731
325.71
325.714
325.476
325.298
324.974
324.679
324.192
323.645
323.246
322.643
322.181
316.723
316.91
317.292
317.542
317.787
318.057
318.239
318.384
318.404
318.443
318.37
318.27
318.123
317.861
317.654
317.249
317.011
316.532
316.2
315.885
310.004
310.167
310.373
310.565
310.725
310.786
310.937
311.056
311.035
311.085
311.053
310.991
310.931
310.71
310.577
310.354
310.207
309.963
309.769
309.541
303.302
303.425
303.452
303.556
303.555
303.637
303.675
303.621
303.694
303.699
303.733
303.701
303.619
303.598
303.55
303.486
303.447
303.301
303.239
303.196
350.559
351.608
352.627
353.54
354.368
355.044
355.58
355.939
356.133
356.097
356.014
355.693
355.197
354.546
353.707
352.788
351.75
350.635
349.403
348.227
343.922
344.815
345.691
346.578
347.289
347.813
348.323
348.66
348.813
348.824
348.781
348.389
347.936
347.432
346.739
345.963
344.995
344
342.94
341.938
337.397
338.013
338.861
339.525
340.172
340.678
341.027
341.162
341.383
341.469
341.388
341.058
340.692
340.303
339.714
339.046
338.194
337.325
336.443
335.675
330.683
331.19
331.922
332.492
332.897
333.371
333.706
333.893
333.946
334.001
333.905
333.729
333.346
333.019
332.554
332.001
331.363
330.673
329.957
329.238
323.895
324.311
324.753
325.271
325.666
325.962
326.213
326.431
326.528
326.473
326.416
326.286
326.076
325.772
325.396
324.994
324.481
323.907
323.324
322.832
317.107
317.376
317.75
318.044
318.433
318.692
318.839
318.864
318.991
318.94
318.903
318.781
318.607
318.407
318.137
317.822
317.452
317.056
316.675
316.338
310.293
310.485
310.709
310.882
311.028
311.166
311.347
311.383
311.398
311.387
311.373
311.254
311.242
311.143
310.962
310.739
310.531
310.265
309.98
309.814
303.455
303.577
303.619
303.665
303.744
303.801
303.8
303.815
303.843
303.763
303.74
303.783
303.741
303.752
303.635
303.578
303.504
303.371
303.369
303.242
351.89
352.909
354.057
355.04
355.827
356.621
357.169
357.498
357.744
357.773
357.594
357.24
356.686
356.054
355.325
354.404
353.283
352.061
350.745
349.751
345.121
346.025
346.978
347.81
348.546
349.219
349.709
350.037
350.236
350.202
350.106
349.767
349.389
348.798
348.073
347.237
346.339
345.292
344.177
343.151
338.393
339.195
339.878
340.608
341.244
341.797
342.16
342.475
342.561
342.665
342.475
342.286
341.999
341.458
340.812
340.109
339.293
338.385
337.52
336.703
331.507
332.031
332.771
333.285
333.818
334.24
334.604
334.786
334.927
334.97
334.9
334.604
334.307
333.918
333.506
332.903
332.24
331.535
330.681
330.061
324.508
324.979
325.489
325.902
326.323
326.788
326.968
327.118
327.235
327.239
327.172
327.026
326.745
326.425
326.132
325.641
325.13
324.56
323.971
323.483
317.585
317.89
318.256
318.581
318.908
319.143
319.25
319.39
319.471
319.487
319.446
319.331
319.241
318.97
318.685
318.323
317.997
317.557
317.118
316.815
310.516
310.692
310.95
311.215
311.338
311.476
311.576
311.728
311.653
311.704
311.722
311.666
311.463
311.28
311.202
311.098
310.84
310.62
310.343
310.16
303.575
303.615
303.672
303.76
303.852
303.822
303.886
303.935
303.949
303.941
303.951
303.912
303.929
303.887
303.69
303.695
303.653
303.551
303.471
303.392
353.187
354.227
355.326
356.371
357.298
357.995
358.553
358.992
359.176
359.25
359.193
358.721
358.278
357.608
356.755
355.771
354.751
353.448
352.121
351.04
346.35
347.142
348.15
349.033
349.774
350.452
350.904
351.302
351.477
351.504
351.387
351.053
350.646
350.072
349.35
348.523
347.597
346.533
345.393
344.4
339.285
340.014
340.86
341.639
342.257
342.872
343.234
343.577
343.652
343.773
343.554
343.361
343.012
342.489
341.956
341.237
340.349
339.473
338.51
337.738
332.198
332.818
333.501
334.272
334.71
335.181
335.479
335.654
335.828
335.864
335.748
335.528
335.256
334.898
334.372
333.756
333.174
332.369
331.617
330.915
325.267
325.687
326.179
326.617
326.985
327.436
327.667
327.786
327.951
327.955
327.857
327.714
327.44
327.155
326.771
326.312
325.822
325.24
324.611
324.152
318.087
318.335
318.758
319.071
319.355
319.632
319.766
319.897
320.034
320.055
319.956
319.846
319.701
319.509
319.101
318.834
318.487
318.07
317.626
317.351
310.87
311.005
311.266
311.448
311.684
311.817
311.91
311.959
312.036
312.001
311.958
311.933
311.81
311.682
311.549
311.303
311.152
310.845
310.573
310.417
303.638
303.648
303.776
303.932
303.868
303.957
303.96
304.017
304.018
304.051
303.977
304.001
303.959
303.921
303.905
303.765
303.707
303.67
303.525
303.442
354.381
355.434
356.655
357.773
358.635
359.368
360.018
360.349
360.626
360.629
360.485
360.224
359.704
359.004
358.242
357.233
355.997
354.696
353.417
352.26
347.31
348.246
349.303
350.146
350.933
351.692
352.133
352.52
352.687
352.756
352.611
352.314
351.867
351.278
350.557
349.685
348.773
347.65
346.521
345.483
340.183
340.967
341.762
342.597
343.259
343.795
344.302
344.548
344.709
344.751
344.652
344.418
344.076
343.595
342.973
342.27
341.332
340.384
339.548
338.616
332.981
333.618
334.265
334.927
335.487
335.964
336.268
336.664
336.702
336.685
336.611
336.443
336.122
335.769
335.213
334.584
333.903
333.142
332.401
331.759
325.693
326.168
326.763
327.304
327.71
328.076
328.296
328.54
328.601
328.641
328.574
328.483
328.124
327.858
327.447
326.989
326.396
325.879
325.258
324.683
318.471
318.732
319.126
319.511
319.88
320.073
320.252
320.373
320.455
320.504
320.476
320.3
320.194
319.931
319.624
319.308
318.854
318.449
318.045
317.704
311.046
311.315
311.511
311.752
311.893
312.041
312.209
312.255
312.29
312.325
312.255
312.157
312.132
312.021
311.83
311.604
311.352
311.123
310.837
310.608
303.726
303.744
303.858
303.959
304.028
304.049
304.059
304.139
304.058
304.089
304.124
304.144
304.065
304.028
303.975
303.912
303.851
303.755
303.634
303.488
355.465
356.629
357.734
358.962
359.823
360.696
361.288
361.643
361.913
362.02
361.89
361.521
360.999
360.34
359.472
358.436
357.278
355.994
354.731
353.416
348.253
349.244
350.226
351.222
352.09
352.737
353.295
353.628
353.898
353.926
353.763
353.538
353.03
352.491
351.743
350.816
349.786
348.718
347.538
346.518
341.032
341.716
342.641
343.479
344.204
344.793
345.237
345.524
345.65
345.721
345.661
345.43
345.071
344.483
343.866
343.162
342.307
341.36
340.429
339.493
333.599
334.275
335.052
335.639
336.218
336.651
337.084
337.348
337.482
337.467
337.383
337.25
336.999
336.513
336.04
335.369
334.728
333.932
333.116
332.369
326.271
326.669
327.217
327.769
328.259
328.536
328.911
329.068
329.232
329.284
329.198
329.056
328.826
328.479
328.031
327.637
327.006
326.376
325.87
325.237
318.738
319.13
319.494
319.9
320.194
320.486
320.731
320.792
320.924
320.894
320.889
320.766
320.595
320.433
320.089
319.705
319.321
318.909
318.437
318.057
311.305
311.557
311.775
311.964
312.142
312.382
312.402
312.514
312.587
312.563
312.54
312.413
312.435
312.232
312.076
311.847
311.604
311.387
311.071
310.822
303.784
303.896
303.943
303.994
304.074
304.128
304.155
304.253
304.231
304.251
304.232
304.122
304.12
304.089
304.06
303.983
303.872
303.821
303.825
303.63
356.556
357.666
358.872
360.055
360.951
361.906
362.465
362.925
363.134
363.288
363.106
362.797
362.237
361.534
360.69
359.744
358.474
357.214
355.758
354.586
349.196
350.168
351.137
352.194
353.046
353.855
354.283
354.65
354.798
354.93
354.804
354.539
354.056
353.469
352.698
351.85
350.873
349.701
348.535
347.447
341.678
342.555
343.459
344.345
345.068
345.594
345.999
346.421
346.611
346.627
346.492
346.383
345.936
345.363
344.711
343.949
343.122
342.221
341.208
340.326
334.294
334.847
335.684
336.317
336.937
337.407
337.797
338.062
338.206
338.208
338.122
337.969
337.685
337.241
336.675
336.185
335.369
334.588
333.776
333.086
326.747
327.183
327.783
328.318
328.728
329.11
329.464
329.623
329.729
329.8
329.791
329.573
329.307
329.028
328.617
328.141
327.539
326.982
326.307
325.8
319.079
319.489
319.854
320.242
320.551
320.934
321.053
321.223
321.314
321.36
321.33
321.132
321.025
320.809
320.431
320.142
319.739
319.322
318.868
318.436
311.456
311.749
312.034
312.242
312.418
312.584
312.636
312.743
312.827
312.844
312.769
312.751
312.681
312.492
312.307
312.119
311.831
311.621
311.35
311.134
303.827
304.012
304.043
304.146
304.14
304.124
304.258
304.328
304.243
304.339
304.304
304.231
304.22
304.117
304.118
304.015
303.909
303.91
303.811
303.792
357.483
358.625
359.941
361.131
362.05
362.879
363.515
364.004
364.251
364.235
364.242
363.851
363.378
362.725
361.768
360.799
359.578
358.165
356.796
355.488
350.022
350.974
352.124
353.104
353.912
354.721
355.326
355.71
355.894
355.906
355.817
355.567
355.106
354.506
353.696
352.814
351.77
350.571
349.392
348.34
342.455
343.222
344.208
344.992
345.727
346.46
346.894
347.194
347.395
347.381
347.384
347.143
346.759
346.256
345.609
344.763
343.906
343.001
341.896
341.072
334.812
335.53
336.267
336.966
337.52
338.074
338.444
338.673
338.855
338.877
338.84
338.678
338.352
337.929
337.354
336.783
336.012
335.215
334.379
333.668
327.143
327.671
328.244
328.789
329.233
329.597
329.923
330.189
330.325
330.29
330.248
330.11
329.799
329.585
329.153
328.68
328.022
327.452
326.732
326.2
319.47
319.785
320.232
320.595
320.916
321.226
321.458
321.624
321.647
321.696
321.663
321.529
321.352
321.2
320.907
320.533
320.108
319.641
319.173
318.786
311.618
311.832
312.139
312.401
312.658
312.831
312.914
312.964
313.03
313.011
312.944
312.98
312.901
312.731
312.546
312.336
312.119
311.802
311.566
311.21
303.908
304.148
304.12
304.127
304.213
304.279
304.241
304.381
304.464
304.403
304.377
304.32
304.375
304.276
304.147
304.125
303.942
304.017
303.835
303.768
358.338
359.553
360.775
362.017
362.98
363.865
364.508
365.02
365.241
365.284
365.273
364.831
364.401
363.655
362.758
361.79
360.497
359.13
357.704
356.434
350.727
351.746
352.788
353.858
354.819
355.472
356.156
356.448
356.78
356.759
356.633
356.409
355.965
355.319
354.597
353.682
352.555
351.414
350.158
349.061
343.04
343.864
344.861
345.686
346.428
347.084
347.57
347.974
348.063
348.169
348.073
347.804
347.486
346.893
346.277
345.549
344.628
343.65
342.591
341.648
335.31
335.995
336.8
337.455
338.147
338.646
339.043
339.304
339.518
339.431
339.378
339.242
338.908
338.541
338.029
337.309
336.658
335.812
334.906
334.161
327.516
328.041
328.617
329.186
329.692
330.087
330.475
330.688
330.717
330.791
330.75
330.62
330.276
330.026
329.583
329.132
328.511
327.958
327.258
326.677
319.708
320.124
320.45
320.887
321.219
321.531
321.796
321.934
322.076
322.058
322.017
321.927
321.687
321.468
321.15
320.819
320.4
320.047
319.497
319.017
311.921
312.091
312.363
312.608
312.722
312.99
313.006
313.196
313.299
313.23
313.245
313.136
312.96
312.921
312.716
312.631
312.244
312
311.725
311.481
303.981
304.024
304.161
304.195
304.265
304.379
304.41
304.439
304.453
304.404
304.353
304.363
304.387
304.362
304.203
304.241
304.117
304.027
303.918
303.884
358.952
360.251
361.474
362.753
363.758
364.683
365.414
365.884
366.109
366.189
366.056
365.801
365.236
364.538
363.633
362.616
361.341
360.034
358.499
357.283
351.324
352.354
353.549
354.52
355.402
356.243
356.853
357.24
357.503
357.516
357.422
357.193
356.752
356.09
355.326
354.326
353.351
352.121
350.924
349.823
343.628
344.408
345.407
346.288
347.012
347.688
348.186
348.503
348.767
348.854
348.77
348.51
348.121
347.571
346.897
346.177
345.28
344.197
343.166
342.26
335.741
336.379
337.222
337.944
338.565
339.109
339.519
339.83
340.003
340.019
339.99
339.801
339.508
339.038
338.543
337.885
337.133
336.274
335.432
334.765
327.887
328.37
329.059
329.612
330.098
330.437
330.807
331.075
331.144
331.26
331.174
331.001
330.749
330.428
330.05
329.511
328.932
328.324
327.565
326.994
319.927
320.29
320.776
321.144
321.511
321.752
321.985
322.258
322.313
322.377
322.354
322.134
321.984
321.799
321.471
321.14
320.739
320.186
319.757
319.269
311.994
312.23
312.439
312.75
312.983
313.121
313.322
313.39
313.422
313.48
313.39
313.351
313.238
313.073
312.921
312.626
312.436
312.156
311.881
311.67
304.055
304.059
304.158
304.23
304.355
304.378
304.446
304.472
304.514
304.513
304.525
304.439
304.515
304.381
304.323
304.243
304.124
304.139
303.94
303.923
359.64
360.912
362.253
363.385
364.497
365.402
366.118
366.594
366.884
366.973
366.826
366.479
366.006
365.349
364.422
363.3
362.041
360.724
359.229
357.951
351.925
352.902
354.041
355.209
356.121
356.815
357.432
357.876
358.111
358.232
358.084
357.816
357.393
356.709
355.983
355.007
353.981
352.713
351.463
350.333
344.081
344.856
345.869
346.735
347.599
348.251
348.752
349.129
349.336
349.479
349.333
349.086
348.7
348.119
347.484
346.706
345.813
344.732
343.69
342.823
336.163
336.872
337.619
338.428
338.979
339.542
339.984
340.298
340.456
340.539
340.375
340.216
340.021
339.542
338.919
338.226
337.568
336.723
335.824
335.106
328.152
328.633
329.328
329.88
330.461
330.811
331.108
331.409
331.44
331.568
331.525
331.35
331.083
330.817
330.405
329.869
329.265
328.598
327.899
327.36
320.105
320.54
321.014
321.445
321.719
322.033
322.291
322.504
322.555
322.556
322.568
322.394
322.201
322.021
321.72
321.348
320.908
320.431
320.008
319.6
312.071
312.333
312.596
312.861
313.129
313.22
313.416
313.433
313.551
313.589
313.527
313.455
313.393
313.24
313.084
312.85
312.629
312.358
311.964
311.795
304.076
304.109
304.283
304.298
304.347
304.468
304.528
304.496
304.54
304.57
304.552
304.49
304.478
304.485
304.498
304.375
304.18
304.085
304.009
303.934
360.131
361.43
362.728
363.987
365.105
366.044
366.7
367.211
367.446
367.57
367.484
367.079
366.613
365.914
365.072
363.964
362.698
361.288
359.857
358.425
352.367
353.325
354.52
355.643
356.594
357.334
357.967
358.366
358.642
358.722
358.686
358.351
357.894
357.348
356.496
355.597
354.524
353.201
352.057
350.861
344.384
345.222
346.291
347.2
347.997
348.659
349.118
349.577
349.751
349.848
349.738
349.463
349.097
348.555
347.983
347.185
346.203
345.245
344.104
343.143
336.427
337.142
337.975
338.652
339.283
339.982
340.341
340.655
340.779
340.882
340.776
340.564
340.298
339.893
339.292
338.746
337.919
337.03
336.22
335.449
328.439
328.906
329.567
330.153
330.653
331.087
331.446
331.667
331.767
331.836
331.845
331.65
331.439
331.054
330.597
330.254
329.596
328.903
328.261
327.631
320.406
320.698
321.07
321.563
321.909
322.237
322.538
322.666
322.75
322.776
322.774
322.657
322.477
322.232
321.906
321.551
321.134
320.788
320.201
319.778
312.197
312.45
312.733
312.948
313.173
313.325
313.495
313.589
313.718
313.742
313.69
313.61
313.603
313.366
313.22
313
312.74
312.354
312.134
311.935
304.15
304.144
304.249
304.345
304.436
304.467
304.514
304.536
304.612
304.588
304.572
304.533
304.449
304.51
304.402
304.326
304.307
304.129
304.067
303.928
360.519
361.763
363.179
364.416
365.458
366.412
367.113
367.609
367.962
368.078
367.965
367.631
367.165
366.4
365.513
364.417
363.15
361.77
360.215
358.926
352.634
353.644
354.855
355.969
356.932
357.749
358.374
358.787
359.036
359.133
359.014
358.756
358.308
357.714
356.898
355.996
354.906
353.619
352.361
351.272
344.726
345.593
346.513
347.476
348.307
348.978
349.564
349.847
350.09
350.16
350.005
349.864
349.475
348.965
348.28
347.481
346.566
345.519
344.442
343.535
336.675
337.34
338.098
338.88
339.608
340.118
340.604
340.892
341.064
341.159
340.996
340.875
340.523
340.15
339.652
338.926
338.141
337.339
336.408
335.652
328.569
329.171
329.688
330.3
330.905
331.302
331.618
331.926
332.048
332.044
332.012
331.82
331.572
331.308
330.832
330.31
329.753
329.103
328.382
327.859
320.482
320.835
321.368
321.713
322.077
322.427
322.619
322.777
322.888
322.966
322.971
322.79
322.659
322.319
322.135
321.79
321.324
320.787
320.316
319.905
312.325
312.572
312.82
313.064
313.275
313.467
313.687
313.686
313.76
313.794
313.717
313.729
313.639
313.439
313.224
313.014
312.729
312.565
312.239
311.973
304.092
304.194
304.256
304.454
304.491
304.498
304.589
304.571
304.602
304.594
304.566
304.582
304.578
304.524
304.422
304.398
304.323
304.238
304.111
304.039
360.742
361.96
363.289
364.625
365.767
366.733
367.356
367.952
368.192
368.296
368.221
367.969
367.398
366.763
365.807
364.748
363.426
362.004
360.5
359.167
352.795
353.94
355.112
356.181
357.077
357.941
358.637
358.943
359.215
359.379
359.335
359
358.649
357.931
357.198
356.242
355.171
353.916
352.541
351.46
344.832
345.76
346.71
347.628
348.507
349.117
349.672
350.089
350.274
350.463
350.297
350.086
349.723
349.129
348.558
347.692
346.762
345.748
344.661
343.683
336.821
337.451
338.312
339.109
339.719
340.301
340.747
341.064
341.216
341.242
341.251
341.093
340.843
340.277
339.744
339.046
338.254
337.483
336.575
335.849
328.66
329.182
329.796
330.446
331.008
331.36
331.79
332.057
332.158
332.186
332.15
332.042
331.782
331.387
331.018
330.481
329.899
329.236
328.549
327.866
320.57
320.927
321.326
321.747
322.181
322.447
322.678
322.856
322.993
322.915
323.017
322.863
322.729
322.477
322.163
321.801
321.393
320.921
320.414
320.019
312.327
312.58
312.874
313.064
313.372
313.515
313.6
313.723
313.81
313.852
313.82
313.762
313.67
313.488
313.301
313.144
312.836
312.504
312.282
311.975
304.169
304.259
304.357
304.435
304.447
304.558
304.568
304.627
304.612
304.641
304.611
304.562
304.535
304.531
304.427
304.354
304.285
304.259
304.093
304.005
)
;

boundaryField
{
    hotSide
    {
        type            fixedGradient;
        gradient        nonuniform List<scalar> 
400
(
321.511
322.87
325.591
329.677
335.133
341.965
350.181
359.788
370.794
383.208
397.037
412.289
428.971
447.088
466.647
487.651
510.105
534.011
559.372
586.191
323.738
325.08
327.767
331.802
337.194
343.949
352.078
361.591
372.498
384.81
398.537
413.687
430.268
448.289
467.755
488.672
511.043
534.872
560.161
586.913
326.149
327.47
330.116
334.091
339.406
346.071
354.099
363.503
374.296
386.491
400.101
415.136
431.606
449.52
468.885
489.706
511.988
535.735
560.948
587.63
328.704
330
332.597
336.503
341.73
348.292
356.205
365.485
376.15
388.215
401.695
416.604
432.954
450.753
470.009
490.73
512.919
536.579
561.714
588.325
331.33
332.599
335.142
338.97
344.099
350.546
358.332
367.477
378.003
389.928
403.271
418.047
434.27
451.949
471.095
491.712
513.807
537.382
562.439
588.978
333.918
335.158
337.643
341.389
346.414
352.74
360.392
369.397
379.779
391.562
404.765
419.407
435.503
453.065
472.101
492.618
514.622
538.114
563.096
589.569
336.321
337.531
339.959
343.622
348.544
354.751
362.274
371.142
381.385
393.031
406.101
420.618
436.595
454.047
472.983
493.409
515.33
538.747
563.663
590.076
338.36
339.543
341.92
345.509
350.339
356.44
363.847
372.595
382.718
394.244
407.2
421.608
437.485
454.844
473.695
494.045
515.897
539.253
564.114
590.478
339.852
341.015
343.352
346.885
351.645
357.665
364.985
373.643
383.675
395.113
407.984
422.312
438.116
455.407
474.197
494.491
516.294
539.606
564.428
590.758
340.643
341.795
344.11
347.613
352.334
358.311
365.584
374.193
384.176
395.567
408.393
422.679
438.443
455.699
474.456
494.722
516.498
539.788
564.589
590.901
340.643
341.795
344.11
347.613
352.334
358.311
365.584
374.193
384.176
395.567
408.393
422.679
438.443
455.699
474.456
494.722
516.498
539.788
564.589
590.901
339.852
341.015
343.352
346.885
351.645
357.665
364.985
373.643
383.675
395.113
407.984
422.312
438.116
455.407
474.197
494.491
516.294
539.606
564.428
590.758
338.36
339.543
341.92
345.509
350.339
356.44
363.847
372.595
382.718
394.244
407.2
421.608
437.485
454.844
473.695
494.045
515.897
539.253
564.114
590.478
336.321
337.531
339.959
343.622
348.544
354.751
362.274
371.142
381.385
393.031
406.101
420.618
436.595
454.047
472.983
493.409
515.33
538.747
563.663
590.076
333.918
335.158
337.643
341.389
346.414
352.74
360.392
369.397
379.779
391.562
404.765
419.407
435.503
453.065
472.101
492.618
514.622
538.114
563.096
589.569
331.33
332.599
335.142
338.97
344.099
350.546
358.332
367.477
378.003
389.928
403.271
418.047
434.27
451.949
471.095
491.712
513.807
537.382
562.439
588.978
328.704
330
332.597
336.503
341.73
348.292
356.205
365.485
376.15
388.215
401.695
416.604
432.954
450.753
470.009
490.73
512.919
536.579
561.714
588.325
326.149
327.47
330.116
334.091
339.406
346.071
354.099
363.503
374.296
386.491
400.101
415.136
431.606
449.52
468.885
489.706
511.988
535.735
560.948
587.63
323.738
325.08
327.767
331.802
337.194
343.949
352.078
361.591
372.498
384.81
398.537
413.687
430.268
448.289
467.755
488.672
511.043
534.872
560.161
586.913
321.511
322.87
325.591
329.677
335.133
341.965
350.181
359.788
370.794
383.208
397.037
412.289
428.971
447.088
466.647
487.651
510.105
534.011
559.372
586.191
)
;
    }
    coldSide
    {
        type            mixed;
        refValue        uniform 300;
        refGradient     uniform 0;
        valueFraction   uniform 0.991591;
        source          uniform 0;
        value           nonuniform List<scalar> 
400
(
300.023
300.024
300.024
300.026
300.026
300.027
300.028
300.029
300.03
300.031
300.031
300.032
300.032
300.033
300.033
300.034
300.034
300.035
300.034
300.035
300.024
300.025
300.026
300.026
300.027
300.028
300.029
300.03
300.03
300.031
300.031
300.033
300.034
300.035
300.034
300.034
300.035
300.035
300.035