/*--------------------------------*- C++ -*----------------------------------*\
| =========                 |                                                 |
| \\      /  F ield         | OpenFOAM: The Open Source CFD Toolbox           |
|  \\    /   O peration     | Version:  2212                                  |
|   \\  /    A nd           | Website:  www.openfoam.com                      |
|    \\/     M anipulation  |                                                 |
\*---------------------------------------------------------------------------*/
FoamFile
{
    version     2.0;
    format      ascii;
    arch        "LSB;label=32;scalar=64";
    class       volScalarField;
    location    "./ITHACAoutput/true/5.8";
    object      error;
}
// * * * * * * * * * * * * * * * * * * * * * * * * * * * * * * * * * * * * * //

dimensions      [0 0 0 1 0 0 0];

internalField   nonuniform List<scalar> 
3200
(
0.452441
0.253168
0.167084
0.250289
0.459429
0.913017
1.39023
1.83464
2.27375
2.68499
2.79236
2.88226
2.75749
2.62745
2.46899
2.4472
2.46208
2.59799
2.93978
3.25829
0.279603
0.135411
0.0658079
0.141557
0.394053
0.764626
1.18581
1.58354
1.99797
2.28389
2.39966
2.46844
2.40812
2.25686
2.13428
2.09747
2.10814
2.34759
2.56772
2.83552
0.309182
0.131363
-0.0136845
0.0420111
0.329232
0.594002
0.978246
1.31418
1.67886
1.87292
2.13678
2.07924
2.03959
1.93247
1.85123
1.79642
1.8462
1.98016
2.12593
2.49699
0.146997
0.0755207
0.0691167
0.110324
0.180073
0.507358
0.793705
1.07505
1.34175
1.47463
1.64015
1.70445
1.67536
1.60551
1.54849
1.50976
1.57866
1.66818
1.85386
2.00338
0.0850448
0.0378194
0.0702899
0.0128272
0.170572
0.430793
0.661824
0.833973
0.962813
1.19642
1.2608
1.30888
1.38783
1.24104
1.21268
1.10899
1.1828
1.25106
1.36904
1.57804
0.0592306
0.0291049
-0.0707307
0.0565677
0.116287
0.235543
0.362597
0.566323
0.7368
0.866019
0.866366
0.978191
0.943856
0.942111
0.859076
0.822876
0.884324
0.871147
1.01017
1.08242
-0.0279297
-0.0288091
-0.0330522
-0.0152997
0.0914579
0.15472
0.198328
0.36367
0.450229
0.548567
0.552862
0.518736
0.572642
0.569314
0.541026
0.54524
0.57713
0.504732
0.5863
0.652468
0.0177219
0.0125844
-0.0392001
-0.00629083
-0.0123359
0.00762689
0.0791051
0.121366
0.192245
0.148339
0.128342
0.175846
0.171328
0.152987
0.151176
0.24183
0.168419
0.242616
0.223324
0.22855
-0.331236
-0.667181
-0.756227
-0.653877
-0.470234
-0.070933
0.397096
0.818453
1.28723
1.63453
1.79933
1.80473
1.83348
1.60568
1.47995
1.48888
1.55456
1.73827
2.03627
2.38525
-0.306709
-0.552034
-0.626924
-0.527214
-0.417307
-0.0325627
0.367459
0.721513
1.16593
1.42645
1.59757
1.67684
1.59484
1.5084
1.38587
1.39705
1.37271
1.58692
1.87183
2.21387
-0.337068
-0.480519
-0.496112
-0.471785
-0.371474
-0.0607522
0.314657
0.678441
1.00973
1.19335
1.4263
1.45029
1.39318
1.30907
1.27368
1.1822
1.3178
1.40063
1.70558
1.9285
-0.259923
-0.352059
-0.432118
-0.410087
-0.259214
-0.015739
0.329421
0.604599
0.751596
1.09966
1.1521
1.2013
1.20043
1.12564
1.05791
1.0455
1.07572
1.15203
1.39094
1.51209
-0.16737
-0.267965
-0.340505
-0.269155
-0.23356
-0.0306279
0.27218
0.414141
0.603567
0.842776
0.91852
0.953373
0.923811
0.929616
0.847635
0.799
0.906902
0.947262
1.17676
1.308
-0.111985
-0.260471
-0.249448
-0.172682
-0.150983
-0.000805076
0.153478
0.341957
0.437866
0.559607
0.641043
0.655607
0.708434
0.619264
0.567386
0.55597
0.630969
0.729772
0.800568
0.950991
-0.107474
-0.142777
-0.13183
-0.0926438
-0.0674055
-0.0854763
0.0944358
0.215971
0.270967
0.400575
0.424145
0.43472
0.392416
0.3337
0.295061
0.401682
0.3772
0.373334
0.413786
0.504887
-0.0263201
0.0261046
-0.0214609
-0.0113874
-0.0366933
-0.00844843
0.0881733
0.0921878
0.105723
0.117423
0.140319
0.140645
0.150623
0.139867
0.105472
0.114149
0.105464
0.154457
0.165968
0.19201
-1.36808
-1.60221
-1.7676
-1.70405
-1.60159
-1.28105
-0.869439
-0.434359
-0.0663646
0.287286
0.48632
0.493191
0.525954
0.451407
0.358327
0.429108
0.457747
0.781858
1.10395
1.5536
-1.15056
-1.31434
-1.49298
-1.50434
-1.28881
-1.00796
-0.682835
-0.334627
0.0741837
0.335917
0.498139
0.552969
0.543427
0.439077
0.509696
0.475477
0.553529
0.744364
1.10909
1.46866
-0.929473
-1.14046
-1.20821
-1.21805
-1.14293
-0.862491
-0.498067
-0.174016
0.0547475
0.330158
0.469452
0.571641
0.506769
0.418491
0.404436
0.412355
0.481232
0.641903
0.982224
1.30471
-0.782819
-0.905322
-1.03691
-0.966239
-0.857304
-0.690918
-0.429137
-0.0813479
0.085845
0.305365
0.384776
0.453119
0.443873
0.420662
0.342971
0.372224
0.434438
0.59959
0.780481
1.10958
-0.644198
-0.7875
-0.786217
-0.752924
-0.673781
-0.565781
-0.326142
-0.126404
0.111695
0.223497
0.357045
0.420504
0.391048
0.338375
0.341274
0.354069
0.495406
0.521125
0.710409
0.856826
-0.491669
-0.503416
-0.538582
-0.484094
-0.485811
-0.394586
-0.267461
-0.0357175
0.0899451
0.138506
0.267706
0.257883
0.365335
0.241421
0.303707
0.293313
0.263719
0.35987
0.485626
0.589695
-0.291624
-0.325754
-0.29319
-0.298021
-0.292608
-0.216455
-0.182359
-0.0556007
0.0653937
0.128413
0.0985683
0.148815
0.190498
0.146913
0.130301
0.171144
0.240894
0.28329
0.260503
0.395695
-0.0566304
-0.0978195
-0.106091
-0.0406992
-0.0332299
-0.0323968
-0.0840689
-0.033698
0.0243215
0.0400484
0.0337011
0.0872919
0.0239497
0.0347404
0.0689374
0.0684996
0.0176284
0.0526388
0.0644252
0.105531
-2.20304
-2.56694
-2.77013
-2.81728
-2.66475
-2.41227
-1.99255
-1.694
-1.33462
-0.970297
-0.799779
-0.659987
-0.648114
-0.775208
-0.797946
-0.735648
-0.565707
-0.254464
0.230382
0.694983
-1.9147
-2.13237
-2.32221
-2.34987
-2.19898
-2.07502
-1.68722
-1.36858
-0.996847
-0.744212
-0.594904
-0.488437
-0.439391
-0.528183
-0.485175
-0.512254
-0.385666
-0.0875007
0.283637
0.659364
-1.66101
-1.81951
-1.93487
-2.03319
-1.96185
-1.68161
-1.4187
-1.05399
-0.780165
-0.577118
-0.488225
-0.381257
-0.332034
-0.402601
-0.363362
-0.357852
-0.285775
-0.0498023
0.269599
0.676902
-1.26762
-1.38013
-1.56562
-1.49718
-1.4752
-1.29708
-1.17752
-0.861699
-0.613164
-0.509935
-0.360189
-0.231232
-0.193643
-0.225052
-0.241645
-0.234445
-0.142346
0.0638301
0.309364
0.617751
-0.911176
-1.15667
-1.21674
-1.26212
-1.15036
-1.00411
-0.812684
-0.666154
-0.527903
-0.269119
-0.23627
-0.14777
-0.1826
-0.227589
-0.171499
-0.129857
-0.0944406
0.0416364
0.240797
0.463427
-0.754384
-0.835551
-0.839022
-0.860591
-0.820838
-0.765969
-0.66984
-0.502196
-0.271703
-0.233419
-0.180114
-0.0901077
-0.10281
-0.0319572
-0.117622
-0.0777224
-0.00141077
0.0530417
0.257295
0.416797
-0.466532
-0.509671
-0.540941
-0.463649
-0.43325
-0.475423
-0.385326
-0.273812
-0.20165
-0.162817
-0.130535
-0.038715
-0.0519971
-0.0957171
-0.0662788
-0.0209403
-0.00428495
0.0556937
0.115955
0.258546
-0.117988
-0.0902576
-0.174643
-0.179381
-0.169932
-0.169488
-0.0942974
-0.0881982
-0.12438
0.00389762
-0.067974
-0.0555429
0.0207242
-0.00266334
-0.0763973
-0.0449883
-0.0222933
-0.0263658
0.0159675
0.0293005
-2.87354
-3.29211
-3.59761
-3.70605
-3.61724
-3.4156
-3.0658
-2.7309
-2.43265
-2.10169
-1.96376
-1.84561
-1.82945
-1.75137
-1.74829
-1.6527
-1.4315
-1.06667
-0.577407
0.0235482
-2.53181
-2.74253
-3.12898
-3.16277
-3.10681
-2.94554
-2.61052
-2.34671
-2.07381
-1.80967
-1.62834
-1.51638
-1.41653
-1.51451
-1.42698
-1.26251
-1.1466
-0.774813
-0.389813
0.132391
-2.07632
-2.37086
-2.54283
-2.62573
-2.58599
-2.37289
-2.13023
-1.89881
-1.68807
-1.41145
-1.3326
-1.17271
-1.12558
-1.16027
-1.10308
-0.98486
-0.874807
-0.638028
-0.207072
0.138455
-1.7147
-2.02506
-2.04829
-2.1811
-2.01718
-1.92742
-1.76356
-1.50171
-1.2741
-1.10983
-1.05332
-0.899027
-0.885484
-0.8464
-0.848251
-0.722424
-0.604482
-0.430449
-0.157095
0.178674
-1.31713
-1.55174
-1.508
-1.56081
-1.57356
-1.49836
-1.34322
-1.16327
-1.02726
-0.801674
-0.727063
-0.660459
-0.70409
-0.713227
-0.616411
-0.575384
-0.418113
-0.345022
-0.0292087
0.184345
-0.910352
-1.07143
-1.17491
-1.1087
-1.10076
-1.07919
-0.959963
-0.815103
-0.691214
-0.561898
-0.465571
-0.492848
-0.422296
-0.413626
-0.435852
-0.399659
-0.309946
-0.252064
-0.0693696
0.108418
-0.574572
-0.639304
-0.706495
-0.671938
-0.696432
-0.605041
-0.567235
-0.528239
-0.432667
-0.360691
-0.335178
-0.294106
-0.251368
-0.213333
-0.300635
-0.205648
-0.207528
-0.109972
0.00278562
0.0256854
-0.141649
-0.178844
-0.242708
-0.26899
-0.247556
-0.225984
-0.251846
-0.190739
-0.11757
-0.0892605
-0.123333
-0.076791
-0.112968
-0.0749958
-0.0370236
-0.054743
-0.0137751
0.0115139
-0.0220224
-0.0288007
-3.41445
-3.90643
-4.18593
-4.35626
-4.43417
-4.18561
-4.01909
-3.73218
-3.37673
-3.14687
-2.95402
-2.83981
-2.81123
-2.72836
-2.57087
-2.37438
-2.13529
-1.72775
-1.1398
-0.550273
-3.04133
-3.33952
-3.68922
-3.69108
-3.6621
-3.56341
-3.42897
-3.14376
-2.9353
-2.61111
-2.50937
-2.37089
-2.28861
-2.20922
-2.15973
-1.99121
-1.76915
-1.38313
-0.867592
-0.406189
-2.53671
-2.7483
-3.04151
-3.20234
-3.10921
-2.93249
-2.83135
-2.5634
-2.36364
-2.13284
-2.04625
-1.82132
-1.88968
-1.82499
-1.70561
-1.49613
-1.32059
-1.0373
-0.63055
-0.169451
-2.02867
-2.30577
-2.35778
-2.50741
-2.46939
-2.37688
-2.23375
-2.10196
-1.92061
-1.69607
-1.60954
-1.52114
-1.48129
-1.35702
-1.34671
-1.26883
-1.08696
-0.818222
-0.437934
-0.159183
-1.59684
-1.74795
-1.87074
-1.99036
-1.95243
-1.83409
-1.71656
-1.65144
-1.46814
-1.24934
-1.25386
-1.09623
-1.06016
-1.10409
-1.0289
-0.8804
-0.793702
-0.572286
-0.291035
-0.0297995
-1.20165
-1.27026
-1.3154
-1.45044
-1.40045
-1.30367
-1.19925
-1.19752
-1.01665
-0.866116
-0.839428
-0.802547
-0.780102
-0.710274
-0.739033
-0.61571
-0.543474
-0.367292
-0.232676
-0.048889
-0.689099
-0.766421
-0.862896
-0.868972
-0.831395
-0.811858
-0.772828
-0.620787
-0.63158
-0.567465
-0.461931
-0.436438
-0.412421
-0.42914
-0.429028
-0.385759
-0.274329
-0.22624
-0.159365
0.00925888
-0.220666
-0.311386
-0.331139
-0.234203
-0.229192
-0.259617
-0.238283
-0.142066
-0.197329
-0.187116
-0.23172
-0.150926
-0.108616
-0.194225
-0.176804
-0.141022
-0.0880075
-0.125425
0.00775314
-0.0463493
-3.74048
-4.21455
-4.60888
-4.88189
-4.97014
-4.86699
-4.76946
-4.41355
-4.2349
-3.96798
-3.82237
-3.63085
-3.53539
-3.45455
-3.27713
-3.081
-2.66628
-2.1015
-1.50212
-0.815415
-3.15549
-3.61103
-3.99369
-4.15406
-4.23145
-4.16845
-4.01718
-3.76404
-3.55963
-3.36444
-3.0959
-3.02818
-2.93281
-2.78961
-2.66992
-2.35309
-2.16951
-1.6503
-1.19531
-0.519473
-2.74883
-3.02779
-3.31571
-3.48482
-3.5807
-3.42528
-3.30634
-3.13828
-2.90724
-2.70145
-2.65327
-2.45446
-2.38789
-2.30569
-2.2043
-1.98319
-1.65548
-1.26713
-0.884573
-0.43325
-2.20821
-2.42437
-2.68663
-2.78781
-2.81584
-2.82308
-2.67472
-2.51164
-2.314
-2.20832
-2.04252
-2.01711
-1.96706
-1.77498
-1.72864
-1.58514
-1.29564
-1.07257
-0.61585
-0.260071
-1.69492
-1.93384
-2.06434
-2.12785
-2.20001
-2.07618
-2.0934
-1.94663
-1.84252
-1.64147
-1.53968
-1.47265
-1.4798
-1.33499
-1.26852
-1.14264
-0.992736
-0.744877
-0.504904
-0.126399
-1.21183
-1.31975
-1.43455
-1.53164
-1.53548
-1.55835
-1.50977
-1.36448
-1.27529
-1.2199
-1.14143
-1.10716
-1.04704
-0.966839
-0.88908
-0.827497
-0.719494
-0.525547
-0.30716
-0.171836
-0.745384
-0.769565
-0.841229
-0.862884
-0.923694
-0.900761
-0.844212
-0.85344
-0.677723
-0.74459
-0.695418
-0.659262
-0.603594
-0.631705
-0.536906
-0.553384
-0.396533
-0.298171
-0.1359
-0.0629434
-0.300305
-0.207184
-0.270914
-0.296293
-0.278427
-0.315296
-0.333423
-0.22624
-0.207537
-0.314988
-0.193344
-0.158965
-0.211042
-0.182803
-0.171164
-0.194581
-0.157152
-0.112693
-0.108442
-0.0297387
-3.72111
-4.28266
-4.7754
-5.19368
-5.21985
-5.26393
-5.17089
-4.97029
-4.80201
-4.50981
-4.33759
-4.17726
-4.08149
-3.89161
-3.6549
-3.35222
-2.83294
-2.33578
-1.54331
-0.864281
-3.27197
-3.67741
-4.09744
-4.39489
-4.44949
-4.56062
-4.39158
-4.19222
-4.01912
-3.82132
-3.6877
-3.5224
-3.40396
-3.22495
-3.02919
-2.76724
-2.33029
-1.82218
-1.24872
-0.5986
-2.64685
-3.08491
-3.40885
-3.68327
-3.69
-3.74326
-3.64188
-3.55075
-3.3579
-3.19957
-3.0137
-2.89484
-2.70348
-2.59307
-2.43475
-2.24502
-1.86337
-1.34874
-0.912059
-0.505514
-2.21351
-2.49232
-2.74615
-2.96403
-3.00293
-3.06899
-2.90348
-2.83825
-2.66496
-2.55083
-2.41081
-2.30959
-2.14557
-2.12797
-1.94378
-1.7562
-1.44498
-1.12006
-0.692446
-0.387258
-1.71593
-1.86785
-2.06905
-2.33709
-2.35071
-2.32365
-2.29191
-2.22466
-2.03387
-1.97276
-1.80437
-1.81292
-1.66987
-1.54756
-1.50142
-1.35503
-1.09994
-0.837618
-0.506074
-0.202198
-1.23161
-1.42512
-1.55453
-1.61472
-1.70062
-1.63274
-1.56481
-1.5546
-1.45694
-1.34932
-1.2826
-1.27034
-1.15597
-1.13721
-1.0265
-0.933958
-0.852503
-0.601039
-0.351666
-0.109732
-0.692573
-0.8389
-0.925405
-0.945353
-1.05774
-0.934154
-0.99335
-0.902386
-0.838334
-0.866868
-0.826049
-0.671301
-0.725048
-0.617361
-0.605684
-0.570171
-0.490567
-0.30557
-0.201388
-0.145799
-0.239305
-0.27736
-0.325338
-0.326714
-0.32693
-0.3605
-0.300615
-0.262172
-0.257697
-0.262368
-0.241184
-0.282109
-0.267348
-0.177852
-0.264016
-0.12102
-0.166
-0.0679578
-0.0363718
0.00461115
-3.5412
-4.17495
-4.69455
-5.1179
-5.36976
-5.41929
-5.32684
-5.31663
-5.10629
-4.88966
-4.70361
-4.47841
-4.3084
-4.11373
-3.75928
-3.36301
-2.83839
-2.17748
-1.42132
-0.687627
-3.08835
-3.60355
-4.0308
-4.31136
-4.57556
-4.64495
-4.57616
-4.50901
-4.29541
-4.10611
-3.94353
-3.79992
-3.58937
-3.38301
-3.18777
-2.78661
-2.3313
-1.77961
-1.11193
-0.434366
-2.56972
-2.92384
-3.34781
-3.65611
-3.79914
-3.83503
-3.7842
-3.72091
-3.54812
-3.35538
-3.24453
-3.08952
-2.88849
-2.76764
-2.53038
-2.2205
-1.86119
-1.37475
-0.808065
-0.310599
-2.07906
-2.37743
-2.76517
-2.88614
-3.13974
-3.11705
-3.10639
-2.95538
-2.84599
-2.70805
-2.5838
-2.50662
-2.41192
-2.18778
-2.05825
-1.84388
-1.40796
-1.04526
-0.562928
-0.137489
-1.59088
-1.9087
-2.1245
-2.32295
-2.40703
-2.41006
-2.41823
-2.26771
-2.21455
-2.10946
-2.03673
-1.90771
-1.84887
-1.66844
-1.56737
-1.32606
-1.13184
-0.802606
-0.446585
-0.17823
-1.20728
-1.29759
-1.48632
-1.62453
-1.69102
-1.76702
-1.68233
-1.64707
-1.54448
-1.50452
-1.39645
-1.29445
-1.26099
-1.17661
-1.08637
-0.99445
-0.774383
-0.529023
-0.328291
-0.0801307
-0.711663
-0.846338
-0.896109
-1.05488
-1.06444
-1.01441
-0.980726
-0.922541
-0.91752
-0.83636
-0.829774
-0.794859
-0.749267
-0.69102
-0.634862
-0.576136
-0.480687
-0.321094
-0.144899
-0.0745831
-0.297523
-0.341993
-0.348372
-0.304879
-0.323854
-0.344525
-0.354858
-0.334523
-0.298973
-0.280251
-0.265893
-0.305147
-0.286554
-0.205258
-0.272604
-0.203817
-0.105223
-0.136583
-0.0413448
-0.0346966
-3.05312
-3.73239
-4.37901
-4.79181
-5.11146
-5.32058
-5.38122
-5.27891
-5.10065
-4.9134
-4.76181
-4.61497
-4.32612
-4.08044
-3.6128
-3.22411
-2.61115
-1.88077
-1.05789
-0.163167
-2.62546
-3.14466
-3.70363
-4.14468
-4.40293
-4.46074
-4.49036
-4.41277
-4.31401
-4.19272
-4.02956
-3.76474
-3.55939
-3.43669
-3.0102
-2.54582
-2.0881
-1.43371
-0.771039
-0.0549326
-2.17558
-2.59465
-3.03722
-3.37779
-3.65522
-3.78185
-3.81711
-3.62668
-3.57598
-3.50402
-3.22306
-3.15278
-2.93584
-2.77398
-2.49258
-2.15816
-1.71354
-1.16463
-0.50593
-0.0157016
-1.85101
-2.15986
-2.50713
-2.77646
-3.01342
-2.96721
-2.9958
-2.97961
-2.92961
-2.76122
-2.66749
-2.44596
-2.38711
-2.15926
-1.89943
-1.59213
-1.33833
-0.864191
-0.274858
0.143907
-1.4479
-1.6934
-1.88214
-2.13877
-2.27907
-2.29464
-2.30857
-2.28994
-2.23982
-2.12732
-2.02244
-1.9198
-1.81928
-1.65079
-1.50824
-1.30692
-0.936834
-0.680996
-0.207139
0.134336
-0.949373
-1.15613
-1.34051
-1.60024
-1.59994
-1.62109
-1.62991
-1.66837
-1.54801
-1.49618
-1.43216
-1.41846
-1.27042
-1.14977
-0.998538
-0.916835
-0.677637
-0.457888
-0.226049
0.148228
-0.635605
-0.675496
-0.825916
-0.879439
-1.01873
-0.947453
-0.92338
-0.952347
-0.946895
-0.902721
-0.864854
-0.741658
-0.763212
-0.706568
-0.613114
-0.449509
-0.471253
-0.30417
-0.085522
0.071963
-0.179472
-0.251291
-0.249402
-0.268422
-0.318123
-0.262738
-0.36329
-0.277681
-0.292975
-0.263817
-0.240381
-0.237765
-0.197303
-0.26727
-0.20133
-0.205508
-0.149802
-0.152985
-0.0783736
0.0341083
-2.30778
-3.00982
-3.70521
-4.32802
-4.64976
-4.89575
-4.96433
-4.93469
-4.92978
-4.733
-4.58096
-4.28905
-4.07599
-3.74251
-3.25635
-2.7947
-2.08859
-1.33929
-0.299519
0.458193
-2.01784
-2.5894
-3.11595
-3.65734
-3.92795
-4.08856
-4.19194
-4.14731
-4.08494
-3.98572
-3.86347
-3.72998
-3.36284
-3.01073
-2.69908
-2.22518
-1.56681
-0.950488
-0.0999339
0.600185
-1.64676
-2.14335
-2.61824
-3.11518
-3.30094
-3.422
-3.46938
-3.50808
-3.37427
-3.36546
-3.10251
-3.01758
-2.75134
-2.45315
-2.15326
-1.72788
-1.31082
-0.633314
-0.0654741
0.625586
-1.32576
-1.70401
-2.16691
-2.49291
-2.62326
-2.76443
-2.83818
-2.83233
-2.75934
-2.70054
-2.47729
-2.34476
-2.16876
-1.99241
-1.7571
-1.3607
-0.946479
-0.505073
0.131789
0.57151
-1.06209
-1.41408
-1.69591
-1.84479
-2.03876
-2.19135
-2.09853
-2.17195
-2.07663
-1.97991
-1.86542
-1.73737
-1.68433
-1.53019
-1.28104
-1.03844
-0.696018
-0.307639
0.0818222
0.514736
-0.697288
-1.04675
-1.12373
-1.30086
-1.40086
-1.4469
-1.49628
-1.50972
-1.44694
-1.44225
-1.39836
-1.20806
-1.16147
-1.03576
-0.922308
-0.645069
-0.494582
-0.19747
0.0695114
0.39242
-0.468845
-0.523021
-0.632561
-0.769945
-0.905131
-0.889739
-0.91614
-0.882311
-0.92841
-0.862927
-0.77743
-0.747578
-0.740794
-0.559922
-0.512857
-0.437245
-0.254866
-0.150134
0.0200251
0.223536
-0.15712
-0.169485
-0.215019
-0.292071
-0.252745
-0.35264
-0.337652
-0.30621
-0.327775
-0.276472
-0.283321
-0.307788
-0.259083
-0.202355
-0.169569
-0.154505
-0.000917015
-0.116199
0.00711375
0.0834866
-1.23494
-2.06924
-2.83531
-3.50022
-3.90619
-4.18671
-4.40005
-4.39006
-4.38299
-4.26942
-4.00518
-3.75678
-3.55751
-3.07554
-2.59734
-2.01595
-1.2162
-0.361651
0.61483
1.51737
-1.08082
-1.73384
-2.41562
-2.91259
-3.30387
-3.57924
-3.6474
-3.65949
-3.67227
-3.53425
-3.36698
-3.15676
-2.92347
-2.53534
-2.02721
-1.58199
-0.965407
-0.229166
0.701213
1.51914
-0.973829
-1.39893
-1.97273
-2.42376
-2.69723
-2.96871
-3.06448
-3.03757
-3.05387
-2.98803
-2.81219
-2.55511
-2.33972
-1.99797
-1.67688
-1.23181
-0.652015
-0.115132
0.672307
1.32063
-0.809556
-1.12954
-1.55523
-1.98309
-2.2178
-2.41303
-2.459
-2.46943
-2.37357
-2.37279
-2.25235
-2.06579
-1.86165
-1.62338
-1.2805
-0.868937
-0.478299
0.0927933
0.686802
1.09916
-0.543407
-0.829983
-1.27863
-1.49713
-1.67277
-1.81972
-1.88186
-1.88865
-1.84056
-1.77744
-1.67181
-1.62266
-1.37431
-1.19031
-0.955987
-0.665797
-0.262829
0.02909
0.528371
0.888962
-0.354534
-0.644017
-0.893549
-1.07449
-1.19161
-1.34451
-1.28358
-1.3386
-1.34064
-1.22508
-1.15259
-1.09761
-1.03745
-0.798241
-0.68384
-0.478855
-0.198297
0.0427124
0.403353
0.661519
-0.29791
-0.325813
-0.555128
-0.610435
-0.71884
-0.751903
-0.793303
-0.777817
-0.827217
-0.729941
-0.672823
-0.643579
-0.529619
-0.510766
-0.368497
-0.316865
-0.0883193
0.100747
0.248007
0.46894
-0.108241
-0.132618
-0.130613
-0.171132
-0.226778
-0.219857
-0.205099
-0.257182
-0.219094
-0.254208
-0.29934
-0.237387
-0.191026
-0.135079
-0.165362
-0.0778288
-0.059219
-0.0739778
0.153022
0.15154
0.0819085
-0.839911
-1.60696
-2.31921
-2.84597
-3.26335
-3.4284
-3.48878
-3.47444
-3.44602
-3.17372
-2.9355
-2.61424
-2.16215
-1.67242
-0.924168
-0.165814
0.774546
1.72402
2.77413
-0.0205887
-0.670173
-1.40705
-1.96253
-2.37953
-2.69092
-2.86872
-2.93163
-2.91753
-2.79863
-2.68284
-2.43371
-2.16699
-1.77475
-1.21937
-0.672345
0.0114915
0.879397
1.81251
2.57211
0.0316269
-0.532881
-1.09236
-1.52301
-1.9661
-2.21274
-2.34112
-2.33903
-2.4149
-2.29073
-2.15908
-1.95311
-1.61814
-1.4251
-0.940306
-0.465667
0.159542
0.794885
1.56479
2.21769
0.0419454
-0.38812
-0.852938
-1.29094
-1.52959
-1.71183
-1.86674
-1.92265
-1.85028
-1.79903
-1.66274
-1.5563
-1.27057
-1.0715
-0.713505
-0.353571
0.14136
0.6958
1.31673
1.9093
0.0190597
-0.283564
-0.578486
-1.00348
-1.17643
-1.3298
-1.41507
-1.48606
-1.46734
-1.37928
-1.24731
-1.18387
-0.988484
-0.789731
-0.494632
-0.214097
0.215902
0.64635
1.09951
1.49418
0.00776206
-0.165254
-0.512781
-0.626873
-0.816286
-0.98991
-1.07311
-1.04408
-1.01117
-0.913231
-0.940168
-0.779353
-0.797665
-0.520634
-0.399319
-0.0912339
0.167738
0.462147
0.794755
1.02016
-0.0195734
-0.110043
-0.285393
-0.389401
-0.483646
-0.605757
-0.614304
-0.586213
-0.633987
-0.564309
-0.544805
-0.454286
-0.341709
-0.381881
-0.212092
-0.0100496
0.0231976
0.296789
0.497386
0.631118
0.00231043
-0.0807882
0.0113933
-0.128626
-0.139473
-0.203184
-0.160372
-0.198092
-0.25589
-0.230937
-0.159716
-0.155841
-0.0481886
-0.0401206
-0.0975956
0.0526081
0.0395306
0.118638
0.200839
0.229524
1.64984
0.731654
-0.117383
-0.840539
-1.55128
-1.88003
-2.12642
-2.3112
-2.31313
-2.22837
-2.04899
-1.75152
-1.45245
-0.969064
-0.320045
0.409763
1.22736
2.29195
3.28515
4.35647
1.39952
0.716543
0.0300608
-0.730928
-1.1887
-1.55198
-1.77876
-1.88455
-1.89329
-1.76529
-1.66012
-1.4372
-1.0635
-0.658597
-0.1944
0.496576
1.23118
2.0949
3.08942
3.90996
1.23036
0.564503
0.000795031
-0.533757
-0.969078
-1.28902
-1.46668
-1.48856
-1.52315
-1.3926
-1.33318
-1.07923
-0.810104
-0.461902
0.00542379
0.566006
1.13098
1.88532
2.67549
3.42864
0.977942
0.483911
-0.0713716
-0.399533
-0.727692
-1.02577
-1.06637
-1.21395
-1.15273
-1.19935
-0.997218
-0.81521
-0.574843
-0.285914
0.112767
0.482634
1.02908
1.65326
2.3174
2.86633
0.838036
0.411569
0.0339263
-0.282325
-0.567456
-0.738965
-0.834264
-0.87462
-0.899514
-0.863728
-0.750324
-0.61216
-0.468998
-0.245713
0.11282
0.455779
0.786166
1.33569
1.77806
2.22173
0.569529
0.321735
0.0658883
-0.214071
-0.349379
-0.54577
-0.585299
-0.596646
-0.592745
-0.603432
-0.497447
-0.460741
-0.316461
-0.129118
0.0700024
0.313541
0.623881
0.967858
1.31252
1.67776
0.382924
0.23638
0.0194337
-0.0854699
-0.216704
-0.355281
-0.319648
-0.407492
-0.362594
-0.378574
-0.309072
-0.21069
-0.149743
-0.102007
0.0506838
0.20624
0.30363
0.50708
0.796631
1.02911
0.15025
0.019903
-0.0345328
-0.00488615
-0.112025
-0.130446
-0.137616
-0.0860635
-0.0638845
-0.0997636
-0.114205
-0.0546691
-0.0951737
-0.0362686
-0.0558313
0.0673288
0.142304
0.213821
0.23523
0.361451
3.48316
2.65443
1.67248
0.842575
0.203881
-0.253132
-0.628338
-0.787151
-0.856617
-0.753371
-0.579528
-0.357941
0.0902568
0.664728
1.2458
2.10442
2.93035
4.00424
5.17932
6.2341
3.04699
2.30514
1.46628
0.762779
0.226142
-0.0985222
-0.439421
-0.559107
-0.554115
-0.470187
-0.43411
0.00120574
0.228834
0.716595
1.23885
1.88315
2.68243
3.54127
4.66752
5.52764
2.59276
1.99153
1.32393
0.740166
0.268581
-0.031758
-0.31491
-0.380705
-0.393158
-0.368789
-0.232451
0.0152236
0.309306
0.694497
1.13463
1.75283
2.45916
3.15952
4.01497
4.72783
2.18441
1.64742
1.10341
0.67662
0.283603
-0.0301293
-0.1084
-0.246902
-0.247231
-0.242455
-0.148615
0.0570893
0.261963
0.627593
1.07229
1.48756
2.01947
2.64198
3.36046
3.93996
1.63537
1.29117
0.890871
0.448995
0.173493
0.00587292
-0.114559
-0.118809
-0.158859
-0.176398
-0.120991
0.0948319
0.26482
0.500018
0.825707
1.19875
1.61331
2.12054
2.6488
3.08573
1.19645
0.85579
0.671603
0.343201
0.15752
0.0323854
-0.0242815
-0.197136
-0.0462614
-0.087448
-0.0651991
0.00661368
0.225378
0.402832
0.621094
0.940011
1.15901
1.58186
1.85706
2.26331
0.6813
0.586329
0.401877
0.169421
0.116709
0.0046376
-0.0478363
0.00234136
-0.183566
0.00675712
-0.0312455
-0.0114593
0.112118
0.251146
0.325444
0.518792
0.750891
0.852866
1.10841
1.30982
0.263206
0.179674
0.206778
0.0813275
0.00284239
0.00517859
-0.0152913
-0.0606636
-0.0513135
0.00220026
-0.0259097
-0.00915011
0.0833864
0.0903308
0.194061
0.203488
0.274513
0.281339
0.395158
0.463252
5.71161
4.72524
3.74586
2.7899
2.12096
1.65418
1.30964
1.14285
0.976725
1.02172
1.21485
1.59179
1.97713
2.4336
3.13386
3.96073
5.05478
6.02158
7.23937
8.35452
4.94213
4.11134
3.346
2.52853
1.9749
1.50778
1.23209
1.10841
1.06976
0.983491
1.15956
1.48645
1.78676
2.32175
2.92998
3.66517
4.46222
5.33843
6.39392
7.3218
4.17792
3.53416
2.87693
2.19235
1.72521
1.32024
1.12449
0.924275
0.874779
0.879982
1.12146
1.3514
1.6748
2.0201
2.59885
3.17522
3.84356
4.71012
5.54325
6.29747
3.38468
2.96643
2.4041
1.79994
1.53141
1.0771
0.983565
0.839211
0.887608
0.886054
0.976652
1.1515
1.35451
1.66692
2.20499
2.67477
3.25794
3.82348
4.56675
5.26388
2.7209
2.31407
1.84568
1.46164
1.11666
0.920802
0.756551
0.675103
0.595948
0.681537
0.797435
0.876236
1.18321
1.395
1.74193
2.07719
2.53289
3.1167
3.57174
4.1144
1.87931
1.60985
1.33594
1.0583
0.786206
0.606839
0.559138
0.47615
0.521253
0.404781
0.5555
0.705887
0.818082
1.00707
1.21807
1.5338
1.84324
2.23105
2.6001
2.93176
1.16599
0.969682
0.833206
0.689295
0.503542
0.373513
0.316151
0.298689
0.259661
0.357357
0.404609
0.370634
0.452509
0.631069
0.74626
0.964129
1.14
1.33122
1.57304
1.79684
0.324462
0.296264
0.248107
0.22766
0.195924
0.156515
0.0780335
0.120834
0.0171937
0.0748399
0.0587209
0.104705
0.23327
0.251365
0.25729
0.373686
0.38199
0.45427
0.447774
0.577242
8.0824
7.11751
6.12986
5.1792
4.38369
3.83355
3.40019
3.21828
3.09117
3.21185
3.33716
3.62985
4.07514
4.63441
5.30658
6.2438
7.22685
8.3719
9.63188
10.6769
6.99918
6.1548
5.30817
4.57061
3.8835
3.37019
3.02608
2.89636
2.75475
2.80769
3.00767
3.33898
3.59984
4.19049
4.80985
5.48537
6.4153
7.40244
8.4504
9.45798
5.94579
5.26234
4.51999
3.91281
3.29152
2.92018
2.68111
2.52136
2.46399
2.47718
2.62768
2.89785
3.18
3.63418
4.16717
4.76581
5.44064
6.32985
7.19864
8.02657
4.87545
4.34118
3.67204
3.2159
2.80636
2.40924
2.20423
2.13689
2.04732
2.075
2.18259
2.43182
2.67947
3.06179
3.48464
3.9184
4.54514
5.26005
6.00224
6.66556
3.77473
3.43383
2.92728
2.49488
2.19093
1.89933
1.68922
1.69093
1.61807
1.61304
1.78956
1.8837
2.12792
2.27321
2.65586
3.06117
3.57229
4.17516
4.65286
5.17461
2.72294
2.40417
2.07081
1.81278
1.54438
1.35751
1.28733
1.19753
1.11462
1.20614
1.25988
1.37931
1.52878
1.69849
1.96377
2.29802
2.58426
2.99819
3.49479
3.72894
1.62442
1.4478
1.29369
1.07482
0.944839
0.904682
0.816052
0.714814
0.700982
0.699315
0.804311
0.786181
0.874429
1.02175
1.15017
1.36025
1.54135
1.76461
2.07328
2.1894
0.463784
0.480013
0.431341
0.35509
0.324863
0.266589
0.306398
0.199978
0.209533
0.242348
0.19751
0.283279
0.328172
0.332089
0.361012
0.486782
0.520657
0.543277
0.699287
0.715488
10.7728
9.65788
8.63105
7.68309
6.82223
6.29581
5.79591
5.61969
5.40036
5.44927
5.64552
5.95858
6.44783
6.97359
7.77597
8.57921
9.74689
10.8362
12.1624
13.3616
9.28098
8.435
7.55795
6.63886
6.00651
5.53852
5.16568
4.87243
4.86436
4.89089
4.94463
5.29211
5.68166
6.24401
6.79208
7.63576
8.55822
9.51342
10.613
11.6298
7.79555
7.09322
6.38245
5.71465
5.20182
4.67599
4.34037
4.26001
4.11098
4.21493
4.29097
4.54741
4.84849
5.31886
5.85121
6.50506
7.26549
8.14957
9.06802
9.89583
6.3466
5.84858
5.20204
4.61972
4.24696
3.78468
3.68105
3.49453
3.37002
3.39946
3.57498
3.7266
4.06414
4.47038
4.83689
5.40747
5.96825
6.73944
7.50039
8.12085
4.92874
4.54592
4.09015
3.61105
3.32621
3.01444
2.87254
2.66664
2.68692
2.78775
2.79272
2.92126
3.17697
3.51134
3.79713
4.17542
4.66086
5.23378
5.8624
6.30349
3.64446
3.23344
2.9279
2.64274
2.30792
2.1664
2.02495
1.94587
1.89709
2.04187
2.02773
2.15556
2.25911
2.46752
2.7709
3.02931
3.36168
3.76995
4.12543
4.57718
2.11257
1.89676
1.79795
1.58369
1.44551
1.26847
1.14228
1.11512
1.18419
1.13893
1.24417
1.26702
1.34379
1.49042
1.61675
1.81068
2.04974
2.33866
2.57689
2.71622
0.690014
0.646406
0.640431
0.524794
0.484889
0.421054
0.425271
0.367442
0.349439
0.434002
0.418641
0.413685
0.395957
0.476553
0.540852
0.543114
0.733072
0.796312
0.902117
0.927488
13.352
12.2431
11.2268
10.1484
9.33041
8.77707
8.22376
7.98808
7.85091
7.84385
7.96061
8.33425
8.78997
9.3779
10.2006
11.1168
12.1735
13.3871
14.6934
15.9106
11.5322
10.5882
9.70265
8.8309
8.15797
7.60411
7.23205
6.96441
6.84306
6.84724
6.99214
7.28755
7.66965
8.22091
8.93029
9.74059
10.6155
11.7254
12.7999
13.781
9.68539
8.88051
8.20676
7.47283
6.83893
6.46947
6.06801
5.89807
5.75991
5.75287
5.98822
6.24242
6.5005
6.96712
7.60586
8.16692
8.999
9.98777
10.9365
11.706
7.882
7.29578
6.73806
6.04227
5.59596
5.19847
4.96084
4.77648
4.70549
4.82227
4.84328
5.09072
5.38577
5.75195
6.22663
6.72571
7.42807
8.10812
8.91497
9.61199
6.05774
5.62037
5.19438
4.75752
4.40248
4.09024
3.85007
3.81258
3.76327
3.69578
3.76004
3.97664
4.20471
4.50352
4.81033
5.30843
5.74575
6.36222
6.97529
7.41606
4.37222
4.07309
3.69217
3.37172
3.07858
2.88346
2.75641
2.68027
2.66728
2.6683
2.69903
2.82014
3.01553
3.22488
3.49325
3.76853
4.19346
4.52391
4.9936
5.30899
2.60442
2.42047
2.19945
1.99261
1.86704
1.84316
1.68914
1.61298
1.54301
1.64494
1.66006
1.67517
1.7964
1.93711
2.08377
2.31302
2.49446
2.70057
2.92381
3.24254
0.823264
0.848484
0.781764
0.649635
0.615978
0.572248
0.582946
0.537355
0.512621
0.594442
0.575552
0.577959
0.624077
0.607588
0.702923
0.801634
0.818598
0.823245
1.04214
1.06938
15.4381
14.3551
13.1982
12.1858
11.4035
10.7118
10.2479
9.94432
9.80227
9.74033
9.9098
10.233
10.7739
11.4123
12.1131
13.0739
14.1575
15.3616
16.7488
17.9307
13.2414
12.2829
11.4411
10.4968
9.83974
9.22526
8.78268
8.5065
8.38237
8.38943
8.53637
8.86294
9.25711
9.84461
10.5417
11.3702
12.2663
13.3137
14.4994
15.4725
11.1147
10.3001
9.48881
8.79407
8.27903
7.74531
7.34967
7.15776
7.04398
7.10145
7.20691
7.45695
7.80312
8.35107
8.85114
9.57111
10.3772
11.2509
12.2097
13.0979
8.93575
8.39493
7.79226
7.18562
6.65379
6.29032
6.04548
5.83791
5.72732
5.78431
5.92094
6.12793
6.40251
6.73606
7.20965
7.75998
8.44681
9.20713
9.9612
10.6495
6.92674
6.48694
5.93245
5.548
5.10407
4.8646
4.62733
4.56524
4.43825
4.45031
4.56881
4.72728
4.9477
5.32473
5.58315
6.05065
6.55914
7.09612
7.7302
8.26473
4.91932
4.57917
4.2813
3.97406
3.66877
3.4349
3.28151
3.20434
3.15784
3.15502
3.32784
3.35156
3.55256
3.72443
3.99507
4.33364
4.71468
5.1187
5.5793
5.84445
2.93893
2.73066
2.53154
2.39491
2.17136
2.06027
1.99512
1.93691
1.90218
1.87352
1.98509
2.00611
2.07718
2.22879
2.40556
2.56014
2.8049
3.02026
3.24148
3.56007
0.954813
0.924098
0.803906
0.741623
0.751371
0.652376
0.66124
0.591806
0.633637
0.677258
0.685724
0.717473
0.681791
0.757189
0.825884
0.912266
0.871836
1.04469
1.10465
1.15376
)
;

boundaryField
{
    hotSide
    {
        type            calculated;
        value           nonuniform List<scalar> 
400
(
1.68754
0.906201
-0.125922
-0.953716
-1.6145
-2.14304
-2.45387
-2.41634
-2.21516
-1.70253
-0.929185
0.175224
1.52737
3.13443
5.01082
7.28636
9.70836
12.4541
15.0929
17.2429
1.53195
0.613591
-0.317401
-1.27595
-1.99267
-2.59611
-2.89074
-2.94253
-2.81549
-2.35038
-1.60182
-0.631664
0.630993