/*--------------------------------*- C++ -*----------------------------------*\
| =========                 |                                                 |
| \\      /  F ield         | OpenFOAM: The Open Source CFD Toolbox           |
|  \\    /   O peration     | Version:  2212                                  |
|   \\  /    A nd           | Website:  www.openfoam.com                      |
|    \\/     M anipulation  |                                                 |
\*---------------------------------------------------------------------------*/
FoamFile
{
    version     2.0;
    format      ascii;
    arch        "LSB;label=32;scalar=64";
    class       volScalarField;
    location    "0";
    object      T;
}
// * * * * * * * * * * * * * * * * * * * * * * * * * * * * * * * * * * * * * //

dimensions      [0 0 0 1 0 0 0];

internalField   nonuniform List<scalar> 
3200
(
327.676
326.888
326.448
326.547
326.633
326.885
327.485
327.937
328.213
328.581
328.713
328.767
328.529
328.046
327.481
327.066
326.679
326.538
327.023
327.793
323.974
323.317
322.934
323.041
323.108
323.342
323.875
324.246
324.494
324.817
324.933
324.987
324.789
324.35
323.833
323.492
323.121
323.023
323.434
324.102
320.295
319.755
319.417
319.526
319.578
319.774
320.23
320.526
320.773
321.028
321.127
321.18
321.038
320.644
320.154
319.907
319.564
319.507
319.851
320.405
316.616
316.155
315.897
315.993
316.037
316.21
316.566
316.801
317.015
317.227
317.306
317.392
317.248
316.904
316.508
316.315
316.004
315.983
316.258
316.695
312.925
312.581
312.379
312.445
312.486
312.606
312.872
313.081
313.253
313.423
313.438
313.571
313.437
313.143
312.863
312.702
312.445
312.453
312.642
312.993
309.249
308.988
308.837
308.874
308.95
309.002
309.177
309.352
309.474
309.606
309.602
309.7
309.601
309.388
309.198
309.083
308.904
308.911
309.029
309.289
305.558
305.396
305.302
305.327
305.408
305.396
305.507
305.626
305.691
305.775
305.772
305.846
305.76
305.646
305.533
305.48
305.36
305.346
305.421
305.577
301.858
301.809
301.781
301.793
301.824
301.811
301.843
301.886
301.902
301.935
301.926
301.97
301.924
301.892
301.855
301.84
301.793
301.789
301.817
301.871
327.752
327.048
326.59
326.523
326.75
327.054
327.698
328.275
328.741
328.975
329.028
328.968
328.786
328.24
327.739
327.259
326.849
326.818
327.183
327.84
324.034
323.443
323.046
323.022
323.226
323.472
324.044
324.549
324.962
325.153
325.199
325.167
324.998
324.525
324.082
323.663
323.294
323.259
323.588
324.149
320.325
319.839
319.515
319.496
319.689
319.881
320.359
320.807
321.146
321.313
321.324
321.333
321.196
320.794
320.425
320.06
319.738
319.699
319.987
320.46
316.634
316.224
315.982
315.963
316.136
316.289
316.683
317.042
317.315
317.44
317.467
317.492
317.353
317.032
316.75
316.431
316.173
316.11
316.354
316.756
312.958
312.604
312.443
312.428
312.547
312.689
312.981
313.278
313.502
313.566
313.6
313.632
313.508
313.25
313.067
312.781
312.58
312.544
312.741
313.047
309.283
308.989
308.906
308.866
308.971
309.07
309.262
309.5
309.667
309.707
309.745
309.745
309.654
309.479
309.357
309.134
308.985
308.983
309.105
309.329
305.582
305.39
305.346
305.319
305.395
305.44
305.546
305.719
305.815
305.834
305.865
305.861
305.808
305.695
305.63
305.489
305.399
305.412
305.49
305.61
301.871
301.808
301.787
301.783
301.812
301.813
301.857
301.925
301.963
301.953
301.97
301.959
301.945
301.9
301.896
301.838
301.81
301.816
301.839
301.886
327.926
327.252
326.691
326.815
326.991
327.397
328.015
328.642
329.106
329.498
329.663
329.48
329.117
328.684
328.182
327.558
327.171
327.119
327.44
328.094
324.199
323.644
323.175
323.26
323.41
323.78
324.33
324.886
325.264
325.603
325.729
325.629
325.28
324.891
324.459
323.919
323.595
323.547
323.825
324.376
320.463
320.035
319.649
319.688
319.811
320.158
320.642
321.077
321.416
321.683
321.784
321.735
321.437
321.074
320.734
320.272
320.005
319.971
320.179
320.639
316.727
316.389
316.107
316.118
316.224
316.519
316.924
317.254
317.54
317.771
317.847
317.839
317.546
317.24
316.984
316.611
316.4
316.361
316.519
316.885
312.984
312.778
312.556
312.574
312.624
312.847
313.181
313.436
313.639
313.826
313.893
313.901
313.639
313.412
313.185
312.952
312.803
312.739
312.86
313.133
309.258
309.134
309.005
308.993
309.032
309.171
309.433
309.61
309.731
309.892
309.928
309.94
309.758
309.585
309.399
309.271
309.157
309.111
309.207
309.395
305.564
305.473
305.43
305.415
305.428
305.504
305.665
305.779
305.843
305.938
305.954
305.955
305.873
305.768
305.65
305.587
305.496
305.478
305.527
305.656
301.872
301.829
301.834
301.815
301.827
301.848
301.896
301.945
301.951
301.986
301.998
301.993
301.969
301.935
301.884
301.866
301.842
301.842
301.848
301.899
328.315
327.574
327.23
327.281
327.466
327.856
328.549
329.113
329.692
330.094
330.143
330.088
329.737
329.244
328.563
327.951
327.651
327.549
327.809
328.46
324.521
323.931
323.62
323.676
323.822
324.173
324.778
325.281
325.786
326.14
326.164
326.127
325.815
325.358
324.802
324.299
324.006
323.912
324.128
324.705
320.734
320.286
320.026
320.056
320.162
320.473
320.975
321.41
321.854
322.153
322.173
322.133
321.896
321.47
321.017
320.601
320.352
320.265
320.418
320.913
316.959
316.619
316.407
316.418
316.484
316.763
317.169
317.528
317.903
318.159
318.175
318.12
317.956
317.562
317.221
316.895
316.669
316.591
316.708
317.12
313.169
312.941
312.766
312.76
312.838
313.036
313.345
313.625
313.946
314.119
314.151
314.106
313.987
313.647
313.438
313.171
312.966
312.909
312.994
313.338
309.392
309.259
309.129
309.152
309.185
309.289
309.527
309.731
309.971
310.093
310.112
310.091
309.988
309.748
309.628
309.415
309.27
309.214
309.279
309.549
305.628
305.556
305.483
305.521
305.522
305.575
305.725
305.848
305.99
306.048
306.065
306.046
305.994
305.848
305.793
305.663
305.564
305.516
305.585
305.752
301.878
301.855
301.838
301.854
301.852
301.874
301.928
301.958
302.007
302.014
302.026
302.016
302.014
301.955
301.933
301.893
301.868
301.834
301.874
301.92
328.736
328.145
327.768
327.748
327.95
328.408
329.062
329.83
330.338
330.734
330.881
330.699
330.275
329.798
329.211
328.693
328.173
328.003
328.319
328.86
324.906
324.42
324.09
324.061
324.254
324.634
325.214
325.905
326.336
326.703
326.815
326.66
326.281
325.875
325.369
324.914
324.456
324.307
324.591
325.049
321.068
320.678
320.43
320.381
320.533
320.86
321.368
321.938
322.325
322.638
322.706
322.585
322.278
321.927
321.509
321.121
320.73
320.585
320.827
321.222
317.221
316.934
316.735
316.665
316.833
317.076
317.505
317.967
318.295
318.551
318.587
318.493
318.256
317.977
317.627
317.31
316.992
316.879
317.06
317.39
313.385
313.168
313.041
312.973
313.112
313.291
313.642
313.981
314.258
314.418
314.466
314.404
314.24
314.016
313.711
313.481
313.23
313.13
313.275
313.54
309.557
309.406
309.303
309.303
309.387
309.514
309.761
309.987
310.193
310.314
310.358
310.317
310.185
310.029
309.773
309.616
309.46
309.381
309.484
309.679
305.744
305.651
305.573
305.608
305.656
305.715
305.864
306.003
306.12
306.213
306.233
306.201
306.13
306.033
305.871
305.765
305.679
305.639
305.701
305.828
301.921
301.889
301.874
301.889
301.901
301.908
301.965
302.007
302.046
302.084
302.085
302.09
302.053
302.026
301.965
301.921
301.901
301.892
301.906
301.951
329.314
328.855
328.428
328.301
328.685
329.199
329.8
330.569
331.041
331.439
331.505
331.515
331.086
330.56
329.852
329.263
328.762
328.67
328.851
329.335
325.396
325.035
324.688
324.559
324.896
325.334
325.859
326.556
326.942
327.282
327.372
327.356
326.994
326.57
325.908
325.408
324.967
324.894
325.053
325.477
321.466
321.204
320.927
320.795
321.096
321.46
321.911
322.503
322.832
323.117
323.221
323.162
322.899
322.546
321.985
321.535
321.155
321.099
321.234
321.606
317.543
317.361
317.162
317.02
317.293
317.584
317.936
318.428
318.704
318.929
319.031
318.966
318.791
318.5
318.033
317.656
317.33
317.296
317.389
317.716
313.645
313.497
313.353
313.246
313.472
313.721
313.947
314.354
314.561
314.73
314.833
314.777
314.631
314.426
314.055
313.75
313.49
313.466
313.525
313.801
309.76
309.661
309.548
309.483
309.644
309.831
309.966
310.258
310.399
310.527
310.632
310.572
310.461
310.313
310.059
309.839
309.636
309.63
309.649
309.891
305.869
305.819
305.717
305.7
305.802
305.91
305.996
306.169
306.239
306.337
306.404
306.356
306.283
306.183
306.055
305.921
305.789
305.783
305.799
305.944
301.969
301.957
301.912
301.909
301.948
301.976
302.013
302.06
302.095
302.121
302.159
302.119
302.097
302.065
302.048
301.981
301.932
301.939
301.939
301.993
330.039
329.581
329.118
329.055
329.38
329.944
330.579
331.267
331.78
332.191
332.429
332.282
331.942
331.29
330.584
330.042
329.663
329.418
329.551
330.057
326.031
325.656
325.306
325.212
325.5
326.021
326.552
327.143
327.609
327.962
328.168
328.049
327.725
327.159
326.553
326.098
325.784
325.557
325.678
326.088
322.013
321.743
321.453
321.367
321.623
322.043
322.507
323.018
323.418
323.72
323.865
323.777
323.52
323.01
322.498
322.146
321.854
321.651
321.778
322.111
318.007
317.814
317.58
317.5
317.734
318.05
318.443
318.872
319.192
319.446
319.558
319.483
319.269
318.847
318.44
318.163
317.901
317.724
317.826
318.12
313.988
313.853
313.688
313.611
313.831
314.034
314.374
314.677
314.949
315.161
315.226
315.193
314.993
314.682
314.365
314.148
313.957
313.796
313.872
314.121
309.99
309.91
309.798
309.715
309.908
310.028
310.283
310.504
310.698
310.854
310.874
310.855
310.72
310.506
310.277
310.104
309.978
309.853
309.929
310.115
305.997
305.947
305.877
305.827
305.958
306.015
306.181
306.321
306.42
306.52
306.55
306.519
306.423
306.313
306.175
306.074
305.992
305.931
305.957
306.089
302.011
301.989
301.97
301.949
301.992
302.01
302.065
302.12
302.152
302.189
302.192
302.165
302.159
302.121
302.067
302.031
302
301.984
301.998
302.041
330.765
330.2
329.921
329.91
330.308
330.772
331.303
331.985
332.665
333.066
333.21
333.145
332.792
332.073
331.543
330.789
330.493
330.331
330.332
330.808
326.692
326.193
325.979
325.973
326.316
326.694
327.177
327.795
328.362
328.728
328.836
328.769
328.483
327.866
327.421
326.766
326.506
326.364
326.367
326.732
322.612
322.174
321.997
322.026
322.285
322.585
323.045
323.545
324.034
324.375
324.454
324.361
324.148
323.611
323.247
322.724
322.478
322.347
322.346
322.637
318.53
318.146
318.019
318.069
318.258
318.492
318.892
319.298
319.712
319.972
320.043
319.948
319.756
319.349
319.047
318.628
318.413
318.316
318.305
318.509
314.429
314.102
314.028
314.067
314.216
314.389
314.702
315.018
315.368
315.557
315.613
315.526
315.382
315.076
314.82
314.513
314.341
314.261
314.237
314.413
310.309
310.08
310.036
310.055
310.157
310.277
310.5
310.722
311.008
311.146
311.196
311.098
311.01
310.774
310.59
310.384
310.269
310.206
310.173
310.301
306.181
306.067
306.032
306.039
306.102
306.161
306.315
306.439
306.633
306.707
306.743
306.665
306.612
306.475
306.373
306.242
306.188
306.131
306.118
306.183
302.064
302.041
302.023
302.028
302.043
302.075
302.11
302.151
302.231
302.249
302.271
302.225
302.222
302.175
302.13
302.093
302.071
302.051
302.054
302.074
331.776
331.114
330.9
330.906
331.175
331.557
332.105
332.774
333.52
333.902
333.991
333.901
333.463
332.925
332.172
331.572
331.322
331.17
331.14
331.408
327.564
326.997
326.814
326.848
327.095
327.386
327.868
328.486
329.125
329.448
329.502
329.435
329.067
328.626
327.953
327.425
327.24
327.091
327.054
327.274
323.326
322.869
322.714
322.76
322.971
323.21
323.604
324.156
324.705
324.976
324.989
324.959
324.638
324.281
323.701
323.253
323.119
322.98
322.923
323.125
319.074
318.747
318.62
318.661
318.813
319.009
319.342
319.802
320.25
320.477
320.49
320.456
320.177
319.9
319.443
319.048
318.98
318.855
318.761
318.973
314.826
314.607
314.512
314.542
314.651
314.807
315.047
315.427
315.772
315.963
315.968
315.94
315.708
315.499
315.162
314.841
314.795
314.683
314.596
314.771
310.584
310.444
310.39
310.399
310.472
310.594
310.757
311.027
311.287
311.419
311.403
311.402
311.239
311.078
310.865
310.605
310.575
310.488
310.431
310.55
306.348
306.282
306.248
306.248
306.275
306.376
306.472
306.626
306.786
306.881
306.842
306.86
306.758
306.651
306.539
306.361
306.334
306.306
306.265
306.327
302.126
302.098
302.088
302.098
302.1
302.141
302.185
302.223
302.28
302.308
302.293
302.309
302.259
302.225
302.196
302.133
302.12
302.113
302.094
302.112
332.485
332.028
331.761
331.823
332.003
332.294
332.871
333.657
334.281
334.537
334.833
334.593
334.255
333.597
333.037
332.442
332.061
332.004
331.939
332.324
328.184
327.806
327.581
327.629
327.791
328.065
328.565
329.218
329.791
329.994
330.266
330.06
329.762
329.168
328.717
328.199
327.887
327.855
327.748
328.068
323.87
323.563
323.358
323.408
323.559
323.792
324.223
324.768
325.273
325.434
325.674
325.496
325.215
324.717
324.345
323.922
323.676
323.66
323.527
323.789
319.567
319.312
319.109
319.165
319.287
319.488
319.838
320.278
320.72
320.838
321.039
320.908
320.665
320.265
319.936
319.613
319.42
319.429
319.287
319.486
315.225
315.059
314.852
314.896
315.038
315.187
315.44
315.781
316.15
316.217
316.375
316.278
316.096
315.804
315.498
315.287
315.136
315.149
315.004
315.172
310.893
310.772
310.598
310.657
310.759
310.888
311.044
311.27
311.533
311.606
311.705
311.641
311.495
311.327
311.072
310.944
310.827
310.84
310.729
310.858
306.554
306.473
306.353
306.402
306.473
306.548
306.633
306.769
306.923
306.978
307.024
306.985
306.905
306.825
306.66
306.572
306.514
306.505
306.468
306.535
302.199
302.164
302.122
302.139
302.179
302.201
302.225
302.276
302.32
302.336
302.348
302.335
302.315
302.293
302.23
302.2
302.185
302.197
302.17
302.197
333.397
332.842
332.675
332.656
332.787
333.183
333.621
334.376
334.823
335.235
335.45
335.407
334.924
334.396
333.801
333.204
332.825
332.734
332.798
333.182
328.964
328.512
328.355
328.353
328.495
328.836
329.187
329.856
330.284
330.615
330.799
330.76
330.339
329.895
329.395
328.884
328.55
328.477
328.51
328.834
324.512
324.156
324.021
324.004
324.161
324.463
324.735
325.315
325.694
325.981
326.124
326.098
325.731
325.356
324.954
324.511
324.217
324.185
324.164
324.442
320.063
319.786
319.675
319.65
319.804
320.042
320.24
320.754
321.044
321.3
321.41
321.387
321.088
320.771
320.472
320.095
319.854
319.848
319.805
320.017
315.591
315.386
315.313
315.296
315.432
315.604
315.765
316.16
316.377
316.592
316.67
316.658
316.446
316.155
315.954
315.652
315.481
315.482
315.422
315.569
311.142
310.998
310.951
310.92
311.045
311.169
311.283
311.554
311.728
311.861
311.897
311.925
311.767
311.546
311.418
311.206
311.082
311.073
311.027
311.125
306.681
306.596
306.576
306.557
306.656
306.707
306.79
306.949
307.045
307.117
307.14
307.177
307.087
306.938
306.863
306.741
306.662
306.659
306.631
306.685
302.225
302.209
302.201
302.198
302.229
302.253
302.28
302.328
302.371
302.376
302.394
302.406
302.386
302.329
302.302
302.275
302.227
302.24
302.229
302.249
334.394
333.829
333.694
333.602
333.607
334.022
334.453
335.201
335.594
335.96
336.014
336
335.714
335.095
334.497
333.997
333.614
333.581
333.796
333.988
329.812
329.372
329.244
329.173
329.179
329.57
329.943
330.602
330.937
331.248
331.302
331.271
331.065
330.5
330.003
329.561
329.199
329.156
329.369
329.538
325.215
324.893
324.787
324.713
324.747
325.079
325.407
325.973
326.243
326.518
326.551
326.517
326.352
325.88
325.473
325.075
324.761
324.705
324.904
325.073
320.632
320.406
320.315
320.238
320.305
320.581
320.82
321.306
321.517
321.755
321.763
321.747
321.623
321.249
320.889
320.549
320.301
320.245
320.436
320.555
316.032
315.883
315.827
315.771
315.829
316.041
316.226
316.602
316.766
316.939
316.95
316.933
316.835
316.569
316.288
315.991
315.828
315.778
315.912
315.991
311.447
311.362
311.319
311.292
311.342
311.483
311.63
311.887
312.013
312.117
312.105
312.114
312.037
311.829
311.661
311.43
311.301
311.278
311.37
311.429
306.853
306.813
306.797
306.807
306.824
306.89
307
307.127
307.229
307.277
307.266
307.291
307.246
307.103
307.017
306.884
306.79
306.766
306.833
306.861
302.291
302.283
302.277
302.289
302.29
302.312
302.338
302.386
302.434
302.447
302.442
302.442
302.442
302.384
302.353
302.305
302.268
302.274
302.292
302.289
335.347
334.8
334.689
334.465
334.543
334.9
335.362
335.882
336.285
336.641
336.693
336.564
336.228
335.754
335.256
334.763
334.411
334.409
334.623
334.796
330.653
330.198
330.142
329.935
329.982
330.317
330.728
331.2
331.542
331.851
331.889
331.769
331.499
331.071
330.669
330.224
329.896
329.923
330.111
330.259
325.97
325.599
325.544
325.365
325.41
325.711
326.057
326.487
326.741
326.995
327.037
326.938
326.709
326.349
326.036
325.653
325.336
325.39
325.553
325.677
321.247
320.966
320.923
320.797
320.82
321.072
321.352
321.717
321.925
322.126
322.16
322.067
321.905
321.601
321.35
321.036
320.762
320.814
320.979
321.058
316.525
316.337
316.291
316.223
316.226
316.421
316.621
316.921
317.077
317.212
317.266
317.153
317.069
316.829
316.654
316.398
316.189
316.189
316.348
316.392
311.809
311.687
311.634
311.612
311.6
311.747
311.897
312.103
312.202
312.293
312.356
312.238
312.202
312.039
311.938
311.733
311.583
311.581
311.716
311.724
307.098
307.043
306.978
306.979
306.976
307.065
307.148
307.287
307.328
307.394
307.441
307.341
307.33
307.226
307.177
307.036
306.956
306.971
307.039
307.05
302.379
302.366
302.341
302.341
302.336
302.372
302.395
302.448
302.459
302.487
302.497
302.462
302.464
302.422
302.407
302.352
302.331
302.341
302.356
302.375
336.273
335.798
335.682
335.575
335.584
335.625
336.096
336.525
336.889
337.104
337.242
337.07
336.815
336.526
335.99
335.523
335.218
335.089
335.446
335.694
331.457
331.087
330.988
330.914
330.92
330.96
331.373
331.727
332.063
332.219
332.356
332.215
331.991
331.75
331.298
330.89
330.614
330.521
330.822
331.028
326.625
326.348
326.269
326.209
326.233
326.268
326.607
326.892
327.175
327.337
327.441
327.323
327.137
326.919
326.544
326.218
325.989
325.903
326.158
326.317
321.808
321.575
321.527
321.516
321.479
321.547
321.795
322.026
322.281
322.425
322.506
322.393
322.24
322.075
321.755
321.493
321.312
321.25
321.459
321.572
316.973
316.81
316.757
316.779
316.719
316.792
316.961
317.129
317.345
317.486
317.535
317.418
317.319
317.204
316.96
316.744
316.601
316.585
316.726
316.802
312.14
312.022
311.964
312.014
311.949
312.013
312.141
312.264
312.377
312.507
312.554
312.451
312.4
312.316
312.12
311.98
311.861
311.871
311.973
312.013
307.302
307.229
307.193
307.218
307.163
307.237
307.31
307.388
307.416
307.519
307.55
307.487
307.451
307.405
307.291
307.196
307.12
307.139
307.197
307.231
302.455
302.435
302.414
302.42
302.406
302.43
302.452
302.477
302.47
302.526
302.536
302.514
302.496
302.488
302.442
302.411
302.393
302.397
302.416
302.427
337.226
336.734
336.551
336.499
336.419
336.388
336.865
337.281
337.672
337.712
337.784
337.775
337.54
337.243
336.682
336.466
335.983
336.076
336.304
336.452
332.294
331.904
331.761
331.73
331.641
331.625
332.028
332.382
332.764
332.783
332.858
332.838
332.658
332.39
331.89
331.732
331.3
331.37
331.562
331.666
327.355
327.046
326.923
326.917
326.821
326.805
327.146
327.451
327.796
327.826
327.884
327.875
327.705
327.504
327.058
326.944
326.561
326.619
326.776
326.868
322.404
322.166
322.043
322.084
321.989
321.978
322.241
322.501
322.754
322.823
322.877
322.85
322.704
322.575
322.194
322.099
321.79
321.828
321.958
322.023
317.429
317.281
317.166
317.222
317.11
317.137
317.321
317.532
317.718
317.783
317.842
317.801
317.662
317.596
317.303
317.214
317
317.016
317.095
317.151
312.459
312.37
312.274
312.318
312.231
312.271
312.385
312.551
312.671
312.718
312.784
312.752
312.634
312.58
312.37
312.313
312.161
312.155
312.22
312.27
307.482
307.45
307.382
307.415
307.348
307.386
307.448
307.542
307.615
307.658
307.687
307.665
307.593
307.575
307.453
307.392
307.306
307.297
307.347
307.381
302.509
302.504
302.477
302.492
302.464
302.469
302.498
302.523
302.56
302.573
302.573
302.571
302.545
302.538
302.502
302.473
302.459
302.444
302.451
302.491
338.263
337.836
337.415
337.287
337.373
337.32
337.586
337.944
338.276
338.344
338.559
338.396
338.18
337.798
337.432
337.231
336.905
336.979
337.099
337.232
333.219
332.842
332.503
332.396
332.475
332.419
332.669
332.994
333.295
333.327
333.533
333.385
333.219
332.883
332.548
332.385
332.083
332.19
332.265
332.363
328.151
327.811
327.554
327.487
327.547
327.486
327.718
327.989
328.246
328.273
328.433
328.341
328.201
327.899
327.59
327.486
327.233
327.326
327.38
327.44
323.058
322.768
322.6
322.55
322.576
322.508
322.722
322.938
323.159
323.194
323.313
323.241
323.126
322.869
322.637
322.549
322.341
322.431
322.483
322.492
317.933
317.698
317.607
317.576
317.587
317.528
317.722
317.869
318.02
318.079
318.151
318.137
318.021
317.801
317.621
317.556
317.415
317.494
317.538
317.51
312.818
312.647
312.598
312.557
312.602
312.541
312.686
312.784
312.857
312.93
312.984
313.004
312.877
312.714
312.617
312.568
312.46
312.517
312.541
312.512
307.699
307.593
307.567
307.549
307.59
307.562
307.628
307.666
307.713
307.785
307.8
307.825
307.742
307.634
307.599
307.545
307.478
307.534
307.539
307.526
302.582
302.553
302.543
302.531
302.562
302.532
302.553
302.557
302.585
302.614
302.62
302.626
302.608
302.562
302.547
302.534
302.502
302.537
302.54
302.53
339.288
338.833
338.34
338.266
338.243
338.24
338.541
338.597
338.839
339.113
339.074
338.928
338.683
338.364
338.034
337.9
337.628
337.688
337.915
338.302
334.107
333.73
333.309
333.256
333.249
333.254
333.509
333.557
333.763
334.03
333.988
333.853
333.632
333.351
333.067
332.969
332.736
332.809
332.959
333.29
328.899
328.59
328.252
328.227
328.212
328.229
328.443
328.47
328.643
328.897
328.823
328.721
328.52
328.321
328.057
327.967
327.798
327.878
327.951
328.232
323.678
323.423
323.144
323.144
323.137
323.161
323.326
323.343
323.493
323.711
323.625
323.55
323.382
323.218
323.01
322.922
322.81
322.885
322.927
323.135
318.446
318.217
318.017
318.027
318.03
318.051
318.167
318.187
318.285
318.494
318.408
318.347
318.223
318.091
317.922
317.863
317.772
317.843
317.884
318.014
313.215
313.022
312.887
312.895
312.903
312.926
312.984
312.996
313.079
313.255
313.192
313.115
313.034
312.945
312.831
312.794
312.714
312.776
312.795
312.878
307.948
307.819
307.743
307.74
307.774
307.765
307.794
307.81
307.856
307.96
307.938
307.896
307.83
307.776
307.726
307.698
307.666
307.689
307.695
307.747
302.674
302.622
302.589
302.604
302.608
302.604
302.612
302.619
302.633
302.66
302.667
302.639
302.639
302.604
302.591
302.579
302.581
302.587
302.573
302.591
340.196
339.705
339.289
339.127
339.105
339.1
339.43
339.438
339.484
339.73
339.688
339.468
339.292
339.101
338.793
338.596
338.477
338.427
338.698
339.18
334.881
334.475
334.14
333.994
333.98
333.976
334.273
334.304
334.334
334.544
334.516
334.321
334.175
333.98
333.758
333.559
333.45
333.42
333.64
334.057
329.541
329.205
328.947
328.813
328.793
328.829
329.093
329.108
329.133
329.307
329.289
329.131
328.989
328.833
328.653
328.462
328.394
328.338
328.509
328.889
324.196
323.908
323.72
323.609
323.588
323.635
323.868
323.869
323.917
324.05
324.015
323.883
323.76
323.633
323.493
323.345
323.277
323.24
323.365
323.684
318.834
318.607
318.482
318.383
318.378
318.413
318.595
318.591
318.67
318.76
318.731
318.601
318.529
318.414
318.292
318.182
318.138
318.117
318.214
318.454
313.463
313.307
313.227
313.154
313.156
313.159
313.292
313.295
313.368
313.429
313.416
313.313
313.269
313.174
313.077
312.993
312.99
312.982
313.047
313.21
308.108
308.008
307.953
307.898
307.904
307.892
307.977
307.989
308.044
308.065
308.077
307.994
307.973
307.922
307.864
307.795
307.806
307.826
307.85
307.931
302.722
302.685
302.671
302.652
302.651
302.641
302.679
302.671
302.702
302.709
302.707
302.684
302.675
302.661
302.63
302.612
302.623
302.63
302.628
302.651
341.152
340.587
340.287
340.012
339.787
339.863
340.003
340.083
340.184
340.226
340.197
339.982
339.768
339.688
339.365
339.289
339.181
339.195
339.388
339.922
335.715
335.229
334.985
334.76
334.567
334.644
334.777
334.844
334.944
334.95
334.939
334.755
334.582
334.482
334.241
334.154
334.086
334.071
334.207
334.701
330.262
329.835
329.64
329.468
329.316
329.381
329.481
329.577
329.637
329.649
329.623
329.475
329.321
329.245
329.063
328.98
328.934
328.921
328.992
329.422
324.773
324.414
324.259
324.15
324.031
324.092
324.151
324.252
324.287
324.315
324.293
324.161
324.018
323.986
323.863
323.777
323.733
323.713
323.757
324.103
319.285
318.978
318.868
318.801
318.718
318.758
318.809
318.885
318.921
318.956
318.928
318.822
318.688
318.691
318.615
318.527
318.485
318.46
318.513
318.781
313.781
313.545
313.458
313.431
313.384
313.401
313.468
313.515
313.519
313.569
313.542
313.465
313.351
313.383
313.333
313.257
313.206
313.184
313.244
313.45
308.276
308.145
308.081
308.054
308.04
308.042
308.078
308.133
308.126
308.143
308.145
308.107
308.026
308.053
308.012
307.968
307.936
307.923
307.961
308.088
302.773
302.732
302.706
302.702
302.708
302.694
302.701
302.718
302.72
302.73
302.727
302.724
302.689
302.702
302.688
302.671
302.654
302.661
302.666
302.708
341.797
341.198
340.874
340.571
340.473
340.384
340.34
340.555
340.693
340.703
340.546
340.317
340.187
340.186
339.867
339.84
339.938
339.779
340.042
340.495
336.248
335.73
335.463
335.226
335.123
335.069
335.048
335.248
335.35
335.354
335.225
335.021
334.866
334.924
334.655
334.597
334.691
334.575
334.76
335.156
330.716
330.239
330.025
329.839
329.751
329.717
329.72
329.914
329.972
329.964
329.873
329.674
329.552
329.576
329.381
329.345
329.429
329.338
329.453
329.785
325.129
324.76
324.561
324.442
324.355
324.34
324.332
324.513
324.56
324.55
324.473
324.298
324.208
324.237
324.101
324.039
324.135
324.05
324.13
324.394
319.559
319.259
319.129
319.048
318.956
318.953
318.955
319.089
319.113
319.125
319.058
318.92
318.866
318.876
318.776
318.73
318.788
318.726
318.775
319.005
313.986
313.74
313.688
313.642
313.543
313.547
313.563
313.626
313.676
313.665
313.622
313.52
313.488
313.5
313.445
313.397
313.421
313.39
313.414
313.591
308.418
308.243
308.224
308.217
308.13
308.137
308.145
308.175
308.221
308.202
308.184
308.12
308.109
308.104
308.076
308.034
308.075
308.057
308.05
308.17
302.819
302.765
302.754
302.752
302.73
302.732
302.729
302.749
302.748
302.749
302.75
302.713
302.717
302.721
302.711
302.695
302.714
302.708
302.69
302.74
)
;

boundaryField
{
    hotSide
    {
        type            fixedGradient;
        gradient        nonuniform List<scalar> 
400
(
296.738
296.653
298.302
301.64
306.493
312.612
319.731
327.607
336.04
344.873
353.992
363.315
372.79
382.388
392.099
401.926
411.889
422.007
432.301
442.779
285.872
285.925
287.832
291.537
296.83
303.415
310.987
319.276
328.067
337.198
346.552
356.05
365.644
375.311
385.047
394.866
404.795
414.868
425.111
435.543
279.824
280.185
282.373
286.328
291.839
298.613
306.344
314.762
323.648
332.837
342.211
351.692
361.233
370.815
380.44
390.128
399.91
409.823
419.903
430.168
278.29
279.116
281.617
285.732
291.278
298.004
305.639
313.931
322.67
331.692
340.88
350.155
359.471
368.813
378.184
387.609
397.122
406.761
416.56
426.543
280.075
281.456
284.321
288.601
294.146
300.749
308.181
316.22
324.672
333.38
342.228
351.141
360.079
369.029
378.005
387.032
396.149
405.394
414.803
424.402
283.815
285.79
289.077
293.6
299.225
305.773
313.045
320.84
328.979
337.314
345.737
354.182
362.618
371.047
379.494
387.996
396.598
405.343
414.27
423.408
288.385
290.959
294.722
299.587
305.42
312.052
319.291
326.942
334.828
342.805
350.775
358.686
366.531
374.336
382.146
390.019
398.014
406.181
414.564
423.197
292.922
296.07
300.336
305.622
311.787
318.653
326.014
333.659
341.397
349.075
356.603
363.952
371.149
378.26
385.365
392.549
399.889
407.446
415.27
423.395
296.74
300.39
305.134
310.867
317.436
324.646
332.262
340.037
347.741
355.2
362.324
369.118
375.659
382.064
388.46
394.964
401.671
408.655
415.964
423.632
299.29
303.302
308.419
314.53
321.477
329.043
336.963
344.943
352.699
360.022
366.819
373.13
379.093
384.884
390.676
396.614
402.808
409.337
416.25
423.576
300.182
304.346
309.635
315.943
323.104
330.891
339.016
347.15
354.968
362.227
368.832
374.851
380.462
385.885
391.321
396.933
402.839
409.119
415.823
422.977
299.25
303.306
308.509
314.749
321.86
329.612
337.712
345.829
353.638
360.895
367.504
373.529
379.145
384.569
390.005
395.617
401.526
407.816
414.539
421.723
296.609
300.304
305.168
311.091
317.905
325.383
333.247
341.193
348.931
356.247
363.043
369.353
375.308
381.082
386.853
392.773
398.962
405.508
412.468
419.878
292.671
295.807
300.155
305.609
312
319.109
326.675
334.426
342.116
349.556
356.65
363.393
369.863
376.18
382.483
388.904
395.557
402.532
409.892
417.679
288.12
290.573
294.327
299.279
305.261
312.051
319.395
327.04
334.762
342.387
349.815
357.015
364.02
370.91
377.786
384.762
391.943
399.42
407.262
415.514
283.901
285.624
288.784
293.288
298.956
305.547
312.795
320.443
328.272
336.112
343.858
351.462
358.932
366.318
373.7
381.177
388.851
396.815
405.144
413.884
281.249
282.26
284.875
289.009
294.456
300.942
308.171
315.87
323.816
331.841
339.836
347.746
355.565
363.327
371.099
378.97
387.044
395.422
404.183
413.375
281.631
282.025
284.16
287.954
293.182
299.534
306.688
314.364
322.333
330.433
338.555
346.641
354.677
362.687
370.728
378.884
387.258
395.955
405.059
414.616
286.345
286.295
288.007
291.41
296.28
302.313
309.193
316.643
324.447
332.444
340.53
348.643
356.765
364.909
373.122
381.479
390.073
399.003
408.347
418.146
295.794
295.492
296.835
299.766
304.102
309.587
315.948
322.939
330.361
338.063
345.943
353.937
362.018
370.192
378.493
386.978
395.722
404.801
414.279
424.183
)
;
    }
    coldSide
    {
        type            mixed;
        refValue        uniform 300;
        refGradient     uniform 0;
        valueFraction   uniform 0.991591;
        source          uniform 0;
        value           nonuniform List<scalar> 
400
(
300.016
300.016
300.016
300.016
300.016
300.017
300.017
300.017
300.018
300.018
300.019
300.019
300.02
300.021
300.021
300.022
300.022
300.023
300.023
300.024
300.015
300.015
300.015
300.016
300.016
300.016
300.017
300.017
300.018
300.018
300.019
300.019
300.02
300.02
300.021
300.021
300.022
300.023
300.023
300.023
300.015
300.015