/*--------------------------------*- C++ -*----------------------------------*\
| =========                 |                                                 |
| \\      /  F ield         | OpenFOAM: The Open Source CFD Toolbox           |
|  \\    /   O peration     | Version:  2212                                  |
|   \\  /    A nd           | Website:  www.openfoam.com                      |
|    \\/     M anipulation  |                                                 |
\*---------------------------------------------------------------------------*/
FoamFile
{
    version     2.0;
    format      ascii;
    arch        "LSB;label=32;scalar=64";
    class       volScalarField;
    location    "0";
    object      T;
}
// * * * * * * * * * * * * * * * * * * * * * * * * * * * * * * * * * * * * * //

dimensions      [0 0 0 1 0 0 0];

internalField   nonuniform List<scalar> 
3200
(
346.134
345.12
344.461
344.386
344.612
345.182
345.827
346.526
347.011
347.231
347.081
346.694
345.936
344.998
343.779
342.867
342.084
341.47
342.095
342.867
339.938
339.13
338.542
338.492
338.724
339.222
339.801
340.419
340.826
341.048
340.875
340.576
339.935
339.112
338.067
337.301
336.648
336.059
336.634
337.276
333.785
333.133
332.622
332.578
332.797
333.212
333.732
334.255
334.614
334.796
334.646
334.403
333.89
333.182
332.303
331.671
331.12
330.6
331.093
331.612
327.663
327.121
326.714
326.672
326.847
327.184
327.642
328.065
328.386
328.509
328.4
328.185
327.821
327.21
326.47
325.993
325.527
325.114
325.537
325.919
321.515
321.103
320.816
320.779
320.92
321.164
321.539
321.85
322.1
322.208
322.128
321.957
321.69
321.216
320.629
320.278
319.904
319.565
319.93
320.207
315.367
315.08
314.871
314.88
314.959
315.128
315.408
315.649
315.828
315.901
315.843
315.698
315.516
315.184
314.766
314.532
314.246
313.987
314.266
314.483
309.225
309.06
308.927
308.958
308.998
309.094
309.267
309.409
309.516
309.56
309.525
309.451
309.346
309.118
308.879
308.75
308.547
308.408
308.584
308.708
303.1
303.033
302.98
302.999
303.02
303.044
303.111
303.163
303.195
303.208
303.191
303.17
303.13
303.049
302.975
302.932
302.864
302.827
302.886
302.909
346.21
345.242
344.449
344.455
344.797
345.439
346.206
346.927
347.374
347.786
347.565
347.042
346.306
345.345
344.154
343.081
342.33
341.772
342.208
342.824
340.028
339.236
338.508
338.56
338.885
339.441
340.11
340.736
341.138
341.499
341.29
340.858
340.23
339.429
338.366
337.492
336.846
336.348
336.738
337.245
333.86
333.215
332.607
332.642
332.974
333.434
333.976
334.515
334.875
335.158
335.001
334.641
334.118
333.478
332.533
331.836
331.305
330.869
331.216
331.6
327.718
327.192
326.698
326.734
327.014
327.378
327.82
328.291
328.584
328.816
328.69
328.391
327.967
327.468
326.665
326.13
325.704
325.319
325.649
325.905
321.574
321.142
320.775
320.839
321.034
321.295
321.672
322.05
322.268
322.462
322.333
322.108
321.782
321.405
320.785
320.37
320.073
319.734
320.02
320.177
315.434
315.112
314.849
314.909
315.056
315.224
315.508
315.794
315.925
316.087
315.963
315.8
315.585
315.311
314.882
314.584
314.382
314.111
314.344
314.437
309.267
309.061
308.924
308.949
309.059
309.144
309.327
309.496
309.58
309.673
309.586
309.493
309.368
309.186
308.958
308.785
308.656
308.482
308.632
308.678
303.11
303.035
302.993
302.993
303.041
303.07
303.139
303.187
303.211
303.242
303.222
303.187
303.136
303.071
303.004
302.951
302.903
302.847
302.891
302.918
346.45
345.601
344.889
344.862
345.13
345.831
346.724
347.432
348.125
348.525
348.311
347.734
347.1
346.15
344.646
343.529
342.61
342.187
342.357
343.098
340.202
339.546
338.935
338.902
339.158
339.756
340.533
341.157
341.769
342.135
341.952
341.441
340.882
340.1
338.795
337.835
337.066
336.715
336.859
337.491
333.976
333.489
332.955
332.938
333.175
333.699
334.35
334.879
335.383
335.711
335.562
335.14
334.647
333.981
332.892
332.097
331.474
331.158
331.296
331.822
327.765
327.408
326.963
326.956
327.163
327.612
328.131
328.592
328.981
329.272
329.148
328.825
328.404
327.824
326.971
326.323
325.857
325.571
325.673
326.106
321.611
321.335
320.972
320.948
321.169
321.5
321.875
322.256
322.566
322.787
322.721
322.461
322.14
321.652
320.995
320.525
320.183
319.947
320.024
320.365
315.448
315.233
314.992
314.964
315.142
315.377
315.618
315.923
316.148
316.312
316.252
316.085
315.858
315.451
315.019
314.707
314.462
314.278
314.358
314.597
309.288
309.149
309.002
308.985
309.086
309.246
309.377
309.568
309.704
309.817
309.754
309.667
309.535
309.286
309.033
308.848
308.717
308.569
308.633
308.776
303.116
303.068
303.016
303.008
303.041
303.095
303.15
303.207
303.254
303.299
303.268
303.241
303.203
303.116
303.017
302.978
302.931
302.872
302.891
302.945
346.737
346.068
345.389
345.271
345.72
346.444
347.373
348.242
348.893
349.31
349.282
348.84
347.907
346.984
345.455
344.25
343.369
342.772
342.952
343.62
340.471
339.943
339.353
339.252
339.658
340.295
341.088
341.864
342.428
342.802
342.754
342.386
341.588
340.823
339.494
338.458
337.729
337.206
337.389
337.939
334.211
333.801
333.29
333.219
333.581
334.131
334.801
335.471
335.948
336.256
336.203
335.905
335.236
334.614
333.489
332.633
332.018
331.578
331.761
332.211
327.968
327.657
327.246
327.182
327.482
327.971
328.508
329.041
329.435
329.684
329.632
329.398
328.873
328.342
327.46
326.752
326.259
325.92
326.076
326.446
321.739
321.523
321.228
321.161
321.388
321.793
322.198
322.615
322.931
323.093
323.041
322.887
322.489
322.05
321.398
320.853
320.459
320.204
320.337
320.63
315.519
315.394
315.18
315.134
315.283
315.572
315.872
316.186
316.407
316.493
316.459
316.36
316.109
315.744
315.312
314.924
314.637
314.458
314.557
314.778
309.313
309.255
309.131
309.098
309.182
309.361
309.555
309.74
309.864
309.913
309.89
309.825
309.683
309.455
309.215
308.965
308.803
308.711
308.768
308.889
303.128
303.11
303.073
303.052
303.076
303.142
303.201
303.266
303.302
303.321
303.315
303.292
303.245
303.17
303.092
303.02
302.965
302.926
302.951
302.988
347.375
346.472
346.012
345.919
346.408
347.151
348.264
349.186
349.886
350.229
350.37
349.94
349.109
347.946
346.399
345.159
344.17
343.466
343.643
344.286
341.003
340.277
339.896
339.792
340.262
340.906
341.853
342.668
343.299
343.59
343.693
343.357
342.635
341.679
340.311
339.262
338.409
337.8
337.97
338.509
334.658
334.098
333.773
333.682
334.101
334.623
335.446
336.133
336.675
336.925
337.002
336.735
336.16
335.329
334.198
333.327
332.58
332.077
332.245
332.691
328.348
327.911
327.662
327.59
327.936
328.356
329.023
329.565
330.04
330.253
330.283
330.096
329.641
328.961
328.046
327.314
326.705
326.302
326.456
326.819
322.044
321.739
321.538
321.483
321.757
322.091
322.611
322.999
323.376
323.552
323.58
323.443
323.087
322.555
321.855
321.25
320.815
320.486
320.638
320.912
315.749
315.553
315.41
315.364
315.576
315.802
316.151
316.433
316.698
316.851
316.846
316.743
316.511
316.129
315.648
315.197
314.889
314.629
314.774
314.961
309.485
309.342
309.262
309.223
309.372
309.514
309.684
309.867
310.023
310.133
310.126
310.041
309.942
309.703
309.409
309.139
308.961
308.808
308.879
308.994
303.188
303.132
303.103
303.09
303.144
303.185
303.238
303.307
303.365
303.385
303.397
303.356
303.335
303.255
303.156
303.066
302.994
302.951
302.974
303.014
348.189
347.306
346.923
346.826
347.247
348.009
349.099
349.979
350.887
351.422
351.453
351.063
350.245
348.971
347.453
346.186
345.127
344.42
344.584
345.072
341.735
341.004
340.669
340.586
340.967
341.612
342.591
343.358
344.147
344.615
344.659
344.306
343.615
342.539
341.222
340.141
339.248
338.591
338.786
339.189
335.3
334.7
334.429
334.347
334.665
335.224
336.071
336.722
337.408
337.75
337.849
337.516
336.971
336.08
334.956
334.052
333.308
332.736
332.902
333.262
328.849
328.4
328.188
328.112
328.36
328.86
329.536
330.095
330.623
330.882
331.02
330.733
330.281
329.583
328.651
327.9
327.319
326.856
326.966
327.268
322.435
322.095
321.933
321.868
322.058
322.457
322.989
323.432
323.82
324.032
324.158
323.918
323.574
323.042
322.321
321.738
321.291
320.935
321.021
321.267
316.029
315.794
315.688
315.634
315.754
316.071
316.45
316.756
317.008
317.176
317.27
317.094
316.85
316.495
315.964
315.541
315.228
314.967
315.014
315.227
309.622
309.485
309.436
309.402
309.466
309.674
309.891
310.076
310.2
310.327
310.375
310.27
310.115
309.908
309.582
309.338
309.148
308.995
309.012
309.147
303.228
303.176
303.174
303.144
303.183
303.258
303.317
303.389
303.418
303.46
303.485
303.439
303.387
303.329
303.216
303.141
303.07
303.017
303.023
303.058
349.06
348.3
347.738
347.761
348.207
349.006
350.032
351.02
351.94
352.594
352.682
352.283
351.325
350.06
348.507
347.215
346.184
345.556
345.549
345.988
342.484
341.867
341.374
341.402
341.771
342.507
343.393
344.247
345.048
345.627
345.681
345.367
344.539
343.492
342.123
341.027
340.145
339.596
339.607
339.954
335.916
335.435
335.017
335.038
335.358
336.006
336.736
337.444
338.125
338.669
338.687
338.404
337.72
336.853
335.683
334.79
334.054
333.591
333.601
333.882
329.367
328.992
328.658
328.686
328.953
329.484
330.087
330.646
331.206
331.687
331.69
331.435
330.892
330.184
329.227
328.529
327.898
327.534
327.535
327.781
322.852
322.551
322.31
322.319
322.559
322.962
323.421
323.836
324.27
324.696
324.664
324.444
324.052
323.506
322.753
322.218
321.718
321.451
321.435
321.651
316.316
316.117
315.955
315.944
316.122
316.436
316.75
317.03
317.347
317.674
317.641
317.465
317.199
316.801
316.267
315.891
315.527
315.333
315.327
315.502
309.805
309.679
309.586
309.567
309.673
309.886
310.065
310.239
310.431
310.621
310.609
310.491
310.336
310.099
309.765
309.563
309.317
309.202
309.209
309.327
303.296
303.241
303.219
303.206
303.247
303.308
303.382
303.433
303.495
303.549
303.558
303.519
303.473
303.392
303.269
303.212
303.126
303.089
303.093
303.134
350.011
349.291
348.952
348.908
349.365
349.936
351.144
352.072
353.011
353.62
353.834
353.445
352.384
351.003
349.532
348.396
347.282
346.618
346.534
347.061
343.284
342.708
342.432
342.396
342.78
343.277
344.353
345.15
345.97
346.516
346.674
346.352
345.451
344.276
343
342.053
341.11
340.534
340.449
340.896
336.591
336.133
335.894
335.87
336.215
336.634
337.563
338.208
338.897
339.374
339.503
339.247
338.502
337.505
336.461
335.664
334.861
334.382
334.322
334.67
329.947
329.558
329.347
329.345
329.642
329.98
330.736
331.273
331.793
332.233
332.329
332.127
331.529
330.714
329.889
329.249
328.559
328.211
328.15
328.415
323.293
323.012
322.843
322.821
323.07
323.327
323.927
324.332
324.716
325.074
325.161
324.997
324.565
323.913
323.295
322.801
322.243
322.016
321.932
322.147
316.652
316.462
316.308
316.296
316.491
316.66
317.115
317.379
317.652
317.932
317.983
317.853
317.573
317.091
316.671
316.318
315.897
315.752
315.723
315.854
309.984
309.902
309.787
309.784
309.9
309.999
310.287
310.441
310.594
310.783
310.801
310.721
310.557
310.259
310.025
309.819
309.547
309.472
309.466
309.528
303.339
303.312
303.285
303.289
303.313
303.358
303.457
303.49
303.547
303.617
303.617
303.588
303.541
303.444
303.367
303.291
303.195
303.175
303.179
303.191
351.094
350.323
350.072
350.043
350.316
351.036
352.108
353.059
353.945
354.662
354.879
354.507
353.516
352.241
350.813
349.68
348.441
347.863
347.774
348.059
344.246
343.585
343.387
343.382
343.625
344.253
345.188
345.99
346.767
347.401
347.594
347.277
346.428
345.326
344.132
343.178
342.095
341.582
341.516
341.758
337.435
336.876
336.697
336.713
336.945
337.461
338.276
338.91
339.593
340.132
340.315
340.031
339.333
338.385
337.423
336.605
335.71
335.257
335.207
335.417
330.629
330.15
330.03
330.011
330.268
330.676
331.338
331.846
332.412
332.861
333.028
332.769
332.196
331.431
330.663
330
329.276
328.886
328.861
329.036
323.834
323.45
323.364
323.344
323.577
323.892
324.405
324.782
325.221
325.573
325.705
325.499
325.043
324.474
323.899
323.398
322.816
322.497
322.485
322.639
317.033
316.767
316.693
316.672
316.86
317.097
317.442
317.708
318.033
318.269
318.367
318.246
317.915
317.505
317.106
316.764
316.318
316.086
316.081
316.2
310.231
310.066
310.017
310.001
310.135
310.276
310.474
310.617
310.85
310.953
311.011
310.977
310.76
310.512
310.28
310.096
309.806
309.652
309.663
309.732
303.43
303.382
303.347
303.352
303.399
303.449
303.508
303.549
303.654
303.67
303.694
303.681
303.608
303.524
303.451
303.38
303.285
303.245
303.245
303.259
352.026
351.629
351.138
351.19
351.468
352.161
353.117
354.239
355.016
355.609
355.937
355.443
354.576
353.33
351.903
350.732
349.663
349.035
349.007
349.284
345.039
344.719
344.309
344.341
344.594
345.205
346.037
347.052
347.693
348.203
348.515
348.076
347.354
346.303
345.055
344.048
343.163
342.614
342.577
342.815
338.095
337.822
337.497
337.539
337.706
338.257
338.977
339.813
340.369
340.809
341.061
340.7
340.105
339.239
338.195
337.329
336.593
336.125
336.088
336.312
331.163
330.923
330.667
330.718
330.837
331.296
331.895
332.553
333.043
333.414
333.623
333.313
332.809
332.14
331.304
330.574
330.002
329.603
329.586
329.76
324.252
324.039
323.848
323.899
323.987
324.364
324.825
325.312
325.703
326.012
326.165
325.902
325.523
325.027
324.405
323.817
323.373
323.048
323.069
323.178
317.318
317.165
317.036
317.095
317.133
317.429
317.746
318.074
318.36
318.617
318.706
318.504
318.23
317.897
317.46
317.028
316.715
316.481
316.517
316.567
310.4
310.3
310.233
310.272
310.298
310.474
310.655
310.842
311.032
311.181
311.232
311.105
310.946
310.751
310.486
310.209
310.039
309.906
309.925
309.962
303.478
303.452
303.429
303.435
303.442
303.52
303.573
303.636
303.7
303.756
303.767
303.719
303.676
303.611
303.513
303.414
303.367
303.33
303.31
303.351
353.211
352.682
352.273
352.24
352.549
353.191
354.115
355.086
355.866
356.579
356.775
356.374
355.512
354.402
353.078
351.861
350.919
350.237
350.141
350.471
346.038
345.64
345.297
345.271
345.528
346.108
346.903
347.763
348.445
349.062
349.242
348.878
348.157
347.23
346.059
345.027
344.256
343.655
343.536
343.827
338.902
338.612
338.304
338.293
338.523
339.026
339.702
340.428
341.002
341.529
341.697
341.394
340.784
340.023
339.03
338.158
337.551
337.037
336.88
337.136
331.797
331.579
331.326
331.33
331.515
331.931
332.501
333.062
333.566
333.997
334.139
333.887
333.376
332.786
331.966
331.263
330.785
330.362
330.204
330.408
324.716
324.547
324.361
324.377
324.515
324.86
325.31
325.703
326.125
326.468
326.556
326.37
325.97
325.518
324.873
324.346
323.987
323.645
323.521
323.671
317.632
317.536
317.415
317.42
317.518
317.773
318.099
318.362
318.656
318.937
318.976
318.848
318.556
318.246
317.775
317.427
317.146
316.914
316.822
316.939
310.584
310.537
310.461
310.467
310.507
310.678
310.89
311.031
311.207
311.385
311.39
311.329
311.148
310.969
310.668
310.469
310.306
310.17
310.104
310.185
303.548
303.527
303.512
303.507
303.518
303.588
303.641
303.691
303.742
303.823
303.822
303.794
303.732
303.669
303.571
303.507
303.444
303.407
303.387
303.42
354.333
353.729
353.409
353.359
353.727
354.375
355.215
355.983
356.688
357.343
357.468
357.228
356.41
355.302
354.057
352.955
352.009
351.39
351.413
351.666
347.029
346.544
346.255
346.246
346.59
347.151
347.873
348.543
349.137
349.71
349.845
349.634
348.947
348.016
346.949
345.984
345.187
344.65
344.648
344.841
339.755
339.356
339.101
339.116
339.451
339.916
340.532
341.098
341.573
342.074
342.179
342.036
341.477
340.694
339.788
338.984
338.325
337.866
337.825
337.983
332.501
332.183
331.981
331.971
332.316
332.665
333.194
333.642
334.001
334.447
334.529
334.424
333.974
333.345
332.585
331.957
331.392
331.03
330.976
331.092
325.262
325.048
324.864
324.861
325.149
325.405
325.837
326.196
326.437
326.803
326.886
326.797
326.443
325.974
325.374
324.888
324.432
324.162
324.114
324.203
318.059
317.885
317.746
317.773
317.96
318.14
318.461
318.726
318.863
319.156
319.212
319.145
318.913
318.584
318.149
317.795
317.467
317.29
317.231
317.276
310.856
310.738
310.652
310.672
310.787
310.889
311.078
311.246
311.326
311.511
311.551
311.488
311.352
311.172
310.913
310.693
310.506
310.389
310.351
310.362
303.626
303.592
303.567
303.571
303.61
303.645
303.711
303.767
303.798
303.85
303.879
303.85
303.808
303.739
303.661
303.595
303.521
303.483
303.464
303.477
355.625
354.795
354.614
354.522
354.904
355.442
356.157
356.926
357.485
358.077
358.216
357.943
357.248
356.197
355.04
353.983
353.16
352.651
352.584
352.896
348.154
347.468
347.286
347.245
347.598
348.059
348.693
349.351
349.838
350.334
350.488
350.259
349.67
348.756
347.795
346.894
346.184
345.753
345.679
345.938
340.704
340.162
340.006
339.967
340.304
340.667
341.235
341.756
342.178
342.622
342.748
342.578
342.058
341.313
340.495
339.762
339.147
338.798
338.745
338.952
333.274
332.861
332.727
332.69
332.976
333.278
333.76
334.167
334.502
334.872
334.979
334.873
334.449
333.845
333.167
332.615
332.076
331.793
331.761
331.927
325.866
325.554
325.438
325.422
325.667
325.884
326.273
326.564
326.816
327.133
327.212
327.156
326.834
326.361
325.821
325.405
324.98
324.733
324.751
324.877
318.481
318.24
318.158
318.169
318.335
318.502
318.783
318.976
319.148
319.373
319.437
319.43
319.185
318.875
318.443
318.15
317.87
317.674
317.724
317.781
311.103
310.932
310.892
310.923
311.007
311.121
311.281
311.381
311.509
311.629
311.671
311.679
311.528
311.339
311.085
310.901
310.74
310.617
310.656
310.697
303.716
303.653
303.633
303.668
303.693
303.733
303.784
303.807
303.866
303.897
303.907
303.913
303.875
303.796
303.719
303.651
303.603
303.566
303.575
303.59
356.693
356.038
355.75
355.725
355.978
356.39
357
357.698
358.408
358.696
358.938
358.736
357.981
357.002
355.854
354.937
354.185
353.767
353.734
354.148
349.051
348.539
348.298
348.296
348.524
348.866
349.397
350.009
350.64
350.892
351.121
350.957
350.306
349.458
348.487
347.697
347.066
346.707
346.651
347.014
341.45
341.054
340.843
340.867
341.049
341.333
341.783
342.315
342.851
343.072
343.298
343.175
342.608
341.894
341.104
340.428
339.893
339.579
339.54
339.863
333.878
333.58
333.424
333.455
333.567
333.797
334.169
334.625
335.055
335.259
335.451
335.383
334.905
334.305
333.69
333.124
332.707
332.411
332.418
332.668
326.312
326.118
326.006
326.026
326.116
326.277
326.581
326.945
327.267
327.45
327.587
327.549
327.194
326.7
326.243
325.808
325.496
325.238
325.268
325.448
318.803
318.661
318.575
318.604
318.654
318.78
318.989
319.239
319.482
319.613
319.699
319.688
319.468
319.089
318.762
318.468
318.247
318.042
318.08
318.205
311.294
311.197
311.143
311.182
311.203
311.286
311.402
311.552
311.691
311.785
311.824
311.833
311.712
311.465
311.267
311.116
310.959
310.839
310.869
310.954
303.785
303.749
303.737
303.754
303.753
303.787
303.817
303.873
303.92
303.95
303.963
303.967
303.931
303.837
303.773
303.736
303.673
303.634
303.636
303.669
357.798
357.34
356.978
356.896
356.903
357.307
357.828
358.466
359.221
359.467
359.574
359.326
358.709
357.768
356.809
355.964
355.248
354.865
354.813
355.21
350.047
349.638
349.374
349.283
349.3
349.641
350.099
350.665
351.331
351.557
351.665
351.459
350.942
350.152
349.319
348.586
347.973
347.674
347.602
347.934
342.308
341.972
341.763
341.695
341.72
341.976
342.378
342.868
343.434
343.637
343.72
343.603
343.157
342.502
341.807
341.176
340.653
340.413
340.354
340.594
334.58
334.317
334.144
334.107
334.138
334.316
334.681
335.073
335.528
335.727
335.769
335.721
335.356
334.81
334.239
333.754
333.305
333.131
333.071
333.231
326.898
326.677
326.555
326.529
326.537
326.694
326.995
327.287
327.636
327.801
327.865
327.814
327.509
327.085
326.667
326.291
325.942
325.792
325.792
325.876
319.213
319.052
318.987
318.936
318.969
319.064
319.295
319.489
319.742
319.872
319.922
319.907
319.646
319.338
319.081
318.806
318.569
318.45
318.45
318.487
311.552
311.413
311.39
311.372
311.39
311.442
311.572
311.707
311.85
311.941
311.967
311.975
311.787
311.618
311.491
311.299
311.155
311.09
311.088
311.099
303.869
303.823
303.813
303.806
303.824
303.825
303.875
303.925
303.974
304.005
304.013
304.018
303.955
303.886
303.85
303.796
303.747
303.725
303.718
303.722
359.138
358.481
358.145
357.976
357.896
358.385
358.875
359.32
359.879
360.257
360.219
359.994
359.389
358.676
357.765
356.942
356.267
356.075
356.1
356.399
351.177
350.648
350.374
350.199
350.135
350.558
351.003
351.404
351.901
352.252
352.247
352.04
351.541
350.914
350.131
349.44
348.881
348.677
348.74
348.991
343.255
342.834
342.598
342.444
342.421
342.769
343.143
343.489
343.913
344.237
344.257
344.074
343.662
343.139
342.466
341.899
341.44
341.241
341.335
341.537
335.375
335.049
334.833
334.693
334.711
334.983
335.296
335.582
335.942
336.218
336.257
336.118
335.773
335.343
334.777
334.313
333.947
333.782
333.9
334.041
327.496
327.234
327.062
326.979
327
327.212
327.457
327.669
327.971
328.182
328.225
328.149
327.859
327.528
327.064
326.711
326.428
326.308
326.422
326.531
319.624
319.464
319.319
319.268
319.284
319.451
319.63
319.762
319.99
320.148
320.184
320.147
319.917
319.665
319.35
319.103
318.878
318.805
318.921
318.979
311.772
311.681
311.597
311.556
311.564
311.705
311.797
311.86
312.006
312.098
312.135
312.121
311.958
311.815
311.612
311.49
311.342
311.304
311.392
311.393
303.952
303.917
303.88
303.865
303.864
303.924
303.962
303.977
304.018
304.066
304.067
304.065
304.013
303.96
303.889
303.856
303.799
303.798
303.826
303.814
360.463
359.773
359.312
359.019
358.997
359.359
359.739
360.185
360.648
360.814
360.896
360.725
360.174
359.361
358.634
357.975
357.422
357.137
357.379
357.612
352.329
351.757
351.376
351.117
351.097
351.449
351.781
352.159
352.549
352.725
352.82
352.665
352.211
351.496
350.883
350.335
349.864
349.606
349.811
349.996
344.222
343.774
343.447
343.225
343.211
343.56
343.796
344.148
344.441
344.664
344.737
344.585
344.231
343.6
343.088
342.655
342.265
342.041
342.192
342.362
336.12
335.804
335.523
335.348
335.342
335.65
335.841
336.131
336.359
336.582
336.627
336.497
336.227
335.707
335.286
334.951
334.628
334.452
334.566
334.717
328.079
327.835
327.603
327.468
327.475
327.739
327.892
328.087
328.288
328.48
328.496
328.402
328.199
327.773
327.476
327.204
326.955
326.835
326.912
327.046
320.032
319.873
319.719
319.617
319.601
319.83
319.933
320.056
320.189
320.363
320.37
320.313
320.155
319.841
319.661
319.458
319.291
319.198
319.249
319.358
312.002
311.925
311.833
311.766
311.756
311.895
311.98
312.04
312.129
312.243
312.235
312.207
312.107
311.925
311.824
311.695
311.591
311.54
311.567
311.659
304.025
303.991
303.972
303.944
303.925
303.99
304.011
304.032
304.066
304.098
304.099
304.096
304.06
303.996
303.965
303.917
303.881
303.874
303.879
303.912
361.63
360.979
360.378
360.228
360.195
360.376
360.738
361.127
361.354
361.553
361.45
361.301
360.833
360.089
359.512
359.016
358.581
358.326
358.515
358.957
353.306
352.792
352.267
352.173
352.124
352.314
352.604
352.964
353.151
353.358
353.261
353.148
352.758
352.143
351.634
351.225
350.864
350.646
350.812
351.169
345.039
344.627
344.21
344.128
344.073
344.274
344.49
344.813
344.947
345.146
345.081
344.978
344.696
344.186
343.737
343.398
343.102
342.917
343.075
343.353
336.817
336.489
336.156
336.091
336.041
336.231
336.386
336.676
336.768
336.926
336.903
336.825
336.613
336.212
335.81
335.533
335.308
335.157
335.297
335.489
328.633
328.369
328.128
328.074
328.025
328.192
328.292
328.528
328.603
328.722
328.726
328.662
328.495
328.214
327.867
327.643
327.495
327.391
327.487
327.64
320.453
320.274
320.09
320.036
320.015
320.138
320.221
320.37
320.445
320.527
320.545
320.492
320.374
320.165
319.925
319.741
319.646
319.591
319.665
319.766
312.293
312.19
312.054
312.033
312.025
312.092
312.14
312.252
312.279
312.346
312.363
312.306
312.228
312.105
311.98
311.858
311.796
311.769
311.811
311.885
304.118
304.088
304.038
304.035
304.024
304.047
304.072
304.106
304.127
304.136
304.135
304.121
304.092
304.058
304.027
303.977
303.953
303.955
303.966
303.99
362.812
361.96
361.627
361.221
361.258
361.401
361.65
361.974
362.108
362.107
362.1
361.964
361.504
360.937
360.456
359.913
359.504
359.444
359.581
360.132
354.325
353.626
353.343
352.995
353.056
353.174
353.394
353.709
353.823
353.824
353.821
353.692
353.307
352.838
352.443
351.969
351.603
351.589
351.695
352.177
345.897
345.327
345.067
344.794
344.88
344.981
345.161
345.448
345.537
345.555
345.548
345.429
345.137
344.719
344.392
344.02
343.701
343.686
343.803
344.187
337.486
337.068
336.847
336.604
336.71
336.788
336.946
337.194
337.246
337.29
337.297
337.205
336.958
336.614
336.326
336.033
335.776
335.753
335.874
336.175
329.122
328.822
328.647
328.461
328.513
328.597
328.748
328.912
328.959
329.026
329.022
328.961
328.776
328.49
328.251
328.033
327.84
327.813
327.921
328.164
320.79
320.613
320.465
320.323
320.341
320.426
320.537
320.648
320.68
320.745
320.73
320.701
320.585
320.35
320.183
320.05
319.911
319.876
319.957
320.152
312.47
312.381
312.271
312.201
312.194
312.264
312.329
312.394
312.415
312.457
312.439
312.423
312.393
312.207
312.124
312.046
311.974
311.949
311.983
312.121
304.185
304.15
304.105
304.095
304.077
304.11
304.126
304.153
304.158
304.176
304.17
304.155
304.149
304.082
304.061
304.029
304.015
304.011
304.014
304.063
363.716
362.771
362.337
361.85
361.927
361.974
362.337
362.492
362.63
362.529
362.726
362.413
362.132
361.511
361.091
360.605
360.213
360.17
360.45
360.952
355.085
354.267
353.912
353.491
353.563
353.625
353.955
354.119
354.254
354.147
354.349
354.05
353.838
353.307
352.945
352.543
352.189
352.143
352.399
352.829
346.504
345.847
345.55
345.187
345.248
345.306
345.591
345.764
345.881
345.796
345.98
345.709
345.565
345.103
344.797
344.457
344.154
344.118
344.335
344.73
337.997
337.475
337.217
336.928
336.955
337.039
337.266
337.434
337.538
337.454
337.615
337.382
337.271
336.919
336.653
336.379
336.133
336.101
336.289
336.611
329.513
329.142
328.927
328.709
328.7
328.8
328.948
329.108
329.177
329.15
329.27
329.062
328.993
328.724
328.501
328.277
328.127
328.078
328.225
328.498
321.067
320.807
320.65
320.48
320.5
320.571
320.688
320.799
320.842
320.824
320.917
320.771
320.724
320.536
320.357
320.215
320.099
320.072
320.169
320.372
312.649
312.475
312.388
312.29
312.315
312.34
312.426
312.497
312.503
312.502
312.576
312.461
312.444
312.335
312.208
312.139
312.061
312.065
312.109
312.245
304.242
304.178
304.149
304.117
304.133
304.137
304.167
304.191
304.193
304.187
304.224
304.171
304.172
304.135
304.096
304.075
304.048
304.048
304.072
304.099
)
;

boundaryField
{
    hotSide
    {
        type            fixedGradient;
        gradient        nonuniform List<scalar> 
400
(
497.488
497.164
499.305
503.837
510.502
518.933
528.738
539.564
551.12
563.184
575.596
588.253
601.095
614.105
627.301
640.73
654.459
668.565
683.107
698.115
481.193
481.174
483.79
488.949
496.338
505.519
516.043
527.514
539.619
552.123
564.866
577.746
590.71
603.752
616.903
630.228
643.817
657.768
672.162
687.04
471.957
472.515
475.67
481.32
489.146
498.712
509.566
521.305
533.611
546.245
559.043
571.904
584.781
597.673
610.623
623.704
637.015
650.664
664.739
679.292
469.294
470.687
474.462
480.506
488.543
498.19
509.039
520.716
532.911
545.385
557.973
570.575
583.148
595.698
608.272
620.951
633.833
647.021
660.605
674.638
471.407
473.798
478.297
484.783
493.016
502.675
513.407
524.876
536.79
548.917
561.098
573.237
585.299
597.303
609.304
621.388
633.657
646.209
659.131
672.483
476.236
479.706
485.046
492.122
500.709
510.52
521.238
532.548
544.174
555.893
567.555
579.079
590.449
601.706
612.928
624.216
635.681
647.427
659.543
672.096
482.041
486.617
492.903
500.744
509.91
520.114
531.04
542.37
553.82
565.168
576.273
587.079
597.608
607.943
618.202
628.517
639.021
649.833
661.048
672.739
487.434
493.085
500.371
509.115
519.068
529.917
541.313
552.897
564.347
575.418
585.976
596.005
605.587
614.871
624.039
633.272
642.734
652.56
662.855
673.695
491.269
497.874
506.115
515.799
526.653
538.327
550.41
562.469
574.103
585.02
595.083
604.33
612.93
621.131
629.193
637.355
645.814
654.721
664.186
674.28
492.596
499.906
508.905
519.392
531.079
543.577
556.411
569.053
581.002
591.888
601.57
610.146
617.892
625.162
632.299
639.591
647.262
655.471
664.325
673.891
490.728
498.357
507.742
518.684
530.885
543.932
557.306
570.409
582.658
593.624
603.149
611.381
618.672
625.449
632.106
638.963
646.253
654.141
662.73
672.082
485.369
492.84
502.125
513.025
525.234
538.335
551.796
565.016
577.409
588.539
598.245
606.664
614.14
621.094
627.917
634.93
642.373
650.411
659.155
668.667
476.729
483.575
492.29
502.673
514.416
527.107
540.242
553.267
565.664
577.045
587.25
596.356
604.618
612.378
619.976
627.708
635.807
644.447
653.745
663.775
465.556
471.409
479.222
488.796
499.826
511.912
524.583
537.35
549.768
561.503
572.39
582.437
591.797
600.708
609.437
618.236
627.327
636.883
647.032
657.858
453.087
457.722
464.481
473.176
483.502
495.057
507.387
520.037
532.606
544.788
556.409
567.426
577.91
588.015
597.942
607.902
618.098
628.703
639.851
651.633
441.027
444.353
450.054
457.958
467.743
478.974
491.178
503.898
516.74
529.41
541.721
553.597
565.063
576.215
587.209
598.227
609.46
621.083
633.237
646.013
431.586
433.633
438.36
445.609
455.016
466.087
478.298
491.165
504.291
517.38
530.245
542.791
555.015
566.983
578.821
590.694
602.79
615.292
628.348
642.049
427.383
428.319
432.185
438.834
447.862
458.718
470.835
483.709
496.943
510.247
523.431
536.399
549.128
561.666
574.117
586.634
599.399
612.601
626.393
640.861
430.728
430.861
433.969
439.924
448.329
458.642
470.303
482.824
495.82
509.011
522.212
535.319
548.3
561.183
574.053
587.043
600.318
614.051
628.387
643.398
442.352
442.021
444.467
449.586
457.053
466.413
477.182
488.927
501.295
514.021
526.923
539.893
552.885
565.909
579.026
592.34
605.98
620.083
634.762
650.071
)
;
    }
    coldSide
    {
        type            mixed;
        refValue        uniform 300;
        refGradient     uniform 0;
        valueFraction   uniform 0.991591;
        source          uniform 0;
        value           nonuniform List<scalar> 
400
(
300.026
300.026
300.026
300.026
300.027
300.027
300.028
300.028
300.029
300.029
300.03
300.03
300.031
300.032
300.033
300.033
300.034
300.035
300.035
300.036
300.026
300.026
300.026
300.026
300.026
300.027
300.027
300.028
300.028
300.029
300.03
300.03
300.031
300.032
300.032
300.033
300.034