/*--------------------------------*- C++ -*----------------------------------*\
| =========                 |                                                 |
| \\      /  F ield         | OpenFOAM: The Open Source CFD Toolbox           |
|  \\    /   O peration     | Version:  2212                                  |
|   \\  /    A nd           | Website:  www.openfoam.com                      |
|    \\/     M anipulation  |                                                 |
\*---------------------------------------------------------------------------*/
FoamFile
{
    version     2.0;
    format      ascii;
    arch        "LSB;label=32;scalar=64";
    class       volScalarField;
    location    "0";
    object      relativeErrorField;
}
// * * * * * * * * * * * * * * * * * * * * * * * * * * * * * * * * * * * * * //

dimensions      [0 0 0 1 0 0 0];

internalField   nonuniform List<scalar> 
3200
(
0.0112641
0.00907495
0.0128457
0.021243
0.0225137
0.0132815
0.0189047
0.0130798
0.0180025
0.0234367
0.0218867
0.0218416
0.0195768
0.0271854
0.0166176
0.0251744
0.0180968
0.0257212
0.0149872
0.0215255
0.0174298
0.0157554
0.00988663
0.0122468
0.0145541
0.0214954
0.0126371
0.0203684
0.0240834
0.0247346
0.0207195
0.0225302
0.0219056
0.0132388
0.0106147
0.0122882
0.0210341
0.0120318
0.0148038
0.0169203
0.00715945
0.00272117
0.0116096
0.0164228
0.0123351
0.00888115
0.0172793
0.00933654
0.0188248
0.0172993
0.0188981
0.00950074
0.0211575
0.0155181
0.0211196
0.0141274
0.0169683
0.00903246
0.0102938
0.0130879
0.00380188
0.00514806
0.00960719
0.00943453
0.0119941
0.017224
0.0121537
0.0198653
0.00540303
0.00939891
0.00619341
0.0166815
0.011057
0.0131857
0.0182366
0.00837015
0.00584238
0.0180043
0.0174796
0.00780711
0.00656584
0.00070269
0.0148852
0.00880002
0.000778324
0.00626566
0.0101527
0.00775898
0.00484656
0.0136747
0.00463673
0.00530966
0.00753287
0.00281823
0.00328595
0.00488813
0.00845865
0.0176877
0.00731421
0.00843007
0.005609
0.00888015
0.00243317
0.00432157
0.0089241
0.00657563
0.00975573
0.000986925
0.00474109
0.0015173
0.00607923
0.00121548
0.00910744
0.000530535
0.00413973
0.00291823
0.00940367
0.00945906
0.00813706
0.0150419
0.000681546
0.00471079
0.00656409
0.0019784
0.00895776
0.00355974
0.00902803
0.00459783
0.00428804
0.00708284
0.00669373
0.000233064
0.00317068
0.00190187
0.00337497
0.00464798
0.00090741
0.0108975
0.00849751
0.00623219
0.000960821
0.00227191
0.00018353
0.00974123
0.00120506
0.000647252
0.00151483
8.94749e-06
0.00672262
0.0054586
0.00289035
0.00599417
0.00165317
0.00241424
0.00456282
0.00838124
0.00238295
0.00525791
0.00241479
0.00877003
0.0148068
0.0184794
0.0123982
0.0205654
0.0193137
0.0194416
0.00639175
0.0262713
0.0243289
0.017177
0.0137999
0.0181856
0.0162082
0.0231141
0.0143584
0.0164394
0.0162639
0.0122574
0.0209382
0.0215663
0.00788086
0.00111741
0.010421
0.000566305
0.0108761
0.00208518
0.00707723
0.00140974
0.0167174
1.36479e-05
0.000546702
0.0163538
0.000992164
0.00885269
0.00128554
0.0188611
4.38753e-05
0.0207157
0.00183635
0.0110652
0.00571719
0.0050507
0.0173031
0.0144378
0.0145307
0.0143875
0.015054
0.0102026
0.0105995
0.0130792
0.0137129
0.00464807
0.0097821
0.0148397
0.0137056
0.00802236
0.0118295
0.0111811
0.0149065
0.0107295
0.00669196
0.00515334
0.0138662
0.00751658
0.00303725
0.0155044
0.0175143
0.00962689
0.00607628
0.0129062
0.0125398
0.0113836
0.0163065
0.0102973
0.0132397
0.00414409
0.00843062
0.00647311
0.0135388
0.00390532
0.00549389
0.0098642
0.000142489
0.00535656
0.00297222
0.00698336
0.00404054
0.00630976
0.000983804
0.00211302
0.00629794
0.00337812
0.00365213
0.00944214
0.0117794
0.00195801
0.00547765
0.0109122
0.00145592
0.0049713
0.00237574
0.00301162
0.0047292
0.0040718
0.0016704
0.00656435
0.00866836
0.00511429
0.000532658
0.00321664
0.0089979
0.00810918
0.00768382
0.00631994
0.0028585
0.015211
0.00675181
0.0018299
0.00799004
0.0100002
0.00655721
0.00415665
0.00671172
0.0101447
0.003441
0.000900672
0.00221989
0.0002863
0.00264485
0.00349024
0.00639293
0.00371171
0.00413632
0.00135029
0.00678008
0.00264553
0.000298683
0.00446277
0.0072562
0.00499307
0.00178693
0.000934898
0.00220233
0.000630882
0.000634606
0.00604071
0.000890967
0.000365538
0.00416227
0.00229768
0.00151104
0.00149337
0.00452068
0.0154004
0.00585355
0.00568948
0.00269068
0.00674887
0.0032036
0.0133099
0.00826495
0.00172906
0.012449
0.00742482
0.0182164
0.00902972
0.0115947
0.0160053
0.0149511
0.0242785
0.00945567
0.0163656
0.0143094
0.0145068
0.0117684
0.0178659
0.00491132
0.012008
0.0229085
0.0164694
0.0124392
0.00497958
0.00868658
0.00717869
0.00849193
0.0145512
0.0111144
0.00620953
0.0137121
0.00818654
0.0174016
0.00898767
0.0149964
0.0153774
0.0136388
0.0223903
0.00509407
0.0144468
0.0158645
0.0115488
0.0126616
0.00188965
0.00882888
0.00426904
0.00389125
0.01034
0.0143832
0.0105389
0.0107744
0.0113512
0.0090099
0.00509009
0.0121868
0.0191085
0.0119352
0.0133296
0.0131397
0.00260811
0.00368986
0.0171689
0.00163602
0.00769937
0.00191984
0.00974515
0.00370339
0.00588099
0.0110554
0.00854695
0.00092841
0.00944221
0.000728062
0.00555099
0.0137078
0.0161338
0.0127502
0.00679759
0.0168926
0.00533637
0.00582871
0.0106615
0.00341043
0.00627331
0.010109
0.00568018
0.0020504
0.010904
0.000706192
0.00367944
0.00182789
0.004351
0.0104133
0.0108722
0.00551608
0.0149325
0.00265797
0.00978417
0.00137984
0.0119323
0.00837072
0.00544607
0.00322907
0.00432395
0.00840974
0.0104156
0.00411459
0.000171436
0.00243836
0.00680339
0.00560223
0.00285392
0.00732232
0.00601583
0.00513179
0.013222
0.00471955
0.00402163
0.00116273
0.0041736
0.00564396
0.00604248
0.00346099
0.00104884
0.00598757
0.00087566
0.0104526
0.00120605
0.00659426
0.00113109
0.00800078
0.000974889
0.0024789
0.00376396
0.00966274
0.00421611
0.00353442
0.00381016
0.00280961
0.00441823
0.00996931
0.00166981
0.00685173
0.00466683
0.000662114
0.00305905
0.00155538
0.00474116
0.00612739
0.00249399
0.00361052
0.00932162
0.00389176
0.00255254
0.00657509
0.00469389
0.00160608
0.00330792
0.00693394
0.00423951
0.00318244
0.00404177
0.00899317
0.00731247
0.00383118
0.0146052
0.00917615
0.0143099
0.000968229
0.0120228
0.0125403
0.00364517
0.0157144
0.0133704
0.0196575
0.0130128
0.0117891
0.0146579
0.0121757
0.0146517
0.0146936
0.0095256
0.00318741
0.00331153
0.00517544
0.0024189
0.00479013
0.000524995
0.00816334
0.00143746
0.0121625
0.000971619
0.00351183
0.00654146
0.000859221
0.00967763
0.00115437
0.0149645
0.00198348
0.0118065
0.00181622
0.00832752
0.00132725
0.0152289
0.00841931
0.0098462
0.0133699
0.00356027
0.010057
0.00802747
0.0148658
0.0103667
0.0132179
0.0121798
0.00386617
0.00522019
0.00604473
0.00933716
0.0112118
0.000245236
0.00880927
0.0067451
0.000390506
0.00308928
0.00248151
0.00137408
0.0111799
0.00202151
0.00230871
0.0075331
0.00937018
0.00946099
0.0104775
0.0049275
0.000937294
0.00797826
0.00222307
0.00537216
0.00976532
0.0118276
0.00746578
0.000531749
0.00353943
0.0041064
0.00237109
0.00356806
0.00137764
0.00479914
0.00352083
0.00822577
0.0105655
0.00186947
0.00414239
0.00646923
0.00323115
0.00751786
0.00482904
0.0102035
0.00338357
0.00526562
0.000329549
0.00951023
0.0081753
0.010082
0.00429645
0.00123487
0.00189229
0.00564981
0.00796761
0.00105225
0.00916971
0.00690505
0.0114074
0.00413417
0.00164806
0.00419431
0.00627375
0.00597499
0.00924022
0.00132666
0.00759218
0.00169399
0.00549393
0.00819398
0.00779653
0.00551904
0.00521833
0.00905853
0.00231762
0.00225176
0.000746231
0.00500038
0.00280268
0.00271843
0.00679707
0.00779264
0.00144007
0.00264097
0.0062801
0.00962995
0.000514668
0.00472269
0.00277502
0.00629555
0.00618047
0.00366807
0.00661018
0.0029071
0.00103697
0.00665922
0.00555772
0.00576552
0.00367632
0.00516258
2.79066e-06
0.000548672
0.000452175
0.00777183
0.0028424
0.00668248
0.00278661
0.00579417
0.000488709
0.00198095
0.00129829
0.00491495
0.00267988
0.00678896
0.00135573
0.0177681
0.00740634
0.00550374
0.016723
0.0167464
0.00405079
0.0108013
0.00560449
0.00896136
0.00624278
0.00897256
0.0132552
0.00934173
0.00951138
0.00967671
0.00126886
0.0089142
0.0067791
0.0107173
0.00976399
0.00806002
0.00560217
0.0100068
0.00077254
0.0103006
0.0091717
0.00121876
0.000377666
0.003888
0.00954549
0.0110192
0.0106024
0.0150318
0.013914
0.000902792
0.00599197
0.00211204
0.0100167
0.0018099
0.00400623
0.00694685
0.00066831
0.00107326
0.00613616
0.0133667
0.00558394
0.0113516
0.00944662
0.00399807
0.00594217
0.00376702
0.0151757
0.0111626
0.00250966
0.00113424
0.00415418
0.00598337
0.0025613
0.000484938
0.00886334
0.00305738
0.00391813
0.00609533
0.00952299
0.00697682
0.00299962
0.0072423
0.00267228
0.00470851
0.00988807
0.0112367
0.00509354
0.0126327
0.00356655
0.00170891
0.00168201
0.000831272
0.00220737
0.00174231
0.0102681
0.000252707
0.0120447
0.00856061
0.00269373
0.0039648
0.00562092
0.0108993
0.00650517
0.00172904
0.00104769
0.00962128
0.00863718
0.00299566
0.00679631
0.00645693
0.000452402
0.00386016
0.00266556
0.00300914
0.00789241
0.00409655
0.00784869
0.00196228
0.00220655
0.00348904
0.00104463
0.00115756
0.00553215
0.0110835
0.00223903
0.00501216
0.00176035
0.000465643
0.00778945
0.00242428
0.00220208
0.00385884
0.00219644
0.0146666
0.00217895
0.000591725
0.00410973
0.00190874
0.000379719
0.0045077
0.00513289
0.00299769
0.0104492
0.00103663
0.00171999
0.00605186
0.00177049
0.00405993
0.00458286
0.00205575
0.00191985
0.00315456
0.00444798
0.0107587
0.00141493
0.00053143
0.000854735
0.00441951
0.000687522
0.00423619
0.00150807
0.00879056
0.00271971
0.00277916
0.00402423
0.00340557
0.00212485
0.000802612
0.00133075
0.00761846
0.000209604
0.00107002
0.00661291
0.00648067
0.0017433
0.000630374
0.0112758
0.0159924
0.0064197
0.0102604
0.00319426
0.00673488
0.00718354
0.00358558
0.0132422
0.0111249
0.00502584
0.00749801
0.00297583
0.00339615
0.00213959
0.00364867
0.00285693
0.0008348
0.0107832
0.00208447
0.0110531
0.000298582
0.000190736
0.00261851
0.00124341
0.00108404
0.00210772
0.0160756
0.000455393
0.00592437
0.00262422
0.0129406
0.000600661
0.00340826
0.000998537
0.00136709
0.000312564
0.000520459
0.00742016
0.00467142
0.00388088
0.00412052
0.00605908
0.00851856
0.00321567
0.0041571
0.00642498
0.00512973
0.00547298
0.006565
0.00733899
0.0133116
0.00504465
0.00344161
0.00128887
0.00582201
0.0023213
0.0125318
0.00545668
0.00138664
0.00104851
0.00647908
0.00424342
0.00262854
0.00926642
0.0154215
0.000308477
0.000185481
0.00962487
0.00533683
0.0118286
0.00825322
0.00886345
0.00330336
0.00163498
0.000813858
0.00235768
0.00269796
0.00166346
0.000537328
0.00364804
0.000114645
0.00834924
0.00910481
0.00189172
0.00632007
0.00827475
0.00895236
0.00622601
0.0101156
0.00433116
0.0034014
0.00317885
0.00242363
0.000145891
0.00522268
0.00646833
0.00129153
0.00335076
0.00252949
0.00492789
0.00631018
0.00119799
0.000108171
0.00551013
0.000627856
0.00646506
0.0115081
0.00444443
0.00148725
0.0058737
0.00888535
0.00508495
0.000396184
0.00160163
0.00256349
0.00888411
0.00257902
0.000923114
0.00107602
0.00435236
0.00609874
0.00183657
0.00447967
0.00269972
0.00278354
0.00179614
0.00345224
0.00558877
0.0079201
0.0122408
0.0100807
0.00116193
0.0104419
0.00657158
0.00350858
0.00296173
0.00713379
0.00242778
0.00754466
0.001788
0.000137964
0.00607321
0.0048321
0.00911413
0.00511424
0.00481179
0.000932016
0.00526193
0.0059639
0.00763017
0.0103214
0.00219175
0.00161102
0.00457679
0.00235466
0.00312375
0.00133622
0.00632303
0.00339511
0.0058095
0.00838596
0.000893697
0.00641501
0.000941877
0.00572137
0.00573762
0.00378157
0.00158069
0.0155431
0.00463126
0.00422299
0.00319025
0.00103993
0.00261121
0.00474596
0.00106531
0.00427133
0.00540161
0.0115864
0.000131546
0.0048334
0.00671075
0.00320074
0.00133429
5.93141e-05
0.00430686
0.00475408
0.0021016
0.00248988
0.00303279
0.0117045
0.00443832
0.000432037
0.000775707
0.00204935
0.00245622
0.000169857
0.00647265
0.000581798
0.00954367
0.000438405
0.00418009
0.00207271
0.00482646
0.00636641
0.00400339
0.00390189
0.0040955
0.000376029
0.000335971
0.00214787
0.00344635
0.00459823
0.00230884
0.00403227
0.00366094
0.00516125
0.00257621
0.00397334
0.00825349
0.010102
0.00567833
0.00667893
0.000636455
0.00484378
0.00344429
0.00215878
0.00330611
0.00403036
0.000231302
0.00307255
0.00135136
0.00117647
0.00516619
0.000203966
0.00577193
0.000352508
0.0102886
0.00171325
0.00701804
0.00104839
0.00597926
0.00156172
0.00546676
0.00564853
0.00589585
0.00233529
0.000160273
0.003383
0.000845687
0.00509069
0.01407
0.0098896
0.00779419
0.0162556
0.00218446
0.00456288
0.0030976
0.00548029
0.00278077
0.00299877
0.000204924
0.0156466
0.0045515
0.00368435
0.000901608
0.00222592
0.00128114
0.0135671
0.00126383
0.00359461
0.00482926
0.00142794
0.00344
0.00555162
0.000294219
0.00340621
0.00238814
0.000378405
0.00520161
0.00334222
0.00471278
0.00568439
0.00395382
0.00703916
0.00468353
0.00694622
0.00707876
0.00324815
0.00291244
0.0050157
0.00166015
0.00171442
0.00311867
0.00977617
0.000391788
0.000208173
0.00283215
0.00896048
0.000610818
0.00193385
0.00596781
0.00271031
0.0050834
0.00111094
0.000248344
0.00202446
0.00277657
0.000224452
0.00480836
0.00403346
0.00381565
0.0063014
0.00736048
0.00247724
0.00368337
0.00934831
0.0061539
0.00262927
0.00305805
0.00249427
0.00419472
0.00118609
0.00373108
0.00284296
0.00164047
0.009477
0.00728032
0.00126398
0.00652117
0.00262451
0.000905801
0.00501998
0.00601705
0.000319512
0.00807055
0.00122145
0.0102281
0.00209805
0.00141932
0.00140109
0.00120117
0.00289484
0.000573675
0.00755474
0.000769787
0.00138904
0.000119083
0.00218666
0.000268754
0.00508564
0.00282409
0.00474792
0.000976953
0.00542113
0.0108576
0.00196551
0.00218508
0.00528879
0.00597948
0.00460212
0.00511549
0.00472925
0.00464744
0.00443626
0.00128522
0.00598835
0.00355508
0.00104043
0.00561393
0.00156271
0.00500419
0.00667493
0.00259962
0.000435439
0.00841269
0.00676904
0.000823379
0.00228021
0.00564852
0.00437161
0.0046287
0.00674678
0.00453286
0.00558007
0.00482535
0.00648216
0.00193942
0.00708011
0.00566515
0.00311693
0.00228608
0.0039496
0.000855651
0.00323929
0.00907223
0.0043034
0.00120407
0.00358924
0.00465616
0.00854155
0.00280341
0.00606318
0.00153587
0.000225187
0.00335514
0.00429077
0.00162546
0.0166844
0.00463165
0.00343587
0.00208548
0.0041224
0.00102231
0.00245775
9.95862e-05
0.00360883
0.00563162
0.00216787
0.0055267
0.00241203
0.00651048
0.000898066
0.000165185
0.000451731
0.00473102
0.00610378
0.00560219
0.00768432
0.000344611
0.00484826
0.00259304
0.0038821
0.000844827
0.00269266
0.00768505
0.00338862
0.00575141
0.00137886
0.00374362
0.00237416
0.00143907
0.00333711
0.00455805
0.00434307
0.00400036
0.00154315
0.000641243
0.000909897
0.00102435
0.00744896
0.00115367
6.20873e-05
0.00865942
0.0106
0.00641552
0.00212025
0.0106274
0.0106136
0.00717078
0.00592814
0.00171968
0.00107103
0.00463872
0.00283906
0.00581266
0.00436342
0.00367844
0.0011834
0.00967139
0.00911328
0.00504015
0.000877361
0.00062921
0.0058407
0.00108296
0.00313223
0.00735982
0.000845012
0.00825588
0.00132184
0.00030521
0.00876062
0.00931624
0.00335061
0.0078222
0.00185232
0.00442878
0.0048825
0.00286895
0.00669083
0.00463918
0.00375144
0.0080892
0.00779305
0.00128076
0.00693084
0.00446503
0.00851164
0.00249524
0.0013488
0.00334428
0.00364506
0.00754801
0.00582772
0.000244396
0.000574968
0.000690587
0.00517635
0.0112992
0.000842348
0.00890097
0.00291652
0.00810812
0.00631077
0.00212724
0.00798695
0.000852015
0.00230277
0.00800542
0.00980849
0.000400447
0.00649219
0.000980116
0.0018563
0.00301739
0.00224258
0.00323561
0.00182531
0.0104426
0.00183001
0.000602491
0.00328124
0.00909713
0.00105472
0.00416892
0.00213338
0.00466733
0.000950079
0.00516327
0.00012471
0.00180974
0.00268495
0.00555962
0.0057551
0.00367792
0.00693375
0.00405431
0.00341936
0.00239363
6.88103e-05
0.00224133
0.001114
0.00308077
0.00450794
0.00192363
0.000112666
0.00161083
0.00527123
0.00172088
0.00404799
0.0032408
0.00277644
0.0108816
0.00554565
0.00422715
0.000174192
0.00081046
0.00387135
0.00419085
0.000327841
0.00724434
0.00904924
0.00420376
0.00904235
0.00190265
0.00607307
0.00437944
0.00549928
0.00277127
0.00106263
0.0017232
0.00179006
0.00196945
0.00303468
0.00108122
0.00129326
0.00606027
0.00357311
0.00224894
0.00619546
0.0147492
0.00668024
0.0077246
0.00231035
0.00922907
0.00408272
0.00173082
0.000412138
0.00421981
0.00538378
0.000485984
0.000349978
0.00347485
0.00684366
0.00427789
0.0133812
0.000980976
0.000129847
0.00107072
0.0023241
0.00346186
0.00951028
0.00505905
0.00394093
0.00283576
0.000551962
0.0014598
0.000716937
0.00418272
0.00350422
0.00169719
0.00198627
0.0014322
0.00419122
0.00331151
0.000970059
0.00393039
0.00552242
0.00758996
0.00886394
0.000682124
0.00824647
0.00299089
0.00530232
0.00468186
0.0030103
0.00335523
0.00164787
0.00646346
0.00393079
0.00822433
0.00420064
0.00953524
0.00309634
0.00127507
0.000824573
0.00628818
0.00648994
0.000166452
0.00778273
0.0086786
0.0095612
0.00236056
0.00250054
0.00661215
0.000758334
0.00577188
0.000833285
0.00184035
0.0014117
0.000884603
0.0072143
0.00112434
0.000812478
0.000394883
0.00844267
0.00138769
0.000738407
0.000424706
0.00283235
0.00399814
0.00750293
0.00644489
0.00332824
0.00994617
0.00411806
0.0020928
0.00376731
0.00358785
0.00542304
0.000490914
0.00571108
0.00412109
0.00812992
0.00652245
0.00351951
0.00156464
0.00417362
0.00221453
0.00079986
0.000288848
0.0119492
0.00463694
0.00578275
0.00503882
0.00670724
0.00245454
0.0115051
0.000605449
0.000542126
0.00438007
0.00352971
0.0170993
0.00698948
0.00865862
0.00562497
0.00356981
0.00155958
0.00239427
8.80994e-05
0.000909769
0.00211676
0.00368855
0.00475536
0.0042523
0.00882997
0.00306972
0.00595109
0.00407166
0.0036494
0.000812471
0.00388318
0.0090299
0.00162072
0.000765396
0.00385431
0.00375524
0.00482855
6.9642e-05
0.00594563
0.00521722
0.00811653
0.000468734
0.000757165
0.00421445
0.00591295
0.000501712
0.00434165
0.00256966
0.00391884
0.00233867
0.00251411
0.00854026
0.005045
0.0107634
0.000634342
0.00164321
0.00302206
0.00524543
0.00306949
0.00616652
0.00142322
0.00223874
0.000837071
0.00143134
0.000190232
0.009733
0.00516795
0.00111724
0.00823762
0.00537594
0.0051236
0.00275861
0.0033195
0.00230295
0.0131969
0.000153502
0.000175499
0.00218901
0.00142008
0.00102495
0.000819828
0.00175365
0.00175948
0.00149194
0.00507387
0.00387952
0.00513272
0.0114133
0.00130444
0.0137347
0.000480791
0.00247062
0.00409354
0.00999257
0.00583113
0.00754907
0.00202684
0.00813676
0.000644572
0.00378961
0.000473856
0.00265319
0.00496577
0.000647479
0.0127373
0.0074379
0.00495151
0.00653138
0.00512975
0.011302
0.00354222
0.00538694
0.00473134
0.00953685
0.00196872
0.000446567
0.00233094
0.006218
0.00183816
0.00908978
0.00660494
0.000327361
0.0037964
0.00683227
0.00170113
0.00330605
0.000685349
0.00915308
1.80943e-06
0.00131429
0.00298761
0.00038927
0.017295
0.000873703
0.00644917
0.00152758
0.00575337
0.000375845
0.000791009
0.00468757
0.0120401
0.00597146
0.00127924
0.00345497
0.00744498
0.00602218
0.0101304
0.00537618
0.0102491
0.00616885
0.0075919
0.00588741
0.00626038
0.00663385
0.00176406
0.00211093
8.82161e-05
0.00244614
0.00788535
0.00327887
0.00405571
0.0014579
0.00361982
0.00224968
0.00437159
0.00433621
0.00990179
0.00513371
0.00218493
0.00309987
0.00220618
0.00343303
0.00167775
0.00303442
0.0056514
0.0022139
0.00242795
0.0144252
0.0062094
0.0103424
0.00277624
0.00585641
0.000714062
0.000251148
0.00528818
0.00470454
0.00271686
0.00290149
0.0163745
0.00777442
0.000809634
0.000528467
0.00545249
0.00396027
0.010536
0.00747062
0.00548713
0.00115731
0.00860865
0.0096792
0.00212443
0.00480295
0.00645866
0.00107717
0.00773917
0.00217695
0.00234292
0.00635743
0.0107421
0.00468483
0.000949696
0.00668914
0.00263944
0.00326206
0.0059909
0.00477597
0.00209262
0.00744965
0.00653063
0.00441114
0.00716709
0.00151692
0.00193203
0.00471956
7.91689e-05
0.00387567
9.28682e-05
0.00917538
0.00702096
0.00443356
0.00420029
0.00828896
0.00419646
0.00500564
0.00809125
0.00114303
0.00108814
0.000630432
0.00163209
0.000231535
0.000464785
0.0112577
0.00474305
0.00208227
0.00035362
0.00356339
0.0105861
0.00438889
0.00599454
0.00748023
0.00131765
0.00259633
0.000195109
0.0178106
0.00863153
0.00300859
0.00300891
0.00684413
0.00430669
0.00776067
0.00753405
0.0121614
0.0124326
0.00838482
0.00806709
0.00145949
0.00175611
0.00879296
0.00931526
0.00454368
0.00319984
0.00800984
0.0035337
0.00540459
0.000831056
0.0018796
0.00694913
0.00416939
0.00173007
0.00963672
0.0105027
0.00472716
0.00113798
0.00782206
0.00965057
0.00347284
0.00274692
0.00477963
0.00613253
0.0106621
0.00379562
0.00721251
0.000686144
0.00352612
0.0071748
0.000214316
0.0102759
0.00146592
0.00538749
0.0059212
0.00819684
0.0097442
0.00881089
0.00210121
0.00958496
0.0109545
0.00217698
0.00587208
0.000195811
0.000319587
0.00108981
0.00629815
0.00193797
0.00547605
0.0029138
0.00114612
0.00824211
0.00200125
0.00471826
0.00198238
0.00496218
0.00477291
0.01159
0.0106678
0.00834781
0.0131355
0.000513289
0.00240704
0.00596597
0.00294801
0.0035738
0.002199
0.0106495
0.00246585
0.00278806
0.00296009
0.00569778
0.00271604
0.000354318
0.00243736
0.00698413
0.0104047
0.00353847
0.00962159
0.00737976
0.0068118
0.00340651
0.0032443
0.00229466
0.0091717
0.00093587
0.00494533
0.00251765
0.000121512
0.00670295
0.0007816
0.00401968
0.00301663
0.00319294
0.0011957
0.0099601
0.000759148
0.00652563
0.00321268
0.00908716
0.0138242
0.00175442
0.00540479
0.00647072
0.00215378
0.00374974
0.008088
0.00710785
0.000695969
0.00692977
0.000551713
0.00561723
0.00159236
0.000458661
0.00571017
0.00197722
0.00156945
0.00183145
0.00640134
0.00358833
0.00470326
0.00868655
0.00424918
0.00136451
0.00387558
0.00213328
0.0021836
0.000376173
0.00484157
0.00399936
0.00182874
0.00630421
0.00838834
0.00104499
0.00641871
0.000948267
0.00176307
0.0108004
0.00363483
0.00226255
0.00138847
0.00199436
0.0011855
0.0101714
0.000447313
0.00666874
0.00299794
0.00671244
0.00220492
0.0107288
0.00757925
0.00098209
0.00234652
0.0117003
0.00797543
0.0149042
0.00533486
0.00336801
0.0188325
0.00525432
0.00122018
0.00529649
0.00962755
0.00964049
0.0071092
0.0111014
0.00619085
0.00733569
0.00297832
0.0088612
0.0026101
0.00304763
0.00912883
0.00492416
0.00108407
0.0012709
0.0105533
0.00175722
0.0016575
0.00159111
0.00767706
0.000614252
0.00732037
0.000183554
2.41393e-05
0.00797423
0.000606076
0.0065391
2.69996e-05
0.0115267
5.63278e-05
0.00522718
0.000813769
0.000156519
0.00499991
0.00723521
0.00873385
0.0112088
0.00377221
0.00455779
0.00819615
0.0120311
0.000931861
0.00667049
0.00412432
0.0079688
0.00710594
0.00790565
0.00314509
0.00800094
0.0016958
0.00108395
0.00227602
0.00277823
0.00333344
0.00896361
0.00708466
0.001303
0.00191629
0.0141373
0.00712482
0.00262176
0.00326061
0.00497816
0.00186814
0.000972619
0.00673074
0.00149357
0.0100641
0.00508031
0.00544192
0.000853436
0.0102498
0.00142041
0.000143427
0.0087823
0.00579767
0.00491077
0.00226015
0.00641129
0.00775996
0.0029949
0.00224344
0.0015804
0.00267583
0.00052582
0.00663118
0.0055349
0.00180828
0.00254048
0.00227014
0.00565464
0.00335257
0.00302839
0.00100584
0.00371004
0.00728707
0.00975314
0.00732043
0.00551244
0.00447702
0.0109317
0.0030582
0.00122853
0.0102491
0.00647734
0.0010233
0.0012687
0.00153542
0.0106865
0.0126691
0.00175864
0.00585577
0.00254748
0.00323672
0.00115058
0.0056864
0.0027569
0.0116065
0.00414818
0.0053635
0.00453109
0.00231721
0.0102606
0.00989355
0.00444067
0.000233716
0.00234077
0.00521879
0.00304983
0.00343971
0.00263272
0.00628305
0.00185891
0.00175392
0.00270184
0.00728451
0.00396281
0.00347409
0.00208032
0.0028448
0.00527936
0.0026747
0.00377377
0.0058384
0.00472029
0.00205426
0.0016106
0.00189587
0.00390633
0.00283383
0.00209014
0.00813208
0.010049
0.0089286
0.00657105
0.0116933
0.00280866
0.00960791
0.00917419
0.0102136
0.010285
0.0179806
0.0066712
0.00594743
0.00673957
0.00717351
0.00742281
5.28137e-05
0.00486814
0.00626862
0.0108451
0.00945674
0.0118854
0.00374774
0.000148959
0.0198379
0.0109582
0.00760175
0.0149147
0.00542133
0.00472779
0.00297906
0.0089964
0.00702409
0.00716725
0.00773018
0.00528609
0.003332
0.00595267
0.00114498
0.000733599
0.00454958
0.00357172
0.00137766
0.00120385
0.0124568
0.00909795
0.0054584
0.0196497
0.00118111
0.00255936
0.00200096
0.00998163
0.0106403
0.00163621
0.000326312
0.000620737
0.00402616
0.00583174
0.00681251
0.00613207
0.00306915
0.00162971
0.01461
0.00577178
0.00967044
0.0069649
0.00794683
0.012218
0.0162846
0.00785941
0.000267539
0.000284836
0.00494254
0.00492771
0.00390097
0.00315533
0.0100715
0.0061835
0.00907351
0.00225151
0.00420859
0.00170936
0.00179202
0.00548714
0.00903971
0.00354638
0.000998053
0.0160896
0.0108147
0.00155636
0.00051257
0.00822684
0.00358558
0.0054741
0.00429952
0.000296342
0.0130452
0.00142378
0.00595808
0.00524149
0.00108122
0.00143821
0.00143873
0.00618241
0.01245
0.00656378
0.00319628
0.000568794
0.000949271
0.00105928
0.00119839
0.00692936
0.00498729
0.0094063
0.00695387
0.000227851
0.00583489
0.00121479
0.0095461
0.00390313
0.00454002
0.00209567
0.00369056
0.00125876
0.00651835
0.00090327
0.00545386
0.00549943
0.00348073
0.00244392
0.00177883
0.00753473
0.000898996
0.000144939
0.00984624
0.00229328
0.000603153
0.00388172
0.00290811
0.00395409
0.0117483
1.21382e-05
0.00737971
0.0079369
0.00639699
0.00315837
0.00211167
0.000650644
0.00906227
0.000822415
0.00323096
0.00139311
0.0111754
0.000115035
0.00612734
0.0112993
0.00114584
0.00568303
0.00163558
0.000234241
0.00927663
0.00135636
0.0073776
0.00845514
0.00907897
0.012469
0.0129003
0.00301981
0.00427224
0.0116851
0.00862891
0.00421505
0.0022379
0.00219523
0.00800975
0.00867551
0.00649098
0.00867055
0.0115819
0.00105898
0.00440201
0.00113737
0.0113577
0.000209669
0.00766636
0.00326087
0.00713155
0.000801422
0.00423875
0.000194692
0.00743077
0.000123375
0.00102651
0.00177192
0.00206238
0.00415314
0.000788372
0.00569744
0.000683558
0.00023082
0.000170282
0.0052757
0.000597305
0.00243061
0.00510392
0.0104707
0.00793211
0.0105739
0.0112904
0.00807472
0.00972869
0.00162966
0.0081407
0.000829791
0.00420077
3.08577e-05
0.00907973
0.00428755
0.00642646
0.00817715
0.00134966
0.00942982
0.00924849
0.0166583
0.00267512
0.0120155
0.00652455
0.0100613
0.0158388
0.00881191
0.0115933
0.00282543
0.00388596
0.00428345
0.0108685
0.00320262
0.00647949
0.00632578
0.00148428
0.00955913
0.00366998
0.00870519
0.00795466
0.00303089
0.000953855
0.00873455
0.00513217
0.0030062
0.0010782
0.00406211
0.000641653
0.00319494
0.00046563
0.00492346
0.00262764
0.00485866
0.0039105
0.00190558
0.00751631
0.000566152
0.00211018
0.00121771
0.0085118
0.00149755
0.00384682
0.00690611
0.00815074
0.00195739
0.00648671
0.0015601
0.00301593
0.00878794
0.00221736
0.00234835
0.00737496
0.00547955
0.0105761
0.00354884
0.00136572
0.00190963
0.0118051
0.00681972
0.00402369
0.00153065
0.00120471
0.000459238
0.00187225
0.00479451
0.00101363
0.00233452
0.00020298
0.0185885
0.00254881
6.67674e-05
0.00674741
0.00353728
0.00206227
0.00340562
0.0038833
0.00782016
0.00407839
0.00211678
0.0054569
0.00658124
0.00222104
0.00364838
0.000395642
0.000213691
0.00226411
0.00436114
0.00709338
0.0022256
0.00555406
0.00658641
0.00472456
0.00387309
0.00578963
0.00592036
0.00221436
0.0031817
0.00413644
0.00439665
0.00103693
0.0076003
0.00919486
0.00446368
0.006654
0.0140503
0.00920242
0.00573193
0.00725212
0.00501878
0.00981127
0.00714956
0.00149549
0.0168395
0.00768387
0.0106567
0.00884506
0.00440925
0.000892126
0.00283388
0.00290672
0.0084714
0.00347285
0.0103961
0.00267888
0.00417365
0.00590717
0.00100635
0.00350146
0.00020456
0.000208755
0.00818221
0.00402991
0.00323805
0.00503331
0.00228893
0.0101343
0.00396027
0.00463148
0.000825108
0.00543441
0.000613894
0.00433245
0.00730737
0.00197305
0.00210906
0.0129634
0.0112671
0.00154915
0.0087368
0.0101922
0.00749276
0.00553779
0.00591066
0.00512887
0.00979495
0.00481381
0.00107413
0.00584935
0.00367963
0.00777417
0.00608359
0.00677486
0.00356355
0.00196088
0.00393291
0.00318057
0.00853362
0.00379374
0.00139006
0.00576631
0.00425942
0.010377
0.00146131
0.000544791
0.00612857
0.00334461
0.00228797
0.00693788
0.00424542
0.00811945
0.00174942
0.00289751
0.00563893
0.00965588
0.00157962
0.00153515
0.000826042
0.00319053
0.00302965
0.01585
0.00408641
0.00602691
0.00305052
0.00397389
0.00677989
0.000973336
0.00785456
0.00250933
0.0048717
0.000394873
0.00548763
0.00433439
0.00102971
0.00142288
0.00130307
0.00278843
0.00100845
0.00174184
0.00318997
0.00670337
0.00830651
0.0037589
0.000695358
0.00658505
0.00449531
0.00144034
0.000206033
0.00010494
0.00760327
0.00576621
0.00336923
0.00595759
0.00873528
0.00134496
0.00500207
0.00885413
0.00447788
0.00926569
0.00304765
0.000855954
0.00271303
0.00411882
0.00114712
0.00259327
0.00390513
0.00303064
0.00442848
0.00102095
0.00500317
0.0035142
0.000748111
0.00140258
0.0115513
0.000948819
0.000645597
0.000823051
0.00446686
0.00517635
0.00067719
0.000277323
0.00211313
0.00473668
0.00697053
0.0057651
0.00203457
0.00471485
0.00916138
0.00262655
0.00146326
0.00945741
0.00675007
0.0061042
0.00329163
0.00533071
0.00665196
0.00275525
0.00939214
0.00837384
0.0140199
0.0139227
0.00261438
0.00772225
0.0122905
0.00545261
0.00586254
3.76012e-05
0.00154786
0.0100033
0.00362167
0.0042684
0.00793194
0.0031633
0.00152133
0.0181639
0.00202715
0.006637
0.000158087
0.00613637
0.0022348
0.00235146
0.000943744
0.00261495
6.94076e-05
0.00015159
0.00452518
0.00071671
0.00447004
0.000930893
0.00426315
0.00425206
0.000363636
0.010564
0.00237917
0.00374689
0.00985635
0.010889
0.000714866
0.00548054
0.00596135
0.000258001
0.00420229
0.00584522
0.00192059
0.00136239
0.00179047
0.00423501
0.00172261
0.000178888
0.0062296
0.000324575
0.0102026
0.0100644
0.0100248
0.000989747
0.00809139
0.00671797
0.011733
0.000421461
0.00119309
0.00315049
0.00187124
0.00221197
0.00147332
0.00390428
0.00230898
0.00379028
0.0020414
0.0027423
0.007399
0.00143007
0.00596574
0.00462945
0.00390793
0.00774564
0.00426713
0.00295671
0.0203079
0.00677475
0.000344291
0.00121968
0.00864974
0.00537373
0.00228918
0.00603524
0.00634459
0.00559014
0.00172295
1.6646e-05
0.00349079
0.00153638
0.00166087
0.00734612
0.00386252
0.00385847
0.00792579
0.000716786
0.0120965
0.00413841
0.00348778
0.00639777
0.00231012
0.00374914
0.00599204
0.00154019
0.00627557
0.00316544