/*--------------------------------*- C++ -*----------------------------------*\
| =========                 |                                                 |
| \\      /  F ield         | OpenFOAM: The Open Source CFD Toolbox           |
|  \\    /   O peration     | Version:  2212                                  |
|   \\  /    A nd           | Website:  www.openfoam.com                      |
|    \\/     M anipulation  |                                                 |
\*---------------------------------------------------------------------------*/
FoamFile
{
    version     2.0;
    format      ascii;
    arch        "LSB;label=32;scalar=64";
    class       volScalarField;
    location    "./ITHACAoutput/true/12.1";
    object      error;
}
// * * * * * * * * * * * * * * * * * * * * * * * * * * * * * * * * * * * * * //

dimensions      [0 0 0 1 0 0 0];

internalField   nonuniform List<scalar> 
3200
(
5.67989
2.50912
5.78658
5.76857
5.98182
4.07237
6.93503
7.40407
9.04258
9.18932
9.22845
10.1819
8.45725
9.14317
5.65261
4.52917
6.41848
5.42474
6.62051
4.5837
5.32606
6.31593
5.85659
6.0268
5.4175
4.27735
4.60809
6.8467
8.57605
6.61207
7.93171
7.15115
6.04879
5.38029
7.24584
6.01055
3.59791
6.28113
3.40822
3.70971
3.81825
1.3791
3.62059
3.70698
2.46013
3.28374
4.73557
5.43623
5.81206
5.99469
2.49941
6.66022
5.69892
7.04825
6.85972
4.81592
2.33934
2.94159
6.2378
6.09538
1.00474
1.57974
4.11044
1.75586
5.15067
3.97008
4.0288
3.93215
5.46038
5.85745
5.44088
4.96758
3.04954
4.69611
2.9457
4.48245
3.72831
5.56199
4.42237
1.35544
2.22428
1.57753
2.6038
-0.0485911
1.01152
3.14085
3.07425
5.9123
4.11082
3.52035
2.95412
2.26246
1.22402
2.30627
4.85779
3.43544
3.46722
3.88965
2.17075
3.4362
0.615473
0.590503
0.987609
2.71031
2.00628
3.49946
2.90029
3.1343
3.04923
3.25864
1.83912
1.92217
3.21021
3.32312
2.87103
4.25076
4.6913
0.253956
-0.593972
1.11333
0.343661
1.64392
4.53173
3.53287
4.72983
3.2253
-0.584443
2.51249
2.84888
0.1955
2.77452
1.96409
0.858061
3.81099
4.00241
4.96724
1.38442
1.37487
1.24465
0.74579
-0.523846
1.13329
-0.0913478
-0.359744
0.838471
2.40418
1.80227
0.0411906
-1.32843
0.739273
-1.67622
0.0447678
-0.66052
1.65953
0.38908
2.13327
2.83359
0.425114
-2.03622
-1.40941
3.29817
2.22159
7.85561
4.44487
4.79152
6.73048
4.10245
7.26694
6.92268
6.57303
6.86508
8.38684
8.51128
5.70068
3.53073
4.95861
4.49158
8.12236
5.67934
4.83989
1.60467
1.95917
2.81006
1.95535
0.956967
0.104127
6.85989
0.584253
6.54946
0.55898
0.461829
6.84017
0.499157
6.7152
0.525352
4.24622
0.0899079
3.7247
0.729581
5.19387
3.47715
3.09649
4.77443
3.45102
1.0556
4.69978
6.29346
2.22371
4.70076
5.38934
5.292
6.11698
6.44082
5.1377
4.31557
3.83961
4.53027
3.16628
1.44465
0.200983
2.75078
2.33858
1.6512
4.38036
3.89631
3.96906
4.98508
5.20247
4.61845
4.72662
4.89438
5.17631
7.30013
3.76748
1.03893
2.03504
2.44017
2.86848
3.12518
5.68287
2.45855
3.56836
2.84085
2.17911
5.51522
1.82082
4.90911
1.82674
4.70663
4.43333
3.30738
4.52222
3.2101
1.63233
3.22118
4.34067
2.93062
1.79335
2.44794
-1.06696
1.88256
0.306181
2.49201
1.53124
0.295296
2.44067
1.59932
-0.357813
2.24687
3.58818
3.85431
1.35153
2.83677
2.95722
2.18088
4.73418
4.44192
2.72186
-2.25007
0.960904
0.817539
-0.534115
-0.179533
1.47266
0.940079
3.12852
3.57836
1.29666
2.44266
0.466654
-1.63693
-0.543023
2.06844
3.31614
-0.350293
3.81253
0.211595
1.17459
4.73002
1.0744
-0.505295
-0.169066
0.618721
1.22216
0.427296
1.81601
0.66059
-0.52321
3.80366
-0.836699
1.00411
-0.424004
-0.189445
-1.11842
0.444695
3.09813
-1.48532
-2.34401
1.49662
0.867066
2.92467
6.26075
6.51097
4.07921
1.8997
5.84868
4.40553
4.39402
6.73189
8.32399
9.67652
4.00094
7.15282
6.75614
4.91602
5.54702
6.21962
4.16218
3.8884
5.2343
4.65686
6.72545
3.73601
2.63274
3.70038
2.07251
5.42657
3.68126
3.09441
7.23242
7.07485
4.85264
5.89748
3.06317
4.85174
4.0646
1.41044
2.84132
0.378684
4.73136
1.16243
1.49561
4.12887
0.97536
3.13055
2.4533
5.95727
3.71093
4.43051
4.65432
5.49046
5.31783
5.04498
6.56986
4.51351
0.164341
3.66861
1.45696
-1.07319
1.3487
4.44321
4.96715
1.61757
2.87559
1.94626
2.70118
3.15657
4.3085
2.84868
3.13276
2.62033
4.25533
3.6036
2.79608
2.09993
3.29701
2.25477
3.90374
3.5843
1.69403
2.7388
2.42835
1.51173
0.453564
3.30875
3.29937
4.09832
2.61404
4.59484
5.65732
4.32808
2.37999
0.35666
3.68772
2.33504
5.11758
2.41632
2.84414
1.79639
0.683123
-0.21058
0.262617
2.36678
3.99105
-1.46656
0.171355
3.09139
3.28005
1.0987
1.3541
0.38863
0.530865
-0.475347
3.2832
2.36787
1.58372
1.77841
3.14926
-1.05185
1.82208
1.84331
2.60873
1.28609
-0.323197
-1.66866
3.01745
2.81373
3.24202
-2.13893
2.77153
1.52581
2.56531
1.46115
1.20552
1.52605
-1.7868
-0.434869
-0.769765
-0.248502
0.661213
1.03422
1.32811
-2.87143
-1.56902
0.986418
-1.00922
0.962482
1.4537
1.52311
0.678298
0.848484
1.8126
-0.10154
0.66499
3.47608
1.61315
-1.36472
2.02726
0.463193
2.15468
1.75114
5.97649
3.65423
2.1627
5.4379
4.62179
4.16582
2.63836
2.93956
4.96362
5.25931
3.55121
5.11454
4.9756
4.84953
3.47228
4.72788
3.91933
2.89577
2.76964
2.79269
-0.627988
0.930869
0.927121
3.98624
0.0817793
4.00583
-0.560197
4.48693
0.761881
0.152586
5.31076
0.188889
5.73603
0.141546
4.50559
0.240801
2.46447
-0.157034
3.73227
-0.0769093
1.92705
1.05746
3.05582
3.93779
4.05926
3.4242
5.02748
2.50658
5.39491
4.86178
4.63504
2.33726
2.20106
6.69584
1.84978
3.13806
1.79654
0.463167
2.36781
0.760883
0.877157
0.708986
4.42318
0.832113
1.92859
1.12387
0.261592
3.16442
1.5511
2.06816
1.90898
2.65423
1.75446
3.29851
3.66067
1.75427
-0.188124
1.32223
0.663274
1.77593
-0.57275
1.6287
1.7811
-0.205651
2.37059
3.32403
-0.483601
-0.538575
1.60746
1.82168
4.56106
2.42785
0.419217
0.980601
4.30102
5.77694
3.14613
1.35848
1.98017
-0.924913
0.843153
0.69687
1.96753
-0.0613036
1.18469
0.574879
-0.196611
1.16268
2.50838
-0.539476
-1.04515
2.69383
2.55091
3.59643
2.96912
-0.19315
1.11427
1.08747
-0.0556987
0.44403
2.12376
-0.566652
0.262244
0.803706
1.10002
0.19621
0.842786
0.875713
0.872546
2.60794
2.50669
1.58113
-1.71204
1.80329
2.88878
2.55409
0.510182
1.24078
0.755123
-1.51716
2.43049
1.20356
0.19399
0.315299
-0.630311
-1.54659
0.92931
0.962989
1.86911
0.324143
-0.00174066
-3.85415
2.23887
-1.15146
2.4776
1.76403
0.566418
0.286576
-2.02025
3.10918
3.31278
-0.141337
2.18869
2.74386
3.89959
1.42556
4.5148
1.93047
4.35185
4.94558
2.03356
3.69589
4.47655
3.72603
3.69679
4.75261
0.140283
1.50031
1.15563
2.33911
1.18708
2.00303
0.588665
4.44738
4.10807
2.46656
3.44539
0.745817
4.67136
1.00269
2.18936
0.0726761
1.90946
1.15413
1.28622
3.72889
2.42069
2.16799
-0.916973
0.350936
-0.131882
0.953134
-1.38363
1.3574
0.905898
2.89923
1.93174
1.72512
1.88093
3.23698
3.94594
4.7712
3.41525
1.85383
4.49443
2.04049
2.08277
1.52233
3.43994
3.42058
1.79795
1.0937
1.80422
-3.15591
-0.768613
1.25034
3.04794
0.807095
2.82139
5.03837
0.904009
3.13224
4.28627
-0.335286
-0.109596
2.21765
1.69598
2.07962
-0.393845
0.318307
3.4556
0.742958
4.31809
2.27941
3.03103
1.81955
0.303124
2.3274
1.66708
2.86649
2.12465
-0.806277
2.43546
0.843217
4.14
1.53759
0.303886
1.93667
0.539769
-0.652948
0.890528
0.0573664
-0.57883
-0.27786
-0.920656
0.651086
-0.114425
2.49447
-0.563236
3.44254
2.5057
2.85719
-0.108549
-1.44671
2.39422
2.00201
3.57102
1.00923
-0.675941
1.13045
0.432327
-0.3161
1.94924
0.17031
0.216402
0.462567
1.88877
2.02547
0.0295599
1.0088
-0.196029
0.143598
-0.674375
2.84999
-1.41238
-1.48312
1.8924
-0.349312
-0.745014
1.30933
0.362635
-0.108407
2.02832
1.51557
-1.48584
2.68014
-0.630195
1.88806
2.58125
2.14702
-2.69236
1.53439
-0.0180372
1.40059
0.183313
2.8011
1.46003
-0.00466217
0.44077
1.75561
2.67182
3.12115
-0.319542
1.31945
2.8814
3.87074
2.21773
3.30836
2.79554
2.82531
4.54173
2.43433
5.24284
2.57313
0.200334
3.23644
2.07093
-0.598731
0.731436
1.20391
0.88038
-2.99908
2.33187
1.78822
0.762983
2.63147
0.146053
2.56555
0.828213
-0.0280525
3.8943
0.371601
1.61036
-0.0112999
3.74965
0.40144
0.456012
-0.339358
0.929151
1.69433
2.22872
-0.279758
2.59565
1.95861
3.70243
2.69893
2.56533
6.10209
2.07847
2.12689
1.24058
1.56542
2.83831
0.662099
0.323078
1.93871
2.68257
1.54188
-0.249437
2.26229
0.626626
2.94622
2.81882
1.78381
1.18073
2.08213
3.19517
2.66097
4.03106
1.62026
1.80048
2.88754
1.4641
0.954742
-0.222704
-0.329452
3.68208
1.80325
0.813747
0.0519191
0.802472
1.49178
1.76503
1.25322
1.05154
2.06669
2.83206
1.89858
0.545047
1.40612
0.602446
2.95864
1.60352
-0.340487
0.240568
-0.440876
-1.67425
1.57626
0.357836
3.35801
2.76414
-1.23445
2.21101
1.20501
1.02779
-0.134655
4.38374
-0.333649
0.675115
1.84189
0.377332
0.218742
1.81277
1.47405
2.99012
1.5098
0.453664
2.43036
1.99229
0.513616
0.148987
-1.04241
-1.65584
-1.30569
2.11934
-1.01011
0.600852
1.91838
-0.283654
-0.584945
0.754257
-0.104767
-1.59937
1.33454
-0.0399041
-2.25375
-0.205645
1.93405
1.32073
-1.39431
1.40673
-0.84532
2.0694
1.58962
-0.128485
-0.32235
-1.63924
0.57306
-1.0393
-0.637652
-0.00914224
-0.0468002
-0.0533702
0.83226
0.320064
0.62104
-0.672424
-0.785594
-2.63448
1.50829
1.97763
0.919282
3.82227
0.347014
-2.0028
2.60524
2.15545
-1.81417
1.05832
3.32376
2.01338
4.28543
-1.09016
1.76845
3.48866
0.356254
1.04888
-0.532197
-1.12638
-0.061367
0.0967083
2.47374
-1.25223
1.94783
-0.333084
3.46027
3.15082
1.09688
1.39129
-1.18725
3.06589
1.80351
2.21052
1.3091
-0.546654
1.52383
2.81678
0.0119095
-1.17987
-0.140746
-0.254713
-0.464105
-0.389879
3.38793
-1.36993
3.61705
0.134423
2.40173
1.12067
2.72733
0.0769676
2.64733
0.695442
3.336
1.62142
-3.2685
-0.881009
1.48685
1.51033
-2.88482
1.06584
2.36736
2.06515
1.12537
1.59488
1.20042
0.63871
0.649373
2.35723
2.15599
0.157171
1.76953
4.61239
0.456633
0.179623
0.975259
-0.960146
1.14685
2.61008
0.212553
-1.41747
-0.226391
1.43578
-1.22147
-0.782679
1.63354
3.54307
0.165403
1.69352
0.278079
1.52449
0.88362
1.30343
0.913151
-0.117813
0.807421
0.832805
-1.73248
1.89787
-0.548802
1.34355
-2.307
-0.47503
-0.429055
0.809726
1.792
0.0707371
0.836296
0.21044
-2.14889
-0.213596
-0.485443
-1.45145
0.464933
0.585795
-0.629477
-0.902693
0.448158
-0.45452
0.815644
-0.617069
-0.25208
-0.0865293
-0.281269
0.416954
0.50542
1.66173
0.519911
0.666249
-1.13356
1.20259
1.1823
-0.814182
0.485699
0.354507
0.682019
0.619227
-1.3853
0.884278
0.185872
-0.792962
-0.143153
-0.69605
0.610103
1.97896
2.0862
0.00811173
1.90127
0.419443
0.214208
1.43281
1.26694
0.784014
0.461618
-1.2665
-0.110554
1.76211
-1.39554
-0.0346131
0.264783
-1.64288
-1.21301
-1.62019
3.78165
0.284328
1.49784
0.379364
2.82435
0.15783
0.350457
-0.00911993
-0.260571
0.695082
-1.60035
1.63894
-0.707956
-2.52257
-0.242293
-1.36415
-0.427457
0.164444
-1.01829
0.138215
-0.690652
-0.608968
-1.74161
-0.831287
0.567504
0.311683
-0.331782
0.0872724
0.836348
3.21232
0.0369364
-0.912948
0.077861
-0.537083
0.242825
1.10962
1.8879
-0.393489
-1.79414
-1.14851
-2.93587
-1.68177
-0.692434
-0.120586
1.39658
0.127571
-0.582527
1.64959
0.770072
-1.5695
0.666887
0.0304733
0.783751
0.686246
1.51294
1.0599
3.40169
0.17683
1.38597
1.30747
-0.867996
-0.989264
0.54599
0.900832
-0.276403
1.90628
2.15029
-0.520501
1.27975
-0.404942
0.0158148
-1.75437
-1.13408
1.46269
-1.23209
-1.04165
-0.836134
0.872529
-0.363371
1.27607
0.0422862
-0.198271
-2.76017
2.45135
2.52359
-0.709933
1.52074
-2.01547
-0.509985
3.27904
3.06968
0.989802
-3.81023
0.545774
-3.12176
-0.694912
1.1713
-1.64502
1.52493
1.67106
-1.48069
-0.513787
-2.70173
-1.2977
1.14242
0.881961
-0.472295
-0.173108
3.74853
2.59369
-1.77228
-1.57662
-0.554337
-0.74451
-3.20098
-1.44491
1.76371
-1.45841
-0.174766
3.21476
-0.62845
-2.46041
2.39601
-1.47273
0.265097
-0.643372
-0.30045
1.1281
0.70808
-1.38541
-2.53414
1.45374
-0.228203
0.0810131
0.509437
-1.19513
0.961598
0.55312
-1.37446
-0.353574
0.650432
-0.945324
0.193687
-0.744087
-1.31376
1.95366
-0.70198
0.865942
1.60112
0.192047
1.98449
-0.890349
-0.847482
-1.5851
-0.944081
0.525964
0.257978
-0.556728
-0.156933
-3.41902
-0.551164
2.02419
1.65091
0.695492
1.57135
1.30113
-1.38244
-0.520332
1.97148
-2.35671
2.4613
-0.588376
-2.65964
0.555118
0.78361
-2.08287
-2.25551
-0.752435
-0.587612
3.0695
-0.485238
0.630968
-0.740085
0.0272484
1.36015
2.66799
0.303444
-1.18041
4.48025
0.791891
0.515337
-0.75445
2.06845
2.55108
-0.656771
0.144689
-1.24395
1.43808
-1.79021
-1.79238
0.978245
1.54359
2.84687
0.797126
-0.536632
2.08643
-0.909093
-0.960617
-0.973219
-0.860528
-0.760177
-1.43878
-4.84423
-1.05797
-0.188885
0.206806
-0.584656
1.32221
-1.86077
-2.73385
0.735375
-0.960607
-0.473664
-0.606054
1.02473
1.23686
-2.01885
-0.902076
1.93372
-1.09555
-0.818818
-1.45842
-2.05019
0.788634
0.525811
-2.64571
-0.756664
-0.0369375
-1.91184
-0.230089
-1.07133
-1.42181
0.726603
0.519451
1.84425
1.89992
-0.416606
1.95089
1.24496
-0.389466
-1.09636
-1.85133
1.07545
-2.78275
0.171177
-1.3472
-0.264178
1.14557
0.512264
1.08382
0.355705
-1.14937
1.24719
-0.153306
-0.356733
1.86545
-1.09781
-2.10719
0.847057
-1.741
-2.18484
-0.894967
-2.05029
-2.08048
-0.0355127
-0.888699
-0.815908
-0.0119575
0.421993
-2.06722
0.966155
0.601971
-2.20181
-0.0243868
-1.14911
1.63791
-0.698032
-0.323815
-0.889712
-2.21973
2.42114
0.0270064
0.320117
-0.948132
-0.538091
0.936089
-2.86088
-0.711014
1.25888
-1.38231
-1.997
0.528918
0.570885
-0.0402607
0.0104024
0.658289
-1.45904
-0.900119
-3.24063
0.22082
-2.27448
1.53641
1.66144
-2.13877
-1.56651
0.766779
-2.68651
-0.182385
-0.559119
-0.522703
-1.98658
-3.04796
-0.870768
0.421461
0.369897
-1.46309
2.26435
-0.298918
-0.824888
-3.65693
-1.94812
-2.09077
-0.60442
-0.086451
-0.6462
-1.91035
0.931916
0.679645
-1.21765
1.31238
-0.245375
-0.690224
-1.31478
0.287753
-2.41265
-0.543509
-1.33731
-0.266511
0.0166819
-2.38834
0.985445
0.622877
-0.481032
-4.06979
0.000576093
-0.285842
-1.9519
-0.0675366
-1.74112
-4.33783
1.0789
-0.842782
-1.97608
-2.13053
-1.97328
-3.19124
2.71346
-1.27037
0.10481
-0.526702
0.0747789
-1.19997
1.8425
-0.520018
-1.59165
-2.44559
-3.69702
-0.415521
-1.37603
-1.66545
-2.95153
1.66277
-0.884181
-2.36811
-1.54168
-0.134197
0.249104
1.22787
-0.27111
0.803261
-3.79572
0.691675
-1.17301
0.251582
-3.10229
0.631463
0.497938
-3.37603
-1.06014
0.353612
1.74893
1.05143
1.05364
0.0858066
1.31399
-0.233365
-1.61387
-0.0658138
0.709514
-1.24362
-2.80423
-0.247931
1.53581
-0.889778
-0.374142
-2.20062
-1.22171
1.97759
1.9082
-0.0975804
-1.36404
-1.83487
-0.615065
1.9702
2.66515
-0.144863
-1.29429
-1.16241
0.222532
-1.31924
-1.26377
-1.57035
0.246219
-1.05353
0.907461
0.552653
-0.632935
1.78125
0.492848
2.64678
1.38732
2.18448
-1.52142
1.60097
-0.0259216
2.33159
1.4051
-0.0877444
1.14193
-2.19028
-1.14007
-1.59231
-0.400244
-0.364012
1.00492
-1.27995
-0.650045
-1.01025
1.96457
-3.21551
0.775139
-1.19042
1.01546
-0.482681
-1.42724
2.13973
-0.619117
0.794755
1.00886
2.11721
-0.315945
-1.84479
-1.03492
0.248608
-3.56576
-2.34551
0.747216
-3.37976
-1.8402
-1.64426
-0.831236
-0.926358
-2.13432
-0.0893421
1.31962
-0.809072
-2.15917
-1.1232
-0.48496
-3.86194
-0.718878
1.06655
-2.00547
0.116199
-4.46427
-1.49487
-0.843857
1.59732
-3.05283
0.7516
0.118726
0.0801735
0.785348
0.20792
-2.2875
-1.09525
-0.31821
-0.143319
0.326918
-2.45397
0.158526
-1.5827
0.219421
0.0582558
0.740175
-1.22866
-0.762309
1.50524
-0.103482
2.50233
-2.46617
-1.22705
0.116688
-2.06531
-2.79396
-2.37554
0.027551
-0.103697
-0.862753
-0.00310191
-1.42025
-2.1271
1.47051
-1.33908
-0.779241
0.202652
-0.948801
1.28683
-1.4153
0.972495
-1.90884
-0.574412
-1.63846
-1.35942
0.313644
3.72888
0.52426
-1.86616
-2.25767
0.441166
-1.71969
-0.711483
-1.72685
-1.96215
-2.05901
-2.60699
2.2418
1.20262
-0.801617
-0.0342741
-1.10261
-1.39459
-0.713395
-1.25178
-0.475269
2.24506
0.80663
-0.717889
-1.32245
-2.44177
-1.20299
-0.877389
-0.449811
-0.234753
-1.24319
0.297353
-0.235036
0.799124
-2.4445
-0.959066
1.17711
-2.93293
-3.25945
-1.45735
1.19732
-1.02292
2.28215
-0.36663
-1.42792
-1.16191
-0.441096
-3.1407
-1.53882
1.04803
-1.09636
-0.436283
0.25829
1.08723
-0.10448
1.31016
-1.67436
0.478237
0.296085
-0.44593
0.0314106
2.53922
-0.362149
-2.49286
-0.116603
-0.607732
-1.83628
-0.85156
1.65922
-1.6801
0.353402
-0.254433
-0.172372
-0.598923
1.81477
-1.94844
0.49908
0.306935
-0.0527368
1.3118
0.450644
-0.0911454
-0.571404
1.24377
0.225471
1.45236
0.281946
-1.5748
2.68776
-0.850482
-2.71536
0.952007
1.40974
-1.79418
-4.0998
-0.438928
-4.53145
-2.10834
-2.07282
-1.76844
-2.21616
-3.9241
-2.43754
-2.86543
-1.8886
-3.77999
0.377393
-1.355
-1.27327
0.357054
-4.22094
0.321838
-2.66139
-1.32813
-1.79943
-2.371
-2.51467
-3.79654
-1.01001
-0.531923
-0.525972
-1.20925
-2.32791
-0.695419
0.388544
-2.22024
-2.05936
-1.66604
-3.12199
-3.88699
-4.00731
-3.53814
1.06319
2.80176
-1.145
-3.20884
-3.01847
-1.01722
-0.708551
-3.08913
2.14227
0.115735
-1.58628
1.42956
-2.36431
-2.31348
-1.46418
-3.03735
-1.26353
-3.03229
-1.45022
-2.06246
-1.48081
-0.316595
-0.899292
0.910505
-2.43014
-2.00421
-2.84596
-0.93015
-3.51502
-2.26744
-3.46514
0.274471
-3.6655
-3.04954
-1.25366
0.145319
-2.82597
-1.4512
-2.82661
-1.31062
-1.96193
0.354111
1.47163
-1.10083
-2.69331
0.0268599
1.06592
-0.34429
-0.799071
-3.51283
0.182476
-0.756068
-1.74717
-2.60465
-0.115698
-0.589528
0.241324
-4.01076
-0.0943095
-0.318072
0.287308
1.24702
2.12449
-2.35832
-2.50122
0.401367
-2.79046
1.29918
1.75706
-1.35141
1.60377
-0.406063
-1.04603
0.822427
-0.0249269
-1.83118
-1.38873
-0.432081
-0.144428
3.13411
0.822167
-1.11949
-0.60909
-2.83732
1.46069
1.85881
0.334195
-1.32128
-1.67039
1.8737
-1.10484
0.352563
2.08039
-0.36684
-1.7185
2.65713
1.87365
-1.59997
-1.76423
-2.07857
-2.33035
2.34224
-1.28334
-0.230836
1.56639
1.03995
-3.00574
-1.24292
0.0328445
0.33089
-0.295175
-0.12286
2.60115
-1.61827
-1.68064
-2.07111
-0.197062
-2.76448
-0.530159
-1.53321
-0.324106
-1.72844
-2.38447
-1.57358
-0.97617
-1.73455
-0.705353
-0.996532
-3.33265
-3.22674
-1.14083
-2.75791
-3.76912
-0.583238
-4.87348
-3.81236
1.19734
-1.34691
-4.5977
-0.530398
-0.075521
1.48734
-0.461994
0.655333
-4.07911
-0.530617
-2.38773
-0.170552
-3.03184
0.23154
-0.487347
-1.39834
-0.398481
-1.65616
-0.924683
2.33873
0.201095
-1.9514
0.0434442
-2.26201
4.05783
-1.72351
1.6002
-1.17703
-1.75225
-1.78748
-0.235524
-0.896076
-2.07201
-2.01071
-4.01667
-1.32654
-3.31073
-2.98734
-1.22179
1.11115
-0.711285
-0.485157
-1.15498
-2.04579
2.63778
-2.99194
1.37674
-0.35935
-3.96747
0.797214
-1.70069
-2.0747
-1.00299
-2.65606
-1.88771
-0.272393
0.258539
-2.88771
-0.625139
-2.33343
1.42821
-0.0455753
1.21923
-3.02952
-1.28777
-1.36423
1.2532
-0.638412
1.02568
-0.283943
0.163219
0.871092
0.429692
-1.02447
-1.01689
-1.60906
0.0591331
-1.82448
1.18025
1.11407
-2.5226
-0.957034
-0.937878
-1.86381
-0.46755
-0.0437695
-0.405692
-0.577123
-0.348913
0.919827
1.50996
0.248582
0.12718
1.61973
-1.02654
-1.66788
-0.949194
1.73031
-0.911901
-1.74271
-1.41812
-2.46882
-0.915937
1.43608
-3.99067
-0.757628
0.19199
-3.45412
1.74144
2.00219
2.20755
-0.539968
-0.664609
-0.343739
0.548875
-0.544559
0.24653
0.815271
0.218253
0.171631
-2.0328
-1.37165
-1.52311
2.76851
-1.42702
-1.16842
-0.148878
-0.310569
0.820479
-2.45618
-0.84752
-2.05103
-0.528919
-2.09387
1.60322
-0.78883
0.772352
-1.22993
-1.14192
2.42735
3.11006
0.0142301
1.14166
2.93549
-0.221377
-2.50143
1.42859
-2.44037
-1.94973
-1.08449
-2.87167
-0.655435
-3.14257
-0.275299
-1.54979
-1.96762
-1.85641
-3.40133
-3.64128
-1.18506
-1.97801
-3.00414
-0.920975
1.23752
-3.48257
-2.23824
-2.14881
-4.29298
0.542539
-0.644852
-2.5127
-2.69207
-2.75378
-1.93302
-0.298593
-2.8387
-0.576629
-1.07789
-1.769
-5.30571
-2.44668
-2.83503
-3.7276
-0.650364
1.8071
3.01724
0.857777
-1.75443
-2.15376
-0.429215
-0.200764
-0.606276
-2.16205
-2.90181
-0.821281
-1.22064
-2.27006
-1.16524
-4.19181
-3.5111
-3.12495
-2.83338
-1.79155
-0.651872
0.664318
-1.09755
-0.821947
-1.72559
0.339372
-0.460435
-4.11229
-2.97069
-3.02556
-1.91752
-0.505853
0.91253
-2.40013
-0.424855
-0.0493994
1.59111
-3.53158
-3.057
-1.15044
-0.910825
-1.20257
-0.597872
-1.97321
-1.36358
-0.575326
0.439309
-0.582373
-0.775932
-1.33082
-3.46392
-3.27203
0.768244
-1.13841
-2.44474
-1.08359
0.135281
-1.44193
-0.775469
-1.67518
-1.91837
-0.817533
-0.452178
0.725198
-0.141708
-1.0005
-3.10488
-1.27249
0.145425
-0.0465811
-1.61853
1.89672
0.274293
-6.31433
-1.46956
0.093559
-2.99288
1.80347
2.8406
0.0963278
0.348328
1.88992
-2.69932
-1.96677
-2.20462
0.175464
-2.93268
-0.121847
-1.33217
-0.627
0.3479
-0.330028
-0.239101
-0.464043
1.64744
0.221537
0.672782
1.31825
-0.479917
-2.50523
0.0253395
-0.0795434
-1.28611
-1.73241
0.0722868
1.21247
-0.217042
0.102491
-1.78386
0.523447
-0.484182
0.521077
-1.64901
0.0215694
1.46267
-1.48219
-1.72444
-0.405609
-1.59342
-0.520586
3.60078
-2.52313
0.842507
-6.39259
-1.75005
-4.03713
-3.09138
-2.07502
-4.06509
-2.44688
-3.11056
-1.31757
-2.4226
-2.20428
-2.85637
-3.16644
-2.09695
-2.57902
-4.38801
0.0040032
-1.66245
1.80776
0.757062
0.0426618
0.0840332
-3.58044
-0.738417
-3.15474
0.103195
-2.08009
-0.598551
-0.375471
-3.1897
0.524522
-1.96716
0.541612
-3.89228
0.138565
-2.87171
0.0290072
-1.7683
-0.869358
-0.89869
-0.918426
-0.18832
-3.08048
-3.25669
-0.302388
-2.39279
-0.608132
-2.73149
-1.21328
-1.98815
-2.33502
0.655059
-2.76417
-2.10731
-1.19191
-2.04362
-1.84216
-3.71339
-0.277542
0.706379
0.794311
0.042157
-2.73472
-0.135338
-2.42346
-1.84599
-3.84941
-0.605052
-3.54859
-0.702583
-1.90243
1.88414
-3.11312
-3.44582
-1.71051
-1.80213
-0.916573
-1.92924
-2.81509
-0.324091
-0.811834
-2.5749
1.54076
-1.53759
-0.273833
-0.962099
2.04882
-0.669522
-0.20176
0.801119
-0.454514
-2.09919
-0.697771
-1.2935
0.299733
-1.77908
-1.72254
-3.12174
1.0161
-0.623584
-1.42165
-3.10076
-1.79981
-0.324733
-0.650551
0.486398
-0.497761
-1.78003
-3.68061
-2.57986
1.21116
-0.242653
0.172094
-0.871847
2.50701
-1.47728
-2.44198
-2.65978
1.84634
1.76451
1.19499
-3.46184
-2.13679
0.0095184
2.03347
-0.853234
-1.10042
-1.53329
1.31278
-0.569311
0.800169
0.781126
0.835442
-1.24485
-1.18367
-2.45447
0.123402
0.852252
-1.42129
-0.368522
-1.66805
-1.04249
-4.27528
0.386615
-0.491887
0.335273
0.271747
0.738812
-0.902389
-1.27061
-2.09172
-2.85886
-1.456
-0.744492
-3.00912
0.184399
0.708536
-0.912393
1.04039
-1.14425
-2.46588
-0.229096
-1.29138
-4.06076
-3.52965
-4.63452
-2.09391
-2.30503
-2.8009
-2.31269
-2.25594
-4.04099
-0.240173
-1.92473
-3.20356
-3.86447
-3.71047
0.226358
-0.497906
-2.2291
-0.266556
-1.17894
-2.59484
-4.32815
1.29136
-3.22239
-4.03554
-2.29485
-3.17352
-2.94947
-3.29148
-6.20176
-0.659201
-1.31263
-2.84084
-4.80104
-1.20157
0.731591
-1.8572
-1.61287
-1.34183
-0.888667
-0.36688
0.516411
-0.80599
-1.78085
1.12029
-1.79561
-2.03229
-3.46006
-1.1318
-2.89094
-2.19172
1.0362
-1.99297
-2.16214
-0.149575
-3.48598
-2.05313
0.246742
-2.65869
0.202587
-1.02353
-2.26757
-2.0275
0.532247
-3.84586
-0.384757
-2.41109
-3.89174
-4.04368
-0.952245
-0.856805
-2.94952
-0.549803
-1.51427
0.683216
-1.971
-4.7808
0.0722664
-1.55935
0.724355
1.27863
1.28849
2.02299
-3.42318
-0.934491
-1.34494
-0.455197
-2.91632
-1.32456
-0.453831
-3.66
-1.65493
-1.41784
-1.04234
-1.78079
0.40129
-0.333586
0.668827
0.223525
-0.331667
-1.76907
0.10942
0.910763
1.06247
0.501252
0.297775
1.14002
-2.69371
1.7832
-2.35052
-0.849851
1.36463
1.21139
-3.83613
-2.60712
-1.14905
-2.19041
-0.526111
-2.19267
0.476523
1.73642
-0.463227
-1.87662
-1.87335
1.50594
-1.42414
1.08844
2.61828
0.0275373
-1.16429
0.384769
-1.41134
1.22244
-4.31982
0.161369
-1.07736
1.11869
-0.781299
-2.3513
1.72382
-2.38481
-2.28246
-2.46351
0.0463969
-1.91102
1.35521
1.23067
0.495017
1.50041
-0.0339891
-1.42483
0.719549
1.12446
-1.70983
-0.482533
0.569857
-2.42322
1.41129
-1.09544
-3.14576
2.28554
0.354707
-0.734939
0.838607
-4.1315
-3.06993
-0.918649
-3.1238
-3.11785
0.734643
-2.29978
-2.17745
-4.11348
-2.98257
-3.31978
-1.89451
-2.05265
0.123369
-2.01007
1.11552
0.389551
-0.813721
-0.385891
-0.142216
-0.965215
0.39048
-0.483338
-3.90732
-0.0143856
-1.01422
-0.160522
-1.43481
-0.547308
-4.08556
0.373347
0.323561
0.452236
0.164455
-2.41208
-4.38375
0.709641
1.54001
-2.94174
-0.317025
-4.40297
-2.63856
-2.46277
-0.969024
-2.14671
-1.7604
-4.04755
-3.17585
-0.834956
-0.0275957
-2.44223
-1.7019
-1.34761
-0.645935
-2.77039
0.850436
0.557072
0.102855
-2.84645
-0.32455
0.449232
-0.536153
-0.114933
-4.68679
-2.69236
0.712624
-2.27288
-0.154524
-2.32572
0.290799
-3.41164
2.78373
-0.174871
1.58063
-0.582506
0.353019
-2.48472
-1.55234
0.870313
-1.24477
-2.47598
-1.69059
-3.54402
-3.02497
-2.06373
-1.38507
-1.12956
-0.458401
-0.746691
-2.47759
-4.31031
3.98922
2.51329
0.507837
-1.71768
-0.341277
1.00383
-2.47387
0.632155
-1.25835
-3.36255
1.2637
-2.40536
-2.01078
-1.15937
-1.52564
-1.00452
-0.886502
-0.249806
2.08899
-1.03996
-0.136399
0.487525
-0.790777
1.00217
-2.50999
-0.401285
2.0459
0.00148644
0.47138
0.840384
-0.420924
-3.70447
-1.3702
0.978376
-2.27506
-1.0192
-0.439615
2.86464
-2.71646
0.779378
2.16643
-0.920856
-0.873616
1.74051
-0.343805
2.15981
-1.05246
-0.384373
0.872884
-0.644502
-0.705218
-0.97823
0.5192
0.455644
0.0216903
1.2808
0.399558
1.76437
-0.202061
-2.46254
-0.494233
-2.26373
0.172342
0.319778
-0.868334
-1.50881
-0.687362
-0.342695
-3.45459
-4.45619
-4.12449
-3.2503
-2.29735
-1.52383
-6.76506
-0.876702
-5.65549
-0.186469
-1.06857
-2.46711
0.359612
-0.254401
-0.380827
-0.671062
0.340256
2.62565
0.39648
-2.20794
-2.41151
-5.22065
-0.756455
-3.13891
-1.01724
-1.92546
0.959927
0.125425
-4.70702
-3.75532
-0.512939
-2.24699
-1.71104
-1.10084
0.879096
-0.285141
-0.976673
-1.67362
-0.756719
-1.54639
-0.917414
-3.01934
-1.78023
-2.61215
-1.21997
-0.43159
-2.62863
-0.65324
-0.0468439
-1.01733
-3.59073
-3.14433
1.24099
-1.61947
-1.61457
-0.529711
-4.2975
1.11937
-3.17881
-2.0319
-3.89703
-2.19257
0.464478
2.83422
-0.904412
-0.0587864
-0.729926
0.489144
-1.73705
0.32719
0.147412
-1.42661
-2.15498
-1.21505
-0.108547
-3.19972
-0.109996
-1.78069
0.210517
-2.23456
-3.23991
-0.394424
-2.17442
-3.00514
-1.44461
0.340405
-0.774261
0.773469
-1.5392
-1.86513
-2.5856
-1.43885
-1.96693
-0.756705
-1.1861
-2.23092
-4.09071
-0.578093
-1.1628
-2.30242
-0.844832
-1.1161
-2.26491
-2.62611
-1.28316
-3.6417
-1.33489
0.418731
1.59895
-0.404137
1.33857
-0.804565
1.17535
0.0119044
-0.772947
2.08459
0.23914
-0.825367
2.04166
1.36239
1.07489
-3.83553
-1.92371
-1.88317
-0.390077
-1.6479
-3.43281
-0.602827
0.303876
-1.38132
2.07682
1.7957
-0.126749
1.91047
2.48489
-3.35212
-0.648798
2.93045
2.29142
2.23932
3.41195
-0.645294
-0.620181
-0.714624
-1.72516
-0.0356778
-1.7679
0.296413
0.738503
1.09077
-0.911484
1.39801
-0.44893
1.54878
-0.324894
0.356903
-1.57254
1.00992
-1.15964
-2.27912
-1.93535
-1.69524
-2.16316
-2.37544
-2.93865
-3.35291
-1.38047
-1.45447
-2.57222
-1.91247
-1.29735
-2.5276
-1.32745
2.24578
-0.287522
0.51119
1.14036
-1.80174
0.163578
-2.33062
-0.463469
-2.04514
0.00035869
-0.0010025
-2.16919
0.172805
0.258625
-0.716326
-3.0201
-0.1084
-1.80314
0.299266
1.19758
-0.132321
0.628084
-1.35101
1.1082
-0.600095
-0.267738
-0.265566
-4.17369
-1.80885
-5.34502
-3.70499
-2.67971
-1.73665
-1.64992
-0.783783
-0.389471
-4.94797
-0.382603
-2.52989
-1.48454
0.722442
-0.891477
0.52976
0.734431
-2.78898
-0.261879
-0.306749
-2.58961
-1.44449
0.734642
-0.714265
-2.56469
-2.79524
-2.24793
1.01099
-2.18942
-2.41001
-1.49342
-1.06684
0.563585
0.614025
0.0744273
-0.222274
0.501514
3.71363
2.33642
-0.499408
-1.83551
-1.65994
-0.59249
-2.31385
-1.04813
-2.20186
-2.40725
-1.57296
-1.56616
-1.11391
1.18006
0.390428
-0.981808
1.3933
0.890384
1.43353
-0.465643
1.2055
-0.962014
-2.0207
-3.23869
-2.85435
-0.0278647
-1.41467
-1.01636
0.192675
-3.27797
-4.97618
-0.618088
-0.959326
-0.226272
-1.69162
-1.7696
0.358308
0.683068
-0.981953
-1.98657
-2.37011
-0.688087
-1.63055
-2.7293
-1.9848
-2.83556
0.698359
-2.57604
1.13791
-1.26773
-2.32246
-1.757
-0.158703
3.01777
0.951233
-1.50043
0.248643
-0.176781
0.317646
0.818986
1.24959
0.222729
1.2125
1.21424
-2.9306
-2.91541
-2.34408
-0.350539
3.56928
-1.08038
0.945887
1.45825
0.913972
0.67525
-0.0800044
1.9985
4.70069
1.82887
0.753391
-0.220854
-2.7868
-2.33334
1.16237
-0.452856
-2.69312
-1.6496
-3.17298
0.69795
-2.93216
-0.787886
-1.80524
-2.09416
-1.83806
-4.76134
-0.240836
-1.39506
2.76815
1.0853
1.00064
-0.447626
-1.06836
1.40463
-1.54706
-0.225121
-3.50831
-0.925912
-3.20071
-4.3973
-3.3184
-3.51727
-0.0468079
-0.697755
-0.784469
-1.06959
-2.05726
2.98633
-0.207226
-0.222914
-1.36621
-0.973687
-1.10467
-1.51687
-0.0208948
1.19621
-1.27631
0.394447
-1.28202
-1.95214
-3.10845
-0.405637
-3.134
-3.66122
-0.370337
-1.85091
0.626067
1.03094
2.96652
-0.523394
1.24268
0.0826051
1.80892
-0.363164
-1.9221
1.92496
0.00125694
-0.791045
-2.08936
-0.0341997
-0.744752
-0.891618
-0.054012
-3.57121
-1.66408
-2.88685
3.35644
1.21284
1.1995
2.14982
1.00989
1.34393
-2.75367
-1.73534
-0.152929
-0.891551
-1.82713
-1.34344
0.71154
-2.08749
-1.21695
-0.278068
-0.0726465
-1.39766
-0.689545
-0.165389
1.02075
1.80883
0.547123
0.356259
0.78622
-2.66415
-0.361937
-1.90924
-0.251565
0.313079
0.833242
-1.69848
-1.28843
-2.75012
-0.281646
-2.01342
-3.51456
-3.45663
-1.51357
0.167597
-1.70633
-0.792922
2.63277
1.63835
-0.38155
0.5026
-1.19699
-0.713498
-0.180451
1.32215
1.54135
0.0892582
-2.02821
-0.858937
0.702569
-0.220726
0.84777
-1.26653
-0.965053
3.56017
0.170817
-2.32637
-1.73565
-0.92897
1.51207
-0.163429
0.876578
2.60907
0.348956
1.25334
0.440144
0.0144203
-0.357444
-1.6109
0.0911582
0.876737
2.4766
-0.694678
-0.350948
0.338996
0.724773
0.0384179
)
;

boundaryField
{
    hotSide
    {
        type            calculated;
        value           nonuniform List<scalar> 
400
(
4.90822
2.52142
2.13778
0.949078
2.28695
0.908251
0.630912
-0.647452
-0.693891
-3.68273
-0.298009
0.3109
-1.4811
-1.44103
-3.8099
-0.317936
-3.8575
-3.77834
-0.0505201
3.01237
1.7542
1.46147
5.49022
5.19041
2.50604
1.83938
1.11452
-2.54155
-1.49578
-1.16656
-4.41371
-2.8825
-2.87567
-3.71205
-0.435932
-2.49491
-0.0159379
-1.33579
-1.91825
0.145977
5.0498
7.11346
5.75811
2.88537
-0.931431
2.30468
0.0713801
-2.09729
-1.08246
-1.53064
-2.86238
-5.17723
-3.52164
0.227228
-7.66253
-3.80875
-2.51555
-1.18186
-1.23054
-0.924111
5.05101
3.72175
3.34502
1.41199
1.41607
-1.11931
2.9902
-2.48957
-4.33061
-1.48126
-2.65445
-1.50531
-2.70061
-3.63246
-3.01154
-1.56427
-4.55888
-2.36362
-3.15422
-1.89313
5.284
4.08794
1.18465
4.70574
1.98907
0.536635
-0.469054
2.92725
-1.44882
-2.93225