/*--------------------------------*- C++ -*----------------------------------*\
| =========                 |                                                 |
| \\      /  F ield         | OpenFOAM: The Open Source CFD Toolbox           |
|  \\    /   O peration     | Version:  2212                                  |
|   \\  /    A nd           | Website:  www.openfoam.com                      |
|    \\/     M anipulation  |                                                 |
\*---------------------------------------------------------------------------*/
FoamFile
{
    version     2.0;
    format      ascii;
    arch        "LSB;label=32;scalar=64";
    class       volScalarField;
    location    "0";
    object      stateMean;
}
// * * * * * * * * * * * * * * * * * * * * * * * * * * * * * * * * * * * * * //

dimensions      [0 0 0 1 0 0 0];

internalField   nonuniform List<scalar> 
3200
(
313.436
316.98
314.179
314.716
315.037
317.472
315.094
315.034
313.692
313.704
313.665
312.553
313.981
312.886
315.891
316.49
314.067
314.541
312.868
314.532
311.292
310.617
311.487
311.766
312.838
314.433
314.521
312.635
311.163
313.263
311.943
312.588
313.433
313.749
311.464
312.245
314.195
311.063
313.525
312.908
310.28
312.981
311.085
311.379
313.017
312.576
311.478
311.076
310.917
310.848
314.344
310.069
310.813
309.166
309
310.661
312.747
311.764
308.122
308.003
310.556
310.192
307.944
310.608
307.533
309.027
309.257
309.598
308.247
307.943
308.359
308.739
310.48
308.59
310.051
308.202
308.636
306.492
307.35
310.206
306.786
307.594
306.787
309.68
308.868
306.982
307.274
304.625
306.563
307.227
307.793
308.412
309.313
308.042
305.265
306.445
306.164
305.501
307.001
305.574
305.832
305.97
305.729
304.18
305.061
303.742
304.501
304.402
304.585
304.427
305.847
305.712
304.326
304.078
304.37
302.816
302.199
306.463
307.155
305.334
303.532
302.3
299.506
300.608
299.518
301.127
305.032
302.017
301.739
304.423
301.844
302.624
303.671
300.637
300.35
299.281
302.757
302.663
302.699
303.13
301.824
300.19
301.445
301.749
300.586
299.055
299.689
301.478
302.866
300.81
303.225
301.493
302.18
299.831
301.07
299.291
298.555
300.929
303.359
302.709
315.87
317.316
312.155
316.08
316.262
314.843
317.95
315.189
315.827
316.332
316.04
314.363
313.945
316.351
318.042
316.095
316.033
311.889
313.859
314.328
315.058
315.017
314.573
315.873
317.329
318.631
312.289
318.914
313.203
319.327
319.424
312.912
318.999
312.434
318.21
314.04
317.738
313.658
316.246
311.469
310.659
311.3
309.965
311.664
314.446
311.182
309.938
314.302
312.039
311.464
311.561
310.623
310.085
311.093
311.566
311.662
310.585
311.573
312.951
313.935
308.842
309.463
310.43
308.009
308.809
309.046
308.315
308.339
309.098
309.081
308.914
308.54
306.241
309.533
311.976
310.67
309.949
309.213
308.677
305.91
306.575
305.627
306.571
307.471
304.381
308.316
305.45
308.719
305.974
306.32
307.446
306.159
307.336
308.727
306.916
305.555
306.719
307.619
306.747
310.101
304.581
306.272
304.241
305.372
306.784
304.81
305.81
307.9
305.392
304.102
303.836
306.287
304.705
304.452
305.07
302.345
302.461
304.011
308.828
305.503
303.068
304.488
304.227
302.676
303.315
301.229
300.875
303.236
302.148
304.155
306.259
305.134
302.465
301.137
304.708
300.442
303.937
302.872
299.224
302.812
301.808
301.495
300.738
300.169
301
299.645
300.832
302.043
297.735
302.387
300.546
301.963
301.709
302.611
301.016
298.329
302.876
303.701
299.829
300.436
316.348
313.376
313.59
316.527
319.224
315.783
317.694
318.1
316.048
314.607
313.254
318.779
315.341
315.344
316.716
315.577
314.386
315.939
315.749
314.039
312.096
310.337
313.726
315.266
314.647
316.714
313.764
315.85
316.685
312.677
312.834
314.926
313.634
316.128
313.935
314.282
316.489
314.621
316.683
312.022
313.051
312.973
310.677
314.2
312.423
313.473
310.31
312.843
312.332
312.219
311.383
311.445
311.509
309.697
311.412
315.39
311.506
313.349
315.542
312.864
307.212
306.894
310.518
309.562
310.802
310.35
310.173
309.256
310.886
310.692
311.205
309.48
309.961
310.534
310.951
309.451
310.183
308.232
308.277
309.961
306.344
306.813
307.942
309.235
306.621
306.866
306.284
307.95
306.102
305.11
306.439
308.317
310.207
306.694
307.83
304.812
307.273
306.61
307.445
308.4
306.71
306.348
304.396
302.94
308.57
307.1
304.335
304.276
306.551
306.346
307.311
307.119
308.031
304.143
304.903
305.519
305.153
303.614
307.663
304.677
302.064
301.365
302.779
304.489
305.938
301.353
301.649
301.299
306.737
301.856
303.102
302.033
303.08
303.257
302.844
306.056
304.601
304.835
304.223
303.246
300.276
300.005
304.234
302.966
300.445
302.474
300.534
300.069
300.019
300.874
300.704
299.729
301.625
300.831
297.989
299.818
302.762
299.336
300.87
299.155
317.679
313.81
316.584
318.566
315.794
317.102
318.01
319.917
319.891
318.013
317.718
319.28
317.44
317.2
316.874
317.76
316.001
316.319
316.89
316.66
314.097
317.819
316.65
317.079
314.456
318.785
315.251
320.146
315.337
319.188
319.797
314.513
319.397
313.521
318.725
313.936
317.765
315.117
317.348
313.158
314.406
312.652
313.851
312.21
311.697
311.935
312.9
311.574
314.295
311.513
312.046
312.167
314.264
314.123
309.298
313.785
312.128
313.111
314.116
311.961
310.989
311.074
311.51
308.09
311.982
311.178
312.253
313.341
310.603
312.303
311.786
311.858
310.949
311.623
309.808
309.153
310.759
312.407
310.629
311.087
307.381
309.884
307.89
307.966
310.187
307.838
307.095
311.079
311.261
309.182
308.967
306.161
308.167
310
309.228
305.68
303.97
306.373
307.953
307.177
307.477
305.818
306.113
305.004
307.2
306.117
306.877
307.774
306.505
305.208
308.255
308.713
304.883
304.901
303.706
304.17
307.165
305.696
305.574
306.608
303.495
301.88
304.66
303.929
303.487
303.289
304.283
303.711
303.733
303.764
302.029
302.102
302.973
306.191
302.586
301.402
301.637
303.583
302.763
303.184
302.838
298.913
300.169
301.211
301.124
302.102
303.049
300.598
300.582
299.686
301.231
301.547
305.381
299.263
302.623
298.961
299.641
300.807
301.056
303.341
316.533
316.674
320.565
318.709
318.637
317.952
320.858
318.131
320.978
318.695
318.101
320.874
318.95
317.807
318.126
317.684
316.145
320.284
318.487
318.486
314.735
316.178
315.74
317.564
314.124
314.871
316.885
316.22
319.146
315.34
319.008
317.703
319.592
317.443
317.825
317.285
314.424
315.322
315.197
317.991
314.134
314.859
314.092
316.775
314.388
315.183
313.506
314.737
315.135
315.08
313.724
312.914
311.898
312.99
314.235
311.251
313.351
312.962
313.205
311.045
308.457
310.275
311.238
310.811
316.06
313.955
312.194
310.611
313.009
311.077
308.86
312.912
310.527
309.158
313.521
313.014
310.397
310.636
309.993
312.272
308.938
305.95
308.864
305.509
307.773
307.24
308.651
310.336
308.433
309.157
307.958
308.635
311.445
308.036
309.428
305.912
308.289
309.303
307.469
308.716
307.276
305.838
306.815
307.608
307.468
308.267
306.838
307.723
305.202
308.304
304.298
305.19
304.752
307.598
308.793
304.796
305.027
303.301
305.72
307.299
302.852
303.613
304.447
302.276
304.152
304.2
304.038
302.684
302.6
304.623
303.644
304.821
304.429
305.175
301.566
305.734
305.708
302.239
304.394
304.727
300.026
300.993
301.493
299.389
299.933
302.967
298.829
302.163
299.663
298.979
299.413
304.243
299.999
301.527
300.08
301.266
298.616
299.925
301.361
300.894
318.153
317.569
317.54
321.434
320.256
319.141
318.559
320.554
319.711
320.353
320.324
318.477
320.338
317.187
319.449
321.375
317.878
318.59
320.84
319.178
316.101
316.706
320.948
316.008
316.952
318.364
316.849
319.629
317.423
319.273
320.129
316.095
319.403
317.87
319.138
314.99
317.939
317.493
317.925
316.376
312.987
312.685
315.499
312.954
313.929
312.513
313.815
314.198
310.841
314.96
314.911
315.702
315.198
313.676
315.553
315.565
313.611
312.536
313.372
314.93
309.777
311.599
309.529
309.927
311.238
312.108
311.451
310.542
311.223
309.931
312.342
312.084
310.849
312.069
312.334
313.245
313.075
308.793
310.423
311.225
309.33
308.724
308.227
308.164
308.89
309.299
308.474
307.867
308.915
310.329
309.468
310.212
307.74
308.937
310.691
309.902
310.37
311.393
307.95
309.024
303.355
304.051
308.186
304.892
306.051
306.376
307.675
303.269
308.068
307.102
305.935
307.357
307.434
305.727
305.93
304.266
305.593
306.498
304.385
304.721
303.522
303.947
305.221
305.925
305.667
302.331
305.542
303.998
302.73
304.958
305.259
303.894
304.704
306.131
303.115
304.401
306.523
304.385
302.162
302.715
302.747
299.967
302.246
299.363
299.872
301.62
301.842
303.181
300.986
302.606
302.205
301.568
301.589
301.573
300.66
301.142
300.811
302.073
302.16
303.987
318.725
318.573
320.032
317.559
321.469
324.24
320.015
320.784
324.983
322.232
319.966
321.156
318.654
323.71
320.469
318.327
321.025
319.902
321.083
321.359
317.648
317.759
315.727
319.825
317.002
319.647
316.186
316.771
319.024
318.834
321.412
317.055
318.118
317.435
318.005
319.497
317.049
315.384
317.844
318.767
315.061
315.397
315.897
316.138
312.679
317.745
313.038
316.754
314.654
316.023
314.417
316.979
314.241
315.96
313.039
314.446
319.017
316.314
313.655
313.41
315.119
311.347
310.284
310.843
312.043
311.825
312.449
313.201
313.328
311.692
311.893
313.82
312.07
309.037
312.963
312.988
311.933
313.611
311.266
309.624
309.321
311.088
310.081
308.619
311.479
311.237
308.998
307.237
310.721
309.248
310.664
309.362
309.896
309.329
309.541
310.376
309.248
309.022
311.403
307.636
307.371
305.575
309.357
307.668
307.767
306.668
305.813
307.639
306.951
307.617
309.976
308.001
308.195
309.056
307.013
306.752
307.822
307.953
306.471
307.277
303.285
304.776
304.49
304.41
304.691
304.077
304.066
302.972
304.16
304.038
305.838
303.477
303.452
305.385
304.008
304.055
303.641
303.619
305.544
303.217
301.189
302.188
301.564
302.146
300.869
299.528
299.447
301.546
299.668
301.158
301.363
300.136
300.287
300.749
301.045
302.745
301.561
299.659
302.791
301.41
320.352
322.561
322.51
323.322
318.328
322.22
321.362
322.776
320.544
323.321
323.129
323.377
323.416
322.165
324.104
320.471
322.41
323.82
321.16
321.981
318.347
318.011
319.52
318.714
319.897
320.156
321.597
320.941
319.726
320.079
320.723
320.207
319.274
316.643
319.51
320.119
318.774
319.039
317.932
316.81
313.314
315.806
317.483
317.134
319.22
318.254
317.524
317.17
315.807
317.157
317.868
315.554
316.279
318.402
315.905
316.254
315.201
315.003
313.9
314.142
309.063
312.458
311.474
311.795
314.215
314.571
313.249
313.071
314.375
312.259
312.015
314.62
312.692
314.2
313.566
315.101
314.236
311.397
313.867
313.507
310.55
308.971
310.382
308.931
310.355
310.778
313.506
308.432
308.458
311.743
309.512
312.997
311.393
307.467
307.51
309.407
314.017
309.473
312.966
310.409
305.779
308.688
305.642
305.63
308.918
308.082
310.388
309.082
306.713
307.01
308.364
308.028
304.035
305.092
309.34
309.014
307.855
307.912
310.244
308.395
302.414
305.692
304.483
301.174
305.098
307.009
302.224
306.152
304.456
305.386
305.043
303.593
303.971
306.005
307.083
303.016
304.617
304.227
303.725
305.373
300.439
300.867
302.819
301.826
300.849
302.47
301.355
302.313
302.897
299.636
302.292
300.717
299.968
301.357
299.541
302.389
302.319
303.03
302.364
300.875
320.802
321.902
321.859
325.5
323.013
320.802
321.504
322.731
322.05
322.422
325.105
324.141
321.455
325.512
320.365
323.05
324.741
321.147
320.561
323.143
320.561
319.298
319.441
316.113
319.997
319.196
320.852
320.32
319.156
317.936
320.301
321.696
315.867
319.32
319.312
320.266
317.114
316.302
319.203
318.16
316.772
314.29
317.777
318.056
315.565
315.266
314.204
316.453
317.929
315.381
318.376
318.353
318.223
317.912
317.57
317.982
321.108
317.045
315.917
315.321
313.318
311.571
314.966
316.066
312.825
314.739
314.449
314.743
313.229
313.078
316.334
315.156
312.203
315.071
314.597
315.018
315.382
312.316
312.367
315.379
310.679
310.082
312.121
310.616
311.634
312.155
310.159
310.493
309.259
309.25
311.567
309.152
309.767
311.275
311.829
312.414
309.311
312.992
309.874
311.269
307.363
306.041
306.791
306.345
307.2
308.827
306.54
308.03
308.299
306.11
309.073
310.049
307.03
309.528
309.863
308.451
309.479
309.383
307.223
307.988
305.084
304.332
303.968
306.533
303.576
304.013
306.882
304.758
305.922
303.156
305.492
305.097
305.624
306.9
302.194
304.515
304.146
305.338
304.858
303.332
304.292
302.16
300.213
302.879
303.52
301.018
300.998
301.628
301.591
300.949
303.066
302.501
304.829
301.348
303.821
299.987
299.836
303.611
303.016
300.664
324.254
322.016
322.727
323.044
324.86
326.257
324.381
323.338
323.566
325.492
321.765
324.235
324.584
327.167
325.157
324.964
323.125
322.254
322.48
323.477
317.812
318.291
320.476
318.252
320.115
320.851
321.737
320.348
323.203
321.414
322.207
321.057
320.619
322.81
319.176
319.247
320.045
323.328
318.97
319.03
317.852
316.156
318.072
320.927
315.769
317.937
319.29
319.627
319.599
320.884
314.98
318.896
317.391
317.841
317.019
318.048
314.747
316.851
317.68
318.346
316.735
313.605
314.763
315.263
316.761
312.348
315.075
316.708
315.988
314.635
314.252
313.218
314.611
313.388
317.807
313.117
314.771
313.135
316.291
312.407
309.662
313.652
311.489
310.239
309.009
309.863
310.001
311.084
309.939
311.529
312.91
311.319
310.46
312.299
313.718
311.006
309.057
311.319
310.65
312.361
308.491
305.373
305.553
307.676
309.059
309.642
308.523
306.02
305.384
308.225
309.374
309.211
307.767
309.227
309.071
309.265
307.332
308.515
306.444
306.716
305.003
302.638
303.992
301.908
303.239
302.509
306.274
303.201
304.864
302.524
303.451
304.926
303.66
306.943
305.833
306.218
304.955
304.849
303.414
305.65
302.115
302.492
299.539
304.743
300.776
302.764
300.579
302.093
303.049
299.488
302.247
300.827
300.601
299.477
301.89
303.396
302.562
301.255
305.048
303.811
321.39
325.767
324.538
324.668
324.18
324.583
326.066
324.246
322.998
325.211
326.561
325.441
324.642
327.794
324.376
322.282
325.029
322.582
326.851
323.632
320.083
317.854
322.772
319.25
320.165
320.47
320.003
320.776
323.41
322.29
321.513
321.266
320.657
323.242
320.391
321.867
319.783
319.661
318.711
320.468
317.082
314.991
316.824
314.459
319.665
318.651
317.509
319.856
320.702
320.346
317.942
318.012
318.654
317.629
318.844
319.326
315.49
318.06
317.275
316.117
314.33
312.236
315.122
312.931
316.006
314.856
316.085
315.941
314.364
310.999
314.204
316.544
316.84
314.006
316.002
314.808
315.63
315.669
315.582
315.988
308.185
309.333
311.48
310.865
312.085
312.521
311.967
312.611
311.909
309.228
310.666
312.152
312.681
313.696
312.329
311.859
311.281
310.913
311.779
310.13
307.696
306.738
310.084
308.707
306.679
310.892
311.309
309.582
306.982
309.229
305.924
308.546
309.553
309.212
308.4
310.997
309.287
306.591
308.633
307.897
304.227
303.444
304.696
303.347
306.396
304.306
304.543
305.33
304.885
302.394
305.295
307.409
305.001
305.447
306.62
305.574
302.998
306.272
304.178
304.739
301.676
302.118
299.725
303.51
301.084
301.297
301.676
300.326
301.197
301.745
302.225
300.404
301.413
300.171
301.322
303.158
298.874
302.39
304.234
300.552
321.363
324.8
327.393
324.034
328.424
326.282
326.496
326.395
326.987
328.771
327.285
327.636
326.516
328.203
323.797
325.248
324.868
322.936
327.227
322.451
322.452
321.317
322.036
322.869
323.271
324.796
322.226
321.924
322.043
322.792
323.911
322.212
321.003
323.436
323.058
322.422
323.62
324.124
323.996
323.329
315.725
314.149
318.305
320.59
320.618
318.823
318.697
321.227
316.102
318.183
319.885
316.814
320.502
320.301
319.27
320.637
318.645
320.192
318.401
318.85
315.246
314.213
314.966
313.336
316.856
316.599
317.59
315.796
318.468
317.265
318.463
314.679
318.531
317.794
315.849
314.281
317.073
315.518
316.723
315.076
312.688
310.473
309.487
312.2
313.932
311.343
310.42
311.925
312.447
315.196
311.501
312.404
313.328
314.091
311.486
311.829
310.858
314.97
310.921
311.044
307.387
306.498
305.716
310.298
310.541
307.732
311.006
306.985
306.575
309.708
306.753
308.738
309.33
307.394
308.158
309.871
309.329
308.272
307.889
304.54
303.791
305.775
305.322
307.61
303.371
303.03
304.605
306.3
306.678
303.149
306.128
304.655
302.899
305.306
306.607
302.175
302.899
306.313
306.42
306.692
303.877
299.219
302.863
301.831
300.054
300.599
304.662
302.913
301.646
301.353
301.979
301.802
299.069
303.274
303.32
303.691
301.797
304.344
302.091
303.08
323.799
325.419
326.341
325.808
325.482
326.496
325.692
326.167
328.633
328.595
326.509
328.058
328.939
325.57
329.634
328.318
323.037
325.304
328.289
324.005
320.477
319.097
321.275
320.398
325.368
322.041
324.094
322.036
325.009
321.804
322.523
323.375
322.263
323.362
322.435
318.95
320.852
322.764
320.541
322.663
313.247
319.18
316.049
319.029
319.804
320.026
318.641
319.435
320.706
320.695
322.701
319.961
321.85
321.392
319.461
316.941
318.563
318.134
318.611
319.351
311.55
317.302
313.091
314.993
318.764
314.153
316.787
317.271
316.277
317.97
317.202
315.546
314.937
317.974
315.575
317.13
313.206
314.514
313.091
317.218
312.343
312.513
310.018
312.038
310.501
311.931
311.589
310.967
311.468
312.954
312.947
313.507
311.779
313.576
310.467
310.413
313.923
312.228
312.087
312.919
308.378
308.02
308.469
308.732
308.595
307.411
306.897
308.219
308.384
306.914
309.561
310.179
309.417
306.677
309.243
309.989
309.573
310.532
308.892
306.474
308.746
305.553
304.655
308.356
303.216
303.006
302.845
305.63
305.781
305.473
304.58
305.661
304.843
304.238
304.79
304.785
306.935
306.219
306.318
301.986
303.022
302.776
301.774
301.955
300.842
304.135
302.542
303.758
302.244
303.814
300.117
302.504
300.935
302.924
302.821
299.235
298.534
301.611
300.466
298.66
324.466
326.946
323.26
327.383
327.141
326.506
328.497
326.445
329.049
326.242
327.517
327.874
327.646
329.026
329.063
326.376
326.921
327.693
325.366
323.007
324.552
323.477
323.599
325.962
321.341
322.73
324.774
325.096
325.258
324.49
322.856
325.343
322.981
323.339
323.854
327.19
324.116
324.285
324.967
321.719
316.064
314.994
317.331
320.129
320.711
319.155
319.076
319.602
321.243
322.028
319.947
320.302
321.266
320.04
322.918
322.068
321.5
321.022
319.803
318.523
313.988
315.863
315.732
316.788
314.872
315.809
319.584
318.541
318.666
317.594
316.182
314.727
317.97
315.897
315.398
313.62
318.594
317.967
315.915
315.563
312.62
312.101
313.589
313.098
312.425
311.519
312.635
312.906
313.515
315.676
315.484
311.416
313.268
314.498
313.042
311.715
313.176
312.391
313.178
313.335
308.986
308.681
307.585
308.536
309.477
311.659
309.894
308.532
308.763
310.355
306.839
308.442
314.991
310.092
308.46
311.47
306.591
305.469
308.133
307.82
303.02
307.646
306.962
307.251
304.92
308.075
305.305
306.548
305.866
304.903
305.581
305.478
305.68
303.536
304.92
304.422
303.728
305.475
307.452
304.885
301.727
302.945
303.407
301.62
300.497
301.941
301.636
303.533
301.234
302.245
301.24
303.406
301.727
300.275
303.206
303.433
302.098
303.268
302.18
298.046
327.605
324.423
331.883
327.472
329.984
329.247
328.414
330.552
329.037
329.755
327.962
329.013
328.691
329.195
329.322
328.044
328.301
329.878
325.262
326.744
319.987
321.194
322.102
322.262
326.121
323.46
326.036
322.906
325.179
323.744
323.52
326.289
322.484
324.848
322.18
326.433
322.207
325.017
321.922
323.563
319.355
319.514
319.696
319.136
322.193
322.524
319.703
321.902
320.193
322.356
320.838
321.573
321.844
318.746
322.031
321.22
320.14
320.822
320.457
322.199
315.434
314.554
314.599
315.49
318.402
315.927
318.325
317.837
319.902
316.691
319.635
316.756
317.893
314.018
318.905
319.113
317.243
317.195
316.177
317.085
314.624
312.213
312.804
314.675
310.664
313.841
312.662
313.419
310.457
313.201
312.733
311.705
312.912
314.487
313.001
313.498
311.8
313.771
313.612
314.931
307.432
309.129
310.001
311.757
310.531
309.126
309.513
308.425
309.444
310.744
312.645
311.526
307.7
309.105
308.629
309.603
306.149
310.056
310.947
311.108
303.233
303.347
303.962
308.665
307.385
305.28
303.294
306.209
306.477
306.921
304.075
305.946
304.556
304.546
304.455
306.493
306.387
307.611
304.989
304.227
303.124
302.083
303.397
302.787
306.035
301.387
302.278
301.461
301.531
301.068
302.709
303.074
303.888
304.645
303.23
302.504
304.754
301.545
301.005
302.615
324.941
327.295
328.823
326.797
328.063
331.021
330.655
331.892
329.444
329.702
330.198
329.663
329.513
331.166
327.2
328.697
329.772
330.221
329.861
325.755
323.074
324.948
323.164
324.259
325.852
327.748
322.272
326.899
327.793
326.094
326.973
326.706
326.968
329.765
324.079
324.57
325.921
327.698
323.921
321.844
321.003
320.878
320.757
320.459
320.086
319.342
320.784
321.856
319.023
321.975
322.211
323.603
321.207
322.869
322.05
318.683
321.563
321.577
319.415
322.632
317.749
315.545
318.573
315.838
317.187
318.545
318.402
315.923
320.356
316.924
318.95
320.402
320.499
317.327
317.134
319.113
316.591
317.428
315.109
317.667
317.01
312.231
313.957
311.772
311.312
311.392
310.734
316.241
313.796
314.229
313.339
315.778
314.143
313.211
316.34
314.246
313.914
313.44
314.084
311.828
309.083
308.132
308.645
309.271
310.776
308.961
308.214
308.107
308.699
308.918
308.076
311.894
307.386
311.476
309.92
307.642
307.728
312.705
311.408
309.898
307.449
305.816
307.524
304.896
303.678
305.915
307.362
307.384
304.024
306.964
304.452
302.912
305.483
306.649
305.067
306.825
304.151
309.651
305.129
306.336
300.645
302.555
304.139
300.078
304.2
304.11
304.303
301.802
303.765
300.503
300.627
301.359
300.348
301.873
303.253
301.095
300.678
303.498
302.257
301.194
329.358
325.68
328.374
330.617
325.37
327.471
328.709
327.253
332.306
331.287
329.136
331.299
331.21
327.239
330.126
329.833
331.584
330.262
330.411
328.83
325.454
323.41
325.705
322.746
323.632
324.984
324.684
324.542
325.437
324.119
324.992
328.379
324.414
325.312
324.331
325.457
324.409
327.781
323.16
323.077
319.391
319.789
322.502
324.615
319.657
318.952
323.542
321.004
325.151
323.418
323.242
321.717
322.834
322.36
324.54
323.543
321.066
320.118
322.395
321.545
317.614
317
319.236
315.731
316.136
316.692
319.73
317.28
316.555
317.566
317.145
321.691
319.647
316.171
319.068
316.848
318.907
316.175
319.766
313.482
312.847
311.159
313.409
312.563
315.488
314.634
312.282
314.452
315.722
314.957
316.81
316.271
315.271
314.537
314.212
313.461
313.663
315.304
317.05
308.683
306.552
308.605
310.893
309.58
308.297
311.832
308.775
310.705
312.838
308.225
311.894
311.486
310.606
310.933
310.363
310.188
309.489
307.086
310.153
309.201
304.961
306.269
304.513
308.063
305.991
303.579
305.653
305.207
304.855
306.124
309.407
307.065
304.7
307.929
306.644
306.03
302.688
308.231
304.699
303.283
302.748
302.711
300.108
302.206
299.715
302.938
302.28
301.031
302.555
302.617
302.89
301.391
301.448
301.874
300.605
301.475
300.098
302.051
304.3
302.321
330.18
327.887
327.912
329.275
330.085
329.416
329.205
332.423
333.498
333.204
332.33
331.339
330.492
335.627
329.606
334.231
328.593
329.301
330.526
327.556
324.5
324.748
325.187
324.328
322.188
324.552
327.271
327.567
330.44
326.008
328.391
326.236
327.08
324.103
324.823
329.521
328.423
325.029
326.614
325.957
321.655
319.776
321.066
321.887
322.707
321.903
322.79
322.239
324.396
323.185
324.017
322.597
321.754
323.873
321.799
321.08
321.927
324.372
323.799
319.313
318.464
318.541
317.559
321.432
316.116
320.507
319.44
321.369
319.71
317.076
314.706
318.421
317.531
318.138
316.839
318.972
316.807
316.882
318.353
319
314.336
313.292
316.463
313.455
315.205
313.285
315.793
316.848
314.037
315.834
316.665
315.088
313.268
314.332
312.723
314.963
315.21
315.849
314.622
315.088
310.142
310.615
311.717
313.635
310.179
310.815
311.999
310.578
310.873
312.035
312.396
311.04
313.375
311.032
309.233
308.002
309.948
308.147
310.234
308.21
305.629
306.44
303.616
305.497
306.595
303.759
304.466
304.774
309.7
307.796
307.755
306.254
307.497
309.261
306.404
305.466
307.117
303.624
303.871
305.768
299.981
299.415
305.264
302.572
299.005
299.654
299.715
298.549
302.611
302.589
302.684
303.691
301.997
303.722
301.649
301.196
300.832
302.823
300.502
302.34
327.312
329.318
328.795
330.887
328.457
330.767
332.007
331.759
331.586
332.088
332.3
332.83
333.177
331.108
331.061
332.039
331.226
330.449
331.521
330.188
322.804
325.45
324.788
324.299
327.375
325.531
328.131
326.346
327.986
325.971
325.972
328.11
325.71
325.541
326.411
328.593
325.547
327.102
324.863
323.852
321.355
320.689
322.784
320.444
322.265
322.036
322.123
326.102
323.786
327.348
325.708
324.657
323.665
323.507
322.552
322.054
326.5
321.816
323.847
322.708
316.663
318.351
317.025
316.918
320.534
318.092
318.21
320.551
319.445
317.287
318.736
320.566
320.756
320.151
316.819
319.934
320.062
319.048
318.527
316.821
312.922
313.52
313.889
313.241
310.101
311.545
314.437
315.82
315.675
314.623
316.345
315.063
316.186
316.345
315.454
315.381
314.857
312.487
313.204
314.518
308.286
308.83
308.338
310.293
308.673
310.888
311.987
313.238
312.875
310.061
311.448
311.037
309.806
313.244
314.902
310.496
310.786
309.998
311.412
311.449
305.458
305.158
306.854
307.892
308.306
306.652
307.62
308.737
308.007
308.865
305.331
308.598
304.87
307.257
308.286
307.693
306.064
302.854
304.89
307.316
301.701
302.135
301.651
301.161
300.74
301.777
300.795
300.8
304.95
304.936
304.365
302.37
298.445
303.088
301.054
300.532
301.066
301.294
302.038
299.952
324.9
327.897
329.122
330.247
332.957
332.634
329.251
330.955
333.257
332.246
333.769
329.866
333.434
331.201
332.106
332.264
331.864
334.636
329.967
330.996
322.887
324.676
324.89
326.471
327.216
324.857
327.907
326.663
330
327.446
329.721
330.889
329.756
329.877
326.309
326.846
326.807
326.961
327.818
322.669
321.919
322.023
323.276
322.996
323.234
323.743
322.33
321.179
323.697
322.051
323.727
324.373
325.483
322.715
325.36
325.79
322.392
323.761
321.174
320.681
314.802
318.364
316.687
317.939
316.301
318.553
320.18
316.388
318.349
319.161
320.459
318.384
319.058
319.15
318.244
321.681
319.686
320.817
314.485
316.556
312.626
311.731
312.941
312.678
316.845
315.888
314.359
315.141
316.106
315.637
313.582
316.366
315.466
314.484
314.226
315.489
314.712
314.116
312.86
312.017
309.335
309.564
309.184
312.686
310.433
312.024
310.406
309.871
309.372
311.914
311.504
312.955
310.466
312.167
313.63
313.528
311.536
309.802
311.626
310.675
303.303
304.321
306.371
305.517
307.247
306.79
306.28
304.796
304.59
306.048
308.165
306.99
305.415
306.321
305.229
307.317
306.985
302.429
305.788
308.262
303.726
302.927
300.496
302.181
301.151
299.428
301.696
300.798
301.615
302.043
302.414
303.666
301.96
301.168
299.56
302.723
302.369
301.669
301.273
301.952
)
;

boundaryField
{
    hotSide
    {
        type            fixedGradient;
        gradient        nonuniform List<scalar> 
400
(
321.511
322.87
325.591
329.677
335.133
341.965
350.181
359.788
370.794
383.208
397.037
412.289
428.971
447.088
466.647
487.651
510.105
534.011
559.372
586.191
323.738
325.08
327.767
331.802
337.194
343.949
352.078
361.591
372.498
384.81
398.537
413.687
430.268
448.289
467.755
488.672
511.043
534.872
560.161
586.913
326.149
327.47
330.116
334.091
339.406
346.071
354.099
363.503
374.296
386.491
400.101
415.136
431.606
449.52
468.885
489.706
511.988
535.735
560.948
587.63
328.704
330
332.597
336.503
341.73
348.292
356.205
365.485
376.15
388.215
401.695
416.604
432.954
450.753
470.009
490.73
512.919
536.579
561.714
588.325
331.33
332.599
335.142
338.97
344.099
350.546
358.332
367.477
378.003
389.928
403.271
418.047
434.27
451.949
471.095
491.712
513.807
537.382
562.439
588.978
333.918
335.158
337.643
341.389
346.414
352.74
360.392
369.397
379.779
391.562
404.765
419.407
435.503
453.065
472.101
492.618
514.622
538.114
563.096
589.569
336.321
337.531
339.959
343.622
348.544
354.751
362.274
371.142
381.385
393.031
406.101
420.618
436.595
454.047
472.983
493.409
515.33
538.747
563.663
590.076
338.36
339.543
341.92
345.509
350.339
356.44
363.847
372.595
382.718
394.244
407.2
421.608
437.485
454.844
473.695
494.045
515.897
539.253
564.114
590.478
339.852
341.015
343.352
346.885
351.645
357.665
364.985
373.643
383.675
395.113
407.984
422.312
438.116
455.407
474.197
494.491
516.294
539.606
564.428
590.758
340.643
341.795
344.11
347.613
352.334
358.311
365.584
374.193
384.176
395.567
408.393
422.679
438.443
455.699
474.456
494.722
516.498
539.788
564.589
590.901
340.643
341.795
344.11
347.613
352.334
358.311
365.584
374.193
384.176
395.567
408.393
422.679
438.443
455.699
474.456
494.722
516.498
539.788
564.589
590.901
339.852
341.015
343.352
346.885
351.645
357.665
364.985
373.643
383.675
395.113
407.984
422.312
438.116
455.407
474.197
494.491
516.294
539.606
564.428
590.758
338.36
339.543
341.92
345.509
350.339
356.44
363.847
372.595
382.718
394.244
407.2
421.608
437.485
454.844
473.695
494.045
515.897
539.253
564.114
590.478
336.321
337.531
339.959
343.622
348.544
354.751
362.274
371.142
381.385
393.031
406.101
420.618
436.595
454.047
472.983
493.409
515.33
538.747
563.663
590.076
333.918
335.158
337.643
341.389
346.414
352.74
360.392
369.397
379.779
391.562
404.765
419.407
435.503
453.065
472.101
492.618
514.622
538.114
563.096
589.569
331.33
332.599
335.142
338.97
344.099
350.546
358.332
367.477
378.003
389.928
403.271
418.047
434.27
451.949
471.095
491.712
513.807
537.382
562.439
588.978
328.704
330
332.597
336.503
341.73
348.292
356.205
365.485
376.15
388.215
401.695
416.604
432.954
450.753
470.009
490.73
512.919
536.579
561.714
588.325
326.149
327.47
330.116
334.091
339.406
346.071
354.099
363.503
374.296
386.491
400.101
415.136
431.606
449.52
468.885
489.706
511.988
535.735
560.948
587.63
323.738
325.08
327.767
331.802
337.194
343.949
352.078
361.591
372.498
384.81
398.537
413.687
430.268
448.289
467.755
488.672
511.043
534.872
560.161
586.913
321.511
322.87
325.591
329.677
335.133
341.965
350.181
359.788
370.794
383.208
397.037
412.289
428.971
447.088
466.647
487.651
510.105
534.011
559.372
586.191
)
;
    }
    coldSide
    {
        type            mixed;
        refValue        uniform 300;
        refGradient     uniform 0;
        valueFraction   uniform 0.991591;
        source          uniform 0;
        value           nonuniform List<scalar> 
400
(
300.015
300.015
300.002
300.024
300
300.023
300.01
300.004
300.036
300.018
300.014
300.033
300.025
300.015
300.026
300.005
300.023
300
300.014
300.031
300.002
300.013
300
299.991
300.008
300
300.018
300.007
300.018
300.021
300.018
299.993
300.023
300.025
300.018
300.021
300.023
299.995
300.018
300.025
300.012
300.006