/*--------------------------------*- C++ -*----------------------------------*\
| =========                 |                                                 |
| \\      /  F ield         | OpenFOAM: The Open Source CFD Toolbox           |
|  \\    /   O peration     | Version:  2212                                  |
|   \\  /    A nd           | Website:  www.openfoam.com                      |
|    \\/     M anipulation  |                                                 |
\*---------------------------------------------------------------------------*/
FoamFile
{
    version     2.0;
    format      ascii;
    arch        "LSB;label=32;scalar=64";
    class       volScalarField;
    location    "0";
    object      stateMean;
}
// * * * * * * * * * * * * * * * * * * * * * * * * * * * * * * * * * * * * * //

dimensions      [0 0 0 1 0 0 0];

internalField   nonuniform List<scalar> 
3200
(
330.608
329.704
329.049
328.778
328.959
329.296
329.853
330.337
330.79
330.984
331.08
330.845
330.426
329.963
329.268
328.745
328.335
328.343
328.882
329.604
327.015
326.234
325.605
325.463
325.531
325.867
326.256
326.732
327.002
327.241
327.264
327.128
326.718
326.225
325.807
325.355
325.06
325.094
325.361
326.135
323.182
322.53
322.041
321.758
321.864
322.223
322.556
322.895
323.193
323.273
323.339
323.272
322.948
322.55
322.092
321.645
321.465
321.553
321.892
322.486
319.142
318.637
318.23
318.02
318.138
318.313
318.529
318.875
319.154
319.24
319.284
319.198
319.003
318.724
318.308
318.007
317.859
317.786
318.19
318.578
315.017
314.741
314.281
314.188
314.225
314.314
314.603
314.854
315.006
315.124
315.135
315.074
314.874
314.578
314.29
314.045
314.022
314
314.334
314.605
310.85
310.509
310.32
310.164
310.292
310.376
310.523
310.646
310.772
310.848
310.82
310.853
310.661
310.465
310.337
310.128
310.068
310.083
310.353
310.528
306.551
306.386
306.224
306.192
306.187
306.23
306.369
306.401
306.52
306.503
306.571
306.559
306.472
306.312
306.213
306.112
306.132
306.011
306.254
306.305
302.162
302.147
302.061
302.073
302.071
302.125
302.134
302.146
302.214
302.228
302.272
302.172
302.127
302.18
302.134
302.067
301.975
302.031
302.132
302.078
330.868
330.051
329.257
329.198
329.332
329.848
330.249
330.795
331.263
331.489
331.534
331.4
330.904
330.339
329.704
329.087
328.669
328.699
329.103
329.841
327.141
326.458
325.894
325.65
325.896
326.197
326.576
327.081
327.468
327.71
327.744
327.564
327.225
326.602
326.081
325.681
325.408
325.209
325.731
326.322
323.272
322.691
322.219
322.003
322.155
322.352
322.77
323.224
323.508
323.674
323.717
323.508
323.284
322.828
322.324
322.048
321.67
321.858
322.111
322.645
319.254
318.775
318.291
318.227
318.29
318.543
318.825
319.093
319.413
319.556
319.635
319.45
319.253
318.947
318.572
318.179
317.951
318.084
318.274
318.766
315.092
314.729
314.374
314.279
314.33
314.499
314.789
314.933
315.255
315.282
315.356
315.237
315.107
314.818
314.513
314.286
314.158
314.224
314.427
314.682
310.869
310.654
310.316
310.284
310.387
310.567
310.599
310.763
310.855
310.881
311.026
311.02
310.852
310.59
310.448
310.237
310.136
310.109
310.376
310.561
306.625
306.436
306.275
306.16
306.124
306.297
306.491
306.436
306.65
306.687
306.625
306.607
306.537
306.452
306.31
306.236
306.123
306.169
306.218
306.426
302.26
302.212
302.068
302.137
302.097
302.107
302.203
302.209
302.209
302.201
302.266
302.236
302.186
302.157
302.086
302.101
302.071
302.043
302.088
302.215
331.345
330.474
329.916
329.714
329.982
330.377
330.929
331.53
331.966
332.249
332.363
332.226
331.682
331.108
330.446
329.742
329.318
329.246
329.565
330.254
327.608
326.93
326.381
326.15
326.368
326.663
327.246
327.691
328.085
328.341
328.37
328.192
327.865
327.338
326.757
326.216
325.904
325.697
326.171
326.818
323.66
323.108
322.602
322.483
322.618
322.821
323.282
323.685
323.985
324.184
324.286
324.167
323.849
323.388
322.889
322.515
322.183
322.18
322.479
323.045
319.624
319.123
318.707
318.558
318.637
318.969
319.112
319.625
319.78
319.975
320.025
319.963
319.741
319.379
318.893
318.645
318.325
318.367
318.651
319.06
315.37
314.956
314.641
314.538
314.63
314.792
315.054
315.357
315.457
315.672
315.782
315.703
315.361
315.154
314.904
314.58
314.344
314.503
314.571
315.04
311.1
310.727
310.627
310.424
310.482
310.625
310.81
310.934
311.091
311.253
311.263
311.205
311.127
310.938
310.628
310.461
310.304
310.361
310.575
310.747
306.681
306.496
306.366
306.321
306.337
306.418
306.596
306.646
306.672
306.875
306.834
306.747
306.646
306.58
306.481
306.394
306.27
306.235
306.293
306.479
302.217
302.234
302.136
302.152
302.071
302.189
302.172
302.228
302.215
302.207
302.298
302.267
302.273
302.21
302.183
302.079
302.102
302.108
302.185
302.095
331.99
331.172
330.609
330.355
330.676
331.104
331.781
332.392
332.941
333.275
333.36
333.054
332.602
331.961
331.238
330.561
330.092
330
330.34
330.983
328.2
327.543
327.022
326.804
326.962
327.417
327.908
328.561
328.851
329.17
329.315
329.066
328.673
328.113
327.475
326.926
326.482
326.379
326.66
327.27
324.186
323.527
323.081
323.052
323.072
323.442
323.864
324.339
324.673
325.022
325.08
324.923
324.595
324.036
323.535
323.107
322.801
322.695
323.015
323.417
320.049
319.403
319.127
319.008
319.105
319.428
319.783
320.131
320.367
320.624
320.669
320.479
320.277
319.849
319.513
319.134
318.861
318.773
319.046
319.492
315.732
315.339
315.021
314.905
314.956
315.231
315.464
315.706
315.88
316.14
316.173
316.093
315.883
315.591
315.244
314.959
314.821
314.764
314.989
315.301
311.243
311.064
310.849
310.718
310.755
310.925
311.087
311.279
311.477
311.587
311.6
311.497
311.416
311.173
310.934
310.755
310.547
310.618
310.759
310.997
306.794
306.638
306.498
306.433
306.538
306.631
306.686
306.8
306.896
307.008
306.984
306.946
306.928
306.731
306.611
306.571
306.42
306.424
306.455
306.643
302.263
302.198
302.168
302.104
302.153
302.252
302.185
302.382
302.359
302.356
302.346
302.358
302.289
302.29
302.239
302.158
302.19
302.167
302.194
302.227
332.884
332.141
331.524
331.404
331.65
332.093
332.76
333.299
333.906
334.329
334.421
334.192
333.676
333.108
332.263
331.561
331.079
330.873
331.305
331.928
328.945
328.316
327.779
327.646
327.84
328.214
328.762
329.289
329.823
330.122
330.212
329.989
329.648
329.03
328.364
327.81
327.39
327.275
327.576
328.112
324.794
324.273
323.767
323.722
323.772
324.222
324.625
325.061
325.451
325.707
325.851
325.716
325.339
324.818
324.29
323.818
323.424
323.449
323.789
324.102
320.469
320.065
319.722
319.572
319.736
320.003
320.322
320.707
321.053
321.25
321.325
321.096
320.963
320.59
320.005
319.671
319.458
319.339
319.588
319.905
316.109
315.688
315.402
315.335
315.46
315.62
315.867
316.235
316.469
316.651
316.67
316.629
316.43
316.086
315.728
315.368
315.239
315.221
315.366
315.665
311.529
311.294
311.097
311.043
311.102
311.162
311.418
311.652
311.782
311.995
312.029
311.958
311.834
311.51
311.323
311.058
310.924
310.975
311.108
311.341
306.936
306.768
306.729
306.747
306.736
306.817
306.871
306.923
307.156
307.196
307.27
307.217
307.069
306.972
306.761
306.658
306.555
306.63
306.684
306.789
302.409
302.33
302.211
302.214
302.336
302.212
302.342
302.375
302.378
302.399
302.341
302.327
302.383
302.35
302.238
302.267
302.247
302.204
302.174
302.268
333.924
333.175
332.58
332.519
332.659
333.236
333.835
334.496
335.098
335.511
335.602
335.359
334.925
334.19
333.417
332.751
332.206
332.172
332.355
332.968
329.817
329.203
328.776
328.601
328.7
329.169
329.655
330.301
330.766
331.187
331.164
331.062
330.646
330.053
329.429
328.72
328.339
328.288
328.51
329.095
325.579
325.047
324.686
324.537
324.712
324.955
325.41
325.845
326.314
326.577
326.683
326.557
326.211
325.746
325.112
324.673
324.309
324.255
324.537
324.888
321.159
320.633
320.323
320.28
320.355
320.628
320.973
321.378
321.691
321.927
322.05
321.934
321.62
321.335
320.779
320.356
320.162
320.102
320.276
320.629
316.594
316.249
315.993
315.813
315.999
316.182
316.473
316.709
316.966
317.164
317.188
317.13
316.918
316.661
316.288
315.952
315.783
315.78
315.852
316.18
311.942
311.613
311.461
311.422
311.435
311.645
311.86
312.048
312.184
312.279
312.502
312.349
312.159
311.933
311.675
311.477
311.305
311.334
311.465
311.621
307.18
307.078
306.941
306.894
306.964
306.982
307.137
307.281
307.4
307.432
307.546
307.466
307.384
307.19
307.041
306.912
306.843
306.808
306.839
306.937
302.349
302.373
302.344
302.351
302.28
302.375
302.359
302.356
302.458
302.467
302.476
302.458
302.399
302.423
302.396
302.377
302.229
302.297
302.335
302.368
335.065
334.296
333.92
333.753
333.911
334.437
334.991
335.661
336.373
336.66
336.898
336.782
336.154
335.448
334.782
333.946
333.456
333.287
333.615
334.168
330.829
330.231
329.801
329.64
329.821
330.172
330.687
331.355
331.908
332.189
332.356
332.21
331.851
331.137
330.37
329.907
329.507
329.369
329.592
330.081
326.425
325.938
325.542
325.413
325.504
325.852
326.293
326.708
327.241
327.44
327.612
327.49
327.114
326.671
326.067
325.593
325.276
325.166
325.409
325.748
321.803
321.463
321.201
321.027
321.04
321.355
321.772
322.12
322.438
322.685
322.821
322.653
322.346
321.941
321.532
321.123
320.84
320.81
320.961
321.393
317.144
316.805
316.538
316.394
316.6
316.768
316.919
317.299
317.584
317.705
317.77
317.82
317.499
317.171
316.868
316.545
316.409
316.389
316.487
316.751
312.368
312.075
311.808
311.866
311.832
311.932
312.118
312.495
312.613
312.745
312.808
312.801
312.646
312.409
312.109
311.919
311.783
311.703
311.862
312.039
307.408
307.285
307.163
307.121
307.191
307.199
307.37
307.488
307.637
307.664
307.716
307.623
307.552
307.483
307.347
307.102
307.089
307.088
307.173
307.299
302.463
302.443
302.394
302.407
302.448
302.419
302.474
302.531
302.545
302.548
302.627
302.548
302.534
302.519
302.391
302.475
302.403
302.398
302.35
302.478
336.365
335.66
335.175
335.016
335.181
335.7
336.244
336.956
337.541
338.034
338.169
337.991
337.515
336.772
335.947
335.284
334.83
334.616
334.866
335.422
331.967
331.422
330.939
330.817
331.009
331.298
331.839
332.392
332.864
333.324
333.476
333.341
332.867
332.296
331.591
331.008
330.577
330.482
330.725
331.209
327.388
326.876
326.496
326.319
326.513
326.771
327.172
327.691
328.107
328.54
328.632
328.403
328.126
327.581
327.079
326.583
326.258
326.194
326.315
326.798
322.632
322.233
321.867
321.838
321.908
322.098
322.422
322.823
323.188
323.488
323.603
323.423
323.179
322.746
322.322
321.951
321.638
321.646
321.779
322.164
317.809
317.477
317.21
317.058
317.196
317.28
317.623
317.928
318.169
318.33
318.382
318.281
318.148
317.759
317.516
317.266
317.042
316.94
317.171
317.346
312.761
312.54
312.294
312.328
312.312
312.423
312.594
312.9
313.021
313.192
313.321
313.168
313.044
312.788
312.619
312.377
312.237
312.22
312.415
312.418
307.659
307.579
307.457
307.336
307.399
307.496
307.609
307.764
307.856
307.965
307.984
307.876
307.873
307.726
307.532
307.451
307.376
307.363
307.438
307.545
302.588
302.491
302.458
302.489
302.473
302.525
302.531
302.683
302.555
302.635
302.694
302.677
302.645
302.543
302.532
302.522
302.365
302.479
302.517
302.501
337.682
337.036
336.522
336.436
336.51
336.942
337.543
338.184
338.756
339.193
339.506
339.313
338.78
338.034
337.308
336.623
336.153
336.018
336.291
336.715
333.206
332.584
332.18
332.031
332.089
332.521
332.932
333.476
333.982
334.39
334.577
334.422
334.02
333.476
332.768
332.099
331.761
331.776
331.924
332.423
328.366
327.937
327.494
327.413
327.44
327.78
328.14
328.622
329.057
329.37
329.582
329.407
329.04
328.541
328.021
327.627
327.246
327.256
327.389
327.779
323.439
323.069
322.766
322.647
322.706
322.89
323.275
323.592
324.045
324.254
324.302
324.224
323.986
323.604
323.105
322.746
322.571
322.546
322.698
322.909
318.347
317.975
317.791
317.747
317.783
317.964
318.254
318.502
318.834
319.006
319.128
318.973
318.789
318.443
318.168
317.926
317.539
317.701
317.848
317.974
313.215
312.965
312.773
312.76
312.773
312.925
313.073
313.281
313.41
313.598
313.661
313.68
313.346
313.292
312.939
312.804
312.7
312.667
312.82
312.919
308.003
307.863
307.725
307.732
307.61
307.727
307.879
308.013
308.094
308.207
308.285
308.178
308.14
307.976
307.778
307.773
307.664
307.616
307.706
307.75
302.615
302.735
302.477
302.593
302.508
302.674
302.716
302.706
302.698
302.715
302.837
302.663
302.755
302.644
302.626
302.644
302.567
302.524
302.547
302.676
339.143
338.477
337.993
337.842
337.888
338.316
338.817
339.502
340.061
340.49
340.579
340.534
340.068
339.374
338.642
338.025
337.586
337.449
337.666
338.065
334.325
333.835
333.415
333.232
333.355
333.688
334.036
334.547
335.114
335.552
335.658
335.466
335.183
334.479
333.902
333.469
333.037
332.986
333.231
333.599
329.47
329.017
328.567
328.541
328.546
328.766
329.058
329.528
329.971
330.388
330.463
330.293
329.964
329.576
329.009
328.589
328.402
328.263
328.425
328.775
324.328
323.878
323.639
323.511
323.504
323.757
323.979
324.399
324.818
325.023
325.208
325.036
324.763
324.343
324.006
323.642
323.323
323.373
323.542
323.799
319.109
318.754
318.495
318.426
318.407
318.586
318.795
319.076
319.333
319.588
319.601
319.601
319.432
319.079
318.835
318.452
318.36
318.388
318.432
318.705
313.738
313.502
313.255
313.184
313.289
313.317
313.494
313.698
313.933
314.04
314.147
314.07
313.916
313.731
313.479
313.327
313.214
313.161
313.284
313.379
308.269
308.238
308.036
307.924
308.011
308.017
308.126
308.317
308.36
308.391
308.479
308.455
308.405
308.225
308.095
307.976
307.969
307.925
308.047
308.087
302.751
302.708
302.746
302.665
302.688
302.653
302.77
302.852
302.802
302.817
302.839
302.882
302.856
302.753
302.735
302.705
302.707
302.686
302.697
302.66
340.516
339.971
339.418
339.319
339.387
339.701
340.15
340.8
341.256
341.667
341.842
341.714
341.266
340.546
339.886
339.374
339.032
338.816
339.069
339.494
335.614
335.199
334.739
334.475
334.561
334.798
335.237
335.734
336.187
336.559
336.658
336.564
336.151
335.628
335.082
334.583
334.323
334.229
334.43
334.734
330.533
330.073
329.775
329.532
329.574
329.742
330.15
330.395
330.918
331.214
331.259
331.282
330.956
330.47
330.016
329.606
329.423
329.42
329.526
329.832
325.235
324.859
324.609
324.479
324.418
324.623
324.825
325.179
325.508
325.734
325.812
325.763
325.459
325.064
324.775
324.417
324.329
324.286
324.417
324.669
319.768
319.457
319.29
319.102
319.108
319.235
319.448
319.719
319.908
320.134
320.274
320.172
319.978
319.645
319.393
319.145
319.009
319.013
319.12
319.331
314.167
314.049
313.739
313.738
313.626
313.784
313.981
314.185
314.352
314.485
314.447
314.547
314.328
314.182
313.858
313.813
313.619
313.651
313.81
313.945
308.497
308.495
308.31
308.316
308.385
308.296
308.4
308.616
308.622
308.784
308.772
308.736
308.656
308.564
308.478
308.229
308.199
308.129
308.306
308.402
302.879
302.863
302.859
302.842
302.852
302.843
302.834
302.801
302.93
302.907
302.98
302.956
302.93
302.854
302.83
302.744
302.769
302.732
302.765
302.792
341.955
341.413
340.955
340.79
340.758
341.067
341.442
341.9
342.529
342.812
342.945
342.845
342.412
341.917
341.221
340.721
340.402
340.337
340.542
340.935
336.89
336.35
336.058
335.805
335.87
336.055
336.415
336.767
337.228
337.493
337.643
337.644
337.225
336.753
336.22
335.826
335.532
335.505
335.687
336.04
331.618
331.177
330.807
330.607
330.663
330.806
331.128
331.506
331.847
332.127
332.215
332.115
331.767
331.405
331.056
330.554
330.384
330.339
330.523
330.963
326.055
325.768
325.404
325.371
325.318
325.432
325.692
326.012
326.236
326.481
326.546
326.454
326.272
325.953
325.622
325.268
325.156
325.159
325.326
325.557
320.495
320.161
319.968
319.815
319.801
319.943
320.034
320.345
320.531
320.736
320.683
320.761
320.529
320.303
320.026
319.755
319.717
319.646
319.805
320.057
314.701
314.574
314.379
314.219
314.232
314.254
314.478
314.683
314.764
314.903
314.892
314.828
314.784
314.54
314.378
314.307
314.172
314.154
314.158
314.433
308.873
308.663
308.576
308.527
308.597
308.64
308.752
308.784
308.849
308.923
308.967
308.91
308.915
308.807
308.716
308.531
308.569
308.497
308.607
308.698
302.984
302.861
302.886
302.832
302.886
302.921
302.89
303.007
303.005
303.005
303.086
302.979
302.989
302.884
302.985
302.901
302.874
302.821
302.877
302.916
343.517
342.903
342.465
342.229
342.13
342.499
342.723
343.237
343.639
343.998
344.178
343.852
343.588
343.046
342.459
342.139
341.718
341.823
341.971
342.319
338.263
337.732
337.315
337.137
337.029
337.302
337.509
337.859
338.333
338.465
338.627
338.594
338.184
337.83
337.431
337.012
336.711
336.765
336.939
337.236
332.765
332.325
331.972
331.829
331.783
331.823
332.152
332.43
332.654
332.966
333.087
332.928
332.692
332.322
332.059
331.578
331.518
331.495
331.632
331.912
327.001
326.712
326.359
326.292
326.232
326.299
326.538
326.746
327.003
327.173
327.253
327.222
326.877
326.608
326.436
326.188
326.009
326.008
326.22
326.464
321.215
320.939
320.756
320.539
320.546
320.559
320.681
320.954
321.216
321.193
321.317
321.21
321.089
320.89
320.645
320.512
320.341
320.407
320.519
320.748
315.273
315.088
314.854
314.725
314.685
314.775
314.881
315.055
315.177
315.269
315.322
315.331
315.189
314.999
314.874
314.714
314.682
314.734
314.761
314.906
309.183
309.109
308.976
308.926
308.826
308.95
308.994
309.104
309.182
309.157
309.234
309.167
309.096
309.072
309.011
308.982
308.85
308.872
308.864
309.043
303.106
303.035
302.953
302.896
303.013
303.004
302.983
303.062
303.115
303.038
303.036
303.073
303.105
303.053
303.025
303.026
302.926
302.998
302.948
302.99
344.926
344.377
343.941
343.672
343.684
343.834
344.062
344.432
344.793
345.076
345.181
345.037
344.717
344.227
343.73
343.429
343.171
343.168
343.418
343.744
339.514
339.084
338.615
338.431
338.283
338.435
338.652
338.985
339.272
339.528
339.655
339.423
339.22
338.839
338.443
338.129
337.978
338.027
338.259
338.543
333.822
333.371
333.03
332.908
332.708
332.863
333.079
333.401
333.585
333.78
333.916
333.751
333.63
333.201
332.929
332.677
332.442
332.546
332.709
333.016
327.967
327.635
327.32
327.117
326.98
327.107
327.202
327.531
327.675
327.845
327.935
327.837
327.685
327.481
327.152
326.95
326.942
326.887
327.093
327.253
321.95
321.633
321.331
321.303
321.126
321.173
321.396
321.515
321.648
321.757
321.803
321.787
321.704
321.489
321.313
321.136
321.085
321.066
321.262
321.403
315.716
315.538
315.405
315.286
315.264
315.238
315.338
315.48
315.547
315.612
315.732
315.66
315.489
315.399
315.308
315.157
315.098
315.231
315.305
315.364
309.489
309.297
309.288
309.205
309.22
309.18
309.245
309.259
309.369
309.428
309.398
309.4
309.332
309.366
309.282
309.236
309.185
309.073
309.185
309.243
303.141
303.186
303.096
303.023
303.093
303.151
303.149
303.181
303.155
303.185
303.186
303.182
303.175
303.083
303.073
303.081
303.026
303.021
303.095
303.113
346.464
345.87
345.495
345.131
345.062
345.162
345.346
345.663
345.846
346.105
346.194
346.038
345.778
345.397
345.029
344.676
344.534
344.49
344.809
345.196
340.857
340.37
339.85
339.669
339.528
339.618
339.806
340.038
340.337
340.425
340.534
340.479
340.18
339.911
339.6
339.237
339.147
339.259
339.478
339.736
334.947
334.562
334.108
333.964
333.831
333.905
334.061
334.143
334.426
334.544
334.641
334.591
334.312
334.151
333.895
333.658
333.498
333.558
333.817
334.097
328.863
328.488
328.224
328.023
327.856
328.027
328.093
328.303
328.454
328.518
328.574
328.514
328.405
328.165
328
327.849
327.665
327.805
327.936
328.158
322.59
322.389
322.092
321.97
321.987
321.942
322.008
322.125
322.275
322.338
322.426
322.302
322.151
322.051
321.912
321.841
321.715
321.757
321.909
322.039
316.231
316.055
315.903
315.826
315.704
315.726
315.807
315.919
315.965
316.1
316.069
315.999
315.981
315.865
315.789
315.579
315.663
315.758
315.743
315.906
309.791
309.71
309.544
309.586
309.508
309.41
309.526
309.617
309.689
309.628
309.676
309.656
309.634
309.559
309.431
309.455
309.384
309.445
309.512
309.575
303.311
303.265
303.289
303.232
303.232
303.198
303.212
303.252
303.159
303.241
303.265
303.21
303.248
303.207
303.158
303.221
303.123
303.118
303.11
303.305
347.951
347.358
346.909
346.544
346.429
346.414
346.577
346.764
347.041
347.195
347.22
347.096
346.856
346.639
346.263
346.027
345.867
345.961
346.126
346.563
342.152
341.665
341.19
340.984
340.799
340.774
340.895
341.039
341.281
341.435
341.418
341.426
341.157
340.847
340.657
340.484
340.395
340.336
340.705
340.965
335.982
335.737
335.288
334.983
334.968
334.945
335.007
335.1
335.249
335.399
335.46
335.348
335.233
334.933
334.802
334.643
334.578
334.619
334.958
335.221
329.79
329.449
329.168
328.924
328.789
328.755
328.914
329.066
329.13
329.193
329.2
329.144
329.091
328.888
328.726
328.58
328.521
328.607
328.854
329.059
323.327
323.09
322.822
322.694
322.516
322.606
322.618
322.677
322.807
322.917
322.914
322.896
322.794
322.668
322.519
322.391
322.352
322.476
322.622
322.868
316.805
316.633
316.42
316.27
316.254
316.177
316.248
316.263
316.309
316.421
316.447
316.41
316.321
316.344
316.15
316.1
316.075
316.161
316.291
316.291
310.107
309.959
309.79
309.791
309.761
309.628
309.81
309.734
309.882
309.957
310.014
309.9
309.877
309.807
309.668
309.8
309.678
309.675
309.783
309.874
303.438
303.345
303.381
303.29
303.334
303.27
303.306
303.291
303.323
303.302
303.281
303.339
303.301
303.317
303.246
303.26
303.215
303.276
303.283
303.34
349.339
348.843
348.369
348.011
347.838
347.769
347.791
348.003
348.163
348.252
348.304
348.108
348.026
347.757
347.475
347.211
347.226
347.342
347.567
347.931
343.392
342.906
342.472
342.142
341.987
341.978
342.014
342.109
342.278
342.337
342.382
342.363
342.091
341.92
341.663
341.501
341.483
341.618
341.838
342.268
337.136
336.757
336.375
336.05
335.886
335.927
335.949
335.992
336.158
336.227
336.238
336.169
336.048
335.927
335.654
335.618
335.542
335.599
335.895
336.174
330.72
330.325
330.01
329.82
329.687
329.657
329.733
329.745
329.822
329.958
329.897
329.868
329.742
329.625
329.478
329.39
329.386
329.48
329.769
329.833
324.091
323.745
323.445
323.325
323.202
323.186
323.197
323.357
323.312
323.35
323.403
323.375
323.246
323.26
323.112
323.099
323.072
323.074
323.346
323.447
317.269
317.096
316.926
316.749
316.754
316.671
316.623
316.656
316.8
316.854
316.838
316.731
316.751
316.63
316.574
316.588
316.527
316.588
316.698
316.915
310.407
310.324
310.11
310.129
310.055
310.064
310.055
310.018
310.099
310.118
310.121
310.098
310.121
310.085
310.001
310.003
309.92
309.98
310.104
310.194
303.406
303.41
303.462
303.345
303.381
303.405
303.33
303.347
303.442
303.439
303.447
303.421
303.435
303.363
303.308
303.321
303.376
303.416
303.418
303.466
350.732
350.206
349.78
349.338
349.059
348.972
349.015
349.207
349.263
349.39
349.249
349.234
349.036
348.797
348.564
348.391
348.422
348.602
348.894
349.193
344.635
344.113
343.725
343.391
343.067
343.024
342.972
343.058
343.144
343.295
343.294
343.158
343.15
342.822
342.618
342.561
342.653
342.675
343.077
343.366
338.125
337.802
337.401
337.072
336.879
336.812
336.801
336.845
336.963
336.956
337.011
336.95
336.89
336.696
336.55
336.509
336.402
336.618
336.903
337.157
331.441
331.243
330.872
330.619
330.514
330.334
330.341
330.449
330.443
330.636
330.528
330.435
330.412
330.321
330.084
330.206
330.135
330.29
330.471
330.741
324.673
324.482
324.191
324.069
323.843
323.774
323.821
323.835
323.888
323.859
323.889
323.866
323.741
323.751
323.667
323.575
323.631
323.685
323.962
324.143
317.697
317.485
317.437
317.203
317.168
317.113
317.066
317.125
317.12
317.165
317.2
317.162
317.133
317.083
316.949
317.06
316.927
317.041
317.208
317.333
310.699
310.579
310.453
310.371
310.276
310.382
310.306
310.355
310.355
310.328
310.395
310.383
310.348
310.266
310.21
310.241
310.305
310.3
310.378
310.516
303.66
303.597
303.529
303.503
303.406
303.449
303.428
303.476
303.453
303.439
303.489
303.435
303.503
303.421
303.449
303.41
303.507
303.478
303.487
303.483
351.988
351.448
350.953
350.577
350.254
350.044
350.207
350.174
350.248
350.323
350.19
350.141
350.017
349.897
349.702
349.595
349.543
349.681
350.11
350.431
345.639
345.165
344.77
344.325
344.115
343.965
343.948
343.991
344.114
344.118
344.091
343.99
343.985
343.716
343.695
343.585
343.622
343.71
344.087
344.391
339.06
338.746
338.293
337.971
337.761
337.558
337.591
337.642
337.623
337.661
337.759
337.667
337.483
337.397
337.338
337.311
337.265
337.491
337.748
338.069
332.231
331.9
331.575
331.342
331.148
331.084
331.026
331.08
331.131
331.1
331.088
331.04
331.007
330.821
330.827
330.779
330.881
330.969
331.178
331.438
325.309
325.04
324.726
324.58
324.446
324.387
324.308
324.343
324.363
324.431
324.315
324.367
324.229
324.203
324.134
324.16
324.203
324.241
324.405
324.614
318.191
318.009
317.7
317.629
317.547
317.503
317.439
317.417
317.518
317.516
317.421
317.474
317.464
317.408
317.373
317.373
317.381
317.422
317.505
317.607
310.919
310.751
310.788
310.636
310.639
310.444
310.504
310.529
310.44
310.528
310.531
310.528
310.591
310.469
310.351
310.431
310.479
310.509
310.593
310.676
303.707
303.626
303.578
303.53
303.473
303.538
303.536
303.552
303.536
303.654
303.511
303.476
303.502
303.504
303.499
303.48
303.479
303.441
303.478
303.606
352.85
352.436
351.843
351.408
351.119
351.018
350.865
350.944
350.865
350.914
350.976
350.774
350.697
350.496
350.44
350.405
350.401
350.614
350.991
351.376
346.402
345.952
345.489
345.114
344.882
344.685
344.652
344.653
344.644
344.665
344.742
344.589
344.474
344.322
344.288
344.232
344.357
344.468
344.789
345.04
339.737
339.256
338.844
338.617
338.317
338.304
338.177
338.175
338.217
338.194
338.079
338.116
338.047
337.912
337.861
337.876
337.852
338.049
338.288
338.647
332.723
332.465
332.02
331.694
331.609
331.489
331.455
331.471
331.456
331.454
331.432
331.45
331.388
331.32
331.247
331.272
331.36
331.51
331.608
331.957
325.548
325.391
325.109
324.896
324.771
324.672
324.692
324.616
324.601
324.674
324.672
324.631
324.58
324.518
324.475
324.4
324.548
324.647
324.802
325.086
318.472
318.24
318.001
317.838
317.812
317.699
317.639
317.654
317.697
317.621
317.64
317.678
317.692
317.553
317.582
317.525
317.664
317.677
317.863
317.979
311.069
311.032
310.879
310.757
310.783
310.648
310.662
310.641
310.641
310.698
310.722
310.598
310.61
310.568
310.565
310.627
310.553
310.617
310.753
310.791
303.788
303.606
303.681
303.637
303.583
303.587
303.539
303.619
303.639
303.591
303.593
303.563
303.632
303.565
303.628
303.539
303.618
303.568
303.671
303.566
)
;

boundaryField
{
    hotSide
    {
        type            fixedGradient;
        gradient        nonuniform List<scalar> 
400
(
321.511
322.87
325.591
329.677
335.133
341.965
350.181
359.788
370.794
383.208
397.037
412.289
428.971
447.088
466.647
487.651
510.105
534.011
559.372
586.191
323.738
325.08
327.767
331.802
337.194
343.949
352.078
361.591
372.498
384.81
398.537
413.687
430.268
448.289
467.755
488.672
511.043
534.872
560.161
586.913
326.149
327.47
330.116
334.091
339.406
346.071
354.099
363.503
374.296
386.491
400.101
415.136
431.606
449.52
468.885
489.706
511.988
535.735
560.948
587.63
328.704
330
332.597
336.503
341.73
348.292
356.205
365.485
376.15
388.215
401.695
416.604
432.954
450.753
470.009
490.73
512.919
536.579
561.714
588.325
331.33
332.599
335.142
338.97
344.099
350.546
358.332
367.477
378.003
389.928
403.271
418.047
434.27
451.949
471.095
491.712
513.807
537.382
562.439
588.978
333.918
335.158
337.643
341.389
346.414
352.74
360.392
369.397
379.779
391.562
404.765
419.407
435.503
453.065
472.101
492.618
514.622
538.114
563.096
589.569
336.321
337.531
339.959
343.622
348.544
354.751
362.274
371.142
381.385
393.031
406.101
420.618
436.595
454.047
472.983
493.409
515.33
538.747
563.663
590.076
338.36
339.543
341.92
345.509
350.339
356.44
363.847
372.595
382.718
394.244
407.2
421.608
437.485
454.844
473.695
494.045
515.897
539.253
564.114
590.478
339.852
341.015
343.352
346.885
351.645
357.665
364.985
373.643
383.675
395.113
407.984
422.312
438.116
455.407
474.197
494.491
516.294
539.606
564.428
590.758
340.643
341.795
344.11
347.613
352.334
358.311
365.584
374.193
384.176
395.567
408.393
422.679
438.443
455.699
474.456
494.722
516.498
539.788
564.589
590.901
340.643
341.795
344.11
347.613
352.334
358.311
365.584
374.193
384.176
395.567
408.393
422.679
438.443
455.699
474.456
494.722
516.498
539.788
564.589
590.901
339.852
341.015
343.352
346.885
351.645
357.665
364.985
373.643
383.675
395.113
407.984
422.312
438.116
455.407
474.197
494.491
516.294
539.606
564.428
590.758
338.36
339.543
341.92
345.509
350.339
356.44
363.847
372.595
382.718
394.244
407.2
421.608
437.485
454.844
473.695
494.045
515.897
539.253
564.114
590.478
336.321
337.531
339.959
343.622
348.544
354.751
362.274
371.142
381.385
393.031
406.101
420.618
436.595
454.047
472.983
493.409
515.33
538.747
563.663
590.076
333.918
335.158
337.643
341.389
346.414
352.74
360.392
369.397
379.779
391.562
404.765
419.407
435.503
453.065
472.101
492.618
514.622
538.114
563.096
589.569
331.33
332.599
335.142
338.97
344.099
350.546
358.332
367.477
378.003
389.928
403.271
418.047
434.27
451.949
471.095
491.712
513.807
537.382
562.439
588.978
328.704
330
332.597
336.503
341.73
348.292
356.205
365.485
376.15
388.215
401.695
416.604
432.954
450.753
470.009
490.73
512.919
536.579
561.714
588.325
326.149
327.47
330.116
334.091
339.406
346.071
354.099
363.503
374.296
386.491
400.101
415.136
431.606
449.52
468.885
489.706
511.988
535.735
560.948
587.63
323.738
325.08
327.767
331.802
337.194
343.949
352.078
361.591
372.498
384.81
398.537
413.687
430.268
448.289
467.755
488.672
511.043
534.872
560.161
586.913
321.511
322.87
325.591
329.677
335.133
341.965
350.181
359.788
370.794
383.208
397.037
412.289
428.971
447.088
466.647
487.651
510.105
534.011
559.372
586.191
)
;
    }
    coldSide
    {
        type            mixed;
        refValue        uniform 300;
        refGradient     uniform 0;
        valueFraction   uniform 0.991591;
        source          uniform 0;
        value           nonuniform List<scalar> 
400
(
300.018
300.019
300.019
300.019
300.02
300.02
300.021
300.022
300.022
300.023
300.024
300.025
300.026
300.026
300.028
300.029
300.029
300.031
300.031
300.032
300.018
300.019
300.019
300.018
300.02
300.02
300.021
300.021
300.023
300.023
300.024
300.024
300.026
300.027
300.027
300.028