/*--------------------------------*- C++ -*----------------------------------*\
| =========                 |                                                 |
| \\      /  F ield         | OpenFOAM: The Open Source CFD Toolbox           |
|  \\    /   O peration     | Version:  2212                                  |
|   \\  /    A nd           | Website:  www.openfoam.com                      |
|    \\/     M anipulation  |                                                 |
\*---------------------------------------------------------------------------*/
FoamFile
{
    version     2.0;
    format      ascii;
    arch        "LSB;label=32;scalar=64";
    class       volScalarField;
    location    "0";
    object      T;
}
// * * * * * * * * * * * * * * * * * * * * * * * * * * * * * * * * * * * * * //

dimensions      [0 0 0 1 0 0 0];

internalField   nonuniform List<scalar> 
3200
(
340.248
341.12
342.411
343.376
344.195
344.843
345.489
345.754
345.737
345.892
345.981
346.159
345.951
345.23
344.846
344.042
343.386
342.622
341.511
340.576
334.996
335.694
336.859
337.704
338.414
338.902
339.517
339.689
339.67
339.818
339.895
340.069
339.882
339.249
338.987
338.262
337.669
337.015
336.019
335.215
329.665
330.243
331.294
332.016
332.584
332.942
333.489
333.639
333.59
333.751
333.844
333.981
333.75
333.221
333.084
332.431
331.958
331.372
330.507
329.83
324.317
324.799
325.664
326.272
326.674
326.968
327.444
327.544
327.456
327.626
327.717
327.839
327.637
327.144
327.132
326.582
326.176
325.706
325.037
324.423
318.95
319.35
320.007
320.469
320.763
320.98
321.368
321.449
321.323
321.53
321.572
321.665
321.525
321.071
321.096
320.681
320.37
319.993
319.467
318.997
313.565
313.852
314.3
314.65
314.827
315.003
315.268
315.366
315.223
315.407
315.403
315.49
315.369
315.06
315.061
314.791
314.581
314.282
313.92
313.597
308.129
308.34
308.587
308.812
308.927
309
309.177
309.207
309.158
309.241
309.257
309.281
309.235
309.028
309.061
308.864
308.783
308.572
308.409
308.167
302.734
302.803
302.887
302.965
302.983
303.018
303.08
303.087
303.071
303.092
303.114
303.097
303.081
303.02
303.013
302.981
302.929
302.872
302.806
302.757
341.083
342.033
342.91
344.064
344.885
345.277
346.227
346.411
346.697
346.831
346.773
346.959
346.501
345.978
345.546
344.935
343.967
343.11
342.089
340.959
335.659
336.456
337.202
338.222
338.94
339.262
340.091
340.241
340.457
340.671
340.559
340.764
340.326
339.918
339.508
338.949
338.121
337.401
336.503
335.515
330.222
330.878
331.482
332.39
332.991
333.267
333.912
334.081
334.195
334.434
334.331
334.521
334.15
333.805
333.453
332.97
332.244
331.669
330.884
330.059
324.785
325.281
325.824
326.527
326.966
327.252
327.766
327.884
327.924
328.183
328.096
328.241
327.949
327.647
327.354
326.94
326.389
325.931
325.286
324.633
319.297
319.65
320.141
320.646
320.98
321.175
321.613
321.707
321.692
321.916
321.841
321.964
321.708
321.472
321.256
320.938
320.509
320.181
319.708
319.192
313.808
314.037
314.387
314.744
315.008
315.148
315.448
315.532
315.546
315.621
315.619
315.724
315.458
315.336
315.179
314.967
314.684
314.443
314.094
313.759
308.272
308.442
308.639
308.856
309.02
309.139
309.315
309.331
309.351
309.382
309.358
309.485
309.24
309.226
309.103
309.004
308.806
308.649
308.456
308.294
302.773
302.835
302.902
302.981
303.03
303.064
303.127
303.133
303.15
303.156
303.159
303.185
303.09
303.111
303.057
303.024
302.951
302.88
302.825
302.786
342.314
343.136
344.18
344.915
345.726
346.329
346.966
347.371
347.679
347.808
347.871
347.797
347.531
347.201
346.517
345.769
344.955
344.102
343.151
342.154
336.74
337.431
338.381
338.938
339.667
340.167
340.725
341.071
341.338
341.447
341.525
341.467
341.195
340.981
340.311
339.683
339
338.256
337.405
336.577
331.119
331.719
332.531
332.953
333.602
334.027
334.467
334.758
334.994
335.092
335.159
335.094
334.865
334.728
334.135
333.612
332.968
332.426
331.649
330.981
325.466
325.987
326.634
326.991
327.543
327.902
328.235
328.393
328.638
328.734
328.786
328.727
328.522
328.461
327.983
327.512
326.919
326.543
325.913
325.36
319.828
320.259
320.723
321.074
321.426
321.716
321.941
322.072
322.279
322.36
322.403
322.371
322.223
322.19
321.771
321.413
320.913
320.664
320.169
319.759
314.179
314.478
314.789
315.104
315.304
315.507
315.646
315.78
315.917
315.965
316.036
315.941
315.906
315.866
315.571
315.297
314.948
314.786
314.369
314.128
308.523
308.696
308.908
309.08
309.177
309.342
309.424
309.492
309.603
309.59
309.646
309.566
309.536
309.5
309.334
309.181
309.025
308.884
308.6
308.466
302.855
302.908
302.969
303.044
303.073
303.139
303.168
303.19
303.236
303.217
303.218
303.21
303.196
303.175
303.127
303.092
303.032
302.983
302.897
302.817
343.048
344.105
345.198
346.155
346.793
347.458
348.278
348.46
349.007
349.149
349.034
349.071
348.616
348.321
347.525
346.786
346.05
345.275
344.316
343.13
337.376
338.263
339.246
339.982
340.558
341.123
341.89
341.963
342.443
342.607
342.559
342.552
342.166
341.915
341.161
340.527
339.887
339.261
338.445
337.43
331.741
332.418
333.307
333.832
334.262
334.74
335.455
335.488
335.901
336.061
336.059
336.01
335.674
335.489
334.877
334.297
333.789
333.208
332.563
331.723
326.045
326.604
327.333
327.682
328.007
328.448
329.015
328.981
329.362
329.528
329.585
329.486
329.181
329.052
328.571
328.033
327.657
327.194
326.643
326.021
320.317
320.691
321.32
321.554
321.754
322.141
322.575
322.486
322.831
322.924
323.023
322.944
322.686
322.593
322.253
321.842
321.514
321.166
320.712
320.25
314.57
314.774
315.229
315.443
315.507
315.83
316.15
316.081
316.313
316.343
316.48
316.401
316.213
316.112
315.915
315.651
315.38
315.15
314.779
314.48
308.792
308.868
309.121
309.272
309.326
309.535
309.703
309.676
309.799
309.806
309.889
309.869
309.743
309.657
309.561
309.429
309.235
309.119
308.891
308.708
302.956
302.944
303.027
303.1
303.141
303.175
303.243
303.231
303.29
303.266
303.327
303.313
303.286
303.234
303.199
303.173
303.09
303.072
302.962
302.922
344.123
345.267
346.238
347.116
347.704
348.631
349.252
349.529
350.015
350.074
350.236
350.064
349.928
349.387
348.752
347.913
347.051
346.106
345.169
344.245
338.291
339.269
340.123
340.814
341.307
342.149
342.71
342.891
343.337
343.432
343.57
343.385
343.312
342.834
342.273
341.541
340.76
339.978
339.152
338.405
332.515
333.224
333.991
334.546
334.943
335.658
336.154
336.291
336.637
336.755
336.93
336.74
336.657
336.333
335.784
335.132
334.455
333.816
333.128
332.515
326.707
327.16
327.846
328.283
328.552
329.145
329.608
329.682
329.952
330.064
330.2
330.101
329.97
329.804
329.26
328.758
328.168
327.624
327.083
326.582
320.789
321.145
321.695
321.995
322.204
322.657
323.034
323.101
323.303
323.411
323.481
323.416
323.298
323.24
322.734
322.359
321.884
321.508
321.069
320.66
314.846
315.109
315.523
315.691
315.857
316.18
316.43
316.512
316.645
316.739
316.753
316.762
316.631
316.622
316.259
315.978
315.606
315.367
315.056
314.766
308.917
309.065
309.338
309.395
309.511
309.755
309.865
309.933
309.992
310.066
310.065
310.111
309.989
309.996
309.789
309.604
309.381
309.208
309.052
308.898
302.996
303.047
303.106
303.151
303.174
303.281
303.341
303.335
303.363
303.372
303.367
303.368
303.353
303.333
303.275
303.204
303.15
303.067
303.043
302.985
345.101
346.079
347.295
348.143
348.822
349.647
350.274
350.602
351.051
351.129
351.301
351.081
350.821
350.621
350.015
349.03
347.845
347.192
346.113
345.227
339.166
339.923
341.001
341.773
342.325
343.023
343.581
343.865
344.264
344.323
344.432
344.257
344.043
343.888
343.34
342.475
341.488
340.9
340.002
339.198
333.235
333.791
334.707
335.336
335.837
336.363
336.905
337.125
337.457
337.509
337.58
337.476
337.263
337.126
336.678
335.908
335.112
334.578
333.889
333.197
327.225
327.744
328.396
328.881
329.354
329.722
330.222
330.402
330.653
330.682
330.736
330.704
330.502
330.35
329.999
329.319
328.722
328.253
327.735
327.176
321.181
321.597
322.11
322.395
322.803
323.122
323.563
323.644
323.825
323.844
323.841
323.861
323.706
323.619
323.293
322.742
322.319
321.979
321.598
321.161
315.12
315.46
315.815
315.96
316.286
316.529
316.837
316.916
317.02
317.042
317.032
317.023
316.925
316.895
316.578
316.188
315.932
315.687
315.458
315.131
309.05
309.321
309.537
309.561
309.78
309.915
310.112
310.171
310.223
310.276
310.226
310.213
310.133
310.165
309.911
309.718
309.56
309.41
309.279
309.072
303.046
303.13
303.206
303.205
303.287
303.328
303.389
303.403
303.42
303.451
303.427
303.426
303.405
303.409
303.329
303.261
303.189
303.146
303.128
303.041
345.954
347.104
348.133
349.033
349.956
350.719
351.208
351.488
351.958
352.203
352.248
352.049
351.814
351.487
350.772
349.76
348.83
348.06
346.965
346.144
339.903
340.868
341.753
342.53
343.305
343.973
344.39
344.597
345.028
345.279
345.293
345.105
344.918
344.664
344.036
343.118
342.303
341.688
340.692
340.006
333.868
334.678
335.363
336.058
336.635
337.229
337.543
337.756
338.128
338.336
338.345
338.153
338.026
337.822
337.284
336.494
335.803
335.267
334.423
333.862
327.793
328.482
328.932
329.526
329.978
330.468
330.718
330.911
331.188
331.378
331.36
331.232
331.125
330.945
330.532
329.839
329.332
328.84
328.176
327.693
321.664
322.188
322.52
322.997
323.36
323.711
323.886
324.055
324.248
324.382
324.387
324.265
324.209
324.057
323.77
323.236
322.822
322.449
321.916
321.579
315.49
315.866
316.119
316.408
316.7
316.995
317.056
317.186
317.308
317.401
317.414
317.32
317.31
317.174
316.977
316.627
316.298
316.052
315.668
315.423
309.335
309.54
309.695
309.85
310.045
310.22
310.229
310.309
310.357
310.442
310.447
310.389
310.426
310.278
310.193
309.988
309.804
309.64
309.42
309.257
303.141
303.189
303.239
303.299
303.392
303.422
303.431
303.435
303.434
303.494
303.502
303.476
303.493
303.423
303.403
303.385
303.282
303.234
303.166
303.107
346.899
347.955
348.788
349.905
350.849
351.609
352.2
352.546
353.082
353.217
352.933
352.849
352.725
352.312
351.63
350.742
349.785
348.974
347.822
346.7
340.694
341.596
342.315
343.267
344.103
344.767
345.277
345.587
345.998
346.133
345.937
345.753
345.704
345.327
344.753
343.96
343.143
342.458
341.47
340.489
334.504
335.244
335.834
336.614
337.303
337.921
338.371
338.593
338.954
339.033
338.892
338.692
338.608
338.359
337.864
337.175
336.493
335.92
335.11
334.286
328.275
328.845
329.355
329.965
330.518
331.05
331.432
331.577
331.858
331.917
331.868
331.646
331.553
331.385
330.988
330.382
329.859
329.419
328.738
328.098
322.01
322.435
322.855
323.259
323.718
324.204
324.497
324.525
324.829
324.772
324.809
324.582
324.543
324.397
324.106
323.602
323.258
322.895
322.322
321.898
315.78
316.076
316.36
316.586
316.942
317.305
317.533
317.504
317.733
317.678
317.73
317.55
317.55
317.423
317.229
316.848
316.628
316.359
315.93
315.655
309.518
309.658
309.85
309.917
310.168
310.396
310.547
310.514
310.659
310.619
310.646
310.552
310.586
310.471
310.335
310.111
309.96
309.817
309.594
309.399
303.197
303.247
303.32
303.313
303.404
303.484
303.552
303.533
303.572
303.564
303.552
303.54
303.558
303.514
303.439
303.394
303.343
303.294
303.238
303.126
347.685
348.782
349.708
350.878
351.565
352.481
353.115
353.563
354.307
354.049
353.848
353.838
353.583
353.225
352.493
351.544
350.568
349.595
348.715
347.336
341.44
342.288
343.085
344.113
344.69
345.472
346.02
346.43
347.104
346.837
346.674
346.662
346.47
346.128
345.502
344.681
343.806
342.993
342.209
341.025
335.118
335.749
336.462
337.324
337.835
338.481
338.951
339.305
339.854
339.579
339.487
339.489
339.337
339.031
338.491
337.778
337.072
336.33
335.743
334.723
328.787
329.242
329.851
330.478
330.942
331.445
331.878
332.158
332.6
332.345
332.304
332.281
332.217
331.888
331.474
330.878
330.337
329.675
329.233
328.447
322.416
322.711
323.233
323.664
324.097
324.468
324.803
325.047
325.337
325.139
325.135
325.068
325.081
324.803
324.459
323.982
323.573
323.059
322.705
322.136
316.044
316.184
316.608
316.894
317.207
317.479
317.708
317.868
318.1
317.965
317.97
317.94
317.939
317.726
317.431
317.11
316.824
316.453
316.254
315.837
309.652
309.701
309.958
310.134
310.301
310.496
310.643
310.699
310.826
310.773
310.815
310.796
310.774
310.659
310.474
310.27
310.092
309.85
309.768
309.513
303.227
303.256
303.34
303.386
303.461
303.525
303.579
303.583
303.634
303.596
303.648
303.616
303.624
303.579
303.525
303.433
303.384
303.284
303.262
303.191
348.471
349.503
350.455
351.441
352.538
353.307
353.955
354.419
354.874
354.845
354.69
354.708
354.252
353.867
353.176
352.353
351.211
350.268
349.469
348.117
342.067
342.97
343.743
344.632
345.555
346.22
346.75
347.148
347.599
347.544
347.417
347.423
347.036
346.698
346.07
345.342
344.381
343.517
342.886
341.68
335.662
336.379
337.028
337.775
338.518
339.075
339.552
339.922
340.274
340.202
340.132
340.156
339.814
339.507
338.976
338.304
337.545
336.776
336.306
335.238
329.213
329.774
330.33
330.938
331.488
331.937
332.373
332.601
332.923
332.9
332.787
332.915
332.624
332.344
331.861
331.303
330.736
330.048
329.707
328.82
322.758
323.16
323.617
324.105
324.45
324.791
325.196
325.288
325.54
325.599
325.463
325.634
325.383
325.13
324.741
324.352
323.921
323.357
323.11
322.434
316.286
316.531
316.862
317.288
317.448
317.682
318.007
318.008
318.22
318.331
318.202
318.322
318.102
317.945
317.657
317.422
317.089
316.656
316.524
316.057
309.816
309.922
310.133
310.44
310.458
310.596
310.805
310.823
310.942
311.008
310.938
311.038
310.892
310.773
310.585
310.456
310.267
310.024
309.952
309.631
303.292
303.334
303.406
303.512
303.503
303.546
303.628
303.626
303.658
303.689
303.672
303.697
303.659
303.62
303.551
303.489
303.438
303.36
303.323
303.236
349.162
350.079
351.23
352.39
353.236
354
354.49
355.302
355.517
355.484
355.455
355.456
355.063
354.702
354.105
353.001
351.828
351.093
350.033
348.671
342.664
343.46
344.418
345.437
346.176
346.844
347.231
347.938
348.162
348.074
348.053
348.052
347.697
347.448
346.86
345.945
344.867
344.238
343.354
342.19
336.199
336.846
337.615
338.443
339.1
339.666
339.934
340.565
340.748
340.648
340.64
340.615
340.315
340.184
339.619
338.855
337.917
337.403
336.649
335.736
329.692
330.19
330.774
331.455
332.004
332.469
332.675
333.177
333.324
333.188
333.268
333.187
332.993
332.919
332.405
331.794
331.022
330.566
329.975
329.251
323.144
323.515
323.933
324.456
324.896
325.225
325.365
325.809
325.921
325.783
325.913
325.782
325.724
325.659
325.208
324.713
324.126
323.734
323.29
322.751
316.535
316.831
317.085
317.521
317.775
318.001
318.08
318.446
318.536
318.396
318.494
318.397
318.397
318.345
318.056
317.671
317.283
316.954
316.628
316.218
309.938
310.128
310.262
310.525
310.664
310.794
310.831
311.126
311.138
311.057
311.064
311.054
311.067
310.99
310.873
310.646
310.404
310.203
310.005
309.729
303.357
303.399
303.464
303.533
303.568
303.626
303.612
303.746
303.718
303.725
303.702
303.716
303.713
303.699
303.66
303.575
303.477
303.431
303.361
303.24
349.9
350.689
351.92
353.072
353.846
354.725
355.252
355.821
355.989
356.101
356.169
355.853
355.711
355.115
354.565
353.768
352.385
351.576
350.535
349.277
343.309
343.957
345.074
345.988
346.638
347.484
347.934
348.374
348.59
348.642
348.654
348.412
348.302
347.773
347.29
346.6
345.362
344.621
343.794
342.727
336.687
337.247
338.145
338.905
339.486
340.186
340.586
340.974
341.192
341.146
341.164
341.021
340.892
340.403
339.97
339.381
338.362
337.762
337.077
336.192
330.042
330.511
331.247
331.85
332.302
332.86
333.289
333.508
333.736
333.675
333.661
333.565
333.497
333.098
332.695
332.162
331.351
330.915
330.324
329.637
323.409
323.728
324.286
324.799
325.137
325.587
325.913
326.041
326.26
326.227
326.151
326.102
326.064
325.772
325.426
324.987
324.394
324.023
323.555
322.996
316.777
316.975
317.376
317.726
317.962
318.316
318.526
318.582
318.806
318.799
318.672
318.602
318.634
318.454
318.19
317.823
317.409
317.181
316.82
316.39
310.087
310.177
310.436
310.65
310.784
311.002
311.142
311.17
311.302
311.297
311.198
311.177
311.183
311.092
310.887
310.715
310.464
310.348
310.104
309.833
303.388
303.412
303.51
303.565
303.591
303.705
303.746
303.754
303.783
303.781
303.734
303.754
303.74
303.722
303.629
303.592
303.523
303.481
303.406
303.302
350.097
351.117
352.391
353.263
354.431
355.351
355.885
356.44
356.572
356.549
356.733
356.566
356.435
355.933
354.896
354.351
352.965
351.776
350.806
349.811
343.519
344.381
345.423
346.193
347.212
347.978
348.452
348.919
349.022
349.03
349.128
349.006
348.92
348.469
347.559
347.105
345.878
344.882
344.004
343.171
336.909
337.585
338.469
339.093
339.964
340.583
341.015
341.413
341.462
341.472
341.536
341.454
341.388
341.01
340.189
339.855
338.812
338.016
337.258
336.543
330.286
330.752
331.508
331.955
332.659
333.227
333.559
333.867
333.937
333.946
333.941
333.915
333.865
333.548
332.863
332.609
331.781
331.132
330.54
329.886
323.592
323.958
324.522
324.878
325.392
325.841
326.128
326.339
326.412
326.44
326.332
326.383
326.341
326.108
325.522
325.384
324.73
324.228
323.749
323.256
316.889
317.122
317.512
317.775
318.154
318.483
318.686
318.806
318.909
318.916
318.788
318.874
318.859
318.667
318.22
318.194
317.692
317.321
316.966
316.631
310.168
310.277
310.502
310.654
310.899
311.131
311.204
311.298
311.405
311.354
311.287
311.349
311.359
311.193
310.938
310.956
310.625
310.428
310.183
309.997
303.433
303.432
303.514
303.565
303.664
303.756
303.759
303.791
303.806
303.815
303.789
303.802
303.811
303.743
303.659
303.687
303.543
303.494
303.42
303.358
350.457
351.629
353.01
353.72
354.732
355.44
356.223
356.862
356.95
356.94
356.945
357.16
356.674
356.088
355.491
354.628
353.526
352.395
351.225
350.308
343.788
344.756
345.987
346.546
347.421
348.119
348.734
349.296
349.335
349.334
349.317
349.537
349.137
348.56
348.072
347.338
346.342
345.428
344.379
343.654
337.085
337.919
338.905
339.402
340.131
340.773
341.234
341.72
341.71
341.704
341.682
341.896
341.602
341.095
340.69
340.085
339.157
338.478
337.527
336.975
330.373
331.04
331.798
332.283
332.832
333.392
333.745
334.153
334.136
334.114
334.113
334.252
333.992
333.632
333.275
332.79
332.029
331.49
330.697
330.228
323.712
324.171
324.7
325.119
325.574
325.971
326.231
326.571
326.535
326.531
326.552
326.598
326.411
326.159
325.885
325.49
324.909
324.484
323.846
323.515
316.972
317.266
317.636
317.967
318.297
318.543
318.709
318.985
318.949
318.94
318.979
318.986
318.869
318.684
318.498
318.215
317.82
317.487
317.018
316.79
310.181
310.37
310.574
310.764
310.996
311.135
311.231
311.4
311.392
311.356
311.379
311.386
311.333
311.221
311.102
310.955
310.701
310.501
310.21
310.089
303.41
303.477
303.53
303.592
303.698
303.751
303.771
303.817
303.825
303.801
303.813
303.816
303.808
303.771
303.703
303.687
303.581
303.537
303.403
303.378
350.83
351.862
353.222
354.052
355.177
355.783
356.521
356.929
357.453
357.355
357.354
357.394
356.937
356.243
355.765
354.933
353.9
352.765
351.559
350.562
344.123
344.975
346.141
346.872
347.84
348.374
348.943
349.391
349.818
349.678
349.701
349.708
349.345
348.731
348.377
347.632
346.699
345.731
344.707
343.83
337.396
338.07
338.989
339.662
340.441
340.893
341.379
341.822
342.171
341.999
342.02
342.037
341.723
341.207
340.976
340.314
339.525
338.67
337.855
337.108
330.651
331.159
331.826
332.447
333.048
333.439
333.875
334.24
334.482
334.311
334.362
334.373
334.128
333.669
333.534
332.961
332.359
331.622
331.004
330.369
323.908
324.232
324.707
325.254
325.683
326.047
326.342
326.669
326.815
326.667
326.746
326.769
326.534
326.178
326.087
325.598
325.171
324.618
324.122
323.635
317.094
317.31
317.656
318.068
318.358
318.648
318.85
319.047
319.203
319.057
319.137
319.128
318.958
318.709
318.665
318.274
317.991
317.543
317.237
316.913
310.277
310.398
310.606
310.831
311.037
311.182
311.312
311.455
311.545
311.457
311.503
311.5
311.364
311.27
311.214
310.989
310.793
310.563
310.361
310.179
303.458
303.504
303.572
303.632
303.699
303.731
303.796
303.823
303.858
303.85
303.878
303.859
303.802
303.773
303.747
303.679
303.608
303.564
303.481
303.408
351.006
352.068
353.087
354.365
355.362
356.209
356.689
357.211
357.725
357.822
357.756
357.539
357.226
356.657
356.01
354.992
354.015
352.919
351.602
350.67
344.266
345.141
346.055
347.175
348.037
348.787
349.122
349.556
350.065
350.082
350.067
349.852
349.564
349.092
348.564
347.652
346.838
345.903
344.757
343.971
337.524
338.24
338.959
339.949
340.689
341.338
341.59
341.969
342.378
342.359
342.406
342.179
341.912
341.484
341.148
340.355
339.69
338.9
337.933
337.224
330.72
331.323
331.86
332.684
333.266
333.92
334.034
334.363
334.701
334.607
334.713
334.546
334.295
333.929
333.713
333.032
332.548
331.864
331.073
330.462
323.935
324.41
324.758
325.392
325.822
326.449
326.513
326.763
326.991
326.897
327.002
326.878
326.705
326.35
326.236
325.724
325.348
324.826
324.213
323.727
317.133
317.477
317.661
318.143
318.44
318.947
318.976
319.137
319.259
319.204
319.342
319.185
319.104
318.83
318.759
318.385
318.126
317.753
317.326
316.962
310.271
310.492
310.607
310.909
311.089
311.38
311.408
311.481
311.571
311.518
311.638
311.523
311.442
311.318
311.26
311.069
310.882
310.666
310.421
310.156
303.439
303.497
303.555
303.656
303.716
303.811
303.836
303.857
303.894
303.882
303.936
303.853
303.844
303.795
303.785
303.712
303.643
303.571
303.512
303.382
351.208
352.247
353.235
354.574
355.575
356.394
357.094
357.418
357.872
357.835
357.91
357.753
357.492
356.84
356.116
355.291
354.326
353.234
351.951
350.973
344.424
345.311
346.185
347.349
348.22
348.884
349.519
349.773
350.187
350.127
350.191
350.03
349.831
349.281
348.631
347.891
347.07
346.148
345.062
344.243
337.63
338.385
339.097
340.073
340.846
341.386
341.852
342.087
342.51
342.421
342.446
342.291
342.162
341.695
341.175
340.539
339.823
339.039
338.164
337.473
330.819
331.454
332.021
332.78
333.476
333.882
334.205
334.444
334.853
334.722
334.705
334.615
334.525
334.133
333.67
333.141
332.583
332.014
331.23
330.702
324.03
324.519
324.95
325.492
326.068
326.364
326.63
326.767
327.132
327.016
326.977
326.937
326.881
326.591
326.221
325.764
325.352
324.903
324.31
323.9
317.216
317.528
317.849
318.192
318.654
318.832
319.011
319.119
319.426
319.311
319.297
319.25
319.213
319.009
318.77
318.41
318.138
317.805
317.386
317.103
310.356
310.529
310.727
310.912
311.203
311.307
311.392
311.466
311.697
311.605
311.601
311.552
311.529
311.419
311.284
311.04
310.942
310.692
310.466
310.305
303.481
303.526
303.592
303.665
303.752
303.796
303.799
303.846
303.91
303.877
303.897
303.891
303.881
303.819
303.781
303.697
303.671
303.599
303.534
303.477
351.086
352.053
353.23
354.442
355.528
356.609
357.028
357.646
357.887
357.901
357.99
357.808
357.666
356.931
356.142
355.27
354.296
353.328
352.027
350.929
344.329
345.155
346.121
347.206
348.108
349.076
349.453
349.943
350.2
350.187
350.27
350.143
350.061
349.343
348.624
347.884
347.052
346.217
345.127
344.156
337.541
338.235
339.025
339.942
340.703
341.536
341.833
342.24
342.495
342.457
342.571
342.451
342.449
341.749
341.108
340.523
339.811
339.103
338.206
337.372
330.733
331.283
331.914
332.701
333.303
333.99
334.214
334.536
334.775
334.715
334.838
334.769
334.775
334.163
333.618
333.187
332.586
331.986
331.258
330.59
323.962
324.309
324.838
325.433
325.942
326.471
326.582
326.844
327.062
327.039
327.107
327.073
327.116
326.571
326.126
325.817
325.339
324.884
324.36
323.822
317.151
317.353
317.778
318.13
318.555
318.932
318.991
319.139
319.362
319.328
319.41
319.356
319.403
319.003
318.668
318.444
318.113
317.739
317.408
317.036
310.299
310.461
310.697
310.848
311.163
311.394
311.399
311.475
311.651
311.583
311.683
311.616
311.668
311.454
311.243
311.074
310.902
310.648
310.45
310.203
303.449
303.522
303.601
303.621
303.755
303.823
303.838
303.857
303.913
303.883
303.9
303.895
303.903
303.852
303.77
303.717
303.646
303.571
303.512
303.42
351.163
352.123
353.236
354.191
355.521
356.513
357.267
357.6
357.818
358.017
357.818
357.642
357.656
356.841
356.09
355.256
354.234
353.266
352.026
350.809
344.393
345.217
346.131
347.007
348.136
349.009
349.629
349.967
350.154
350.278
350.108
349.952
349.968
349.272
348.588
347.906
347.019
346.153
345.112
344.076
337.573
338.3
339.003
339.789
340.777
341.482
341.942
342.263
342.478
342.555
342.423
342.253
342.293
341.687
341.116
340.523
339.771
339.012
338.235
337.34
330.788
331.361
331.915
332.522
333.371
333.998
334.294
334.591
334.796
334.833
334.711
334.563
334.608
334.096
333.614
333.147
332.553
331.932
331.286
330.523
323.983
324.402
324.831
325.268
325.935
326.483
326.676
326.897
327.088
327.112
327.028
326.882
326.912
326.492
326.126
325.8
325.331
324.876
324.351
323.749
317.141
317.422
317.748
318.037
318.5
318.934
319.054
319.237
319.346
319.353
319.318
319.195
319.238
318.921
318.629
318.425
318.1
317.742
317.372
316.973
310.328
310.474
310.645
310.791
311.111
311.395
311.415
311.568
311.589
311.646
311.616
311.555
311.579
311.345
311.166
311.053
310.875
310.639
310.436
310.204
303.481
303.516
303.585
303.62
303.737
303.824
303.816
303.87
303.883
303.904
303.884
303.875
303.867
303.797
303.726
303.713
303.638
303.567
303.485
303.415
351.086
352.067
353.145
354.191
355.653
356.386
357.267
357.722
357.905
358.207
357.946
357.551
357.393
356.968
356.059
355.401
354.14
353.2
351.939
350.562
344.413
345.201
346.089
347.011
348.25
348.901
349.695
350.058
350.252
350.485
350.283
349.858
349.739
349.383
348.602
348.027
346.89
346.111
345.053
343.869
337.676
338.31
338.993
339.804
340.86
341.431
342.081
342.424
342.584
342.741
342.576
342.214
342.094
341.799
341.147
340.652
339.644
339.048
338.121
337.157
330.913
331.409
331.914
332.565
333.433
333.921
334.463
334.743
334.857
334.98
334.805
334.588
334.464
334.173
333.679
333.297
332.415
332.02
331.162
330.448
324.093
324.505
324.819
325.365
325.998
326.428
326.866
327.062
327.149
327.219
327.084
326.945
326.794
326.589
326.211
325.882
325.262
324.961
324.223
323.675
317.217
317.542
317.741
318.141
318.557
318.901
319.217
319.315
319.406
319.425
319.339
319.263
319.112
318.964
318.727
318.508
318.126
317.864
317.318
316.874
310.345
310.539
310.662
310.904
311.163
311.357
311.532
311.628
311.653
311.651
311.586
311.56
311.448
311.361
311.249
311.115
310.905
310.747
310.408
310.091
303.465
303.529
303.561
303.647
303.736
303.805
303.868
303.893
303.92
303.899
303.885
303.895
303.835
303.831
303.782
303.726
303.672
303.594
303.465
303.354
)
;

boundaryField
{
    hotSide
    {
        type            fixedGradient;
        gradient        nonuniform List<scalar> 
400
(
419.248
431.215
442.781
453.895
464.505
474.564
484.022
492.834
500.956
508.348
514.972
520.794
525.783
529.912
533.16
535.508
536.942
537.454
537.04
535.7
431.122
443.431
455.329
466.762
477.678
488.027
497.759
506.827
515.187
522.796
529.615
535.61
540.749
545.005
548.353
550.777
552.261
552.797
552.38
551.012
441.902
454.52
466.717
478.439
489.631
500.242
510.221
519.52
528.094
535.898
542.894
549.045
554.319
558.687
562.127
564.618
566.146
566.703
566.283
564.888
451.518
464.41
476.872
488.849
500.285
511.128
521.325
530.829
539.591
547.568
554.719
561.007
566.399
570.867
574.386
576.936
578.503
579.077
578.654
577.233
459.909
473.038
485.728
497.925
509.572
520.614
531
540.679
549.603
557.728
565.012
571.418
576.911
581.463
585.049
587.649
589.248
589.835
589.407
587.964
467.024
480.35
493.231
505.611
517.433
528.642
539.184
549.008
558.067
566.314
573.708
580.21
585.787
590.408
594.048
596.687
598.31
598.907
598.473
597.009
472.819
486.302
499.335
511.86
523.821
535.161
545.826
555.765
564.929
573.272
580.752
587.329
592.97
597.643
601.324
603.993
605.633
606.234
605.793
604.308
477.26
490.858
504.003
516.635
528.696
540.132
550.887
560.909
570.148
578.56
586.1
592.73
598.415
603.125
606.833
609.519
611.168
611.77
611.319
609.817
480.32
493.992
507.207
519.906
532.031
543.525
554.335
564.407
573.693
582.145
589.721
596.381
602.09
606.818
610.54
613.233
614.884
615.48
615.019
613.5
481.982
495.685
508.928
521.654
533.804
545.321
556.15
566.241
575.541
584.006
591.591
598.259
603.972
608.702
612.422
615.112
616.756
617.343
616.869
615.335
482.235
495.926
509.157
521.869
534.005
545.508
556.323
566.397
575.683
584.132
591.702
598.353
604.051
608.766
612.471
615.145
616.774
617.347
616.86
615.313
481.076
494.713
507.89
520.549
532.633
544.084
554.85
564.877
574.117
582.522
590.051
596.664
602.327
607.009
610.684
613.333
614.939
615.494
614.991
613.433
478.512
492.052
505.134
517.701
529.694
541.059
551.741
561.688
570.852
579.187
586.65
593.202
598.81
603.443
607.075
609.687
611.264
611.795
611.277
609.709
474.555
487.957
500.905
513.34
525.206
536.448
547.013
556.849
565.909
574.145
581.518
587.988
593.522
598.09
601.666
604.232
605.772
606.276
605.74
604.166
469.228
482.452
495.225
507.491
519.194
530.28
540.695
550.389
559.316
567.429
574.688
581.055
586.496
590.984
594.492
597.001
598.498
598.971
598.418
596.839
462.561
475.568
488.129
500.19
511.695
522.59
532.824
542.348
551.114
559.079
566.201
572.445
577.777
582.17
585.597
588.042
589.489
589.929
589.358
587.778
454.592
467.344
479.658
491.479
502.752
513.425
523.449
532.774
541.354
549.147
556.112
562.214
567.42
571.704
575.041
577.412
578.804
579.208
578.621
577.042
445.371
457.833
469.864
481.411
492.422
502.844
512.628
521.728
530.098
537.696
544.484
550.427
555.493
559.655
562.89
565.181
566.514
566.88
566.277
564.704
434.953
447.092
458.809
470.052
480.769
490.912
500.431
509.281
517.419
524.802
531.395
537.162
542.073
546.103
549.228
551.432
552.702
553.029
552.41
550.847
423.406
435.19
446.563
457.473
467.871
477.709
486.939
495.517
503.4
510.55
516.93
522.507
527.252
531.139
534.146
536.258
537.461
537.749
537.117
535.567
)
;
    }
    coldSide
    {
        type            mixed;
        refValue        uniform 300;
        refGradient     uniform 0;
        valueFraction   uniform 0.991591;
        source          uniform 0;
        value           nonuniform List<scalar> 
400
(
300.023
300.023
300.024
300.025
300.025
300.026
300.026
300.027
300.027
300.028
300.028
300.028
300.029
300.029
300.029
300.029
300.029
300.029
300.029
300.029
300.024
300.024
300.024
300.025
300.026
300.026
300.027
300.027
300.027
300.028
300.029
300.029
300.029
300.029
300.029
300.029
300.03
300.03
300.03