/*--------------------------------*- C++ -*----------------------------------*\
| =========                 |                                                 |
| \\      /  F ield         | OpenFOAM: The Open Source CFD Toolbox           |
|  \\    /   O peration     | Version:  2212                                  |
|   \\  /    A nd           | Website:  www.openfoam.com                      |
|    \\/     M anipulation  |                                                 |
\*---------------------------------------------------------------------------*/
FoamFile
{
    version     2.0;
    format      ascii;
    arch        "LSB;label=32;scalar=64";
    class       volScalarField;
    location    "./ITHACAoutput/true/1.6";
    object      error;
}
// * * * * * * * * * * * * * * * * * * * * * * * * * * * * * * * * * * * * * //

dimensions      [0 0 0 1 0 0 0];

internalField   nonuniform List<scalar> 
3200
(
1.37074
1.5224
1.94792
2.41502
3.23087
4.06199
4.95252
5.64704
6.19533
6.49997
6.5158
6.15924
5.62764
4.85177
4.0313
3.19277
2.40886
1.84409
1.47229
1.18853
1.09869
1.30935
1.58956
2.09894
2.74523
3.52048
4.20437
4.83739
5.37339
5.57598
5.54821
5.35301
4.80985
4.04497
3.41969
2.70218
2.03312
1.43252
1.20517
1.01561
0.882536
1.0513
1.3347
1.72099
2.31223
2.8872
3.50764
4.05022
4.42211
4.63974
4.64896
4.42524
4.10821
3.42146
2.87324
2.24855
1.67527
1.319
1.02997
0.832618
0.792861
0.787601
1.03369
1.34983
1.83272
2.35134
2.85745
3.3078
3.62606
3.84123
3.85001
3.59504
3.32207
2.80669
2.28047
1.83986
1.3509
1.02365
0.77659
0.607886
0.527069
0.609342
0.846685
1.09043
1.41663
1.74852
2.15403
2.52454
2.71618
2.95007
2.93803
2.81647
2.54096
2.21524
1.84944
1.38893
1.1414
0.780389
0.605828
0.479908
0.342178
0.471573
0.509384
0.68118
1.04391
1.29062
1.51072
1.80274
1.98136
2.07937
2.06997
1.942
1.79788
1.55066
1.26151
0.980671
0.740071
0.493497
0.497306
0.357199
0.207231
0.299207
0.318813
0.44092
0.568463
0.778931
0.971087
1.07813
1.1792
1.23671
1.27097
1.21082
1.02309
0.906587
0.734276
0.603625
0.443433
0.353324
0.208802
0.268459
0.0728656
0.11309
0.100443
0.113113
0.188364
0.313775
0.237303
0.378257
0.440479
0.428446
0.382189
0.375861
0.334026
0.288992
0.246564
0.203134
0.163412
0.117113
0.0542422
0.153083
0.701685
0.865722
1.20671
1.72808
2.45123
3.26147
4.18727
4.83822
5.37683
5.65149
5.68514
5.38373
4.78241
3.97105
3.23098
2.41404
1.69014
1.09046
0.714265
0.588446
0.51281
0.691332
1.06059
1.49624
2.2
2.86399
3.61222
4.17833
4.62173
4.90201
4.88542
4.65828
4.17662
3.45573
2.74745
2.07123
1.43425
0.985091
0.653469
0.481128
0.526777
0.546102
0.843344
1.30158
1.79432
2.34534
2.98093
3.54185
3.88864
4.08782
4.0959
3.89042
3.38071
2.95674
2.33012
1.74538
1.22112
0.870141
0.555784
0.348883
0.401067
0.536793
0.733946
0.989904
1.44909
2.02989
2.36851
2.88286
3.15726
3.33755
3.36109
3.22789
2.85598
2.4503
1.87893
1.47012
1.01982
0.668561
0.435574
0.354276
0.337592
0.387486
0.560342
0.787789
1.12528
1.49284
1.8917
2.18571
2.45225
2.63435
2.56712
2.4665
2.15452
1.90326
1.50596
1.1599
0.783129
0.559563
0.312288
0.318668
0.249609
0.310741
0.283457
0.52274
0.782883
1.05766
1.32409
1.5872
1.72534
1.87719
1.84453
1.74022
1.5397
1.31008
1.05312
0.76953
0.520411
0.413967
0.258899
0.216257
0.112251
0.14508
0.278149
0.396546
0.491749
0.636938
0.834074
0.943502
1.04064
1.07251
1.16471
1.04432
0.922357
0.766457
0.680513
0.499486
0.269322
0.167506
0.113162
0.108233
0.0304597
-0.0142137
0.114565
0.113257
0.18099
0.22614
0.312375
0.354158
0.398026
0.395407
0.368325
0.3901
0.357474
0.296972
0.174458
0.156117
0.062512
0.0666096
0.0319181
0.0378089
-0.036414
0.0815569
0.425205
0.882873
1.57469
2.28769
3.05018
3.75858
4.29086
4.56002
4.57285
4.3018
3.78511
2.98446
2.20555
1.46213
0.818323
0.329424
-0.0220581
-0.146079
-0.0139015
0.051489
0.410556
0.796746
1.39928
1.96688
2.6359
3.2884
3.73441
4.00248
3.88141
3.73416
3.25371
2.61072
1.97066
1.33511
0.652697
0.284693
0.0324631
-0.118257
-0.0014827
0.0145745
0.26528
0.659465
1.14275
1.67302
2.2454
2.79235
3.08522
3.41892
3.38231
3.108
2.75867
2.18309
1.72365
1.13808
0.680288
0.194862
0.00310598
-0.0701468
-0.0148085
0.0737437
0.21327
0.495006
0.860612
1.4197
1.82261
2.27929
2.53804
2.70262
2.76244
2.59378
2.22729
1.79384
1.41208
0.968723
0.463462
0.148331
0.0224347
-0.0691204
-0.0158025
0.0360329
0.161236
0.395863
0.725091
1.04966
1.35523
1.74824
1.93195
2.15116
2.14961
1.97381
1.76394
1.46
1.04374
0.687987
0.422174
0.138761
-0.0149676
-0.0500498
0.0341553
0.0960415
0.0428046
0.28319
0.551063
0.759056
1.01475
1.21627
1.4511
1.50758
1.50088
1.45282
1.25833
1.03343
0.778507
0.552866
0.305476
0.163706
0.0708155
-0.0243173
-0.0376832
0.0194096
0.083465
0.17087
0.328657
0.454438
0.608104
0.733192
0.777642
0.955942
0.894412
0.928665
0.804463
0.620779
0.490881
0.319105
0.139593
0.0709202
0.0173716
-0.0817951
-0.0220021
0.0493265
0.0624508
0.0155377
0.130951
0.114719
0.145511
0.22722
0.342794
0.264275
0.269569
0.280648
0.281087
0.200551
0.168143
0.151737
0.0725699
-0.00730429
-0.017925
-0.0606127
-0.683639
-0.643363
-0.436537
0.0395487
0.721516
1.36259
1.9762
2.68881
3.09329
3.39963
3.40891
3.0918
2.58731
1.92022
1.21173
0.553077
-0.0406408
-0.52306
-0.794824
-0.847105
-0.635755
-0.60655
-0.364964
0.00815541
0.60281
1.12709
1.72382
2.27884
2.72589
2.95151
2.92334
2.64024
2.21876
1.72496
1.0929
0.515444
-0.0721526
-0.363562
-0.646958
-0.725325
-0.50563
-0.512311
-0.29474
0.0475315
0.456679
1.00143
1.44974
1.96021
2.26206
2.54905
2.51534
2.24895
1.91122
1.48184
0.956731
0.450367
-0.0144005
-0.372514
-0.5286
-0.56979
-0.450346
-0.351963
-0.25778
-0.00681527
0.37466
0.791358
1.1479
1.54952
1.85024
2.04664
2.05739
1.89241
1.56212
1.20327
0.761581
0.366894
-0.0103437
-0.259516
-0.425702
-0.46202
-0.311076
-0.294566
-0.126264
-0.0164081
0.350997
0.619628
0.985922
1.23016
1.44691
1.54839
1.51606
1.42599
1.24778
0.898141
0.577408
0.318735
0.00562295
-0.170328
-0.369817
-0.32031
-0.256516
-0.185421
-0.0939389
0.0115894
0.253173
0.38168
0.684638
0.87243
1.01509
1.1146
1.05934
1.00742
0.885519
0.733482
0.427986
0.227688
0.0452248
-0.15012
-0.242934
-0.223028
-0.159034
-0.0830223
-0.064558
-0.0229221
0.0927182
0.227193
0.407467
0.543188
0.670895
0.716157
0.656841
0.680785
0.559677
0.42849
0.235809
0.108586
-0.0274291
-0.109377
-0.153769
-0.238557
-0.111854
-0.0779066
0.0183523
-0.00374666
0.0530838
0.0602912
0.163361
0.184607
0.203955
0.259144
0.207387
0.241514
0.19773
0.246397
0.117159
0.0370417
0.0422275
-0.0689672
0.0200465
-0.0547152
-1.30999
-1.35287
-1.18134
-0.819149
-0.239442
0.286906
0.96175
1.54715
2.00673
2.27135
2.31168
1.99355
1.49815
0.918715
0.245133
-0.369623
-0.894126
-1.19706
-1.4393
-1.43269
-1.18958
-1.10663
-0.985577
-0.692615
-0.26968
0.309869
0.85661
1.38587
1.73227
1.95738
1.99624
1.74528
1.34849
0.816882
0.303849
-0.302305
-0.725034
-1.0136
-1.1507
-1.1578
-0.962225
-0.966357
-0.815654
-0.549442
-0.158402
0.307178
0.728411
1.19548
1.49872
1.60642
1.64504
1.4396
1.12019
0.627939
0.269027
-0.229465
-0.626686
-0.894547
-0.99266
-1.03757
-0.743584
-0.8247
-0.61179
-0.452108
-0.121654
0.207264
0.586655
0.947829
1.24915
1.37643
1.41204
1.21008
0.894848
0.56971
0.199735
-0.159642
-0.487207
-0.731118
-0.761899
-0.850762
-0.623535
-0.659355
-0.531369
-0.354954
-0.118291
0.158143
0.497368
0.767399
0.950121
1.05025
1.07192
0.967589
0.745671
0.418416
0.112985
-0.147216
-0.417
-0.549441
-0.668632
-0.621278
-0.42868
-0.483907
-0.324505
-0.183555
-0.0521764
0.103304
0.361777
0.541599
0.653489
0.708979
0.695649
0.661606
0.568463
0.361761
0.181277
-0.0909284
-0.243072
-0.374467
-0.35208
-0.48361
-0.284183
-0.283118
-0.247321
-0.166585
-0.131525
0.103001
0.202552
0.273616
0.419834
0.48564
0.39422
0.393635
0.323765
0.175227
0.0742868
-0.0874956
-0.198702
-0.217213
-0.265376
-0.274777
-0.144776
-0.0269915
-0.063118
-0.0452022
-0.0125223
-0.0675076
0.0739252
0.0949091
0.145749
0.0602658
0.123955
0.162559
0.131205
0.041602
-0.0663625
-0.0596488
-0.0695618
-0.0560506
-0.0760437
-0.101753
-1.88253
-1.96216
-1.78342
-1.41763
-1.10147
-0.497677
0.0348964
0.559607
0.945916
1.11639
1.13391
0.860571
0.551353
-0.0569047
-0.579256
-1.07801
-1.54954
-1.86871
-2.03097
-1.93841
-1.67727
-1.68474
-1.53233
-1.28396
-0.910231
-0.431922
0.0640086
0.456257
0.766532
0.930961
0.94631
0.78363
0.49598
0.00135047
-0.429938
-1.02917
-1.25477
-1.53797
-1.66538
-1.70257
-1.4225
-1.33395
-1.31289
-1.14213
-0.79554
-0.369482
-0.00806427
0.453732
0.689137
0.80247
0.862286
0.694077
0.369932
-0.011359
-0.369383
-0.787323
-1.1138
-1.29399
-1.39524
-1.42431
-1.20012
-1.07473
-1.00933
-0.945957
-0.583307
-0.298889
0.0538795
0.370763
0.613877
0.690717
0.786227
0.569611
0.376903
0.0653178
-0.308412
-0.602228
-0.854669
-1.09178
-1.08304
-1.15245
-0.821597
-0.814265
-0.749213
-0.728545
-0.500458
-0.223591
0.109389
0.335763
0.422107
0.573419
0.604122
0.529848
0.292829
0.00789134
-0.3021
-0.512283
-0.683976
-0.774217
-0.902276
-0.884399
-0.607791
-0.54035
-0.550504
-0.497402
-0.33612
-0.119747
0.0387727
0.152279
0.365174
0.40553
0.363178
0.275602
0.189735
0.0739967
-0.120826
-0.350204
-0.474257
-0.555022
-0.578891
-0.647984
-0.355994
-0.411937
-0.388006
-0.248936
-0.214006
-0.182259
-0.000516413
0.113507
0.1402
0.220664
0.270219
0.185093
0.0474801
-0.0143178
-0.0889551
-0.167196
-0.348409
-0.381631
-0.37096
-0.358311
-0.117644
-0.139438
-0.15506
-0.112469
-0.0499825
-0.0087333
-0.00684922
0.0648035
0.109544
0.133629
0.117074
0.0240607
0.0333223
0.0536697
-0.0823229
-0.0740177
-0.128627
-0.112639
-0.116837
-0.133989
-2.22928
-2.20721
-2.22019
-2.03894
-1.76877
-1.25342
-0.741423
-0.362494
0.0222955
0.134499
0.168141
-0.0583671
-0.423908
-0.801937
-1.31637
-1.78728
-2.0955
-2.28913
-2.31798
-2.22071
-1.82317
-1.90961
-1.91956
-1.78406
-1.45424
-1.07857
-0.705284
-0.311202
-0.0790399
0.105957
0.110907
-0.00695356
-0.26697
-0.625265
-1.1467
-1.47515
-1.73595
-1.96566
-2.01854
-1.91136
-1.59231
-1.68019
-1.71352
-1.43357
-1.22938
-0.922746
-0.444534
-0.264803
0.000722796
0.14438
0.190985
0.0323477
-0.207883
-0.579934
-0.941477
-1.26733
-1.54359
-1.62614
-1.7015
-1.64356
-1.32261
-1.30979
-1.30012
-1.20642
-0.936729
-0.741936
-0.410958
-0.163141
0.0655755
0.0936788
0.103294
-0.0159874
-0.180424
-0.462708
-0.758007
-1.05972
-1.18804
-1.41119
-1.28698
-1.31144
-1.01945
-1.04352
-1.00025
-0.98182
-0.839611
-0.542557
-0.325768
-0.0507899
0.0213747
0.0947306
0.056131
0.0999459
-0.154022
-0.244004
-0.622831
-0.785371
-0.913101
-0.998452
-0.980799
-1.02756
-0.744282
-0.733043
-0.785913
-0.653572
-0.547901
-0.387031
-0.230775
-0.104438
0.00525887
0.0896396
0.0837002
0.0119195
-0.0825602
-0.174705
-0.432431
-0.542175
-0.62414
-0.700113
-0.789473
-0.693878
-0.360062
-0.439621
-0.414778
-0.455453
-0.34325
-0.207053
-0.0793031
-0.0208376
-0.00865086
-0.0129502
0.0467047
0.0605636
-0.083028
-0.140971
-0.198367
-0.322723
-0.397812
-0.411085
-0.427379
-0.455422
-0.133292
-0.177863
-0.151093
-0.148091
-0.158058
-0.0630813
-0.053917
0.0241102
-0.0505179
0.041352
0.0603914
0.0286809
-0.0479892
-0.0668895
-0.164052
-0.120065
-0.0646983
-0.149146
-0.153402
-0.160902
-2.37493
-2.49673
-2.48795
-2.47522
-2.11436
-1.8278
-1.3845
-1.08153
-0.833768
-0.683785
-0.640202
-0.76306
-1.08538
-1.46576
-1.89521
-2.18938
-2.3709
-2.6239
-2.56381
-2.40891
-2.02619
-2.20721
-2.17446
-2.13827
-1.87828
-1.66606
-1.22155
-0.965404
-0.7336
-0.584544
-0.582389
-0.653575
-0.902427
-1.18705
-1.55873
-1.90532
-2.09966
-2.22896
-2.16123
-1.97648
-1.72737
-1.83288
-1.86049
-1.81223
-1.54539
-1.35508
-1.07784
-0.774305
-0.526169
-0.419275
-0.473165
-0.636297
-0.784022
-1.0241
-1.37096
-1.57832
-1.77407
-1.83943
-1.78944
-1.70946
-1.3921
-1.51524
-1.4953
-1.45914
-1.31967
-1.01521
-0.870667
-0.613264
-0.518592
-0.331257
-0.296494
-0.447552
-0.618441
-0.837595
-1.0322
-1.26542
-1.41013
-1.43652
-1.49995
-1.42332
-1.05364
-1.12797
-1.15785
-1.12445
-1.00399
-0.775374
-0.656042
-0.471342
-0.354628
-0.272819
-0.268547
-0.408861
-0.522324
-0.612353
-0.803393
-0.958289
-1.03281
-1.1402
-1.13469
-1.04969
-0.745505
-0.805054
-0.802439
-0.772986
-0.678794
-0.637174
-0.454328
-0.343464
-0.202009
-0.261704
-0.156442
-0.251241
-0.337735
-0.465617
-0.636561
-0.714951
-0.840738
-0.798468
-0.815622
-0.776384
-0.431285
-0.514589
-0.533951
-0.480136
-0.424341
-0.344435
-0.229623
-0.171132
-0.135588
-0.0965241
-0.150123
-0.166276
-0.242385
-0.24801
-0.349957
-0.451794
-0.430085
-0.496255
-0.531381
-0.480944
-0.186808
-0.195851
-0.117076
-0.192634
-0.106654
-0.143448
-0.0793668
0.0107346
-0.0255439
-0.073577
-0.122012
-0.06721
-0.0892513
-0.0704826
-0.0662533
-0.0989624
-0.179505
-0.145812
-0.117614
-0.159167
-2.31543
-2.54712
-2.64034
-2.6626
-2.50347
-2.27836
-1.99193
-1.68311
-1.45609
-1.3873
-1.33035
-1.45198
-1.62786
-1.95067
-2.22672
-2.51042
-2.62447
-2.68543
-2.59182
-2.46124
-2.03513
-2.1129
-2.30972
-2.25312
-2.18628
-1.91531
-1.70895
-1.31614
-1.27457
-1.14633
-1.12288
-1.19293
-1.39933
-1.67295
-1.89754
-2.1246
-2.20806
-2.30421
-2.17615
-1.95186
-1.69058
-1.82026
-1.89307
-1.88743
-1.91024
-1.61813
-1.4025
-1.23606
-1.07094
-0.90489
-0.89881
-1.04923
-1.08034
-1.37818
-1.62563
-1.78771
-1.85732
-1.88699
-1.7804
-1.69965
-1.32863
-1.52108
-1.52632
-1.56821
-1.54826
-1.27715
-1.12105
-0.933033
-0.865918
-0.752104
-0.747469
-0.805246
-0.931762
-1.09577
-1.35524
-1.45541
-1.52641
-1.53072
-1.45416
-1.38317
-1.12499
-1.17569
-1.24537
-1.22828
-1.16061
-1.03529
-0.929826
-0.775851
-0.620338
-0.612519
-0.606347
-0.646884
-0.680463
-0.871912
-0.987994
-1.10793
-1.25016
-1.20713
-1.12388
-0.993748
-0.754244
-0.809302
-0.878768
-0.902002
-0.793046
-0.703246
-0.615585
-0.594331
-0.4612
-0.469406
-0.376115
-0.485876
-0.507963
-0.653947
-0.745241
-0.859536
-0.867166
-0.852805
-0.834628
-0.77654
-0.435051
-0.493068
-0.486273
-0.479536
-0.517886
-0.474869
-0.368663
-0.30347
-0.244686
-0.219004
-0.226976
-0.275663
-0.326139
-0.34299
-0.446077
-0.464985
-0.457225
-0.557315
-0.44423
-0.487277
-0.12756
-0.192144
-0.124167
-0.198858
-0.159368
-0.154763
-0.136644
-0.0738266
-0.18823
-0.0889814
-0.151305
-0.0821368
-0.1357
-0.136229
-0.15615
-0.181972
-0.178895
-0.122048
-0.137444
-0.17673
-2.0806
-2.36993
-2.64521
-2.67586
-2.60933
-2.44571
-2.24483
-2.15827
-1.85588
-1.76794
-1.7672
-1.88729
-2.04532
-2.32205
-2.42541
-2.64234
-2.68657
-2.57023
-2.4299
-2.06908
-1.82309
-2.06285
-2.23931
-2.27313
-2.26017
-2.17585
-1.92588
-1.78277
-1.60226
-1.53814
-1.4878
-1.53121
-1.74647
-1.91649
-2.06127
-2.27122
-2.2642
-2.23279
-2.13826
-1.86066
-1.53182
-1.71632
-1.91762
-1.9752
-1.92441
-1.71279
-1.6126
-1.42767
-1.33096
-1.29987
-1.17223
-1.3466
-1.47311
-1.59417
-1.8176
-1.8384
-1.90087
-1.89497
-1.71663
-1.53433
-1.19121
-1.41083
-1.49893
-1.58075
-1.54692
-1.46015
-1.28848
-1.18349
-1.01681
-1.04795
-0.985358
-1.03182
-1.18792
-1.20557
-1.43623
-1.56628
-1.58075
-1.49213
-1.40544
-1.1956
-0.947781
-1.09198
-1.19106
-1.24287
-1.21382
-1.13345
-1.0279
-0.902564
-0.808068
-0.790224
-0.856966
-0.756813
-0.949889
-1.05948
-1.08664
-1.18254
-1.26455
-1.13879
-1.09854
-0.930453
-0.709062
-0.826787
-0.819279
-0.945099
-0.850207
-0.807075
-0.734924
-0.598252
-0.57109
-0.556953
-0.552709
-0.600956
-0.625711
-0.711956
-0.811768
-0.833241
-0.832787
-0.831023
-0.758903
-0.703598
-0.431268
-0.479131
-0.497066
-0.487508
-0.539338
-0.461374
-0.426774
-0.399769
-0.365705
-0.310392
-0.284725
-0.299346
-0.350777
-0.481933
-0.470648
-0.562944
-0.556175
-0.503643
-0.462743
-0.412902
-0.127408
-0.198794
-0.15822
-0.177564
-0.183669
-0.142064
-0.114831
-0.168291
-0.151933
-0.060022
-0.130277
-0.076702
-0.081483
-0.157373
-0.195858
-0.146136
-0.140089
-0.15425
-0.148249
-0.121639
-1.69377
-2.00984
-2.3586
-2.50584
-2.52019
-2.41568
-2.37792
-2.21349
-2.12109
-2.00449
-1.92806
-2.09181
-2.19085
-2.39721
-2.48545
-2.50909
-2.49808
-2.34196
-2.0061
-1.73905
-1.47504
-1.77872
-1.94279
-2.17358
-2.17684
-2.14198
-2.04058
-1.88088
-1.70201
-1.70459
-1.7244
-1.7977
-1.90856
-1.96996
-2.1485
-2.11935
-2.13469
-1.98087
-1.68745
-1.45971
-1.2507
-1.48145
-1.69241
-1.82059
-1.76597
-1.8288
-1.65317
-1.61371
-1.52775
-1.41276
-1.4036
-1.49043
-1.50616
-1.64972
-1.68319
-1.82704
-1.80454
-1.63657
-1.52262
-1.23525
-0.96364
-1.25964
-1.37941
-1.48064
-1.48283
-1.4419
-1.34758
-1.25408
-1.21906
-1.204
-1.18917
-1.17269
-1.24743
-1.36751
-1.43477
-1.43107
-1.4588
-1.36276
-1.13385
-0.96931
-0.76086
-0.907732
-1.10342
-1.18894
-1.13447
-1.12637
-1.129
-1.08579
-0.913591
-0.81012
-0.876601
-0.854865
-0.948873
-1.02352
-1.11255
-1.17474
-1.06362
-1.08979
-0.87994
-0.783259
-0.570045
-0.718949
-0.722055
-0.854131
-0.86942
-0.833489
-0.722637
-0.718302
-0.701267
-0.610194
-0.620166
-0.621925
-0.681504
-0.763445
-0.748035
-0.724691
-0.755025
-0.68307
-0.62703
-0.493172
-0.376238
-0.412404
-0.441608
-0.464894
-0.50957
-0.515133
-0.469547
-0.468191
-0.40898
-0.328669
-0.352977
-0.432432
-0.470115
-0.504131
-0.477214
-0.450797
-0.42816
-0.396541
-0.30423
-0.339158
-0.0726758
-0.0733289
-0.120045
-0.148039
-0.171812
-0.212411
-0.126678
-0.105303
-0.147364
-0.165398
-0.153951
-0.201282
-0.174982
-0.14922
-0.199026
-0.179711
-0.207138
-0.232347
-0.0955098
-0.103263
-1.08984
-1.44732
-1.89011
-2.1343
-2.26179
-2.2816
-2.21088
-2.16577
-2.09213
-1.94821
-1.99384
-1.99908
-2.1833
-2.17408
-2.24725
-2.24338
-2.04002
-1.92666
-1.50876
-1.0608
-1.00034
-1.29555
-1.61297
-1.82971
-1.96541
-1.94651
-1.91371
-1.8628
-1.70783
-1.80909
-1.71661
-1.69753
-1.76836
-1.89005
-1.91402
-1.90503
-1.74766
-1.55173
-1.27453
-0.918689
-0.772859
-1.10604
-1.28687
-1.57355
-1.58553
-1.58165
-1.58286
-1.57739
-1.47789
-1.47224
-1.47415
-1.52838
-1.47752
-1.58239
-1.62112
-1.61501
-1.43565
-1.39579
-1.06071
-0.738578
-0.639527
-0.839068
-1.13978
-1.305
-1.29048
-1.3421
-1.30795
-1.18808
-1.2009
-1.10286
-1.17232
-1.27316
-1.24601
-1.23321
-1.29003
-1.26226
-1.09788
-1.00603
-0.847453
-0.5917
-0.500685
-0.670047
-0.891214
-1.00704
-0.993656
-1.03128
-1.06512
-0.958698
-0.978767
-0.954031
-0.777917
-0.938293
-0.946611
-0.977891
-0.904199
-0.970729
-0.954272
-0.802259
-0.656751
-0.468645
-0.328512
-0.416095
-0.58667
-0.712046
-0.736953
-0.624036
-0.78435
-0.666861
-0.683702
-0.605669
-0.609645
-0.635736
-0.672086
-0.668151
-0.653043
-0.739749
-0.644959
-0.571343
-0.514591
-0.31016
-0.214091
-0.271944
-0.349376
-0.389629
-0.459845
-0.429983
-0.492938
-0.465585
-0.41995
-0.401302
-0.414447
-0.403823
-0.432884
-0.357681
-0.434319
-0.38627
-0.395261
-0.424411
-0.246405
-0.126741
-0.0920468
0.00341305
-0.0924563
-0.0743901
-0.145558
-0.119851
-0.174669
-0.15119
-0.156292
-0.168895
-0.1349
-0.110685
-0.0794762
-0.105375
-0.195747
-0.168328
-0.147238
-0.130613
-0.130418
-0.114954
-0.219647
-0.730448
-1.0857
-1.53093
-1.7008
-1.8557
-1.89143
-1.81705
-1.81827
-1.76764
-1.77656
-1.88411
-1.81498
-1.86762
-1.77646
-1.65829
-1.46164
-1.12995
-0.652396
-0.225706
-0.183346
-0.620153
-1.01233
-1.20738
-1.54839
-1.60923
-1.68053
-1.65015
-1.52646
-1.5628
-1.5451
-1.58119
-1.60825
-1.47816
-1.50515
-1.41044
-1.2272
-0.877306
-0.50927
-0.100346
-0.152052
-0.55109
-0.795994
-1.09086
-1.23593
-1.35104
-1.28557
-1.27039
-1.28268
-1.20354
-1.29887
-1.27208
-1.25064
-1.34612
-1.28777
-1.2104
-1.06402
-0.795339
-0.422888
-0.13332
-0.173221
-0.378609
-0.668394
-0.933731
-0.96071
-1.05884
-1.06571
-1.02076
-0.980967
-0.998177
-0.941569
-1.11474
-1.01049
-1.10996
-0.946911
-0.963311
-0.878764
-0.567029
-0.318304
-0.0153219
-0.14808
-0.391548
-0.459411
-0.652085
-0.758689
-0.802675
-0.876613
-0.82058
-0.850282
-0.768348
-0.757677
-0.72198
-0.776359
-0.832229
-0.805453
-0.725944
-0.565035
-0.488561
-0.234628
-0.0808737
-0.137999
-0.246753
-0.394034
-0.518258
-0.595989
-0.577602
-0.623327
-0.601188
-0.591361
-0.582641
-0.527057
-0.52076
-0.596839
-0.59519
-0.539977
-0.519814
-0.391552
-0.306331
-0.229245
-0.0332169
-0.162123
-0.1995
-0.239116
-0.309784
-0.318693
-0.336839
-0.378304
-0.386083
-0.283288
-0.349781
-0.330438
-0.299736
-0.36651
-0.261491
-0.338332
-0.292189
-0.17855
-0.188769
-0.116409
0.0466063
-0.0140778
-0.0781365
-0.0761986
-0.0818197
-0.13245
-0.169868
-0.173743
-0.132007
-0.110726
-0.0795331
-0.149131
-0.167665
-0.068827
-0.0880369
-0.066736
-0.101525
-0.0956215
-0.102623
-0.0690456
-0.00963629
0.787671
0.285848
-0.263209
-0.692225
-0.974844
-1.05792
-1.27299
-1.23533
-1.22153
-1.2494
-1.23096
-1.3046
-1.21183
-1.15795
-1.07443
-0.857165
-0.594396
-0.220939
0.308338
0.901678
0.628529
0.161329
-0.201393
-0.579786
-0.765598
-1.00509
-1.0476
-1.07108
-1.05566
-1.11966
-1.1173
-1.07034
-0.989956
-0.964999
-0.936381
-0.782257
-0.487982
-0.0665825
0.258549
0.651966
0.58225
0.230022
-0.182911
-0.469245
-0.644107
-0.764193
-0.903955
-0.877334
-0.848147
-0.904956
-0.882173
-0.906337
-0.878445
-0.915691
-0.670857
-0.599647
-0.376128
-0.0976219
0.34839
0.61725
0.470252
0.194283
-0.101929
-0.290534
-0.575336
-0.630035
-0.699448
-0.721861
-0.720705
-0.682795
-0.679083
-0.711059
-0.709009
-0.704199
-0.68316
-0.532031
-0.310357
-0.0582981
0.238666
0.552418
0.323894
0.138602
-0.083196
-0.284375
-0.388138
-0.506161
-0.519987
-0.484799
-0.51335
-0.543081
-0.518287
-0.511835
-0.520036
-0.424147
-0.403664
-0.34154
-0.183351
-0.00854274
0.133574
0.400155
0.279316
0.110595
-0.0659212
-0.194385
-0.312192
-0.324051
-0.351253
-0.385081
-0.417189
-0.417649
-0.396621
-0.306427
-0.370659
-0.301159
-0.292526
-0.299771
-0.213735
-0.0237681
0.199273
0.357348
0.175054
0.0359648
-0.0486869
-0.107208
-0.149666
-0.259752
-0.266469
-0.23698
-0.249115
-0.222927
-0.210252
-0.200712
-0.208249
-0.215222
-0.252615
-0.166446
-0.0752334
-0.00566407
0.043913
0.172871
0.0600675
-0.00786545
0.0578889
-0.0307239
-0.0309486
-0.070178
-0.0607736
-0.0837837
-0.119927
-0.0194267
-0.0370579
-0.0910842
-0.0846113
-0.0515442
-0.0953694
-0.0568339
0.0310838
0.0190701
-0.00234669
0.0452452
2.00499
1.50104
0.847997
0.349857
0.0611048
-0.184023
-0.340236
-0.475578
-0.476501
-0.502701
-0.559564
-0.411622
-0.330691
-0.314368
-0.113451
0.181715
0.504282
1.00488
1.56969
2.15016
1.74293
1.2813
0.810959
0.388224
0.0535907
-0.118609
-0.298507
-0.33395
-0.423035
-0.431253
-0.478826
-0.3949
-0.288688
-0.205736
-0.0660873
0.169428
0.452237
0.867654
1.4027
1.91154
1.49761
1.09946
0.695625
0.333119
0.00126561
-0.0167965
-0.215345
-0.268054
-0.321869
-0.411525
-0.339467
-0.26486
-0.284969
-0.138937
-0.03642
0.129443
0.416634
0.761634
1.20211
1.65145
1.17126
0.867016
0.552831
0.263562
-0.00920012
-0.0907319
-0.154856
-0.225001
-0.265388
-0.288518
-0.302739
-0.225754
-0.230405
-0.0978579
0.0382839
0.17466
0.251234
0.634558
0.948766
1.29086
0.862826
0.657484
0.513505
0.214983
0.048779
-0.0398646
-0.197272
-0.193855
-0.171756
-0.211044
-0.236074
-0.150163
-0.183616
-0.102011
-0.00844642
0.105354
0.261363
0.48538
0.715285
0.96735
0.67221
0.530102
0.361018
0.162459
0.0265152
-0.00701669
-0.0612382
-0.164452
-0.173687
-0.149254
-0.141349
-0.0738887
-0.0598134
-0.112079
0.0111141
0.149019
0.179129
0.349914
0.60711
0.696639
0.357316
0.308813
0.18974
0.0774582
-0.0114382
-0.0398636
-0.0876957
-0.082269
-0.072541
-0.0972933
-0.0792033
-0.0287782
-0.0548556
-0.0491547
-0.0239262
0.0459586
0.126364
0.196825
0.393047
0.42064
0.1264
0.148898
0.0557191
0.0830457
0.0187115
-0.0135141
-0.0467542
-0.0701692
-0.0866414
-0.0151979
-0.0645534
-0.0250187
-0.0158657
-0.0392724
0.0563089
0.0521406
0.0768959
0.107891
0.142656
0.138105
3.50517
2.86195
2.25448
1.74008
1.31187
0.951325
0.753863
0.615512
0.518458
0.545832
0.507276
0.573484
0.760025
0.826012
1.10192
1.33379
1.79789
2.4056
3.00444
3.68146
3.03988
2.47496
1.92777
1.51225
1.12723
0.799834
0.632614
0.550463
0.42807
0.49136
0.512025
0.600232
0.621087
0.806682
0.941745
1.1904
1.55838
2.11449
2.61081
3.16573
2.57065
2.19956
1.68302
1.28161
0.990502
0.750582
0.589105
0.499209
0.444077
0.388628
0.495125
0.430697
0.498914
0.651218
0.822964
1.08801
1.41037
1.80124
2.25752
2.6427
2.10061
1.742
1.38753
1.07812
0.829722
0.615351
0.452388
0.439253
0.395403
0.313792
0.439563
0.473287
0.483686
0.591742
0.706109
0.86748
1.15
1.46588
1.86752
2.14287
1.62466
1.35846
0.999504
0.823374
0.626948
0.503038
0.3854
0.255738
0.290649
0.320172
0.287104
0.270211
0.34218
0.419694
0.480464
0.614123
0.89581
1.14508
1.4269
1.6449
1.07729
0.927371
0.740794
0.572083
0.445852
0.436375
0.31528
0.227048
0.210462
0.18691
0.254087
0.267158
0.257113
0.261766
0.362297
0.436526
0.703959
0.801767
1.00446
1.25116
0.613861
0.578434
0.500224
0.344674
0.207194
0.19681
0.101274
0.158014
0.190732
0.102334
0.158274
0.17871
0.14013
0.218252
0.24447
0.281469
0.446785
0.502996
0.630934
0.7768
0.223356
0.217449
0.115025
0.101055
0.104977
0.0786068
0.0375037
0.0551118
0.089155
0.0235402
0.0609928
0.0922795
-0.0203991
0.0539877
0.0244947
0.106341
0.102029
0.183981
0.195252
0.280241
5.2469
4.60177
3.78945
3.24106
2.76457
2.41775
2.14869
1.90928
1.87915
1.81561
1.80775
1.86922
1.98712
2.1928
2.45456
2.82866
3.37547
3.95625
4.60353
5.32508
4.49281
3.98712
3.36656
2.77123
2.43173
2.10672
1.76053
1.67226
1.61261
1.60983
1.61124
1.63846
1.80191
1.89622
2.15588
2.435
2.87565
3.50509
4.01891
4.59606
3.77347
3.36813
2.82039
2.37226
2.04343
1.77745
1.52395
1.48983
1.36915
1.27929
1.35052
1.46077
1.51095
1.63764
1.875
2.15769
2.51527
2.92048
3.48753
3.89007
3.07442
2.71552
2.30213
1.92836
1.68063
1.45362
1.23979
1.21798
1.07587
1.15513
1.12972
1.16662
1.17355
1.32382
1.49148
1.71199
2.12623
2.43072
2.85321
3.28643
2.42104
2.16076
1.74585
1.4979
1.31999
1.13179
0.94217
0.90681
0.887887
0.875235
0.824041
0.927485
0.975576
1.08233
1.25035
1.36621
1.57311
1.93969
2.16495
2.4942
1.7206
1.56846
1.29936
1.09827
0.948504
0.834894
0.656092
0.643857
0.586261
0.600761
0.623281
0.564369
0.691821
0.773727
0.793966
0.967065
1.13034
1.39089
1.62631
1.71855
1.01997
0.902065
0.771199
0.579692
0.545602
0.441951
0.430918
0.364779
0.440885
0.459231
0.443365
0.416832
0.428877
0.486966
0.473543
0.591033
0.690681
0.800743
0.983161
1.08152
0.306779
0.317781
0.257533
0.169187
0.193509
0.15292
0.131584
0.07816
0.0215909
0.167776
0.0807532
0.171781
0.147488
0.132408
0.146759
0.179129
0.242078
0.23168
0.29641
0.426413
7.04839
6.35367
5.62496
4.94701
4.40923
3.93372
3.7294
3.48549
3.35427
3.25717
3.31329
3.39546
3.58295
3.79415
4.05301
4.52792
5.01942
5.73924
6.46903
7.15173
6.13475
5.45335
4.81207
4.30891
3.81499
3.3968
3.25162
3.03922
2.88546
2.88156
2.89691
2.94792
3.03686
3.20036
3.58096
3.85884
4.45758
5.01525
5.58363
6.21989
5.13558
4.56948
4.06073
3.58896
3.21093
2.82241
2.73531
2.53795
2.47532
2.41589
2.41105
2.48397
2.58487
2.72904
3.01801
3.28202
3.7939
4.23509
4.7031
5.26495
4.19067
3.72666
3.39984
2.96203
2.67808
2.37973
2.18286
2.05917
1.93954
1.9438
1.97892
2.01968
2.03676
2.28886
2.45662
2.69963
3.07701
3.45665
3.86875
4.26224
3.2106
2.92776
2.58946
2.24582
2.02653
1.83833
1.69371
1.6129
1.54582
1.59594
1.57634
1.54525
1.62487
1.70966
1.94891
2.09488
2.33541
2.63445
2.94197
3.29082
2.3055
2.06487
1.78148
1.64632
1.52071
1.28089
1.16691
1.14149
1.05899
1.09546
1.0957
1.21469
1.21704
1.31474
1.41524
1.47773
1.66818
1.91056
2.20264
2.35312
1.32956
1.26848
1.09999
0.963027
0.883973
0.703809
0.796906
0.653648
0.703524
0.62549
0.661641
0.675697
0.761929
0.738046
0.788074
0.889929
1.06705
1.23156
1.33903
1.4931
0.465647
0.468423
0.362337
0.317524
0.276173
0.244617
0.215472
0.261639
0.197676
0.298186
0.269842
0.222582
0.236367
0.216563
0.269861
0.316777
0.323078
0.384989
0.407362
0.438827
8.79598
8.10226
7.34238
6.68806
6.10006
5.58964
5.31029
5.04897
4.90079
4.81573
4.84589
4.93082
5.05435
5.34026
5.75031
6.15952
6.81918
7.53292
8.3057
9.04857
7.65897
6.95356
6.31747
5.74388
5.24821
4.81378
4.53016
4.34571
4.19156
4.14831
4.18578
4.2302
4.38499
4.63643
4.92531
5.32495
5.86688
6.39135
7.14616
7.77414
6.39126
5.84542
5.33364
4.78368
4.36857
4.09566
3.79939
3.64899
3.4585
3.51703
3.53953
3.57011
3.69111
3.91552
4.13107
4.47093
4.97325
5.47302
5.9173
6.50228
5.1769
4.71297
4.3482
3.87477
3.59413
3.35328
3.15576
2.97348
2.83146
2.84369
2.79656
2.86563
2.96798
3.1158
3.35325
3.6844
3.98539
4.47086
4.92344
5.35514
4.0117
3.68913
3.30171
3.03726
2.77264
2.61476
2.407
2.26869
2.24478
2.16527
2.17117
2.36555
2.2785
2.45782
2.68407
2.81609
3.09603
3.46023
3.76174
4.15879
2.88495
2.63158
2.38972
2.17803
1.96627
1.86696
1.71469
1.59012
1.65725
1.54563
1.55539
1.58232
1.65403
1.72249
1.86233
1.99031
2.17585
2.40748
2.74161
2.91416
1.70966
1.56889
1.48894
1.27645
1.20276
1.09491
0.949541
0.951147
0.888621
0.953902
0.881618
0.930858
0.963812
1.04232
1.11864
1.20155
1.28722
1.4631
1.61435
1.78872
0.648332
0.511805
0.545117
0.457557
0.413881
0.33081
0.34247
0.323336
0.363921
0.347076
0.278785
0.382874
0.346802
0.312533
0.285794
0.391068
0.340425
0.443808
0.577512
0.625881
10.3821
9.59214
8.85382
8.08266
7.47825
7.02852
6.70397
6.48528
6.22835
6.09446
6.16468
6.30223
6.48344
6.7603
7.12627
7.5579
8.26033
8.97143
9.73733
10.5094
8.80588
8.19356
7.52232
6.9088
6.3787
5.86147
5.66446
5.37637
5.28905
5.19415
5.22953
5.36686
5.41677
5.67542
6.03517
6.45126
6.98548
7.58703
8.2672
8.95126
7.4008
6.82639
6.19299
5.73959
5.3533
4.98016
4.76711
4.49493
4.35991
4.38436
4.33528
4.35299
4.53863
4.84502
4.98107
5.42924
5.89639
6.44372
6.96039
7.47341
5.9439
5.52043
5.04838
4.70279
4.25844
4.01447
3.78607
3.64408
3.56763
3.54368
3.55819
3.58517
3.74647
3.78221
4.06379
4.40191
4.7747
5.15413
5.70124
6.07104
4.52828
4.29869
3.89329
3.52754
3.2716
3.04313
2.88495
2.7428
2.76312
2.69692
2.70401
2.73507
2.81124
2.99808
3.04034
3.33012
3.69123
3.96107
4.35813
4.69176
3.19544
3.02554
2.78964
2.56623
2.34877
2.19625
2.08911
1.99166
1.8848
1.92641
1.94942
1.93985
2.03614
2.05756
2.20177
2.38129
2.63763
2.80579
3.06501
3.40152
1.91596
1.85866
1.65459
1.52952
1.42694
1.32405
1.28877
1.1439
1.14704
1.129
1.17406
1.17098
1.20735
1.24637
1.34427
1.32814
1.60927
1.6831
1.85397
2.02837
0.651531
0.590069
0.556261
0.583781
0.477714
0.488868
0.373842
0.368082
0.316492
0.402916
0.397766
0.400264
0.458337
0.356781
0.378403
0.52021
0.507623
0.586334
0.620091
0.645037
)
;

boundaryField
{
    hotSide
    {
        type            calculated;
        value           nonuniform List<scalar> 
400
(
2.15222
1.48086
0.738222
0.0843344
-0.550632
-1.13354
-1.49217
-1.65096
-1.60557
-1.38557
-1.01402
-0.425571