/*--------------------------------*- C++ -*----------------------------------*\
| =========                 |                                                 |
| \\      /  F ield         | OpenFOAM: The Open Source CFD Toolbox           |
|  \\    /   O peration     | Version:  2212                                  |
|   \\  /    A nd           | Website:  www.openfoam.com                      |
|    \\/     M anipulation  |                                                 |
\*---------------------------------------------------------------------------*/
FoamFile
{
    version     2.0;
    format      ascii;
    arch        "LSB;label=32;scalar=64";
    class       volScalarField;
    location    "./ITHACAoutput/true/1.2";
    object      error;
}
// * * * * * * * * * * * * * * * * * * * * * * * * * * * * * * * * * * * * * //

dimensions      [0 0 0 1 0 0 0];

internalField   nonuniform List<scalar> 
3200
(
-4.18106
-2.20602
-0.279062
1.15204
2.30369
3.06678
3.58296
3.98938
4.33652
4.22701
4.14529
3.96145
3.63416
3.37223
2.81836
2.35682
1.41507
0.231441
-1.43642
-3.19122
-3.40921
-1.78331
-0.176011
1.06898
2.06438
2.66978
3.13034
3.46693
3.62786
3.71922
3.53992
3.40198
3.15964
2.77471
2.41257
1.98222
1.23949
0.205511
-1.20673
-2.78272
-2.75687
-1.42192
-0.0710081
0.929482
1.70352
2.26207
2.66511
3.00873
3.09639
3.05033
2.95461
2.89552
2.58169
2.44071
2.06177
1.57442
0.961657
0.168457
-1.00953
-2.31227
-2.18418
-1.11532
-0.0318134
0.884922
1.46162
1.91359
2.18068
2.38798
2.46315
2.4674
2.39315
2.21897
2.07821
1.85592
1.64916
1.29228
0.751145
0.11859
-0.876656
-1.81663
-1.6333
-0.811661
-0.00820167
0.644279
1.13869
1.57769
1.75936
1.88194
1.92292
1.9261
1.80316
1.82789
1.64428
1.46664
1.2532
1.00763
0.642085
-0.0159816
-0.689132
-1.42062
-1.15507
-0.620689
0.0355606
0.504094
0.934723
1.04649
1.22344
1.27207
1.32279
1.342
1.34884
1.22896
1.13628
1.01313
0.858669
0.686197
0.406108
-0.0235312
-0.390608
-1.02356
-0.719498
-0.340281
-0.0078268
0.274793
0.495817
0.736673
0.779072
0.789033
0.819317
0.886365
0.81776
0.733247
0.661957
0.60628
0.589739
0.428392
0.252676
0.0635509
-0.260505
-0.635117
-0.270609
-0.142289
-0.0274512
0.0412901
0.197176
0.187977
0.245396
0.255737
0.244356
0.259186
0.258326
0.291315
0.24374
0.209461
0.173419
0.118138
0.155354
0.0262196
-0.128244
-0.17804
-4.01517
-2.06381
-0.163821
1.21825
2.2623
2.83713
3.43442
3.68744
3.85827
3.80131
3.70243
3.47547
3.25233
2.9649
2.57166
2.11871
1.36171
0.251073
-1.33465
-3.15633
-3.25897
-1.59259
-0.136647
1.14004
1.89188
2.48934
3.01045
3.18559
3.3704
3.21247
3.13781
2.96249
2.84324
2.51721
2.22717
1.80316
1.11064
0.172268
-1.25804
-2.71471
-2.66223
-1.34078
-0.0752415
0.961183
1.73488
2.14323
2.44619
2.69208
2.7644
2.76921
2.6782
2.45392
2.30089
2.13942
1.82764
1.46491
0.928421
0.133961
-1.04895
-2.29142
-2.11963
-1.03521
-0.0284737
0.846148
1.42943
1.81626
2.10734
2.23782
2.22426
2.19365
2.13341
2.00463
1.88332
1.71467
1.53774
1.20271
0.71619
0.08355
-0.819563
-1.77673
-1.61155
-0.770226
0.0996131
0.680478
1.09042
1.45931
1.54072
1.67902
1.7633
1.7577
1.70777
1.52149
1.44551
1.34137
1.10728
1.0112
0.575504
-0.0414553
-0.751692
-1.38791
-1.14391
-0.632122
0.0109931
0.425969
0.808207
1.01537
1.20447
1.28278
1.33868
1.19326
1.19619
1.12491
1.00624
0.989876
0.809795
0.662429
0.32471
0.00395586
-0.528349
-0.983232
-0.670902
-0.375321
-0.011444
0.278629
0.586693
0.536123
0.731727
0.780379
0.804641
0.705907
0.778953
0.761378
0.614301
0.566186
0.491165
0.430187
0.225045
0.0122824
-0.246457
-0.646749
-0.222641
-0.0735002
-0.0911518
0.0793041
0.178667
0.264169
0.190266
0.2432
0.253906
0.169074
0.27229
0.28474
0.130936
0.199953
0.147653
0.147681
0.135286
0.00942048
-0.123739
-0.17795
-3.89344
-2.03746
-0.276575
1.04215
2.04065
2.58239
3.10453
3.25062
3.21004
3.03657
2.9864
2.71869
2.57796
2.40104
2.16121
1.78184
1.14972
0.112633
-1.40414
-3.12661
-3.23594
-1.6686
-0.178955
1.02668
1.76421
2.3481
2.62218
2.71882
2.78137
2.63155
2.58986
2.36097
2.16529
1.95984
1.86184
1.4945
0.947228
0.151495
-1.3351
-2.71085
-2.56897
-1.43985
-0.122946
0.823758
1.55125
1.96164
2.2177
2.35619
2.33549
2.2545
2.15434
1.96586
1.81356
1.71528
1.53364
1.17503
0.784643
-0.00533595
-1.07531
-2.17062
-2.12925
-1.07339
-0.0425728
0.746224
1.23213
1.66615
1.87173
1.88618
1.856
1.85183
1.70266
1.55318
1.4194
1.455
1.15469
1.00741
0.636721
-0.0100623
-0.916753
-1.84937
-1.62701
-0.788326
-0.0182103
0.593469
0.964826
1.3097
1.36422
1.50655
1.48544
1.44948
1.35872
1.22144
1.14922
1.05462
0.860971
0.817345
0.467714
-0.0898849
-0.733591
-1.43528
-1.0543
-0.574515
-0.0177201
0.462488
0.819287
0.881403
1.10295
1.00747
1.12463
1.05896
0.95628
0.90226
0.836275
0.74859
0.659133
0.607629
0.400744
-0.0822847
-0.482612
-0.945178
-0.634713
-0.427743
0.000254303
0.302294
0.410302
0.550212
0.591954
0.676204
0.567878
0.597724
0.607887
0.495237
0.491627
0.464899
0.377941
0.272827
0.244984
-0.063555
-0.316729
-0.602815
-0.215882
-0.10217
0.0428899
0.113045
0.163658
0.1421
0.140685
0.22518
0.127325
0.167917
0.175046
0.279044
0.112078
0.22749
0.151357
0.104826
0.0395533
-0.000299965
-0.090791
-0.133288
-3.83634
-2.07284
-0.414433
0.906167
1.64959
2.15485
2.46748
2.50449
2.43622
2.27356
2.02952
1.79277
1.66949
1.64812
1.52052
1.28068
0.784838
-0.174353
-1.68235
-3.27094
-3.16501
-1.75743
-0.258609
0.839727
1.56897
1.99955
2.21243
2.16212
2.09706
1.98771
1.73602
1.59655
1.41772
1.38376
1.29348
1.065
0.654026
-0.222396
-1.46981
-2.80708
-2.56388
-1.38396
-0.12518
0.780093
1.38777
1.6895
1.85401
1.80857
1.84855
1.58436
1.46203
1.33207
1.24593
1.17518
1.05581
0.804567
0.451268
-0.208533
-1.23537
-2.3693
-2.07672
-1.08446
-0.0914478
0.668034
1.05339
1.44171
1.50607
1.54738
1.46192
1.27405
1.26514
1.07471
0.967507
0.966511
0.860577
0.738967
0.334784
-0.123069
-1.01783
-1.84648
-1.57863
-0.817822
0.0181547
0.546441
0.901485
1.04277
1.23556
1.15538
1.07901
1.091
0.91021
0.831152
0.849896
0.739476
0.595908
0.490015
0.293956
-0.160421
-0.760436
-1.45713
-1.13116
-0.566878
-0.0322623
0.397313
0.616737
0.834634
0.898276
0.887907
0.818189
0.75445
0.705989
0.483217
0.516861
0.516722
0.494189
0.353944
0.153363
-0.09462
-0.559546
-1.06851
-0.606153
-0.357394
0.011045
0.279144
0.387749
0.439025
0.511471
0.544752
0.482602
0.432571
0.368448
0.361561
0.249594
0.331528
0.221909
0.173606
0.183433
-0.0735841
-0.379046
-0.601513
-0.310481
-0.177443
0.003881
0.0830885
0.173262
0.0515445
0.148178
0.169686
0.164537
0.0902738
0.110154
0.129554
0.142141
0.0764495
0.0587513
0.0428326
0.106815
-0.100261
-0.095084
-0.207792
-3.98666
-2.16171
-0.600877
0.551046
1.33388
1.77344
1.94289
1.77977
1.60123
1.22456
1.03991
0.82001
0.853299
0.811318
0.812029
0.772648
0.2375
-0.536625
-1.9045
-3.46462
-3.19549
-1.8455
-0.498988
0.60326
1.20346
1.50158
1.64205
1.52895
1.35931
1.01723
0.84293
0.65322
0.671555
0.767116
0.745573
0.569958
0.153368
-0.514736
-1.67093
-2.91001
-2.66598
-1.3332
-0.404414
0.51203
1.11243
1.2972
1.38284
1.31021
1.07234
0.864529
0.709275
0.513327
0.611144
0.573374
0.526192
0.497327
0.13753
-0.534548
-1.4422
-2.48486
-2.17008
-1.17558
-0.194278
0.436926
0.923839
1.07833
1.13708
1.1404
0.93875
0.734854
0.606751
0.418533
0.428997
0.519437
0.451566
0.395233
0.0793168
-0.372804
-1.14464
-2.0748
-1.60458
-0.841203
-0.199153
0.365217
0.715374
0.918657
0.92079
0.798372
0.730077
0.581728
0.381782
0.382422
0.306081
0.283543
0.338238
0.260929
0.00820695
-0.263328
-0.95971
-1.58122
-1.10348
-0.609349
-0.100484
0.276935
0.516907
0.631983
0.680739
0.579996
0.465975
0.412284
0.339232
0.219624
0.253478
0.183018
0.224854
0.190589
0.0660557
-0.254734
-0.654066
-1.08413
-0.705506
-0.362063
-0.0430504
0.127258
0.297664
0.373689
0.331397
0.400883
0.323384
0.281176
0.205893
0.137503
0.150737
0.0655101
0.167088
0.148922
0.034205
-0.103188
-0.430072
-0.571823
-0.198944
-0.14505
-0.0694834
0.12262
0.119547
0.0935791
0.15262
0.113557
0.107845
0.111046
0.0613251
0.0561661
0.100313
0.0734704
0.100114
0.0558754
-0.0467729
-0.0384921
-0.171789
-0.226043
-4.05219
-2.35426
-0.82253
0.263723
0.888643
1.18459
1.18116
1.02061
0.630736
0.296972
-0.0602951
-0.20281
-0.198548
-0.0246541
0.0261856
0.0773453
-0.195535
-1.05464
-2.23352
-3.67972
-3.27108
-1.96881
-0.622455
0.284661
0.81693
1.07679
1.07347
0.915446
0.521851
0.209507
-0.0786826
-0.185173
-0.165205
-0.0924042
0.0926269
-0.0199411
-0.319267
-0.97555
-2.09208
-3.10262
-2.73181
-1.60254
-0.44367
0.322493
0.722515
0.904673
0.931254
0.73926
0.450168
0.231837
-0.111773
-0.223594
-0.18051
-0.0822344
0.0592248
-0.106052
-0.242698
-0.830377
-1.69045
-2.57233
-2.17789
-1.36193
-0.382253
0.241878
0.66256
0.843071
0.850637
0.655265
0.367785
0.305983
-0.0266313
-0.115627
-0.201394
-0.0265051
-0.0116756
-0.0429102
-0.277921
-0.668417
-1.33764
-2.17738
-1.63327
-0.96817
-0.328889
0.0865487
0.456867
0.580741
0.702609
0.50034
0.362819
0.116088
-0.0564617
-0.160627
-0.13491
-0.0158125
0.0442756
0.0223104
-0.179526
-0.57278
-1.0995
-1.66371
-1.14103
-0.67592
-0.248048
0.146567
0.320854
0.41013
0.44089
0.349195
0.217331
0.126142
-0.0151639
-0.124472
-0.0286338
-0.0475574
-0.0306627
-0.0331579
-0.134199
-0.441545
-0.816382
-1.21959
-0.704718
-0.441376
-0.10869
0.103413
0.229421
0.270053
0.288273
0.213581
0.166441
0.0393823
0.0238129
-0.0860454
-0.0255771
0.00758218
0.014758
-0.0130932
-0.0123196
-0.216147
-0.486314
-0.737743
-0.254081
-0.192212
-0.0304961
0.0741656
0.0594155
0.0458393
0.0233258
-0.0104134
0.0777436
-0.0142389
-0.00842592
-0.0289246
0.0531894
-0.0522427
-0.0216648
-0.0242705
-0.0199233
-0.126618
-0.20366
-0.213232
-4.1237
-2.65453
-1.13999
-0.121534
0.471786
0.661238
0.582794
0.324189
-0.196504
-0.769644
-1.0993
-1.18522
-1.16919
-0.927046
-0.60335
-0.611023
-0.798596
-1.64645
-2.60299
-3.9168
-3.47153
-2.18143
-0.984144
-0.0395427
0.49423
0.574312
0.480879
0.219832
-0.218485
-0.640819
-0.972244
-1.11562
-1.02399
-0.757114
-0.530124
-0.55331
-0.759146
-1.25621
-2.20206
-3.41804
-2.77871
-1.74391
-0.73169
-0.00386288
0.388703
0.570521
0.440551
0.211439
-0.130128
-0.520832
-0.854654
-1.02186
-0.875272
-0.663565
-0.43852
-0.503313
-0.647146
-1.16465
-1.97677
-2.86474
-2.20148
-1.45
-0.528289
-0.0137138
0.330569
0.418342
0.421824
0.257139
-0.0859336
-0.453827
-0.722286
-0.7622
-0.72982
-0.635808
-0.403477
-0.436156
-0.541512
-1.01226
-1.57604
-2.37047
-1.70298
-1.00656
-0.412287
0.00790009
0.258194
0.267604
0.296102
0.108495
-0.105615
-0.348681
-0.518897
-0.630573
-0.574234
-0.481371
-0.382906
-0.292506
-0.516942
-0.732711
-1.20464
-1.84774
-1.18685
-0.716177
-0.27659
-0.0107754
0.185261
0.281689
0.181176
0.132771
-0.107237
-0.282547
-0.360296
-0.421791
-0.441873
-0.351599
-0.27008
-0.200427
-0.414611
-0.545829
-0.870013
-1.31559
-0.697402
-0.531568
-0.157789
-0.0250978
0.155932
0.189313
0.188794
0.0367128
-0.0610437
-0.183269
-0.26878
-0.275775
-0.238233
-0.239637
-0.179825
-0.0861773
-0.247637
-0.377311
-0.53664
-0.785386
-0.185362
-0.172141
-0.00955674
0.0224254
0.0861601
0.119951
0.0185976
-0.00549679
0.0248801
-0.0729945
-0.0817444
-0.0952778
-0.0630973
-0.0561138
-0.0266912
-0.0410936
-0.105911
-0.0713984
-0.13592
-0.261006
-4.20623
-2.74554
-1.45844
-0.491939
0.0777556
0.221501
-0.0974162
-0.464098
-1.03211
-1.69232
-1.99378
-2.12469
-1.9582
-1.6386
-1.33989
-1.04688
-1.27936
-1.98768
-3.05311
-4.16434
-3.36047
-2.35026
-1.10292
-0.341882
0.0467306
0.174518
-0.00165885
-0.412218
-0.887993
-1.396
-1.71847
-1.82708
-1.70339
-1.43567
-1.07688
-1.0104
-1.15299
-1.69084
-2.63452
-3.58809
-2.91436
-1.86266
-0.902371
-0.315031
0.126031
0.174844
0.149773
-0.260667
-0.714222
-1.18816
-1.55598
-1.49993
-1.46531
-1.32313
-0.987777
-0.929292
-1.02803
-1.51509
-2.20477
-3.00193
-2.29461
-1.49616
-0.757093
-0.141481
0.186552
0.23456
-0.0691809
-0.270349
-0.649354
-1.04581
-1.23373
-1.26844
-1.16093
-1.04793
-0.846807
-0.702419
-0.87527
-1.22547
-1.78184
-2.52008
-1.7056
-1.11418
-0.588751
-0.125805
0.0520986
0.13666
0.0486626
-0.210207
-0.447618
-0.819258
-0.940526
-0.98403
-0.960136
-0.837406
-0.723209
-0.647718
-0.618083
-0.94615
-1.44666
-1.95366
-1.2201
-0.831987
-0.318424
-0.111514
0.0903475
0.100838
0.0429896
-0.0794973
-0.276055
-0.50859
-0.706949
-0.778577
-0.689017
-0.626729
-0.497455
-0.435246
-0.491207
-0.713966
-0.949681
-1.34847
-0.739866
-0.507851
-0.17034
-0.0253691
0.000352297
0.0554047
-0.0236255
-0.0349136
-0.274473
-0.32382
-0.393997
-0.478778
-0.42034
-0.339125
-0.257431
-0.336167
-0.294079
-0.42861
-0.642009
-0.835161
-0.161308
-0.106133
0.0213901
-0.039286
0.0378202
0.052388
-0.0650072
-0.0108366
-0.0285805
-0.115664
-0.174705
-0.171781
-0.191448
-0.1312
-0.103354
-0.106076
-0.114527
-0.142783
-0.245113
-0.267081
-4.2318
-2.9514
-1.57541
-0.812855
-0.300344
-0.280202
-0.491912
-1.02478
-1.78136
-2.30224
-2.82776
-2.88439
-2.71161
-2.28102
-1.84839
-1.71976
-1.75113
-2.31497
-3.26199
-4.42637
-3.57813
-2.37692
-1.3096
-0.519244
-0.256186
-0.147795
-0.493167
-0.9015
-1.38284
-1.96014
-2.42858
-2.52772
-2.35304
-1.93644
-1.62263
-1.45308
-1.51635
-2.00281
-2.9131
-3.75134
-2.93127
-1.98767
-1.03936
-0.366198
-0.129487
-0.138206
-0.345944
-0.774722
-1.22956
-1.71719
-2.01696
-2.13192
-1.92936
-1.68601
-1.39217
-1.23425
-1.35165
-1.70516
-2.40464
-3.20589
-2.23709
-1.60389
-0.816261
-0.357424
-0.16859
-0.173043
-0.225486
-0.59047
-1.01512
-1.34895
-1.62519
-1.78388
-1.56461
-1.30967
-1.10264
-1.06143
-1.0981
-1.37
-2.01056
-2.58828
-1.72981
-1.17933
-0.658929
-0.249651
0.0179331
-0.00711169
-0.257022
-0.564835
-0.755998
-1.01578
-1.26916
-1.30808
-1.3038
-1.09882
-0.866134
-0.819162
-0.849867
-1.01673
-1.50476
-2.03078
-1.19781
-0.794808
-0.442389
-0.139405
0.0172769
-0.0503259
-0.200503
-0.303435
-0.5304
-0.730882
-0.94651
-0.883611
-0.922012
-0.725046
-0.657291
-0.562291
-0.637456
-0.808945
-1.16095
-1.49368
-0.71184
-0.368612
-0.199958
-0.0448396
-0.0724749
0.033536
-0.0142705
-0.198404
-0.330295
-0.54714
-0.49453
-0.571988
-0.527513
-0.473569
-0.403513
-0.418131
-0.358466
-0.450866
-0.606005
-0.858166
-0.269645
-0.18594
-0.0688456
-0.0657415
-0.0184598
-0.0473329
-0.012975
-0.036599
-0.129559
-0.204516
-0.148279
-0.248762
-0.228721
-0.182481
-0.14813
-0.135569
-0.150684
-0.11483
-0.202733
-0.341868
-4.2737
-2.9244
-1.7595
-0.93508
-0.599634
-0.512957
-0.993712
-1.46759
-2.12169
-2.84473
-3.29921
-3.48342
-3.14651
-2.64009
-2.28717
-1.94583
-2.08938
-2.50402
-3.38793
-4.4861
-3.44599
-2.34718
-1.4118
-0.690796
-0.453541
-0.475382
-0.787855
-1.23685
-1.93678
-2.4341
-2.80157
-2.92271
-2.80094
-2.35342
-1.91935
-1.72994
-1.83397
-2.16277
-2.93738
-3.89154
-2.81514
-2.01138
-1.10577
-0.54547
-0.285087
-0.275498
-0.582473
-1.03309
-1.53059
-2.04791
-2.38974
-2.48394
-2.30059
-2.00616
-1.71618
-1.50425
-1.51498
-1.81226
-2.51988
-3.33178
-2.27742
-1.50148
-0.876779
-0.322166
-0.199166
-0.238786
-0.560267
-0.845647
-1.21987
-1.70209
-1.99808
-2.04317
-1.9473
-1.64314
-1.34044
-1.14681
-1.26394
-1.58401
-2.07095
-2.65956
-1.75604
-1.22544
-0.732126
-0.285569
-0.178534
-0.1979
-0.388584
-0.595439
-1.01316
-1.29562
-1.48366
-1.54494
-1.49639
-1.27068
-1.15267
-0.878561
-1.01962
-1.13794
-1.62572
-2.02863
-1.20989
-0.760875
-0.482596
-0.206558
-0.176381
-0.122784
-0.292101
-0.509865
-0.728373
-0.826445
-1.05364
-1.15209
-1.02261
-0.942665
-0.818038
-0.674961
-0.700443
-0.851598
-1.21634
-1.47304
-0.759191
-0.440831
-0.265427
-0.0504267
-0.0340777
-0.155958
-0.170362
-0.281872
-0.484858
-0.496412
-0.650878
-0.641832
-0.710834
-0.565196
-0.498068
-0.372294
-0.447907
-0.555891
-0.682027
-0.804718
-0.331273
-0.145251
-0.0896659
0.0127891
-0.0899087
0.0148416
-0.0458434
-0.15849
-0.102573
-0.18959
-0.197933
-0.188908
-0.252447
-0.178423
-0.145081
-0.0896203
-0.126459
-0.153959
-0.266683
-0.238407
-4.09582
-2.90585
-1.76654
-0.969939
-0.708394
-0.706522
-1.1127
-1.68654
-2.44172
-3.13584
-3.5529
-3.64856
-3.34903
-2.9576
-2.47155
-2.21035
-2.24064
-2.59428
-3.49173
-4.45962
-3.47264
-2.38195
-1.3947
-0.792267
-0.509438
-0.625438
-0.956066
-1.49576
-2.15276
-2.62334
-3.10529
-3.11248
-2.89386
-2.49645
-2.13985
-1.85718
-1.91849
-2.2759
-3.03166
-3.89752
-2.73188
-1.8455
-1.1656
-0.59964
-0.429843
-0.425953
-0.72506
-1.23337
-1.70351
-2.25727
-2.57841
-2.62804
-2.49719
-2.18875
-1.82056
-1.65699
-1.63138
-2.00788
-2.56948
-3.24791
-2.24569
-1.51591
-0.978691
-0.491118
-0.294444
-0.312126
-0.603729
-0.966045
-1.47805
-1.86391
-2.11307
-2.27564
-1.96659
-1.82099
-1.45166
-1.33096
-1.3299
-1.6235
-2.11375
-2.65392
-1.67913
-1.20315
-0.663583
-0.418903
-0.26454
-0.290879
-0.443947
-0.820617
-1.07304
-1.4757
-1.67581
-1.67811
-1.47374
-1.3898
-1.09467
-0.992496
-1.06588
-1.26865
-1.61578
-2.13866
-1.08781
-0.713124
-0.540212
-0.243658
-0.123799
-0.203668
-0.35829
-0.616258
-0.743501
-1.12874
-1.19934
-1.24166
-1.12215
-0.99949
-0.868203
-0.724892
-0.778478
-0.857545
-1.13068
-1.42241
-0.711262
-0.415737
-0.240442
-0.137635
-0.10275
-0.0572775
-0.21361
-0.341283
-0.500019
-0.613994
-0.741059
-0.760041
-0.66033
-0.604692
-0.524913
-0.469409
-0.475558
-0.533588
-0.765154
-0.907696
-0.194646
-0.123198
-0.116127
-0.042136
0.019014
-0.0211236
-0.0266843
-0.0171038
-0.200171
-0.174641
-0.223945
-0.335234
-0.230754
-0.144881
-0.182341
-0.176977
-0.164823
-0.138425
-0.268666
-0.244142
-3.92978
-2.74177
-1.64178
-0.983869
-0.692959
-0.758828
-1.21674
-1.77993
-2.46184
-3.09113
-3.55
-3.63821
-3.34648
-2.91529
-2.52962
-2.22269
-2.18074
-2.60754
-3.36018
-4.26596
-3.23017
-2.20001
-1.34141
-0.718645
-0.539312
-0.656236
-1.0296
-1.48197
-2.19552
-2.71699
-3.02692
-3.21207
-2.97903
-2.55807
-2.21226
-1.93765
-1.89955
-2.31222
-2.96718
-3.70478
-2.58495
-1.80073
-1.03664
-0.672526
-0.397771
-0.536533
-0.839699
-1.328
-1.78465
-2.3027
-2.53656
-2.68095
-2.39777
-2.20134
-1.74987
-1.66062
-1.60412
-1.94873
-2.50715
-3.1028
-2.05321
-1.3749
-0.784177
-0.483497
-0.289482
-0.397098
-0.595882
-0.97956
-1.43886
-1.81272
-2.09856
-2.1561
-1.98157
-1.77522
-1.5751
-1.35482
-1.41026
-1.62723
-2.08997
-2.59062
-1.45351
-1.05284
-0.613354
-0.247313
-0.237065
-0.27623
-0.471868
-0.763939
-1.11755
-1.41881
-1.64721
-1.71422
-1.5616
-1.36666
-1.20502
-1.07719
-1.05648
-1.18465
-1.65381
-1.97354
-1.13923
-0.718411
-0.488857
-0.220836
-0.14193
-0.157027
-0.348267
-0.549212
-0.762122
-0.978276
-1.215
-1.16315
-1.09538
-1.03919
-0.884851
-0.749339
-0.788854
-0.893119
-1.13843
-1.40008
-0.713562
-0.406068
-0.217221
-0.0542557
-0.0984095
-0.122984
-0.193449
-0.412929
-0.503603
-0.588137
-0.705213
-0.668715
-0.705076
-0.478247
-0.595013
-0.411916
-0.465357
-0.450393
-0.620827
-0.842518
-0.230928
-0.0917048
-0.0158067
-0.0113011
-0.00994147
-0.0927774
-0.079504
-0.114276
-0.171707
-0.266194
-0.272069
-0.227397
-0.282373
-0.139381
-0.153542
-0.174093
-0.169751
-0.210803
-0.235272
-0.367615
-3.51317
-2.3769
-1.4699
-0.789001
-0.622154
-0.647083
-1.08531
-1.61059
-2.24008
-2.96171
-3.30636
-3.34164
-3.0918
-2.69122
-2.32471
-2.03589
-2.03151
-2.37239
-3.1299
-4.01916
-2.92199
-1.92412
-1.09221
-0.565687
-0.447944
-0.550706
-0.845579
-1.34494
-1.95052
-2.48566
-2.85289
-2.92051
-2.75473
-2.32585
-2.00298
-1.78269
-1.7211
-2.08918
-2.77591
-3.49874
-2.35264
-1.57424
-0.917997
-0.389213
-0.344256
-0.327669
-0.658838
-1.13526
-1.5912
-2.10591
-2.3639
-2.43097
-2.31178
-2.00593
-1.70731
-1.46731
-1.41753
-1.79892
-2.27914
-2.96049
-1.79372
-1.19907
-0.666456
-0.35232
-0.172072
-0.284188
-0.516848
-0.894825
-1.41229
-1.64218
-1.92972
-1.96908
-1.88824
-1.5912
-1.4105
-1.19005
-1.23715
-1.42292
-1.87649
-2.46051
-1.38012
-0.894779
-0.516486
-0.286992
-0.114468
-0.253385
-0.442997
-0.76297
-0.992426
-1.27456
-1.50585
-1.54839
-1.50034
-1.28271
-1.0154
-1.06526
-1.00833
-1.1569
-1.43992
-1.89803
-0.853659
-0.675668
-0.392098
-0.0801492
-0.0770166
-0.150543
-0.260084
-0.543493
-0.764937
-0.966062
-1.07453
-1.13147
-1.05807
-0.868133
-0.812017
-0.72236
-0.711215
-0.896525
-1.00399
-1.26221
-0.551999
-0.377038
-0.236569
-0.0878277
-0.0564209
-0.0461802
-0.169105
-0.401761
-0.463024
-0.578891
-0.671571
-0.647541
-0.712998
-0.50559
-0.448917
-0.460307
-0.314772
-0.510719
-0.669648
-0.796597
-0.219999
-0.110439
-0.0316583
-0.000541275
0.00177104
-0.0375543
-0.0461917
-0.0739138
-0.141415
-0.2093
-0.172153
-0.165369
-0.213571
-0.169543
-0.132842
-0.153067
-0.0983921
-0.103878
-0.131746
-0.196049
-3.17204
-1.9727
-1.0345
-0.480076
-0.258023
-0.41183
-0.787178
-1.30217
-1.94467
-2.44257
-2.75734
-2.90563
-2.68367
-2.27538
-2.00231
-1.70679
-1.70574
-2.07743
-2.70806
-3.6731
-2.54937
-1.6812
-0.85243
-0.288561
-0.0928678
-0.183393
-0.598009
-1.13704
-1.65776
-2.12468
-2.314
-2.50944
-2.26395
-2.05329
-1.72959
-1.47605
-1.48121
-1.88021
-2.41369
-3.10329
-1.99097
-1.29418
-0.656432
-0.261019
-0.0418854
-0.146279
-0.438942
-0.82226
-1.35778
-1.76735
-2.01671
-2.0727
-1.92205
-1.67885
-1.43636
-1.21361
-1.28382
-1.52234
-2.02025
-2.68109
-1.52874
-0.978841
-0.484365
-0.126918
0.0150913
-0.0642231
-0.392345
-0.671385
-1.11472
-1.46489
-1.70055
-1.74991
-1.63329
-1.47132
-1.19289
-1.06717
-1.02176
-1.20392
-1.71216
-2.14056
-1.13428
-0.710372
-0.302212
-0.0444117
0.0501334
-0.0929246
-0.224142
-0.529314
-0.870914
-1.11392
-1.25985
-1.38896
-1.30725
-1.17128
-0.901828
-0.810129
-0.891547
-0.995312
-1.28446
-1.72897
-0.759869
-0.454143
-0.217994
-0.116289
0.0718216
-0.0984906
-0.192074
-0.359264
-0.613458
-0.785284
-0.930559
-1.01757
-0.862013
-0.810009
-0.612473
-0.580575
-0.612957
-0.643631
-0.897506
-1.164
-0.387082
-0.24583
-0.239965
0.0738102
0.00840833
0.033068
-0.161824
-0.231274
-0.268833
-0.502965
-0.500083
-0.667488
-0.610142
-0.418188
-0.399037
-0.37872
-0.400274
-0.422045
-0.570239
-0.681123
-0.15857
-0.0915327
-0.0504015
0.0356895
0.0247689
0.0718134
-0.0382088
-0.00369286
-0.109658
-0.120264
-0.187671
-0.120972
-0.164976
-0.104384
-0.172881
-0.118378
-0.0531045
-0.153701
-0.134013
-0.245172
-2.54351
-1.53251
-0.511073
0.0696441
0.242427
0.060053
-0.25702
-0.79983
-1.39194
-1.90055
-2.17782
-2.19873
-2.02916
-1.80908
-1.40491
-1.14852
-1.19108
-1.44287
-2.30155
-3.21069
-2.02024
-1.14329
-0.234609
0.164402
0.230369
0.0599751
-0.215205
-0.688591
-1.20507
-1.48607
-1.86163
-1.87093
-1.78811
-1.5177
-1.26368
-1.04502
-1.1347
-1.36258
-1.96344
-2.68146
-1.69526
-0.805776
-0.234619
0.0928544
0.309578
0.11757
-0.126631
-0.534523
-0.92542
-1.25346
-1.57618
-1.61985
-1.50812
-1.31636
-1.07382
-0.898691
-0.847944
-1.15121
-1.6457
-2.2614
-1.28977
-0.652944
-0.164699
0.120761
0.277817
0.110414
-0.175451
-0.427881
-0.734676
-1.09978
-1.24715
-1.31944
-1.23567
-1.0172
-0.88503
-0.703558
-0.749324
-0.883904
-1.32913
-1.8181
-0.905316
-0.48086
-0.0294917
0.183172
0.140802
0.125793
-0.0153276
-0.371009
-0.617802
-0.84636
-0.942177
-1.05361
-1.01054
-0.766423
-0.667953
-0.613572
-0.561829
-0.741286
-1.06643
-1.43779
-0.656797
-0.403289
-0.0356017
0.122353
0.191597
0.0655689
-0.0499923
-0.177102
-0.447196
-0.599435
-0.676232
-0.731543
-0.597741
-0.577339
-0.442082
-0.381865
-0.474282
-0.526337
-0.795023
-1.00607
-0.374707
-0.156624
-0.0671866
-0.0339766
0.108034
0.0921284
-0.0906205
-0.104782
-0.231461
-0.398555
-0.408623
-0.420522
-0.348961
-0.282808
-0.352985
-0.237404
-0.290893
-0.373723
-0.438264
-0.670702
-0.119496
-0.0663875
-0.000780519
0.0190337
0.0631644
0.0500885
0.0281543
-0.0707487
-0.105779
-0.156453
-0.110042
-0.220909
-0.0886524
-0.120052
-0.075952
-0.0757929
-0.0205228
-0.120559
-0.152595
-0.212647
-1.83724
-0.885226
0.065063
0.613568
0.827848
0.675912
0.273754
-0.134117
-0.601161
-1.02422
-1.41745
-1.44837
-1.22971
-1.0463
-0.743342
-0.518174
-0.543268
-0.89646
-1.67514
-2.61882
-1.45522
-0.598235
0.144004
0.674521
0.73779
0.660261
0.389505
-0.085043
-0.503589
-0.969204
-1.09819
-1.18852
-1.16092
-0.871891
-0.675754
-0.512569
-0.512899
-0.862243
-1.45383
-2.2067
-1.1285
-0.422568
0.218289
0.547301
0.689679
0.602932
0.341759
0.0493303
-0.428917
-0.661525
-0.967933
-0.984083
-0.969937
-0.738644
-0.50769
-0.473849
-0.424695
-0.722501
-1.20908
-1.76245
-0.888351
-0.264285
0.224604
0.542172
0.572639
0.526049
0.306987
-0.053901
-0.281426
-0.627622
-0.728625
-0.821442
-0.806354
-0.586961
-0.534122
-0.319285
-0.323051
-0.55131
-0.92556
-1.45724
-0.646343
-0.189217
0.301918
0.433274
0.503935
0.466411
0.196784
0.039357
-0.290412
-0.475614
-0.541148
-0.724378
-0.549984
-0.499874
-0.335577
-0.2893
-0.335317
-0.430687
-0.763766
-1.04748
-0.330342
-0.139725
0.0966841
0.26955
0.442193
0.366571
0.231103
-0.0760492
-0.125094
-0.369916
-0.448959
-0.4383
-0.512651
-0.363005
-0.204067
-0.153356
-0.256672
-0.333994
-0.541366
-0.821865
-0.246017
-0.0529704
0.0746573
0.17041
0.255119
0.138667
0.047318
0.0663758
-0.0662103
-0.22969
-0.235339
-0.258711
-0.294045
-0.170841
-0.209778
-0.164346
-0.136083
-0.204396
-0.329946
-0.430833
-0.0720685
-0.00778369
-0.0219229
0.0496682
0.0173826
0.0671249
0.0430562
0.0216174
-0.000952969
-0.0331023
-0.109098
-0.0244291
-0.0697885
-0.00567238
-0.101285
-0.0282336
-0.143802
-0.00852559
-0.134707
-0.0740928
-1.19524
-0.0880254
0.794989
1.33405
1.42716
1.27466
1.07042
0.635897
0.190771
-0.103509
-0.412579
-0.445761
-0.376404
-0.121751
0.148506
0.239789
0.135653
-0.142035
-0.935467
-1.81947
-0.82084
0.0748466
0.847692
1.1977
1.38055
1.25319
1.02395
0.648336
0.259126
-0.147467
-0.405866
-0.400601
-0.275519
-0.130302
0.0719631
0.21327
0.204569
-0.159663
-0.802583
-1.51989
-0.580401
0.132888
0.753823
1.07718
1.1477
1.08515
0.871051
0.565862
0.224573
-0.0746266
-0.245721
-0.322414
-0.289142
-0.115026
-0.0394365
0.120307
0.121839
-0.0935787
-0.680066
-1.27499
-0.317373
0.100657
0.667674
0.912025
1.11381
0.871094
0.749982
0.466524
0.0976042
0.0141799
-0.277631
-0.296784
-0.20863
-0.119264
0.0340816
0.0782268
0.1229
-0.0883985
-0.491251
-1.06103
-0.276557
0.150015
0.514201
0.725933
0.710146
0.737324
0.615157
0.304807
0.151312
-0.0352888
-0.136973
-0.232404
-0.199005
-0.14194
0.0673758
0.103424
-0.0250351
-0.100846
-0.386333
-0.774972
-0.181809
0.117905
0.366955
0.558554
0.541341
0.505533
0.406035
0.214783
0.10424
-0.0652312
-0.0956265
-0.137855
-0.138152
-0.0949758
0.060715
0.0593433
0.131611
-0.0878382
-0.341332
-0.510713
-0.147907
0.13062
0.248793
0.371588
0.295557
0.352166
0.236079
0.22859
0.0741863
-0.0759889
-0.0936709
-0.0446732
-0.0634488
-0.0720891
0.000791402
-0.0206125
-0.00295907
-0.0810347
-0.278241
-0.329087
-0.0459572
0.0378131
0.14331
0.19572
0.113921
0.173129
0.0403299
-0.0415218
0.0670712
-0.0619198
-0.0020217
-0.0651401
-0.00291286
0.022001
0.0439625
0.0329276
-0.0283819
-0.0249907
-0.00805895
-0.11974
-0.356072
0.595317
1.51007
1.95175
2.30605
2.14537
1.9299
1.49114
1.04488
0.826635
0.61073
0.549384
0.715636
0.80258
0.933325
1.04038
1.00178
0.592007
-0.182612
-0.979292
-0.103429
0.67729
1.43798
1.83312
1.94751
1.92958
1.68069
1.38902
1.00657
0.791469
0.525303
0.452976
0.577816
0.625155
0.829834
0.881024
0.881766
0.52509
-0.0808939
-0.896014
0.0585137
0.689265
1.32024
1.6353
1.75847
1.63865
1.42163
1.15923
0.916446
0.617272
0.417174
0.433035
0.497956
0.606713
0.699914
0.780488
0.658216
0.445912
-0.120382
-0.685556
0.142677
0.611456
1.0565
1.36868
1.48166
1.33222
1.26472
1.08071
0.718691
0.646783
0.364704
0.34183
0.357306
0.441614
0.612075
0.607553
0.597579
0.243209
-0.0637749
-0.584527
0.135696
0.536088
0.810708
1.13544
1.22488
1.09037
0.968664
0.842725
0.54771
0.38506
0.299429
0.278593
0.231731
0.310275
0.404298
0.435316
0.437386
0.247211
-0.0488713
-0.434032
0.071799
0.436288
0.574851
0.857075
0.856583
0.769601
0.74326
0.54816
0.405648
0.293769
0.147878
0.19719
0.176251
0.284865
0.313688
0.344629
0.311322
0.213503
-0.0309175
-0.264488
0.067371
0.251728
0.320772
0.507253
0.475271
0.505409
0.492075
0.324802
0.278648
0.198797
0.07327
0.0229277
0.175888
0.115056
0.141058
0.258485
0.199136
0.120943
-0.0123831
-0.259224
-0.0359005
0.117078
0.156058
0.154031
0.219657
0.206095
0.107093
0.0781544
0.0908279
0.0947398
-0.0189153
0.0399505
0.0706666
0.0721669
0.0205624
0.0820864
0.0510124
0.0901813
-0.0441983
-0.0965668
0.29569
1.36848
2.2338
2.84427
2.96746
2.97706
2.65344
2.36169
2.03861
1.75502
1.6133
1.51256
1.53385
1.67266
1.86738
1.85197
1.78655
1.36015
0.706253
-0.230831
0.453374
1.38786
2.10827
2.49922
2.62964
2.51081
2.36829
2.24414
1.78918
1.54188
1.35597
1.31314
1.38585
1.52631
1.6768
1.56444
1.43722
1.15257
0.524724
-0.224108
0.57632
1.23603
1.77842
2.17327
2.19925
2.2101
1.98506
1.74441
1.52963
1.35028
1.11993
1.0961
1.15463
1.22608
1.38506
1.35591
1.22473
0.967385
0.525927
-0.119384
0.574812
0.973942
1.51917
1.81319
1.88031
1.88607
1.6445
1.5396
1.30162
1.06855
0.947697
0.944971
0.964175
0.975114
1.10715
1.16284
1.05026
0.850875
0.429047
-0.0449372
0.469519
0.808013
1.20862
1.46659
1.49796
1.46842
1.37387
1.16153
0.969239
0.811336
0.711381
0.749641
0.762207
0.722881
0.892525
0.826437
0.840185
0.571518
0.315154
-0.056128
0.345186
0.570385
0.888009
1.00139
1.10407
1.09399
0.972461
0.915789
0.674791
0.596154
0.46353
0.452959
0.570124
0.545688
0.627811
0.636344
0.581219
0.391331
0.1933
-0.0771147
0.223897
0.380073
0.558243
0.660438
0.643184
0.660399
0.643093
0.563997
0.392507
0.402518
0.362062
0.292098
0.2898
0.345326
0.375038
0.323691
0.305505
0.263287
0.0890217
0.0330847
0.0821773
0.146243
0.169476
0.243144
0.258321
0.176194
0.153064
0.196692
0.117102
0.162875
0.120763
0.0929549
0.1052
0.0204155
0.110088
0.193603
0.112822
0.0240251
-0.00297384
-0.0075997
1.03698
1.96527
2.84339
3.36902
3.58733
3.56774
3.37869
3.14444
2.87197
2.56771
2.43227
2.37471
2.38602
2.3787
2.59034
2.6066
2.40988
2.04322
1.24753
0.346829
0.935341
1.78354
2.53566
2.95136
3.08711
3.14878
2.94068
2.70325
2.46482
2.20453
1.95446
1.94912
1.97008
2.16259
2.08882
2.08828
2.02218
1.73998
1.00828
0.317425
0.951399
1.6079
2.20299
2.58445
2.77836
2.70641
2.54137
2.23624
2.0473
1.88889
1.6802
1.6675
1.59792
1.72336
1.77219
1.74209
1.72516
1.42445
0.831736
0.239645
0.884723
1.2956
1.78957
2.08452
2.19736
2.13612
2.07021
1.90398
1.61412
1.51922
1.35118
1.33467
1.35539
1.3673
1.45864
1.40381
1.35113
1.11404
0.599439
0.242366
0.672733
1.11559
1.36432
1.64091
1.83241
1.64101
1.5816
1.43433
1.25984
1.18028
1.02634
0.95695
0.975703
1.13768
1.01935
1.09927
1.11553
0.822036
0.518969
0.169823
0.574231
0.812166
1.06959
1.22165
1.22108
1.19457
1.16836
0.936731
0.963705
0.758193
0.708542
0.714908
0.831696
0.794412