/*--------------------------------*- C++ -*----------------------------------*\
| =========                 |                                                 |
| \\      /  F ield         | OpenFOAM: The Open Source CFD Toolbox           |
|  \\    /   O peration     | Version:  2212                                  |
|   \\  /    A nd           | Website:  www.openfoam.com                      |
|    \\/     M anipulation  |                                                 |
\*---------------------------------------------------------------------------*/
FoamFile
{
    version     2.0;
    format      ascii;
    arch        "LSB;label=32;scalar=64";
    class       volScalarField;
    location    "0";
    object      relativeErrorField;
}
// * * * * * * * * * * * * * * * * * * * * * * * * * * * * * * * * * * * * * //

dimensions      [0 0 0 1 0 0 0];

internalField   nonuniform List<scalar> 
3200
(
0.0121962
0.00641424
0.000808084
0.00332118
0.00661105
0.00876183
0.0101948
0.0113122
0.0122658
0.0119403
0.0117094
0.0112049
0.0103049
0.00959517
0.00805208
0.00676352
0.00407948
0.000670187
0.00417656
0.0093088
0.0101105
0.00527401
0.000518671
0.00313778
0.0060353
0.00777463
0.00908303
0.0100292
0.0104717
0.0107229
0.010206
0.00981969
0.00914028
0.00805115
0.00702562
0.00579511
0.00363828
0.000605603
0.0035688
0.00825252
0.00831539
0.00427884
0.000213019
0.00277901
0.00507568
0.00671718
0.0078895
0.00888347
0.00912499
0.00898028
0.00869847
0.00853303
0.00762261
0.0072252
0.00612241
0.00469102
0.00287521
0.000505361
0.00303787
0.00697439
0.00670301
0.00341624
9.71961e-05
0.00269604
0.00444024
0.00579692
0.00658899
0.00719965
0.00741456
0.00742116
0.00719786
0.00667954
0.0062657
0.0056077
0.00499589
0.00392581
0.00228847
0.000362315
0.00268521
0.00557504
0.00510185
0.00253154
2.55291e-05
0.00200099
0.00352848
0.00487791
0.00542844
0.00579666
0.00591546
0.00592134
0.00554338
0.0056231
0.00506464
0.00452527
0.00387466
0.00312234
0.00199418
4.97456e-05
0.00214938
0.00443751
0.00367382
0.00197203
0.000112816
0.00159666
0.00295572
0.00330378
0.00385664
0.00400487
0.00416077
0.00421917
0.00424065
0.00386564
0.00357736
0.00319369
0.00271082
0.00216985
0.0012863
7.46528e-05
0.00124103
0.00325554
0.00233105
0.00110173
2.53181e-05
0.000888019
0.00160065
0.00237584
0.00251028
0.00254041
0.00263643
0.00285134
0.00263064
0.00235947
0.00213127
0.00195352
0.00190196
0.00138298
0.000816545
0.000205574
0.000843435
0.00205766
0.000893382
0.000469645
9.05789e-05
0.000136196
0.000650162
0.000619617
0.00080863
0.000842483
0.000804837
0.000853595
0.000850763
0.000959503
0.000802962
0.000690219
0.000571631
0.000389546
0.000512438
8.65151e-05
0.000423289
0.000587778
0.0117093
0.0059994
0.000474292
0.00351157
0.00649163
0.00810532
0.0097721
0.0104564
0.0109139
0.0107388
0.0104594
0.00983105
0.00922261
0.00843617
0.00734691
0.00607959
0.00392509
0.0007269
0.00387977
0.00920469
0.00966283
0.00470903
0.000402608
0.00334592
0.0055305
0.00724888
0.00873512
0.00921571
0.00972913
0.00926265
0.00904737
0.00855165
0.0082253
0.00730395
0.00648543
0.00527114
0.00325966
0.000507559
0.00371981
0.0080491
0.0080284
0.00403397
0.000225688
0.00287348
0.00516875
0.00636406
0.0072414
0.0079488
0.00814708
0.0081532
0.00788525
0.00723205
0.00679373
0.00633328
0.00542696
0.00436441
0.00277554
0.000401817
0.00315596
0.00691016
0.0065039
0.00317041
8.69823e-05
0.00257768
0.00434218
0.0055019
0.00636735
0.00674712
0.00669577
0.00659821
0.006417
0.00603461
0.00567829
0.00518091
0.00465821
0.00365347
0.00218178
0.00025523
0.00250998
0.00545174
0.00503329
0.00240205
0.000310034
0.00211326
0.00337872
0.00451179
0.00475386
0.00517173
0.00542463
0.00540388
0.00525036
0.00468072
0.00445249
0.00413875
0.00342341
0.00313326
0.00178726
0.000129025
0.00234425
0.0043348
0.003638
0.0020082
3.48734e-05
0.00134914
0.00255556
0.00320548
0.00379682
0.00403865
0.00421086
0.00375163
0.00376086
0.00353843
0.00316801
0.00312036
0.00255648
0.00209461
0.00102843
1.25492e-05
0.00167852
0.00312699
0.00217348
0.00121511
3.70175e-05
0.000900387
0.00189398
0.00172903
0.00235772
0.00251257
0.00258925
0.00227087
0.00250586
0.00245003
0.00197785
0.00182433
0.00158404
0.00138874
0.000727231
3.97292e-05
0.000797914
0.00209523
0.000735009
0.000242593
0.000300762
0.000261583
0.000589124
0.000870762
0.000626966
0.000801187
0.000836295
0.000556829
0.000896758
0.000937855
0.000431349
0.000658885
0.000486698
0.000486955
0.000446239
3.10836e-05
0.000408409
0.00058747
0.0113486
0.00592014
0.00080043
0.00300306
0.00585443
0.00737677
0.00883334
0.00921838
0.00908144
0.0085798
0.00843805
0.00769138
0.00731079
0.0068317
0.00617365
0.00511192
0.00331303
0.00032597
0.00407994
0.00911346
0.0095903
0.00493181
0.000527084
0.00301245
0.00515634
0.00683693
0.00760842
0.00786583
0.00802976
0.00758873
0.00746851
0.00681607
0.00626441
0.0056866
0.0054211
0.00436806
0.00277932
0.000446206
0.00394611
0.00803411
0.00774425
0.00433059
0.000368672
0.00246209
0.00462095
0.00582437
0.00656492
0.00695738
0.00688365
0.00663857
0.00634363
0.00579422
0.00535508
0.00507764
0.00455357
0.00350023
0.00234518
1.60006e-05
0.00323416
0.00654341
0.00653135
0.0032864
0.000130021
0.00227284
0.00374235
0.00504684
0.0056554
0.00568712
0.0055876
0.00557059
0.00512188
0.00467594
0.00427971
0.00439626
0.00349759
0.00305979
0.00193932
3.07313e-05
0.00280683
0.00567285
0.0050803
0.00245794
5.66668e-05
0.00184278
0.00298925
0.00404902
0.00420922
0.00464064
0.0045701
0.00445664
0.00417759
0.00375788
0.00353994
0.00325396
0.00266174
0.00253232
0.0014523
0.000279703
0.00228728
0.00448163
0.0033524
0.00182488
5.62057e-05
0.00146464
0.00259041
0.00278243
0.00347678
0.00317197
0.00353771
0.00332959
0.00300674
0.00283821
0.00263296
0.00235975
0.00208076
0.00192119
0.00126911
0.000260995
0.00153296
0.00300542
0.00205602
0.00138469
8.22513e-07
0.000976797
0.00132449
0.00177442
0.00190735
0.00217719
0.00182742
0.00192292
0.00195561
0.00159366
0.0015829
0.00149796
0.00121885
0.000880709
0.000791613
0.000205561
0.00102532
0.00195269
0.000712667
0.000337209
0.000141515
0.000372869
0.000539627
0.00046839
0.000463585
0.000741823
0.000419377
0.000553022
0.000576501
0.000919103
0.000369225
0.000749623
0.000498902
0.000345641
0.000130463
9.89733e-07
0.000299653
0.000440009
0.0111737
0.00601885
0.00119871
0.00261001
0.00473093
0.00615429
0.00702034
0.00710291
0.00689332
0.00642523
0.00573554
0.00507266
0.00473479
0.00468915
0.00434264
0.00367294
0.00226055
0.000504297
0.00488498
0.0095269
0.00937384
0.00519124
0.000761301
0.00246289
0.00458438
0.00582108
0.00641919
0.00625558
0.00605498
0.00573309
0.00500713
0.00460982
0.00410182
0.00401487
0.00376557
0.00311183
0.00191823
0.000654698
0.00434167
0.00831377
0.00772447
0.00416033
0.000375204
0.00233076
0.00413291
0.0050156
0.00548807
0.0053406
0.00544906
0.004666
0.00430573
0.00392661
0.00367915
0.00347866
0.00313436
0.00239608
0.0013483
0.000625042
0.00371363
0.00713826
0.00636721
0.00331888
0.000279187
0.0020341
0.00319878
0.00436644
0.00455039
0.00466576
0.00440162
0.00383301
0.0038062
0.0032358
0.00291729
0.00292018
0.00260639
0.00224399
0.00101938
0.000375725
0.00311496
0.0056613
0.0049274
0.00254903
5.64773e-05
0.00169636
0.00279254
0.00322346
0.00381213
0.00355904
0.00331989
0.00335476
0.00279884
0.0025573
0.00261801
0.00228153
0.0018421
0.00151792
0.000912548
0.000499053
0.00237017
0.00454816
0.0035958
0.00180018
0.000102309
0.00125803
0.00194975
0.00263459
0.00283153
0.00279557
0.00257388
0.00237231
0.00221993
0.00152012
0.00162733
0.0016288
0.00155995
0.00111896
0.0004856
0.000300057
0.00177689
0.00339665
0.00196317
0.00115678
3.57192e-05
0.000901895
0.0012516
0.00141578
0.001648
0.00175397
0.00155305
0.00139167
0.00118537
0.00116353
0.000803634
0.00106821
0.000715619
0.000560373
0.000592661
0.000237968
0.00122686
0.00194814
0.0010249
0.000585615
1.28047e-05
0.00027405
0.000571281
0.000169898
0.000488273
0.000559007
0.00054195
0.000297315
0.000362791
0.000426723
0.000468264
0.000251915
0.000193653
0.000141228
0.000352305
0.000330795
0.000313806
0.000685921
0.0115996
0.00627104
0.00173658
0.00158614
0.00382367
0.00506345
0.00552707
0.00504763
0.00453128
0.00346133
0.0029394
0.00232052
0.00242005
0.00230801
0.00231847
0.00221486
0.000683624
0.00155089
0.00552489
0.0100807
0.00945556
0.00544695
0.0014679
0.00176833
0.00351491
0.00437021
0.00476369
0.0044237
0.00392524
0.00293444
0.00243162
0.00188629
0.001943
0.00222545
0.00216992
0.00166466
0.000449566
0.00151423
0.00493172
0.00861082
0.00802587
0.00400491
0.00121142
0.00152909
0.00331173
0.00385009
0.00409293
0.00386899
0.00316128
0.00254641
0.00208912
0.0015133
0.00180468
0.00169707
0.00156174
0.00148055
0.00041071
0.00160124
0.00433236
0.00748063
0.00664917
0.00359564
0.000592825
0.00132985
0.00280453
0.00326526
0.00343522
0.0034386
0.00282664
0.00221108
0.00182563
0.00126023
0.00129354
0.00156927
0.00136738
0.00119982
0.000241412
0.00113759
0.00350099
0.00635722
0.00500586
0.00262069
0.000619296
0.0011334
0.00221549
0.00283935
0.00284074
0.0024593
0.00224644
0.00178893
0.00117406
0.00117671
0.00094285
0.000874763
0.00104541
0.000808088
2.54691e-05
0.000818857
0.00298989
0.00493298
0.00350651
0.0019344
0.000318559
0.000876663
0.00163386
0.00199467
0.00214569
0.00182612
0.00146594
0.00129648
0.00106676
0.000690927
0.000798075
0.000576874
0.000709688
0.000602419
0.000209105
0.000807573
0.00207635
0.00344505
0.00228443
0.00117165
0.000139198
0.000411102
0.000960708
0.001205
0.00106775
0.00129075
0.0010407
0.000904635
0.000662427
0.000442507
0.000485336
0.000211071
0.00053879
0.000480644
0.000110498
0.000333646
0.00139173
0.00185157
0.000656666
0.000478676
0.000229236
0.000404415
0.000394158
0.000308444
0.000502904
0.000374099
0.000355221
0.000365733
0.000201976
0.000185001
0.000330469
0.000242096
0.000329983
0.000184226
0.000154263
0.000126991
0.000566915
0.000746113
0.0117749
0.0068215
0.00237472
0.000758453
0.00254569
0.00338066
0.00335926
0.00289432
0.00178498
0.000839517
0.00017045
0.000573951
0.000563056
7.01171e-05
7.47299e-05
0.000221571
0.000562348
0.00304484
0.00647164
0.0106925
0.00966813
0.0058048
0.00182944
0.000833796
0.0023846
0.00313263
0.00311351
0.00264844
0.00150699
0.00060443
0.000227
0.00053474
0.000477949
0.000268009
0.000269473
5.82076e-05
0.00093516
0.00286722
0.00616825
0.00917024
0.00821596
0.00480965
0.00132797
0.000962443
0.00214986
0.00268413
0.00275577
0.00218285
0.00132714
0.000682915
0.000329245
0.000659177
0.000533
0.000243348
0.000175718
0.00031556
0.000724305
0.00248544
0.00507352
0.0077363
0.00666765
0.00416246
0.00116565
0.000735792
0.00201051
0.00255213
0.00256942
0.00197568
0.00110745
0.000920722
8.0135e-05
0.000348168
0.000607221
8.00608e-05
3.53441e-05
0.000130209
0.000845435
0.00203829
0.00408822
0.00666608
0.00509207
0.00301446
0.0010222
0.000268476
0.00141443
0.00179452
0.00216733
0.00154117
0.00111641
0.000357011
0.00017364
0.000494256
0.000415554
4.87767e-05
0.000136814
6.90715e-05
0.000556894
0.00178022
0.00342338
0.00518696
0.00362414
0.0021448
0.00078608
0.000463825
0.00101392
0.00129424
0.00138955
0.0010994
0.00068372
0.000396682
4.76865e-05
0.000391588
9.01504e-05
0.000149887
9.67618e-05
0.000104781
0.000424686
0.00139928
0.00259051
0.00387367
0.00228123
0.00142793
0.000351355
0.00033401
0.000740344
0.000870722
0.000928751
0.000687666
0.000535639
0.000126709
7.66156e-05
0.00027691
8.23503e-05
2.44281e-05
4.75839e-05
4.2252e-05
3.97906e-05
0.000698725
0.00157332
0.00238814
0.000838577
0.000634255
0.000100603
0.000244591
0.000195888
0.000151084
7.68604e-05
3.43054e-05
0.000256073
4.68964e-05
2.77512e-05
9.52723e-05
0.000175224
0.000172144
7.14061e-05
8.00178e-05
6.57052e-05
0.000417697
0.000672034
0.000703757
0.0119635
0.00768024
0.00328702
0.000349144
0.00135034
0.00188586
0.00165678
0.000919136
0.000556052
0.00217568
0.00310757
0.00335384
0.00331488
0.00263542
0.00172076
0.00174887
0.00229422
0.0047473
0.00753112
0.0113633
0.0102462
0.00642337
0.00288918
0.000115712
0.00144153
0.00166985
0.00139421
0.00063585
0.000630876
0.00184872
0.00280486
0.00322137
0.00296183
0.00219509
0.00154137
0.00161385
0.00222146
0.00368788
0.00648413
0.0100883
0.00834697
0.00522814
0.00218791
1.15188e-05
0.00115582
0.00169188
0.00130325
0.000624207
0.000383599
0.00153416
0.00251746
0.0030123
0.00258397
0.00196297
0.00130043
0.00149662
0.00192973
0.00348257
0.00592625
0.00860538
0.00673309
0.00442755
0.00160967
4.16884e-05
0.00100254
0.00126587
0.0012738
0.000775173
0.000258739
0.00136556
0.00217335
0.00229492
0.00220012
0.00191998
0.00122089
0.00132276
0.00164614
0.0030843
0.00481241
0.00724995
0.00530519
0.00313169
0.00128057
2.44928e-05
0.000798998
0.000826633
0.000913183
0.00033415
0.000324963
0.00107229
0.00159576
0.00194018
0.00176856
0.00148455
0.00118281
0.000905179
0.00160269
0.00227581
0.00374798
0.00575616
0.00376751
0.00227133
0.000876115
3.40863e-05
0.000585248
0.000888706
0.000570922
0.000417975
0.000337352
0.000888522
0.00113302
0.00132689
0.00139106
0.00110796
0.000852081
0.000633159
0.00131155
0.00172895
0.00275921
0.00417616
0.00225675
0.00171916
0.000509925
8.10424e-05
0.000503097
0.000610306
0.000608187
0.000118197
0.000196444
0.000589644
0.000864764
0.000887471
0.000766992
0.000771978
0.000579716
0.000278041
0.000799634
0.00121935
0.00173556
0.00254146
0.0006117
0.000567962
3.15234e-05
7.39508e-05
0.000284044
0.000395333
6.12786e-05
1.8108e-05
8.19496e-05
0.00024041
0.000269228
0.000313825
0.00020786
0.000184893
8.79685e-05
0.000135473
0.000349254
0.000235512
0.000448455
0.000861327
0.0121798
0.00792958
0.0041986
0.00141134
0.000222302
0.000631168
0.000276755
0.00131521
0.00291969
0.00478286
0.00563484
0.00601045
0.00554937
0.0046552
0.00381801
0.00299301
0.00367039
0.00572221
0.00881789
0.0120585
0.00990185
0.0069098
0.0032334
0.000999241
0.000136165
0.000507027
4.80673e-06
0.00119183
0.00256339
0.00402654
0.00495667
0.00527428
0.00492497
0.00416003
0.00312865
0.00294414
0.00336992
0.00495697
0.00774551
0.0105726
0.00874185
0.00557672
0.00269507
0.000938428
0.000374438
0.000518151
0.000442839
0.000769267
0.00210492
0.00349922
0.00458248
0.00442053
0.00432435
0.00391215
0.00292727
0.00276093
0.00306233
0.00452505
0.00660097
0.00900454
0.00700957
0.00456341
0.00230453
0.000429716
0.000565368
0.000709363
0.000208821
0.000814755
0.00195476
0.00314634
0.0037117
0.00381839
0.00349873
0.00316314
0.00256094
0.00212876
0.00265844
0.00373022
0.00543477
0.00769834
0.00530832
0.00346348
0.00182723
0.00038977
0.000161131
0.000421956
0.000150026
0.000647254
0.00137703
0.00251914
0.00289203
0.00302722
0.00295637
0.00258171
0.00223301
0.00200327
0.00191495
0.00293645
0.004497
0.00608036
0.0038704
0.00263693
0.00100805
0.00035258
0.000285294
0.000318032
0.000135435
0.000250221
0.000868325
0.00159921
0.00222293
0.002449
0.00216871
0.00197446
0.00156892
0.0013744
0.00155308
0.00226024
0.00300995
0.00427762
0.00239316
0.00164181
0.000550294
8.18935e-05
1.13635e-06
0.000178577
7.60969e-05
0.000112392
0.000883217
0.00104179
0.00126756
0.00154064
0.00135314
0.00109231
0.000829737
0.00108432
0.000949311
0.00138465
0.00207553
0.0027014
0.000532246
0.000350127
7.05478e-05
0.000129537
0.000124671
0.000172648
0.000214185
3.56975e-05
9.41357e-05
0.000380936
0.000575386
0.000565796
0.000630663
0.000432279
0.000340609
0.000349668
0.000377629
0.000470919
0.000808618
0.000881251
0.0122267
0.00850653
0.00452686
0.00232818
0.000857475
0.000797511
0.00139621
0.00290203
0.00503632
0.00650342
0.00798792
0.00815486
0.00767889
0.00647431
0.00526089
0.00490986
0.0050156
0.00665194
0.00940171
0.0127888
0.0105226
0.00697545
0.00383297
0.00151543
0.00074556
0.00042895
0.00142784
0.00260481
0.00398983
0.00565125
0.00700179
0.0072931
0.00679891
0.00560647
0.0047094
0.00422879
0.00442552
0.00586189
0.00854895
0.011032
0.00877786
0.00594163
0.00309978
0.00108948
0.000384293
0.000409212
0.00102214
0.00228505
0.00362209
0.00505531
0.00593781
0.0062803
0.00569068
0.00498155
0.00412204
0.00366302
0.00402132
0.00508549
0.00718809
0.00960022
0.00682432
0.00488562
0.00248168
0.00108446
0.000510476
0.000522936
0.000680222
0.00177868
0.00305468
0.00405705
0.00488786
0.00536804
0.00471308
0.00395088
0.00333216
0.00321392
0.00333175
0.00416524
0.00612438
0.00789564
0.00537775
0.00366222
0.00204311
0.000772832
5.54245e-05
2.19455e-05
0.00079202
0.00173855
0.00232503
0.00312264
0.00390157
0.00402292
0.00401308
0.00338605
0.00267274
0.00253172
0.00263089
0.00315252
0.00467276
0.00631343
0.00379664
0.0025172
0.00139954
0.000440501
5.45278e-05
0.000158655
0.000631451
0.000954817
0.001668
0.00229775
0.00297564
0.00277877
0.00290129
0.00228341
0.00207214
0.00177466
0.00201427
0.00255917
0.00367678
0.00473446
0.00230137
0.00119112
0.000645708
0.000144692
0.000233698
0.000108063
4.59549e-05
0.000638586
0.0010627
0.00176005
0.00159081
0.00184033
0.00169786
0.00152503
0.00130024
0.00134828
0.00115673
0.00145594
0.00195823
0.00277444
0.00088956
0.000613312
0.000227031
0.000216741
6.08444e-05
0.000155974
4.27469e-05
0.000120556
0.00042671
0.000673541
0.000488332
0.000819313
0.000753402
0.000601195
0.000488126
0.000446843
0.000496785
0.000378673
0.000668703
0.00112782
0.0123163
0.00840856
0.00504476
0.002673
0.001709
0.00145783
0.00281699
0.00415168
0.00599318
0.00802934
0.00931211
0.00983967
0.00890121
0.00748417
0.00650016
0.00554574
0.00597265
0.00717942
0.00974133
0.0129284
0.0101113
0.00687364
0.00412409
0.00201261
0.0013179
0.00137792
0.00227853
0.00357049
0.00558366
0.00701264
0.00807132
0.00842607
0.00808562
0.00680623
0.00556333
0.00502686
0.00534322
0.00631782
0.008602
0.0114187
0.00841384
0.00600159
0.00329236
0.00162041
0.00084498
0.000814799
0.00171937
0.00304468
0.00450578
0.00602515
0.00703084
0.00731229
0.00678022
0.00592188
0.00507567
0.00445852
0.00450052
0.00539589
0.00751886
0.00995798
0.00693624
0.00456673
0.00266198
0.000976271
0.000602399
0.000720933
0.00168881
0.00254566
0.00366872
0.00511644
0.0060062
0.00614477
0.00586198
0.00495292
0.00404699
0.00346866
0.00383016
0.00480921
0.00629879
0.0081001
0.00545237
0.00380083
0.00226757
0.000883148
0.000551302
0.000610231
0.00119668
0.00183178
0.00311451
0.00398123
0.00455905
0.00474921
0.00460342
0.00391317
0.0035543
0.00271295
0.00315326
0.00352448
0.00504234
0.00629873
0.00383139
0.00240762
0.00152551
0.000652222
0.000556326
0.000386871
0.000919499
0.00160376
0.00228982
0.00259739
0.00331142
0.00362187
0.00321659
0.0029674
0.0025775
0.0021289
0.0022117
0.00269194
0.00384885
0.00466472
0.00245307
0.00142372
0.000856696
0.000162649
0.000109842
0.000502374
0.000548457
0.000907025
0.00155968
0.00159657
0.00209336
0.00206462
0.00228736
0.00181958
0.00160438
0.00120001
0.0014447
0.0017942
0.0022027
0.00260017
0.00109266
0.000479015
0.00029564
4.21577e-05
0.000296304
4.89014e-05
0.000151019
0.000522018
0.000337807
0.000624343
0.000651819
0.000622135
0.000831484
0.00058777
0.000478026
0.000295353
0.000416856
0.000507624
0.000879477
0.000786354
0.0117696
0.00833238
0.00505213
0.00276626
0.00201481
0.00200428
0.00314926
0.00476441
0.00688847
0.00884053
0.0100163
0.0102932
0.00946087
0.00837087
0.00701136
0.00628667
0.00639028
0.00741937
0.0100124
0.012815
0.0101636
0.00695863
0.00406506
0.00230355
0.00147763
0.00180994
0.0027611
0.00431253
0.00619943
0.00754991
0.00893697
0.00896316
0.00834351
0.00720972
0.00619248
0.00538678
0.00557808
0.00663343
0.0088567
0.0114072
0.00814717
0.00549521
0.00346383
0.00177821
0.00127202
0.00125802
0.00213765
0.00363105
0.00501002
0.00663508
0.00757904
0.00772905
0.00735176
0.00645296
0.00537691
0.00490348
0.00483781
0.00596684
0.00765095
0.00968607
0.00682713
0.00460265
0.00296662
0.00148607
0.000889404
0.000941265
0.00181796
0.00290549
0.0044416
0.00559863
0.00634703
0.00683836
0.00591473
0.0054834
0.00437772
0.00402033
0.00402414
0.00492119
0.00641786
0.00806818
0.00520604
0.00372658
0.00205266
0.00129399
0.000816034
0.000896106
0.00136607
0.0025227
0.00329646
0.00453184
0.00514638
0.00515527
0.00453049
0.00427653
0.00337233
0.00306158
0.00329248
0.00392431
0.00500464
0.00663079
0.00344116
0.00225427
0.00170605
0.000768718
0.00039018
0.000641289
0.00112719
0.00193741
0.00233628
0.0035459
0.00376767
0.00390162
0.00352784
0.00314442
0.00273371
0.00228466
0.00245602
0.00270822
0.0035742
0.00449964
0.00229672
0.00134186
0.000775614
0.000443703
0.000331036
0.000184427
0.000687438
0.00109785
0.00160798
0.00197419
0.00238275
0.00244417
0.00212416
0.00194602
0.00169016
0.00151233
0.00153309
0.00172124
0.00246966
0.00293102
0.00064187
0.000406201
0.000382809
0.000138871
6.26526e-05
6.95898e-05
8.78934e-05
5.63288e-05
0.000659162
0.000575061
0.000737412
0.00110392
0.000759952
0.000477212
0.000600706
0.000583152
0.000543219
0.000456314
0.00088583
0.000805089
0.0112559
0.0078376
0.00468178
0.00279852
0.00196611
0.00214793
0.00343689
0.00501917
0.00693371
0.00870061
0.0099922
0.0102469
0.00943665
0.00823478
0.00716033
0.00630639
0.00620291
0.00743579
0.00960539
0.0122188
0.00942703
0.00640964
0.00389977
0.00208458
0.00156092
0.00189538
0.00296827
0.00426599
0.00631324
0.00780844
0.00869914
0.00923634
0.00857543
0.00737471
0.00638956
0.00560809
0.00551003
0.00672215
0.00864475
0.0108121
0.00769006
0.00534933
0.00307383
0.0019903
0.00117493
0.00158196
0.00247189
0.00390427
0.00524197
0.00676035
0.00744692
0.00787461
0.00704935
0.00648028
0.00515947
0.00490513
0.0047473
0.00577834
0.00744786
0.00923062
0.00622919
0.00416636
0.00237265
0.00146054
0.000873065
0.00119583
0.00179207
0.00294274
0.00431922
0.00543931
0.00629703
0.00647226
0.00595294
0.00533884
0.0047433
0.00408609
0.00426008
0.00492346
0.00633324
0.00785963
0.00449922
0.00325597
0.00189453
0.00076292
0.000730383
0.000850031
0.00145052
0.00234632
0.00343027
0.0043536
0.00505446
0.00526174
0.00479621
0.00420111
0.00370815
0.00331874
0.00325906
0.00365916
0.00511447
0.0061089
0.00359957
0.00226841
0.00154222
0.000696034
0.000446923
0.00049403
0.00109485
0.00172548
0.00239331
0.00307139
0.00381461
0.00365266
0.0034414
0.00326691
0.00278387
0.00235959
0.00248632
0.00281757
0.00359463
0.00442376
0.00230248
0.00130974
0.000700253
0.000174803
0.000316879
0.000395797
0.000622277
0.00132777
0.00161889
0.00189037
0.00226667
0.00214966
0.00226717
0.0015384
0.00191492
0.00132637
0.00149931
0.00145192
0.00200243
0.00271859
0.000761328
0.000302292
5.2095e-05
3.72383e-05
3.27518e-05
0.000305595
0.000261832
0.000376296
0.000565356
0.000876419
0.000895762
0.000748721
0.000929819
0.000459025
0.000505743
0.000573542
0.000559345
0.000694754
0.000775542
0.00121196
0.0100264
0.00677114
0.00417799
0.0022374
0.00176025
0.00182687
0.00305833
0.00453158
0.00629591
0.00831942
0.00928756
0.0093919
0.00869914
0.00758365
0.00656323
0.00576011
0.00576083
0.00674319
0.00891626
0.0114705
0.00850057
0.00558878
0.00316618
0.00163648
0.00129325
0.00158693
0.00243259
0.00386394
0.00559836
0.00713077
0.00818428
0.00838243
0.00791416
0.00669106
0.00577184
0.00514676
0.00497899
0.00605627
0.00806289
0.0101785
0.00697983
0.00466423
0.00271528
0.00114919
0.00101468
0.000964211
0.00193593
0.00333195
0.00466626
0.00617302
0.00692926
0.00712894
0.006785
0.00589423
0.005024
0.00432482
0.00418537
0.00532091
0.00675274
0.00878318
0.00542954
0.00362559
0.0020123
0.00106222
0.000518032
0.000854394
0.001552
0.00268438
0.0042338
0.00492121
0.00578288
0.00590294
0.00566453
0.00477809
0.0042406
0.00358269
0.00372992
0.00429638
0.00567389
0.00744789
0.00426434
0.00276234
0.00159271
0.000883967
0.000352167
0.000778705
0.00136012
0.0023407
0.00304297
0.00390695
0.00461592
0.00474766
0.00460286
0.00393828
0.00312055
0.00327731
0.00310577
0.00356756
0.00444529
0.00586458
0.00269372
0.00213075
0.00123549
0.000252331
0.000242264
0.000473175
0.000816905
0.0017061
0.00240028
0.00303075
0.00337103
0.0035504
0.00332144
0.00272674
0.00255227
0.00227227
0.0022391
0.00282493
0.00316611
0.00398291
0.00177972
0.00121516
0.000762065
0.000282771
0.000181559
0.000148533
0.00054367
0.00129121
0.00148773
0.00185978
0.00215753
0.0020806
0.00229149
0.00162547
0.00144389
0.00148124
0.00101344
0.00164519
0.00215822
0.00256834
0.000725096
0.000363949
0.000104311
1.78313e-06
5.83333e-06
0.000123674
0.000152095
0.000243346
0.000465543
0.00068899
0.000566707
0.000544398
0.000703141
0.000558253
0.000437475
0.00050416
0.000324135
0.000342268
0.000434167
0.000646158
0.009017
0.00559827
0.00292974
0.00135671
0.00072767
0.00115919
0.00221195
0.00365407
0.00545171
0.00684413
0.00772611
0.00814567
0.00753071
0.00639376
0.00563597
0.00481344
0.00482045
0.00588337
0.00768512
0.0104414
0.00739065
0.00486674
0.00246316
0.000832254
0.000267354
0.000527063
0.00171608
0.00325896
0.00474739
0.00608181
0.00662373
0.00718635
0.00648889
0.00589224
0.00497077
0.00424935
0.00427203
0.00543301
0.00698717
0.00899647
0.00588905
0.00382333
0.00193625
0.000768668
0.000123152
0.000429458
0.00128701
0.0024084
0.003974
0.00517078
0.00590035
0.00606648
0.00562968
0.00492253
0.00421699
0.00356827
0.00378068
0.00449039
0.00596831
0.00793035
0.00461584
0.00295251
0.00145911
0.000381815
4.534e-05
0.000192712
0.00117603
0.00201066
0.00333629
0.00438294
0.00508802
0.00523737
0.00489136
0.00441016
0.00357947
0.00320617
0.00307381
0.00362673
0.00516444
0.00646317
0.00349774
0.00218882
0.000930233
0.000136556
0.000153986
0.000285141
0.000687191
0.00162168
0.00266694
0.00341022
0.00385698
0.00425333
0.00400507
0.00359101
0.00276728
0.00248833
0.0027413
0.00306365
0.00395774
0.00533158
0.00239428
0.00143015
0.000685974
0.000365647
0.000225654
0.000309223
0.00060266
0.00112667
0.00192314
0.00246133
0.00291667
0.00318999
0.0027033
0.00254152
0.00192293
0.00182409
0.00192731
0.00202535
0.00282635
0.00366767
0.0012469
0.000791609
0.000772366
0.000237456
2.70377e-05
0.000106286
0.000519929
0.000742833
0.000863281
0.00161494
0.00160569
0.00214345
0.00195973
0.00134361
0.00128257
0.00121781
0.00128772
0.00135842
0.00183625
0.00219408
0.000522474
0.000301555
0.000166022
0.000117541
8.15617e-05
0.000236439
0.000125782
1.21555e-05
0.000360924
0.000395818
0.00061767
0.000398164
0.000543039
0.000343629
0.000569196
0.000389808
0.000174897
0.00050629
0.000441506
0.000807818
0.00719908
0.00433087
0.00144158
0.000196065
0.000681209
0.000168454
0.00071987
0.00223745
0.00389048
0.00530966
0.00608431
0.00614545
0.00567638
0.00506694
0.0039409
0.0032273
0.00335317
0.00406988
0.00650417
0.00908746
0.00583438
0.00329739
0.00067552
0.000472562
0.000661082
0.000171843
0.000615789
0.0019682
0.00344183
0.00424272
0.00531494
0.0053436
0.00511095
0.00434275
0.00362075
0.00299886
0.0032616
0.00392335
0.0056628
0.00774397
0.0049979
0.00237287
0.000689929
0.000272649
0.000907712
0.000344268
0.000370371
0.00156191
0.00270234
0.00365902
0.00460109
0.00473016
0.00440681
0.00385009
0.00314436
0.00263505
0.00248982
0.00338529
0.00484631
0.00666699
0.00388363
0.00196426
0.000494881
0.00036241
0.00083274
0.000330592
0.00052481
0.00127887
0.00219463
0.00328434
0.00372443
0.00394143
0.00369324
0.00304265
0.00264988
0.00210887
0.00224876
0.00265591
0.00399845
0.00547451
0.00278563
0.00147851
9.05937e-05
0.000562123
0.000431685
0.000385328
4.6915e-05
0.00113488
0.00188897
0.00258721
0.00288011
0.00322149
0.00309114
0.00234587
0.00204606
0.00188115
0.00172416
0.00227711
0.00327898
0.00442403
0.00206622
0.00126805
0.000111864
0.000384169
0.000601165
0.0002056
0.000156668
0.000554758
0.00140035
0.00187677
0.00211721
0.00229076
0.00187238
0.0018093
0.00138621
0.00119816
0.00148917
0.00165381
0.00249976
0.003165
0.00120585
0.000503875
0.000216054
0.000109212
0.000347107
0.000295886
0.000290941
0.000336314
0.000742759
0.00127883
0.00131114
0.00134946
0.00112004
0.000907967
0.00113367
0.000762764
0.000935021
0.00120179
0.00140994
0.0021584
0.000393596
0.000218643
2.57022e-06
6.26677e-05
0.000207936
0.000164868
9.26596e-05
0.000232821
0.000348076
0.000514806
0.00036209
0.000726922
0.000291739
0.000395107
0.000249998
0.000249508
6.75707e-05
0.000396996
0.000502562
0.000700417
0.00517584
0.0024903
0.000182721
0.0017201
0.0023169
0.00188872
0.000763921
0.00037385
0.00167445
0.00285169
0.00394656
0.00403424
0.00342781
0.00291975
0.00207715
0.00145021
0.00152302
0.00251759
0.00471249
0.0073777
0.00418534
0.00171847
0.000413038
0.00193168
0.00210971
0.0018854
0.00111091
0.000242317
0.00143393
0.00275877
0.00312592
0.00338421
0.00330786
0.00248673
0.00192964
0.00146569
0.00146883
0.00247312
0.00417623
0.00634669
0.00331523
0.0012401
0.000639774
0.00160191
0.00201602
0.00176034
0.000996773
0.000143756
0.0012492
0.00192607
0.0028182
0.00286609
0.00282654
0.00215432
0.00148227
0.00138512
0.00124305
0.00211755
0.00354827
0.00517758
0.00266701
0.000792764
0.000673003
0.00162274
0.00171207
0.0015712
0.000916109
0.000160738
0.000838828
0.00187024
0.00217122
0.00244842
0.00240463
0.0017516
0.00159531
0.000954595
0.000966906
0.00165195
0.00277636
0.00437494
0.00198411
0.00058046
0.000925396
0.00132683
0.00154188
0.00142593
0.000601198
0.000120173
0.000886398
0.00145138
0.00165137
0.00221096
0.00167932
0.00152717
0.00102594
0.000885163
0.00102685
0.00132008
0.002343
0.00321549
0.00103745
0.000438597
0.000303302
0.000845036
0.00138539
0.0011478
0.000723256
0.000237905
0.00039122
0.00115671
0.00140387
0.00137075
0.00160373
0.00113606
0.000638969
0.000480465
0.000804664
0.00104775
0.00169935
0.00258109
0.000790881
0.000170236
0.000239841
0.00054723
0.000818936
0.000444964
0.000151789
0.000212871
0.000212302
0.000736431
0.000754542
0.000829552
0.000943017
0.000548032
0.00067315
0.000527555
0.000436997
0.000656633
0.00106038
0.00138502
0.000237293
2.56261e-05
7.21668e-05
0.000163478
5.7205e-05
0.000220877
0.000141663
7.11191e-05
3.13498e-06
0.000108893
0.000358889
8.03644e-05
0.000229597
1.86632e-05
0.000333282
9.29151e-05
0.00047331
2.80649e-05
0.000443494
0.000243958
0.00335054
0.000246435
0.00222217
0.00372305
0.00397681
0.00354688
0.00297495
0.00176559
0.000529321
0.000287099
0.00114436
0.00123683
0.0010451
0.000338373
0.000413233
0.000668177
0.000378576
0.000397019
0.00261892
0.0051004
0.00235052
0.000214087
0.00242135
0.00341629
0.00393253
0.0035653
0.00290997
0.00184093
0.000735335
0.000418345
0.00115139
0.00113681
0.000782325
0.000370308
0.000204734
0.000607504
0.000583508
0.000456061
0.00229566
0.00435228
0.00169865
0.00038855