/*--------------------------------*- C++ -*----------------------------------*\
| =========                 |                                                 |
| \\      /  F ield         | OpenFOAM: The Open Source CFD Toolbox           |
|  \\    /   O peration     | Version:  2212                                  |
|   \\  /    A nd           | Website:  www.openfoam.com                      |
|    \\/     M anipulation  |                                                 |
\*---------------------------------------------------------------------------*/
FoamFile
{
    version     2.0;
    format      ascii;
    arch        "LSB;label=32;scalar=64";
    class       volScalarField;
    location    "0";
    object      relativeErrorField;
}
// * * * * * * * * * * * * * * * * * * * * * * * * * * * * * * * * * * * * * //

dimensions      [0 0 0 1 0 0 0];

internalField   nonuniform List<scalar> 
3200
(
0.00956314
0.00752164
0.00330023
0.00555654
0.00480277
0.0132344
0.00874733
0.0135816
0.0102777
0.0160337
0.00673276
0.0177964
0.00990584
0.0159181
0.0104024
0.00783256
0.00625108
0.00372957
0.000918116
0.00301896
0.0103036
0.0053773
0.0012071
0.000564697
0.0108749
0.0068717
0.00951059
0.0157449
0.0153672
0.0112051
0.0105314
0.0114464
0.00224181
0.00554659
0.0110542
0.00554813
0.00795082
0.00211431
0.0044257
0.00929469
0.0131859
0.00526023
0.000745043
0.00269595
0.00757385
0.0089575
0.00898502
0.00696606
0.00546792
0.0123235
0.00843232
0.0101065
0.0122656
0.00338324
0.00788784
0.00854708
0.00975782
0.00447875
0.00170501
0.00097942
0.00502858
0.00639834
0.00575928
0.00300307
0.0080685
0.00542346
0.0105047
0.00814905
0.0124133
0.00907557
0.00754993
0.00762543
0.00893625
0.00614175
0.0109452
0.0055398
0.00827271
0.000998983
0.00392559
0.00515171
0.00106233
0.00468997
0.000593953
0.00558906
0.00447371
0.00179552
0.0126322
0.00562945
0.009109
0.00686454
0.0035913
0.00756024
0.00629453
0.00206013
0.00174205
0.00690962
0.00313201
0.000638835
0.00247866
0.00129816
0.00553031
0.00325512
0.0041113
0.000729578
0.000559473
0.000981796
0.00334198
0.00371954
0.00271154
0.00652688
0.00571604
0.00253596
0.00376212
0.00622634
0.00698562
0.00314739
0.000732829
0.000447878
3.0955e-05
0.000891795
0.00833479
0.000554242
0.000391003
0.00179114
0.00105205
0.00288119
0.00456372
0.00702293
0.000922189
0.00305511
0.00101912
0.00121338
0.00678833
0.00522512
0.00657858
0.00721683
0.00370972
0.0018442
0.00611928
0.0022239
0.0072537
0.00191479
0.00112299
0.0105523
0.000953238
0.00131087
0.00409683
0.00195093
0.0018217
0.00193704
0.00217452
0.00699584
0.00153514
0.000469425
0.00367328
0.00148916
0.00146581
0.00062977
0.00154973
0.00284715
0.00905302
0.0060225
0.00154373
0.00750754
0.0108281
0.00527233
0.0109369
0.0112197
0.0145545
0.011893
0.0124149
0.0108326
0.00773774
0.00621291
0.018074
0.0115126
0.00532554
0.0068018
0.00162767
0.006139
0.00593104
6.54934e-05
0.00221541
0.00107728
0.00612389
0.00109194
0.00625232
0.00127448
0.0131322
0.000443373
0.000108467
0.0105209
0.00192196
0.012407
0.0014561
0.00688177
0.00131665
0.00202801
0.00124783
0.00878565
0.00576773
0.00145132
0.00599298
0.000935704
0.00420091
0.00566142
0.00486248
0.00877193
0.00775769
0.00626287
0.00794173
0.00476416
0.00725196
0.0125359
0.00597101
0.0108211
0.00529068
6.75665e-06
0.00193663
0.00207215
0.00523763
0.00164117
0.00265239
0.000365325
0.00233837
0.00598413
0.0123958
0.0114589
0.0127507
0.00958853
0.0090491
0.00112184
0.00914641
0.0104905
0.0114791
0.0059518
0.00542473
0.000419581
0.00289606
0.00141393
0.00231798
0.00551237
0.00119655
0.00449554
0.00444753
0.0040219
0.00918033
0.00186294
0.00436439
0.00831088
0.00354295
0.00558098
0.00615885
0.00508014
0.00707453
0.00501837
0.000545869
0.00777982
0.00500882
0.00328546
0.00419124
0.00399871
0.00662407
0.00710798
0.00590161
0.000580806
0.00366583
0.00442853
0.0042947
0.00875456
0.00350425
0.000568516
0.0101673
0.00359856
0.000859207
0.000228177
0.0059609
0.00241408
0.00149649
0.00075744
0.000257755
0.00395226
0.000941968
0.00309927
8.84844e-05
0.00604772
0.000426671
0.00578376
1.2961e-05
0.00132144
0.00413925
0.00463411
0.000776266
0.00805715
0.00366365
0.0011885
0.00290457
0.00152021
0.000478143
0.000279815
0.000189316
0.000775829
0.000444914
0.00532916
0.00381725
0.0034888
0.00128934
0.000852695
0.00252519
0.00917671
0.00213843
0.00197906
0.00160275
0.00321991
0.00373793
0.00150858
0.00193551
0.00020932
0.00219589
0.0016325
0.00723646
0.00546697
0.00177879
0.00682464
0.00417024
0.00695114
0.00782025
0.011083
0.0094855
0.008343
0.010217
0.0102058
0.00206773
0.00653479
0.00767787
0.00713786
0.00462234
0.00673978
0.00140234
0.00099761
0.00941734
0.000350317
0.00313243
0.00395291
0.00106048
0.00557288
0.00721963
0.0106018
0.0092119
0.0122352
0.00746148
0.00852678
0.00363709
0.00739924
0.00562907
0.00695747
0.00475933
0.00508503
0.00030158
0.00432428
0.00800957
0.000811718
0.00357308
0.00207693
0.000980899
0.00818002
0.00613834
0.0104733
0.00343218
0.00316407
0.00330055
0.0110562
0.00541583
0.00570838
0.00581396
0.00449389
0.00872156
0.00179601
0.0010539
0.000574995
0.00433222
0.00105363
0.00314256
0.00844616
0.00186181
0.0051052
0.000884785
0.00664626
0.00697895
0.00563567
2.48875e-05
0.00423233
0.00760099
0.00599404
0.00501389
0.0100905
0.0100766
0.00423748
0.00312168
0.00647008
0.00291458
0.00552655
0.00159185
0.00174532
0.0021564
0.00565509
0.00457566
0.00569913
0.00746049
0.00752767
0.0040421
0.000463685
0.00891373
0.00601776
0.00269822
0.000101193
0.00164058
0.000451715
0.00210853
0.00376481
0.00319406
0.00522723
0.00140089
0.00080889
0.00326621
0.00302074
0.00319384
0.00302891
0.00427407
0.000520868
0.000514975
0.00355888
0.00603888
0.000464959
0.00182643
0.00290992
0.00170031
0.0027779
0.000422962
0.000170634
0.00125927
0.000141392
0.00102558
0.00194782
0.0014152
7.79311e-05
0.00430956
0.00355271
0.00208389
0.00199958
0.00726243
0.00234383
0.00629956
0.00388001
0.00409535
0.00353067
0.00333037
0.000671231
0.00564421
0.00366946
0.00368669
0.00160142
0.0016346
0.000756053
0.00168623
0.00278835
0.00147119
0.00355165
0.00055838
1.13936e-05
0.00327456
0.000927891
0.00805558
0.00380739
0.00498905
0.00333581
0.000297247
0.00143299
0.00359478
0.00145869
0.0131672
0.00576264
0.000872914
0.00631906
0.009777
0.0119515
0.00782001
0.00351005
0.00395992
0.00720623
0.010148
0.00218955
0.0067943
0.00987869
0.000245178
0.00547199
0.011619
0.00349289
0.0028287
0.00593897
0.0111569
0.00257438
6.55554e-05
0.0001242
0.0108873
0.000788482
0.00790103
0.000507396
0.00646452
0.000831751
0.000843518
0.00468625
0.00141191
0.00110477
0.000285232
0.00774445
4.07373e-05
0.00619025
6.04817e-05
0.00734227
0.00283618
0.00418165
0.00354291
0.000623147
0.00172692
0.00335343
0.00958629
0.0030533
0.000754395
0.00727213
0.0108889
0.00441384
0.00705685
0.00414973
0.0079706
0.00316815
0.005745
0.00211312
0.000971582
0.00224381
0.00757022
0.00475232
0.00347157
0.0049954
0.0044543
0.00529385
0.000289073
0.00902326
0.000269969
0.00366991
0.00648055
0.0042893
0.00673547
0.00361564
0.000235241
0.00624107
0.000944902
0.000922089
0.00172627
0.00543377
0.00472469
0.0045758
0.00721815
0.00403829
0.00361835
0.00962493
0.00592602
0.00127115
0.000725672
0.00112281
0.00810202
0.00496628
0.00346094
0.00230678
0.000968744
0.00712637
0.00319193
0.00362728
0.000818425
7.64268e-05
0.00366395
0.00291135
0.00012098
0.00387899
0.00498185
0.000975776
0.00570681
0.00134337
0.00209983
0.00286295
0.00299026
0.00454973
0.00607911
0.00154537
0.00553862
0.00230253
1.82771e-05
0.00345341
0.000416259
0.000158515
0.00371217
0.00593866
0.00167698
0.00483142
0.00471882
0.00075293
0.000806674
0.00569438
0.00608212
0.00373026
0.00215851
0.00595406
0.00508134
0.00179968
0.000509533
0.00635642
0.000514026
0.000338902
0.00158657
0.00312622
0.00210003
0.00141227
0.00487549
0.00339204
0.000283358
0.00395539
0.00166336
0.00112235
0.000338394
0.00324747
0.00186068
0.00109574
0.00799617
0.00376659
0.000142823
0.000286868
0.00121179
0.00519038
0.0073489
0.000729895
0.00947456
0.00607143
0.00295028
0.000941375
0.00553651
0.00454694
0.00964229
0.000822921
0.00768116
0.00334964
0.00518058
0.00100028
0.00376919
0.00139661
0.0031774
0.00308827
0.00590133
0.0022179
0.00278562
0.00672865
0.0063834
0.00373733
0.00195704
0.000654895
0.00461557
0.00635256
0.000317946
0.00796097
0.0045961
0.00354812
0.000925068
0.00640332
0.00140507
3.9174e-05
0.0021025
0.00566357
0.000770418
0.00347812
0.000581856
0.00568022
0.00739388
0.00354952
0.00108245
0.0026005
0.00443231
0.00268509
0.00539806
0.00293031
0.000235699
0.0011361
0.00793605
0.000342947
0.00206139
0.00160581
0.0103783
0.000617869
0.00720913
0.00211936
0.00138643
0.000981216
0.00687382
0.00303436
0.00403821
0.00420402
0.00722242
0.000665728
0.00216275
0.00558568
0.00399887
0.00662337
0.00567295
0.00334229
0.000751459
0.00395873
0.000599882
0.000407001
0.00295688
0.000725134
0.00574795
0.00841469
0.00280899
0.00148528
0.00123981
0.00309633
0.000120577
0.00439295
0.00344085
0.00450519
0.00255891
0.000538968
0.00444987
0.00342362
0.00586403
0.00320939
0.00731136
0.00046661
0.000386999
0.00312145
0.00219531
0.00175936
0.00500027
0.00176181
0.00180099
0.0107929
0.0021612
0.00463063
0.00799577
0.0044252
0.00130417
0.000360544
0.00129543
0.00583123
0.000721581
0.00368646
0.00768174
0.00198061
0.00356656
0.00440247
0.000732439
0.000578056
0.00519982
0.00173936
0.000636534
0.00220913
0.00215827
0.00243628
0.00297121
0.000232909
0.0014298
0.000161032
9.62368e-05
0.00206829
0.00630395
0.00152308
0.000663879
0.00718407
0.00284693
0.00272521
5.85328e-06
0.00472213
0.00879928
0.00522988
0.00177626
0.00133595
0.00145756
0.00145046
0.000342995
0.00185517
0.00124396
0.00137326
0.00404936
0.00483481
0.00261042
0.00128749
0.00523119
0.00560026
0.00202564
0.000802807
0.00327148
0.00134603
0.0128587
0.00493176
0.00280377
0.00189072
0.00833522
0.00522495
0.00288007
0.00104345
0.00178861
0.000698492
0.00207191
0.000445099
0.00434167
0.00107081
0.0113381
0.00230669
0.000147386
0.00375542
0.00192485
0.00913189
0.0108387
0.000215814
0.00244319
0.00122056
0.00333331
0.000433813
0.00688193
0.000139768
0.00454994
0.001362
0.000367574
0.00310641
0.000206671
0.00219266
0.000521169
0.00531059
0.00132068
0.0016419
0.000852507
0.00823312
0.00321121
0.00273892
0.00475381
0.00326178
0.00145103
0.00659447
0.00282741
0.00339196
0.00525459
0.002549
0.00402501
0.00099821
0.00127013
0.00216769
0.000727241
0.00112822
0.000366154
7.634e-05
0.000232806
0.00341155
0.00785095
0.00291363
0.00440491
0.00303523
0.00129285
0.00512418
0.00482965
0.00185391
0.00234506
0.00407912
0.00204832
0.00184765
0.00107477
0.000568593
0.00703207
0.0077597
0.00769114
0.00486059
0.00125357
0.00293475
0.00666316
0.00734653
0.00337178
0.00159216
0.00248775
0.000800251
0.00446357
0.00295505
0.000831121
0.000272088
0.000444388
0.000996771
0.000340758
0.00433203
0.000200422
0.00117677
0.00140208
0.00131275
0.000779801
0.00166873
0.00222748
0.00280955
0.00169541
0.00625533
0.00778979
0.00254265
0.00130475
0.000532358
0.00241167
0.00689941
0.0064543
0.00279579
0.00726962
0.0021567
0.00191047
0.000161917
0.00206454
0.00614342
0.0054432
0.00314601
0.00160338
0.000935294
0.000423292
0.00577635
0.000164202
0.00320407
0.00018476
0.00341921
0.000885535
0.00575281
0.00475036
0.000470883
0.00340406
0.00169558
0.00179027
0.0026453
0.00249693
0.00192386
0.00114981
0.00263401
0.00435635
0.00239439
0.000649719
0.0031939
0.00429223
0.00019438
0.00180601
0.000772245
0.00105487
0.000488633
0.00344464
0.00125989
0.00332313
0.00679047
0.00193775
0.00097159
0.00306729
0.0020687
0.000632742
0.00236845
0.0096311
0.00871395
0.00107656
0.00245191
0.00565495
0.00229671
0.00199586
0.000106892
0.00480781
0.000969189
0.00109109
0.00291575
0.00309748
0.00125997
0.00547117
0.00109955
0.00569949
0.00441559
0.00415233
0.00784065
0.00886757
0.000683563
0.00314357
0.00388689
0.00339192
0.00481161
0.00341997
0.00263689
0.000889894
0.00375255
0.00386492
0.00112728
0.00294041
0.000920785
0.0057734
0.00481817
0.000487873
0.00101452
0.00288608
0.00314649
0.0106184
0.00866677
0.000126972
0.00200066
0.00428462
0.00310719
0.00253291
0.00374835
0.00378555
0.000570264
0.00668166
0.00412194
4.81246e-05
0.00374191
0.00236654
0.00281433
0.00380678
0.00489074
0.000814676
0.00515289
0.00674842
0.00377289
0.000747058
0.00577357
0.000868162
0.00101497
0.00277274
0.00153805
0.000207369
0.00341263
0.00107472
0.00266051
0.00704092
0.00355679
0.00124307
0.00143693
0.00265749
0.00363063
0.00175646
0.00177441
0.00221576
0.00458365
0.00326916
0.00105455
0.00495892
0.00167932
0.00215162
0.0034422
0.00408793
0.000251887
0.00151308
0.00246356
0.00390807
0.00145016
0.00404837
0.00337684
0.00384074
0.00303992
0.00319945
0.00276374
0.000200675
0.00245025
0.00313597
0.00372849
0.00751919
0.00801426
0.00117262
0.00296839
6.00355e-05
0.000734468
0.00718473
0.00365891
0.00346478
0.0016502
0.000963071
0.00179107
0.00228562
0.00120424
0.000464042
0.00262369
0.00276515
0.00304972
0.00567094
0.00197213
0.00386936
0.00381486
0.000144649
3.07982e-06
0.00681962
0.00425364
0.00028921
0.000518555
0.00136522
0.00869174
0.00194036
0.00127438
0.0031196
0.000167414
1.30389e-05
0.0012605
0.0043566
0.00163857
0.00420583
0.00158551
0.00281142
0.00139739
0.00399911
0.00341888
0.00131636
0.000885044
0.00635261
8.27264e-05
0.00326778
7.29558e-05
0.00146626
0.00114466
0.0013142
0.00669836
0.00065575
0.00429105
0.0123721
0.0082812
0.00389953
0.00278937
0.00177542
0.000831304
0.00795725
0.00181243
0.00413485
0.00610507
0.00909257
0.00333564
0.00457748
0.00618294
0.000540413
0.00180621
0.00709975
0.00242133
0.00780225
0.00363673
0.00532073
0.00170468
0.00371908
9.66653e-05
0.0022737
0.00116784
0.000952949
0.000736487
0.00263602
0.000184397
0.00108541
0.00256151
0.000195877
0.0039458
0.00011703
0.00870407
0.000964302
0.00439058
0.00115434
0.002977
0.0116738
0.00380303
0.000835038
0.00439047
0.000851912
0.00197634
0.0028864
0.00416987
0.00204892
0.00119441
0.00538037
0.00308352
0.000834314
0.00572062
0.00162803
0.00450254
0.00635278
0.00165902
0.00387072
0.0109305
0.00606194
0.0043072
0.00231927
0.00188982
0.00213027
0.00335586
0.00237176
0.00510176
0.00246096
0.00171668
0.00334984
0.00435595
0.000331185
0.0104968
0.00115238
0.000933025
0.000461431
0.000393308
0.000998745
0.000443155
0.00524078
0.00600472
0.00271207
0.00409615
0.00105525
0.00116497
0.00585831
0.000125038
0.00062586
0.000928511
0.00042813
0.00245025
0.00134538
0.00168282
0.00482542
0.00295734
0.00417445
0.000212908
0.000756264
0.00643722
0.00175816
0.00980329
0.00185647
0.00485021
0.000367901
0.00125502
0.00183467
0.00186552
0.00116812
7.52722e-06
0.00420473
0.0054581
0.00389868
0.00865975
0.000472654
0.00393651
0.000721789
0.000407339
0.0019216
0.00752838
0.00495755
0.00296244
0.0014931
0.00481291
0.00249075
0.00358539
0.00395345
0.00470676
0.00213558
3.26413e-05
0.00137168
0.00412311
0.00356785
0.00167891
0.00159535
0.000766882
0.00374297
0.00336621
0.000564935
0.00362321
0.00202847
0.00156244
0.00455554
0.00332236
0.00533144
0.00234614
0.000195162
0.00362195
0.00407371
0.00215114
0.000823472
0.00222538
0.00609754
0.000914301
0.00416515
0.00270109
0.000599506
0.000155496
0.00535236
0.00177965
0.00726259
0.0109664
0.0053452
0.0040746
0.00391293
0.0058227
0.00235181
0.00101845
0.00712058
0.000249323
0.00316446
0.00945298
0.00764808
0.00445405
0.00339891
0.00326055
0.00786795
0.00257514
0.00312274
0.006901
0.0121866
0.00792454
0.00771932
0.0118322
4.87721e-05
7.67498e-05
0.00780621
0.00873933
0.00761147
0.00377135
0.00169955
0.00818976
0.00389633
0.00296763
0.000448671
0.00540714
0.000287253
0.00126349
0.00186911
0.00970047
0.00886665
0.00393686
0.00683514
0.0028708
0.00765535
2.45434e-05
0.00329456
0.00150468
0.00314195
0.00505602
0.0101479
0.0050356
0.000870903
0.000105156
0.00213834
0.000882117
0.000277456
0.00150197
0.00599003
0.00721207
0.00670134
0.00573739
0.00846014
0.00175431
0.00515225
0.00347168
0.00178992
0.000335825
0.00228533
0.00182855
0.00280842
0.00258433
0.00861178
0.00555257
0.00329696
0.00378432
0.000535506
0.00289686
0.0045991
0.0020902
0.00513158
0.00150375
0.00284775
0.000193422
0.00155407
0.000866946
0.00294276
0.00379807
0.00325784
0.000192311
0.000815929
0.00624849
0.00189356
0.00146042
6.18352e-05
0.00225977
0.00329717
0.00106593
0.00514796
0.00417203
0.00848457
0.00243725
0.00256465
0.00430186
0.00115173
0.00311072
0.000428906
0.00177351
0.00515887
0.00531584
0.00315622
0.00763985
0.00295851
0.00444395
0.00335217
0.00243598
0.00136885
0.0036267
0.0054034
0.00559646
0.00349504
0.00395447
0.00280811
0.0105624
0.00545687
0.00267831
0.0037839
0.00187066
0.0019132
0.00264566
0.00210291
0.00456573
0.000847554
0.00106134
0.00293482
0.00424425
0.00296081
0.00124139
0.00539901
0.00713874
0.00230755
0.000600338
0.00322125
0.000177919
0.000186378
0.000254842
0.00183706
0.00377916
0.0038893
0.00496808
0.000874577
0.0043212
0.00163458
0.00596234
0.000744171
0.00239383
0.0033008
0.00390333
0.00116682
0.00417225
0.0110475
0.00257575
0.00326553
0.0021307
0.00089601
0.00371027
0.00139633
0.00436478
0.0085757
0.00670221
0.00729666
0.0113645
0.0042047
0.00568762
0.00274468
0.0015309
0.00353446
0.00372845
0.00865557
0.00981089
0.0129552
0.00180977
0.00404459
0.00113808
0.00071819
0.000722558
0.00376714
0.000498034
0.00454573
0.00101395
0.00176034
0.00785207
0.000605634
0.0048209
0.000902805
0.000732695
0.00125159
0.00325025
0.00277286
0.00938031
0.0167118
0.00417726
0.000920432
0.00090442
0.00554574
0.00427958
0.0034802
0.00422158
0.00542093
0.00217068
0.00665586
0.0072815
0.00461822
0.00424015
0.000544737
0.00174717
0.00266448
0.00474906
0.00572752
0.00576727
0.00684076
0.00312344
0.00217962
0.00718277
0.0040567
0.000770893
0.00214651
0.00536409
0.00740178
0.00772686
0.00590882
0.00353823
0.00819646
0.00613322
0.000352684
0.00379666
0.00337948
0.00552152
0.00261878
0.00679965
0.00296607
0.00201644
0.00239355
0.00230392
0.00114746
0.000981287
0.00261337
0.0031529
0.0053326
0.000449616
0.000397921
0.00945805
0.00110235
0.00161001
0.00912674
0.00637778
0.000887196
0.00596288
0.00594008
0.00660575
0.00678203
0.000878834
0.00344538
0.00374575
0.00296021
0.00520725
0.00754225
0.0015082
0.00439609
0.00189069
0.00687905
0.00905484
0.00136226
0.00168618
0.00531882
0.00331845
0.00155473
0.000470449
0.00724493
0.00542169
0.00568689
0.0054238
0.000421344
0.00266674
0.000224197
0.00140458
0.00138807
0.00176825
0.000347988
0.0101379
0.000314685
0.00186924
0.000843087
0.00325905
0.000857225
0.000802205
0.00587157
0.00390216
0.00158402
0.00138911
0.00139378
0.000696249
0.00269243
0.000810734
5.18218e-05
0.00347449
0.00726617
0.00054093
0.00166335
0.000412306
0.00284991
0.00440602
0.00104566
0.00436658
1.76115e-05
0.00456028
0.00281575
0.00855103
0.00568733
0.00280092
0.0129135
0.00693927
0.00179226
0.00245151
0.0031104
0.00499797
0.000221115
0.00608978
0.00390571
0.00952966
0.00700411
0.0067807
0.00529615
0.000282214
0.00496494
0.00114882
0.00516825
0.000157338
0.00460942
0.00254386
0.0155842
0.000626976
0.007053
0.00120643
0.000243503
0.000626987
0.00586462
0.00102004
0.00617106
0.000300667
0.00125206
0.0121985
0.00199178
0.000398244
0.000411776
0.00175894
0.00228588
0.00338289
0.000978204
0.00997834
0.00514149
0.00331499
0.006225
0.00489899
0.00410258
0.00588692
0.00276568
0.00802996
0.003287
0.00522013
0.00332725
0.00568311
0.00607686
0.00140913
0.0032501
0.00183552
0.000815838
0.000593562
0.00154307
0.000806522
0.00508182
0.00773204
0.00552128
0.00059348
0.00682704
0.00260665
0.00533366
7.98048e-06
0.000156696
0.000854408
0.00561008
0.00790464
0.00696168
0.00706553
0.00690668
0.00236081
0.000215789
0.00135925
0.00848322
0.00402444
0.000864386
0.00161703
0.00657118
0.000549889
0.00519297
0.000292468
0.00383258
0.00396858
0.00666629
0.00860702
0.00558063
0.00289329
0.00199822
0.00902954
0.00207617
0.00353563
0.00136494
0.00278761
0.0060508
1.1975e-05
0.00585546
0.00656964
0.00499043
0.00393431
0.00183367
0.00167736
0.00714893
0.00490707
0.000188095
0.00052459
0.00263089
0.000483968
0.00290282
0.0020185
0.00117558
6.04803e-05
0.000818031
0.00171194
0.00121714
0.00225049
0.00184383
0.0017734
0.000675779
0.000834981
0.00151877
0.00035038
0.00185587
0.00457893
0.00497906
0.0018126
0.00238127
0.00241571
0.00233065
0.0015801
0.000495265
0.00194146
0.0086137
0.00306752
0.000667052
0.000662303
0.00164195
0.00832854
0.000841334
0.00603905
0.000343302
0.00538293
0.00333251
0.00397109
0.000610024
0.00274182
0.00352773
0.0033403
0.00330378
0.000476197
0.00261511
0.00012042
0.000371609
0.00155817
0.00215285
0.00540432
0.0102111
0.00856096
0.0056727
0.00578874
0.00575558
0.00696366
0.00244567
0.00253748
0.00354031
0.00368748
0.010112
0.0114861
0.00660128
0.0033202
0.00604682
0.0032026
0.00159297
0.00485702
0.00640873
0.00727764
0.00884301
0.00869309
0.00647203
2.14831e-05
0.0072231
0.000946793
0.000565354
0.00556845
0.0070206
0.00940571
0.0117904
0.000275112
0.00955867
0.00443215
0.00360685
0.00128257
0.00677398
0.00365978
0.00249102
0.00537595
0.00917243
0.00253056
0.00304032
0.0041713
0.00300875
0.00316352
0.00199976
0.0038649
0.00326398
0.00473322
0.000629175
0.00868403
0.00914379
0.00592001
0.00307036
9.99816e-05
0.00119909
0.00124633
0.000347507
0.00287474
0.00637793
0.00362682
0.000457227
0.00399701
0.0037787
0.00273056
0.00247804
0.00199756
0.00490777
0.00275022
0.00423842
0.0059045
0.00568435
0.000815972
0.00465352
0.000623751
0.00192577
0.00271086
0.00640273
0.00860271
0.0076192
0.00550135
0.00420482
7.49301e-05
0.00110741
0.00312703
0.000341133
0.000813164
0.00281412
0.00164147
1.05038e-05
0.0096145
0.00691013
0.005566
0.00301137
0.0055603
0.00455137
0.00174986
0.000597066
0.00657076
0.00547297
0.00777512
0.00182005
0.00412844
0.000545476
0.00720612
0.00592105
0.000638268
0.00430303
0.00771468
0.00226382
0.00147483
0.00609608
0.00128134
0.000112279
0.00197215
0.00332125
0.000908569
0.00300734
0.00304398
0.00204357
0.00367713
0.00108277
0.00149307
0.00539447
0.000445336
0.00170569
0.0037986
0.00315558
0.00269236
0.00459128
0.0015728
0.000469634
0.00164361
0.000287879
0.00333245
0.00201427
0.000278356
0.00198877
0.00275501
0.00390029
0.000616357
0.00301784
0.00222573
0.00850685
0.003432
0.00171298
0.00472353
0.00386257
0.00339934
0.0013891
0.000917289
0.00175343
0.0088051
0.0043907
0.00107336
0.00103928
0.00748922
0.0037215
0.00324554
0.0146067
0.011788
0.00603833
0.00128996
0.000650493
0.00231138
0.00390035
0.0029511
0.00707877
0.00790857
0.00796707
0.00965756
0.0037767
0.00655713
0.00540773
0.0033468
0.00163267
0.0022106
0.00491071
0.00824381
0.00953777
0.00132489
0.0052693
0.00105158
0.00384512
0.00179837
0.00399365
0.000602073
0.00582106
0.00116159
0.000903248
0.00422119
0.00103645
0.00328595
0.00134243
0.00490819
0.00075864
0.000242137
0.00162087
0.00398377
0.0099679
0.00546564
0.000669169
0.0028667
0.00110967
0.00345172
0.000523737
0.00555362
0.00599033
0.00465058
0.00633259
0.00183628
0.00931741
0.00768601
0.000689954
0.00631934
0.00277574
0.00583212
0.00184249
0.00742081
0.00542791
0.0095715
0.00479924
0.00183131
7.03995e-05
0.000522295
0.000619481
0.0048975
1.1941e-05
0.0078474
0.00573631
0.00691219
0.00768763
0.00740376
0.00135922
0.000544136
0.00178448
0.000113727
0.00124812
0.0043493
0.00923425
0.00370629
0.00276734
0.00476731
0.00327104
0.00337308
0.00307569
0.00154219
0.007645
0.00415213
0.00180131
0.00980369
0.00647052
0.00171255
0.000415411
0.00315741
0.00215659
0.0051633
0.000818056
0.00786661
0.00402867
0.00252559
1.66484e-05
0.00107539
0.000381372
0.00011529
0.00388274
0.00313786
0.00633719
0.0031984
0.000934094
0.00694478
0.00356263
0.00287546
0.0054762
0.00101344
0.0095399
0.00222787
0.00305929
0.00679929
0.00702025
0.00355299
0.00776097
0.00350253
0.00214794
0.00622973
0.002539
0.00396123
0.00838282
0.00225918
0.00191534
0.0016481
0.0021461
0.00361151
0.00683108
0.00056455
0.00464544
0.00626396
0.00437756
0.0056158
0.00341109
0.00504539
0.000621718
0.000377089
0.00236472
0.00193773
0.0019626
0.00439091
0.00416167
0.000677541
0.0065355
0.00629643
0.00521942
0.00211384
0.00262512
0.000969511
0.00207482
0.00329326
0.00298526
0.00202237
0.0153318
0.00452895
0.00353074
0.00127849
0.00126467
0.00199233
0.000860977
0.00372799
0.00413668
0.0110965
0.00528383
0.00635063
0.00446071
0.00538591
0.00130403
0.00457448
0.000362203
0.000294253
0.000792553
0.00223916
0.00816763
4.34419e-05
0.00284436
0.00244976
0.00119167
0.00266395
0.00637375
0.000136783
0.00413135
0.00109263
0.00645033
0.00397317
0.00742853
0.00721921
0.00297379
0.00148895
0.00603451
0.000506807
0.000126151
0.0037623
0.00691024
0.00579003
0.00314138
0.00085239
0.00112112
0.0035752
0.0044583
0.0065557
0.000858948
0.00861002
0.00313849
0.00663681
0.00613094
0.00209344
0.00652009
0.00512702
0.00358042
0.000751576
0.00326336
0.00491234
0.00439668
0.00231016
0.000417525
0.00397555
0.00179376
0.00125523
0.00136506
0.00220485
0.00115459
0.00685775
0.00808827
0.000611195
0.00101817
0.00080033
0.000320741
0.00422009
0.000786867
0.000919089
0.00114635
0.00430135
0.00818623
0.0026487
0.00151603
0.00187433
0.0047017
0.000555515
0.00570717
0.00549716
0.00455417
0.00679575
0.000297748
0.00327125
0.00364456
0.00313761
0.00255808
0.00146262
0.00310241
0.00151864
0.00427033
0.00102177
0.0074683
0.000377821
0.00904876
0.00251411
0.00139857
0.00377292
0.00143054
0.00114974
0.00395095
0.00301301
0.0038038
0.00452393
0.00403705
0.00498827
0.00229671
0.00244208
0.00345328
0.000167891
0.000465603
0.00478326
0.00131533
0.00168859
0.00407608
0.00451623
0.00276968
0.0007025
0.0019581
0.00147402
0.00635465
0.000612093
0.00672377
0.00622133
0.00357933
0.00013828
0.00211561
0.00116243
0.00385665
0.00111918
0.00556195
0.0010754
0.00311841
0.00144793
0.00484168
0.000148494
0.000338822
0.00219984
0.00203121
0.000785459
0.000957736
0.00273984
0.00495146
0.000400485
0.00176217
0.00253344
0.00630345
0.00392897
0.00299044
0.00681661
0.00067941
0.00367458
0.00517005
0.00107643
0.0025111
0.0022811
0.00217597
0.0020388
0.00102144
0.00103755
0.00583859
0.00324009
0.00265687
0.00701755
0.00115106
0.00158093
1.42969e-05
0.00104935
0.00534159
0.00576595
0.00165487
0.00181728
0.00677703
0.00118504
0.00465472
0.00046857
0.00197288
0.000179845
0.00157604
0.00119351
0.00276238
0.000530517
0.00143842
0.00664581
0.000140419
0.00144485
0.000854456
0.00298874
0.000218949
0.000208472
0.000271119
0.000667747
0.00352492
0.000835155
0.00249377
0.00198112
0.00421851
0.00431512
0.0012926
0.00215256
0.00398476
0.00333025
0.00136994
0.00301117
8.18749e-05
0.00495329
0.00352157
0.00185627
0.000253082
0.00120453
0.00113059
0.00463493
0.0045443
0.010306
0.000142206
0.000731661
0.000513132
0.00271276
0.00103823
0.0061831
0.00499025
0.000748312
6.77853e-05
0.00278701
0.0019605
0.000870746
0.00280427
0.00141873
0.00227299
0.00182117
0.000298563
0.00217934
0.00839985
0.000916164
0.00148152
0.00433955
0.00163879
0.00168949
0.00190764
0.00575982
0.00152174
0.00684115
0.00432578
0.000146559
0.00325203
0.000171552
0.00522755
0.00508743
0.000798449
0.0023198
0.00312592
0.00021019
0.00371102
0.00143216
0.000401247
0.00507001
0.00124121
0.00233495
0.000124312
0.000961011
0.00223481
0.00542424
0.000964465
0.00320504
0.00292822
0.00141042
1.95942e-05
0.00339323
0.00141402
0.00136714
0.000403963
0.00028582
0.000445674
0.00217045
6.55276e-05
0.00212749
0.000551922
0.000245461
0.00455327
0.00225533
0.00305737
0.00278058
0.00467658
0.0062524
0.000633931
0.00195855
0.00104771
0.00155339
0.00415795
0.00102607
0.00188895
0.00191299
0.0016598
0.001058
0.00119626
0.00364443
0.000695049
0.00735556
0.00205514
0.00202371
0.00156409
0.00268557
0.00511105
0.00259099
0.00393598
0.000711307
0.00230972
0.00712952
0.000825241
0.00415177
0.00221656
0.00360694
0.00708986
0.00309365
0.000326656
0.0014545
0.0015038
0.00282011
0.00102943
0.00259905
0.00100084
0.00356816
0.000987604
0.00121612
0.00174861
0.000121521
0.00297445
0.00412233
0.00751994
0.00107756
0.00129782
0.0020237
0.00645939
0.00599473
0.00249774
0.00326303
0.00261903
0.00519962
0.00405651
0.00193206
0.00166953
0.00129841
0.00555735
0.00083632
0.00113593
0.000707634
0.00385944
0.000274531
0.00521656
0.00495056
2.13392e-05
0.00296107
0.00355036
0.00365062
0.0020064
0.00238253
0.00598744
0.00173176
0.00209854
0.000135955
0.00194158
0.00230338
0.000154572
0.00254886
0.00128149
0.00396336
0.00124831
0.00486511
0.00166223
0.00430303
0.00320349
0.0029977
0.00273482
0.00338703
0.00307403
0.000373995
0.00105491
0.000631018
0.00212054
2.40418e-05
0.00167005
0.00264529
0.00101213
0.00392801
0.00114063
0.00246044
0.00225678
0.00270097
0.00381493
0.00554218
0.00115256
0.00191708
0.0102689
0.00221193
0.00036352
0.000432031
0.00115302
0.000727548
0.00281526
0.00178788
0.000982495
0.00258976
0.00290263
0.00292289
0.00490813
0.00105204
5.66191e-05
0.00349688
0.00170152
0.00151519
0.00443165
0.00485491
0.000405047
0.00815577
0.00158581
0.00195384
0.00167357
0.00212662
2.07727e-05
0.00295803
0.00447444
0.00226496
0.00247992
0.00468483
0.00353929
0.00126679
0.00407474
0.000611059
0.00421794
0.000592752
0.00386968
0.00498654
0.00233398
0.00274455
0.00293147
0.00135257
0.00286719
0.00400799
0.00214475
0.00288892
0.00206885
0.00269887
0.000792143
8.63178e-05
0.00128673
0.00412387
9.57961e-05
0.0027094
0.000849377
0.00352741
0.0057983
0.00200787
0.000652966
0.0023924
0.00205421
0.00192792
0.00139491
0.0053608
0.000132148
0.000629358
0.000438827
0.00214649
0.00648495
0.00367535
0.00279817
0.00284933
0.000996323
0.00191005
0.000196101
0.00399014
0.00552988
0.00141915
0.00663463
0.00258556
0.000888642
0.00119318
0.00264753
0.00727092
0.00269233
0.00738715
0.000699648
0.00414315
0.00236826
0.00618465
0.00200106
0.00193374
0.00798995
0.00143137
0.000927603
0.00166778
0.00712809
0.00819036
0.00755717
0.000820604
0.00261299
0.000599644
0.00327456
0.000711098
0.0011266
6.46196e-05
0.00451831
0.00196497
2.78371e-05
0.000443812
0.000545785
0.0040686
0.000980993
0.00667439
0.000539945
0.00603031
0.000950216
0.00162118
0.00478856
0.00228587
0.00756691
0.000414491
0.00246704
0.000483041
0.00683403
0.00135712
0.00378
0.00065127
0.00156144
0.0031814
0.00215285
0.00575887
0.000457018
0.00297502
0.00816614
0.00521035
0.00326
0.0073664
0.000901619
0.000589246
0.000335066
0.00141294
0.00656808
0.00314063
0.000974164
0.000755954
0.00139659
0.00112293
0.000475618
0.0060665