/*--------------------------------*- C++ -*----------------------------------*\
| =========                 |                                                 |
| \\      /  F ield         | OpenFOAM: The Open Source CFD Toolbox           |
|  \\    /   O peration     | Version:  2212                                  |
|   \\  /    A nd           | Website:  www.openfoam.com                      |
|    \\/     M anipulation  |                                                 |
\*---------------------------------------------------------------------------*/
FoamFile
{
    version     2.0;
    format      ascii;
    arch        "LSB;label=32;scalar=64";
    class       volScalarField;
    location    "0";
    object      T;
}
// * * * * * * * * * * * * * * * * * * * * * * * * * * * * * * * * * * * * * //

dimensions      [0 0 0 1 0 0 0];

internalField   nonuniform List<scalar> 
3200
(
314.61
314.531
314.522
314.974
315.162
315.151
315.191
315.476
315.287
315.36
315.647
315.544
315.411
315.012
315.045
314.876
314.908
314.702
314.491
314.384
312.579
312.536
312.536
312.86
313.072
313.082
313.1
313.382
313.163
313.167
313.502
313.404
313.3
312.917
313.022
312.871
312.879
312.709
312.509
312.445
310.625
310.603
310.598
310.865
311.031
311.045
311.017
311.308
311.115
311.095
311.357
311.302
311.228
310.87
311.016
310.842
310.9
310.718
310.514
310.51
308.697
308.657
308.622
308.898
308.987
309.004
308.98
309.247
309.098
309.053
309.238
309.206
309.151
308.857
309.02
308.898
308.91
308.73
308.544
308.611
306.77
306.68
306.672
306.936
306.972
306.985
306.97
307.191
307.077
307.039
307.15
307.174
307.126
306.885
307.022
306.937
306.912
306.737
306.591
306.728
304.853
304.771
304.711
304.943
304.99
304.99
304.928
305.165
305.04
305.043
305.093
305.146
305.099
304.874
305.025
304.971
304.956
304.768
304.693
304.806
302.938
302.878
302.821
302.973
303
302.987
302.925
303.094
302.964
303.033
303.024
303.109
303.05
302.9
303.05
302.975
303.011
302.839
302.775
302.868
300.993
300.963
300.949
301.031
301.006
301.009
300.968
301.054
300.984
301.018
301.012
301.038
301
300.946
301.019
301.005
301.01
300.953
300.926
300.968
315.016
315.19
315.161
315.539
315.774
315.982
315.986
316.167
316.361
316.066
316.181
316.269
315.954
315.852
315.959
315.745
315.472
315.412
315.048
314.755
312.92
313.081
313.051
313.352
313.62
313.784
313.715
313.911
314.097
313.805
313.9
314.054
313.758
313.628
313.75
313.593
313.331
313.286
312.928
312.723
310.867
311.021
310.989
311.242
311.467
311.601
311.507
311.679
311.852
311.57
311.68
311.904
311.571
311.4
311.579
311.451
311.267
311.148
310.853
310.699
308.848
308.993
308.945
309.157
309.346
309.444
309.363
309.504
309.602
309.375
309.531
309.714
309.43
309.279
309.428
309.36
309.206
309.041
308.8
308.702
306.866
307.009
306.944
307.101
307.216
307.305
307.24
307.389
307.429
307.254
307.347
307.518
307.341
307.236
307.285
307.274
307.172
307.045
306.783
306.745
304.915
304.997
304.936
305.076
305.139
305.206
305.14
305.295
305.302
305.153
305.198
305.358
305.224
305.177
305.212
305.203
305.126
305.034
304.787
304.849
302.927
303.009
302.962
303.06
303.082
303.129
303.088
303.185
303.159
303.104
303.11
303.221
303.124
303.126
303.154
303.12
303.087
303.01
302.85
302.902
300.99
301.025
300.988
301.026
301.02
301.073
301.022
301.073
301.051
301.045
301.045
301.068
301.044
301.05
301.054
301.029
301.039
300.993
300.954
300.975
315.692
316.029
316.327
316.544
316.501
316.931
316.896
317.038
317.289
316.848
317.088
317.354
316.934
316.816
316.747
316.762
316.36
316.117
315.988
315.804
313.536
313.747
314.017
314.271
314.204
314.549
314.529
314.658
314.901
314.492
314.674
314.893
314.554
314.426
314.43
314.414
314.046
313.871
313.763
313.623
311.387
311.55
311.824
312.003
311.946
312.226
312.203
312.33
312.504
312.224
312.329
312.504
312.268
312.153
312.171
312.093
311.788
311.68
311.599
311.469
309.264
309.407
309.67
309.804
309.73
309.884
309.939
310.039
310.198
310.029
310.077
310.199
309.972
309.9
309.904
309.859
309.622
309.529
309.419
309.324
307.192
307.321
307.513
307.586
307.537
307.596
307.69
307.785
307.925
307.808
307.856
307.951
307.739
307.695
307.666
307.615
307.492
307.388
307.312
307.21
305.115
305.204
305.377
305.369
305.392
305.381
305.431
305.536
305.649
305.568
305.649
305.713
305.538
305.489
305.496
305.423
305.364
305.246
305.207
305.113
303.09
303.117
303.206
303.224
303.222
303.222
303.215
303.296
303.404
303.363
303.417
303.454
303.276
303.298
303.287
303.267
303.232
303.131
303.109
303.086
301.034
301.042
301.066
301.085
301.073
301.067
301.072
301.133
301.145
301.151
301.146
301.164
301.088
301.1
301.106
301.11
301.065
301.036
301.047
301.044
316.769
316.753
317.104
317.488
317.648
317.73
317.83
317.873
318.004
318.007
318.115
318.132
317.928
317.847
317.734
317.716
317.42
317.063
316.882
316.746
314.434
314.426
314.738
315.055
315.146
315.21
315.296
315.355
315.484
315.485
315.572
315.619
315.456
315.361
315.258
315.233
314.988
314.678
314.556
314.372
312.129
312.083
312.358
312.691
312.717
312.718
312.859
312.939
313.032
312.997
313.09
313.15
312.993
312.91
312.826
312.802
312.552
312.308
312.239
312.155
309.861
309.858
310.07
310.395
310.369
310.277
310.458
310.571
310.64
310.614
310.664
310.719
310.537
310.539
310.428
310.38
310.178
310
309.966
309.899
307.646
307.667
307.811
308.061
308.037
307.944
308.127
308.175
308.243
308.225
308.259
308.348
308.179
308.197
308.113
308.032
307.863
307.738
307.693
307.639
305.483
305.471
305.58
305.729
305.745
305.619
305.811
305.848
305.858
305.87
305.863
305.936
305.835
305.858
305.793
305.729
305.561
305.528
305.449
305.41
303.328
303.299
303.361
303.432
303.487
303.357
303.511
303.531
303.497
303.507
303.511
303.534
303.481
303.502
303.439
303.435
303.296
303.343
303.256
303.218
301.136
301.101
301.116
301.147
301.188
301.129
301.174
301.181
301.152
301.167
301.182
301.182
301.169
301.184
301.143
301.163
301.091
301.114
301.072
301.074
317.464
317.68
317.978
318.345
318.495
318.64
318.679
318.909
318.854
319.054
319.181
318.974
318.908
318.919
318.903
318.717
318.483
318.186
318.048
317.561
314.976
315.235
315.468
315.798
315.907
316.013
316.019
316.275
316.242
316.407
316.48
316.374
316.239
316.27
316.258
316.091
315.909
315.654
315.565
315.137
312.609
312.811
313.013
313.308
313.339
313.429
313.487
313.692
313.67
313.827
313.832
313.824
313.648
313.687
313.671
313.537
313.355
313.188
313.108
312.773
310.305
310.414
310.62
310.862
310.831
310.856
310.948
311.185
311.153
311.275
311.276
311.271
311.118
311.187
311.183
311.004
310.857
310.724
310.723
310.463
307.966
308.081
308.169
308.444
308.361
308.373
308.469
308.664
308.637
308.814
308.74
308.707
308.647
308.73
308.721
308.496
308.416
308.329
308.352
308.108
305.675
305.77
305.782
306.025
305.94
305.974
306.058
306.167
306.174
306.296
306.213
306.174
306.157
306.27
306.255
306.066
305.979
305.972
305.947
305.796
303.401
303.467
303.465
303.628
303.561
303.57
303.61
303.678
303.698
303.783
303.687
303.675
303.698
303.75
303.777
303.644
303.569
303.595
303.534
303.464
301.137
301.171
301.141
301.22
301.181
301.177
301.223
301.252
301.229
301.263
301.232
301.219
301.247
301.251
301.283
301.228
301.2
301.201
301.156
301.145
318.353
318.695
319.011
319.207
319.399
319.662
319.718
320.205
320.202
320.032
320.219
320.245
320.009
320.116
319.922
319.675
319.546
319.264
319.05
318.486
315.825
316.142
316.368
316.515
316.713
316.878
316.946
317.343
317.363
317.218
317.373
317.383
317.239
317.363
317.136
316.948
316.817
316.586
316.414
315.942
313.361
313.608
313.782
313.823
314.045
314.14
314.244
314.574
314.555
314.517
314.583
314.559
314.509
314.656
314.391
314.29
314.155
313.963
313.883
313.434
310.924
311.088
311.229
311.228
311.447
311.477
311.598
311.833
311.829
311.827
311.844
311.851
311.841
311.908
311.688
311.637
311.518
311.374
311.335
310.999
308.465
308.599
308.735
308.696
308.867
308.909
308.995
309.174
309.129
309.152
309.189
309.175
309.141
309.225
309.053
309.043
308.909
308.822
308.836
308.625
306.013
306.138
306.253
306.199
306.341
306.341
306.405
306.524
306.471
306.542
306.564
306.504
306.541
306.611
306.473
306.471
306.353
306.27
306.287
306.186
303.621
303.669
303.779
303.705
303.808
303.799
303.838
303.903
303.874
303.93
303.934
303.923
303.93
303.957
303.873
303.893
303.802
303.762
303.796
303.695
301.226
301.238
301.272
301.239
301.285
301.281
301.294
301.295
301.307
301.299
301.321
301.33
301.309
301.31
301.309
301.318
301.259
301.273
301.276
301.223
319.462
319.783
320.065
320.255
320.422
320.773
320.867
321.048
321.129
321.051
321.355
321.123
321.229
321.234
320.98
320.77
320.559
320.31
320.114
319.632
316.769
317.08
317.26
317.423
317.611
317.9
317.952
318.139
318.129
318.11
318.377
318.171
318.242
318.324
318.094
317.889
317.673
317.473
317.345
316.92
314.094
314.439
314.533
314.68
314.879
315.097
315.108
315.301
315.214
315.277
315.445
315.302
315.371
315.478
315.229
315.045
314.851
314.679
314.605
314.272
311.485
311.782
311.878
311.988
312.17
312.328
312.264
312.488
312.363
312.465
312.552
312.431
312.564
312.611
312.396
312.263
312.099
311.974
311.891
311.671
308.937
309.15
309.218
309.312
309.428
309.604
309.484
309.711
309.564
309.688
309.719
309.631
309.79
309.75
309.637
309.55
309.369
309.273
309.225
309.093
306.36
306.504
306.547
306.61
306.732
306.881
306.812
306.898
306.795
306.909
306.94
306.852
306.98
306.967
306.875
306.837
306.649
306.587
306.603
306.508
303.799
303.898
303.932
303.931
304.045
304.122
304.085
304.144
304.084
304.136
304.16
304.066
304.188
304.192
304.08
304.062
304.002
303.957
304.006
303.917
301.281
301.315
301.307
301.318
301.369
301.399
301.395
301.372
301.357
301.374
301.391
301.364
301.412
301.419
301.361
301.344
301.358
301.334
301.351
301.297
320.108
320.464
320.842
321.133
321.292
321.632
321.872
322.002
322.132
321.983
322.336
322.214
322.344
322.192
321.996
321.647
321.302
321.226
321.039
320.571
317.354
317.65
317.95
318.236
318.357
318.634
318.808
318.901
319.111
318.939
319.27
319.139
319.229
319.135
318.877
318.615
318.324
318.264
318.192
317.734
314.575
314.94
315.096
315.385
315.484
315.731
315.837
315.848
316.099
315.96
316.192
316.114
316.174
316.085
315.896
315.652
315.434
315.374
315.359
314.968
311.87
312.2
312.289
312.605
312.634
312.856
312.918
312.868
313.134
312.999
313.202
313.154
313.169
313.138
313.029
312.761
312.547
312.552
312.563
312.259
309.189
309.47
309.496
309.82
309.815
309.992
309.989
309.966
310.197
310.072
310.247
310.172
310.203
310.154
310.107
309.91
309.753
309.73
309.757
309.542
306.526
306.732
306.731
306.994
307.002
307.127
307.095
307.115
307.304
307.234
307.299
307.27
307.3
307.206
307.25
307.065
306.956
306.968
306.951
306.846
303.878
304.068
304.049
304.174
304.212
304.301
304.239
304.287
304.371
304.353
304.355
304.343
304.402
304.343
304.385
304.24
304.18
304.191
304.193
304.106
301.298
301.355
301.336
301.395
301.418
301.442
301.426
301.449
301.456
301.466
301.436
301.474
301.464
301.466
301.464
301.413
301.428
301.412
301.412
301.372
320.843
321.333
321.646
322.077
322.411
322.544
322.856
322.991
323.26
323.055
323.451
323.287
323.296
323.321
323.128
322.655
322.398
322.183
322.199
321.616
317.956
318.388
318.631
319.055
319.324
319.427
319.747
319.782
320.068
319.884
320.216
320.074
320.084
320.087
319.958
319.505
319.27
319.116
319.159
318.628
315.134
315.512
315.675
316.104
316.297
316.416
316.729
316.679
316.925
316.786
317.053
316.951
316.902
316.935
316.827
316.427
316.213
316.134
316.181
315.717
312.368
312.663
312.744
313.118
313.278
313.408
313.702
313.663
313.806
313.732
313.877
313.84
313.781
313.814
313.757
313.357
313.195
313.203
313.243
312.797
309.615
309.801
309.834
310.172
310.295
310.46
310.692
310.581
310.7
310.674
310.727
310.716
310.648
310.684
310.675
310.356
310.217
310.28
310.295
309.947
306.855
306.995
306.952
307.304
307.346
307.501
307.666
307.525
307.628
307.602
307.633
307.598
307.596
307.586
307.601
307.367
307.24
307.345
307.36
307.109
304.13
304.196
304.121
304.354
304.436
304.501
304.646
304.539
304.584
304.548
304.589
304.526
304.565
304.535
304.564
304.405
304.335
304.415
304.444
304.248
301.403
301.404
301.357
301.458
301.485
301.503
301.558
301.527
301.546
301.536
301.542
301.494
301.55
301.514
301.542
301.484
301.445
301.479
301.488
301.414
321.639
322.189
322.48
322.925
323.16
323.612
323.917
324.164
324.12
324.297
324.303
324.339
324.433
324.32
323.991
323.673
323.565
323.373
323.201
322.439
318.68
319.142
319.349
319.758
319.978
320.427
320.631
320.84
320.772
320.943
320.938
320.969
321.091
321.013
320.692
320.405
320.308
320.143
320.004
319.351
315.763
316.12
316.257
316.685
316.819
317.26
317.424
317.594
317.488
317.66
317.664
317.697
317.765
317.74
317.412
317.198
317.105
316.976
316.829
316.309
312.876
313.181
313.237
313.701
313.683
314.112
314.227
314.396
314.272
314.396
314.421
314.461
314.507
314.483
314.2
314.049
313.939
313.876
313.758
313.263
309.99
310.241
310.292
310.653
310.6
310.98
311.033
311.13
311.065
311.183
311.205
311.249
311.306
311.226
310.995
310.903
310.839
310.766
310.685
310.277
307.089
307.281
307.365
307.646
307.573
307.879
307.853
307.958
307.906
307.968
308.008
308.024
308.052
307.976
307.812
307.77
307.749
307.706
307.62
307.333
304.249
304.35
304.454
304.61
304.585
304.749
304.687
304.763
304.722
304.803
304.844
304.8
304.851
304.771
304.669
304.637
304.647
304.632
304.591
304.416
301.442
301.474
301.515
301.541
301.548
301.591
301.57
301.606
301.579
301.609
301.611
301.599
301.628
301.574
301.575
301.548
301.571
301.56
301.53
301.461
322.49
322.932
323.213
323.828
323.949
324.598
324.838
325.003
325.071
325.353
325.407
325.297
325.359
325.215
324.837
324.684
324.428
324.368
323.924
323.431
319.401
319.802
319.986
320.554
320.645
321.193
321.435
321.599
321.613
321.873
321.922
321.799
321.88
321.777
321.398
321.306
321.07
321.06
320.661
320.235
316.334
316.695
316.836
317.365
317.462
317.892
318.094
318.22
318.212
318.445
318.499
318.374
318.438
318.399
318.023
317.936
317.755
317.797
317.447
317.081
313.313
313.654
313.71
314.189
314.261
314.617
314.77
314.879
314.915
315.003
315.102
314.995
315.043
315.042
314.727
314.601
314.482
314.501
314.239
313.93
310.327
310.598
310.603
310.989
311.117
311.384
311.47
311.615
311.599
311.653
311.665
311.656
311.687
311.718
311.42
311.318
311.243
311.247
311.031
310.795
307.365
307.538
307.517
307.841
307.955
308.148
308.24
308.33
308.318
308.304
308.281
308.316
308.358
308.372
308.147
308.08
308.035
307.977
307.858
307.677
304.426
304.496
304.487
304.721
304.778
304.917
304.971
305.013
305.011
304.988
304.972
304.997
304.988
305.032
304.895
304.853
304.807
304.777
304.689
304.597
301.478
301.505
301.488
301.594
301.602
301.665
301.665
301.667
301.663
301.686
301.653
301.657
301.671
301.693
301.647
301.639
301.612
301.614
301.557
301.516
323.239
323.535
324.033
324.688
324.901
325.151
325.525
325.757
325.891
326.277
326.313
326.31
326.251
325.929
325.926
325.843
325.446
325.216
324.705
324.239
320.046
320.246
320.732
321.321
321.431
321.689
322.005
322.215
322.322
322.637
322.704
322.686
322.628
322.386
322.358
322.251
321.94
321.777
321.305
320.903
316.874
317.017
317.491
317.997
318.065
318.258
318.558
318.732
318.815
319.081
319.163
319.116
319.07
318.93
318.885
318.743
318.525
318.376
317.998
317.631
313.708
313.845
314.276
314.715
314.709
314.918
315.174
315.242
315.364
315.555
315.627
315.575
315.585
315.49
315.418
315.31
315.101
315.005
314.72
314.379
310.583
310.714
311.092
311.437
311.4
311.566
311.756
311.831
311.949
312.067
312.102
312.094
312.116
312.05
311.993
311.885
311.725
311.63
311.462
311.13
307.521
307.642
307.873
308.131
308.143
308.289
308.373
308.405
308.533
308.609
308.667
308.648
308.686
308.601
308.561
308.525
308.375
308.289
308.197
307.931
304.503
304.59
304.702
304.892
304.89
304.983
305.03
304.99
305.121
305.146
305.215
305.198
305.228
305.179
305.151
305.103
305.056
305
304.909
304.747
301.516
301.555
301.578
301.63
301.628
301.669
301.686
301.653
301.734
301.718
301.746
301.731
301.73
301.731
301.729
301.708
301.692
301.682
301.626
301.602
324.106
324.551
324.939
325.422
325.618
325.958
326.174
326.689
326.786
327.137
327.087
327.003
327.167
326.9
326.703
326.617
326.399
326.081
325.705
325.355
320.804
321.206
321.576
321.939
322.058
322.394
322.575
322.987
323.106
323.39
323.366
323.303
323.41
323.175
323.035
322.951
322.781
322.494
322.251
321.924
317.537
317.866
318.193
318.508
318.57
318.891
319.038
319.321
319.468
319.707
319.722
319.691
319.718
319.51
319.432
319.341
319.214
318.949
318.795
318.5
314.29
314.576
314.851
315.122
315.151
315.452
315.528
315.769
315.902
316.083
316.096
316.114
316.075
315.935
315.842
315.768
315.679
315.455
315.309
315.091
311.079
311.293
311.547
311.755
311.775
311.99
312.057
312.241
312.345
312.469
312.458
312.54
312.512
312.35
312.321
312.228
312.227
312.004
311.875
311.69
307.906
308.027
308.261
308.389
308.425
308.556
308.592
308.747
308.78
308.849
308.857
308.978
308.934
308.81
308.805
308.706
308.776
308.577
308.47
308.307
304.743
304.801
304.951
305.049
305.071
305.146
305.155
305.241
305.25
305.28
305.307
305.376
305.36
305.276
305.268
305.196
305.31
305.155
305.055
304.986
301.587
301.575
301.662
301.676
301.702
301.728
301.733
301.772
301.733
301.77
301.787
301.807
301.796
301.763
301.75
301.745
301.766
301.724
301.689
301.672
324.808
325.285
325.754
326.226
326.576
326.931
327.095
327.349
327.702
327.873
327.833
327.919
327.976
327.627
327.608
327.303
327.219
326.873
326.417
326.016
321.458
321.842
322.228
322.663
322.91
323.236
323.371
323.563
323.887
324.029
324.012
324.091
324.121
323.792
323.786
323.595
323.485
323.192
322.819
322.487
318.112
318.405
318.743
319.159
319.278
319.56
319.683
319.815
320.144
320.257
320.236
320.4
320.323
320.031
320.041
319.892
319.832
319.574
319.262
318.984
314.766
314.986
315.291
315.672
315.715
315.958
316.056
316.167
316.47
316.53
316.538
316.687
316.581
316.337
316.345
316.219
316.208
315.957
315.756
315.516
311.428
311.597
311.844
312.193
312.243
312.395
312.433
312.57
312.788
312.845
312.839
312.985
312.839
312.648
312.725
312.577
312.618
312.353
312.255
312.022
308.156
308.271
308.497
308.707
308.731
308.846
308.861
308.938
309.138
309.167
309.157
309.241
309.126
308.994
309.075
309.035
308.998
308.782
308.731
308.512
304.916
304.966
305.149
305.211
305.207
305.324
305.299
305.372
305.479
305.484
305.486
305.527
305.461
305.416
305.427
305.43
305.41
305.287
305.24
305.065
301.651
301.67
301.749
301.738
301.747
301.768
301.762
301.81
301.811
301.838
301.84
301.828
301.805
301.822
301.813
301.82
301.813
301.762
301.77
301.676
325.325
325.968
326.418
326.938
327.217
327.677
327.935
328.256
328.524
328.792
328.869
328.865
328.838
328.641
328.371
328.256
327.935
327.629
326.995
326.762
321.899
322.425
322.819
323.276
323.436
323.878
324.099
324.38
324.611
324.851
324.927
324.939
324.877
324.791
324.466
324.392
324.119
323.898
323.376
323.163
318.543
318.9
319.261
319.634
319.778
320.127
320.297
320.527
320.743
320.936
321.032
321.04
320.984
320.946
320.62
320.63
320.356
320.142
319.79
319.6
315.158
315.435
315.71
316.069
316.149
316.406
316.505
316.742
316.882
317.105
317.174
317.166
317.142
317.118
316.807
316.844
316.608
316.431
316.151
316.027
311.783
311.965
312.179
312.495
312.523
312.715
312.821
313.024
313.133
313.252
313.325
313.306
313.326
313.321
313.026
313.074
312.918
312.767
312.556
312.48
308.417
308.521
308.674
308.954
308.966
309.025
309.157
309.253
309.373
309.447
309.496
309.456
309.508
309.51
309.274
309.322
309.239
309.099
308.934
308.932
305.06
305.083
305.179
305.373
305.37
305.407
305.479
305.552
305.621
305.667
305.674
305.649
305.732
305.713
305.531
305.541
305.561
305.446
305.355
305.386
301.697
301.681
301.738
301.795
301.791
301.813
301.814
301.867
301.866
301.926
301.903
301.893
301.933
301.913
301.861
301.839
301.883
301.84
301.79
301.811
325.864
326.414
326.913
327.46
327.898
328.408
329.088
329.074
329.323
329.564
329.913
329.611
329.343
329.539
329.515
328.9
328.698
328.199
327.702
327.325
322.34
322.823
323.198
323.756
324.054
324.532
325.137
325.085
325.305
325.566
325.833
325.537
325.379
325.507
325.46
324.934
324.804
324.343
323.887
323.595
318.838
319.244
319.537
320.053
320.289
320.703
321.192
321.179
321.359
321.597
321.807
321.547
321.468
321.528
321.473
321.04
320.924
320.558
320.112
319.915
315.385
315.715
315.974
316.408
316.531
316.893
317.322
317.264
317.401
317.64
317.805
317.557
317.533
317.623
317.541
317.171
317.1
316.787
316.39
316.312
311.966
312.182
312.41
312.75
312.846
313.138
313.437
313.372
313.503
313.671
313.832
313.593
313.663
313.7
313.605
313.367
313.283
313.096
312.681
312.705
308.504
308.668
308.848
309.095
309.164
309.35
309.609
309.523
309.596
309.733
309.846
309.678
309.79
309.769
309.705
309.566
309.468
309.413
309.02
309.073
305.1
305.177
305.328
305.464
305.503
305.588
305.754
305.714
305.731
305.819
305.85
305.806
305.889
305.869
305.828
305.755
305.666
305.656
305.429
305.463
301.711
301.698
301.788
301.818
301.847
301.863
301.916
301.929
301.925
301.936
301.943
301.936
301.959
301.968
301.944
301.925
301.912
301.906
301.815
301.841
326.115
326.654
327.314
327.99
328.542
328.95
329.386
329.73
330.011
330.225
330.357
330.271
330.182
330.056
330.012
329.497
329.287
328.997
328.322
327.993
322.59
323.022
323.542
324.164
324.573
325
325.357
325.649
325.889
326.102
326.238
326.116
326.062
325.913
325.94
325.442
325.306
325.033
324.466
324.208
319.053
319.444
319.853
320.376
320.694
321.118
321.368
321.619
321.841
322.018
322.172
322.017
321.969
321.831
321.917
321.393
321.364
321.1
320.643
320.41
315.551
315.861
316.223
316.62
316.905
317.273
317.424
317.598
317.821
318.024
318.093
317.95
317.938
317.829
317.938
317.429
317.412
317.198
316.857
316.672
312.087
312.333
312.602
312.901
313.156
313.431
313.522
313.658
313.831
314.013
314.043
313.953
313.935
313.857
313.94
313.499
313.502
313.326
313.132
312.977
308.617
308.781
309.054
309.215
309.391
309.596
309.639
309.788
309.869
309.989
309.994
309.935
309.953
309.898
309.978
309.599
309.621
309.497
309.361
309.295
305.16
305.255
305.44
305.526
305.634
305.78
305.786
305.912
305.897
305.984
306
305.946
306.005
305.952
306.027
305.746
305.772
305.704
305.618
305.559
301.729
301.737
301.823
301.867
301.879
301.93
301.908
301.982
301.96
302.026
302.025
301.996
302.009
301.978
302.021
301.922
301.923
301.911
301.898
301.866
326.677
327.299
327.883
328.485
329.003
329.521
329.992
330.339
330.617
330.657
330.715
330.897
330.726
330.751
330.558
330.093
329.799
329.457
329.096
328.652
323.098
323.565
324.063
324.604
325.002
325.44
325.875
326.196
326.385
326.487
326.533
326.699
326.526
326.534
326.358
325.973
325.72
325.385
325.165
324.753
319.519
319.911
320.242
320.734
321.042
321.409
321.789
322.072
322.246
322.397
322.398
322.558
322.371
322.338
322.275
321.904
321.703
321.412
321.235
320.906
315.892
316.302
316.512
316.91
317.143
317.462
317.766
318.026
318.191
318.291
318.295
318.459
318.296
318.233
318.212
317.877
317.715
317.516
317.341
317.083
312.3
312.695
312.77
313.136
313.309
313.577
313.836
314.004
314.153
314.217
314.19
314.359
314.249
314.123
314.176
313.855
313.757
313.575
313.439
313.294
308.757
309.086
309.13
309.384
309.509
309.702
309.881
310.046
310.142
310.144
310.1
310.253
310.206
310.046
310.116
309.884
309.792
309.66
309.576
309.483
305.235
305.464
305.452
305.651
305.712
305.807
305.968
306.054
306.1
306.087
306.054
306.144
306.133
305.987
306.098
305.897
305.913
305.793
305.762
305.684
301.756
301.822
301.818
301.895
301.928
301.921
301.993
302.045
302.038
302.035
302.027
302.04
302.046
301.986
302.037
301.974
301.994
301.909
301.937
301.905
327.089
327.581
328.281
328.896
329.427
329.95
330.56
330.499
330.976
331.221
331.155
331.184
331.211
331.316
331.013
330.646
330.452
330.126
329.493
328.911
323.416
323.832
324.389
324.976
325.385
325.846
326.369
326.277
326.777
326.914
326.885
326.91
326.963
327.035
326.726
326.454
326.319
325.995
325.475
324.986
319.783
320.143
320.583
321.097
321.427
321.754
322.218
322.121
322.618
322.701
322.658
322.685
322.734
322.814
322.534
322.311
322.245
321.968
321.527
321.076
316.153
316.45
316.784
317.228
317.474
317.754
318.107
318.044
318.473
318.538
318.455
318.472
318.539
318.56
318.429
318.199
318.128
317.956
317.577
317.228
312.571
312.788
313.038
313.405
313.554
313.782
314.074
314.016
314.36
314.389
314.31
314.363
314.373
314.4
314.354
314.152
314.015
313.954
313.689
313.39
308.969
309.143
309.32
309.592
309.651
309.814
310.053
310.01
310.264
310.255
310.236
310.27
310.269
310.245
310.238
310.113
309.935
309.968
309.831
309.58
305.373
305.507
305.592
305.776
305.77
305.882
306.003
306.05
306.173
306.139
306.137
306.182
306.161
306.121
306.195
306.084
305.941
305.978
305.91
305.773
301.786
301.855
301.862
301.963
301.922
301.952
302.021
302.027
302.062
302.057
302.054
302.075
302.06
302.053
302.08
302.067
301.967
302.006
301.982
301.922
327.391
327.862
328.463
329.242
329.795
330.099
330.488
330.693
331.427
331.408
331.267
331.518
331.493
331.686
331.319
330.959
330.781
330.325
329.734
329.27
323.625
324.066
324.569
325.239
325.716
325.939
326.292
326.433
327.091
327.122
327.005
327.182
327.137
327.336
327.031
326.715
326.514
326.161
325.672
325.258
319.921
320.295
320.73
321.267
321.664
321.871
322.142
322.228
322.826
322.901
322.78
322.872
322.842
323.062
322.806
322.517
322.319
322.084
321.664
321.26
316.216
316.582
316.953
317.351
317.681
317.849
318.04
318.137
318.647
318.67
318.61
318.63
318.634
318.798
318.573
318.373
318.199
318.016
317.67
317.309
312.578
312.869
313.17
313.434
313.755
313.842
313.958
314.029
314.474
314.47
314.421
314.44
314.445
314.587
314.386
314.241
314.078
313.968
313.7
313.449
308.965
309.159
309.407
309.598
309.818
309.891
309.947
310.022
310.313
310.313
310.299
310.315
310.288
310.387
310.259
310.164
309.993
309.992
309.755
309.595
305.366
305.528
305.64
305.762
305.894
305.94
305.92
305.998
306.192
306.19
306.186
306.204
306.171
306.257
306.14
306.069
305.975
306.021
305.848
305.755
301.794
301.841
301.875
301.934
301.956
301.989
301.985
301.992
302.087
302.084
302.052
302.07
302.053
302.11
302.062
302.011
301.992
302.036
301.951
301.926
)
;

boundaryField
{
    hotSide
    {
        type            fixedGradient;
        gradient        nonuniform List<scalar> 
400
(
160.846
170.357
179.881
189.376
198.798
208.103
217.248
226.186
234.874
243.268
251.324
259.001
266.259
273.059
279.367
285.149
290.375
295.019
299.055
302.466
163.746
173.583
183.439
193.269
203.03
212.675
222.158
231.434
240.455
249.177
257.554
265.543
273.102
280.192
286.776
292.819
298.29
303.16
307.406
311.005
166.258
176.401
186.567
196.713
206.792
216.758
226.561
236.155
245.492
254.523
263.204
271.49
279.336
286.702
293.549
299.841
305.546
310.634
315.08
318.862
168.39
178.815
189.271
199.71
210.085
220.348
230.45
240.341
249.972
259.294
268.26
276.823
284.938
292.563
299.658
306.186
312.112
317.407
322.043
325.999
170.152
180.836
191.555
202.263
212.91
223.446
233.822
243.987
253.889
263.479
272.708
281.527
289.891
297.757
305.082
311.828
317.961
323.449
328.264
332.382
171.556
182.473
193.429
204.379
215.27
226.054
236.677
247.089
257.237
267.07
276.537
285.59
294.181
302.265
309.801
316.747
323.069
328.734
333.714
337.983
172.616
183.737
194.902
206.065
217.172
228.174
239.017
249.647
260.013
270.061
279.741
289.002
297.795
306.075
313.798
320.924
327.416
333.24
338.367
342.773
173.345
184.639
195.984
207.328
218.621
229.81
240.841
251.661
262.215
272.449
282.312
291.753
300.722
309.172
317.058
324.341
330.981
336.945
342.203
346.729
173.753
185.19
196.682
208.176
219.622
230.966
242.153
253.129
263.839
274.229
284.245
293.836
302.952
311.544
319.569
326.983
333.749
339.831
345.2
349.828
173.851
185.398
197.003
208.614
220.179
231.644
242.953
254.052
264.884
275.396
285.533
295.243
304.475
313.181
321.316
328.836
335.702
341.88
347.339
352.051
173.645
185.268
196.952
208.645
220.294
231.844
243.239
254.425
265.346
275.945
286.17
295.966
305.283
314.072
322.287
329.885
336.827
343.077
348.603
353.379
173.139
184.804
196.532
208.27
219.966
231.564
243.01
254.247
265.219
275.871
286.148
295.997
305.366
314.206
322.472
330.12
337.109
343.406
348.977
353.795
172.335
184.005
195.74
207.487
219.193
230.803
242.261
253.512
264.499
275.167
285.461
295.327
304.714
313.574
321.859
329.527
336.537
342.854
348.447
353.286
171.23
182.87
194.575
206.294
217.972
229.555
240.988
252.215
263.179
273.826
284.1
293.949
303.32
312.166
320.44
328.098
335.101
341.413
347.002
351.841
169.82
181.394
193.032
204.684
216.296
227.814
239.184
250.348
261.252
271.841
282.059
291.855
301.177
309.976
318.206
325.824
332.792
339.072
344.635
349.451
168.099
179.569
191.103
202.651
214.16
225.575
236.842
247.907
258.713
269.206
279.333
289.04
298.278
306.997
315.153
322.703
329.607
335.83
341.341
346.114
166.058
177.389
188.783
200.189
211.556
222.83
233.958
244.885
255.557
265.918
275.917
285.502
294.622
303.23
311.28
318.732
325.545
331.686
337.123
341.831
163.691
174.846
186.063
197.291
208.48
219.577
230.528
241.281
251.781
261.976
271.813
281.24
290.21
298.675
306.591
313.916
320.613
326.647
331.988
336.61
160.988
171.934
182.939
193.954
204.928
215.811
226.551
237.094
247.389
257.382
267.023
276.261
285.05
293.342
301.094
308.266
314.821
320.725
325.949
330.467
157.944
168.647
179.406
190.174
200.9
211.536
222.029
232.329
242.384
252.143
261.557
270.576
279.153
287.244
294.806
301.8
308.189
313.942
319.028
323.424
)
;
    }
    coldSide
    {
        type            mixed;
        refValue        uniform 300;
        refGradient     uniform 0;
        valueFraction   uniform 0.991591;
        source          uniform 0;
        value           nonuniform List<scalar> 
400
(
300.008
300.008
300.009
300.01
300.01
300.01
300.011
300.011
300.012
300.012
300.012
300.013
300.013
300.014
300.014
300.014
300.015
300.015
300.015
300.015
300.008
300.009
300.009
300.009
300.01
300.01
300.011
300.011
300.012
300.012
300.013
300.013
300.013
300.014
300.014
300.014
300.015
300.015
300.016
300.015
300.008
300.008