/*--------------------------------*- C++ -*----------------------------------*\
| =========                 |                                                 |
| \\      /  F ield         | OpenFOAM: The Open Source CFD Toolbox           |
|  \\    /   O peration     | Version:  2212                                  |
|   \\  /    A nd           | Website:  www.openfoam.com                      |
|    \\/     M anipulation  |                                                 |
\*---------------------------------------------------------------------------*/
FoamFile
{
    version     2.0;
    format      ascii;
    arch        "LSB;label=32;scalar=64";
    class       volScalarField;
    location    "./ITHACAoutput/true/11.2";
    object      error;
}
// * * * * * * * * * * * * * * * * * * * * * * * * * * * * * * * * * * * * * //

dimensions      [0 0 0 1 0 0 0];

internalField   nonuniform List<scalar> 
3200
(
-2.64114
-1.52047
-0.671085
-0.0724566
0.183749
0.279471
0.114169
-0.0317557
-0.22332
-0.346573
-0.561367
-0.708379
-0.942081
-1.0841
-1.27098
-1.47043
-1.89258
-2.50656
-3.50821
-4.48093
-2.34092
-1.39316
-0.591138
-0.142239
0.0687918
0.18254
0.0693711
-0.0321044
-0.322647
-0.455287
-0.597868
-0.748407
-0.893487
-1.06788
-1.14945
-1.29721
-1.73417
-2.25969
-2.99611
-3.82686
-1.9392
-1.15925
-0.533346
-0.110828
0.0669625
0.109035
0.0693511
-0.0619107
-0.214712
-0.393914
-0.514164
-0.699941
-0.782522
-0.851929
-0.943983
-1.12875
-1.41399
-1.93538
-2.52394
-3.26988
-1.57214
-1.08087
-0.497117
-0.136405
0.00616217
0.0807422
0.00205003
-0.106827
-0.229443
-0.250889
-0.473539
-0.523434
-0.618445
-0.7295
-0.809838
-0.984464
-1.06302
-1.49611
-2.07408
-2.68179
-1.35899
-0.880923
-0.491932
-0.162136
0.0433915
0.0201175
-0.0437969
-0.0785793
-0.178649
-0.23475
-0.405678
-0.446732
-0.480847
-0.568267
-0.68321
-0.702619
-0.993106
-1.20183
-1.64789
-1.96081
-0.864298
-0.639483
-0.24186
-0.0805882
-0.0293209
-0.0463105
0.0113663
-0.123947
-0.163002
-0.17521
-0.200196
-0.33526
-0.359106
-0.465459
-0.435897
-0.516597
-0.585584
-0.840577
-1.13978
-1.54769
-0.57724
-0.362678
-0.177859
0.00361931
-0.00707275
-0.0147554
-0.113663
-0.0842389
-0.0858394
-0.0552937
-0.138725
-0.241384
-0.236578
-0.29671
-0.334123
-0.279892
-0.382045
-0.563767
-0.688614
-0.884878
-0.192385
-0.0841876
-0.0816294
-0.0317145
0.0582447
0.0326134
-0.0179078
-0.00401958
-0.0344355
-0.101745
-0.0586825
-0.0832298
-0.0518291
-0.0695457
-0.0257905
-0.166859
-0.0755047
-0.104423
-0.214729
-0.381715
-2.67726
-1.62279
-0.652532
-0.126017
0.12798
0.0120587
0.02654
-0.210051
-0.382118
-0.637251
-0.867928
-1.02765
-1.21332
-1.3922
-1.49105
-1.65553
-1.96788
-2.63338
-3.49063
-4.49051
-2.29854
-1.4355
-0.664963
-0.163979
0.0580504
0.0509188
-0.0783075
-0.241012
-0.447204
-0.60531
-0.806582
-0.959698
-1.05221
-1.19791
-1.29145
-1.50906
-1.74004
-2.26869
-2.98893
-3.87324
-1.97746
-1.35402
-0.649238
-0.191206
0.00718751
-0.0439262
-0.0750041
-0.293068
-0.407296
-0.526559
-0.678573
-0.859987
-0.954901
-0.987443
-1.16432
-1.19722
-1.40482
-1.90366
-2.60211
-3.29605
-1.62654
-1.02179
-0.505802
-0.139098
-0.0490275
0.00520681
-0.067975
-0.211056
-0.417
-0.508407
-0.621144
-0.699884
-0.823043
-0.84777
-0.882933
-1.06572
-1.1964
-1.61309
-2.03561
-2.61519
-1.2246
-0.875712
-0.476331
-0.138985
-0.0439473
-0.0699034
-0.0593489
-0.180057
-0.322562
-0.377374
-0.515354
-0.52639
-0.63835
-0.687231
-0.760113
-0.716297
-0.933318
-1.23744
-1.70775
-2.06582
-0.848257
-0.65983
-0.363102
-0.12582
-0.0826187
-0.105491
-0.116036
-0.185196
-0.274907
-0.275081
-0.367487
-0.41571
-0.444801
-0.541796
-0.506943
-0.623249
-0.678401
-0.819232
-1.1771
-1.45583
-0.563159
-0.266065
-0.145564
-0.0426668
-0.117324
-0.0580647
-0.0425534
-0.108317
-0.081561
-0.160365
-0.293455
-0.228571
-0.229877
-0.279526
-0.27005
-0.367212
-0.366873
-0.490322
-0.744002
-0.907815
-0.123163
-0.149131
-0.0738763
-0.0932203
-0.101847
-0.00723123
0.020437
-0.0257259
-0.0682664
-0.0783709
-0.0669641
-0.0807813
-0.101407
-0.135558
-0.109894
-0.143762
-0.0856843
-0.166824
-0.216163
-0.244519
-2.72415
-1.68046
-0.821302
-0.331593
-0.138739
-0.13519
-0.304398
-0.538232
-0.784479
-1.0961
-1.38926
-1.41742
-1.57256
-1.69987
-1.8003
-1.89174
-2.30812
-2.68322
-3.65401
-4.61186
-2.37142
-1.54114
-0.838671
-0.325831
-0.220998
-0.137857
-0.331309
-0.495783
-0.816199
-0.95149
-1.2138
-1.39641
-1.3859
-1.44242
-1.50349
-1.63642
-1.90384
-2.44013
-3.17623
-3.87089
-2.00388
-1.31605
-0.716806
-0.361527
-0.147711
-0.217864
-0.255676
-0.491665
-0.637277
-0.925142
-1.04229
-1.21123
-1.28816
-1.27432
-1.32213
-1.41893
-1.60961
-2.04741
-2.57837
-3.2696
-1.65471
-1.16833
-0.706512
-0.278914
-0.154565
-0.112865
-0.204929
-0.398381
-0.576993
-0.677488
-0.927157
-0.979787
-0.999704
-0.983362
-1.11676
-1.13559
-1.34079
-1.62907
-2.16941
-2.69844
-1.27312
-0.876165
-0.447387
-0.284916
-0.139306
-0.184575
-0.205961
-0.378864
-0.495765
-0.646058
-0.720584
-0.767723
-0.85771
-0.836274
-0.856078
-0.882359
-1.09397
-1.27936
-1.64286
-2.11911
-0.899876
-0.671558
-0.364008
-0.156121
-0.0456959
-0.211853
-0.163112
-0.280455
-0.339411
-0.474705
-0.518938
-0.542044
-0.592843
-0.632032
-0.608928
-0.617714
-0.74294
-0.903043
-1.26124
-1.54874
-0.478053
-0.424862
-0.178062
-0.134339
-0.0191147
-0.0912029
-0.113499
-0.227095
-0.169658
-0.261284
-0.276572
-0.331728
-0.351863
-0.36614
-0.405455
-0.405052
-0.456911
-0.611224
-0.681247
-0.830418
-0.262068
-0.172135
-0.0153331
0.0301174
-0.0961772
-0.0812161
-0.0545985
-0.0293524
-0.0804396
0.0230812
-0.131598
-0.105319
-0.184922
-0.103225
-0.0904494
-0.168047
-0.130294
-0.232008
-0.2439
-0.255206
-2.78669
-1.89015
-1.00668
-0.476425
-0.354465
-0.447534
-0.626048
-0.961881
-1.19799
-1.58792
-1.78648
-2.04176
-2.14653
-2.10835
-2.08942
-2.23019
-2.42357
-2.85011
-3.76513
-4.60447
-2.4692
-1.69489
-0.963414
-0.580358
-0.375754
-0.434816
-0.588174
-0.915299
-1.1097
-1.43115
-1.64209
-1.73743
-1.86553
-1.89428
-1.85502
-1.90117
-2.0557
-2.61701
-3.2706
-3.95551
-2.10686
-1.4785
-0.834535
-0.556786
-0.362679
-0.457067
-0.6328
-0.774555
-1.03405
-1.29321
-1.44999
-1.56978
-1.63371
-1.58348
-1.6017
-1.72184
-1.85168
-2.1894
-2.74456
-3.4443
-1.8045
-1.21082
-0.774013
-0.441644
-0.358355
-0.348454
-0.489725
-0.64328
-0.841572
-1.00344
-1.17503
-1.3284
-1.36186
-1.38321
-1.37176
-1.37706
-1.47376
-1.78176
-2.32846
-2.77904
-1.34825
-0.95885
-0.592143
-0.376015
-0.296214
-0.244012
-0.409196
-0.566603
-0.648756
-0.802898
-0.973285
-0.990239
-1.0989
-1.04605
-1.04268
-0.947006
-1.18872
-1.34024
-1.71334
-2.17401
-1.00596
-0.678013
-0.473758
-0.322346
-0.183772
-0.192592
-0.189165
-0.38099
-0.456839
-0.616831
-0.692723
-0.690935
-0.735608
-0.856274
-0.701661
-0.709728
-0.869324
-0.999549
-1.28097
-1.55142
-0.572186
-0.433273
-0.298215
-0.136656
-0.140023
-0.195804
-0.128696
-0.192263
-0.29557
-0.30796
-0.45686
-0.377607
-0.503472
-0.465036
-0.495206
-0.506358
-0.558233
-0.60398
-0.758717
-0.90568
-0.175677
-0.121614
-0.140157
-0.009702
-0.101191
-0.0563093
-0.0937368
-0.132538
-0.118329
-0.161461
-0.108463
-0.100924
-0.147298
-0.197966
-0.175481
-0.0800533
-0.117288
-0.316408
-0.243885
-0.262238
-3.04147
-2.1009
-1.38059
-0.949757
-0.761124
-0.888665
-1.06765
-1.36346
-1.81138
-2.17396
-2.41335
-2.57172
-2.64065
-2.47574
-2.4665
-2.47856
-2.75417
-3.15341
-3.86693
-4.93048
-2.69951
-1.80423
-1.21003
-0.860004
-0.665649
-0.731949
-0.99912
-1.28426
-1.58387
-1.89214
-2.21112
-2.33798
-2.27438
-2.16656
-2.17185
-2.17446
-2.39947
-2.88352
-3.38488
-4.21409
-2.32162
-1.601
-1.07327
-0.738932
-0.632974
-0.731138
-0.813893
-1.08284
-1.40898
-1.68542
-1.7898
-2.00411
-1.93252
-2.00216
-1.85335
-1.94113
-2.09505
-2.39131
-2.94424
-3.53342
-1.84898
-1.33485
-0.900305
-0.615473
-0.524006
-0.598448
-0.758629
-0.908229
-1.16176
-1.37675
-1.5845
-1.64523
-1.66112
-1.656
-1.59008
-1.59406
-1.6619
-2.00323
-2.39765
-2.92277
-1.4536
-1.0464
-0.734139
-0.472704
-0.467306
-0.476012
-0.586906
-0.746383
-0.957773
-1.09373
-1.2692
-1.32364
-1.28456
-1.30529
-1.14959
-1.21045
-1.35407
-1.56109
-1.82356
-2.15147
-1.07953
-0.779295
-0.512834
-0.354883
-0.402927
-0.381951
-0.479268
-0.542659
-0.558764
-0.77765
-0.806998
-0.973383
-0.94217
-0.87656
-0.876955
-0.893753
-0.941591
-1.05156
-1.32698
-1.58856
-0.668055
-0.522692
-0.281017
-0.264152
-0.080464
-0.184715
-0.286933
-0.30759
-0.3816
-0.495168
-0.49583
-0.569479
-0.561319
-0.577113
-0.599419
-0.482567
-0.55294
-0.632088
-0.828693
-0.920616
-0.170282
-0.211284
-0.110559
-0.0516871
-0.0112605
-0.114839
-0.157481
-0.108989
-0.137503
-0.135642
-0.153485
-0.200606
-0.157241
-0.177084
-0.19314
-0.187013
-0.250577
-0.23746
-0.27887
-0.227894
-3.18611
-2.39389
-1.62946
-1.15094
-1.12657
-1.22647
-1.45092
-1.8535
-2.26569
-2.72491
-2.95055
-3.09194
-3.19438
-3.09189
-2.9468
-2.95169
-3.09492
-3.50128
-4.21841
-5.06534
-2.86354
-2.1045
-1.53553
-1.0693
-0.973062
-1.07946
-1.3259
-1.72887
-2.108
-2.42047
-2.67327
-2.85185
-2.7348
-2.72439
-2.55145
-2.50263
-2.662
-3.1259
-3.63445
-4.39096
-2.43914
-1.85948
-1.29644
-1.0304
-0.862618
-0.959622
-1.1695
-1.45474
-1.75819
-2.05408
-2.28264
-2.31683
-2.3414
-2.27596
-2.20209
-2.23934
-2.30374
-2.58683
-3.16564
-3.74959
-2.08467
-1.54651
-1.15896
-0.862372
-0.825748
-0.816578
-1.00435
-1.28664
-1.48631
-1.78516
-1.86435
-1.95615
-2.01199
-1.93424
-1.69809
-1.78676
-1.848
-2.09965
-2.56166
-2.9536
-1.55496
-1.14791
-0.977959
-0.755849
-0.707237
-0.7177
-0.811303
-1.0133
-1.20919
-1.40159
-1.56624
-1.57408
-1.52662
-1.49337
-1.42275
-1.49629
-1.4791
-1.68444
-2.05513
-2.381
-1.1803
-0.950931
-0.658498
-0.480472
-0.438253
-0.508876
-0.578911
-0.699532
-0.900499
-0.970016
-1.08875
-1.11277
-1.09477
-0.988579
-1.05818
-0.915186
-1.14192
-1.18196
-1.35437
-1.70301
-0.713048
-0.58107
-0.409504
-0.34898
-0.306883
-0.397221
-0.443133
-0.514657
-0.590065
-0.557095
-0.59519
-0.648418
-0.616214
-0.705686
-0.636421
-0.655394
-0.612843
-0.650195
-0.891672
-1.02371
-0.249388
-0.159091
-0.0783185
-0.135653
-0.0471905
-0.0208333
-0.0538087
-0.15852
-0.157541
-0.191293
-0.198972
-0.217849
-0.235825
-0.250849
-0.262634
-0.188334
-0.250444
-0.213463
-0.227019
-0.349672
-3.54439
-2.60055
-2.03561
-1.61507
-1.49085
-1.62278
-1.9263
-2.31552
-2.75256
-3.20158
-3.57583
-3.67811
-3.6765
-3.56017
-3.39798
-3.29201
-3.3941
-3.81273
-4.48353
-5.17162
-3.11316
-2.39549
-1.82945
-1.43709
-1.40178
-1.46259
-1.69436
-2.072
-2.57429
-2.86335
-3.08099
-3.24537
-3.22793
-3.10397
-2.97599
-2.90949
-3.0565
-3.30106
-3.85637
-4.56585
-2.66347
-2.15062
-1.5859
-1.21643
-1.24899
-1.31072
-1.49535
-1.78701
-2.16783
-2.45935
-2.73043
-2.7393
-2.75552
-2.60665
-2.58589
-2.50458
-2.57996
-2.82184
-3.25587
-3.86735
-2.19006
-1.71302
-1.35861
-1.08073
-1.04247
-1.07384
-1.2361
-1.575
-1.7134
-2.05714
-2.21887
-2.31493
-2.21808
-2.20517
-2.0674
-1.9975
-2.09156
-2.39359
-2.71432
-3.10752
-1.73932
-1.44542
-1.05878
-0.832736
-0.786231
-0.884209
-1.02795
-1.15433
-1.36086
-1.61792
-1.70942
-1.84119
-1.73912
-1.75706
-1.61264
-1.59491
-1.64934
-1.73175
-2.14093
-2.46399
-1.25553
-1.02205
-0.785054
-0.607176
-0.560847
-0.59296
-0.748282
-0.907415
-1.11416
-1.16287
-1.2245
-1.30847
-1.25382
-1.23236
-1.12872
-1.16609
-1.21683
-1.31665
-1.44226
-1.75433
-0.748359
-0.553566
-0.479922
-0.419473
-0.396411
-0.344508
-0.527592
-0.649326
-0.56403
-0.737664
-0.718282
-0.881342
-0.728299
-0.712788
-0.721976
-0.755954
-0.72365
-0.767783
-0.87949
-1.05786
-0.28223
-0.238204
-0.0451321
-0.153202
-0.168875
-0.10762
-0.186974
-0.13188
-0.195533
-0.260566
-0.319891
-0.200467
-0.284841
-0.279773
-0.178691
-0.369384
-0.296314
-0.270866
-0.331663
-0.380999
-3.77466
-2.9837
-2.33049
-1.8986
-1.73042
-1.99099
-2.38196
-2.82493
-3.27495
-3.72459
-4.0782
-4.21487
-4.1632
-3.91747
-3.77309
-3.59364
-3.67895
-4.10015
-4.69813
-5.39509
-3.28764
-2.62596
-2.08735
-1.80175
-1.70528
-1.79746
-2.05509
-2.42203
-2.92314
-3.28605
-3.59214
-3.62389
-3.57308
-3.41594
-3.35343
-3.15964
-3.27007
-3.53185
-4.04472
-4.69174
-2.78626
-2.36536
-1.82884
-1.51943
-1.45737
-1.55585
-1.82609
-2.13163
-2.53985
-2.74129
-3.05284
-3.12611
-3.0883
-2.94542
-2.84118
-2.81411
-2.82131
-3.06099
-3.5379
-4.06049
-2.37219
-1.94619
-1.50681
-1.25701
-1.1937
-1.28014
-1.44721
-1.85495
-2.14081
-2.36205
-2.50713
-2.63752
-2.57852
-2.42894
-2.3759
-2.17149
-2.30571
-2.50417
-2.78652
-3.21076
-1.78645
-1.48537
-1.22371
-1.05612
-0.92009
-1.08638
-1.20054
-1.40968
-1.6758
-1.84532
-1.99498
-2.04385
-2.08632
-1.9323
-1.7547
-1.76157
-1.77609
-1.90054
-2.22172
-2.54346
-1.2993
-1.18928
-0.862758
-0.765651
-0.704824
-0.790118
-0.901252
-1.01735
-1.23227
-1.29966
-1.42388
-1.45857
-1.4251
-1.4275
-1.2523
-1.19541
-1.34242
-1.51483
-1.5919
-1.7852
-0.797639
-0.603496
-0.487766
-0.436233
-0.524269
-0.475985
-0.521258
-0.598992
-0.710672
-0.832975
-0.818227
-0.876758
-0.849436
-0.781091
-0.784334
-0.78417
-0.742604
-0.987548
-1.02278
-1.05429
-0.273914
-0.243035
-0.215277
-0.178458
-0.112598
-0.0911755
-0.164923
-0.194196
-0.266252
-0.231031
-0.222677
-0.229533
-0.243519
-0.325858
-0.24281
-0.293259
-0.260471
-0.34169
-0.27111
-0.410661
-3.99927
-3.30701
-2.59979
-2.2702
-2.13395
-2.28098
-2.59841
-3.09337
-3.66974
-4.17494
-4.38337
-4.47981
-4.51009
-4.23375
-4.06695
-3.89844
-4.0079
-4.26055
-4.84989
-5.50564
-3.5412
-2.87481
-2.38933
-2.07243
-1.89172
-2.05736
-2.30648
-2.75338
-3.24179
-3.5327
-3.85126
-4.02841
-3.85308
-3.7785
-3.47935
-3.43598
-3.49995
-3.79691
-4.2967
-4.93518
-3.04319
-2.58032
-2.05303
-1.80316
-1.67029
-1.79551
-2.09974
-2.4307
-2.80297
-3.14428
-3.29558
-3.42102
-3.39842
-3.184
-3.02852
-2.90805
-2.97678
-3.23784
-3.58486
-4.10784
-2.52015
-2.11589
-1.70478
-1.53101
-1.41362
-1.51342
-1.7153
-1.96636
-2.23554
-2.61468
-2.72181
-2.83266
-2.79151
-2.6248
-2.47863
-2.40819
-2.48055
-2.62466
-2.96136
-3.39707
-2.00414
-1.70082
-1.43111
-1.18958
-1.14328
-1.29998
-1.3158
-1.55162
-1.80589
-1.98168
-2.14116
-2.25524
-2.19969
-2.15063
-1.95859
-1.8989
-1.92178
-2.05246
-2.26639
-2.65706
-1.42539
-1.21618
-0.941261
-0.895033
-0.873662
-0.939223
-1.02934
-1.19905
-1.33681
-1.46525
-1.51135
-1.66071
-1.53786
-1.48784
-1.43217
-1.30833
-1.37371
-1.54162
-1.68478
-1.89089
-0.844065
-0.679289
-0.572947
-0.553744
-0.521283
-0.582634
-0.572493
-0.611722
-0.835618
-0.867542
-0.916031
-1.01989
-0.912603
-0.843823
-0.850185
-0.822341
-0.924068
-0.821445
-1.02601
-1.06637
-0.253055
-0.237937
-0.150466
-0.177231
-0.13304
-0.161073
-0.143967
-0.177908
-0.295914
-0.163942
-0.339723
-0.316773
-0.381885
-0.346635
-0.18288
-0.250625
-0.299395
-0.357279
-0.391594
-0.33215
-4.22046
-3.47543
-2.89205
-2.52463
-2.40198
-2.56892
-2.8838
-3.41444
-3.82851
-4.36705
-4.69215
-4.79967
-4.61932
-4.46981
-4.29857
-4.13273
-4.16121
-4.31376
-4.9565
-5.68546
-3.74248
-3.14194
-2.56354
-2.2442
-2.23249
-2.27933
-2.63296
-3.04173
-3.44613
-3.88091
-4.15608
-4.19511
-4.17779
-3.8894
-3.75585
-3.59169
-3.68207
-3.97292
-4.3549
-4.88245
-3.27616
-2.75462
-2.19726
-2.01873
-1.88867
-2.05692
-2.29118
-2.59307
-2.96296
-3.3029
-3.46773
-3.57167
-3.57047
-3.40161
-3.21375
-3.08976
-3.09551
-3.32004
-3.7954
-4.25053
-2.59791
-2.26839
-1.93472
-1.72567
-1.61658
-1.74895
-1.93981
-2.18169
-2.42602
-2.78172
-2.94326
-2.9352
-2.87327
-2.81587
-2.61034
-2.49998
-2.55721
-2.69874
-3.04234
-3.50462
-2.09196
-1.83239
-1.49362
-1.3607
-1.3378
-1.42198
-1.51239
-1.74583
-1.92969
-2.18176
-2.29801
-2.31181
-2.31654
-2.10739
-2.14252
-1.97012
-1.97531
-2.16502
-2.42649
-2.68401
-1.49858
-1.36857
-1.06361
-0.954332
-0.843306
-1.01194
-1.11164
-1.2529
-1.40172
-1.49855
-1.6487
-1.66437
-1.62628
-1.54875
-1.51367
-1.40353
-1.44988
-1.57495
-1.75585
-1.91394
-0.914683
-0.74541
-0.673291
-0.554648
-0.580287
-0.555678
-0.580133
-0.798275
-0.839193
-0.977646
-0.995798
-1.02796
-0.9937
-0.915247
-0.928103
-0.901685
-0.830116
-0.905151
-1.05733
-1.13944
-0.336807
-0.307358
-0.239238
-0.194325
-0.19582
-0.193777
-0.234772
-0.329352
-0.306736
-0.319205
-0.31541
-0.247964
-0.337514
-0.270827
-0.354953
-0.277564
-0.228229
-0.290978
-0.375089
-0.431894
-4.35498
-3.71641
-3.02635
-2.85159
-2.65763
-2.73983
-3.18273
-3.54974
-4.05852
-4.57408
-4.82132
-4.88705
-4.78365
-4.53224
-4.34423
-4.12673
-4.23683
-4.47033
-5.08372
-5.61004
-3.75583
-3.28324
-2.74788
-2.54187
-2.373
-2.56069
-2.78612
-3.23552
-3.57661
-3.94965
-4.26188
-4.24763
-4.17889
-3.99848
-3.76102
-3.7124
-3.77692
-3.93681
-4.3839
-4.97154
-3.27051
-2.83563
-2.32294
-2.17171
-2.12837
-2.26067
-2.35734
-2.6981
-3.09654
-3.4235
-3.53613
-3.76686
-3.67292
-3.4363
-3.30432
-3.18688
-3.15579
-3.46375
-3.82276
-4.16597
-2.75438
-2.27518
-1.95905
-1.82303
-1.74416
-1.80574
-1.97129
-2.28479
-2.56186
-2.80733
-2.99037
-3.04557
-3.00678
-2.87686
-2.68121
-2.59504
-2.60464
-2.88014
-3.1341
-3.48399
-2.13018
-1.78566
-1.61106
-1.4507
-1.35661
-1.48348
-1.58269
-1.80509
-2.05141
-2.24876
-2.36632
-2.3253
-2.33041
-2.18367
-2.0996
-2.07321
-2.13189
-2.17398
-2.42286
-2.64261
-1.54481
-1.37884
-1.13898
-1.05406
-0.94233
-1.06717
-1.18896
-1.30154
-1.48073
-1.60601
-1.68131
-1.71937
-1.71796
-1.60181
-1.50781
-1.4569
-1.47463
-1.64909
-1.74695
-1.92262
-0.95866
-0.808476
-0.696119
-0.628012
-0.558269
-0.62091
-0.646817
-0.82697
-0.86733
-0.990254
-0.977589
-1.07327
-1.00023
-0.922487
-0.930959
-0.936767
-0.946971
-0.886081
-1.0854
-1.17477
-0.3422
-0.302943
-0.222654
-0.251503
-0.190648
-0.241829
-0.305836
-0.325082
-0.305183
-0.25796
-0.326198
-0.367837
-0.379076
-0.411035
-0.338537
-0.34214
-0.309614
-0.325107
-0.351402
-0.369125
-4.44048
-3.74285
-3.1916
-2.82754
-2.81371
-2.8969
-3.16203
-3.54871
-4.11097
-4.46217
-4.72077
-4.81477
-4.68964
-4.61716
-4.34943
-4.22962
-4.22121
-4.49762
-5.11757
-5.58816
-3.84047
-3.29663
-2.8711
-2.54821
-2.47256
-2.68473
-2.82536
-3.17603
-3.59115
-3.99123
-4.22947
-4.33893
-4.20491
-4.00377
-3.89646
-3.75835
-3.82589
-3.95064
-4.4396
-4.91518
-3.35669
-2.8422
-2.51312
-2.25541
-2.2623
-2.22236
-2.56861
-2.79645
-3.15447
-3.40054
-3.62497
-3.71673
-3.63515
-3.47439
-3.20532
-3.13865
-3.24907
-3.42075
-3.75885
-4.23546
-2.78691
-2.44578
-2.10325
-1.94644
-1.74237
-1.98152
-2.16423
-2.34763
-2.59604
-2.92722
-2.99865
-3.02907
-2.97063
-2.8808
-2.71017
-2.54409
-2.60418
-2.81511
-3.08083
-3.43673
-2.18688
-1.88928
-1.65414
-1.42612
-1.37232
-1.54394
-1.63414
-1.9104
-2.08773
-2.15744
-2.33588
-2.46121
-2.2668
-2.23282
-2.12929
-2.01671
-2.02387
-2.21779
-2.48295
-2.59652
-1.52537
-1.4186
-1.14132
-1.03983
-1.05809
-1.06638
-1.14644
-1.43673
-1.4363
-1.56847
-1.69716
-1.73378
-1.67593
-1.6322
-1.59168
-1.58306
-1.45017
-1.63069
-1.72087
-1.88631
-0.986365
-0.810423
-0.721743
-0.737604
-0.67273
-0.723287
-0.737675
-0.772713
-0.888409
-0.939971
-1.00486
-1.03417
-1.03513
-0.98372
-0.892256
-0.90618
-0.913551
-0.933163
-0.990545
-1.06462
-0.352684
-0.21714
-0.238757
-0.214655
-0.192128
-0.177309
-0.270148
-0.308276
-0.289183
-0.309238
-0.389733
-0.338348
-0.359618
-0.288307
-0.319646
-0.322237
-0.361171
-0.274144
-0.383055
-0.388978
-4.33856
-3.81425
-3.2577
-2.91735
-2.74279
-2.94621
-3.09438
-3.47969
-3.95177
-4.40063
-4.55294
-4.68265
-4.55805
-4.40582
-4.24057
-4.15639
-4.19786
-4.40551
-4.92682
-5.56007
-3.87382
-3.41506
-2.88429
-2.61226
-2.4341
-2.67955
-2.86575
-3.17724
-3.57417
-3.8015
-4.05061
-4.18
-4.1412
-3.86058
-3.74761
-3.66946
-3.66996
-3.88068
-4.35479
-4.83539
-3.29111
-2.92591
-2.54301
-2.34067
-2.17662
-2.29896
-2.45263
-2.79431
-3.09246
-3.30212
-3.50148
-3.50555
-3.45081
-3.30452
-3.14348
-3.12378
-3.12459
-3.33627
-3.64983
-4.09319
-2.76111
-2.44697
-2.0621
-1.90642
-1.86296
-1.86889
-2.16086
-2.32352
-2.52391
-2.80605
-2.91686
-2.96337
-2.86821
-2.77726
-2.71019
-2.53887
-2.62214
-2.73728
-3.05282
-3.35999
-2.16805
-1.95292
-1.68059
-1.48689
-1.49503
-1.4976
-1.67216
-1.86612
-2.00875
-2.14507
-2.23524
-2.34716
-2.27306
-2.15993
-2.11243
-1.98115
-1.97881
-2.17745
-2.35188
-2.69832
-1.59748
-1.37205
-1.18439
-1.05163
-1.04711
-1.05283
-1.15814
-1.3268
-1.49711
-1.61492
-1.67588
-1.66439
-1.66067
-1.54789
-1.44369
-1.36471
-1.48615
-1.57928
-1.69979
-1.94
-0.935346
-0.900849
-0.687449
-0.675005
-0.659412
-0.694001
-0.807321
-0.765655
-0.801708
-0.893456
-0.968315
-1.02091
-0.92832
-0.974531
-0.899974
-0.835234
-0.847759
-0.943707
-1.02882
-1.14735
-0.236946
-0.233565
-0.163227
-0.242052
-0.256455
-0.275672
-0.338024
-0.297953
-0.322063
-0.27943
-0.328105
-0.393051
-0.295907
-0.36611
-0.323395
-0.267845
-0.324726
-0.352538
-0.338326
-0.418465
-4.36078
-3.70289
-3.22162
-2.87965
-2.78921
-2.79602
-3.02968
-3.40352
-3.73783
-4.10523
-4.33619
-4.37241
-4.41159
-4.08712
-4.08443
-3.87094
-3.96821
-4.30055
-4.74879
-5.29969
-3.81567
-3.30085
-2.85267
-2.6506
-2.46058
-2.60232
-2.78714
-3.05845
-3.30915
-3.71093
-3.78232
-3.86441
-3.84225
-3.67904
-3.55684
-3.44056
-3.56099
-3.72367
-4.13028
-4.58926
-3.31953
-2.87281
-2.38208
-2.28356
-2.21868
-2.24082
-2.41261
-2.61109
-2.85569
-3.0977
-3.35861
-3.27485
-3.33828
-3.17099
-3.10204
-3.00984
-3.02872
-3.18487
-3.60173
-3.95058
-2.75854
-2.36983
-2.14982
-1.89853
-1.78644
-1.88889
-1.94424
-2.15207
-2.39361
-2.57094
-2.74953
-2.83877
-2.72612
-2.60825
-2.54121
-2.48372
-2.49985
-2.66984
-2.92114
-3.15899
-2.19472
-1.80723
-1.62457
-1.49788
-1.47818
-1.49379
-1.53339
-1.78624
-1.92508
-2.05455
-2.10954
-2.20022
-2.13837
-2.02063
-1.98971
-1.89266
-1.98949
-2.14054
-2.30002
-2.52312
-1.56171
-1.39335
-1.23995
-1.02069
-1.02269
-1.06434
-1.17094
-1.25902
-1.3582
-1.57636
-1.57854
-1.61628
-1.55716
-1.50034
-1.44551
-1.47292
-1.40786
-1.56562
-1.64997
-1.83059
-0.938216
-0.823975
-0.73773
-0.644181
-0.652196
-0.67465
-0.70007
-0.714839
-0.789446
-0.869437
-0.943369
-0.854837
-0.914633
-0.87844
-0.874263
-0.903583
-0.961552
-0.902913
-0.961932
-1.10911
-0.296047
-0.275867
-0.212487
-0.208074
-0.275575
-0.246235
-0.161587
-0.234732
-0.265063
-0.271808
-0.341825
-0.310852
-0.233622
-0.29023
-0.334474
-0.321049
-0.339252
-0.235498
-0.348412
-0.340537
-4.14373
-3.55371
-3.04815
-2.76205
-2.53714
-2.64767
-2.88535
-3.11646
-3.40915
-3.73632
-3.97352
-4.01995
-3.92335
-3.78858
-3.7439
-3.5211
-3.67267
-3.94639
-4.4093
-4.98931
-3.65627
-3.22137
-2.74209
-2.4426
-2.35132
-2.40001
-2.54804
-2.82263
-3.10369
-3.31415
-3.52114
-3.5956
-3.5144
-3.36412
-3.25105
-3.1666
-3.2635
-3.4822
-3.92995
-4.39465
-3.15283
-2.7795
-2.43343
-2.08156
-2.09075
-2.13925
-2.23174
-2.39735
-2.64467
-2.90866
-3.04376
-3.09384
-3.06588
-2.86049
-2.79233
-2.76474
-2.78066
-3.03473
-3.37259
-3.72084
-2.66721
-2.33828
-1.99955
-1.91334
-1.7995
-1.74117
-1.84089
-2.00542
-2.21489
-2.40602
-2.45717
-2.55809
-2.45823
-2.38696
-2.37254
-2.33596
-2.30754
-2.48636
-2.81123
-3.0954
-2.00839
-1.82622
-1.57594
-1.40334
-1.34497
-1.38529
-1.40153
-1.61713
-1.78813
-1.96212
-2.04875
-1.95063
-1.99792
-1.93161
-1.82538
-1.80022
-1.79906
-1.98636
-2.08166
-2.42018
-1.42762
-1.36313
-1.20708
-0.953865
-1.0079
-1.07238
-1.03055
-1.16666
-1.26085
-1.38116
-1.39573
-1.48182
-1.40624
-1.35695
-1.27227
-1.37795
-1.30616
-1.43831
-1.54811
-1.70208
-0.855084
-0.822897
-0.648859
-0.626873
-0.639532
-0.603641
-0.626998
-0.622362
-0.789792
-0.894929
-0.917115
-0.85757
-0.819618
-0.85458
-0.867959
-0.724858
-0.794398
-0.799927
-0.903553
-1.07283
-0.290448
-0.334505
-0.231244
-0.202817
-0.250056
-0.149722
-0.199095
-0.231521
-0.244353
-0.201402
-0.286177
-0.310289
-0.370089
-0.21636
-0.264841
-0.273714
-0.241725
-0.288491
-0.313233
-0.325202
-3.93106
-3.34724
-2.82652
-2.43475
-2.41529
-2.40059
-2.50108
-2.69048
-3.0334
-3.30603
-3.4527
-3.52817
-3.41846
-3.38643
-3.25288
-3.23479
-3.30543
-3.58026
-4.03126
-4.58994
-3.47314
-2.96335
-2.47871
-2.26304
-2.12076
-2.12376
-2.33278
-2.5495
-2.74291
-3.01187
-3.01015
-3.09973
-3.08455
-2.98876
-2.93542
-2.85994
-2.90583
-3.2011
-3.59258
-4.08672
-3.08831
-2.51667
-2.2599
-1.9745
-1.89391
-1.96919
-1.96471
-2.17206
-2.37943
-2.54777
-2.63712
-2.79848
-2.67139
-2.5972
-2.52793
-2.48801
-2.5293
-2.70825
-3.11773
-3.46225
-2.51377
-2.12177
-1.82196
-1.76167
-1.50249
-1.63411
-1.64252
-1.78913
-1.95101
-2.14916
-2.24157
-2.24189
-2.24956
-2.1209
-2.06819
-2.07802
-2.08742
-2.2501
-2.52708
-2.8798
-1.90345
-1.73567
-1.49777
-1.31606
-1.1904
-1.27195
-1.2799
-1.40844
-1.52222
-1.66745
-1.84728
-1.7282
-1.75396
-1.6796
-1.64835
-1.65359
-1.71598
-1.80572
-2.05287
-2.24873
-1.33481
-1.2043
-1.04656
-0.941969
-0.902344
-0.941553
-0.955291
-0.999451
-1.17392
-1.22225
-1.28597
-1.14365
-1.22829
-1.28851
-1.10827
-1.2056
-1.20239
-1.27532
-1.46565
-1.63549
-0.91293
-0.88458
-0.686348
-0.567548
-0.543152
-0.479726
-0.531208
-0.630231
-0.59039
-0.729331
-0.795963
-0.795763
-0.710971
-0.758092
-0.710595
-0.651988
-0.691891
-0.853116
-0.820644
-1.01409
-0.2727
-0.253979
-0.2015
-0.301546
-0.207588
-0.176217
-0.24587
-0.184068
-0.217317
-0.263273
-0.26117
-0.269579
-0.344821
-0.229094
-0.259851
-0.254527
-0.225402
-0.241278
-0.36605
-0.259763
-3.54691
-3.00222
-2.50671
-2.21414
-2.01532
-1.94548
-2.11334
-2.41622
-2.48965
-2.76177
-2.91647
-2.99092
-2.93038
-2.88601
-2.69776
-2.79052
-2.81357
-3.12692
-3.6463
-4.12672
-3.21464
-2.74502
-2.30796
-1.98006
-1.86555
-1.85094
-1.93247
-2.07872
-2.26419
-2.49374
-2.6212
-2.60036
-2.59476
-2.54259
-2.45468
-2.49671
-2.58265
-2.79403
-3.2104
-3.61439
-2.80802
-2.40488
-1.98095
-1.75821
-1.63852
-1.66797
-1.80127
-1.91975
-2.05452
-2.15808
-2.21953
-2.29687
-2.2418
-2.24269
-2.18101
-2.08659
-2.22621
-2.45044
-2.82236
-3.16804
-2.29676
-1.98668
-1.60644
-1.53043
-1.33391
-1.40458
-1.43615
-1.54626
-1.78068
-1.84126
-1.87706
-1.92773
-1.91558
-1.85986
-1.80693
-1.764
-1.8215
-2.01491
-2.2659
-2.5493
-1.83418
-1.52771
-1.36051
-1.22074
-1.12014
-1.12219
-1.18523
-1.23226
-1.32712
-1.34392
-1.46638
-1.49841
-1.45838
-1.40222
-1.26975
-1.44081
-1.50549
-1.57148
-1.83205
-2.02767
-1.38547
-1.10186
-0.942705
-0.867022
-0.858627
-0.847423
-0.903098
-0.975197
-0.98571
-0.974214
-1.09314
-1.08045
-1.05016
-1.0693
-1.05081
-0.990922
-0.957087
-1.18423
-1.27731
-1.48877
-0.82292
-0.704289
-0.558973
-0.52656
-0.4137
-0.498967
-0.483146
-0.535057
-0.621112
-0.636293
-0.672272
-0.612343
-0.667319
-0.663187
-0.603731
-0.61943
-0.611524
-0.713428
-0.835438
-0.961794
-0.275549
-0.346156
-0.267878
-0.22897
-0.157905
-0.157643
-0.15281
-0.216179
-0.215426
-0.220052
-0.260084
-0.259073
-0.227837
-0.214083
-0.229388
-0.232693
-0.251247
-0.245037
-0.362825
-0.308212
-3.1546
-2.69262
-2.1257
-1.84557
-1.64592
-1.59299
-1.67431
-1.84896
-2.01726
-2.17654
-2.33796
-2.21753
-2.31468
-2.23439
-2.24205
-2.21095
-2.33726
-2.57306
-3.07347
-3.61202
-2.90968
-2.45973
-1.95518
-1.64631
-1.51041
-1.47176
-1.50798
-1.68896
-1.83841
-1.90944
-2.12145
-2.13927
-2.08495
-2.06673
-2.03312
-2.02243
-2.18714
-2.3681
-2.82125
-3.28724
-2.52
-2.14508
-1.75283
-1.50025
-1.35517
-1.29533
-1.36593
-1.58147
-1.62825
-1.72393
-1.76872
-1.9399
-1.79633
-1.818
-1.77415
-1.83863
-1.85766
-2.10604
-2.44921
-2.78672
-2.14729
-1.77926
-1.47854
-1.34868
-1.16155
-1.09205
-1.19699
-1.25438
-1.34472
-1.48326
-1.52667
-1.6303
-1.50328
-1.44225
-1.46839
-1.47278
-1.52795
-1.70849
-1.96596
-2.34621
-1.6397
-1.39434
-1.22315
-0.98048
-0.927215
-0.895236
-0.927959
-1.05041
-1.13738
-1.18085
-1.20349
-1.20134
-1.2652
-1.25919
-1.17978
-1.19967
-1.25534
-1.34327
-1.64198
-1.85202
-1.19755
-0.998669
-0.850208
-0.703689
-0.703069
-0.693753
-0.711979
-0.801321
-0.828216
-0.878719
-0.86098
-0.89738
-0.886822
-0.867065
-0.839701
-0.909723
-0.856165
-1.03692
-1.16879
-1.32083
-0.771658
-0.572901
-0.526847
-0.493823
-0.422631
-0.446709
-0.436419
-0.46698
-0.49292
-0.495778
-0.551445
-0.509778
-0.502071
-0.539289
-0.462951
-0.496173
-0.49939
-0.629434
-0.659121
-0.80576
-0.188926
-0.158882
-0.192913
-0.168575
-0.145895
-0.130849
-0.161476
-0.147024
-0.133622
-0.182224
-0.118224
-0.167518
-0.182523
-0.125524
-0.138282
-0.210749
-0.113156
-0.294603
-0.23356
-0.29744
-2.81381
-2.20125
-1.73462
-1.40997
-1.27833
-1.22305
-1.18247
-1.33758
-1.38528
-1.60262
-1.6076
-1.77099
-1.72752
-1.64416
-1.71563
-1.67437
-1.8063
-2.15421
-2.68322
-3.18492
-2.60644
-2.07601
-1.68293
-1.38611
-1.09935
-1.12304
-1.17464
-1.20656
-1.3109
-1.49952
-1.5775
-1.56445
-1.58569
-1.49647
-1.57116
-1.58639
-1.63598
-1.94213
-2.36062
-2.83541
-2.25734
-1.7824
-1.49043
-1.2048
-1.06587
-1.07125
-1.1103
-1.15987
-1.1968
-1.40049
-1.3641
-1.41438
-1.42742
-1.34056
-1.37611
-1.43748
-1.61101
-1.73058
-2.1123
-2.49773
-1.80754
-1.47031
-1.3154
-1.05915
-0.936331
-0.854924
-0.95186
-0.991147
-1.00528
-1.14393
-1.17865
-1.15583
-1.29852
-1.22833
-1.1059
-1.29373
-1.31305
-1.38108
-1.79583
-2.03767
-1.51162
-1.1928
-0.996769
-0.812707
-0.757948
-0.700132
-0.772859
-0.756862
-0.952999
-0.866517
-0.990399
-1.02113
-0.982208
-0.952665
-0.921529
-0.941531
-1.02405
-1.13791
-1.40116
-1.62127
-1.17524
-0.931011
-0.744314
-0.672094
-0.476888
-0.523831
-0.522006
-0.561382
-0.601477
-0.648356
-0.71725
-0.726319
-0.755916
-0.735892
-0.749076
-0.731809
-0.754284
-0.858884
-1.021
-1.13606
-0.627404
-0.589085
-0.397364
-0.383679
-0.301852
-0.35829
-0.369885
-0.43871
-0.401512
-0.372876
-0.441827
-0.456555
-0.380753
-0.456884
-0.469012
-0.413688
-0.453107
-0.568491
-0.552143
-0.635685
-0.169593
-0.211486
-0.177727
-0.161535
-0.134164
-0.211783
-0.0858293
-0.151929
-0.0952455
-0.116824
-0.170299
-0.126784
-0.139608
-0.117071
-0.122584
-0.0610783
-0.21908
-0.139973
-0.217709
-0.202838
-2.49581
-1.88524
-1.42844
-1.06763
-0.851107
-0.744825
-0.769706
-0.860121
-0.977478
-1.11508
-1.12781
-1.23634
-1.24741
-1.19705
-1.19079
-1.30494
-1.40145
-1.69892
-2.24756
-2.78348
-2.3566
-1.82859
-1.39287
-1.12628
-0.907924
-0.817588
-0.817992
-0.866842
-0.98071
-1.04149
-1.14669
-1.2058
-1.17232
-1.18879
-1.09789
-1.27198
-1.36139
-1.64125
-2.06796
-2.52921
-1.93852
-1.63819
-1.34002
-0.954858
-0.879264
-0.777626
-0.779302
-0.86127
-0.874249
-1.02248
-1.11126
-1.10818
-1.01646
-1.11421
-1.05169
-1.20774
-1.25675
-1.47726
-1.89948
-2.2407
-1.72317
-1.52325
-1.16807
-0.806683
-0.681854
-0.641939
-0.624687
-0.788504
-0.828323
-0.84688
-0.940999
-0.926034
-0.93052
-0.93307
-0.89903
-0.963793
-1.10324
-1.29422
-1.59547
-1.86191
-1.32906
-1.06732
-0.844762
-0.781564
-0.64981
-0.659594
-0.634232
-0.673475
-0.699762