/*--------------------------------*- C++ -*----------------------------------*\
| =========                 |                                                 |
| \\      /  F ield         | OpenFOAM: The Open Source CFD Toolbox           |
|  \\    /   O peration     | Version:  2212                                  |
|   \\  /    A nd           | Website:  www.openfoam.com                      |
|    \\/     M anipulation  |                                                 |
\*---------------------------------------------------------------------------*/
FoamFile
{
    version     2.0;
    format      ascii;
    arch        "LSB;label=32;scalar=64";
    class       volScalarField;
    location    "0";
    object      relativeErrorField;
}
// * * * * * * * * * * * * * * * * * * * * * * * * * * * * * * * * * * * * * //

dimensions      [0 0 0 1 0 0 0];

internalField   nonuniform List<scalar> 
3200
(
0.00814977
0.00468581
0.00206485
0.000222551
0.000563376
0.000855351
0.000348861
9.6902e-05
0.00068078
0.00105596
0.00171041
0.00215946
0.00287475
0.00331263
0.00388997
0.00450835
0.00581307
0.00771238
0.0108117
0.0138268
0.00729318
0.00433576
0.00183716
0.00044138
0.000213132
0.00056468
0.000214293
9.9055e-05
0.00099463
0.00140288
0.00184222
0.00230713
0.00275677
0.00329877
0.0035558
0.00401905
0.00538129
0.00702273
0.00932443
0.0119227
0.00610147
0.00364416
0.0016746
0.000347527
0.000209694
0.000340999
0.000216628
0.000193189
0.000669504
0.0012278
0.00160261
0.00218251
0.00244183
0.00266111
0.00295223
0.0035347
0.00443388
0.00607672
0.00793412
0.0102883
0.00499665
0.00343274
0.00157725
0.000432321
1.95087e-05
0.000255343
6.47662e-06
0.000337215
0.000723825
0.000791225
0.0014934
0.00165128
0.00195221
0.0023047
0.00256107
0.00311669
0.00336914
0.00474686
0.00658711
0.00852337
0.00436381
0.0028271
0.00157753
0.000519496
0.000138909
6.43472e-05
0.000139977
0.000250977
0.000570322
0.000749227
0.00129476
0.00142615
0.0015358
0.00181621
0.00218529
0.00224929
0.00318199
0.00385401
0.00528849
0.00629631
0.00280452
0.00207419
0.000784048
0.000261087
9.49332e-05
0.000149848
3.67575e-05
0.000400641
0.000526697
0.00056604
0.000646762
0.00108331
0.00116076
0.00150525
0.00141045
0.0016726
0.00189716
0.00272493
0.00369693
0.00502203
0.00189309
0.00118913
0.000582955
1.18584e-05
2.31645e-05
4.83087e-05
0.000372
0.000275619
0.000280796
0.000180856
0.000453745
0.00078961
0.000774054
0.000971079
0.0010939
0.000916696
0.00125174
0.00184782
0.00225779
0.002902
0.000637773
0.000279066
0.000270556
0.000105103
0.000192999
0.000108054
5.9325e-05
1.33147e-05
0.000114058
0.000336991
0.000194363
0.000275676
0.000171682
0.000230391
8.54487e-05
0.000552902
0.000250224
0.000346102
0.000711786
0.00126542
0.00825939
0.00500009
0.00200736
0.000386993
0.000392322
3.69019e-05
8.10871e-05
0.000640898
0.00116476
0.00194144
0.00264422
0.00313246
0.00370202
0.00425357
0.00456289
0.00507504
0.00604329
0.00810097
0.0107552
0.0138533
0.00715975
0.00446671
0.00206623
0.00050876
0.000179827
0.000157496
0.000241872
0.000743546
0.00137849
0.001865
0.00248514
0.00295823
0.00324617
0.00370004
0.00399456
0.00467473
0.00539863
0.00704947
0.00930035
0.0120648
0.00622082
0.00425574
0.00203818
0.000599486
2.25051e-05
0.00013736
0.000234263
0.00091443
0.00126991
0.00164113
0.00211492
0.00268137
0.00297947
0.00308411
0.0036409
0.00374866
0.0044045
0.00597625
0.00817856
0.0103689
0.00516882
0.00324467
0.00160461
0.000440807
0.0001552
1.64648e-05
0.000214736
0.000666181
0.00131543
0.00160327
0.00195878
0.00220779
0.00259787
0.00267814
0.00279198
0.0033736
0.00379143
0.00511739
0.00646406
0.00831056
0.00393185
0.00281008
0.00152734
0.000445279
0.000140677
0.000223574
0.00018967
0.000575059
0.0010297
0.00120437
0.00164473
0.00168037
0.00203874
0.00219629
0.00243109
0.00229289
0.00299016
0.00396782
0.00548002
0.00663277
0.00275226
0.00214002
0.001177
0.000407602
0.000267481
0.000341324
0.000375231
0.000598597
0.000888258
0.000888659
0.00118718
0.00134321
0.0014377
0.00175204
0.00164025
0.00201779
0.00219772
0.00265555
0.00381767
0.00472359
0.00184682
0.000872318
0.000477086
0.000139789
0.000384242
0.000190095
0.000139266
0.00035439
0.000266796
0.000524513
0.00095982
0.000747684
0.000752109
0.000914813
0.000884103
0.00120264
0.00120198
0.00160703
0.00243928
0.00297708
0.000408288
0.000494334
0.000244855
0.00030893
0.000337474
2.39581e-05
6.77027e-05
8.52153e-05
0.000226112
0.000259571
0.00022179
0.000267564
0.000335904
0.00044907
0.000364093
0.000476363
0.000283956
0.000552921
0.00071653
0.00081059
0.00840034
0.00517557
0.00252555
0.00101794
0.000425166
0.000413587
0.000929786
0.00164187
0.00239076
0.00333878
0.00423175
0.00431971
0.00479707
0.00519228
0.00550764
0.00579722
0.00708556
0.00825102
0.0112539
0.0142214
0.00738391
0.00479361
0.00260508
0.0010106
0.000684405
0.000426291
0.0010231
0.00152925
0.00251547
0.00293113
0.00373919
0.00430363
0.00427483
0.00445427
0.0046492
0.00506779
0.00590495
0.00757954
0.00987945
0.0120528
0.0063018
0.00413508
0.00224962
0.00113318
0.000462387
0.000681124
0.000798405
0.00153383
0.00198667
0.002883
0.00324805
0.00377594
0.00401864
0.00397936
0.00413346
0.00444174
0.00504521
0.00642558
0.00810133
0.0102822
0.00525686
0.00370904
0.00224078
0.000883682
0.000489181
0.000356831
0.000647276
0.00125728
0.0018199
0.00213621
0.00292345
0.00309036
0.00315503
0.00310598
0.00353072
0.00359401
0.00424802
0.00516679
0.00688711
0.00857271
0.00408676
0.00281095
0.00143425
0.000912647
0.000445848
0.000590246
0.000658137
0.00120987
0.00158245
0.00206166
0.00229949
0.00245052
0.00273902
0.00267226
0.00273762
0.00282399
0.0035042
0.00410143
0.0052707
0.0068024
0.00291928
0.00217772
0.00117977
0.000505695
0.000147924
0.000685392
0.000527416
0.000906422
0.0010966
0.00153345
0.00167634
0.00175128
0.00191605
0.00204365
0.00197002
0.00199963
0.00240648
0.00292681
0.00408996
0.00502425
0.00156757
0.00139282
0.000583547
0.000440099
6.25969e-05
0.000298565
0.000371431
0.000742972
0.000554947
0.000854559
0.00090456
0.00108507
0.00115116
0.00119821
0.00132731
0.00132647
0.00149686
0.00200311
0.00223332
0.00272299
0.000868738
0.000570569
5.08185e-05
9.98059e-05
0.000318681
0.000269075
0.000180868
9.72263e-05
0.000266429
7.64459e-05
0.000435856
0.000348832
0.000612531
0.000341952
0.000299665
0.000556818
0.000431781
0.000768943
0.000808445
0.000845991
0.00858739
0.00581766
0.00309374
0.00146174
0.00108571
0.00136853
0.00191152
0.0029332
0.00364985
0.00483547
0.00544012
0.00622053
0.00654572
0.00643746
0.0063893
0.00683098
0.00743585
0.00875899
0.0115887
0.0141891
0.00768381
0.00526886
0.00299097
0.00179916
0.00116315
0.00134404
0.00181568
0.00282237
0.00341909
0.00440762
0.00505728
0.00535316
0.00575245
0.0058476
0.00573397
0.00588509
0.00637285
0.00812465
0.0101672
0.012309
0.00662229
0.00464323
0.00261791
0.00174447
0.00113488
0.00142848
0.00197547
0.00241571
0.00322281
0.00402909
0.00451756
0.00489254
0.00509527
0.00494329
0.00500581
0.00538791
0.0058015
0.00686807
0.0086193
0.0108261
0.00573034
0.00384236
0.00245394
0.00139877
0.00113379
0.00110135
0.00154642
0.00202972
0.00265388
0.00316339
0.00370432
0.00418909
0.00429702
0.0043678
0.00433569
0.00435686
0.00466769
0.00564893
0.00738905
0.00882507
0.00432649
0.00307525
0.00189775
0.00120412
0.000947796
0.000780141
0.0013073
0.00180907
0.00207045
0.00256178
0.00310543
0.00316027
0.00350862
0.00334192
0.00333361
0.00303014
0.00380666
0.00429531
0.00549506
0.00697631
0.00326263
0.00219815
0.00153514
0.00104391
0.000594788
0.000622978
0.000611565
0.00123119
0.00147582
0.00199234
0.00223747
0.00223207
0.00237715
0.00276832
0.00226966
0.00229708
0.00281529
0.00323888
0.00415297
0.00503173
0.00187596
0.0014202
0.000977184
0.000447635
0.0004585
0.000640925
0.000421124
0.000628966
0.00096673
0.00100715
0.00149411
0.00123505
0.00164705
0.00152171
0.00162096
0.00165805
0.00182856
0.00197911
0.00248694
0.00296935
0.000582328
0.000403092
0.000464499
3.215e-05
0.00033528
0.00018655
0.000310512
0.000439004
0.000391915
0.000534751
0.000359225
0.000334268
0.000487893
0.000655783
0.000581361
0.000265245
0.000388664
0.00104862
0.00080836
0.000869259
0.00936411
0.00646077
0.00423941
0.0029118
0.00232971
0.0027158
0.0032581
0.00415577
0.00551618
0.00661732
0.00734599
0.00783165
0.00804861
0.00755509
0.00753774
0.00758657
0.00844386
0.00968322
0.0118917
0.01518
0.00839387
0.00560453
0.00375394
0.00266433
0.00205928
0.00226127
0.00308277
0.00395837
0.00487812
0.00582522
0.00680725
0.00720068
0.00701016
0.0066849
0.00670966
0.00672699
0.00743366
0.00894567
0.0105145
0.0131033
0.00729238
0.00502468
0.00336474
0.00231383
0.00197965
0.00228396
0.00253974
0.00337593
0.00438988
0.00524935
0.00557446
0.00624408
0.00602496
0.00624771
0.0057896
0.00607094
0.00656026
0.00749687
0.00924039
0.0110988
0.00586828
0.00423367
0.00285289
0.0019484
0.00165718
0.00189076
0.00239471
0.0028648
0.00366253
0.00433907
0.00499384
0.0051867
0.00523964
0.00522737
0.00502377
0.00504122
0.00526105
0.00634783
0.00760452
0.00927627
0.00466247
0.00335461
0.00235188
0.00151319
0.00149472
0.00152141
0.00187453
0.00238248
0.00305595
0.00348899
0.00404873
0.00422332
0.00410038
0.004169
0.00367427
0.00387173
0.00433456
0.0050011
0.00584607
0.00690091
0.00350013
0.00252573
0.00166127
0.00114897
0.00130377
0.00123522
0.00154915
0.00175331
0.00180479
0.00251138
0.00260616
0.003144
0.00304412
0.00283334
0.00283604
0.00289197
0.00304849
0.00340641
0.00430081
0.00515053
0.00218985
0.00171297
0.000920666
0.000865122
0.000263436
0.000604547
0.000938803
0.00100613
0.00124798
0.00161924
0.0016214
0.00186242
0.00183608
0.00188823
0.00196182
0.0015799
0.00181093
0.00207085
0.0027158
0.00301773
0.00056441
0.00070026
0.000366385
0.000171268
3.73081e-05
0.00038044
0.000521649
0.000360989
0.000455404
0.000449226
0.00050832
0.0006644
0.000520807
0.000586582
0.000639834
0.000619607
0.000830302
0.000786929
0.000924257
0.000755368
0.00979834
0.00735377
0.0049985
0.00352521
0.00344525
0.00374517
0.00442453
0.00564574
0.00689559
0.00828963
0.00897608
0.00941027
0.00973003
0.00942859
0.0089984
0.00902683
0.00947946
0.0107404
0.0129585
0.0155776
0.00889505
0.006531
0.00475942
0.00330993
0.00300797
0.00333251
0.00408843
0.00532569
0.00648891
0.00744798
0.00822584
0.00877867
0.0084244
0.00840069
0.00787684
0.00773625
0.00824
0.00968885
0.011279
0.0136397
0.007655
0.00583111
0.00406124
0.00322418
0.00269606
0.00299589
0.0036474
0.00453312
0.00547535
0.00639474
0.00710628
0.00721507
0.00729606
0.00709818
0.0068748
0.00699894
0.00720852
0.00810352
0.00992709
0.0117677
0.00661161
0.00490163
0.00367015
0.00272835
0.00261
0.00257862
0.00316891
0.00405672
0.00468391
0.00562417
0.00587367
0.00616454
0.00634373
0.00610288
0.00536229
0.00564753
0.00584667
0.00664908
0.00811914
0.00936746
0.00498479
0.00367803
0.00313138
0.00241842
0.00226118
0.00229296
0.00259029
0.00323343
0.00385699
0.00446975
0.00499482
0.00502089
0.00487144
0.00476797
0.00454549
0.00478392
0.00473253
0.00539349
0.00658488
0.00763289
0.00382531
0.00308081
0.00213235
0.00155504
0.00141763
0.00164521
0.00187074
0.00225962
0.00290794
0.00313195
0.00351533
0.0035934
0.0035363
0.00319457
0.00342111
0.00296038
0.00369581
0.00382744
0.00438785
0.00551939
0.00233676
0.00190384
0.00134131
0.0011427
0.00100453
0.00129982
0.00144963
0.0016832
0.00192948
0.00182151
0.00194606
0.0021203
0.00201535
0.00230853
0.00208254
0.00214532
0.00200669
0.00212968
0.0029215
0.00335484
0.000826537
0.000527233
0.000259524
0.000449463
0.00015634
6.90122e-05
0.000178229
0.00052502
0.000521745
0.000633505
0.000658935
0.000721472
0.000781053
0.00083088
0.00087
0.000623941
0.000829803
0.00070735
0.000752348
0.0011589
0.0108853
0.0079781
0.00623657
0.00494104
0.00455435
0.00495043
0.00586885
0.00704716
0.00837088
0.0097325
0.0108702
0.0111856
0.0111892
0.0108467
0.0103658
0.0100567
0.0103837
0.0116812
0.0137548
0.0158827
0.00965881
0.00742541
0.0056642
0.0044438
0.0043291
0.00451135
0.0052204
0.00637797
0.00791881
0.00880488
0.00947413
0.00998313
0.00993612
0.00956346
0.00917939
0.00898534
0.00945138
0.0102205
0.0119538
0.0141659
0.00835037
0.00673736
0.00496329
0.00380289
0.00390044
0.00408888
0.00466041
0.00556497
0.00674701
0.00765204
0.00849549
0.00852562
0.00858102
0.00812387
0.00806688
0.00782146
0.00806566
0.00883134
0.0101998
0.0121247
0.00693994
0.00542488
0.00429898
0.00341668
0.00329272
0.00338887
0.00389784
0.00496327
0.00539683
0.00647793
0.00698722
0.00729152
0.00698979
0.00695367
0.0065244
0.00630927
0.00661236
0.00757393
0.00859584
0.00984719
0.00557205
0.00462827
0.00338806
0.00266286
0.00251237
0.00282353
0.00328049
0.00368189
0.00433905
0.00515765
0.00544933
0.00587054
0.00554716
0.0056073
0.00514961
0.00509647
0.00527413
0.00554153
0.00685533
0.00789358
0.00406714
0.00330966
0.00254101
0.00196428
0.00181347
0.00191636
0.00241725
0.00293022
0.00359687
0.00375361
0.00395252
0.00422416
0.00404882
0.00398103
0.00364785
0.0037705
0.00393658
0.00426164
0.0046704
0.00568293
0.00245175
0.0018132
0.00157153
0.00137317
0.00129727
0.00112708
0.00172557
0.00212324
0.00184403
0.00241149
0.00234813
0.00288145
0.00238148
0.00233129
0.00236199
0.00247389
0.00236891
0.00251415
0.00288076
0.00346573
0.000935293
0.000789339
0.00014954
0.000507563
0.000559431
0.000356476
0.000619268
0.000436759
0.000647528
0.000862866
0.00105932
0.000663868
0.000943333
0.000926622
0.000591888
0.00122366
0.0009817
0.000897482
0.00109903
0.00126261
0.0115738
0.00913933
0.00712942
0.00580035
0.00527932
0.00606635
0.00724895
0.00858862
0.00994975
0.0113116
0.0123856
0.0128054
0.0126573
0.0119219
0.0114962
0.0109638
0.0112394
0.0125432
0.0143908
0.0165423
0.0101857
0.00812866
0.00645427
0.00556457
0.00526031
0.00553832
0.00632556
0.00744856
0.00898409
0.0100962
0.0110366
0.0111378
0.0109884
0.0105142
0.0103325
0.00974663
0.0100993
0.0109208
0.0125205
0.0145359
0.00872472
0.00740137
0.00571718
0.00474512
0.00454664
0.00484913
0.00568632
0.00663285
0.00789892
0.00852305
0.00949168
0.0097222
0.00960968
0.00917184
0.00885513
0.00877938
0.00881081
0.00956903
0.0110703
0.0127147
0.00750948
0.00615727
0.00476348
0.00397044
0.00376728
0.00403681
0.00456032
0.00584161
0.00673887
0.00743359
0.00789017
0.00830242
0.00812023
0.00765383
0.00749222
0.00685319
0.00728291
0.00791642
0.00881586
0.0101641
0.00571846
0.00475254
0.00391294
0.00337483
0.00293819
0.00346701
0.0038291
0.00449402
0.00534054
0.00587972
0.00635657
0.00651349
0.00665112
0.00616304
0.00559981
0.00562536
0.0056755
0.00607719
0.00710852
0.00814168
0.00420648
0.00384902
0.00279103
0.00247571
0.00227793
0.00255241
0.00291021
0.00328397
0.00397672
0.00419365
0.00459448
0.00470702
0.00460016
0.0046095
0.00404545
0.00386345
0.00434067
0.00490049
0.00515208
0.00577958
0.00261228
0.00197607
0.0015967
0.0014276
0.00171519
0.00155679
0.00170443
0.00195819
0.00232294
0.0027225
0.00267429
0.00286582
0.00277693
0.00255405
0.0025653
0.00256548
0.00243021
0.00323273
0.00334898
0.00345282
0.000907626
0.000805254
0.000713218
0.000591178
0.000372965
0.000301978
0.000546185
0.000643087
0.000881655
0.000765007
0.000737345
0.000760064
0.000806421
0.00107916
0.0008042
0.00097138
0.000862861
0.00113203
0.000898274
0.00136074
0.0122397
0.0101114
0.00793959
0.00692428
0.00650044
0.00693989
0.00789704
0.00939282
0.0111357
0.0126645
0.0132967
0.0135938
0.0136946
0.0128671
0.0123737
0.0118754
0.0122244
0.0130114
0.0148289
0.01685
0.0109534
0.00888489
0.00737679
0.00639132
0.00582752
0.00633103
0.00709085
0.0084581
0.00995279
0.0108427
0.0118205
0.0123678
0.0118363
0.0116163
0.0107069
0.0105847
0.0107937
0.0117225
0.0132794
0.0152651
0.00951589
0.00806299
0.00640964
0.0056242
0.00520482
0.00558991
0.00653173
0.00755614
0.00870919
0.00976718
0.0102372
0.0106295
0.0105644
0.00990457
0.00942862
0.00906183
0.00928484
0.0101087
0.011202
0.012845
0.00796856
0.00668657
0.00538347
0.00483094
0.00445701
0.00476808
0.00540047
0.00618743
0.00703162
0.00822243
0.00855935
0.00890979
0.00878388
0.00826395
0.00780901
0.00759281
0.00782712
0.00828833
0.00935841
0.0107413
0.0064094
0.005437
0.00457222
0.00379819
0.00364809
0.00414568
0.00419387
0.00494333
0.00575161
0.00631045
0.00681828
0.00718275
0.00700804
0.00685476
0.006246
0.00605922
0.00613606
0.00655733
0.00724497
0.00849749
0.00461162
0.00393356
0.0030431
0.00289235
0.00282202
0.0030325
0.00332217
0.00386868
0.00431219
0.00472592
0.0048746
0.00535701
0.00496183
0.00480197
0.00462408
0.00422605
0.00443923
0.00498406
0.00544917
0.00611768
0.0027632
0.00222336
0.00187483
0.0018115
0.00170484
0.001905
0.0018714
0.00199924
0.00273061
0.00283473
0.00299316
0.00333275
0.00298259
0.00275834
0.00277979
0.00268945
0.00302297
0.00268797
0.0033582
0.00349095
0.000838391
0.000788256
0.000498435
0.000587039
0.000440626
0.000533423
0.000476734
0.000589089
0.000979787
0.000542809
0.00112481
0.00104885
0.0012645
0.00114785
0.000605642
0.000830064
0.000991682
0.00118352
0.0012973
0.00110044
0.0128895
0.0106046
0.00881474
0.00768585
0.00730387
0.0078028
0.00875043
0.010352
0.0116006
0.0132284
0.0142131
0.0145433
0.014005
0.0135629
0.0130564
0.0125667
0.0126682
0.013148
0.0151239
0.0173637
0.0115545
0.00969297
0.00790092
0.00690957
0.00686646
0.00700368
0.00808315
0.00933135
0.0105665
0.0118964
0.0127399
0.012863
0.0128165
0.0119404
0.0115405
0.0110469
0.0113366
0.0122447
0.013435
0.015074
0.010228
0.0085943
0.00684969
0.00628762
0.00587733
0.00639555
0.00711857
0.00805158
0.00919602
0.0102487
0.0107602
0.0110853
0.0110864
0.0105686
0.00999247
0.00961501
0.00964139
0.0103498
0.0118415
0.01327
0.00820354
0.00715927
0.00610202
0.00543873
0.00509118
0.00550425
0.00610112
0.00685837
0.00762368
0.00873979
0.00924734
0.00922376
0.00903242
0.00885652
0.00821519
0.00787333
0.00805943
0.0085117
0.00960194
0.0110667
0.00668327
0.00585163
0.00476723
0.00434051
0.00426501
0.0045309
0.00481661
0.00555784
0.00614139
0.00694258
0.00731249
0.00735751
0.00737468
0.00671156
0.00682675
0.00628088
0.00630105
0.00691017
0.00774885
0.00857471
0.00484474
0.00442314
0.00343621
0.00308188
0.00272221
0.00326527
0.00358572
0.00404017
0.00451914
0.0048308
0.00531482
0.00536591
0.00524421
0.00499567
0.00488421
0.00453063
0.00468218
0.00508818
0.00567483
0.00618755
0.002993
0.00243869
0.00220223
0.00181371
0.00189707
0.00181618
0.0018957
0.00260806
0.00274139
0.00319347
0.00325276
0.00335805
0.00324654
0.00299075
0.00303341
0.00294778
0.00271449
0.0029606
0.00345918
0.00372846
0.0011157
0.00101808
0.000792381
0.00064357
0.000648466
0.000641647
0.000777336
0.00109043
0.00101551
0.00105677
0.0010442
0.000820933
0.00111745
0.000896715
0.00117534
0.000919167
0.000755851
0.000963748
0.00124243
0.00143068
0.0132689
0.0113139
0.00920361
0.00866272
0.00806478
0.00830575
0.00963959
0.0107432
0.0122764
0.013832
0.0145797
0.0147826
0.0144775
0.0137269
0.0131695
0.0125229
0.0128709
0.013595
0.0154764
0.0170929
0.0115716
0.0101083
0.00845247
0.00781133
0.00728549
0.0078547
0.00853935
0.00991025
0.0109499
0.012089
0.0130447
0.0130043
0.0127998
0.0122552
0.0115366
0.0113976
0.0116067
0.0121096
0.013497
0.0153172
0.0101922
0.00883161
0.00722926
0.00675311
0.00661298
0.00701867
0.00731379
0.00836634
0.00959803
0.0106093
0.0109583
0.0116757
0.0113891
0.0106613
0.0102589
0.00990184
0.00981321
0.0107796
0.011906
0.0129827
0.00868474
0.00717027
0.00617008
0.0057378
0.0054859
0.00567597
0.00619283
0.00717438
0.00804172
0.00881077
0.00938524
0.0095601
0.00944146
0.0090377
0.00842784
0.00816216
0.00819786
0.00907107
0.00987718
0.0109852
0.00679739
0.00569586
0.00513637
0.00462265
0.00432054
0.00472224
0.00503582
0.00574134
0.00652309
0.00714969
0.00752344
0.00739401
0.00741221
0.00694803
0.0066835
0.00660278
0.00679328
0.00693109
0.00772838
0.00843255
0.00498995
0.00445265
0.00367675
0.00340131
0.00303961
0.00344107
0.00383252
0.00419432
0.00477087
0.00517399
0.00541659
0.00553973
0.00553625
0.00516332
0.00486189
0.00469943
0.00475842
0.00532343
0.00564135
0.00621034
0.00313529
0.00264368
0.00227578
0.00205264
0.00182426
0.00202851
0.00211273
0.00270074
0.00283222
0.00323343
0.00319208
0.00350471
0.00326659
0.00301317
0.00304143
0.00306108
0.00309515
0.00289681
0.0035492
0.00384207
0.00113336
0.00100329
0.000737331
0.0008328
0.00063124
0.000800644
0.00101249
0.00107614
0.00101023
0.000853896
0.00107978
0.00121763
0.00125489
0.00136075
0.00112082
0.00113284
0.00102522
0.00107661
0.00116377
0.00122254
0.013494
0.0113652
0.00968208
0.00856907
0.00851876
0.00876248
0.00955653
0.010718
0.0124102
0.0134671
0.0142476
0.0145349
0.0141638
0.0139543
0.0131561
0.0128056
0.0127927
0.013644
0.0155396
0.0169817
0.0118051
0.0101267
0.00881217
0.00781428
0.00757572
0.0082191
0.00864336
0.0097104
0.010975
0.0121951
0.012923
0.0132603
0.0128561
0.0122484
0.0119287
0.0115153
0.0117324
0.0121256
0.0136377
0.0151086
0.01044
0.00883491
0.00780641
0.00700064
0.00701684
0.00688814
0.0079564
0.00865773
0.00976265
0.0105223
0.0112167
0.0115028
0.0112543
0.0107621
0.00993478
0.00973495
0.0100849
0.0106258
0.0116843
0.0131731
0.00877284
0.00769551
0.00661386
0.00611695
0.00547229
0.00621977
0.00678979
0.00736209
0.00813868
0.00917552
0.00939941
0.00949623
0.0093158
0.00903787
0.00850691
0.00799026
0.00818398
0.00885237
0.00969366
0.0108184
0.00696922
0.00601871
0.00526719
0.00453891
0.00436556
0.00490927
0.00519399
0.00607003
0.00663193
0.00685251
0.00741928
0.00781832
0.00720247
0.00709684
0.0067705
0.00641545
0.00644136
0.00706198
0.00790997
0.00827468
0.00492253
0.00457681
0.003681
0.00335246
0.00341017
0.00343573
0.00369261
0.00462651
0.00462431
0.00504941
0.0054637
0.00558209
0.00539677
0.00525718
0.00512819
0.0051021
0.00467544
0.00525932
0.00555201
0.0060873
0.00322404
0.00264855
0.00235825
0.00240957
0.00219716
0.00236181
0.00240837
0.00252239
0.00289976
0.00306789
0.00327967
0.00337551
0.00337901
0.00321165
0.00291357
0.00295962
0.00298434
0.00304905
0.0032372
0.00347981
0.00116785
0.000718988
0.000790512
0.000710658
0.000636032
0.000586933
0.000894197
0.00102035
0.000957121
0.00102348
0.0012899
0.00111985
0.00119029
0.000954304
0.0010581
0.00106675
0.00119573
0.000907673
0.00126836
0.00128804
0.0131464
0.0115494
0.00985553
0.00881777
0.00828271
0.00888948
0.0093296
0.010485
0.0119023
0.0132513
0.01371
0.0141037
0.0137343
0.0132836
0.0127949
0.0125515
0.0126881
0.013328
0.0149182
0.0168477
0.0118774
0.0104644
0.00883123
0.0079919
0.00744096
0.00818524
0.00874834
0.00969408
0.010901
0.0115921
0.0123517
0.0127488
0.0126352
0.0117853
0.0114478
0.0112174
0.0112278
0.011882
0.0133439
0.0148257
0.0102137
0.00907565
0.00788282
0.00725061
0.00673788
0.00711207
0.00758324
0.00863571
0.00955407
0.0102001
0.0108159
0.0108303
0.0106646
0.0102172
0.00972471
0.00966987
0.00967894
0.0103418
0.0113211
0.0127029
0.00867586
0.00768555
0.00647323
0.00598113
0.0058415
0.00585702
0.00676889
0.00727566
0.00790105
0.00878306
0.0091299
0.00927675
0.00898125
0.00869976
0.00849361
0.00796088
0.00822657
0.00859271
0.00958843
0.0105576
0.00689932
0.00621269
0.00534408
0.00472602
0.00474981
0.004756
0.0053084
0.0059224
0.00637368
0.00680549
0.00709158
0.00744743
0.00721386
0.00685686
0.00670854
0.00629421
0.00628958
0.00692405
0.00748189
0.00858679
0.00514987
0.0044221
0.00381612
0.00338725
0.00337162
0.003389
0.00372702
0.00426885
0.00481609
0.00519467
0.00539076
0.0053542
0.00534306
0.00498126
0.00464717
0.00439426
0.00478682
0.00508844
0.00547841
0.00625406
0.00305534
0.00294224
0.00224484
0.00220377
0.00215244
0.00226494
0.00263433
0.00249805
0.00261543
0.00291461
0.00315881
0.00333054
0.00302877
0.00317995
0.00293715
0.00272635
0.00276778
0.00308164
0.00336021
0.00374784
0.000784439
0.00077321
0.000540323
0.000801199
0.000848817
0.000912366
0.00111867
0.000986008
0.00106576
0.000924669
0.00108574
0.00130067
0.000979237
0.00121162
0.00107031
0.000886517
0.00107485
0.00116699
0.00112002
0.00138538
0.0131723
0.0111777
0.00971706
0.00867834
0.00839892
0.00841303
0.00910999
0.0102286
0.011229
0.0123302
0.0130239
0.0131353
0.0132581
0.0122896
0.0122898
0.0116563
0.0119589
0.0129713
0.0143349
0.0160085
0.0116668
0.010087
0.00871127
0.00808826
0.00750303
0.00792993
0.00848815
0.00930997
0.0100697
0.0112904
0.0115076
0.0117594
0.0116959
0.0112044
0.0108386
0.0104913
0.0108663
0.0113711
0.0126216
0.0140322
0.0102774
0.00889014
0.0073671
0.00705797
0.0068532
0.00691765
0.00744421
0.00805334
0.00880523
0.00955003
0.0103544
0.0100977
0.0102962
0.00978424
0.00957634
0.00929701
0.00936108
0.00984988
0.0111458
0.0122312
0.00865066
0.00742879
0.00673577
0.00594535
0.00559145
0.00590932
0.00607995
0.0067276
0.00748086
0.00803412
0.00859221
0.00887214
0.00852214
0.00815642
0.00795008
0.00777393
0.0078284
0.00836508
0.009157
0.00990646
0.00697331
0.00574039
0.00515817
0.00475397
0.00468956
0.00473731
0.00486128
0.0056614
0.00610029
0.00650993
0.00668415
0.00697217
0.00677746
0.00640601
0.00631005
0.00600453
0.00631424
0.00679644
0.00730566
0.00801672
0.00502882
0.00448575
0.00399075
0.0032841
0.00328957
0.00342261
0.00376451
0.00404692
0.00436508
0.00506589
0.00507288
0.00519454
0.00500522
0.0048235
0.00464835
0.0047378
0.00452982
0.00503892
0.00531189
0.00589464
0.0030626
0.00268934
0.00240743
0.00210177
0.00212754
0.00220042
0.00228301
0.00233089
0.00257395
0.00283464
0.00307568
0.00278715
0.00298236
0.00286469
0.00285148
0.0029476
0.00313725
0.00294647
0.00313961
0.00362046
0.000979871
0.000913038
0.000703228
0.000688579
0.000911905
0.000814771
0.00053465
0.000776639
0.000876968
0.000899272
0.00113092
0.00102846
0.000772966
0.000960298
0.00110675
0.00106238
0.00112269
0.000779381
0.00115314
0.00112712
0.0124743
0.0106916
0.00916385
0.00829738
0.00761612
0.00794245
0.00865023
0.0093386
0.0102122
0.0111902
0.0119007
0.0120418
0.0117565
0.0113581
0.0112309
0.0105698
0.011033
0.0118643
0.0132657
0.0150199
0.0111461
0.00981518
0.00834946
0.00743258
0.00715019
0.00729384
0.00773962
0.00857005
0.00942059
0.0100579
0.010686
0.0109137
0.0106704
0.0102185
0.00988023
0.00962937
0.00993049
0.010603
0.0119741
0.013397
0.00973625
0.00857963
0.00750724
0.00641802
0.00644277
0.00658883
0.00687058
0.00737772
0.00813677
0.00894779
0.0093634
0.00951872
0.00943509
0.00880626
0.0086003
0.0085197
0.00857355
0.00936229
0.0104104
0.0114903
0.00834638
0.00731447
0.00625202
0.00597964
0.00562125
0.0054367
0.00574591
0.00625756
0.00690972
0.00750518
0.00766472
0.00798038
0.00767049
0.00745037
0.00740812
0.00729705
0.00721162
0.00777415
0.0087939
0.00968628
0.0063705
0.00579104
0.00499561
0.00444681
0.00426029
0.00438655
0.00443663
0.00511792
0.00565816
0.00620815
0.00648225
0.00617234
0.00632306
0.00611464
0.00578009
0.00570236
0.00570074
0.00629661
0.00660107
0.00767668
0.00459143
0.00438314
0.00388035
0.00306553
0.00323834
0.00344467
0.00330958
0.00374604
0.004048
0.00443396
0.00448075
0.00475743
0.00451532
0.00435781
0.00408674
0.00442727
0.00419774
0.00462368
0.00497797
0.00547414
0.00278914
0.00268383
0.00211588
0.00204385
0.00208479
0.00196749
0.00204336
0.00202804
0.00257343
0.00291589
0.00298818
0.00279428
0.00267082
0.00278503
0.00282901
0.00236294
0.00259005
0.0026085
0.00294688
0.00349938
0.000961092
0.00110683
0.000765115
0.00067102
0.000827265
0.000495304
0.000658606
0.000765846
0.000808274
0.000666189
0.000946604
0.00102638
0.00122421
0.000715721
0.000876135
0.000905533
0.000799748
0.000954528
0.00103645
0.00107609
0.0117912
0.0100345
0.00846774
0.00728901
0.00722593
0.00717754
0.00747397
0.00803648
0.00905803
0.0098706
0.0103085
0.0105355
0.010211
0.0101197
0.00972581
0.00967767
0.0098956
0.0107258
0.0120851
0.0137676
0.010554
0.00900061
0.00752417
0.00686533
0.00642992
0.00643552
0.00706557
0.00771903
0.00830243
0.00911527
0.00911008
0.00938245
0.00933901
0.00905241
0.00889506
0.00867102
0.00881535
0.009717
0.0109118
0.0124186
0.00951083
0.00774731
0.00695335
0.00607205
0.00582129
0.00604986
0.00603366
0.00666823
0.00730322
0.00781899
0.0080932
0.00858939
0.00820118
0.00797604
0.00776646
0.00764737
0.00777822
0.00833285
0.0095976
0.0106624
0.00784826
0.00662226
0.00568413
0.00549368
0.00468347
0.00509177
0.00511627
0.00557143
0.00607437
0.00669066
0.00697836
0.00698002
0.00700522
0.00660635
0.00644434
0.00647749
0.00650952
0.00701986
0.00788726
0.00899105
0.00602675
0.00549414
0.00473952
0.00416308
0.00376434
0.00402101
0.00404506
0.00445034
0.00480914
0.00526756
0.00583567
0.00545989
0.00554213
0.00530828
0.00521089
0.00522907
0.00542814
0.00571398
0.0064982
0.00711998
0.00428733
0.00386742
0.00336005
0.00302352
0.00289564
0.00302079
0.00306428
0.00320543
0.00376459
0.00391936
0.00412367
0.00366752
0.00393937
0.00413315
0.00355567
0.0038688
0.00385942
0.00409453
0.0047067
0.0052531
0.00297545
0.00288273
0.0022364
0.00184902
0.00176928
0.00156247
0.00172994
0.00205222
0.00192236
0.00237469
0.00259164
0.00259107
0.00231514
0.00246881
0.00231441
0.00212381
0.00225412
0.00277979
0.00267437
0.00330514
0.00090212
0.000840157
0.000666525
0.000997406
0.000686592
0.000582809
0.00081314
0.000608729
0.000718671
0.000870636
0.000863684
0.000891503
0.00114036
0.000757658
0.000859411
0.000841844
0.000745548
0.000798105
0.00121089
0.000859324
0.0105984
0.00896628
0.00748182
0.00660446
0.00600777
0.00579634
0.00629344
0.00719266
0.00740922
0.00821792
0.00867825
0.00890101
0.0087232
0.00859444
0.00803769
0.00831866
0.00839246
0.00933296
0.0108899
0.012331
0.00973577
0.00830985
0.00698299
0.0059876
0.00563834
0.00559146
0.00583527
0.00627477
0.00683301
0.00752481
0.00790944
0.00784753
0.00783245
0.00767759
0.00741527
0.00754592
0.00780981
0.00845366
0.00971868
0.0109464
0.00862275
0.0073821
0.00607798
0.00539202
0.00502266
0.00511081
0.00551725
0.00587842
0.00628982
0.00660617
0.00679429
0.00703178
0.00686458
0.0068693
0.0066828
0.00639618
0.00682729
0.00751847
0.00866361
0.0097283
0.00715359
0.00618594
0.00500009
0.00476164
0.00414862
0.0043669
0.00446371
0.00480477
0.00553228
0.00571997
0.0058312
0.00598913
0.00595238
0.00578065
0.00561784
0.00548628
0.00566725
0.00627148
0.00705537
0.00794016
0.00579644
0.00482678
0.00429723
0.00385458
0.00353585
0.00354137
0.00373942
0.00388705
0.00418573
0.0042384
0.00462462
0.00472596
0.00460033
0.00442403
0.00400702
0.0045481
0.00475368
0.00496358
0.00578835
0.00640792
0.00444394
0.00353364
0.00302258
0.0027793
0.0027518
0.00271534
0.00289324