/*--------------------------------*- C++ -*----------------------------------*\
| =========                 |                                                 |
| \\      /  F ield         | OpenFOAM: The Open Source CFD Toolbox           |
|  \\    /   O peration     | Version:  2212                                  |
|   \\  /    A nd           | Website:  www.openfoam.com                      |
|    \\/     M anipulation  |                                                 |
\*---------------------------------------------------------------------------*/
FoamFile
{
    version     2.0;
    format      ascii;
    arch        "LSB;label=32;scalar=64";
    class       volScalarField;
    location    "0";
    object      T;
}
// * * * * * * * * * * * * * * * * * * * * * * * * * * * * * * * * * * * * * //

dimensions      [0 0 0 1 0 0 0];

internalField   nonuniform List<scalar> 
3200
(
347.216
348.012
349.082
349.953
350.823
351.108
351.701
352.25
352.605
352.749
352.786
352.731
351.953
351.84
351.384
350.435
350.008
348.983
348.081
347.25
341.546
342.198
343.142
343.855
344.637
344.89
345.348
345.863
346.142
346.26
346.365
346.266
345.588
345.583
345.124
344.276
343.91
343.04
342.237
341.608
335.647
336.172
336.986
337.556
338.236
338.426
338.773
339.264
339.486
339.528
339.666
339.566
339.008
339.067
338.574
337.901
337.613
336.915
336.214
335.716
329.493
329.931
330.593
331.102
331.63
331.708
332.032
332.453
332.627
332.615
332.804
332.673
332.236
332.268
331.845
331.366
331.116
330.612
329.908
329.556
323.176
323.482
324.055
324.488
324.836
324.801
325.107
325.476
325.578
325.586
325.716
325.548
325.264
325.314
324.975
324.575
324.424
324.039
323.417
323.184
316.693
316.881
317.31
317.675
317.876
317.798
318.04
318.362
318.375
318.375
318.468
318.361
318.141
318.206
317.972
317.64
317.58
317.287
316.818
316.669
310.115
310.195
310.461
310.675
310.802
310.705
310.852
311.062
311.041
311.06
311.163
311.072
310.928
310.97
310.822
310.638
310.61
310.441
310.154
310.049
303.417
303.405
303.54
303.598
303.617
303.58
303.619
303.705
303.706
303.717
303.739
303.72
303.663
303.676
303.627
303.565
303.578
303.529
303.404
303.373
348.059
348.904
349.672
350.619
351.414
352.085
352.678
352.97
353.401
353.648
353.621
353.298
353.014
352.776
352.121
351.249
350.594
349.667
348.928
347.746
342.226
342.934
343.575
344.438
345.083
345.641
346.203
346.479
346.787
347.032
346.989
346.723
346.489
346.272
345.74
344.969
344.442
343.613
342.948
342.004
336.137
336.722
337.326
338.05
338.576
339.047
339.523
339.767
339.974
340.212
340.147
339.933
339.791
339.598
339.152
338.51
338.026
337.359
336.752
336.069
329.843
330.32
330.846
331.508
331.891
332.236
332.652
332.865
333.006
333.178
333.126
332.98
332.922
332.704
332.334
331.849
331.392
330.889
330.429
329.889
323.416
323.765
324.18
324.778
324.991
325.277
325.611
325.79
325.887
325.958
325.96
325.837
325.844
325.676
325.343
324.939
324.635
324.279
323.864
323.506
316.866
317.07
317.387
317.856
317.971
318.178
318.431
318.523
318.588
318.647
318.695
318.582
318.594
318.486
318.205
317.913
317.708
317.484
317.145
316.977
310.191
310.285
310.507
310.807
310.857
310.941
311.109
311.173
311.21
311.221
311.311
311.208
311.231
311.157
311.023
310.836
310.656
310.558
310.353
310.255
303.427
303.449
303.513
303.633
303.663
303.668
303.725
303.768
303.759
303.754
303.822
303.769
303.774
303.745
303.72
303.639
303.563
303.529
303.472
303.44
348.961
350.121
350.644
351.806
352.494
353.095
353.62
353.988
354.456
354.643
354.606
354.262
354.22
353.823
353.111
352.174
351.53
350.501
349.528
348.86
343.013
343.958
344.422
345.447
346.037
346.518
347.022
347.309
347.737
347.852
347.872
347.528
347.549
347.192
346.55
345.794
345.224
344.292
343.469
342.927
336.897
337.625
338.023
338.901
339.381
339.733
340.229
340.425
340.775
340.862
340.937
340.619
340.651
340.361
339.818
339.119
338.728
337.867
337.247
336.818
330.503
331.091
331.429
332.154
332.555
332.781
333.215
333.351
333.651
333.66
333.782
333.52
333.598
333.333
332.891
332.272
332.003
331.277
330.795
330.504
323.915
324.361
324.624
325.224
325.48
325.691
326.009
326.13
326.377
326.333
326.481
326.245
326.343
326.132
325.786
325.268
325.085
324.514
324.132
323.927
317.187
317.523
317.679
318.142
318.288
318.469
318.685
318.795
318.931
318.913
318.996
318.879
318.928
318.783
318.559
318.15
318.044
317.635
317.325
317.19
310.385
310.568
310.669
310.953
311.032
311.103
311.247
311.323
311.412
311.426
311.452
311.4
311.4
311.311
311.211
310.968
310.889
310.63
310.442
310.354
303.499
303.532
303.58
303.681
303.72
303.726
303.773
303.802
303.825
303.846
303.852
303.837
303.819
303.806
303.756
303.686
303.628
303.567
303.504
303.456
349.857
350.856
351.825
352.893
353.469
354.167
354.719
355.081
355.56
355.564
355.73
355.305
355.027
354.776
354.175
353.427
352.721
351.589
350.606
349.776
343.816
344.622
345.403
346.321
346.852
347.435
347.939
348.235
348.668
348.669
348.826
348.38
348.168
347.98
347.489
346.843
346.217
345.258
344.419
343.712
337.513
338.184
338.844
339.619
340.07
340.514
340.906
341.179
341.579
341.595
341.731
341.33
341.168
341.026
340.577
340.059
339.537
338.734
337.985
337.424
330.974
331.51
332.075
332.745
333.123
333.418
333.755
333.953
334.3
334.283
334.447
334.076
333.952
333.83
333.489
333.059
332.648
332.001
331.376
330.891
324.257
324.674
325.117
325.673
326.015
326.126
326.474
326.607
326.865
326.79
326.985
326.676
326.583
326.522
326.259
325.843
325.571
325.099
324.617
324.195
317.433
317.727
318.04
318.431
318.7
318.743
319.031
319.13
319.277
319.228
319.39
319.13
319.128
319.078
318.885
318.531
318.385
318.062
317.684
317.404
310.495
310.681
310.899
311.108
311.261
311.283
311.431
311.519
311.62
311.577
311.684
311.522
311.561
311.528
311.395
311.147
311.074
310.879
310.669
310.507
303.519
303.561
303.668
303.738
303.816
303.79
303.835
303.849
303.905
303.872
303.915
303.866
303.897
303.875
303.817
303.743
303.732
303.656
303.59
303.515
350.915
351.732
352.705
353.956
354.569
355.351
355.886
356.131
356.452
356.574
356.679
356.444
356.311
355.82
355.165
354.431
353.641
352.753
351.599
350.743
344.682
345.386
346.209
347.268
347.758
348.455
348.962
349.162
349.452
349.502
349.613
349.383
349.335
348.882
348.28
347.702
346.927
346.218
345.288
344.564
338.273
338.846
339.506
340.409
340.786
341.405
341.844
341.962
342.241
342.235
342.352
342.145
342.113
341.72
341.228
340.786
340.061
339.473
338.72
338.137
331.658
332.146
332.602
333.358
333.647
334.167
334.523
334.586
334.864
334.763
334.919
334.752
334.722
334.403
334.009
333.653
333.084
332.55
331.939
331.513
324.838
325.193
325.527
326.134
326.377
326.764
327.024
327.1
327.325
327.192
327.352
327.157
327.141
326.935
326.639
326.334
325.978
325.503
324.982
324.739
317.862
318.095
318.351
318.757
318.942
319.226
319.416
319.46
319.649
319.524
319.661
319.444
319.496
319.349
319.157
318.895
318.693
318.349
317.915
317.793
310.757
310.917
311.064
311.329
311.42
311.627
311.698
311.739
311.872
311.775
311.865
311.698
311.758
311.619
311.543
311.383
311.25
311.069
310.798
310.746
303.608
303.668
303.703
303.802
303.845
303.904
303.949
303.93
303.989
303.948
303.991
303.919
303.936
303.894
303.884
303.813
303.767
303.727
303.605
303.615
351.924
352.703
353.8
354.845
355.606
356.33
356.826
357.207
357.455
357.674
357.83
357.592
357.241
356.821
356.077
355.428
354.573
353.565
352.475
351.459
345.531
346.142
347.137
348.009
348.681
349.313
349.761
350.05
350.228
350.462
350.59
350.415
350.131
349.762
349.076
348.504
347.784
346.913
345.944
345.148
338.929
339.411
340.318
341.034
341.604
342.119
342.525
342.714
342.834
343.038
343.162
343.051
342.785
342.51
341.901
341.441
340.873
340.121
339.213
338.632
332.138
332.539
333.296
333.815
334.345
334.739
335.096
335.236
335.29
335.488
335.583
335.477
335.291
335.09
334.522
334.177
333.719
333.115
332.364
331.921
325.212
325.514
326.086
326.478
326.909
327.202
327.503
327.586
327.644
327.766
327.832
327.743
327.63
327.446
326.982
326.813
326.444
325.952
325.338
325.041
318.121
318.333
318.746
319.07
319.289
319.534
319.757
319.819
319.858
319.925
319.946
319.895
319.829
319.718
319.346
319.286
318.982
318.646
318.185
317.999
310.949
311.075
311.303
311.51
311.619
311.77
311.916
311.958
311.969
312.012
312.009
312.015
311.962
311.894
311.648
311.625
311.423
311.242
310.957
310.868
303.695
303.728
303.787
303.862
303.911
303.951
304.025
304.037
304.018
304.032
304.045
304.059
304.028
303.993
303.913
303.897
303.842
303.787
303.668
303.643
352.778
353.542
354.706
355.7
356.61
357.252
357.854
358.104
358.487
358.609
358.752
358.504
358.091
357.753
356.907
356.232
355.413
354.512
353.378
352.437
346.284
346.899
347.908
348.773
349.571
350.136
350.605
350.808
351.119
351.283
351.38
351.201
350.846
350.543
349.793
349.196
348.509
347.728
346.745
346.017
339.585
340.085
340.96
341.71
342.315
342.825
343.19
343.333
343.593
343.742
343.856
343.72
343.344
343.132
342.486
342.007
341.414
340.744
339.921
339.404
332.687
333.117
333.772
334.455
334.86
335.288
335.635
335.713
335.871
336.093
336.202
336.046
335.695
335.521
335.058
334.655
334.152
333.621
332.918
332.581
325.589
325.992
326.438
327.031
327.269
327.629
327.938
327.972
328.073
328.266
328.327
328.266
327.885
327.803
327.474
327.125
326.727
326.368
325.78
325.55
318.379
318.692
318.966
319.401
319.586
319.852
320.136
320.095
320.152
320.297
320.308
320.32
320.047
319.969
319.712
319.48
319.202
318.929
318.535
318.359
311.047
311.278
311.483
311.682
311.79
311.979
312.16
312.098
312.146
312.196
312.247
312.267
312.083
312.049
311.874
311.754
311.562
311.429
311.158
311.049
303.696
303.804
303.856
303.916
303.964
304.038
304.065
304.06
304.064
304.097
304.121
304.113
304.059
304.048
303.991
303.938
303.874
303.847
303.747
303.722
353.404
354.245
355.469
356.463
357.44
357.902
358.763
358.955
359.488
359.612
359.56
359.411
358.947
358.63
357.872
357.356
356.46
355.307
354.278
353.284
346.843
347.518
348.579
349.429
350.222
350.678
351.36
351.549
351.977
352.106
352.122
351.988
351.562
351.282
350.619
350.16
349.434
348.41
347.567
346.742
340.091
340.609
341.466
342.171
342.849
343.234
343.799
343.998
344.314
344.426
344.478
344.382
344.028
343.72
343.186
342.785
342.203
341.336
340.651
339.984
333.136
333.516
334.185
334.755
335.283
335.657
336.043
336.271
336.512
336.579
336.67
336.605
336.321
336.051
335.622
335.257
334.788
334.116
333.562
333.023
325.955
326.263
326.799
327.199
327.627
327.973
328.212
328.373
328.583
328.579
328.652
328.697
328.465
328.239
327.884
327.56
327.234
326.725
326.278
325.882
318.636
318.839
319.247
319.533
319.815
320.119
320.247
320.378
320.54
320.508
320.556
320.633
320.439
320.259
320.038
319.778
319.566
319.208
318.861
318.582
311.193
311.35
311.611
311.785
311.918
312.133
312.176
312.263
312.408
312.377
312.401
312.445
312.333
312.2
312.071
311.934
311.794
311.605
311.359
311.203
303.737
303.808
303.904
303.959
303.995
304.078
304.074
304.101
304.145
304.175
304.161
304.177
304.152
304.078
304.048
304.021
303.964
303.905
303.822
303.767
354.223
355.094
356.177
357.19
358.301
358.944
359.522
359.969
360.352
360.363
360.427
360.293
359.921
359.45
358.69
358.183
357.303
356.113
354.961
353.93
347.562
348.237
349.223
350.007
350.978
351.544
352.032
352.463
352.751
352.795
352.812
352.744
352.41
352.022
351.344
350.925
350.133
349.123
348.138
347.268
340.702
341.183
342.095
342.659
343.477
344.012
344.419
344.741
344.957
345.027
345.038
344.972
344.679
344.397
343.791
343.446
342.821
341.985
341.123
340.418
333.601
333.994
334.724
335.171
335.841
336.269
336.633
336.889
336.995
337.086
337.086
337.084
336.824
336.6
336.075
335.868
335.3
334.641
333.935
333.366
326.356
326.642
327.207
327.554
328.044
328.385
328.634
328.897
328.956
328.995
328.989
329.054
328.868
328.684
328.231
328.072
327.653
327.153
326.566
326.131
318.967
319.144
319.559
319.827
320.105
320.396
320.523
320.797
320.81
320.798
320.799
320.917
320.743
320.567
320.297
320.14
319.855
319.52
319.09
318.788
311.442
311.542
311.811
311.943
312.081
312.294
312.325
312.536
312.566
312.549
312.534
312.639
312.493
312.386
312.226
312.126
311.943
311.777
311.515
311.346
303.859
303.88
303.959
304.017
304.056
304.134
304.129
304.204
304.227
304.212
304.207
304.244
304.194
304.152
304.109
304.064
304.023
303.96
303.882
303.818
354.94
355.829
357.001
358.006
359.107
359.81
360.306
360.743
360.974
361.279
361.229
361.13
360.673
360.251
359.545
358.974
357.83
356.868
355.45
354.653
348.14
348.853
349.874
350.749
351.717
352.337
352.737
353.086
353.305
353.566
353.459
353.398
353.053
352.723
352.04
351.583
350.596
349.806
348.571
347.958
341.124
341.689
342.54
343.348
344.157
344.656
344.968
345.271
345.408
345.644
345.568
345.559
345.26
345.031
344.409
344.018
343.129
342.577
341.497
341.039
333.948
334.398
335.025
335.765
336.421
336.836
337.068
337.324
337.409
337.571
337.581
337.52
337.29
337.123
336.613
336.259
335.507
335.159
334.238
333.892
326.57
326.934
327.418
328.047
328.557
328.816
328.986
329.2
329.295
329.398
329.418
329.386
329.21
329.079
328.632
328.401
327.844
327.565
326.835
326.601
319.098
319.35
319.718
320.148
320.53
320.686
320.8
320.947
321.069
321.105
321.155
321.13
320.985
320.842
320.569
320.411
320.029
319.833
319.273
319.155
311.516
311.664
311.904
312.179
312.407
312.446
312.527
312.624
312.711
312.728
312.728
312.741
312.644
312.54
312.392
312.283
312.074
311.958
311.645
311.563
303.86
303.936
304.002
304.105
304.166
304.172
304.192
304.229
304.27
304.283
304.294
304.298
304.225
304.192
304.158
304.132
304.054
304.024
303.911
303.88
355.438
356.316
357.55
358.578
359.764
360.394
361.12
361.56
361.827
361.766
361.906
361.833
361.422
361.017
360.396
359.517
358.471
357.464
356.234
355.133
348.547
349.26
350.387
351.283
352.32
352.8
353.428
353.798
354.016
353.931
354.093
354.051
353.737
353.353
352.787
352.074
351.125
350.29
349.206
348.278
341.478
342.063
343.014
343.753
344.692
345.062
345.568
345.845
346.02
345.952
346.124
346.088
345.826
345.497
345.023
344.457
343.593
342.924
341.989
341.253
334.231
334.723
335.465
336.071
336.866
337.103
337.552
337.783
337.847
337.865
337.972
337.974
337.744
337.462
337.055
336.634
335.892
335.41
334.618
334.03
326.805
327.18
327.739
328.209
328.871
329.027
329.398
329.584
329.592
329.624
329.714
329.733
329.515
329.301
328.991
328.635
328.089
327.76
327.045
326.668
319.248
319.504
319.912
320.259
320.745
320.8
321.13
321.246
321.23
321.288
321.357
321.383
321.185
321.036
320.819
320.557
320.154
319.959
319.417
319.189
311.616
311.746
311.974
312.207
312.515
312.552
312.761
312.793
312.794
312.863
312.907
312.864
312.789
312.631
312.577
312.377
312.148
312.034
311.696
311.569
303.899
303.95
304.018
304.089
304.195
304.227
304.282
304.295
304.279
304.329
304.353
304.321
304.285
304.234
304.213
304.163
304.06
304.054
303.917
303.871
355.953
356.945
358.116
359.205
360.125
361.135
361.643
361.945
362.433
362.462
362.382
362.517
362.215
361.61
360.838
359.987
359.014
358.045
356.824
355.615
349.033
349.835
350.834
351.684
352.602
353.47
353.912
354.149
354.538
354.509
354.482
354.631
354.392
353.861
353.179
352.412
351.579
350.787
349.752
348.689
341.91
342.53
343.374
344.053
344.91
345.612
345.935
346.158
346.481
346.476
346.444
346.561
346.393
345.931
345.363
344.659
343.942
343.352
342.506
341.581
334.568
335.049
335.776
336.27
337.006
337.575
337.805
338.066
338.283
338.26
338.227
338.348
338.224
337.815
337.362
336.78
336.165
335.712
335.006
334.258
327.076
327.44
328.019
328.354
328.973
329.408
329.573
329.824
329.955
329.941
329.917
330.012
329.933
329.577
329.267
328.737
328.287
327.902
327.371
326.843
319.423
319.721
320.136
320.32
320.796
321.111
321.213
321.448
321.499
321.498
321.477
321.514
321.501
321.194
321.041
320.604
320.292
320.03
319.637
319.256
311.702
311.897
312.116
312.225
312.527
312.748
312.78
312.964
312.943
312.953
312.918
312.936
312.959
312.747
312.69
312.411
312.212
312.086
311.841
311.582
303.94
303.997
304.08
304.088
304.224
304.273
304.299
304.365
304.327
304.345
304.341
304.343
304.361
304.275
304.263
304.172
304.119
304.07
303.979
303.87
356.681
357.506
358.665
359.601
360.49
361.566
362.199
362.685
363.008
362.962
363.005
363.116
362.728
362.024
361.39
360.489
359.555
358.638
357.139
356.213
349.676
350.304
351.31
352.098
352.877
353.805
354.318
354.798
355.063
354.964
355.036
355.147
354.84
354.217
353.626
352.918
352.054
351.283
349.993
349.26
342.425
342.967
343.793
344.441
345.104
345.848
346.277
346.741
346.956
346.832
346.913
347.026
346.749
346.24
345.728
345.154
344.379
343.738
342.695
342.071
334.975
335.408
336.126
336.631
337.194
337.779
338.108
338.523
338.643
338.542
338.584
338.718
338.468
338.115
337.656
337.182
336.557
336.056
335.217
334.685
327.376
327.733
328.28
328.671
329.133
329.563
329.814
330.127
330.203
330.203
330.108
330.278
330.09
329.838
329.428
329.11
328.645
328.25
327.577
327.166
319.625
319.895
320.352
320.575
320.915
321.232
321.396
321.573
321.712
321.713
321.579
321.711
321.598
321.437
321.11
320.916
320.554
320.26
319.822
319.523
311.799
312.013
312.285
312.373
312.596
312.825
312.889
312.989
313.079
313.108
313.001
313.082
313
312.927
312.701
312.629
312.372
312.219
311.994
311.755
303.96
304.035
304.123
304.173
304.235
304.316
304.331
304.367
304.388
304.41
304.357
304.375
304.342
304.335
304.257
304.245
304.147
304.102
304.031
303.942
356.967
357.904
359.177
360.113
361.061
362.068
362.787
363.11
363.443
363.536
363.433
363.304
362.852
362.508
361.766
360.772
359.984
359.058
357.612
356.696
349.918
350.699
351.748
352.598
353.355
354.249
354.836
355.12
355.431
355.489
355.434
355.26
354.889
354.667
353.985
353.108
352.462
351.652
350.44
349.678
342.634
343.301
344.121
344.892
345.511
346.249
346.773
346.963
347.233
347.294
347.254
347.079
346.792
346.641
346.025
345.28
344.752
344.057
343.122
342.45
335.127
335.709
336.331
337.058
337.507
338.118
338.523
338.643
338.861
338.954
338.903
338.767
338.577
338.404
337.934
337.334
336.861
336.336
335.601
335.047
327.447
327.937
328.413
329.037
329.38
329.834
330.085
330.215
330.357
330.471
330.418
330.327
330.231
330.059
329.696
329.233
328.842
328.488
327.937
327.477
319.701
320.006
320.391
320.872
321.159
321.421
321.565
321.683
321.749
321.85
321.835
321.767
321.728
321.651
321.279
320.998
320.699
320.479
320.064
319.747
311.88
312.031
312.279
312.565
312.799
312.923
312.971
313.036
313.066
313.156
313.193
313.104
313.125
313.064
312.798
312.638
312.463
312.345
312.112
311.93
303.978
304.016
304.114
304.222
304.295
304.347
304.338
304.372
304.379
304.419
304.444
304.403
304.414
304.398
304.298
304.232
304.157
304.135
304.067
304.01
357.155
358.063
359.479
360.61
361.437
362.341
363.091
363.043
363.566
363.914
363.982
363.631
363.35
362.632
361.991
361.211
360.385
359.297
358.038
357.064
350.016
350.779
352.072
352.976
353.714
354.533
355.093
355.072
355.571
355.859
355.883
355.565
355.288
354.744
354.153
353.483
352.778
351.879
350.819
349.976
342.724
343.35
344.483
345.143
345.808
346.524
346.97
346.963
347.404
347.603
347.665
347.324
347.102
346.683
346.176
345.58
345.005
344.249
343.415
342.669
335.242
335.731
336.648
337.192
337.739
338.37
338.697
338.693
339.035
339.172
339.268
338.939
338.785
338.431
338.063
337.554
337.107
336.483
335.82
335.214
327.63
327.976
328.647
329.125
329.507
330.058
330.248
330.268
330.51
330.62
330.72
330.425
330.344
330.042
329.767
329.371
329.076
328.526
328.026
327.578
319.857
320.092
320.583
320.907
321.201
321.573
321.683
321.705
321.888
321.993
322.077
321.8
321.75
321.576
321.346
321.121
320.865
320.487
320.108
319.801
311.977
312.117
312.398
312.591
312.765
312.988
313.052
313.137
313.182
313.249
313.309
313.138
313.089
312.985
312.839
312.717
312.574
312.348
312.094
311.942
304.029
304.078
304.176
304.197
304.274
304.342
304.378
304.405
304.423
304.443
304.476
304.406
304.397
304.348
304.279
304.257
304.217
304.155
304.076
304.034
357.385
358.334
359.594
360.485
361.447
362.458
363.034
363.407
364.043
364.147
364.136
363.669
363.49
362.927
362.306
361.521
360.419
359.293
358.37
357.375
350.255
351.054
352.112
352.866
353.706
354.584
355.047
355.34
355.943
356.061
356.041
355.617
355.458
354.973
354.42
353.748
352.857
351.852
351.095
350.27
342.906
343.599
344.475
345.064
345.8
346.576
346.921
347.181
347.658
347.806
347.785
347.401
347.249
346.867
346.346
345.846
345.066
344.242
343.611
342.914
335.412
336.005
336.672
337.146
337.767
338.406
338.681
338.876
339.239
339.41
339.341
339.001
338.879
338.543
338.152
337.78
337.107
336.503
335.931
335.372
327.782
328.253
328.7
329.071
329.552
330.06
330.317
330.412
330.645
330.849
330.77
330.508
330.426
330.082
329.844
329.508
328.997
328.582
328.081
327.674
319.984
320.342
320.615
320.868
321.2
321.563
321.769
321.829
321.945
322.112
322.043
321.914
321.85
321.583
321.401
321.147
320.771
320.568
320.117
319.88
312.059
312.258
312.438
312.545
312.766
312.968
313.133
313.142
313.198
313.298
313.267
313.2
313.176
313.008
312.892
312.718
312.523
312.401
312.095
311.969
304.054
304.106
304.181
304.216
304.279
304.347
304.414
304.397
304.422
304.466
304.445
304.416
304.428
304.377
304.326
304.267
304.21
304.16
304.058
304.024
357.48
358.415
359.964
360.842
361.809
362.681
363.233
363.758
364.083
364.399
364.23
363.865
363.573
363.194
362.533
361.714
360.843
359.535
358.343
357.571
350.346
351.059
352.486
353.173
353.972
354.75
355.243
355.741
355.982
356.303
356.069
355.797
355.522
355.195
354.631
353.954
353.186
352.072
351.057
350.441
343.011
343.626
344.805
345.316
346.006
346.628
347.103
347.494
347.674
347.966
347.744
347.565
347.359
347.04
346.533
346.009
345.359
344.421
343.582
343.063
335.431
336.043
336.917
337.329
337.877
338.359
338.833
339.119
339.221
339.468
339.312
339.177
339.01
338.709
338.306
337.879
337.333
336.595
335.926
335.531
327.696
328.308
328.87
329.217
329.626
329.961
330.384
330.603
330.637
330.84
330.749
330.618
330.533
330.26
329.943
329.629
329.193
328.637
328.121
327.81
319.866
320.378
320.713
320.98
321.239
321.496
321.781
321.997
322.001
322.126
322.093
321.959
321.903
321.71
321.464
321.281
320.931
320.557
320.181
319.951
311.961
312.301
312.48
312.648
312.798
312.975
313.134
313.237
313.236
313.333
313.3
313.219
313.189
313.085
312.91
312.824
312.606
312.409
312.148
312.025
304.021
304.133
304.182
304.237
304.301
304.369
304.418
304.446
304.435
304.476
304.47
304.428
304.43
304.379
304.334
304.275
304.227
304.165
304.072
304.027
357.439
358.611
359.939
361.121
361.914
362.745
363.42
363.847
364.201
364.351
364.297
364.127
363.578
363.179
362.638
361.549
360.767
359.746
358.488
357.606
350.281
351.321
352.447
353.418
354.117
354.798
355.377
355.77
356.078
356.227
356.168
355.993
355.546
355.165
354.721
353.832
353.098
352.194
351.208
350.458
342.916
343.811
344.797
345.542
346.198
346.659
347.165
347.556
347.725
347.949
347.852
347.707
347.371
346.958
346.594
345.894
345.267
344.514
343.726
343.094
335.403
336.114
336.983
337.509
338.082
338.424
338.829
339.19
339.307
339.5
339.399
339.251
338.989
338.654
338.358
337.784
337.28
336.702
336.028
335.542
327.695
328.268
328.962
329.353
329.784
330.051
330.336
330.653
330.727
330.889
330.795
330.714
330.456
330.257
329.945
329.539
329.132
328.74
328.166
327.882
319.87
320.308
320.788
321.052
321.383
321.562
321.774
321.982
322.075
322.164
322.069
322.02
321.835
321.705
321.45
321.2
320.838
320.626
320.168
320.09
311.974
312.249
312.531
312.678
312.851
313.024
313.122
313.226
313.293
313.338
313.299
313.235
313.176
313.069
312.923
312.77
312.543
312.4
312.117
312.118
304.008
304.113
304.214
304.244
304.308
304.38
304.4
304.438
304.466
304.471
304.472
304.434
304.417
304.412
304.338
304.304
304.218
304.149
304.061
304.075
357.57
358.444
359.971
360.942
362.006
362.777
363.458
363.829
364.284
364.437
364.268
364.087
363.668
363.216
362.644
361.667
360.772
359.637
358.422
357.444
350.406
351.157
352.445
353.253
354.223
354.848
355.45
355.793
356.173
356.306
356.122
356.02
355.651
355.231
354.759
353.875
353.089
352.141
351.107
350.319
343.049
343.696
344.709
345.409
346.259
346.72
347.274
347.546
347.861
347.995
347.794
347.783
347.432
347.039
346.653
345.925
345.289
344.473
343.608
342.976
335.522
336.052
336.88
337.419
338.116
338.442
338.929
339.178
339.367
339.543
339.333
339.35
339.036
338.716
338.429
337.797
337.309
336.641
335.968
335.464
327.807
328.262
328.903
329.319
329.844
330.075
330.408
330.643
330.74
330.912
330.785
330.786
330.524
330.249
330.037
329.56
329.14
328.651
328.136
327.767
319.985
320.3
320.777
321.063
321.454
321.583
321.792
321.998
322.08
322.17
322.093
322.106
321.909
321.696
321.56
321.21
320.873
320.567
320.162
319.935
312.081
312.224
312.514
312.72
312.924
312.991
313.127
313.23
313.269
313.333
313.327
313.303
313.198
313.046
313.022
312.786
312.566
312.364
312.124
312.011
304.058
304.107
304.198
304.277
304.337
304.368
304.4
304.447
304.438
304.474
304.472
304.474
304.443
304.386
304.362
304.268
304.215
304.153
304.08
304.021
357.523
358.555
359.954
360.683
362.024
362.972
363.337
363.964
364.424
364.33
364.265
364.125
363.908
363.267
362.459
361.784
360.468
359.396
358.387
357.176
350.39
351.171
352.48
353.054
354.222
355.076
355.314
355.882
356.302
356.228
356.11
356.021
355.833
355.303
354.589
354.017
352.816
351.967
351.02
350.083
343.026
343.713
344.78
345.33
346.27
346.979
347.148
347.662
347.994
347.966
347.737
347.756
347.586
347.159
346.564
346.06
344.995
344.365
343.546
342.78
335.494
336.067
336.9
337.405
338.145
338.678
338.839
339.258
339.509
339.542
339.273
339.294
339.139
338.834
338.349
337.926
337.065
336.57
335.91
335.293
327.814
328.263
328.898
329.272
329.866
330.244
330.339
330.735
330.879
330.96
330.728
330.703
330.542
330.405
329.943
329.66
329.012
328.6
328.12
327.66
319.965
320.282
320.755
321.03
321.452
321.691
321.761
322.107
322.147
322.198
322.05
322.055
321.888
321.824
321.472
321.28
320.818
320.54
320.223
319.871
312.016
312.223
312.496
312.675
312.92
313.068
313.064
313.345
313.336
313.356
313.258
313.257
313.169
313.155
312.917
312.832
312.555
312.411
312.201
311.956
304.032
304.099
304.188
304.243
304.339
304.391
304.375
304.479
304.476
304.468
304.442
304.456
304.422
304.417
304.372
304.293
304.214
304.171
304.103
304.002
)
;

boundaryField
{
    hotSide
    {
        type            fixedGradient;
        gradient        nonuniform List<scalar> 
400
(
433.855
446.262
458.254
469.779
480.783
491.215
501.025
510.166
518.594
526.264
533.139
539.183
544.365
548.655
552.032
554.476
555.974
556.516
556.097
554.72
445.87
458.638
470.981
482.844
494.172
504.914
515.017
524.434
533.117
541.023
548.111
554.346
559.693
564.126
567.619
570.153
571.714
572.292
571.883
570.487
456.726
469.821
482.481
494.65
506.274
517.296
527.666
537.332
546.247
554.367
561.649
568.057
573.557
578.119
581.718
584.335
585.955
586.567
586.167
584.755
466.352
479.738
492.68
505.122
517.007
528.28
538.886
548.775
557.897
566.208
573.663
580.226
585.862
590.54
594.234
596.926
598.598
599.242
598.851
597.427
474.689
488.326
501.514
514.193
526.305
537.795
548.607
558.689
567.992
576.468
584.075
590.772
596.526
601.305
605.084
607.841
609.56
610.231
609.85
608.415
481.685
495.535
508.928
521.806
534.11
545.782
556.767
567.012
576.466
585.082
592.816
599.628
605.482
610.347
614.196
617.009
618.768
619.464
619.09
617.648
487.301
501.32
514.879
527.917
540.374
552.193
563.318
573.694
583.27
591.998
599.835
606.739
612.673
617.608
621.514
624.372
626.164
626.88
626.513
625.066
491.503
505.65
519.332
532.49
545.062
556.991
568.22
578.694
588.362
597.175
605.088
612.061
618.056
623.043
626.993
629.885
631.701
632.432
632.072
630.621
494.271
508.501
522.264
535.5
548.148
560.149
571.446
581.985
591.713
600.581
608.545
615.564
621.6
626.62
630.599
633.514
635.348
636.089
635.733
634.279
495.589
509.858
523.66
536.932
549.616
561.651
572.98
583.549
593.305
602.2
610.188
617.228
623.283
628.321
632.314
635.239
637.081
637.828
637.475
636.021
495.453
509.716
523.512
536.78
549.458
561.489
572.814
583.379
593.132
602.024
610.009
617.047
623.1
628.136
632.128
635.053
636.894
637.642
637.289
635.836
493.865
508.078
521.826
535.046
547.68
559.667
570.952
581.479
591.196
600.055
608.011
615.022
621.052
626.069
630.044
632.957
634.79
635.533
635.179
633.728
490.836
504.955
518.611
531.744
544.292
556.199
567.407
577.861
587.512
596.309
604.209
611.17
617.156
622.135
626.08
628.968
630.784
631.517
631.16
629.713
486.386
500.367
513.89
526.893
539.318
551.106
562.201
572.551
582.103
590.81
598.628
605.515
611.437
616.361
620.26
623.113
624.904
625.621
625.259
623.819
480.541
494.343
507.69
520.525
532.787
544.42
555.369
565.581
575.005
583.593
591.304
598.095
603.932
608.784
612.624
615.431
617.189
617.886
617.518
616.085
473.337
486.919
500.052
512.679
524.742
536.185
546.954
556.996
566.262
574.706
582.284
588.958
594.692
599.455
603.222
605.972
607.689
608.363
607.987
606.563
464.82
478.141
491.022
503.404
515.233
526.452
537.009
546.852
555.932
564.205
571.628
578.163
583.776
588.435
592.117
594.8
596.469
597.115
596.731
595.319
455.042
468.065
480.657
492.76
504.32
515.283
525.598
535.213
544.082
552.16
559.406
565.782
571.256
575.797
579.382
581.989
583.605
584.219
583.826
582.427
444.066
456.756
469.024
480.815
492.075
502.752
512.795
522.156
530.788
538.649
545.697
551.897
557.216
561.626
565.103
567.626
569.183
569.762
569.36
567.978
431.962
444.286
456.199
467.647
478.578
488.941
498.687
507.769
516.142
523.764
530.596
536.603
541.753
546.019
549.378
551.81
553.302
553.845
553.434
552.07
)
;
    }
    coldSide
    {
        type            mixed;
        refValue        uniform 300;
        refGradient     uniform 0;
        valueFraction   uniform 0.991591;
        source          uniform 0;
        value           nonuniform List<scalar> 
400
(
300.029
300.029
300.029
300.03
300.03
300.031
300.031
300.031
300.032
300.032
300.033
300.033
300.033
300.033
300.034
300.034
300.034
300.034
300.034
300.034
300.029
300.029
300.03
300.03
300.031
300.031
300.032
300.032
300.033
300.033
300.033
300.034
300.034
300.034
300.034
300.035
300.035