/*--------------------------------*- C++ -*----------------------------------*\
| =========                 |                                                 |
| \\      /  F ield         | OpenFOAM: The Open Source CFD Toolbox           |
|  \\    /   O peration     | Version:  2212                                  |
|   \\  /    A nd           | Website:  www.openfoam.com                      |
|    \\/     M anipulation  |                                                 |
\*---------------------------------------------------------------------------*/
FoamFile
{
    version     2.0;
    format      ascii;
    arch        "LSB;label=32;scalar=64";
    class       volScalarField;
    location    "0";
    object      relativeErrorField;
}
// * * * * * * * * * * * * * * * * * * * * * * * * * * * * * * * * * * * * * //

dimensions      [0 0 0 1 0 0 0];

internalField   nonuniform List<scalar> 
3200
(
0.00462409
0.0117358
0.00869064
0.00822435
0.00693013
0.0138698
0.0107454
0.0114788
0.0103524
0.00473044
0.0108145
0.0102418
0.00930891
0.00814163
0.0120774
0.0115167
0.00437773
0.00740579
0.0013043
0.0026326
0.0045041
0.000752154
0.00290571
0.00519594
0.00732259
0.00409567
0.00637561
0.00647237
0.00784324
0.0129644
0.0117581
0.00788087
0.00733797
0.00482067
0.00584151
0.0041937
0.00660632
0.00827037
0.00474713
0.00408061
6.13673e-05
0.00288264
0.00334842
0.00450942
0.00228179
0.00755219
0.0056734
0.00878578
0.0052685
0.00827092
0.00914506
0.00610035
0.00835657
0.00523205
0.00301498
0.00842365
0.00822748
0.00385049
0.000566162
0.00364928
0.000280074
0.00246284
0.00518167
0.00581445
0.00692083
0.010702
0.00472896
0.000800187
0.00778928
0.00628517
0.00348277
0.00405774
0.0132183
0.00804419
0.00377458
0.00310495
0.00649154
0.00129607
0.00345347
0.00205179
0.00337754
0.002518
0.00313684
0.000565119
0.00222707
0.00455869
2.92371e-05
0.00469558
0.000499002
0.0019544
0.0027813
0.00394352
0.00489553
0.00376612
0.000338944
0.00470036
0.000598175
0.00461037
0.0019234
0.00366267
0.00208433
0.000734223
0.00151272
0.00221131
0.00446963
0.00471755
0.00201234
0.00278058
0.00084621
0.000872367
0.00739701
0.00179461
0.00814528
0.00039091
0.0039976
0.00291564
0.00186848
0.002509
0.0052001
0.00326127
0.000319993
0.00148348
0.00250315
0.000779487
0.00549591
5.51955e-05
0.000774712
0.00223189
0.00130503
0.000300967
0.00600652
0.00289117
0.00255318
0.00376482
0.00495468
0.000809386
0.00440144
0.00477318
0.00324044
0.00288266
0.00395879
0.00580407
0.00159791
0.00245352
0.00818896
0.00114808
0.00313898
0.00244015
0.000945951
0.00220023
0.00354291
0.0079541
0.00611206
0.00080867
0.00331713
2.72616e-05
0.000298316
0.00240277
0.00200267
0.00535558
0.00304176
0.000198339
0.00399092
0.00528648
0.00868423
0.00998374
0.00719748
0.0105473
0.0108202
0.0102285
0.00851676
0.00838353
0.00260024
0.00618954
0.0021427
0.0052914
0.00541864
0.00904641
0.00436423
3.37009e-05
0.00371446
0.00019938
0.00638068
0.00202973
0.0024563
0.000325705
0.0117796
0.000870656
0.0111146
0.000549936
0.00153055
0.00646013
0.00114722
0.00769118
0.00062366
0.00632784
0.00185322
0.00784388
0.00118492
0.00324242
2.16683e-05
0.00134299
0.00104914
0.00394732
0.00469645
0.00764296
0.00925608
0.0103536
0.00542902
0.00951376
0.00373074
0.00443458
0.00530998
0.00183849
0.00803256
0.00802152
0.00577047
0.00273359
0.00499758
0.00589057
0.00321819
0.00142734
0.0107521
0.00104784
0.00438683
0.0103898
0.00300784
0.00179541
0.00363487
0.00768764
0.00841331
0.00355238
0.00130224
0.00369506
0.00188108
0.0010381
0.00555716
0.00768841
0.00419505
0.000275018
0.00253073
0.000882068
0.00100212
0.0025032
0.00210825
0.00442174
0.00243039
0.00308791
0.00882789
0.00553396
0.00269831
0.00350977
0.00401152
0.00327422
0.0016115
0.00335114
0.00376316
0.00736551
0.000304128
0.00124648
0.00194738
0.00052161
0.00398638
0.00199548
0.00276497
0.000778647
0.00536166
0.00157823
0.000169075
0.00341797
0.00646753
0.00500246
0.00524685
0.000202741
0.000752098
0.00104276
0.00982877
0.00301557
0.00370199
0.00166772
0.00192602
0.000851511
0.00573817
0.00149361
0.00346012
0.00704809
0.00235854
0.000184402
0.00119693
0.00120302
0.005066
0.00500699
0.00176299
0.00421024
0.000986719
0.00248302
0.00153413
0.000555471
0.00163652
0.00151438
0.00242553
0.000358789
0.00444882
0.000511739
0.00193522
0.00214724
0.00380393
0.00197818
0.000770681
0.00116871
0.000836734
0.00211024
0.00336638
0.0010811
0.006508
0.00384786
0.00473361
0.00121066
0.00527726
0.00139213
0.00431842
0.00469125
0.00778182
0.00884933
0.0131668
0.00802501
0.00883177
0.00961245
0.00372804
0.00700984
0.00241605
0.00710624
0.00671508
0.00363957
0.00547175
0.0100677
0.0102715
0.00453199
0.00535289
0.00022001
0.00702503
0.00203832
0.00334161
0.00682397
0.00620993
0.00453789
0.00632065
0.00334199
0.00761501
0.00909612
0.000623835
0.00729294
0.00445268
0.00410932
0.00905091
0.00923482
0.00247663
0.00186945
0.00150448
0.002605
0.000630347
0.00104119
0.00102046
0.00585185
0.0132681
0.00611575
0.00327056
0.00721668
0.0056922
0.00145549
0.00658949
0.00338803
0.00562043
0.00427901
0.00220686
0.00650821
0.00934261
0.00188855
0.00317813
0.00587125
0.00192664
0.00475963
0.00442585
0.00931212
0.00399419
0.00281651
0.00716352
0.00346173
0.00810176
0.000397515
0.00536538
0.00323724
0.00423508
0.00029573
0.00609944
0.0094174
0.00406443
0.000531202
0.000317013
0.00664517
0.00610084
9.0935e-05
0.00479271
0.0042367
0.00802601
0.00604798
0.00846003
0.00434525
0.00424746
0.000391269
0.00175568
0.00603815
0.0020121
0.00747819
0.00543733
0.00490555
0.000798291
0.00378795
0.00204234
0.000107645
0.00508761
0.00724124
0.00322091
0.000839664
0.00173385
0.000318853
0.00233159
0.00280248
0.0004783
0.00195045
0.000717973
0.00987412
0.00173641
0.00457222
0.00793948
0.00479367
0.000551436
0.00532673
0.000124473
0.000941749
8.1254e-05
0.0021184
0.00133432
0.00374426
0.0049263
0.00128996
0.004362
0.000607763
0.000372887
0.00175007
0.00442193
0.0048668
0.00448136
0.00387081
0.00100008
0.00457141
0.000358971
0.000290783
0.00104023
0.00400846
0.00187739
0.00162382
0.00135924
0.00311526
0.0021873
0.000403244
0.000175416
0.00257493
0.00497777
0.00255488
0.00556756
0.000964884
0.00146782
0.000955736
0.00259325
0.00704372
0.00401663
0.0006485
0.00190462
4.05001e-05
0.00368211
0.00110773
0.00498655
0.00865134
0.00454656
0.00371738
0.00705379
0.00470156
0.00437819
0.00274343
0.00491223
0.00574943
0.00495943
0.00690572
0.00769304
0.00713825
0.0084587
0.00760734
0.00167884
0.00314016
0.00376722
0.000529098
0.00277655
0.00116335
0.00260676
4.57129e-05
0.00424034
0.000126593
0.00657542
0.00143985
0.00048064
0.00552793
0.000321887
0.00362143
0.00114641
0.00806491
0.000478392
0.0056314
0.00109049
0.00204163
0.00429885
0.000352293
0.00376654
0.00199675
0.00270516
0.00503551
0.00326795
0.00181451
0.00681127
0.000352925
0.0033549
0.00152262
0.00387605
0.00442019
0.00791847
0.00825174
0.00525704
0.00654533
0.000932948
0.00396815
0.000410135
0.00141182
0.00300462
0.00177153
0.00619099
0.00480153
0.00165594
0.00545895
0.00143029
0.0028871
0.00394105
0.00270801
0.00461066
0.00853209
0.00589094
0.00222276
0.00402235
2.12385e-06
0.00476495
0.00190478
0.0031826
0.00189203
0.00198607
0.00101592
0.0042184
0.00742698
0.00220744
0.00371054
0.00415659
0.00734897
8.8296e-05
0.0024136
0.00459197
0.000196611
5.95257e-05
0.000184008
0.000234769
0.00171592
0.0016239
0.00316431
0.00865841
0.00428991
0.00160239
0.00155169
0.00103153
0.00225118
0.00362214
0.00219815
0.00549227
0.000709781
0.00200781
0.0032856
7.98788e-06
0.00318743
0.000881937
0.00509648
0.0034435
0.00321011
0.00196218
0.00298738
0.00158863
0.0033608
0.000243322
0.00181074
0.00584792
0.00188298
0.00273594
0.00229394
0.000316129
0.00493319
0.00207383
0.0032014
0.00119807
0.00113643
0.00546035
0.00430901
0.0050175
0.00268509
0.00342915
0.00402882
8.33602e-05
0.00383178
0.00650718
0.00135567
0.00373258
0.00332693
0.00377327
0.00222021
0.00157765
0.00349217
0.0073727
0.00220975
0.00274154
0.00148447
0.00128651
0.00184584
0.0031461
0.00188152
0.000559522
0.00259929
0.00132862
0.00194285
0.00276275
0.00227966
0.0152223
0.00528812
0.0043001
0.000814822
0.00420162
0.000808437
0.0013308
0.000389575
0.000425629
0.00403536
0.00337454
0.00585077
0.00324817
0.00557533
0.00479268
0.00531871
0.00618788
0.00224464
0.00456577
0.00576695
0.0075421
0.00598016
0.00380951
0.000660676
0.00325952
0.000177082
0.0034957
0.00216208
0.00248898
0.000928418
0.00342363
0.00503317
0.00560413
0.0023564
0.00203494
0.00490868
0.00153872
0.00417384
0.000649655
0.00475545
0.00184892
0.00514358
0.000498864
0.00201553
0.00454826
0.000868845
0.00132799
0.000138223
0.000317317
0.00668837
0.00819932
0.0012059
0.00248983
0.00288063
0.00328414
0.00136337
0.00848032
0.000211412
0.00435778
0.00228536
0.00296829
0.00933477
0.0051657
0.0030651
0.00368306
0.00432885
0.00455429
0.000310557
0.00215409
0.00510047
0.00299014
0.00551413
0.00564563
0.00288412
0.00114744
0.00429392
6.49881e-05
0.00290515
0.00307722
0.00811682
0.00169044
0.0039478
0.00175469
0.00319613
0.00375562
0.00161839
0.00203259
0.0064104
0.00419568
0.000158329
0.00295271
0.00506212
0.00916538
0.00528789
0.00442162
0.00103574
0.00645542
0.00282681
0.00101794
0.000192818
0.00339155
0.00288403
0.0022042
0.00275492
0.000671623
0.00231136
0.00129751
0.00299658
0.0006234
0.000618264
0.00165734
0.00489826
0.00213824
0.00248023
0.00217807
0.000635344
0.000510344
0.00501018
0.00171966
0.00607798
0.00180636
0.000152332
0.000677668
0.00522347
0.000712703
0.00519982
0.00361418
0.00255376
0.00155214
0.00548789
0.00175311
0.00569229
1.3103e-05
0.00185739
0.00132064
0.00165575
0.00707921
0.00224287
0.000318066
0.00685134
0.00059557
0.00249643
0.000758806
0.001098
0.00562249
0.00538683
0.0041384
0.00207417
0.00163534
7.93776e-05
0.000770377
0.00010433
2.28635e-05
0.0001602
0.00168323
0.000542375
0.00401739
0.00293878
0.00286541
0.00603103
0.000988628
0.00067356
0.00763891
0.00404792
0.00122861
0.00298925
0.00104517
0.00435807
0.00304196
0.00153327
0.00131614
0.00331393
0.0042275
0.00159233
0.00279253
0.00310578
0.000758464
0.000665107
0.00277005
0.0019686
0.00725971
0.00018731
0.00785003
0.00134527
0.003199
0.000576515
0.000261258
3.83765e-05
0.000419537
0.00124837
0.000620102
0.00170952
0.000549193
0.00275926
0.000949335
0.00468138
0.000140247
0.00250035
0.000715119
0.00116735
0.00241867
0.00325333
0.00104208
0.00464543
0.00111366
0.00647372
0.00103226
0.00173078
0.00391303
0.00175621
0.00114804
0.00297653
0.00355739
0.00201615
0.00332923
0.00387838
0.00258048
0.00285883
0.000551067
0.00470755
0.00385445
0.00382379
0.0012389
0.00128472
0.00403246
0.000813912
0.00266033
0.00296773
0.00151069
0.00315952
0.00444756
0.00530084
0.000367417
0.0016744
0.00729403
0.00199526
0.00820333
0.00458641
0.00560624
0.00311555
0.00256339
0.00500333
0.00210704
0.00151574
0.0066647
0.000876305
0.00272404
0.00265959
0.00640167
0.0047179
0.00194983
0.00317107
0.000171387
0.00232475
0.00280588
0.00435384
0.00854111
0.00752703
0.0033368
0.00264176
0.00448443
0.00607008
0.000348875
0.00229484
0.0024351
0.00335898
0.00391838
0.00577502
0.000741264
0.00109274
0.00170593
0.00401629
0.000528565
0.00177554
0.00514438
0.0027723
0.000956031
0.00260088
0.00672899
0.000519193
0.00144116
0.0022773
0.00248973
0.00555341
0.000120123
0.00285276
0.00424785
0.00189727
0.00359185
0.00281002
9.05314e-05
0.000552241
0.00304722
0.00491616
0.00103571
0.00299395
0.00120292
0.00127897
0.00314742
5.44675e-05
0.00312359
0.00394273
0.00212544
0.00400773
0.00544093
0.00316872
0.00324345
0.00345431
0.00041605
0.00439449
0.00436878
0.00275426
0.00263527
0.000126419
0.00137869
0.000663349
0.00174261
0.00357946
0.00147354
0.00249942
0.00164378
0.00906584
0.00314209
7.11598e-05
0.0030529
0.00208196
0.00353426
0.00174885
0.00341261
0.0016127
0.00097069
0.0050182
0.00368313
0.00242682
0.00123939
0.00582728
0.00652905
0.00367269
0.00217696
0.00271385
0.00558014
0.00271675
0.00591697
0.00447817
0.00407119
0.00190849
0.0011262
0.00137749
0.000241027
0.00106181
0.00508307
0.00138308
0.00296013
0.00417349
0.000174401
0.00586139
0.00190905
0.00485047
0.00662583
0.00152932
0.00365082
0.00179123
0.00346407
0.00224412
0.000141914
0.00291667
9.36121e-05
0.000412724
0.00412605
0.00491314
0.0047381
0.00187239
0.00478934
0.00281501
0.000866336
0.000846607
0.00481125
0.000341936
0.00338093
0.000861961
0.00596271
0.000836392
0.00333544
0.00361858
0.00480098
0.00406795
0.00579841
0.00736509
0.00258577
0.00293338
0.00424352
0.00121539
0.00443376
0.00250178
0.00376064
0.000787491
0.00148312
0.00359869
0.00373176
0.00387622
9.49166e-05
0.00461482
0.00435131
0.000161678
0.0036821
0.00184957
0.00120177
0.00323253
0.00164012
0.00189295
0.00159884
0.00520206
0.00359711
0.0014212
0.000426076
0.00349604
0.00318837
0.000942232
0.00402796
0.000752887
0.00712258
0.00295567
0.00539343
0.00477449
0.0038135
0.00162713
0.00115733
0.000110013
0.00956331
0.00410028
0.00221449
0.00249936
0.00193994
0.00116804
0.00385368
0.00110377
0.000295564
0.0027935
0.0016975
0.0010471
0.00273527
0.000869717
0.00125781
0.00181926
0.00204338
0.0029919
0.000456948
0.000833682
0.00138853
0.000888424
0.00680588
0.00288624
0.00433201
0.00237683
0.00383959
0.00149504
0.00194138
0.00501499
0.00522732
0.00194417
0.00101305
0.000641463
0.00192897
0.000418471
0.00450623
0.000908195
0.00609
0.00110737
0.0019686
0.000933829
0.000250535
0.00370985
0.000720203
0.00512902
0.000487648
0.00612146
0.0115513
0.00051921
0.00194865
0.00221037
0.00376472
0.000947638
0.000184527
0.00369143
8.85887e-05
0.00108619
0.00247992
0.00280152
0.00375192
0.000858241
0.00233989
0.00149349
0.00205805
0.00420805
0.00349759
0.00668625
0.00861431
0.000564206
0.00406516
0.00115001
0.00264601
0.000529265
0.000724945
0.00291548
0.0014983
0.000765647
0.000100399
0.00435102
0.000840453
0.000163082
0.00173012
7.78297e-05
0.000432665
0.000568221
0.000732768
0.00686736
0.00837604
0.00100138
0.00148519
0.00117216
0.00149283
0.00367951
0.000358469
0.00430001
0.00476443
0.00374559
0.00127827
0.000373195
0.00359114
0.00371516
0.000517029
0.0010182
0.00126538
0.00505361
0.00470278
0.00183304
0.00744553
0.001036
0.00357002
0.00364453
0.00203088
0.000647195
0.00414687
0.000433711
0.00539694
0.00678394
0.00171888
0.00952944
0.00287528
0.0032229
0.00754027
0.00544688
0.00288047
0.000615936
0.00223535
0.00846416
0.00371783
0.000619873
0.00515863
0.000778048
0.0019999
0.00253966
0.0016523
3.26078e-05
0.00490769
0.00870797
0.00568938
0.000296901
0.00207323
0.00368878
0.00171367
0.00365465
0.00268603
1.73856e-05
0.00168804
0.00501102
0.00215842
0.00395094
0.00164422
0.00215741
0.00480375
0.00333396
0.00480473
0.00616511
0.000733003
0.00350432
0.0012412
0.00162141
0.00428132
0.00459975
0.00394642
0.00158232
0.00139432
0.00127837
0.00323394
0.000590719
0.00280973
0.00168698
0.00416662
0.00220343
0.00163692
0.00202342
0.00241558
0.00518317
0.00260407
0.00572282
0.00235336
8.26189e-05
0.00115538
0.00168241
0.000258932
0.00029655
0.0024617
0.00261896
0.00493249
0.00290774
0.00250657
0.000443089
0.00989267
0.0033913
0.00331801
0.00364956
0.000130622
0.00342508
0.00170729
0.00113889
0.00618166
0.0012039
0.000732068
0.00486117
3.83913e-05
0.00481194
0.0010655
0.00253876
0.000135393
0.00488274
0.00935619
0.00744891
0.00125508
0.00248397
0.00658076
0.00167
0.000776943
0.00172634
0.00107037
0.00654376
0.00517961
0.00717914
0.00811911
0.000400494
0.006584
0.00254339
0.00241292
0.00531605
0.00447903
0.00805906
0.0113143
0.00196306
0.00461179
0.00203034
0.00247866
0.00385374
0.00270054
0.00614289
0.00314969
0.00735641
0.00423891
0.00471303
0.00628284
0.000838571
0.00362451
0.00388145
0.0034404
0.000723147
0.00129383
0.00367366
0.00924203
0.000913935
0.00442336
0.00183941
0.00209445
0.00373603
0.00502282
0.00138233
0.00170636
0.00387399
0.00407998
0.00463961
0.00733906
0.00191915
0.00297412
0.0040091
0.00227126
0.00259077
0.0052519
0.00132177
0.00752574
0.00166879
7.77829e-05
0.000621324
0.00195212
0.00220921
0.00108152
0.00117911
0.00277844
0.00460539
0.000949689
0.00175463
0.00260493
0.00339698
0.00362279
0.00796432
1.57377e-05
0.00211666
0.00137046
0.00357166
0.0100282
0.00110469
0.00362328
0.00402337
0.00221795
0.00331178
0.00188246
0.00451194
0.00176043
0.00399388
0.00727398
0.000900333
0.004877
0.0027725
0.00369347
0.00177313
0.00211073
0.00289758
0.000957571
0.00482767
0.00779638
0.000631092
0.00705021
0.000715924
0.00616697
0.00439886
2.18365e-05
0.00621089
0.00274763
0.00357707
0.0037167
0.00618785
0.00764256
0.000528676
0.00351017
0.00153438
0.00068112
0.00108758
0.00158851
0.00327399
0.00236442
0.00519949
0.00474144
0.00114114
0.00272988
0.00398683
1.50055e-05
0.00491042
0.00234685
0.0056561
0.00224401
0.00383744
0.0011723
0.00164
0.00180687
0.00595726
0.00302825
0.00427128
0.00165047
0.00100436
0.00112924
0.00058138
0.000103416
9.26382e-05
0.00069779
0.0035162
0.0031323
0.00380788
0.00296322
0.00233841
0.00207538
0.000398587
0.000331849
0.00297528
0.000510893
5.87517e-05
0.00219339
0.00451122
0.00610977
0.000798538
0.00754826
0.00584232
0.00329206
0.00285169
0.00311686
0.000960432
0.00072521
0.00603973
0.00500729
0.00444484
0.00690693
0.00604758
0.00578021
0.00600405
0.00648873
0.000613961
0.0019785
0.00926113
0.00640365
0.00529925
0.0111535
5.03132e-05
0.00202029
0.000656466
0.000225736
0.00136258
0.00304549
0.00121667
0.00774555
0.0018787
0.000282581
0.00518616
0.00144232
0.00658592
0.00129996
0.000859111
0.000271211
0.00486063
0.00176233
0.00823734
0.00809896
0.00757287
0.00363818
0.00340075
0.00274962
0.00108748
0.0025267
0.0095539
0.00573338
0.000328821
0.00443816
0.00621845
0.00757986
0.00638654
0.00438442
0.00119464
0.00364921
0.00662871
0.00331503
0.00539745
0.00523826
0.000427483
0.00299698
0.00231396
0.000875735
0.00262262
0.0023346
0.00240186
0.000634497
0.00210468
0.00628878
0.00376329
0.00347841
0.00979335
0.00583928
0.00663702
0.00707171
0.000709248
0.00728694
0.00308542
0.00462555
0.00422369
0.000261727
0.00206307
0.000683401
0.00277687
0.00148572
0.00183084
0.00082604
0.00477246
0.000161531
0.00268864
0.00530812
0.00303668
0.00235837
0.00175643
0.00222018
0.000328676
0.000624696
0.00176229
0.00196239
0.000438877
0.0033692
0.00185991
0.00486986
0.00180976
0.00142141
0.00372688
0.00205605
0.00553629
0.000953905
0.000374556
0.00223529
0.00185917
0.00687372
0.00416299
0.00319536
0.00216407
7.85251e-05
0.00223331
0.00206843
0.00407088
0.0039302
0.0028457
0.000873294
0.00273368
0.00204316
0.00314673
0.00380379
0.00016324
0.00259608
0.000905925
0.000623916
0.00278149
0.00113902
0.000366225
0.000220361
0.00528143
0.00124394
0.000764785
0.00266935
0.0047364
0.000688906
0.00303355
0.00324615
0.000608076
0.00151886
0.00265506
0.00058749
0.00228145
0.0016744
0.00100477
0.00704815
0.00463414
0.000274861
0.0023353
0.00596909
0.00115151
4.03036e-05
0.000192993
0.0113837
0.00552848
0.00587215
0.000397767
0.000692592
0.0029863
0.000694286
0.00535887
0.0052126
0.00677066
0.0119023
0.00411221
0.00243825
0.00916118
0.00273466
0.0044657
0.00229101
0.0025157
0.00171455
0.0102086
0.010378
0.000636707
0.00766707
0.00155261
0.00506602
0.00172639
0.00394996
0.00124362
0.0018757
0.000775429
0.00175322
0.00854439
0.000371787
0.000134235
0.00161802
0.00226924
0.000800371
0.0022281
0.000802481
0.0111214
0.00846848
0.00569379
0.00495367
0.000425451
0.0042228
0.00186882
0.00148682
0.00174105
0.00647926
0.00897204
0.00874311
0.00177554
0.00671519
0.00947167
0.00769987
0.00152245
0.00162298
0.00294776
0.00451896
0.00777142
0.000976954
0.00392776
0.00630414
0.000366834
0.00688913
0.000886349
0.00123757
0.00449717
0.00577476
0.00511477
0.00233187
0.00755515
0.00303055
0.00767965
0.00945759
0.00158008
0.00511743
0.00121417
0.00452341
0.00394393
0.00461601
0.00205842
0.00212721
0.0010243
0.00293744
0.00303089
0.00131158
0.000272942
0.00817169
3.96333e-05
0.000506027
0.00198609
0.00799584
0.00316749
0.00227874
0.00143971
0.00380831
0.000457105
0.00347793
0.00376698
0.00404606
0.0057805
0.00176998
0.0036256
0.00560147
0.00458714
0.00867798
0.000991726
0.000465342
0.00380592
0.0019415
0.00127123
0.00330737
0.00552929
0.00216204
0.00761617
0.00226194
0.00307187
0.000285403
0.00121419
0.00560062
0.00239844
0.00257419
0.00315092
0.00128667
0.00096859
0.000774024
0.00256845
0.00331034
0.00213301
0.00571296
0.00581753
0.00365963
0.00182656
0.00151438
0.00126417
0.00200008
0.00268334
0.00401088
0.00262757
0.000405374
0.00163614
0.00198248
0.00304231
0.00248949
0.000396211
0.000698618
0.00468743
0.0039685
3.09019e-05
0.00142955
0.00570903
0.00443729
0.00647469
0.00415123
0.00293017
0.00848807
0.00447003
0.00108749
0.00119529
0.00498744
0.0113788
0.00708679
0.004291
0.00419322
0.00311922
0.000553734
0.00567491
0.00485567
0.0105201
0.00722691
0.00637197
0.00215278
0.001824
0.00407603
0.00121046
0.00363422
0.00791964
0.00539367
0.00296262
0.0103888
0.00463254
0.00608828
0.00164331
0.00401931
0.00650777
0.000539681
0.00371861
0.00788539
0.00054041
0.00100424
0.00685006
0.00343129
0.00524873
0.00163677
0.00868788
0.00361289
0.00771406
0.00875233
0.00849459
0.0102695
0.00589138
0.00203722
0.00611949
6.91985e-05
0.00101782
0.00279929
0.00368349
0.00364447
0.00841649
0.00944338
0.00410838
0.0070391
0.0113504
0.00189374
0.00195168
0.00612675
0.00542548
0.00565985
0.00933133
0.00906274
0.00953801
0.00727771
0.000561658
0.00144083
0.00114065
0.000526812
0.000801493
0.00750497
0.00206849
0.00493121
0.00852863
0.00552687
0.00894991
0.00268344
0.000723545
0.0053596
0.000541324
0.00235778
0.00416493
0.0133612
0.00725317
0.000328085
0.00106333
0.00334677
0.00674223
0.00201236
0.000309742
0.00615069
0.00865891
0.000576659
0.00860962
0.00380709
0.00342876
0.00562661
0.00270784
0.000887061
0.00238567
0.00096873
0.000714828
0.00671845
0.00207944
0.00160569
0.000951823
0.00102218
0.00169357
0.00138302
0.00939062
0.00545885
0.00465801
0.00628584
0.00471881
0.00576014
0.00167884
0.00278363
0.00245581
0.000882903
0.00492707
0.000736067
0.0018534
0.00683047
0.00279735
0.00897765
0.000600646
0.00202962
0.00157039
0.00408247
0.00899048
0.000329533
0.00189076
0.00175504
0.000958724
0.00380682
0.00148432
0.00405392
0.00236749
0.00132301
0.00194705
0.000709728
0.000929124
0.00114618
0.000810518
0.00115567
2.441e-05
0.00245308
0.000335552
0.00164367
0.000943056
0.00405144
0.0048413
5.07451e-05
0.00474633
0.00293116
0.00229834
0.00332137
0.00583429
0.00246015
0.00274397
0.00285328
0.0030398
0.00504054
0.00585674
0.00029261
0.00398675
0.00254158
0.00412575
0.00357288
0.00511778
0.00382324
0.00449779
0.00792719
0.00724024
0.00382782
0.00330928
0.00617903
0.00108949
0.00610662
0.00295295
0.00719583
0.00686341
0.00902647
0.000318768
0.00148051
0.000603163
0.00191964
2.02757e-06
0.000224405
0.00124596
0.00151891
0.00106173
0.000525021
0.0100164
0.000760672
0.00377186
7.11575e-05
0.00216243
0.000583933
0.00444983
0.000477451
0.00646917
0.00320938
0.00661504
0.00382894
0.000826257
0.0013504
0.000649261
0.000763089
0.000614271
0.00274074
0.00260011
0.00437085
0.00282987
0.00213255
0.00575303
0.00857313
0.0067979
0.00311214
0.00449659
0.00624112
0.00936355
0.00626313
0.0015968
0.0015245
0.000800328
0.000797705
0.00637555
0.00049381
0.000827884
0.00175402
0.00557028
0.0076885
0.00160693
0.00481998
0.00591248
0.00348756
0.00285877
0.000659046
0.00748304
0.00301752
0.0103947
0.00879147
0.00177999
0.00433136
0.00202797
0.000933552
0.00089867
0.000159843
0.00132978
0.00107246
0.000262996
0.00224943
0.00603091
0.000958676
0.00862187
0.00220888
0.00565354
0.00418648
0.0070142
0.0014684
0.00267473
0.0049551
0.00322266
0.00151088
0.00615581
0.00270259
0.00283767
0.00691175
0.00253996
0.00219352
0.00803851
0.00309666
0.00521856
0.00304571
0.00248591
0.0017392
0.00293
0.000414938
0.00143588
0.00868331
0.00347726
0.000201014
0.00440758
0.00721847
0.000881811
0.000337708
0.00713986
0.00189628
0.00524164
0.000517434
0.00319871
0.00411456
0.00336928
0.00363911
0.00698408
0.00311492
0.00037027
0.000233271
0.00389644
0.00264647
0.00485316
0.00313568
0.00310029
0.00413636
0.00222974
0.00309606
0.00374895
0.00445099
0.00198634
0.000549631
0.0046777
0.00625616
0.000309017
0.00409325
0.00276957
0.00450269
0.00516188
0.00166063
0.00187544
0.00605045
0.00228222
0.00355397
0.00719354
0.00146311
0.00145309
0.00599165
0.000342386
0.000925282
0.00219837
0.00140377
0.00499448
0.00734905
0.00636919
0.00119918
0.00523906
0.000392742
0.0010288
0.00757666
0.00661869
0.0012335
0.00785157
0.0108186
0.00433617
0.00143432
0.00194123
0.001394
0.00337658
0.00525326
0.00179026
0.00316482
0.00642127
0.00106771
0.000500105
0.00507647
0.00156662
0.00334547
0.00521546
0.00141095
0.00407625
0.00367995
0.00441613
0.00680839
0.00816446
0.00180246
0.00453547
0.00130768
0.00242718
0.0014043
0.00279438
0.00557438
0.000752466
0.00280701
0.00456382
0.00747801
0.00346423
0.00285592
0.00415907
0.00147906
0.00925138
0.00693968
0.00732873
0.00865102
0.00434434
0.0042693
0.00176746
6.07301e-05
0.00499128
0.00082386
0.00153253
0.00177622
0.00630287
0.00356279
0.00560956
0.0035201
0.00185931
0.00453984
0.00619164
0.00123169
0.00751732
0.00115205
0.00602622
0.00537144
0.00409316
0.00693968
0.00185171
0.00229136
0.00129073
0.001386
0.00162985
0.00334765
0.00391421
0.00421989
0.00483657
0.00240226
0.00214355
0.00137918
0.00032543
0.00383005
0.00434684
0.00540764
0.00124819
0.00402839
0.00145735
0.00106628
0.00615536
0.00294725
0.000741849
0.00440335
0.000266605
0.00016794
0.000899301
0.00377829
0.00457116
0.00425333
0.000569433
0.000659535
0.00174596
0.00274691
0.00361072
0.00578936
0.000501391
0.000887169
0.000655069
0.00236949
0.00319607
0.00449704
0.000355946
0.00152749
0.00327272
0.000846947
0.00447067
0.00240867
0.00518661
0.00236679
0.00469439
0.00152529
0.00326998
0.0033984
0.00565958
0.00183754
0.00288242
0.000544056
0.00264065
0.00190426
0.00521131
0.00176249
0.00475482
0.00446594
1.65463e-05
0.00223108
0.00347272
0.00488486
0.00921497
0.00303213
0.00606734
0.00580129
0.00643045
0.00272261
0.00252195
0.000453017
0.00258207
0.000686553
0.00218278
0.00127568
0.00382919
0.00752001
0.00207619
0.00541185
0.000661891
0.0033957
0.00590671
0.0073367
1.39538e-05
0.00152981
0.00158728
0.00146582
0.0013455
0.00399105
0.00184926
0.00045825
0.00433044
0.0102322
0.000321548
0.00369916
8.97863e-05
0.00436152
0.00161664
0.00221281
0.00089697
0.00255193
0.000524609
2.93463e-05
0.00132682
0.000973152
0.00172627
0.000435936
0.000391316
0.000190999
0.00107939
0.00160448
0.00840794
0.00293209
0.00529621
0.000170528
0.00172923
0.003406
0.00289117
9.08689e-05
0.00253236
0.00051843
0.00115663
0.00871407
0.000858277
2.33216e-05
0.000929044
0.00139838
0.00138683
0.00117656
0.00274616
0.00587269
0.00101461
0.00498292
0.00248751
0.0105665
0.0020401
0.0012761
0.000806391
0.000557854
0.00312944
0.00206821
0.00364241
0.000620959
0.00134657
0.000190011
0.000830709
0.000250304
0.00177269
0.00409533
0.00391042
0.00181227
0.00320074
0.00103481
0.011686
0.0026769
0.0046407
0.000501994
0.00508479
0.00293137
0.00347386
0.00304954
0.00249719
0.00178953
0.0054434
0.00354447
0.000280164
0.000801389
0.00492316
4.29926e-05
0.00243786
0.000538037
6.94584e-05
0.00656505
0.00467982
0.00705979
0.00171183
0.00452976
0.000184504
0.000644921
0.000884892
0.00157746
0.00250709
0.00485897
0.00251658
0.00840653
0.00917814
0.000256537
0.00411099
0.0036698
0.00254647
8.86528e-05
0.000570491
0.00165921
0.00561481
0.00113582
0.00326351
0.000914224
0.00119686
6.74123e-06
0.000596228
0.000169636
0.00566727
0.00323123
0.00365112
0.00103983
0.0025227
0.0031014
0.00458649
0.00227724
0.00127568
0.00365674
0.00345332
0.000365841
0.00141308
0.000972245
0.00468253
1.07803e-05
0.003206
0.002944
0.000169599
0.00238362
0.00283816
0.000150214
0.000902199
0.00181241
0.0012503
0.00525111
0.00565639
0.00142149
0.00156885
0.00194629
0.00210602
0.00138992
0.0021502
0.00133815
0.00283217
0.00231721
3.87001e-05
0.00364592
0.00205
0.00278619
0.0025014
0.0062862
0.00241936
0.000882671
0.00353033
0.00112429
0.00217079
0.00019461
0.00364933
0.00039105
0.0046673
0.00749983
0.000804464
0.000154708
0.000459657
0.00405953
0.00245814
0.000538914
0.00251932
0.00224566
0.00386982
0.000870253
0.000156835
4.03385e-05
0.000585547
0.00214604
0.00259678
0.000669239
0.00124323
0.000942007
0.00565046
0.00326652
0.00653059
0.0013577
0.000508955
0.000325619
0.000543951
0.00153348
0.00329128
0.000834969
0.00155432
0.00129142
0.000981993
0.000883781
0.00173252
0.00182017
0.0026047
2.17192e-05
0.000517016
0.00184663
0.00602221
0.00252281
0.000683952
0.00208887
0.00234223
0.000831434
0.00288849
0.00498175
0.00158232
0.00207499
0.0002056
0.00246538
0.00238081
0.00271691
0.00101063
0.00201907
0.00257647
7.31845e-05
0.000759215
0.000260706
0.00493607
9.20822e-05
0.00497302
0.0021568
0.0040569
0.00212635
0.00222537
0.00246484
0.0014704
0.00106426
0.000269609
0.000375063
0.00464025
0.000537336
0.000919919
0.00669465
0.00015757
0.00176153
0.00095006
0.00314726
0.000498981
0.0067101
0.00700995
0.00195206
0.00161355
0.00303845
0.00402917
0.00143693
0.00075887
0.00508228
0.00393123
0.00135291
0.00174554
0.000265385
0.00321158
0.00479576
0.0031961
0.00204904
0.00307605
0.00398219
0.0028965
0.00267599
0.002173
0.000931843
0.00465749
0.00418444
0.00431529
0.0077229
0.000374124
0.00101062
0.0069161
0.000840088
0.00725288
0.00467863
0.00315534
0.00462653
0.00428662
0.00256009
0.000955316
0.00016885
0.000965696
0.00285958
0.00143701
0.000696151
0.00415666
0.00536365
0.00315837
0.00365954
0.000172157
0.00132313
0.00288351
0.00118326
0.00110257
0.00689013
0.00520188
0.00353998
0.00271971
0.00368847
0.00376006
0.00568327
0.00254222
0.00555584
0.00270558
0.00565846
0.00359495
0.00281072
0.000335032
0.000776404
0.00274511
0.00726904
0.000485279
0.00257377
0.00392899
0.000232295
0.00673807
0.00212247
0.00511027
0.00297247
0.00163261
0.00202979
0.00682431
0.00481287
0.000129671
0.000188032
0.000319813
0.00163071
0.000242556
0.00352798
0.000970502
0.00199315
0.000314052
0.000290399
0.000244082
0.000778027
0.00585731
0.00043734
0.00160415
0.000820204
0.00190028
0.000184141
0.00145425
0.00234314
0.000561448
0.0023781
0.0061715
0.00726976
0.00190476
0.0068865
0.00175595
0.00239692
0.000702233
0.00156194
0.00132277
0.0025688
0.00179138
0.00256598
0.000977166
0.00214127
0.000151169
0.000952762
0.00229416
0.000101473
0.004223
9.29164e-05
0.00477812
0.00156922
0.000568691
0.00177094