/*--------------------------------*- C++ -*----------------------------------*\
| =========                 |                                                 |
| \\      /  F ield         | OpenFOAM: The Open Source CFD Toolbox           |
|  \\    /   O peration     | Version:  2212                                  |
|   \\  /    A nd           | Website:  www.openfoam.com                      |
|    \\/     M anipulation  |                                                 |
\*---------------------------------------------------------------------------*/
FoamFile
{
    version     2.0;
    format      ascii;
    arch        "LSB;label=32;scalar=64";
    class       volScalarField;
    location    "./ITHACAoutput/true/7.4";
    object      error;
}
// * * * * * * * * * * * * * * * * * * * * * * * * * * * * * * * * * * * * * //

dimensions      [0 0 0 1 0 0 0];

internalField   nonuniform List<scalar> 
3200
(
-3.28691
-1.73829
1.65338
2.36085
2.55894
3.78795
5.09858
3.7892
4.56861
3.85216
4.46432
2.26527
4.08763
2.56458
6.42922
4.73457
3.69854
0.402444
1.63638
-1.64934
-0.977439
-1.59899
0.254093
1.54356
2.3969
3.4453
2.78385
1.96133
3.10894
1.89752
2.80105
4.34047
2.30363
3.25997
4.89497
2.60849
5.48889
1.04681
2.20927
-1.74156
-3.1302
-0.026633
0.664019
2.18372
3.27602
3.21607
3.53181
3.93096
2.70266
2.28251
0.182339
3.56518
0.52967
3.92252
2.11833
2.50686
5.0425
4.28787
1.77451
-0.208939
-3.27428
-1.73504
0.93333
1.96226
2.4796
2.63636
2.33246
6.3945
-0.194575
2.31392
3.1787
3.27266
1.99276
2.12474
1.67278
3.66154
2.76516
0.57414
0.253071
1.53154
-3.19449
-0.306042
-0.662164
1.38266
-0.891542
2.16313
1.14246
0.0907955
2.58426
-0.62492
1.11715
1.64194
0.76169
2.72995
4.68887
3.28408
-1.94677
0.388799
-1.10105
-1.00863
-0.670204
-0.226317
-0.0962147
1.79153
-0.00767022
1.6195
2.37499
1.40782
1.84577
1.73729
1.2816
4.66963
-0.519742
-0.276289
1.76289
1.10367
1.70263
0.842158
0.810516
-0.69402
1.66386
1.65713
2.30591
1.90559
0.356808
-0.00968138
1.47783
1.26055
0.0680444
0.374499
1.22007
-0.38606
0.966464
2.05062
2.41861
1.24229
-0.469866
1.7998
1.62838
0.807245
-0.0615035
-0.820754
0.356254
1.94423
1.37766
-0.109498
1.26377
-0.550513
-0.0136823
1.21443
0.861166
-1.23897
0.353678
-1.34496
0.73849
0.703111
-0.445904
2.47034
1.41493
-1.90197
-3.6741
-0.459548
1.97081
4.7888
2.15355
4.07831
4.26397
3.35966
1.74024
3.57071
4.54583
2.86525
3.25235
1.06767
1.24952
4.98254
6.48273
1.90276
2.12238
-2.49044
-2.82357
0.232694
0.916317
-0.40504
3.23652
0.90118
0.34465
-0.233384
1.16016
0.0318726
0.561177
0.773013
-0.341554
1.8781
0.592692
3.40479
0.104202
4.09884
-0.0241266
-1.89828
-0.241072
-2.99373
1.36538
1.73808
1.78797
1.09797
3.4629
0.846233
1.45435
0.0832947
2.91763
2.51868
0.793279
6.45563
0.959266
1.51423
2.5157
3.06616
1.13109
2.57363
-1.34965
-3.04085
0.533068
2.1451
0.660291
2.77363
3.13373
1.35923
-0.370294
1.32742
0.603997
5.70836
2.26772
0.667271
2.04886
2.48729
3.48554
1.81547
-0.0809474
0.779919
-3.08688
0.934328
-0.647624
2.07512
-1.65542
3.27279
2.59568
0.689366
1.86694
1.79601
2.71062
2.46429
0.427467
1.74031
1.78584
0.523282
0.915165
0.931305
1.00664
-0.815575
-2.07228
-3.15823
-1.05715
0.676247
-1.40214
0.0847753
2.56215
0.0871143
1.01307
1.28897
2.93944
-3.53752
0.145244
1.51249
-0.749016
0.751305
-1.69082
-0.190245
0.981431
1.35042
-0.391113
1.28549
1.09536
-2.27987
0.0337673
0.168755
0.63061
2.11925
0.551984
1.05803
1.18341
2.91469
-0.0361781
1.98184
2.16867
0.878762
1.13188
-0.129383
-1.51711
1.10567
-1.24035
-0.408363
2.01157
0.279355
0.211559
-0.0303175
1.29827
0.125887
1.51665
0.987751
1.0367
-2.03057
3.12637
-0.941411
-0.644684
1.69025
-1.82103
-0.360609
-0.650807
-0.56516
-2.31889
0.805441
0.500926
0.407354
3.15122
2.08775
2.43349
2.7077
3.16973
5.56989
1.12105
1.65421
1.85827
3.56972
2.9297
4.48083
1.47583
2.24283
2.70448
-2.12213
-2.62587
-3.44099
1.05956
1.6337
1.22108
2.27084
3.99932
0.951307
2.43472
4.63127
2.25932
0.398633
1.59643
3.97785
1.63335
4.11393
3.16397
0.317856
1.39457
0.787606
-1.5927
0.998399
3.402
5.05193
0.0874126
3.03188
3.42921
0.209135
1.14693
1.13021
3.1869
1.53655
1.79114
3.05105
1.52986
2.1527
1.64719
2.53965
0.889429
1.32339
-1.44781
-1.34674
-1.11301
-0.448377
1.98868
0.00492662
1.16682
2.41831
2.7068
-0.328948
1.18931
1.37985
2.62336
2.30509
3.6995
0.721178
-1.16363
0.332214
-0.354372
0.0975829
-1.22015
0.863708
-1.59652
2.03464
0.606989
0.350469
0.574411
0.803953
2.12687
0.43492
1.31476
3.01799
1.5592
1.3124
1.80678
0.100464
2.04978
1.91299
-0.988981
-0.123066
-1.07817
-2.49534
0.09395
1.04258
-0.473684
-0.751918
0.151687
2.7614
0.536673
1.29109
3.31723
3.06545
0.95535
2.33702
0.986398
-0.863307
1.66584
1.1008
-1.70237
-0.87972
-1.06438
0.977943
-1.55446
0.489791
1.63244
0.678233
2.1425
-1.74331
-0.481011
-0.151325
-0.0769416
0.372448
1.66955
-2.37053
0.0144133
-0.882333
1.02799
-0.945613
-0.82149
-0.783425
-1.27941
-1.49414
-1.25255
-2.0562
0.726197
0.479469
-1.12639
0.236895
-2.8486
1.03703
0.660961
0.586809
-0.0576452
0.742777
0.534561
0.0471148
-0.118214
-0.545241
1.25829
-1.94127
-1.70028
-0.780013
1.79533
2.84085
1.49815
2.13073
2.01165
4.45385
2.10362
2.37863
0.618465
2.03724
2.70779
0.982729
1.47692
0.354016
1.95616
0.0492072
-1.17365
-0.899767
-3.85402
-0.454922
1.49336
-0.0231067
3.17423
-0.45819
3.82439
-0.121227
2.53447
0.0232223
0.703405
0.447841
-0.399887
3.96912
-0.400477
1.11788
0.310448
0.994081
0.309417
-0.189605
-1.68301
-1.64893
0.47684
1.1075
3.01415
3.28071
0.805378
0.968635
-0.220222
-1.49626
1.92878
2.04748
0.630597
1.41594
0.0548806
1.4366
1.86823
1.52789
0.351795
0.6412
-4.31512
-0.877817
-0.672097
-0.0817826
-0.773494
0.255191
1.01433
-0.0405354
0.349864
0.064496
0.623018
-0.87142
-1.40109
2.19295
2.39091
1.36957
0.754311
2.43519
-1.25174
-2.98488
0.248519
-0.889707
2.24639
0.385371
1.98532
2.02731
0.0552049
0.850831
-1.68617
0.379008
0.756406
-1.21754
0.794138
-0.508421
1.80644
0.530045
-0.161994
3.54014
0.120847
0.104533
-2.87095
-1.94112
0.829534
2.06775
1.52365
1.84346
-0.133203
-0.493252
-0.821975
-1.14634
-0.321651
-0.682556
3.20349
-1.47983
-0.48802
3.01126
2.52122
-0.412328
1.04839
-0.333502
-0.417066
-0.394452
-0.789449
1.50544
1.25566
1.05061
-0.702355
0.630424
0.845535
1.41324
0.984379
0.539639
-0.378866
1.23222
1.55793
-1.52385
1.14348
0.00290159
0.644703
-0.815991
-1.07396
1.44319
0.103815
-0.049408
-0.132892
0.707757
0.10284
0.863712
-0.453614
1.26011
0.0119852
1.00102
-0.815395
0.771943
-1.60937
0.653072
2.74804
4.50177
-0.876352
-0.88978
-4.40869
-3.18123
0.142232
0.831785
2.80326
0.71829
1.10726
0.989379
2.19799
0.234199
-0.587213
0.943633
-0.0224259
1.12082
2.9908
0.646206
2.81496
-2.2614
1.16687
-3.15288
-2.81329
-2.77811
-0.309796
0.107484
1.13345
3.15182
-0.66724
0.0760824
0.081055
-1.1071
0.393821
1.87842
2.26016
1.77799
1.40113
1.41844
2.06566
-0.0271829
-1.06727
-2.48969
-0.877644
1.54552
0.314222
0.29796
2.69227
1.23313
-1.23179
2.64536
1.11286
-0.459148
-0.600062
-2.36529
2.86676
1.37767
0.344484
1.53946
0.624567
2.1532
0.557679
-3.35546
-0.852104
-0.987712
-1.9506
-0.281449
-0.391752
3.61318
2.76927
-1.16622
0.493266
1.53295
2.48397
0.186109
0.7021
1.12121
2.01613
3.65295
1.24805
1.14075
-0.968539
-1.22028
-1.95209
-2.64105
1.02635
-1.18668
-1.06395
0.263211
-0.209071
0.0540991
0.586473
-2.82591
-0.275295
-0.798701
-2.02715
0.168837
-0.826289
1.56171
2.18252
1.68671
-1.42378
-2.37943
0.951434
0.0608678
0.947732
0.132224
0.485623
-0.059309
0.640968
0.701042
0.244292
0.57425
0.652058
-0.197439
-0.0236019
1.32953
-1.57089
4.19135
-1.4328
-1.05226
-0.629683
-0.11829
-1.42181
0.365148
-0.909448
1.24375
0.902002
1.19607
-2.07676
1.69161
-1.0373
-0.384706
-1.61053
3.38214
0.855137
0.349983
2.94756
1.73884
2.03523
-0.484587
-1.45434
2.81155
-1.31146
0.23428
0.294835
0.361993
0.099223
1.79475
0.467313
-4.2637
0.517711
0.441195
-0.591494
0.463646
-2.20687
-2.19053
3.76909
-2.76125
1.7888
-0.52485
0.546509
-1.38207
-4.04284
-1.95645
0.36976
0.584852
0.00487093
-0.929169
1.53139
-0.0753704
0.49336
-1.55275
0.434138
-0.385998
0.562118
1.28672
-0.846395
1.13721
2.58017
0.376554
-1.80652
0.499023
-4.34772
-0.323627
-0.0264405
-0.502336
2.32807
0.071789
2.23201
0.352557
-2.42788
0.19058
0.274345
-0.646373
-0.157156
1.2831
-0.145201
1.08161
0.0103921
0.241169
0.473388
-5.01064
-1.25287
-1.98833
0.108242
0.529628
1.27058
1.14101
2.93343
-0.00205265
-1.77124
-0.240509
-1.01456
1.68531
-0.930959
-0.753979
3.14403
-1.97451
-0.724675
2.63862
1.14998
-1.78287
-4.70598
-4.0284
-0.951184
0.764607
2.27591
-1.94191
1.03308
-1.22552
-0.72946
1.78769
1.70467
-2.43625
2.81679
-1.04736
-0.710408
-1.48366
-0.0920828
1.67948
0.139868
0.299253
-2.80322
-0.936749
-0.392527
0.567057
0.884109
1.78557
1.06511
2.02438
-2.80638
0.53964
-1.06102
-2.06267
-1.77812
2.79829
1.18715
0.249049
-0.0713455
0.763818
-0.699168
-0.855203
-3.54199
-0.526236
0.624466
-3.37571
1.5844
-0.210414
2.53391
-0.658476
0.888922
1.63919
-0.375853
-0.0394892
-0.535557
0.166446
1.05582
2.014
0.941647
2.26607
2.35225
-1.18449
1.18774
-2.3462
0.276772
-0.429378
1.62145
1.73504
1.41946
0.233307
-1.59458
-0.689986
0.130818
0.293449
-0.0855134
-2.76197
-3.15229
-1.16856
-0.415553
1.19926
0.0290632
0.805055
0.919147
2.28444
1.1927
2.43385
-2.08988
0.327641
-0.0796653
-2.02319
-0.722423
-0.667216
-0.386495
-1.23469
-0.244054
2.54927
1.64976
0.363682
0.493981
0.941441
0.826482
-1.58111
-4.07691
-2.26493
-0.486765
-0.0238516
-2.4789
0.719206
-0.335957
-0.865588
-1.56304
0.57549
-2.22326
-1.61204
0.781227
-0.723195
0.970169
-1.16827
-0.862525
-1.32674
-4.08307
-2.01545
-6.60285
-0.855062
0.736088
0.444184
1.51323
0.840829
0.476276
-1.43528
-2.82714
-0.856815
-1.8591
-2.93716
-0.174486
-2.90204
0.201728
1.95014
-3.82601
-0.249082
-1.22852
-1.99135
-2.1363
-3.25736
-0.279858
-1.71773
0.339707
2.42311
0.528235
-1.47863
1.22744
-3.77052
-1.1754
-1.58503
-0.746881
0.976776
1.65463
1.78223
3.39488
-0.276837
1.34338
-4.30945
-1.2153
-0.474486
-1.73379
3.28691
-0.206449
0.476453
-0.478882
0.452984
1.20164
-2.52511
-0.860313
-0.199769
1.41396
0.69955
0.541449
0.0149815
0.0140491
1.32895
-0.91533
-1.45868
-2.79451
1.42879
-2.05612
0.849768
-0.679335
1.45323
-0.506097
1.77692
-0.480343
-0.523817
-0.350998
2.13307
-0.747654
-0.274726
-0.652708
0.195631
0.457558
-0.380843
-2.47341
-1.83445
-3.80948
-0.873118
-0.415471
-1.86624
2.11112
1.26995
-0.804858
0.308913
-0.550712
-0.50765
0.535775
-0.400623
0.964325
0.540355
0.155819
-1.62963
1.86368
-0.00833929
-0.102962
-3.66607
-1.01895
-0.44557
-0.404379
-1.19662
-0.386459
0.880336
-2.09543
-0.818862
-1.73675
1.28693
0.273218
-1.122
3.60938
-1.0658
-0.804911
-3.16355
-0.785971
1.05834
-0.800129
-1.90428
-0.939339
-0.00355266
0.409556
0.0762584
-1.58437
-0.438188
-0.483707
1.67631
0.143851
1.39808
1.60101
1.2219
3.38914
-1.03842
0.640802
-0.131679
0.755291
0.918299
1.2223
0.968104
-6.20563
-3.82037
-3.11744
-2.43425
-1.39727
-0.508496
-0.327483
-3.96822
-0.742851
1.03635
-2.80694
-3.47759
-1.00311
-0.0236461
-1.48973
-0.0603735
-0.0869829
1.53709
0.268233
-0.917885
-5.09542
0.169171
0.0146974
-0.0440037
2.44242
-0.268291
-0.237355
-0.00379631
-2.73789
-0.0925532
-0.512844
2.54694
-0.421309
-1.05904
0.552205
0.159895
0.0154285
-0.331533
-0.307663
-2.74892
-2.93643
-2.85778
0.231738
-0.167073
-1.81805
0.870471
0.0950212
0.19472
-0.542244
-3.32889
-1.93296
-1.65315
-3.60695
0.161387
0.695729
-0.865819
-1.05702
0.534441
-1.63834
-0.892703
-3.70347
-3.42675
-1.27902
1.29545
-2.16869
-0.678793
-1.5414
1.84433
-1.98523
0.0629055
-2.86284
-0.60216
-0.122192
-2.2025
-0.842318
-0.120375
1.98404
-0.644313
-2.41413
-1.18686
-2.71861
-0.970437
-0.143004
-0.248513
-0.597437
0.128481
-1.01661
-0.112179
-1.7468
-0.374916
0.75251
0.0943352
1.48382
-3.76447
1.30746
0.92791
-0.251279
0.101839
-2.551
-3.00502
-0.731228
0.127376
0.589831
-1.87066
0.0569967
0.583432
-2.95849
-1.28222
1.66681
-2.64977
-1.80494
-0.147708
2.32851
0.0132912
-0.901929
-0.808571
-0.569363
-0.936757
0.569078
0.455038
-2.39547
-3.13825
-2.21213
0.107656
-1.30428
0.0512464
-1.74433
-1.86873
1.11287
1.06878
-0.00319575
-2.66404
-1.29107
-1.30384
-2.8248
0.690164
-1.7927
0.207995
-0.0466572
-0.569688
0.299893
0.670989
-1.3178
2.58809
-1.04621
0.661948
-0.685542
-2.19641
-1.42914
0.180383
-1.73814
0.975183
-0.794647
0.879027
0.214405
0.491036
-3.86145
0.8611
2.44436
-2.51093
-5.4967
-3.93269
-2.73604
0.299775
-0.251308
-2.47302
0.104191
-3.61539
-1.81922
-2.28757
-1.70287
-4.20159
-3.88197
-2.02062
-1.72127
-1.75401
-1.01192
-1.79465
-1.21893
-3.39345
-5.53418
-2.3
-3.1916
-0.38783
-0.537591
-0.528227
-0.592054
-1.23429
-4.3473
-1.09556
-4.11889
-2.48194
-1.33834
0.388159
0.77106
-1.42216
-1.54385
-1.14771
-0.744627
-2.94031
-5.02812
-3.70666
-2.50987
-0.21567
-2.88037
-1.21104
1.00214
-2.27078
0.873257
-3.44117
-1.38466
-2.7372
-0.365914
-2.53842
-1.58263
-3.20034
2.16001
-3.25148
0.659765
-4.23347
-0.320719
-0.846852
-1.01636
0.092059
-1.78157
-2.04401
0.79046
0.0584745
-2.6591
-2.10396
-3.42955
-1.23233
-2.12571
-2.06986
2.40047
1.20099
0.127807
-3.19869
-1.5867
-2.01908
-2.63382
-1.7554
0.0239184
0.998152
-3.48258
-1.20975
0.265062
-0.436191
-2.36064
-2.5195
-1.77049
-0.412752
-2.6611
0.764382
-1.40123
1.58708
-1.33007
0.232714
-1.16497
-0.2017
-1.24629
0.797579
-1.29953
0.0800899
0.950213
-0.379717
0.599619
-0.938105
-3.2731
-2.51895
-1.32789
-0.864683
-1.82505
-0.0426697
-2.1011
-0.318109
-0.150321
1.03862
0.095901
0.568617
-3.02823
0.184108
0.180372
0.250719
-1.70096
1.90831
2.5953
-0.144025
-0.582225
1.44751
-1.57303
-0.551367
-0.110909
-1.91949
0.432531
0.434992
2.41446
-0.441878
-1.08561
-1.28753
-1.57437
1.82343
0.372907
-3.92512
0.553759
-0.103968
-0.213972
-1.68706
1.81691
0.793847
-2.93085
-1.05481
-0.868124
-1.50599
-1.06024
1.07529
-0.257317
1.44596
-0.206302
0.985341
-4.21811
-3.38072
-2.12787
-1.9698
-0.199828
-2.18059
0.177487
-3.1554
-2.93172
-2.20566
-3.85122
-5.08063
-3.73631
-3.61521
-2.9193
-0.941683
1.08829
-1.63131
-4.68997
-3.29125
-3.06137
-0.507809
-3.82635
-0.117052
-1.8411
0.215611
-0.604358
0.236862
-2.05369
0.185877
-0.293915
-0.349592
-0.201877
-0.653712
-0.322463
-2.24836
-0.458441
-2.88391
-0.262058
-6.4118
-4.64264
-2.43932
1.55622
-1.87866
-1.24743
0.60241
2.81183
-1.24303
-2.17308
-2.22132
-4.33395
-2.59759
-2.28417
-5.22223
0.0737266
-3.01779
0.711004
1.28236
-1.28522
-3.0146
-5.77239
-3.36296
-3.10851
2.97768
-0.809093
-0.6956
1.265
-0.635079
0.186737
-1.22174
-1.76347
-1.87988
-2.02899
-1.75252
0.307376
-1.86202
1.00788
-0.153001
-0.845591
-1.70341
-3.44599
-2.14331
-2.74068
-0.616619
-3.48022
-1.05829
-2.15997
-0.209984
-0.599662
-1.38778
-3.11323
-2.17018
-1.68163
-1.22556
-1.74384
1.18785
-1.01174
-2.41374
-0.684552
-3.163
0.43642
1.16641
-0.163736
-0.601771
0.323445
-1.07475
0.283578
-0.591327
0.0752395
-0.896409
-2.52068
1.79861
-1.37399
-1.12904
-1.97132
-0.601705
-0.956271
-0.915433
-2.41712
-0.929643
-2.63138
-0.688192
0.206967
-0.263392
0.672385
0.629689
-1.64436
0.0388338
0.679129
0.181255
-1.16815
-2.09217
0.932557
0.243004
-1.0365
0.753748
0.555369
-3.78696
1.42108
-1.92114
0.947484
0.782293
1.25266
2.10686
-0.837502
2.52885
0.188803
-2.20893
1.3807
-0.923744
2.67319
-2.02592
-3.5028
0.875883
2.91143
-1.39014
-1.0703
-0.128685
0.932368
0.197774
-3.25966
-4.46098
-4.10623
-2.18803
-2.60262
-1.67064
-0.925241
-0.369297
-1.52922
-4.18725
-1.32346
-3.78109
-2.24122
-1.65284
-0.584857
-2.52345
-1.19876
-1.79148
-3.74024
-4.71003
-2.01105
-0.0423303
-4.15004
0.119343
0.161933
-0.440313
-2.23598
-0.168999
-2.59025
-0.373027
0.0726165
-3.17967
0.0646355
-4.67549
-0.536961
-2.8286
-0.153904
-0.305954
-0.0509589
-2.80668
-2.48984
-3.76251
-1.90237
-0.856507
-0.749332
-0.247799
-1.40297
-2.96842
-2.50406
-1.2628
-4.80604
-1.4848
-6.12835
-1.23697
-1.3054
-2.02276
-0.920955
-2.65005
-3.0193
-3.15428
-2.05332
-1.39243
-0.856286
-1.45704
-2.93773
-1.26356
-0.898804
-1.17043
-0.573411
-2.19597
-3.03512
-1.94186
-2.30605
-2.54017
0.222165
0.462184
-0.474587
-0.540337
-1.99653
-2.42898
-3.13036
-2.33391
-0.977317
1.27908
0.163914
-1.10256
-0.462647
-0.798549
-1.53026
-0.255989
-2.65344
0.644061
-1.55238
1.17867
-0.405399
-1.31075
-0.953636
-0.720419
-0.536322
-0.989259
-0.573826
-2.17191
-1.56065
-0.27937
0.857342
-1.28037
0.16193
-0.287171
-2.96692
-1.28124
-1.19404
-1.80067
0.514678
-1.72426
-3.55139
-1.70012
-0.557191
-0.572963
-0.445724
-2.11621
-0.439546
-1.78942
0.159855
-1.60499
0.766884
2.87453
-1.6535
2.05276
0.367407
-0.208672
-0.850883
-2.10618
1.1844
-1.94942
0.137059
-1.26959
0.163292
0.671996
0.0640619
-0.781793
-0.913346
-1.36113
0.718612
0.501245
-1.23217
-0.110231
-0.344966
-1.32912
0.663322
0.992045
-0.757347
1.90877
-1.31166
0.155081
-0.883053
1.77029
0.64608
0.0700275
-2.09883
-0.83289
-4.94423
-3.71553
-0.810064
2.16412
-2.61763
-0.976069
-1.28669
0.32445
1.1015
-2.39592
-2.35378
-2.11563
0.204612
-1.13528
-1.32391
-3.42512
-2.85399
-4.73009
-3.74624
-4.56585
-5.48417
-2.79187
-1.83554
-0.207416
-0.768607
-1.0876
-2.35271
-1.01292
-1.5511
-0.640043
-0.612228
-1.16483
-3.67147
-2.4381
-1.54422
-1.16188
-0.124348
-2.70632
-3.19255
-4.14134
-3.48001
-3.62584
-2.89778
0.897662
-1.33992
-1.38668
-0.134739
-0.0322674
0.483979
-1.92646
-0.0607927
-0.42406
-0.317605
0.305521
-2.13887
-2.43547
-3.27596
-2.41677
-3.08319
-3.49462
-4.41293
0.0660174
-3.10994
-0.969926
-1.47301
-2.31424
-2.30943
-3.11121
-0.919126
-3.29649
-1.71061
-2.11821
-0.79148
-0.179292
-1.00494
-1.50187
-1.38965
-2.07571
-3.14894
-2.01982
-3.05104
-1.41915
-0.803617
-1.26811
1.46967
-0.664649
1.52497
-1.13431
-1.34763
-1.80203
-1.20623
-4.85596
-0.687862
0.501038
0.365492
1.19631
-3.51568
-0.649736
-0.238548
-4.66012
-2.78093
-1.94617
-0.565755
-0.205775
-2.42731
0.832404
0.867562
-0.764239
1.181
-0.919381
-0.397204
-0.18217
-0.213909
-0.357065
-0.515473
-1.123
1.34716
-1.34095
-0.666193
-2.15119
-0.710325
1.04814
0.0783111
-0.0345543
0.593396
-0.780046
4.69084
0.0383344
-0.251919
-0.179059
-2.94862
-0.152607
-2.39275
-0.687183
-1.07828
-0.758604
-1.37888
-0.345511
0.263974
1.21457
-1.35123
0.372867
-1.62746
0.966255
1.87676
1.13696
-1.35277
-0.506175
-0.293934
0.254281
-2.64427
0.359465
1.60584
-0.859465
-1.13813
-0.948107
-1.13424
2.22777
-0.802962
-1.13642
-5.1077
-0.507744
-3.40476
-1.52692
-1.11727
-0.763695
-0.145921
-0.162251
-1.33575
-2.93563
-3.10993
-2.69247
-3.47717
-0.886388
-2.732
0.657533
-2.52034
-1.57968
-3.79317
-1.12937
-4.69031
-0.817883
-1.85545
0.51714
-0.586055
-0.550326
-0.914615
0.138115
-2.59331
0.105665
-0.550648
-2.59338
0.12503
-3.13544
-0.796372
-1.52325
0.0390589
-0.900617
-0.160349
-2.11433
-2.96032
-2.94614
-1.21494
0.164479
-1.8266
-1.09987
-0.730641
1.15152
-1.66099
-3.5028
-0.142666
-2.91997
-0.00127508
-2.45276
-0.75117
-3.20573
0.262441
-3.67293
-3.08731
-3.92156
-1.18974
0.522531
-3.70969
-2.89854
-0.242961
0.0914424
0.713987
-0.959849
-2.30746
0.734037
2.05958
-0.512271
-0.0500408
-1.41622
-3.02901
0.464071
-0.901208
-3.07044
-1.34029
-4.21968
-1.12758
-2.14611
-1.50166
1.39075
3.07111
-1.18222
-0.0850708
-1.01505
-0.376055
-2.84297
-3.41372
-0.275932
-0.618129
1.18648
-0.0989134
-0.917824
-2.10024
-2.552
-3.45314
-1.04822
-0.80965
-2.08258
-0.224872
2.73585
-0.695395
-3.6032
-2.0761
-2.29305
0.88759
-3.43011
0.124743
-1.27597
-1.91464
-2.22672
-0.115945
0.960142
0.0311883
-1.67121
-0.568543
-0.569662
1.00436
0.31651
-0.230689
-2.25585
0.20385
-1.40857
-0.0728382
-2.19384
-0.641475
-0.464171
0.832118
-0.315174
-0.564633
0.238503
1.62694
-3.49869
0.245339
1.20738
-1.17749
0.138314
1.1331
0.212319
1.40743
-1.21222
0.0973895
1.53323
2.12097
1.07998
3.45399
0.653214
0.230861
0.512415
-0.29215
-1.3762
1.29471
-2.01491
-0.652509
-1.22278
-0.411197
-1.9146
-4.99848
-4.56349
-1.7788
0.831221
-1.32636
-1.6139
0.761383
0.545091
-0.406899
-1.3984
-3.36838
-5.20086
-2.57824
-2.19671
-2.99885
0.223561
-2.25107
-0.990929
-2.02105
-2.81799
-3.81416
-2.87
-0.66816
-0.083551
-1.00632
-2.236
1.93577
-0.0472811
-1.25704
-1.8289
-0.588766
-2.63931
-1.07381
-0.350665
0.127892
-2.28947
-0.433941
-3.21539
-1.67505
-5.30077
-4.7661
-1.28343
-4.22373
-1.35365
-0.186987
-2.18101
-0.131781
-1.61157
-1.51638
-0.629394
-0.911638
-1.05814
-3.40652
-1.89062
0.111397
0.925498
0.123783
-1.27004
-1.68586
-3.67164
-1.32318
-1.3116
-1.25815
0.918809
-0.526871
-1.04217
-2.19517
-0.00220288
-1.03452
-2.12031
-1.00609
-3.42238
-4.24785
0.464414
-0.829399
1.14516
0.534873
0.205351
-0.757686
-2.84742
-0.203631
-0.763234
-1.09876
-3.06559
-0.713315
2.40448
-1.21238
-0.353579
-1.04845
-0.835152
-1.37611
-2.35103
-2.394
-1.42197
1.95004
-1.56659
-2.91919
-0.755117
-2.54937
-2.41046
-1.72188
0.641071
-2.13083
1.91686
-1.67018
-1.47369
-0.301967
-2.28084
0.387694
-1.87691
-0.572583
0.286081
-0.684277
-0.979109
-1.43608
0.388123
-0.683632
-2.29847
-1.10663
-1.52747
1.80031
0.773466
0.673061
-2.43065
-0.855995
0.485917
-0.021673
0.269726
-0.509883
-1.14722
0.0797065
-0.14348
-0.0436309
-0.436719
-0.281444
-1.6347
1.87922
1.12406
-0.288068
-1.88485
0.86044
0.251188
0.125786
-1.19884
-1.19774
-0.383778
-1.89998
1.38722
-0.0743635
-0.473555
0.281178
-1.12802
-1.58975
-1.95906
-0.580309
0.618374
0.605106
0.818566
1.51413
-1.51548
-4.76598
-1.59114
-0.563532
-0.268712
-0.166671
0.158091
0.596713
2.39019
-0.208847
-2.0571
-0.29858
-0.378409
-3.56301
-1.48692
-2.43406
-0.984892
-2.46897
-1.0047
-3.67593
-3.59962
-4.92438
-1.21404
1.69899
-0.441896
0.0264928
0.307469
1.6235
0.472343
1.60964
-0.15532
-0.325132
-1.6879
-0.52256
-0.737991
0.328124
-1.667
-0.507944
-0.510682
-0.359815
-3.63328
-2.58178
-1.50388
-2.63805
-0.0474097
4.02441
1.73777
-0.926272
-0.218382
0.493106
0.729606
-1.95092
0.0754593
-0.162006
1.2259
-4.33287
2.22066
-1.22922
-2.00778
-2.72427
-3.35114
-1.73777
-2.38316
-0.479639
1.01441
-1.50105
-0.13986
0.387218
0.072194
-0.338509
1.20765
-0.599165
-0.667646
1.28651
-1.68485
1.24876
2.04317
-1.12149
-0.126256
0.132209
-3.04903
-2.02548
-1.11407
-1.43428
0.994836
-1.69859
2.13338
0.744495
-1.5906
-1.32826
1.85248
-0.43162
-0.509675
-0.176526
2.13234
-0.446342
1.5453
0.461487
-3.28793
-2.40587
-2.5863
-0.773757
-0.516781
-0.109661
2.09208
0.844201
0.532747
-1.38003
2.07437
-1.76262
1.57911
-0.0428556
-1.27931
-0.394104
1.5879
-0.579469
0.604836
0.412825
-2.546
-2.98088
-3.72878
-0.864904
-1.8779
-2.57283
-0.147737
-0.461371
0.198872
0.89418
-0.935042
2.29734
-0.153499
-2.60697
2.20541
0.710444
1.35153
-0.623412
-0.130721
-0.829181
-0.568941
0.10912
-1.57525
3.28184
-0.664772
-2.69728
-1.96378
-0.366062
-1.25833
-0.123039
0.847598
0.349931
0.321547
-0.964988
0.436814
-1.23602
1.36563
0.269477
0.639379
-1.89666
0.495837
1.82058
-1.4166
-0.840032
-0.323141
0.974304
2.38785
-0.81927
1.90043
2.33227
2.68452
1.69089
1.24721
2.81916
-0.113786
1.66694
1.90393
-2.44403
0.35863
0.394427
-0.795584
-1.3914
-3.56664
-2.10316
0.464182
-0.395412
1.59226
0.558084
-0.676373
1.28874
2.34848
-2.27289
3.1808
1.33895
0.0631476
1.047
2.21998
0.334004
2.23459
1.6702
-0.274086
-1.97857
-1.96792
-0.0883438
-2.75251
1.52974
-0.15118
1.33965
1.36883
1.96775
0.0618383
-0.39167
2.09354
2.19591
1.11529
1.30718
2.97107
0.166727
0.685587
-1.33176
-0.0972147
-2.95317
-2.78851
-1.37231
0.537213
-1.00448
-0.685944
-0.291653
1.28322
3.39958
-0.921042
-1.57238
0.713211
0.764041
1.25505
3.5986
-1.81644
0.103071
-0.793189
-2.16496
0.185361
1.02845
0.0238767
-2.10073
-2.51137
1.54487
-0.00537521
0.639377
0.450679
-2.1841
1.51144
1.42053
0.798635
-1.37114
-0.793767
-1.71722
-0.557215
1.30009
-0.176198
0.936627
0.0969556
1.83788
0.222876
-0.844666
1.30806
-2.58524
1.61974
0.492122
-1.95342
1.34284
-0.143979
0.0723466
2.87574
0.554169
-0.416822
-0.582554
-1.60379
-0.569789
0.32421
-1.88292
1.77333
-1.15101
0.273779
-2.12488
-1.37204
-0.282033
-1.57163
-1.55822
-0.941979
0.265939
-0.820041
-0.331063
2.59416
0.621339
-0.396583
0.716156
1.72097
-1.69612
0.419604
-1.93562
2.35839
-0.425922
-2.40335
-1.45883
-0.032031
0.41829
0.521138
0.785053
1.3289
-1.41852
-1.44116
0.545887
0.371943
0.134062
-0.682007
0.0748075
-0.59579
-0.299369
1.41152
0.393917
-2.71212
-0.341284
-0.00722952
-4.45409
1.36102
0.157577
0.953788
2.02453
3.6389
3.10654
1.24815
1.27648
2.1471
3.65434
2.33718
0.85174
1.57245
0.295934
-0.409991
0.819996
0.234384
0.538378
-3.84816
-1.45615
0.153836
0.750513
-0.191469
-0.33039
-0.182307
2.5555
0.478735
0.852808
-0.123868
0.833159
1.44336
0.182589
2.93695
-0.111299
1.83749
-0.190946
0.927961
-0.250174
-1.00439
-0.62843
-0.89476
0.0819995
1.15275
-0.126453
3.69845
1.49891
1.94253
1.88277
-0.656399
1.556
2.67195
2.64493
0.10822
2.80723
2.10917
1.36734
1.99896
-1.58165
-1.80416
-3.30496
-1.32758
1.10309
-0.354827
-1.16485
-0.0417115
0.973597
1.18607
0.512448
0.657042
-0.125511
0.00354411
-1.55774
-0.00145057
-1.82471
1.20193
1.53072
-1.28888
-0.859519
-1.33622
-2.23391
0.00326042
1.18588
0.0313224
2.13792
1.91833
0.527212
-1.21304
2.9193
1.75779
2.65578
-0.475007
0.883077
-0.0247125
-0.487111
-0.763956
1.41721
-2.24637
-2.09275
-3.23086
-1.45422
-2.29786
-1.28914
-1.31619
3.05876
0.991915
0.162666
-1.11861
0.389372
1.49828
1.43573
2.1155
-0.594592
2.93224
-0.541092
1.58966
0.538451
2.91889
-2.17088
0.32286
-1.21832
-0.853649
1.25081
-1.39521
0.747177
0.513921
0.101557
-0.138046
0.0337504
1.09093
0.898461
0.981215
-2.32423
1.32442
-0.943357
1.56388
2.74575
0.860253
1.44063
-1.29059
2.06276
3.94444
-1.35851
1.26903
0.716077
-2.23756
-1.82687
-1.17242
-0.536916
-0.484426
-5.05877
0.452447
0.260337
0.161767
0.571216
-0.194902
-1.30799
-1.91267
0.687873
-0.777402
0.429743
0.310175
0.911676
5.32116
0.616003
4.22693
2.85048
5.13569
2.46741
3.60604
4.38178
2.44768
0.427291
1.87146
0.901734
3.99696
0.836541
1.45882
-0.322738
-0.174995
0.751341
1.23632
2.47621
2.58209
1.65026
4.89206
1.94925
2.47832
3.09076
2.96761
0.345434
3.51126
0.986366
0.291143
1.70028
0.798718
2.90846
1.68811
2.38579
-0.673043
-1.20106
0.111672
0.380321
-0.248079
2.7506
5.15235
1.73555
-0.647391
1.10722
3.18108
3.20177
4.5348
1.77629
1.03063
2.39987
1.15686
1.26177
0.86522
-0.769476
-2.15729
-0.668554
1.83633
4.11196
-0.376873
5.10255
-0.935813
0.17093
-1.66426
-0.00982139
3.2632
-0.248475
0.992265
1.38821
2.00166
2.54189
2.20338
0.912674
1.40107
0.711621
-0.383797
1.6221
-0.606502
-1.63226
1.52313
3.34335
1.09951
-1.0353
1.42105
2.47051
0.917844
1.30107
1.84001
-0.696624
-2.76875
-0.372814
2.49698
-1.77617
1.18999
0.935701
0.508365
-1.35393
0.0138652
-0.392259
1.39848
0.5064
-0.294237
1.70709
0.266736
0.823415
1.60835
4.49203
-0.673898
-1.38328
-0.8317
1.93732
-0.299775
1.33231
0.759032
-0.581901
-0.837653
0.812814
-0.144145
-1.58573
-1.09942
0.872976
-0.322308
-0.295067
0.670314
1.37864
1.12979
2.21214
3.805
-0.997778
0.90522
-0.546604
0.976992
-0.620065
1.89863
-3.47385
-1.50323
0.732886
2.40687
-1.6171
-0.386325
0.487878
0.976847
1.24542
1.64451
0.905787
0.120132
0.230805
1.85061
3.31945
-0.0221489
2.19004
1.76672
1.69941
-1.01598
-0.957751
-0.308981
1.18506
3.46535
3.11766
3.99185
4.69129
5.36273
4.56708
7.69974
3.13811
2.2091
3.35223
3.41661
3.70744
5.85646
6.6726
4.91416
1.2205
2.84228
1.96731
0.38224
-0.0217349
-0.0769578
0.628844
0.999459
2.34468
0.461335
3.49678
-0.102772
4.88937
-0.154509
0.0793651
3.22522
0.0265251
5.45867
0.528393
2.76056
1.14876
1.2624
0.660178
-0.969076
0.74132
0.679133
2.2644
0.956429
1.3567
2.99954
2.83586
4.20167
1.14388
3.14542
3.72738
6.59214
0.824012
3.46621
1.59424
4.00383
1.51845
-0.24464
2.33721
1.09121
1.65543
1.51592
1.34048
0.353669
4.38674
2.49743
2.09289
0.858285
3.10614
3.85897
3.6284
1.72697
2.03539
2.56183
2.31967
1.19913
2.71617
2.00204
-0.881376
0.389652
0.907862
2.41729
1.63431
2.19045
2.45777
1.22498
1.9622
2.58579
-1.13661
0.240883
3.25628
1.35442
-1.81241
2.59048
1.20652
3.32869
0.48481
-1.03519
3.04113
-0.258224
1.14756
1.42323
2.73501
-0.159568
2.0103
1.17772
4.27922
2.67786
0.814824
-0.295475
1.19779
0.553716
1.74628
1.60647
2.50028
3.21012
0.478074
0.41776
1.78387
0.0802283
-0.102088
3.26744
-2.11899
0.73936
-0.58915
0.672466
3.24507
2.12551
1.0991
-0.0164839
-0.0338094
1.2526
-1.23287
1.54678
-0.327889
0.512277
0.978894
0.358476
0.829937
-0.580262
1.52709
-3.30384
1.14972
-0.684849
0.651798
1.19807
-0.434663
0.984297
-0.418976
0.519972
3.36063
-0.388849
1.30422
1.82162
3.32296
0.387352
1.78796
-0.129399
-1.33361
1.47748
1.94671
4.15515
3.97594
4.95548
3.76798
4.74299
7.23673
6.10217
6.95719
4.29716
5.93068
4.24703
7.01369
6.70568
3.25371
4.79575
4.37811
4.99002
3.09868
3.04154
3.08056
3.85121
4.24254
4.65302
4.65652
4.62069
4.97681
5.16559
3.9468
5.88656
3.73971
2.1127
4.8514
4.40261
7.03637
5.56747
5.3587
2.33361
0.542624
0.344611
-0.407834
0.660794
0.56112
4.34028
3.35847
6.67979
3.23896
2.43452
4.17239
2.30713
1.85176
2.46429
3.31301
2.66759
3.29846
0.950288
3.16339
2.39225
0.684659
1.59199
0.534193
0.623183
6.00052
3.98084
1.70483
3.64412
5.07077
2.94408
1.51287
1.53631
4.14227
3.45907
4.21572
2.1137
4.13683
3.06505
4.29618
-0.549819
2.78914
-0.992753
-2.04801
1.28781
0.718829
0.528451
2.62676
2.60346
4.114
3.02217
1.8369
2.23565
2.70935
2.36802
2.47199
1.64604
1.5438
3.33718
1.67799
3.79783
1.28399
0.426701
1.14428
1.86375
-0.644591
0.956733
1.50636
1.2502
1.32051
0.360693
3.0119
2.92224
-0.380144
1.42373
2.37765
3.29954
1.696
1.51993
0.905981
2.90336
1.48711
3.86702
-0.781676
-0.771873
1.55546
1.38303
0.17111
2.37281
-1.2849
0.387108
2.22485
0.582983
-0.989838
1.14924
2.48834
2.76545
1.36694
-0.416454
-0.116755
-0.453976
-0.792748
-0.531167
0.673823
-0.326868
-0.125692
-0.0142176
0.226007
-1.71535
-1.98076
-1.8226
0.310007
-1.78178
-1.32425
1.92544
-1.73921
3.43963
-0.0323241
1.77496
1.21362
-0.439747
1.06619
-3.28573
)
;

boundaryField
{
    hotSide
    {
        type            calculated;
        value           nonuniform List<scalar> 
400
(
-2.02263
-2.40665
-1.04504
-0.416778
-3.11219
-2.7299
-2.74397
-4.84901
-4.11259
-2.80257
-1.80863
-3.45354
-3.57305
-3.41549
-3.13019
0.853099
-2.69901
2.25141
3.078
3.91564
-0.438852
0.842793
2.11362
0.537029
-1.85221
-0.6122
-0.902037
-2.43528
-2.52167
-1.93989
-2.98628
-2.20278
1.04739
-2.96155
0.062142
1.3861
3.1309
2.14543
5.37074
6.1355
2.99087
3.31087
1.84618
3.1485
1.50617
1.74751
0.908027
-1.70217
-1.29664
-0.660506
-2.60684
0.725568
-1.82852
-0.157436
1.10758
2.69987
1.94238
2.76055
5.03547
5.96761
3.73865
6.16879
1.79178
4.2321
2.23241
1.99766
1.40417