/*--------------------------------*- C++ -*----------------------------------*\
| =========                 |                                                 |
| \\      /  F ield         | OpenFOAM: The Open Source CFD Toolbox           |
|  \\    /   O peration     | Version:  2212                                  |
|   \\  /    A nd           | Website:  www.openfoam.com                      |
|    \\/     M anipulation  |                                                 |
\*---------------------------------------------------------------------------*/
FoamFile
{
    version     2.0;
    format      ascii;
    arch        "LSB;label=32;scalar=64";
    class       volScalarField;
    location    "./ITHACAoutput/true/18.2";
    object      error;
}
// * * * * * * * * * * * * * * * * * * * * * * * * * * * * * * * * * * * * * //

dimensions      [0 0 0 1 0 0 0];

internalField   nonuniform List<scalar> 
3200
(
0.126596
1.07907
1.98822
2.9746
2.46434
2.32976
3.78633
3.17474
2.43636
1.22239
1.42403
0.539518
1.19206
1.16141
2.14133
2.52336
2.77689
0.454442
1.99272
0.587465
1.56429
0.826849
0.0555404
1.93427
1.87872
1.1009
0.581867
1.4511
1.44275
2.79407
1.5595
1.31563
0.00574039
1.47614
0.998078
2.15928
1.4353
2.43786
0.635334
-0.162719
0.180064
1.81584
1.31856
2.67085
1.45595
0.947741
0.998616
0.879842
1.61959
0.954574
0.274322
-1.00451
0.804278
1.11954
1.00989
0.909517
0.833177
1.53637
-0.314648
0.171132
-0.193376
-0.837698
1.69756
2.205
0.7863
1.94274
0.802677
1.4877
0.467529
0.406202
1.79918
-0.296562
0.428455
-0.0885406
0.0656266
1.08369
0.270939
0.592496
-0.940656
-0.393212
1.00883
0.986214
0.839105
0.702811
0.795682
2.05011
0.935316
0.178689
0.885805
1.26508
1.06168
0.398376
-0.281885
0.957858
1.6105
-0.134076
0.388407
2.00601
0.561995
-1.05411
1.2463
-0.787015
-0.209946
-0.374428
0.495854
-1.44147
-0.578352
0.628681
1.9393
0.791742
-0.135871
-1.019
1.25967
0.51692
0.569018
-0.00910653
-1.17944
-0.0296157
0.897699
0.980792
0.32692
-0.118974
-0.716812
-0.335976
-0.480439
0.141788
-1.19393
0.561228
0.899714
-1.15602
-0.213335
-0.126152
0.0770766
0.371175
-0.896917
0.235697
-0.504126
-0.302425
1.29966
0.361138
-0.0345975
1.09145
-1.05814
1.3017
-1.53129
0.598633
-0.382943
0.25293
0.13436
-0.369237
-1.98669
0.693675
0.0993607
1.2392
0.607677
-0.822806
-1.62336
2.02871
-0.90097
1.22363
0.315733
0.0276471
0.773771
2.93868
1.61711
1.71779
2.35629
1.21784
1.27335
0.551967
0.739284
1.28573
1.33957
1.69759
2.71075
3.41081
3.08857
1.09942
1.48673
-0.873171
0.151351
0.532573
2.60544
-0.0469347
2.03968
-0.377278
0.83179
-0.120662
1.364
-0.520194
0.0168908
1.45749
0.0301025
1.25195
0.293848
0.583192
0.494452
1.94803
0.269763
1.68028
1.02128
0.622666
0.315079
2.30399
1.04466
0.901767
0.354779
0.0990051
0.224166
-0.135412
1.24511
-1.12528
0.276864
2.04028
1.24632
2.0487
0.266171
1.39479
-0.95211
0.0810069
0.743664
0.987999
1.67232
2.13115
1.70865
0.605937
-0.401217
0.720253
-0.0399913
0.618092
-1.66642
0.650337
0.539572
1.09274
0.981388
2.20586
1.33216
-0.51954
0.278653
-2.3255
0.901928
-0.536844
1.21918
1.53225
0.310688
1.19804
1.09575
-0.0973904
1.22616
0.139751
-0.289258
-0.302229
-0.834317
-0.126178
-0.0813869
-0.408076
0.256584
-0.84267
0.674206
0.0351426
0.125627
0.257028
-0.510291
-0.281714
0.762221
0.398517
2.67108
0.0549273
0.237488
-0.724469
1.04529
0.315012
-0.142727
-0.171094
1.11861
-0.13714
1.11646
-0.983681
0.112961
1.46393
0.77341
-0.11282
0.131101
0.875363
1.55817
0.539906
0.855885
0.284925
0.120903
0.35207
-0.722242
-0.956745
-1.33383
1.13323
1.27864
1.74747
-1.04276
0.613616
1.01646
1.637
1.06951
-0.321297
-0.31991
1.72226
-0.932291
-0.978516
0.35334
-0.475889
0.638309
0.938602
0.0989996
-0.834723
0.898561
0.0190722
1.30028
-1.26897
0.387645
0.30487
0.74457
0.558487
0.316345
0.856706
2.57573
1.40483
1.93794
1.35991
0.816657
0.298538
1.10864
-0.567005
-0.445625
0.364735
1.35504
0.458124
2.66218
0.121641
3.03565
1.94884
1.53656
-0.967329
1.23774
0.632193
2.17431
1.43577
0.614534
2.65647
1.36502
0.954006
1.91083
1.69219
1.15134
1.5673
0.956553
1.00837
0.629084
2.043
0.316775
2.29333
0.204484
-0.60818
-0.136178
-0.31892
1.90067
0.81352
1.72407
0.0566863
1.60965
0.759822
-0.709529
0.144424
1.78507
-0.795872
1.71098
-0.140697
0.847514
1.19882
-0.380394
0.168061
-0.102429
0.582613
0.0376575
-1.14148
1.88957
-0.675554
1.50899
1.5862
-0.139734
-0.714346
0.85209
0.294796
0.0336975
0.321935
-0.281744
0.552547
1.01377
1.90228
0.735514
0.956541
1.03278
-0.664301
0.78706
-0.803008
0.306422
0.24143
1.0934
2.02492
1.21184
-1.60153
2.03807
0.00703341
-0.670393
1.09937
0.448745
-0.97783
0.0841649
2.10059
-0.175174
-1.15153
-0.210076
-0.543372
-0.741664
0.545065
0.766284
0.30183
1.28679
-0.750737
-0.160746
1.90382
0.771805
-0.384181
-0.292778
0.0219338
-0.427725
0.370609
1.11909
-0.464419
-0.134162
0.436337
0.199338
1.87021
-0.902268
-0.0912649
-0.943777
1.34024
0.272444
-0.808901
-0.785619
-1.18822
0.0824005
1.07073
0.714755
-0.242657
-0.0277372
-0.856218
-0.555881
-0.102504
-0.497192
-0.223133
0.0123399
0.737475
0.0405976
-0.149227
-0.365888
0.881809
0.916213
-0.113482
0.549492
0.0185363
0.672285
0.233211
0.279464
-0.163848
0.968145
-0.110759
0.503054
-1.63474
-1.04946
0.381907
0.256959
0.184732
0.132666
1.49608
1.06484
1.25983
0.308006
1.52752
2.24276
-0.298777
0.401563
0.945094
-0.649261
-1.02963
2.04798
1.02181
1.10353
1.20926
1.29968
2.02611
0.782569
1.08033
-0.722978
-0.246359
0.937417
-0.256326
1.77787
0.318068
0.498915
-0.12781
1.65887
0.227032
-0.0475495
0.906263
-0.443185
1.40413
0.326663
0.64082
0.0150515
-0.0575521
0.553102
-0.366699
-0.955772
0.443158
0.527514
1.55407
1.91411
2.73526
0.64629
0.00919098
-1.87765
-0.824204
-0.0373333
-0.0566562
-1.41891
0.224291
2.26728
1.69418
0.513359
0.0603171
0.21393
-0.105969
-0.669712
0.149629
0.917604
0.668518
0.915626
1.13018
2.49201
0.662554
0.0133825
0.663457
0.781671
-0.764177
1.17464
-1.01258
0.823737
0.123067
0.731043
0.797318
1.41883
0.436634
-0.53295
0.244351
0.299157
0.297442
1.44208
1.35776
0.0844449
-0.55294
0.712996
0.425174
0.0808086
1.16434
0.44263
0.198223
-0.39357
0.617103
0.13926
1.66531
-0.426488
-1.28912
-0.51814
-0.433521
1.74394
0.949506
0.844566
0.103875
0.502967
-0.819146
-0.0599454
2.2577
0.630579
-0.57385
-0.271511
0.31618
-0.409068
0.3901
-1.59622
-0.520263
1.96597
-1.37385
-0.233646
0.213816
0.396281
0.278171
0.558367
-0.060856
0.116857
-0.56844
0.459824
-0.182643
0.501557
0.236701
0.0878043
0.181116
-0.0724256
-0.665197
-0.681471
-0.300464
0.182222
-0.285501
0.377284
-0.529309
-0.722982
0.110384
-0.521906
0.408855
-0.500423
-0.68139
0.00397119
-0.0309688
1.09141
0.563288
1.07408
-0.917452
0.396386
-0.423111
0.0676326
0.710947
1.15953
1.01519
0.164728
0.646427
1.38874
0.197733
1.58081
0.940682
-0.348659
0.551481
-1.08741
-1.0307
1.43436
-0.464149
0.109922
-0.451205
0.914761
0.507366
-0.0529833
0.885526
-0.36903
-0.709142
-0.0641917
1.24425
1.1185
-0.264769
0.562297
2.98659
-0.63756
1.18163
-0.871071
-0.848942
0.2139
-0.415691
-0.768785
-0.0650705
0.609505
0.97856
0.0761776
1.35243
0.565569
-0.831811
-0.0650044
-0.265713
-0.229232
1.66634
1.00403
-1.27034
-0.280087
0.162677
-1.31979
-0.917015
-0.660685
-0.586581
-1.13614
0.150076
1.08782
0.97374
0.142991
0.498508
0.077025
0.422784
0.590558
0.506868
0.595287
0.355737
0.139719
-0.709767
0.161293
-0.779898
0.0960252
0.028077
1.16044
-1.39143
-0.0720972
1.33661
-0.358756
0.98263
0.765156
0.136791
0.30742
1.13572
-0.225906
-0.459334
0.312477
-0.0660793
0.321127
-0.336891
0.646805
-2.10337
-0.804361
1.64807
0.29555
-1.00465
-0.741531
0.600887
0.1691
0.857188
-0.317229
2.19519
-1.38745
-0.811957
0.828583
0.548415
-1.37786
0.0574606
0.184241
0.451897
0.131521
-0.442367
1.0051
-0.367909
0.0708247
0.716333
0.0205145
0.349243
1.03274
-1.09596
1.21643
0.159106
-0.30503
0.714379
-0.107338
-0.321702
0.9215
0.00869334
-0.635078
-0.737534
0.473432
0.91299
-1.50795
-0.568156
0.505681
0.39033
-0.838162
0.486283
0.8997
0.773366
0.0737881
-1.41499
0.203914
-1.4653
-0.110974
1.24311
-0.473645
0.133388
1.06387
-1.72098
-0.248819
-0.526499
0.68298
-0.712889
1.29944
0.750046
-0.396523
0.770105
-0.0447034
0.651093
-0.583023
-1.07138
-0.179108
0.654602
1.30116
0.682406
0.179872
1.69498
-0.0911584
0.303023
1.20835
-0.234921
-1.43735
0.192001
-1.84052
-1.54632
-1.68513
-0.60734
1.34292
1.20736
0.0779325
2.59033
1.0827
1.32028
0.981912
0.108508
-1.119
0.155269
-0.484541
0.277921
0.30411
0.295131
-0.402585
0.0889008
0.23306
-1.48195
0.0493624
-0.396856
0.556214
0.0625718
-0.529609
1.26709
-0.404365
-0.311412
-0.550061
-0.424478
0.0268122
-0.283961
0.97947
-0.179351
0.343959
0.624604
-1.02436
-0.457888
-1.05775
-0.390339
0.0541274
-0.14992
0.361535
0.132675
-0.605828
-0.701562
0.170784
-0.452511
-1.2245
-0.81105
-0.52627
0.396819
0.215602
-0.0602488
1.04039
0.395952
-1.58371
-0.955445
-0.379579
-0.875553
0.591613
-0.96079
-0.753491
0.453462
0.910347
-0.351266
0.0364183
-1.61685
-2.36214
0.31285
0.0903473
0.835771
-1.79305
1.19904
-0.513582
0.807598
0.833746
-0.931194
-1.08252
0.119079
0.0665909
-1.9811
-1.98148
2.39579
-0.659343
-0.314659
0.75131
-0.610713
0.315948
0.557598
1.05622
0.277961
-0.154227
0.438086
-0.956335
0.916673
-1.19913
-0.322469
-0.454647
0.206234
-0.463807
0.181345
0.197167
-0.0478856
-1.13505
0.903038
0.511386
0.113224
-0.271626
1.27433
-0.23921
1.25324
0.968599
-0.629042
-0.496356
-0.301177
0.675458
-1.37413
-0.822593
1.57148
0.064743
0.891476
0.0143786
-0.106351
-1.42302
0.398791
-1.17461
0.358547
0.403749
0.070405
0.439965
0.386249
0.148731
1.23723
0.823924
-0.827708
-2.06422
0.538581
0.0470975
0.413275
0.0523611
1.59938
0.910356
0.120901
0.226168
0.602778
0.373735
-1.12033
0.163629
-0.487874
0.872734
0.763645
0.483659
0.479588
-0.561975
-1.46259
-1.7648
-2.17257
-0.989677
-1.3142
-1.62024
0.162821
-0.664498
-1.35108
0.569247
0.505462
-0.352377
-0.904782
-0.195509
-0.0662996
0.0652527
0.31601
0.209688
-0.984814
1.46561
0.507158
-0.575425
-0.173131
-1.05502
-1.05751
-1.91307
0.316846
0.392117
-2.79585
-0.155567
-0.315529
-0.215261
-1.65301
-1.11343
0.501801
0.80934
-0.401889
0.395768
1.58962
-0.645494
-1.32245
0.0703052
-1.79238
0.398905
-1.1993
-1.12722
-0.109959
-2.07122
-0.295305
-0.58976
-0.233522
0.7054
-1.66303
-0.97133
-0.588606
0.720921
0.304891
-0.567842
1.03348
-1.04519
-0.456848
-1.37807
-0.665679
-1.91518
-0.91809
-1.54368
0.746996
-1.28679
-0.288501
0.768956
-0.436948
0.329127
0.268141
0.0905015
-1.31181
0.539731
-0.764225
0.314548
0.951754
-0.420841
-0.335123
0.638457
-0.140211
-2.79266
-1.0517
0.519355
-0.827761
0.721596
0.0466616
0.678689
-1.05785
-0.970932
0.153823
-1.19246
0.40298
1.17293
0.0255084
-0.162968
-0.099215
-0.788956
0.530269
-0.0140312
0.494805
-1.60918
1.06528
-0.381368
0.132314
-0.0516179
-0.5989
-0.299584
0.0290659
0.698888
0.646645
-0.182467
0.0457044
-0.947761
0.278907
1.02957
1.11494
-0.890409
0.0674979
-0.702273
-0.26748
-1.01341
0.568961
-0.518699
-0.187518
0.578172
0.234481
-1.75313
0.356024
-0.924624
-0.419163
2.00187
-1.13513
-0.124162
0.131923
0.236207
0.213193
-0.896411
0.348484
-0.204996
1.24032
-0.390474
-0.0915789
0.498793
-0.443282
-1.11526
1.52527
0.158019
1.10545
-0.850195
0.150713
-2.0771
1.16464
-0.849624
1.05654
1.39407
-0.148707
-3.14167
0.853712
-2.48847
-4.0387
-0.918436
-0.743384
-1.50527
-0.820642
-0.106389
-0.340689
-0.848215
-0.445076
-0.56542
-1.08074
-0.511117
-0.182352
1.62201
0.226005
1.43554
0.082637
0.836787
-0.0322481
-0.155846
0.0325389
0.11056
-0.030223
0.264018
0.177275
-0.236986
-1.06891
-0.227498
0.953153
0.181207
-0.365891
-0.31866
0.331237
-0.193309
0.257015
-0.0248939
-0.153602
0.493434
0.319936
-2.67042
-1.35716
-3.10585
-1.13191
-0.988893
0.171765
-1.55271
0.0684208
-0.454181
0.0656744
-0.428647
0.382547
-0.542388
-1.20537
-0.475684
0.0846606
-0.00424096
-1.42952
-1.71073
-1.06492
-1.36794
-1.20369
-1.12142
-0.790433
-1.17505
-2.687
0.547203
-0.094029
-0.205459
-0.665648
-0.833176
-2.07007
-0.987442
-2.1373
0.827652
-0.994586
-0.497207
-0.558212
1.7869
-0.926448
-1.40742
-1.31568
-0.727836
-0.0742661
0.174227
0.235058
0.808996
-0.226924
0.116305
-0.673157
-0.656815
-0.687298
-1.14136
0.290092
-0.238265
-1.43577
1.45117
0.716511
-1.19554
-1.03693
-2.66252
-0.358816
-0.516399
-1.34202
-0.190196
-1.23639
-0.706472
-0.973099
-0.588341
-0.979616
0.149292
-0.617851
-0.509733
0.146025
0.00641624
-0.321003
-0.116903
-0.311365
0.224848
-0.517443
0.0971101
-0.125177
-1.17503
-0.505904
0.625734
0.594763
-0.0725744
-0.676383
0.0446789
-1.24417
-0.0157406
-0.0555336
0.342604
-0.0502701
1.38678
-0.448859
1.48983
0.262383
-2.02583
-0.666396
-0.293241
-0.810719
-0.943949
1.22195
-0.460745
-0.116606
-0.44204
-1.2567
0.176054
0.440585
-0.344716
0.938319
0.103867
-0.939224
0.00245321
0.807234
-0.552609
0.720626
-1.42583
-2.24847
-1.84096
-0.828587
-2.0832
-0.900793
-3.03048
-2.17369
-0.0195579
-1.35118
2.20686
-0.521131
-0.651199
-0.681007
-0.935767
-1.35564
-0.435205
-0.00342841
-0.327023
0.759447
-1.50065
-1.95457
-2.00769
-2.51944
-2.14179
-1.2707
-3.27225
-1.50913
-2.26903
0.216917
-0.21643
-0.340089
-0.870194
-1.15614
-2.24743
-1.38712
0.55248
0.176946
-0.849578
0.16363
-1.79068
-2.01805
-2.4833
-0.917505
-1.95086
-1.28859
-2.27178
-1.96719
0.871725
0.285758
0.0588064
-0.248504
-1.13004
-2.36486
-0.54401
-1.08237
-0.205222
0.782535
0.855487
-0.10185
0.00712001
-0.258109
-1.08619
-0.967198
-2.12106
-0.0667668
-1.40794
0.847936
-0.924183
0.0685772
-2.16457
-1.34579
-0.966204
0.112727
-1.60562
0.615031
0.980668
-0.593534
-1.72383
0.520818
-0.334359
-1.4657
-1.1261
-1.61704
0.842546
0.198511
-0.817489
0.0585971
-1.48641
1.64292
-0.572717
0.666342
-1.04673
-0.887345
-0.0119438
-1.16117
-0.739315
-1.62493
-1.1688
-0.196683
-0.64313
-0.567695
-1.84358
-1.25575
-1.64055
-1.30907
-0.891098
0.0327505
-0.74867
-0.891635
-0.886907
-0.182229
-0.72665
0.0799239
-1.1944
-0.00768974
0.431678
-0.873279
-1.45144
1.46452
1.53607
0.615264
0.908635
-1.21523
0.456659
0.732674
-0.797003
-0.724566
0.065455
-1.5706
-0.351154
-1.11235
-1.41211
0.121072
-1.54172
-0.978535
-0.462052
0.00194799
-0.136113
-0.768306
-0.845583
-0.0337995
-0.644259
-0.617205
1.0619
-1.28576
-1.09426
0.337247
-0.270881
0.440984
-0.956084
-1.18222
-0.363265
-0.432367
-0.0629887
-1.05943
1.59007
-1.64159
1.0477
-0.0732639
-1.40765
-0.510965
-2.04406
-1.17703
-2.36371
-1.92868
-2.64367
-1.36912
-2.13733
-0.972042
-1.25489
0.0836301
-2.05761
-1.40737
-1.06042
-0.179326
-0.418593
-0.0379656
-0.465335
-0.162328
0.03647
-0.530231
-1.80518
0.0357775
-0.255098
-0.650133
-0.115395
-0.912358
-0.217852
0.0370953
-0.0597912
-1.30991
0.0689218
-0.639507
-1.10472
0.561014
0.46742
-0.721683
0.890961
-1.3507
0.0958938
-1.62293
-1.34517
-1.89595
-1.73598
-2.13166
-1.48618
-1.39636
-2.01496
0.288215
0.0750227
-0.863159
-1.05339
0.403028
-1.65753
0.0800151
-0.0222536
0.239684
-0.153492
0.132173
-0.996361
-1.29264
-0.616044
-1.25878
-2.23218
-0.88834
-1.20115
0.478448
-2.2239
0.460196
-1.83496
-0.336696
-0.338363
0.665701
-1.63865
-0.437048
-0.483764
-1.45585
0.0421197
-2.34819
-0.917759
-2.1998
-2.13597
-2.22605
-1.45394
-1.00575
-2.28746
-0.105568
-0.31993
-1.88001
-1.142
-0.619708
-1.66635
-1.8128
0.00313225
1.65726
-0.953382
0.758411
1.26716
-0.260314
0.709951
-1.55872
-0.214571
-1.08489
-2.22542
-0.0595279
-1.59238
0.38442
-0.751275
1.63622
1.12018
0.376575
0.133473
-0.748496
-0.194646
0.89317
-1.29087
0.758249
-0.685914
0.491544
-0.758897
-0.0636771
-0.702103
-1.62807
0.0335131
-0.454509
-0.837232
-1.25459
-0.311037
0.112802
0.0337756
-0.556868
0.89578
-0.775122
0.959228
-0.595714
-0.390648
-0.241464
-0.0954288
0.232825
-1.54087
0.10771
-0.674051
0.672553
0.0416287
0.400774
-0.916884
0.187417
-0.405248
0.570098
-0.84484
1.6936
0.410863
-0.865456
-0.859276
-0.0331326
-1.91602
-0.416177
-0.542795
0.624095
0.0613105
0.198589
-1.78081
-1.25976
-2.37642
-1.17767
-1.74455
-2.57436
-0.908589
-0.545083
-0.775629
-1.83144
-0.573104
-0.585797
-1.51895
0.197993
-0.626877
0.0797403
-0.876437
0.118322
-1.47985
-0.243053
-1.50917
-0.272342
0.290851
-1.87355
-0.175436
-1.76365
-0.216863
-0.170098
0.262917
0.523409
-0.218422
-1.1633
-1.24876
-0.0457225
-0.654012
-0.253541
-0.610612
-1.12764
-0.803372
-1.13912
-1.45335
-2.58054
-0.6128
-0.920981
-1.04444
-1.93848
0.0638409
-0.909099
-1.63709
-1.10843
-0.456145
-0.672979
-1.73571
-1.37656
-0.134668
-0.674447
-0.368508
-1.14966
-0.668636
-1.69437
-1.37456
-2.58536
-0.24178
-2.74844
-0.997061
-1.36286
-1.45277
-1.10141
0.666658
0.308929
-0.70706
-0.37961
-0.936858
-1.42796
-0.773747
-1.12316
-0.469067
0.39592
-1.15011
-1.69698
-1.5216
-2.12992
-1.56837
0.856966
-0.16398
-1.59692
-0.649631
-0.349518
-0.280208
0.112848
-2.09588
-0.0485081
-0.968835
-0.0994566
0.318384
0.703916
-0.0440448
0.0577388
-1.73333
-0.660404
-0.8489
0.961105
-1.1644
-1.25493
0.689224
-0.830463
-1.70217
-0.7148
-1.59603
-0.671063
0.662143
0.060863
1.48719
-0.0139872
-0.720371
0.804999
0.383454
-0.333631
0.639868
-0.181529
0.899008
-0.535495
-1.58321
0.831507
-0.430266
-2.11803
-1.66317
-0.920649
-0.440248
-1.42339
-0.499575
-0.419357
0.0680639
0.0229265
1.47765
0.0107172
0.435995
-0.062798
-0.83848
0.252429
-0.546853
-0.65478
-0.219839
-0.917923
-0.425752
1.04876
1.58365
-0.228804
-1.55118
0.724847
-0.213969
0.523874
-2.56432
-2.01083
-0.900517
0.04429
0.417457
-0.813352
0.700509
-0.131292
-2.60352
-2.4265
-2.6981
-1.75383
-1.76756
-2.64435
-1.53268
-1.4431
-0.485106
0.318981
-1.44615
-0.0259308
-1.03729
-1.10848
-0.0684778
-1.68144
-1.37233
-0.138635
-2.15138
-2.84179
-2.78191
-1.55389
-2.69891
-0.432499
-2.55654
-2.43628
-2.44226
-0.475737
-1.1608
-2.04882
-1.41764
-2.16286
-0.251735
-0.712947
-1.73285
-1.65831
-1.24328
-0.887809
-0.423655
-0.927445
0.192522
-1.38841
-1.18084
-1.88955
-1.63078
-2.30317
-0.238545
0.135264
0.510372
-1.19105
-0.211159
-2.54848
0.28453
-1.28801
-0.956236
-0.996173
1.23293
-0.632856
-0.775116
-0.624556
-2.27348
-2.43069
-0.790123
-0.226492
-0.46921
0.427655
-0.638895
0.262554
0.284331
0.355437
0.0312241
-1.25671
-0.684048
-1.08375
-0.273211
-1.84355
0.285105
0.895301
-1.60193
-1.16991
-0.46773
-2.14595
-0.466565
-0.435027
-0.834888
0.605219
0.260883
-1.9314
-1.41143
-0.1391
-0.115285
-0.205482
-0.323125
-1.30031
-1.0593
-0.242821
0.730204
-0.532244
-0.43464
1.33793
0.355419
-1.15127
-0.834537
-0.536031
0.673332
-1.64904
0.737707
0.170755
-0.139658
-0.288741
-1.603
0.216115
-0.166166
-0.764307
-0.751654
-1.10023
-1.10503
0.220662
0.351974
-0.173055
-0.135231
-0.730108
0.675961
0.769123
0.0153256
-1.32498
1.34443
0.441614
0.330292
-0.471387
-0.243923
1.19492
-0.346108
0.124102
1.03679
0.0805899
-0.997087
0.143387
-0.67846
-0.140355
-0.17487
-0.312916
0.518012
-0.285993
-0.0506996
0.428123
-0.885514
-1.60019
-0.42074
0.241676
0.10554
0.982461
-2.37273
-0.587641
-0.652527
-0.641276
-0.877758
-0.875717
-0.761172
0.261635
0.912361
-1.46845
-1.87142
-1.74059
-0.897981
-1.39556
-0.884625
-0.33787
-1.52416
0.0563663
-1.17755
-0.179519
-1.34748
0.0648083
-0.850924
-0.100317
-0.753732
0.0909182
-1.69906
-0.139911
-1.42246
0.149129
-0.0612039
-1.37403
-0.311881
-1.38227
0.0411781
-0.548021
-0.199674
0.178395
0.265282
-2.47476
-2.32446
-0.769581
-1.85465
-3.01019
-0.773324
-2.08741
-0.165784
-0.956848
-1.90941
-2.67794
-2.09009
-0.742003
-1.73678
-1.03572
-0.779458
-0.402278
-0.52092
-0.807796
-1.99288
-0.554147
-1.38559
-1.05297
-0.370244
-0.908065
-1.25169
0.106307
-0.184464
-3.5868
0.450758
-1.35481
-1.29483
-1.46333
-2.24465
-0.262639
-0.0911562
-0.669267
0.0617108
-0.885299
0.0915917
-0.349823
0.213974
-0.518834
-0.627123
-0.264464
0.116858
-0.0483196
-0.514745
-1.62062
-0.353512
-2.20294
-1.22659
-0.195722
-2.03596
-0.114369
-0.761311
-0.101128
-0.997113
-0.895745
-1.05857
-0.394353
-0.297718
-1.01654
-0.0880275
-1.06477
-1.15916
-1.29262
-0.543643
-1.56682
-0.113561
-1.44212
0.138278
0.261577
-0.748168
0.305206
-0.908422
-0.962748
-0.535352
-1.1411
-0.96845
0.484426
0.0382752
-0.930167
-0.0671733
1.04656
-0.326012
-0.600171
1.8045
-0.213613
-0.958566
1.83586
-0.0592871
1.15809
-1.37514
0.717913
-1.18768
-0.139513
-0.688579
0.259994
-0.733715
-0.445712
0.917207
-0.415614
0.0633171
0.858558
-0.22392
0.418444
-0.65938
-0.297538
-0.775719
-1.26614
-0.379866
-0.655192
-0.892016
-0.131726
0.878731
0.234056
1.24822
0.0116183
-0.17138
-0.965866
-1.25662
-0.730956
-1.16967
0.84351
-1.4493
-0.889074
1.15251
-1.00334
-0.322559
-2.20823
-2.44759
-1.71713
-0.682631
-0.506107
-0.799585
-1.07556
-0.090778
-0.943752
-1.44326
0.0131594
-0.886735
0.0255667
-1.82785
-0.090368
-0.483199
-0.595448
-0.0868559
-1.12639
-1.65881
-2.60688
-1.309
-0.908435
-2.51554
-1.51148
-0.908861
-1.31442
0.715979
-0.753802
-0.342284
-2.17404
-0.313843
-0.988221
-2.02139
0.472456
-1.62177
0.0864608
-0.56172
-0.781238
-1.02204
-0.450587
-0.0494974
-2.63455
-0.87796
-1.52016
-0.0529885
-2.49611
-0.811458
-0.44334
0.628978
-1.87379
0.579192
-1.33406
-0.900156
0.19715
-1.04132
-1.64086
-1.11394
-0.702565
0.610874
-0.401075
-0.353477
-1.92567
-0.176076
-0.665543
-0.33543
-0.0760676
0.161345
-0.788642
-1.59032
-1.43503
-0.355411
-2.23856
-1.45026
-0.126375
-0.255183
-0.0673989
-1.41155
-0.53059
-1.32704
-1.89015
-1.01496
-0.39808
-0.699121
-1.60773
0.379038
0.124069
0.211544
0.0275582
-0.461969
-0.6791
-1.13956
0.455333
-1.63049
-0.488121
-0.406782
-0.558706
0.806717
0.836015
1.18277
-1.1016
0.977183
-0.15354
-0.715413
0.187534
-0.225383
-1.26573
-1.09503
1.09548
-1.76105
-0.875817
0.462585
-0.799068
0.261109
-0.295642
-0.439979
-1.1474
-0.63855
-0.909281
-0.876959
-0.919332
-1.44715
-0.644929
0.0527024
-0.463831
-1.02302
1.76136
1.86192
-1.04751
-1.55679
-0.221832
-0.677421
-0.60662
-0.272875
-1.44814
-0.75785
0.68796
-0.988095
-0.815251
-0.322092
-0.906962
-1.26528
-0.152909
0.247019
0.342496
0.268248
0.360139
-0.294745
-1.77771
1.01563
-0.236084
1.45509
0.534327
-0.600393
0.468289
-0.276678
0.508918
0.0780014
0.569789
-2.3794
-2.17426
-1.20603
-1.28726
-0.252438
-0.538987
-1.07817
-0.20554
0.24168
0.517219
0.0207226
0.235667
-1.29469
-0.251354
0.723142
-0.419302
0.0548075
0.159314
-0.769116
-0.284735
0.147301
-0.00425346
-0.739569
-1.21223
-0.323102
-0.502542
-0.14544
-0.292793
-0.243235
-0.521476
-0.0970085
-0.374349
0.122356
-0.513462
-1.34917
-1.73553
-1.45823
0.497977
-0.909071
-0.536637
-0.421627
-0.500839
0.224468
-1.6899
-0.056809
-1.39527
-1.03318
-1.04175
-0.728315
0.607549
-0.211504
-0.670694
-0.806384
-0.361376
0.138216
0.209159
0.151956
-1.16905
-1.30256
-0.478039
-1.74611
-1.32551
-1.6167
-1.1279
-0.085825
0.831134
-0.789494
0.71967
0.3732
-1.47232
1.42688
-0.166062
-0.0109404
-1.39258
-0.668765
-0.850628
0.00377029
-0.719681
-0.683258
-2.13876
-0.902872
-1.12343
-0.987127
-0.824691
-0.395608
-0.441807
0.190527
-0.805564
0.257012
0.1695
1.18261
0.27296
0.203614
-0.878122
1.30869
-0.127612
0.535561
-1.87362
-1.52787
0.824199
-0.236321
0.442613
-1.7928
0.137678
-1.19801
0.378805
0.397015
-0.545963
-0.501547
-2.05872
0.914742
-0.574089
0.124548
-0.788813
-0.546739
-0.728342
0.365565
-0.423779
-2.75815
1.09609
0.61574
0.393448
-0.235193
0.111368
-0.811402
1.17427
0.599613
-0.0245232
-0.577895
-0.910929
-1.10248
0.481404
-0.625822
0.107517
-0.740655
0.56475
-0.14041
0.935447
2.47876
0.416846
0.910343
0.179503
0.000457478
0.279045
0.111569
0.808797
-0.0944506
-0.666835
-0.44122
0.104485
-0.37575
1.07904
-2.11485
-1.05523
-0.321062
0.550457
1.21951
-0.697925
-0.186738
-0.0350138
0.728877
-0.925802
-0.832321
-0.809134
-0.984557
0.30582
-0.756848
2.10943
0.182458
-0.59518
1.08679
-0.608483
-0.350197
-1.56945
-0.762964
-0.617654
-0.70525
-1.52673
-0.981876
0.659441
-0.483229
-0.967698
-1.35317
-0.699014
-0.453279
-1.1724
-0.416741
-1.47117
1.09431
1.17636
0.737179
-0.259272
-0.829204
0.0315506
0.207843
0.245688
-1.51351
0.291595
-1.0683
-1.51904
-0.206071
-1.26698
0.564895
-0.533257
0.99043
-0.262524
-1.13867
-0.182301
0.463703
1.84089
0.0517404
-1.1001
-1.37519
-0.543127
-1.06517
-0.552117
-0.577106
1.42992
-0.836476
0.763422
0.60822
0.751032
0.172762
-0.718513
-1.00846
-0.410909
0.748342
0.354681
-1.5645
1.1927
0.442097
0.976236
-1.5636
-1.56328
-0.521428
0.691973
-1.18162
-0.486789
-1.4623
0.52194
-0.282165
-0.140268
-0.373423
-0.707848
-0.775051
0.734135
-0.540516
-0.265313
0.651655
1.47426
0.488935
-0.105936
-0.715829
-0.174371
0.721313
-1.61136
1.39303
0.22437
-1.38537
1.06441
-1.55271
1.17216
-0.48249
-0.823354
0.119365
0.439072
0.229287
-0.063914
0.464918
0.264687
0.461482
-0.18232
-1.15659
-0.413285
0.356526
-0.11313
-1.09788
1.14897
-0.928982
2.1263
0.520558
0.140396
0.646442
-0.103067
0.684505
-0.993104
0.290414
0.306593
0.617367
0.0451417
1.34957
0.735632
-0.506126
-0.355998
-0.735161
-1.13894
0.4272
0.249745
0.282482
-0.125034
-1.43852
0.895548
-0.767213
0.167006
-0.104064
1.412
0.0573232
-0.538793
0.793928
0.314795
-1.0665
1.59834
-1.94145
-0.107204
0.297648
0.608756
-0.202273
1.26262
0.125106
0.527779
1.28525
0.0700057
0.546532
0.398552
-2.33074
0.472111
2.30448
0.637058
0.815011
1.44844
0.91322
0.941334
0.0694623
0.303592
0.210283
0.0412899
1.0661
0.311852
0.927806
-0.168408
0.22807
-0.0602324
0.399616
-0.0757944
-0.319293
0.588065
0.291171
-0.061048
0.128624
0.740797
0.0172252
0.76214
-0.722553
-0.750074
-0.347437
1.18203
-0.304007
1.98847
0.00547206
-0.830613
-0.230554
-0.280323
-0.0890977
0.379102
1.00649
0.751404
0.749753
0.6376
2.66958
1.36023
1.55177
-0.096304
-0.395584
-0.861301
0.194758
0.0988771
0.150192
-0.10698
0.666945
0.0479951
-0.0493616
0.188679
-0.62107
-0.734194
-0.686641
-1.15814
1.06342
0.709274
-0.185763
0.222051
-0.568051
0.875826
-1.22589
0.221601
0.130958
0.810668
0.0449025
-0.780919
0.386855
0.203737
-0.355124
-1.04084
0.610586
-1.33979
0.321594
-0.419228
-0.641494
-0.393441
0.884426
0.0905923
-0.650485
-1.33333
0.331544
-0.66371
-0.966001
-0.281901
-0.209813
0.760396
0.229493
0.027655
-1.17573
-0.44313
-0.314021
0.193411
-0.815311
1.0443
0.0127175
0.643006
-0.184438
-0.33161
0.318346
-0.415467
-0.439116
-0.49388
0.120273
1.62173
-0.885569
-0.234118
-0.608656
-0.897741
0.596022
0.667825
-0.441629
-1.04014
-0.0427041
0.13831
1.37173
0.397742
-0.677346
0.060789
0.0265291
0.208664
-0.469881
1.09058
0.600769
-0.438945
-0.116021
0.746181
0.12374
1.24749
0.528904
-0.468513
0.0822696
0.393875
0.833599
0.0667562
0.596364
1.55253
0.216511
0.15275
-0.881882
-0.356041
0.577032
1.30587
1.48124
1.53168
0.815689
1.05987
0.782528
-0.0423678
0.458757
-0.790017
-0.486685
0.694941
1.38183
1.5835
0.829699
0.612904
1.79948
1.90919
-0.657231
1.78712
1.10718
-0.392468
0.639626
0.4449
1.52
0.1104
1.06755
0.0922654
-1.29997
-0.913121
1.13273
1.63842
0.972751
1.54185
0.522112
1.90326
0.698302
1.22383
0.74096
1.00132
-0.203904
-0.924439
-0.571977
-0.560943
0.915596
0.551009
-0.183606
1.59392
-0.0156973
-0.28719
-0.386847
2.32623
0.0971119
0.417388
1.18747
0.435225
0.38353
-0.0278777
1.85743
1.4107
0.968272
-0.0216243
0.300756
-0.999481
0.738682
-1.24156
0.275366
-0.717342
0.718362
0.859804
-0.679056
2.09066
1.06469
0.46351
0.394881
1.59852
1.73527
-0.391482
-1.14481
0.927354
0.730633
0.376482
0.13638
-0.449245
1.77465
0.242854
0.87652
-0.206559
0.195667
-0.448321
0.938378
0.430412
1.3823
0.237662
1.05893
-0.516849
-0.132922
1.05557
0.0717794
-0.566925
0.358857
-1.55196
-0.151882
0.842377
0.600417
1.54429
0.532593
0.920573
1.23879
1.35127
0.91933
0.554401
-0.783644
-0.531486
1.82673
1.18049
-0.847533
0.307136
-0.652272
-0.973201
0.524476
0.528796
-0.712594
0.186827
-0.455349
0.441975
-0.585756
-1.03059
0.318163
0.225738
1.78443
0.666538
1.27792
0.700773
0.591075
1.37222
0.427761
0.35411
-0.526576
-0.170344
0.116533
-0.523975
0.000795071
0.510544
0.730706
-0.446036
-1.44537
-0.0329135
0.594647
1.02067
1.46342
-0.0845153
0.425821
-0.354718
-0.424688
0.309432
-0.903809
-0.308644
1.74782
0.811089
-1.36199
-0.00953962
0.824524
0.894202
1.75553
1.81012
1.35028
0.799287
2.01044
3.07246
2.5102
1.05263
2.06468
0.830681
1.0616
1.67236
1.62958
1.54153
2.08026
3.19406
-0.790907
-0.20367
0.556053
-0.0759813
0.391231
0.239712
1.46493
0.430718
1.65357
0.182934
0.150346
2.25635
-0.111272
1.19624
0.469532
2.50031
-0.176612
1.6477
0.0635353
0.195416
-1.36234
0.454939
0.0141067
0.234179
1.36007
1.11645
0.72487
1.29642
0.531005
1.38764
0.626487
1.1951
1.3944
1.34065
1.72533
0.771798
1.79688
-0.259279
2.20915
1.15269
-0.0498558
-0.156884
0.0110261
0.312128
-0.022415
2.38753
0.594161
0.246656
0.832565
-0.602227
-1.04838
0.1625
0.0826822
0.172464
1.54226
0.183222
0.764238
1.29036
0.41426
2.27177
-0.870458
-1.40251
0.99894
0.836209
-1.00814
0.925527
1.27055
0.155791
0.574903
0.630516
0.797241
0.597687
-0.0621073
0.410534
1.91168
-0.0562717
0.288491
0.477559
1.1627
1.56401
-0.290557
0.653897
0.289559
-1.49343
0.833508
0.697079
0.0250469
0.35019
0.418103
-0.0115861
1.53205
0.60348
-0.0212881
-0.0850776
-0.940899
-0.286834
0.185125
0.351656
-0.922943
-0.655235
-0.1207
0.793022
-0.955403
-0.292105
0.326867
-1.54293
0.28668
-0.314651
0.600945
0.797895
1.96725
1.45459
-1.46083
-0.105589
-0.241304
-1.22867
-0.258118
0.243002
1.17243
-0.156837
-0.016462
-0.0564899
-0.99255
0.745015
-0.019194
-0.749753
-0.350512
1.29255
1.65075
-0.806296
1.02203
0.16678
1.22036
-0.40467
0.302012
-1.2314
0.438288
-0.79611
-0.0635936
0.174545
-0.158793
0.375049
1.2535
1.13366
2.21559
1.83874
0.587697
1.69357
1.31741
1.54893
4.25588
3.7871
2.19145
0.455176
1.9907
1.77338
3.12738
3.38223
2.60488
1.43927
0.974095
2.13147
1.94897
1.29226
-0.494015
2.41853
1.14527
1.49729
1.63688
0.24331
1.39559
2.1636
2.37871
2.43618
0.705187
1.56137
2.75319
2.13814
0.470929
0.988404
0.0862432
0.844414
0.117277
1.11335
0.731626
0.974712
0.121196
3.32664
-0.0382147
3.13101
2.14368
0.886255
2.29729
1.00128
0.649323
0.578607
2.24887
1.5771
0.184173
2.48437
-0.850358
-0.461448
0.63059
1.13998
0.131075
0.668594
-0.143474
0.601406
-0.094903
0.474597
0.284203
0.721881
0.720102
0.297157
1.8694
0.962642
1.21031
0.878243
-0.0912642
2.01922
-0.0435492
0.2989
-0.361841
1.79578
0.748631
0.783743
0.216124
-0.096163
0.993139
1.91827
1.15994
0.504618
0.422604
0.668921
1.07267
0.451282
1.12327
2.0513
0.7422
0.182683
0.0512002
0.189749
1.27807
1.59961
-0.984976
-0.0139126
0.790867
-0.0461046
1.49025
0.370551
0.276651
0.0209392
-0.932333
0.165125
0.534893
0.0369611
0.238506
0.860535
1.59846
0.538557
0.112341
-0.298625
0.64237
1.55461
-1.25603
0.207291
0.0318543
0.413559
-0.598784
-0.230272
-0.323165