/*--------------------------------*- C++ -*----------------------------------*\
| =========                 |                                                 |
| \\      /  F ield         | OpenFOAM: The Open Source CFD Toolbox           |
|  \\    /   O peration     | Version:  2212                                  |
|   \\  /    A nd           | Website:  www.openfoam.com                      |
|    \\/     M anipulation  |                                                 |
\*---------------------------------------------------------------------------*/
FoamFile
{
    version     2.0;
    format      ascii;
    arch        "LSB;label=32;scalar=64";
    class       volScalarField;
    location    "0";
    object      relativeErrorField;
}
// * * * * * * * * * * * * * * * * * * * * * * * * * * * * * * * * * * * * * //

dimensions      [0 0 0 1 0 0 0];

internalField   nonuniform List<scalar> 
3200
(
0.00039512
0.00336577
0.00619653
0.00926253
0.00766672
0.00724158
0.0117595
0.00985321
0.00755773
0.00379093
0.00441625
0.00167362
0.00369971
0.00360705
0.00665589
0.00785035
0.0086469
0.00141632
0.00621555
0.00183354
0.00492193
0.00260023
0.000174537
0.00607384
0.00589475
0.00345155
0.00182298
0.00454356
0.00451542
0.00874268
0.00487968
0.00411758
1.79738e-05
0.00462474
0.00312919
0.00677507
0.00450703
0.00766103
0.00199796
0.000511984
0.000571303
0.00575864
0.00417912
0.0084596
0.00460845
0.00299786
0.00315687
0.00277997
0.0051154
0.00301438
0.000866263
0.0031727
0.00254122
0.00353916
0.00319445
0.00287885
0.00263899
0.00486946
0.000997855
0.000542965
0.000618817
0.00267971
0.00542765
0.00704632
0.00251132
0.00620144
0.00256094
0.00474451
0.00149057
0.00129484
0.00573518
0.000945495
0.00136641
0.000282489
0.000209487
0.00346114
0.000865816
0.00189441
0.00300907
0.00125831
0.00325679
0.00318288
0.00270706
0.0022664
0.00256477
0.00660541
0.0030124
0.000575317
0.0028513
0.00407162
0.00341699
0.00128232
0.000907573
0.003085
0.00518901
0.000432175
0.00125252
0.00647165
0.00181376
0.00340297
0.0040596
0.00256305
0.000683535
0.00121868
0.00161339
0.00468875
0.00188071
0.00204388
0.00630368
0.00257332
0.000441609
0.00331226
0.00409528
0.00168094
0.00185088
2.96304e-05
0.00383883
9.6422e-05
0.00292351
0.00319476
0.00107464
0.00039104
0.00235559
0.00110389
0.00157823
0.000465684
0.00392064
0.0018427
0.00295375
0.00379497
0.000700337
0.000414157
0.000253068
0.00121887
0.0029458
0.000774258
0.00165636
0.000993832
0.00427168
0.00118712
0.000114784
0.00362096
0.00351024
0.00431796
0.00507919
0.00198551
0.00127005
0.000838815
0.000445575
0.00122447
0.00658829
0.00230041
0.000329518
0.00410987
0.00201551
0.00272921
0.00538495
0.00672999
0.00298901
0.00405963
0.000985204
8.62151e-05
0.00241101
0.00914871
0.0050299
0.00533837
0.0073167
0.00377905
0.00394934
0.00171149
0.00229231
0.00398772
0.00415677
0.00527132
0.00842418
0.010609
0.00961536
0.00342569
0.00463623
0.00272461
0.000476117
0.00167446
0.00818605
0.000147352
0.00639862
0.00118265
0.00260556
0.000377746
0.00426831
0.00162745
5.28436e-05
0.00456084
9.4239e-05
0.00392169
0.000921119
0.00182952
0.00155234
0.00612054
0.000848159
0.00528579
0.00323971
0.00197434
0.000998458
0.00729643
0.00330609
0.00285201
0.00112139
0.000312777
0.000707924
0.000427551
0.00393135
0.00355368
0.000874667
0.00644892
0.00394172
0.00648364
0.000842926
0.00441996
0.00301894
0.000256971
0.00237943
0.00316005
0.00534622
0.0068094
0.00545642
0.00193397
0.00127993
0.00229674
0.000127485
0.00197006
0.0053114
0.00207316
0.00172059
0.00348597
0.0031323
0.00704422
0.00425648
0.00166091
0.000891252
0.00744069
0.00291133
0.00173239
0.00393277
0.00494059
0.00100136
0.0038597
0.00352878
0.000313536
0.00394652
0.000449746
0.000930889
0.000972756
0.00268597
0.000406345
0.000262202
0.00131524
0.000827332
0.00271825
0.00217566
0.000113437
0.000409173
0.000836985
0.00166125
0.000916845
0.00247989
0.00129619
0.00868532
0.00017856
0.000771908
0.00235453
0.00339719
0.00102388
0.000463985
0.000556333
0.00363832
0.000446188
0.00363354
0.00320238
0.000367845
0.00476811
0.00254219
0.000370791
0.000430803
0.00287595
0.00511831
0.00177317
0.00281044
0.000935464
0.000396907
0.00115573
0.00237089
0.00314085
0.00437921
0.00372115
0.00419933
0.00574014
0.00342594
0.00201637
0.00334068
0.0053808
0.00354825
0.0010659
0.00106124
0.00571295
0.00309232
0.00324544
0.00117185
0.00157821
0.00211677
0.00311256
0.000328299
0.00276813
0.00297994
6.3253e-05
0.00431263
0.00420906
0.00128586
0.00101135
0.00247011
0.00185286
0.000986641
0.00267032
0.00802212
0.00437163
0.0060253
0.0042245
0.00253491
0.00092605
0.0034373
0.00175752
0.00138129
0.00113085
0.00420327
0.00142202
0.00826996
0.000378197
0.00944651
0.00606969
0.00478941
0.00301698
0.00389204
0.00198686
0.00682878
0.00450591
0.00192713
0.00832426
0.00427445
0.00298566
0.00597765
0.00529249
0.00360093
0.00490298
0.00299363
0.00315762
0.00197128
0.00640667
0.000994142
0.00720259
0.000642655
0.0019124
0.00043183
0.00101087
0.00602099
0.00257546
0.00545454
0.000179227
0.00508633
0.00239976
0.00224012
0.000455889
0.00563475
0.00251272
0.00540382
0.000444588
0.00267961
0.00379276
0.00120426
0.000532387
0.000324666
0.00184751
0.000120453
0.00364987
0.00603902
0.00215792
0.00481757
0.00506141
0.000445663
0.00227738
0.00271571
0.000939402
0.000107381
0.00102605
0.000898218
0.00176227
0.00323485
0.00607319
0.00234945
0.00305708
0.00330232
0.00212486
0.00253995
0.0025907
0.000988221
0.000778301
0.00352333
0.00652232
0.00390188
0.00515497
0.00655858
2.2631e-05
0.00215708
0.0035378
0.00144441
0.00314842
0.000271097
0.00676884
0.000564712
0.00371371
0.000677755
0.00175354
0.00241523
0.00177465
0.00249424
0.000982159
0.00418595
0.00244144
0.000522611
0.00618823
0.00250827
0.00124843
0.000951409
7.12822e-05
0.00139029
0.00120491
0.00363934
0.00151077
0.000436565
0.00142027
0.000649015
0.00609035
0.00296544
0.000299921
0.00310099
0.00440288
0.000894848
0.00265638
0.0025795
0.00390085
0.000270488
0.0035146
0.00234613
0.000796546
9.10593e-05
0.0028113
0.00182547
0.000336676
0.00163334
0.000733154
4.05522e-05
0.00242382
0.000134683
0.000495045
0.00121372
0.00292496
0.00303889
0.000376374
0.00182234
6.1471e-05
0.00222939
0.000773347
0.000926723
0.000543341
0.00321062
0.000367324
0.00166843
0.00542209
0.00348107
0.00126686
0.000852432
0.000612853
0.000413476
0.00465995
0.00331421
0.00391783
0.000957028
0.00474235
0.00695759
0.000926283
0.00124437
0.00292796
0.00201145
0.00319064
0.00634924
0.00316989
0.00342603
0.00375738
0.00404176
0.00630606
0.00243753
0.00336702
0.00227195
0.000773781
0.00294235
0.000803969
0.00557216
0.000996159
0.00156152
0.0003998
0.00518698
0.000709736
0.000148647
0.00283372
0.00138632
0.0043947
0.00102308
0.00200844
4.72093e-05
0.000180644
0.00173722
0.00115235
0.00302918
0.00140392
0.00167021
0.00491745
0.00605289
0.00864422
0.00204131
2.9016e-05
0.00592569
0.00260064
0.000117799
0.000178802
0.00447951
0.000708422
0.00716526
0.00535741
0.00162439
0.000190976
0.000677727
0.000335852
0.00214121
0.000478229
0.00293138
0.00213457
0.00292205
0.00360493
0.00794501
0.00211152
4.26371e-05
0.00211349
0.00249006
0.0024347
0.00374351
0.00322829
0.00262747
0.000392744
0.00233421
0.00254711
0.0045347
0.00139601
0.0017193
0.000788063
0.000964469
0.000958556
0.00464546
0.00437206
0.000271818
0.0017793
0.00229383
0.0013677
0.000259945
0.00374589
0.00142433
0.000638057
0.00126732
0.00198791
0.00044879
0.00536889
0.00137548
0.00415872
0.00168689
0.00141113
0.00567508
0.00308898
0.00274677
0.000337733
0.00163489
0.00266204
0.000194778
0.00733519
0.00204873
0.00186459
0.00088235
0.00102774
0.00133002
0.00126872
0.00519292
0.00169303
0.00639931
0.00447279
0.000767792
0.000702547
0.00130188
0.000913699
0.00183372
0.000199821
0.000383637
0.00186592
0.00150924
0.000599444
0.00164613
0.000776905
0.00028822
0.000594597
0.000237809
0.00218455
0.00223841
0.000987097
0.000598736
0.000938195
0.00125158
0.00175583
0.00239816
0.000366126
0.00173097
0.00135594
0.00165954
0.00225956
1.31685e-05
0.000102691
0.00361907
0.00186786
0.00356176
0.00304251
0.00131459
0.00140331
0.000224326
0.00235824
0.0038464
0.00336775
0.000512914
0.0020116
0.00431837
0.000614375
0.0049077
0.00291807
0.00108078
0.00170846
0.00336724
0.00319089
0.00444057
0.00143727
0.000340533
0.00139866
0.00283767
0.00157514
0.000164624
0.0027536
0.00114838
0.00220805
0.000201552
0.00390482
0.00350791
0.000829808
0.00176102
0.00934704
0.00199409
0.00369381
0.00272194
0.00265226
0.000668265
0.00129896
0.00240324
0.00020352
0.00190755
0.00306469
0.000238747
0.00424158
0.00177492
0.00261176
0.000205873
0.00084118
0.000725295
0.00526918
0.00317295
0.00401216
0.000884133
0.00051328
0.00416284
0.00289192
0.00208355
0.00185017
0.00358476
0.000473736
0.00343571
0.00307722
0.000452155
0.00157729
0.000243842
0.00133898
0.00188701
0.00161905
0.00190062
0.00113523
0.000445649
0.00226277
0.000513982
0.00248431
0.000305799
8.94008e-05
0.00369499
0.00443112
0.000229661
0.00425927
0.00114373
0.0031342
0.00244177
0.000436742
0.000981965
0.00362896
0.000728429
0.00148073
0.00100695
0.000212858
0.00103403
0.00108437
0.00208118
0.00676587
0.00258683
0.0052996
0.000950384
0.00323095
0.00238527
0.00193343
0.000544291
0.00276014
0.00102188
0.00707399
0.00447265
0.00261814
0.00269667
0.00178451
0.00448233
0.000186874
0.000599021
0.00146884
0.000427386
0.0014372
0.00326494
0.00119501
0.000230048
0.00232693
6.66493e-05
0.00113489
0.00335683
0.00356328
0.00395608
0.000517589
0.000992547
0.00232498
0.000352654
0.00105682
0.00302674
2.85492e-05
0.00208525
0.00242126
0.001554
0.00299643
0.0049486
0.00186442
0.00165941
0.00128094
0.00275084
0.00159618
0.00295363
0.00253931
0.000242322
0.00464764
0.000669874
0.00481418
0.000368113
0.00412336
0.00157099
0.000442397
0.00352826
0.0057072
0.000825101
0.00174583
0.00226464
0.00236378
0.00430866
0.00248702
0.00131484
0.00255372
0.000148247
0.00215931
0.00193367
0.00355357
0.000594097
0.00217139
0.00404657
0.00212107
0.000558686
0.00526062
0.000282704
0.000939039
0.003742
0.000727079
0.00444674
0.000593865
0.00569279
0.00478388
0.00521547
0.0018808
0.00416158
0.0037443
0.000241875
0.00804563
0.00336527
0.00410603
0.00307981
0.000340176
0.00350595
0.000486151
0.00151607
0.000869014
0.000950333
0.000921809
0.00125697
0.000277518
0.000727536
0.00462702
0.000154178
0.00124016
0.00173919
0.00019578
0.00165822
0.00396994
0.0012677
0.000976758
0.0017405
0.0013426
8.47607e-05
0.000897169
0.00309282
0.000566008
0.00108493
0.00196932
0.00322871
0.001443
0.00333341
0.00123033
0.000170659
0.000472885
0.00114096
0.00041894
0.0019141
0.00221783
0.000540179
0.00143184
0.00390969
0.00258875
0.00167905
0.00126545
0.00068722
0.000191951
0.00331326
0.00126052
0.00504048
0.00304049
0.00120792
0.00278662
0.00188341
0.00305976
0.00240061
0.00144539
0.00290308
0.00112071
0.000116242
0.00516243
0.00761214
0.00100793
0.000290978
0.00269074
0.00577051
0.00385743
0.0016517
0.00259654
0.00268008
0.00299301
0.0034794
0.000382781
0.000214099
0.00637127
0.0063746
0.00771031
0.00212274
0.00101341
0.00242053
0.00196806
0.00102783
0.00181363
0.00343458
0.000903625
0.000501244
0.00142342
0.00310657
0.00297713
0.00389392
0.00104707
0.00147626
0.0006697
0.00150633
0.000589083
0.000640632
0.00015563
0.00368996
0.00293648
0.00166332
0.000368337
0.000892182
0.0041852
0.00078551
0.00411469
0.00317961
0.00206462
0.00162889
0.00098825
0.00221619
0.00450833
0.00269881
0.00515605
0.000212441
0.00292555
4.71928e-05
0.000349118
0.00467212
0.00130953
0.0038577
0.00117768
0.00133916
0.000233512
0.00145916
0.00128094
0.000493217
0.00410265
0.00273199
0.00274443
0.00684413
0.00178569
0.000156154
0.00137025
0.000173613
0.00530327
0.00301873
0.000400928
0.000750053
0.00199913
0.00123957
0.00371591
0.00050815
0.00151428
0.002707
0.00236692
0.001498
0.00148434
0.00173821
0.00452141
0.00545356
0.00671231
0.00305767
0.00406112
0.00500877
0.000503613
0.00205664
0.00418462
0.00176438
0.00156781
0.00109372
0.0028098
0.000612445
0.000207593
0.000204195
0.000988262
0.000655342
0.00307595
0.00457508
0.00158242
0.00179481
0.000539922
0.00329016
0.00329849
0.00596909
0.000989074
0.00122473
0.0087379
0.000486506
0.000987387
0.000674011
0.00517815
0.00351927
0.00158546
0.00255586
0.00126847
0.00124846
0.00501187
0.00203419
0.00416586
0.000221405
0.00564369
0.00125604
0.00377684
0.00355086
0.000346522
0.00653029
0.000931549
0.00186144
0.000737452
0.00222874
0.00525643
0.00309854
0.00187707
0.00229808
0.000971466
0.00180849
0.00329005
0.00332599
0.0014533
0.00438279
0.00211686
0.00609026
0.00291988
0.00491068
0.00237708
0.00409644
0.000918832
0.00245011
0.00139286
0.00104959
0.000855367
0.000291438
0.00422335
0.00173709
0.00245876
0.00101164
0.00305997
0.00135262
0.00107684
0.00205114
0.000450407
0.008971
0.00337876
0.00166882
0.00266049
0.00231999
0.000150072
0.00218357
0.00340464
0.0031259
0.000495348
0.00387726
0.00131005
0.00381221
8.28854e-05
0.000529402
0.000322221
0.00256172
0.00172145
4.55443e-05
0.00160599
0.00522294
0.00345782
0.00123806
0.000429621
0.00016764
0.00194553
0.00097345
9.44688e-05
0.00227202
0.00210255
0.000599141
0.000150058
0.00311128
0.000915446
0.0033788
0.0036584
0.00292127
0.000221423
0.00230358
0.000877342
0.00332401
0.00186629
0.00170156
0.000615211
0.00189713
0.00076951
0.00575422
0.00116874
0.00303575
0.00137635
0.00663914
0.00376448
0.000411744
0.000437461
0.000783226
0.000706879
0.00297208
0.00115536
0.000679625
0.00411196
0.00129452
0.000303612
0.0016537
0.00146971
0.00369785
0.00505755
0.000523995
0.00366589
0.00281954
0.000499835
0.00643958
0.00360887
0.00263105
0.00326957
0.00431114
0.000459571
0.00970337
0.00263547
0.00767935
0.012461
0.00283374
0.00229406
0.00464688
0.00253464
0.000328791
0.00105358
0.0026249
0.00137828
0.00175207
0.00335058
0.00159874
0.000570136
0.00506852
0.000705806
0.00448047
0.00025777
0.00260882
0.000100495
0.000485516
0.000101354
0.000344378
9.41552e-05
0.000822764
0.000552685
0.000739231
0.00333617
0.00071047
0.00297845
0.000566556
0.00114448
0.00100592
0.00104524
0.000609715
0.000810235
7.84374e-05
0.000483742
0.00155329
0.00100676
0.0084009
0.0042689
0.00976939
0.00356089
0.0031118
0.000540701
0.00488998
0.000215585
0.0014318
0.000207143
0.00135263
0.00120759
0.00172839
0.00383991
0.00151479
0.000269483
1.34937e-05
0.00454655
0.00543893
0.00338466
0.00434682
0.00382445
0.00356306
0.0025117
0.00373469
0.00854277
0.00174036
0.000299177
0.000653998
0.00211972
0.00265423
0.00659652
0.00317716
0.00687533
0.0026616
0.00319739
0.00159789
0.00179337
0.00573912
0.00297483
0.00451846
0.00422355
0.00233647
0.000238428
0.000559443
0.000754952
0.00259906
0.000729274
0.000373897
0.00216477
0.00211286
0.00221143
0.00370886
0.000942501
0.000773946
0.00466264
0.00471153
0.00232577
0.00387987
0.00336456
0.00863807
0.00116404
0.00167525
0.00435395
0.000617133
0.00401243
0.00229318
0.00315937
0.00191063
0.00318205
0.000485044
0.0020077
0.00167312
0.000479258
2.10555e-05
0.00105325
0.000383519
0.00102134
0.000737449
0.00169692
0.000318442
0.000410462
0.00385297
0.00165895
0.00205205
0.00195069
0.000238057
0.00221897
0.000146597
0.00408286
5.16612e-05
0.000182281
0.00113609
0.000166693
0.00459828
0.00148825
0.00493946
0.00086988
0.00671595
0.00220913
0.000972086
0.00268747
0.00312912
0.00405072
0.00152739
0.000386569
0.0014655
0.00416653
0.00058373
0.00146089
0.00114306
0.00311151
0.000321394
0.00290484
7.58278e-06
0.00249354
0.00170591
0.00222323
0.00439646
0.00692985
0.00567204
0.00255247
0.00641732
0.00277537
0.00934003
0.00670246
6.03387e-05
0.00417112
0.00681699
0.0016108
0.00201404
0.00210724
0.00292203
0.00423139
0.00135771
1.06897e-05
0.00101908
0.00236534
0.00467161
0.00608229
0.0062458
0.00783665
0.00666197
0.00395306
0.0101827
0.004698
0.00706702
0.000675961
0.00067482
0.00106097
0.00271616
0.00361017
0.00708413
0.00437085
0.0017401
0.000557048
0.0026733
0.000514647
0.00562973
0.00634239
0.00780268
0.0028825
0.00612895
0.00404882
0.00713982
0.00618465
0.00274174
0.000899174
0.00018513
0.000782695
0.00356079
0.00745426
0.00173145
0.00344395
0.000652748
0.00248803
0.0027189
0.000323578
2.26126e-05
0.000819504
0.00344799
0.00306994
0.00673238
0.000211944
0.00447024
0.00269298
0.00293612
0.000217952
0.00688215
0.00428053
0.00307432
0.000358782
0.00516121
0.00197657
0.00315075
0.00190636
0.00553501
0.00167179
0.00107298
0.00470249
0.00361237
0.00518682
0.00270255
0.000636797
0.0026228
0.000188043
0.00477127
0.00527521
0.00183949
0.00214086
0.00336397
0.00285234
3.87845e-05
0.00377003
0.00239987
0.00527347
0.00379233
0.000638027
0.00208587
0.00184092
0.00597768
0.00407144
0.00531904
0.00424455
0.00288965
0.00010622
0.00242863
0.00289302
0.00287833
0.000591528
0.00235925
0.000259532
0.00391879
2.52274e-05
0.00141601
0.00286419
0.0047598
0.00480205
0.00503608
0.00201698
0.00297852
0.00398338
0.00149688
0.00240171
0.00261276
0.00237553
0.000214623
0.00515059
0.00115172
0.00364879
0.00463264
0.000397232
0.0051117
0.00324431
0.00153186
6.45795e-06
0.000451218
0.00254684
0.0028029
0.000112033
0.00213544
0.00204574
0.0035197
0.00426175
0.00362708
0.00111789
0.000897939
0.00146187
0.00316959
0.00391945
0.0012044
0.00143354
0.000194482
0.00326959
0.00490448
0.00506041
0.00322777
0.000225585
0.00433209
0.00157186
0.00628617
0.00361922
0.00726807
0.00593133
0.00813258
0.00421352
0.00658099
0.00299468
0.00386836
0.000257953
0.00635014
0.00434536
0.00330489
0.000558673
0.00130346
0.00011816
0.00144751
0.000504703
0.000113341
0.00164724
0.00560661
0.000111104
0.000792187
0.00201922
0.000358493
0.00283541
0.000677336
0.000115392
0.000186088
0.00407892
0.00021472
0.00199309
0.00347642
0.00176488
0.00146984
0.00226839
0.00279923
0.00424186
0.00030104
0.00509329
0.00422065
0.00594813
0.00544623
0.00668837
0.00466411
0.00438359
0.00632794
0.000905517
0.000235811
0.00271427
0.00331383
0.00126829
0.00526826
0.000254251
7.06877e-05
0.000761067
0.000487204
0.00041939
0.00316051
0.00409929
0.00195326
0.00399078
0.00707681
0.00281662
0.00380915
0.00151766
0.00705652
0.00146073
0.00582653
0.0010695
0.00107516
0.00211585
0.00526171
0.00140308
0.00155263
0.00467118
0.000135105
0.00753013
0.00294232
0.0070511
0.00684554
0.00713369
0.00465933
0.00322331
0.0073321
0.000338449
0.00102594
0.00603041
0.00366417
0.00198894
0.00534957
0.00582089
1.01632e-05
0.0053765
0.00309238
0.00245947
0.00410846
0.000843838
0.00230098
0.00505112
0.000695259
0.00351512
0.0072105
0.000192884
0.00516022
0.00124592
0.00243535
0.00530505
0.00363266
0.00122146
0.000433014
0.00242864
0.000638323
0.0029288
0.0042324
0.00248578
0.00224836
0.00161104
0.00248703
0.000208662
0.00230056
0.00533446
0.000109808
0.00148927
0.0027435
0.0041115
0.00101943
0.000369753
0.000110727
0.00182582
0.00293736
0.00254193
0.00317987
0.00197475
0.00129492
0.000800374
0.000316301
0.00077167
0.00510687
0.000356968
0.00223387
0.00222889
0.00013796
0.00132821
0.0030387
0.000621149
0.00134315
0.00188961
0.00280037
0.00561395
0.00136198
0.00286902
0.00264664
0.000102008
0.00589596
0.00127995
0.00166846
0.00191738
0.000188275
0.000609607
0.00546508
0.00386551
0.00729191
0.0036141
0.00535526
0.00790547
0.00279142
0.0016755
0.00238545
0.00563569
0.00176447
0.0018043
0.00472383
0.000615526
0.00194797
0.000247669
0.00272086
0.00036716
0.00459023
0.000753656
0.00467853
0.000844178
0.000901549
0.00580814
0.000543991
0.00547052
0.000672939
0.000528063
0.000816604
0.00162645
0.000679035
0.00361779
0.00392248
0.000143576
0.00205291
0.000795528
0.00191512
0.00353537
0.00251785
0.00356912
0.00455277
0.00808295
0.00191946
0.00288507
0.00327247
0.0060754
0.000200153
0.00285129
0.00513664
0.0034793
0.00143236
0.00211389
0.00550827
0.00436745
0.000427129
0.00213844
0.00116802
0.00364278
0.00211803
0.00536598
0.00435243
0.00818563
0.000765512
0.00870273
0.00315764
0.0043171
0.00460324
0.00349101
0.00211374
0.000979838
0.00224331
0.00120469
0.00300461
0.00457875
0.0024804
0.00359957
0.00150289
0.00126821
0.00368322
0.00543356
0.00487141
0.00681846
0.00502078
0.00274357
0.000525048
0.00511411
0.0020809
0.00111986
0.000898024
0.000361757
0.00672044
0.000155571
0.00314081
0.000322379
0.00103183
0.00228083
0.000142687
0.000187016
0.00561336
0.00213842
0.00274852
0.00311166
0.00376985
0.00406314
0.00223174
0.00268944
0.00551334
0.00231566
0.00517146
0.0021748
0.00214627
0.000197309
0.00487449
4.58412e-05
0.00236067
0.00263769
0.00125629
0.00109295
0.00209594
0.000594566
0.00294437
0.00175377
0.00518507
0.0027233
0.00140926
0.00693778
0.00544839
0.00301629
0.00144253
0.00466448
0.00163729
0.00137451
0.000225594
7.59862e-05
0.00489726
3.55178e-05
0.00144487
0.000208102
0.00277849
0.00083646
0.00181204
0.00216964
0.000728445
0.00304161
0.00141079
0.00347532
0.00524797
0.000758248
0.00514075
0.0024023
0.000709166
0.00173635
0.00787718
0.00617455
0.00276384
0.000135865
0.00127997
0.00249266
0.00214594
0.000402064
0.00797099
0.00742811
0.00825954
0.00536958
0.00541293
0.00810071
0.00469716
0.00442471
0.00148812
0.000979006
0.00444061
7.96554e-05
0.00321831
0.00343801
0.0002123
0.00521063
0.00425087
0.000429253
0.00665888
0.00879321
0.00860611
0.00480658
0.00834841
0.00133798
0.00791057
0.00754072
0.00756196
0.00147362
0.00359722
0.00635191
0.0043969
0.00671049
0.000789118
0.00223426
0.00542855
0.00519306
0.00389195
0.00277821
0.00132532
0.0029006
0.000602008
0.00434112
0.00369209
0.00590856
0.0051003
0.00720503
0.000746478
0.000423428
0.00159825
0.00373124
0.00066174
0.00798877
0.000901429
0.00407967
0.00302791
0.00315339
0.00390165
0.00200211
0.00245154
0.00197494
0.00718799
0.00768443
0.00249792
0.000716093
0.00148371
0.00135259
0.00202122
0.000830862
0.000900051
0.00112549
9.88998e-05
0.00398144
0.00219089
0.00347044
0.000874693
0.00590073
0.000912327
0.00286429
0.00512392
0.00374144
0.00149565
0.00686166
0.00149184
0.00139108
0.00267003
0.00193584
0.000834628
0.00618043
0.00451763
0.000445333
0.000369172
0.000658125
0.00104651
0.00421079
0.00342977
0.000786057
0.00236339
0.00172239
0.00140633
0.00432852
0.00114977
0.00372414
0.00269957
0.00173404
0.00217838
0.00533566
0.00238729
0.000552669
0.000452098
0.000934873
0.005191
0.000699934
0.000544313
0.00250346
0.00246177
0.00360302
0.00361836
0.000722469
0.0011523
0.000566509
0.000442666
0.00238988
0.00221264
0.00251765
5.01695e-05
0.00433775
0.00440182
0.00144604
0.00108163
0.00154386
0.000798963
0.0039142
0.00114692
0.000411234
0.00343547
0.000267031
0.00330368
0.000475073
0.00224782
0.000465002
0.00057934
0.00103667
0.00171615
0.000947488
0.000167969
0.00141843
0.0029339
0.00530198
0.0013941
0.000800811
0.000349727
0.00325565
0.00726734
0.00179921
0.001997
0.00196166
0.00268385
0.00267647
0.00232552
0.000799097
0.00278597
0.00448353
0.00571393
0.00531503
0.00274266
0.00426368
0.0027037
0.00103308
0.00466242
0.000172504
0.00360538
0.000549842
0.0041699
0.000200494
0.00263144
0.000310102
0.00232902
0.000280831
0.00524641
0.000431907
0.00439031
0.000460229
0.000188882
0.00424085
0.000962775
0.00426822
0.000127192
0.00169338
0.000617234
0.000551677
0.000820688
0.00765838
0.00727033
0.00240644
0.00579748
0.00940637
0.00241569
0.00651855
0.000517565
0.00298652
0.00595871
0.00835635
0.00652199
0.00231557
0.00542083
0.00323344
0.00243409
0.00125663
0.00162779
0.0025251
0.00623164
0.00173323
0.00438163
0.00332911
0.00117025
0.00286937
0.00395407
0.000335734
0.000582428
0.0113229
0.00142277
0.00427603
0.0040867
0.00461886
0.00708594
0.000829259
0.000287885
0.0021142
0.000194998
0.00279822
0.000289579
0.00110624
0.000684321
0.00165904
0.00200488
0.000845288
0.000373422
0.000154374
0.00164424
0.00517593
0.00112893
0.00703465
0.00391686
0.000625033
0.00650245
0.000365325
0.00243228
0.000323157
0.003187
0.00286365
0.00338492
0.0012612
0.0009632
0.00328841
0.000284716
0.00344333
0.00374797
0.00417889
0.0017573
0.00506413
0.000367013
0.00466055
0.000446875
0.000845377
0.00241816
0.000986564
0.00293682
0.00311291
0.00173126
0.00369077
0.00313283
0.00156725
0.000125298
0.00304478
0.000219863
0.00342513
0.00106685
0.00196383
0.00590408
0.000698866
0.00313595
0.00600586
0.000193953
0.00378869
0.00449897
0.00234891
0.00388624
0.000456546
0.00225354
0.000850976
0.00240172
0.00145908
0.00303875
0.00137692
0.000209761
0.00284419
0.000741765
0.00138611
0.00218417
0.000985557
0.00256943
0.00419385
0.00125823
0.00217021
0.00295469
0.000436335
0.00291083
0.000775344
0.00413505
3.84897e-05
0.000567778
0.00319996
0.00383665
0.00223099
0.00356857
0.00257239
0.00441802
0.0027092
0.00351075
0.00305552
0.000982117
0.00672288
0.00745159
0.00522826
0.00207885
0.0015417
0.0024365
0.00327873
0.000276839
0.0028793
0.00440504
4.01778e-05
0.00273641
7.88751e-05
0.00563704
0.00027859
0.00148909
0.0018344
0.000267498
0.00346821
0.0051067
0.00802469
0.00402944
0.00279665
0.00774549
0.00465504
0.00279992
0.00405069
0.00220725
0.0023247
0.00105597
0.00670896
0.000979259
0.00308273
0.00630379
0.00147291
0.00505439
0.000269386
0.00174971
0.00243299
0.00318247
0.00140295
0.000154115
0.00820353
0.00273421
0.00473518
0.000165096
0.00777935
0.00252977
0.00138257
0.00196208
0.00584663
0.0018279
0.00420941
0.00283959
0.000621757
0.00328321
0.00517229
0.00351059
0.00221377
0.00192463
0.00126355
0.0011136
0.00606703
0.000554812
0.00209747
0.00105734
0.000239835
0.000508839
0.00248781
0.00501799
0.00452888
0.00113485
0.0071468
0.00462918
0.000403302
0.000814206
0.000215008
0.00450222
0.00169212
0.0042317
0.00602708
0.00323637
0.00126941
0.00222959
0.00512796
0.00120916
0.000395865
0.000675103
8.7965e-05
0.00147488
0.00216842
0.00368255
0.00147128
0.0052677
0.00157676
0.00131382
0.00180426
0.00260488
0.00269922
0.00381852
0.00355632
0.00315468
0.000495696
0.00230983
0.000605544
0.000727841
0.00408805
0.00353723
0.00353922
0.00569031
0.00283025
0.00151326
0.00261383
0.00085404
0.000966903
0.00143883
0.00375197
0.00208788
0.00297292
0.00286713
0.00300559
0.00473118
0.00210853
0.000172312
0.0015166
0.00334523
0.00576004
0.00608943
0.00342622
0.00509239
0.000725681
0.00224379
0.00200923
0.000903787
0.00479621
0.00250991
0.00227838
0.00327228
0.00269982
0.00106664
0.00300347
0.00419006
0.000506374
0.000818037
0.00113425
0.000888383
0.00119274
0.00097619
0.00588792
0.00336395
0.00078197
0.00442749
0.00162534
0.00182563
0.00142339
0.000840664
0.00154578
0.000236848
0.00172972
0.00722196
0.00659871
0.00366021
0.00390709
0.000766332
0.00163661
0.00327482
0.000624518
0.000734599
0.00157272
6.30348e-05
0.000717079
0.00398333
0.000773133
0.00222357
0.00128887
0.000168415
0.000489399
0.00236203
0.000874263
0.000452212
1.3057e-05
0.00227029
0.00372151
0.000992065
0.00154336
0.000446778
0.000899706
0.000747664
0.00160347
0.000298386
0.00115175
0.000380791
0.00159762
0.00419674
0.00539699
0.00453342
0.00154773
0.00282479
0.00166721
0.00130972
0.00155569
0.000697233
0.00524943
0.000176492
0.00433558
0.00321116
0.00323863
0.00226485
0.00188984
0.000658087
0.00208729
0.00253942
0.00113782
0.000435087
0.000658248
0.000478115
0.0036775
0.00409673
0.00150327
0.00549032
0.00416757
0.00508312
0.00354646
0.00026989
0.00261402
0.00248353
0.00226437
0.0011745
0.00463468
0.00449267
0.000522956
3.48741e-05
0.00443843
0.0021311
0.00271013
1.20101e-05
0.00229212
0.00217579
0.00680994
0.00287456
0.00357663
0.00314268
0.00262564
0.00125964
0.00140691
0.000606812
0.00256609
0.000818847
0.000540132
0.00376923
0.000870098
0.000657174
0.0028339
0.0042229
0.000411723
0.00172769
0.0060435
0.00492772
0.00265799
0.000762075
0.00142727
0.00578112
0.000443977
0.00386351
0.00122173
0.0012806
0.00176125
0.00161818
0.0066431
0.00295208
0.0018529
0.000407129
0.00257835
0.00178696
0.0023803
0.00119461
0.00138475
0.00901198
0.00358118
0.00201169
0.00128541
0.000768387
0.00036385
0.00265103
0.0038368
0.0019593
8.01382e-05
0.00188862
0.00297727
0.00360361
0.00157363
0.00207235
0.000356025
0.00245249
0.00186998
0.000464909
0.00309725
0.00820695
0.00138011
0.00301397
0.000594297
1.51461e-06
0.000923865
0.000369388
0.00267785
0.000312725
0.00220794
0.00146095
0.000345976
0.00124424
0.00357315
0.00641174
0.00319829
0.000972781
0.00166724
0.00369244
0.00211253
0.000565081
0.000105931
0.00220481
0.00280027
0.00251752
0.00244758
0.00297868
0.000925428
0.00229088
0.00638698
0.000552636
0.00180333
0.00329398
0.00184478
0.001074
0.00481212
0.00233864
0.00189266
0.00216044
0.00467565
0.00300632
0.00201869
0.00147908
0.00296174
0.00414153
0.00213956
0.00138759
0.00358967
0.00127628
0.00450674
0.00335325
0.00360579
0.00226027
0.000795146
0.00257351
9.79002e-05
0.000644766
0.000761969
0.00469275
0.000903904
0.00331089
0.00470709
0.000638486
0.00392534
0.00175015
0.00165223
0.00306907
0.000813623
0.00352971
0.000565239
0.00143812
0.00571077
0.000160549
0.00341425
0.00432075
0.00170619
0.00334547
0.0017337
0.00181179
0.00448828
0.00262511
0.00239552
0.00190834
0.0023563
0.000542027
0.00225439
0.00316442
0.00128955
0.00234892
0.0011135
0.00491266
0.003746
0.00138881
0.00306727
0.00497516
0.00497352
0.00165863
0.00220075
0.00375741
0.00154769
0.0046486
0.00165905
0.00089683
0.000445808
0.00118684
0.00224982
0.0024636
0.0023338
0.00171851
0.000843662
0.00207252
0.00468953
0.00155553
0.000337074
0.00230734
0.000562
0.00232453
0.0051922
0.00448815
0.000722808
0.00446255
0.00342839
0.00500091
0.00377514
0.00155394
0.00265183
0.000384467
0.00141433
0.000738648
0.000205922
0.00149808
0.000852989
0.00148737
0.000587673
0.00377767
0.00134981
0.00116435
0.000369433
0.00358492
0.00375151
0.00303305
0.00694188
0.00169944
0.000458336
0.00211037
0.000336477
0.00223475
0.0032424
0.000948231
0.00100112
0.00201605
0.000147424
0.00440774
0.00240274
0.00167553
0.00117851
0.00243365
0.00377022
0.00141412
0.000826686
0.00093503
0.000413863
0.00476145
0.00296421
0.00253943
0.000552785
0.000344451
0.00467381
0.000189746
0.00178351
0.00262813
0.00104208
0.00353059
0.0052913
0.0058637
0.000323703
0.000898471
0.00183699
0.000610195
0.00380787
0.000377211
0.00159101
0.00387393
0.000210992
0.00164721
0.00120129
0.00702611
0.00142348
0.00694997
0.00192181
0.00245939
0.00437222
0.00275746
0.00284309
0.000212319
0.000927759
0.000642438
0.00012611
0.00325528
0.000951992
0.00283172
0.000513904
0.000695881
0.000183768
0.00121922
0.000231262
0.000974335
0.00179481
0.000888857
0.000186407
0.000392851
0.00226321
5.26391e-05
0.00232956
0.00223606
0.0023208
0.00107476
0.00365561