/*--------------------------------*- C++ -*----------------------------------*\
| =========                 |                                                 |
| \\      /  F ield         | OpenFOAM: The Open Source CFD Toolbox           |
|  \\    /   O peration     | Version:  2212                                  |
|   \\  /    A nd           | Website:  www.openfoam.com                      |
|    \\/     M anipulation  |                                                 |
\*---------------------------------------------------------------------------*/
FoamFile
{
    version     2.0;
    format      ascii;
    arch        "LSB;label=32;scalar=64";
    class       volScalarField;
    location    "0";
    object      stateMean;
}
// * * * * * * * * * * * * * * * * * * * * * * * * * * * * * * * * * * * * * //

dimensions      [0 0 0 1 0 0 0];

internalField   nonuniform List<scalar> 
3200
(
320.272
319.523
318.873
318.168
318.969
319.389
318.196
319.029
319.93
321.229
321.027
321.826
321.012
320.821
319.578
318.91
318.366
320.407
318.609
319.812
316.256
317.164
318.159
316.525
316.831
317.856
318.602
317.925
318.073
316.796
318.031
318.2
319.37
317.708
317.959
316.551
317.024
315.777
317.356
317.983
315.001
313.508
314.193
313.047
314.474
315.191
315.332
315.613
314.991
315.718
316.399
317.616
315.689
315.211
315.129
315.02
314.885
313.976
315.639
315.01
312.686
313.445
311.063
310.724
312.317
311.33
312.627
312.074
313.19
313.303
311.91
313.955
313.134
313.519
313.207
312.019
312.658
312.169
313.548
312.886
308.753
308.864
309.13
309.397
309.439
308.318
309.554
310.413
309.781
309.441
309.644
310.269
310.874
309.531
308.757
310.369
309.712
307.963
309.288
310.816
305.754
307.849
307.357
307.614
306.841
308.872
308.096
306.963
305.706
306.881
307.809
308.664
306.332
307.001
306.862
307.346
308.419
307.177
306.164
306.019
303.887
304.37
305.019
304.694
304.896
304.331
305.719
304.008
303.701
305.774
304.831
304.727
304.492
304.154
305.37
304.18
304.862
304.604
302.951
303.853
301.449
300.336
302.502
300.16
303.013
300.902
301.901
301.28
301.41
301.918
303.536
300.85
301.434
300.279
300.893
302.305
303.085
299.415
302.328
300.19
320.159
320.648
320.159
318.273
319.883
320.064
319.686
321.043
321.148
321.954
321.767
321.135
320.921
320.344
319.071
318.089
318.123
319.834
319.189
321.348
317.735
317.524
315.673
318.567
316.728
319.389
318.405
319.548
318.201
320.158
319.621
318.108
319.397
317.985
318.718
318.185
318.026
316.33
317.787
316.206
314.217
314.756
315.251
313.466
314.935
315.284
316.021
316.437
316.429
316.849
315.469
317.778
316.259
314.336
314.94
313.931
315.504
314.171
316.331
315.157
311.795
311.665
311.133
310.841
311.435
312.706
313.868
312.878
313.733
313.125
315.409
313.043
313.058
312.374
312.331
310.938
311.64
313.325
312.374
314.865
308.897
310.423
308.785
308.602
309.956
309.2
309.423
310.717
309.468
310.593
311.022
310.996
311.454
310.645
310.479
310.675
309.877
310.847
309.212
309.764
306.9
306.831
307.682
307.546
306.598
307.054
304.868
307.557
307.427
308.416
306.647
307.349
307.755
307.71
306.334
307.497
306.148
308.156
306.975
305.562
303.457
304.38
304.186
303.498
302.872
303.946
303.682
304.296
304.492
304.277
305.351
305.57
305.915
303.405
303.207
302.683
305.416
303.703
303.251
302.593
300.349
301.753
301.769
299.745
302.418
302.484
301.17
302.013
300.91
300.614
301.454
302.383
300.638
301.504
300.205
302.755
301.079
301.144
300.687
300.861
320.312
319.968
318.502
319.947
319.696
320.55
321.347
322.079
321.424
323.183
323.062
322.168
321.023
321.706
319.248
321.512
318.316
319.129
319.288
321.595
316.781
317.555
316.23
317.206
318.271
316.468
317.979
318.575
317.752
318.042
318.583
318.096
318.572
318.336
318.495
316.843
318.325
316.111
317.983
318.627
315.487
315.809
313.773
315.06
314.356
316.225
314.857
315.864
317.447
316.653
315.012
317.533
314.913
316.608
315.434
314.881
316.254
315.506
315.592
314.768
312.595
313.885
311.004
313.734
311.717
311.805
313.683
314.384
312.911
313.517
313.778
313.441
313.952
312.99
312.377
311.324
312.322
311.937
311.711
313.297
309.085
310.761
309.768
309.96
309.239
308.435
309.366
312.279
308.711
310.78
311.457
309.65
310.228
311.556
310.376
308.231
310.376
311.226
310.168
310.415
307.82
306.594
306.456
307.011
306.119
308.249
307.743
305.748
306.932
308.115
308.024
307.682
308.08
307.211
306.379
307.87
307.447
306.786
306.94
305.208
305.163
304.388
305.291
303.062
304.186
305.322
305.349
305.794
304.554
303.582
303.938
304.879
304.634
305.419
305.069
304.561
304.899
304.57
304.285
303.524
301.389
301.591
301.825
300.595
300.58
301.627
300.982
301.526
300.884
301.328
301.282
301.72
300.577
301.642
301.011
303.131
302.526
301.077
301.185
301.245
320.723
319.554
320.231
320.302
321.528
320.575
320.105
322.854
322.302
321.838
323.432
323.734
320.507
321.326
320.999
320.627
320.262
319.27
320.267
319.776
318.942
318.629
317.658
319.082
317.285
318.976
319.007
319.812
318.155
319.655
319.93
318.908
320.127
318.102
318.967
318.422
318.811
318.653
317.83
318.586
316.478
315.215
315.308
314.477
314.317
313.692
315.96
316.747
318.744
317.747
316.96
316.923
318.175
316.382
314.16
314.537
315.518
315.776
315.444
315.628
313.443
312.732
312.11
312.518
312.435
312.38
311.165
313.117
313.856
313.253
313.134
314.633
312.605
314.67
312.686
313.228
312.456
312.231
311.463
312.336
310.514
309.821
309.879
310.005
308.987
309.195
310.583
311.316
310.119
310.443
310.787
309.668
310.32
310.469
310.947
309.812
310.163
308.513
310.491
311.27
307.675
307.65
305.553
306.435
306.631
307.461
307.143
308.533
307.823
305.532
307.159
308.337
307.986
307.33
307.974
307.086
308.981
307.817
305.25
308.531
304.543
304.13
303.996
304.167
303.942
304.614
304.485
305.211
304.212
304.871
304.186
304.435
304.555
304.421
304.625
305.165
305.126
304.692
304.162
304.595
301.069
301.987
302.197
301.382
302.032
301.119
302.044
302.239
301.564
301.604
300.482
301.005
300.484
302.461
301.132
301.933
301.424
300.763
300.298
300.431
320.997
320.704
320.199
321.647
320.527
321.423
322.947
322.244
324.024
324.044
321.579
323.401
322.685
323.049
321.449
321.601
321.898
320.702
321.719
321.871
318.551
317.401
317.732
319.338
318.739
316.535
320.363
318.713
320.889
320.932
319.869
320.434
320.664
319.79
318.912
318.322
318.997
317.499
318.079
319.319
315.815
316.147
316.283
314.576
315.431
317.892
317.073
316.774
318.361
318.013
317.757
317.628
318.073
316.643
315.534
315.461
316.099
315.555
315.804
315.327
312.369
312.559
312.612
313.005
313.378
314.381
313.65
314.709
313.918
314.03
312.898
315.405
314.001
312.474
314.03
312.535
312.596
313.07
312.759
311.824
310.354
310.668
310.007
310.504
310.239
311.016
310.141
312.982
311.749
309.332
310.684
311.95
311.621
310.187
310.51
309.703
310.755
308.124
311.596
310.94
306.433
306.772
308.776
307.426
307.386
307.203
307.601
308.24
306.84
308.238
307.799
307.129
307.777
307.384
306.622
308.666
306.267
307.239
307.625
306.548
304.479
304.728
303.531
304.495
305.192
305.346
304.181
303.78
306.23
305.304
304.23
304.332
305.531
304.168
303.708
303.784
304.43
305.868
304.202
305.837
301.578
300.236
301.968
301.378
300.465
303.267
301.811
302.101
300.901
302.302
300.29
300.834
301.972
300.792
301.591
300.878
302.094
302.565
301.658
300.812
320.245
321.045
321.775
320.506
322.543
322.392
321.708
323.337
324.673
323.115
325.148
324.782
324.787
323.523
321.352
321.245
322.123
319.365
320.644
320.226
317.84
318.866
320.291
319.23
320.087
319.534
319.7
319.87
320.684
320.253
320.109
321.763
320.116
320.401
319.256
319.539
319.915
317.905
319.379
319.133
316.586
316.586
316.301
316.792
315.713
317.048
316.688
316.542
318.289
317.775
318.375
317.655
317.113
317.182
316.507
316.559
317.114
317.03
315.991
316.489
314.42
314.109
313.959
313.183
313.514
313.935
312.968
313.723
315.783
315.196
314.621
315.075
313.527
314.969
314.628
313.277
312.67
313.784
313.262
314.813
312.674
310.077
310.405
309.774
312.519
309.64
311.456
310.22
310.256
312.054
312.206
310.971
310.961
312.923
312.82
308.33
311.269
310.81
309.639
310.923
307.078
306.891
306.468
307.328
307.843
307.332
308.799
306.988
309.148
308.294
308.427
307.743
308.369
307.662
307.573
307.737
308.741
306.621
306.938
307.281
304.723
303.21
304.768
303.325
303.659
305.306
305.217
305.059
304.109
306.172
305.621
303.213
304.693
303.83
304.663
304.734
306.001
304.13
305.659
304.092
301.09
301.435
301.08
301.15
301.404
300.332
300.76
302.424
303.669
301.071
301.563
301.192
301.544
299.985
300.659
301.432
301.31
300.917
301.131
302.614
321.845
322.67
321.526
321.869
322.385
322.618
323.868
324.943
325.37
325.843
324.66
324.919
325.1
323.143
323.762
324.22
322.064
321.894
322.534
322.914
319.423
319.439
319.495
319.447
319.758
321.151
318.88
319.989
321.179
320.833
321.715
321.662
322.409
320.029
319.774
322.764
319.919
319.876
319.588
320.88
317.494
316
315.851
317.232
316.608
315.581
317.968
318.772
317.471
319.381
317.19
318.74
318.577
317.433
319.242
317.299
317.42
316.894
315.797
318.044
314.451
314.166
312.985
313.541
314.555
313.091
315.294
314.809
315.805
315.132
316.381
315.345
315.896
313.502
315.411
314.276
313.077
314.143
313.248
313.212
310.443
311.921
310.169
311.581
310.612
310.082
311.552
311.546
310.631
311.439
314.092
312.321
310.692
311.959
310.312
310.88
310.138
311.767
311.58
310.38
308.745
307.203
306.504
307.729
307.997
308.009
308.768
307.506
308.091
307.604
309.708
307.012
308.417
307.847
307.962
308.433
308.055
307.648
306.907
306.906
304.729
304.533
305.569
304.389
303.685
303.646
305.692
304.77
305.564
305.142
305.888
304.293
305.356
304.99
304.183
304.481
306.421
304.265
305.504
304.966
299.524
302.672
301.675
301.434
301.346
301.385
302.507
301.275
301.836
300.396
302.026
301.723
301.124
302.054
302.713
300.057
301.408
300.446
302.387
301.375
324.629
321.551
323.772
322.085
321.97
323.726
326.913
323.077
326.535
328.146
325.025
324.79
325.436
324.592
323.683
323.705
323.99
323.367
323.281
323.633
320.212
320.022
318.395
319.982
318.964
320.502
319.916
320.924
321.147
321.011
320.933
321.021
320.628
320.576
320.822
321.469
320.435
319.064
319.659
320.067
317.104
316.569
317.242
316.953
317.398
317.683
317.178
317.468
320.543
319.274
321.023
319.005
318.777
317.499
319.082
317.305
317.664
316.983
317.329
316.402
314.354
315.11
314.503
314.074
314.296
315.849
316.246
315.696
316.068
315.94
315.857
315.49
315.806
317.222
313.872
314.386
314.364
314.693
314.738
315.882
311.781
313.002
310.132
312.057
311.662
311.823
309.568
312.355
312.89
312.827
312.239
311.557
311.255
311.12
310.456
311.392
310.946
311.633
311.522
311.481
308.881
307.5
308.095
309.366
306.553
307.358
309.336
309.23
310.894
308.61
308.767
309.573
308.383
309.376
308.781
308.977
308.518
308.837
307.641
308.358
305.169
304.543
304.724
305.095
304.935
305.172
304.674
305.448
304.857
305.091
306.141
305.46
304.305
304.304
304.934
305.494
304.729
305.974
304.705
304.715
301.221
301.624
300.2
302.051
300.127
301.369
303.67
302.321
301.955
302.477
302.61
300.44
302.116
301.761
302.073
302.874
301.426
301.146
301.919
300.626
323.071
324.269
323.522
322.923
324.49
323.414
325.739
326.709
326.408
325.451
326.705
325.468
327.491
326.487
324.155
325.288
321.523
324.045
323.981
323.856
321.182
321.733
320.979
320.725
321.228
320.314
322.729
323.31
323.455
324.014
323.637
322.718
324.627
322.737
323.342
320.684
320.938
320.884
321.247
321.402
319.496
318.744
316.946
317.472
318.651
317.782
319.867
320.202
320.745
319.22
320.253
319.551
320.456
320.043
317.074
317.515
317.59
317.747
318.487
319.614
314.738
315.364
314.602
313.737
313.789
314.865
314.862
315.216
316.107
316.021
317.175
315.088
316.366
314.021
315.687
314.575
316.685
315.743
315.248
314.081
312.699
310.545
310.268
311.939
313.165
311.012
311.95
313.151
312.86
313.377
310.917
311.535
312.502
311.557
313.019
309.798
311.918
310.583
312.207
311.98
307.966
309.162
308.804
309.758
309.371
308.465
308.97
308.944
310.255
309.686
310.071
309.72
309.267
308.294
309.017
309.094
309.02
308.247
308.728
307.874
305.982
304.825
304.423
305.769
306.388
303.512
303.476
304.427
304.154
306.289
304.617
304.33
305.839
305.737
304.912
306.508
305.247
305.967
306.229
304.667
303.149
302.595
302.091
301.641
301.793
302.438
302.528
301.726
302.343
302.32
300.641
302.985
302.786
301.345
301.941
301.216
302.599
302.811
301.979
302.039
323.943
325.084
322.617
326.04
323.542
324.846
326.344
325.582
327.212
326.395
327.582
327.097
327.715
326.305
326.91
325.562
325.653
324.123
326.083
325.287
321.922
321.164
321.56
321.345
321.938
321.793
321.737
322.42
323.778
321.981
322.272
322.623
322.005
322.685
321.849
321.436
321.367
322.451
320.916
321.502
318.879
317.315
317.541
318.87
317.397
319.773
318.446
320.264
320.056
320.644
320.484
320.843
320.127
319.938
320.437
318
318.073
318.871
318.929
317.371
316.284
314.629
314.838
314.691
315.199
315.023
316.249
316.627
316.008
316.681
317.654
316.28
316.535
314.775
317.379
314.586
316.766
315.153
315.047
313.96
313.069
311.93
312.061
313.122
311.713
314.188
312.835
314.179
314.16
314.274
313.502
313.03
314.266
312.023
312.16
313.635
312.808
312.197
313.159
313.243
308.193
306.584
309.253
307.606
307.161
308.748
307.833
310.147
308.835
309.721
310.861
308.68
310.18
308.159
309.239
306.792
307.244
307.923
308.108
308.944
305.129
304.068
306.287
304.277
305.759
304.618
305.901
305.233
305.89
306.826
305.164
305.643
306.006
306.397
305.421
304.96
305.001
305.553
304.065
305.709
300.697
302.261
302.068
301.93
301.797
301.482
303.267
301.627
302.415
301.071
301.702
301.34
302.652
301.539
302.12
301.132
302.534
299.983
301.254
302.521
325.526
324.836
326.888
325.566
325.869
324.87
325.582
325.566
327.634
327.158
328.274
327.031
327.51
328.217
326.403
325.871
325.926
326.803
325.376
325.253
323.069
321.467
322.437
321.884
322.993
322.144
323.871
322.741
324.082
322.884
322.321
324.447
322.673
324.155
322.479
322.287
321.701
321.287
321.883
322.713
319.609
318.502
319.232
318.962
319.449
320.088
319.873
320.298
320.676
321.838
319.87
320.144
320.203
321.008
318.896
319.747
320.345
319.686
318.912
319.033
316.845
316.563
315.421
316.066
315.867
316.748
316.357
317.455
317.189
318.426
316.083
318.562
316.758
317.051
317.051
316.599
314.725
314.977
315.893
315.489
312.744
313.294
312.718
313.15
312.578
311.791
313.407
314.011
313.876
314.506
313.944
311.497
312.478
313.854
312.837
312.459
312.307
311.831
313.962
311.856
309.435
308.607
308.245
307.919
308.725
308.679
310.52
309.488
309.706
307.911
310.036
310.112
308.139
309.617
310.439
309.396
310.219
309.234
307.846
308.405
303.61
305.136
305.875
304.386
304.843
305.593
304.649
305.496
304.432
305.875
306.923
304.499
305.744
307.407
306.922
306.147
305.631
306.578
305.622
305.516
301.642
301.696
300.252
301.731
301.318
301.828
302.613
301.531
302.336
302.447
302.012
302.707
302.209
300.726
300.181
301.983
303.293
301.005
301.933
301.186
328.102
327.676
326.722
325.941
325.73
327.112
325.734
326.676
329.228
329.092
329.363
328.378
328.313
329.079
327.832
327.59
326.47
325.502
327.111
325.564
323.347
323.526
322.62
324.375
324.207
323.106
325.235
326.022
326.03
324.838
325.983
323.68
325.737
325.52
325.409
323.311
323.855
324.601
323.836
324.473
319.26
319.81
320.944
320.989
320.693
320.449
320.085
320.669
319.606
321.217
321.01
321.689
321.373
321.964
319.8
319.315
318.821
320.402
319.308
321.556
315.358
317.002
316.763
316.901
314.769
316.727
316.95
316.866
318.561
318.744
317.103
316.514
316.71
315.747
316.733
315.739
315.621
315.452
315.683
316.9
312.908
313.363
312.624
314.272
312.218
311.679
314.24
313.859
313.194
314.891
313.212
313.161
313.524
312.033
312.313
314.434
313.839
312.49
312.394
312.429
309.088
310.104
309.915
309.153
308.234
309.547
309.495
307.759
308.768
310.288
309.972
309.659
308.424
310.709
308.277
308.793
309.05
309.145
310.407
308.549
305.443
306.064
306.083
306.464
306.501
305.206
305.102
305.649
305.627
306.23
304.824
304.723
305.461
306.779
304.083
304.954
305.034
305.802
305.544
304.082
302.117
301.655
300.752
301.719
302.808
301.678
302.508
301.978
302.018
302.159
301.328
302.129
301.889
301.402
302.707
303.411
302.221
301.547
301.673
300.789
328.865
327.198
327.407
327.545
327.93
328.067
328.074
327.151
326.572
328.988
329.391
329.225
328.311
328.709
328.076
327.39
328.428
326.698
327.788
326.672
324.491
323.178
324.219
323.598
324.38
323.656
325.552
324.079
325.422
323.883
324.093
325.374
324.251
325.235
323.706
324.174
323.698
323.19
322.978
325.619
322.043
320.571
321.761
323.026
320.898
322.313
320.482
321.346
322.35
323.146
322.558
321.183
322.126
321.352
321.005
320.527
320.537
320.714
321.794
320.273
317.613
317.346
316.749
317.377
317.81
316.535
316.899
320.362
316.366
318.194
318.134
318.28
319.02
316.978
316.732
317.227
316.407
317.264
316.201
316.577
312.467
313.251
313.426
313.133
312.821
313.051
313.575
314.727
313.493
315.359
314.383
313.335
315.142
313.174
313.764
313.039
313.866
313.695
313.791
313.075
309.391
310.146
309.264
310.291
310.435
310.615
309.907
310.963
309.534
310.874
309.294
309.158
310.144
309.058
310.23
310.239
309.761
310.317
310.097
308.609
305.436
306.426
305.591
304.507
305.91
306.212
303.832
305.87
306.629
303.842
305.737
304.512
307.031
304.918
306.8
305.724
306.243
305.264
306.23
305.92
300.92
302.26
301.791
301.005
302.098
301.465
302.55
302.196
302.679
303.171
302.285
302.558
302.79
302.023
301.004
301.64
300.616
301.842
302.015
302.803
328.786
328.369
328.941
327.065
329.492
329.058
327.126
329.372
328.755
330.673
330.913
330.149
329.052
328.785
328.969
329.119
328
328.715
329.081
327.516
324.937
324.116
326.085
324.466
324.976
325.197
324.784
325.901
326.489
327.465
326.167
325.738
327.291
326.208
325.511
325.807
323.66
325.011
324.484
326.224
320.804
321.555
322.684
320.292
322.485
320.869
321.598
321.883
322.17
321.623
321.221
323.783
321.98
322.556
321.008
323.359
321.575
321.106
319.938
322.364
316.283
318.258
317.902
316.888
318.207
318.882
318.422
318.064
316.788
317.82
317.772
319.325
317.537
317.974
317.576
317.242
316.924
317.791
318.514
318.297
313.533
315.464
314.736
313.476
313.668
313.539
314.935
314.096
314.922
315.5
314.625
313.993
314.264
315.131
313.093
313.289
313.138
313.258
313.687
313.857
310.589
309.027
311.156
310.06
310.024
310.218
308.888
308.889
308.563
310.859
308.78
309.9
310.44
309.507
309.884
310.883
310.667
308.431
311.243
310.325
305.225
306.507
305.473
306.058
306.229
306.961
306.475
306.763
306.744
306.793
307.321
306.512
305.801
306.3
306.837
304.028
303.9
306.782
307.265
305.91
302.586
302.523
302.197
303.382
302.701
301.263
302.947
302.78
302.291
302.878
303.236
302.122
301.718
301.617
301.683
301.583
302.229
303.702
300.9
302.145
327.193
328.214
329.47
328.528
329.395
328.722
329.253
328.841
331.846
331.671
330.703
330.754
329.663
329.87
330.309
329.324
328.754
328.353
328.727
328.412
326.322
325.362
324.494
325.745
325.377
325.371
326.385
325.971
325.588
325.764
326.5
326.947
326.009
326.119
325.675
325.725
325.569
325.738
325.208
325.401
321.2
321.905
322.83
323.309
323.121
321.248
322.728
322.415
322.342
322.442
321.717
323.61
321.935
323.214
322.779
322.705
322.301
320.873
321.604
321.993
318.352
317.964
317.537
317.542
317.672
319.061
319.255
318.478
319.78
319.378
319.669
319.162
318.086
317.121
318.681
317.104
317.378
319.147
316.176
317.712
313.723
315.148
314.481
314.721
313.923
314.701
314.71
316.204
314.994
315.227
315.091
314.916
314.461
314.469
313.79
314.733
313.613
313.642
312.572
313.439
309.628
310.741
308.594
310.073
309.45
311.897
311.585
309.259
310.338
309.669
311.905
309.964
311.281
309.678
309.626
310.532
310.447
311.962
308.948
310.406
305.794
306.726
306.508
306.715
305.645
306.458
308.812
304.974
305.465
305.694
306.322
305.97
306.881
304.88
305.434
306.036
306.565
306.872
307.039
305.438
302.612
301.884
302.742
301.444
302.157
301.09
299.553
301.62
301.131
301.863
302.043
301.762
301.925
301.223
302.119
302.684
302.45
301.897
302.368
300.907
331.956
330.989
330.366
329.61
329.051
331.072
330.65
330.57
329.856
331.537
331.443
331.394
331.52
330.157
331.131
328.162
329.978
330.64
328.847
330.449
326.418
327.715
327.006
326.96
327.143
328.054
327.586
326.008
327.193
327.701
328.086
327.409
327.12
327.776
326.944
327.909
325.248
325.067
325.409
326.327
323.037
322.241
322.146
322.192
324.034
322.303
323.729
324.232
322.956
324.036
322.204
323.283
321.723
322.924
323.734
322.702
321.974
320.513
322.221
323.308
319.65
318.87
319.458
319.014
319.106
317.16
319.48
317.924
318.109
317.982
318.56
319.436
319.695
319.055
317.842
318.174
320.026
317.2
317.885
317.299
315.845
315.884
314.893
313.734
315.66
315.013
316.029
314.079
314.907
314.777
315.01
315.333
315.376
313.833
315.067
314.743
313.774
312.898
313.832
314.387
310.956
310.442
309.584
311.954
308.987
310.19
311.829
309.404
312.038
309.322
310.976
311.308
310.349
310.005
310.185
310.444
309.878
310.04
309.807
310.422
307.321
306.594
305.846
306.339
307.347
305.12
307.216
304.175
305.791
306.177
305.671
306.415
305.616
307.28
305.979
305.942
305.609
306.158
304.831
305.428
302.575
302.43
302.817
303.228
301.67
301.854
301.828
302.24
303.557
301.224
302.887
301.951
302.219
300.698
302.047
302.636
301.295
301.767
303.14
300.471
333.037
331.288
330.985
330.779
331.691
330.318
331.536
331.197
330.485
331.723
331.246
331.371
334.056
331.189
329.277
330.852
330.573
329.835
330.268
330.155
327.092
326.928
327.111
327.37
326.433
327.267
326.72
327.872
327.515
327.823
327.363
327.819
328.023
327.06
327.288
327.56
327.282
326.58
327.215
326.399
323.86
323.946
323.617
322.165
323.725
321.501
323.543
324.426
323.859
323.925
323.734
323.249
322.589
322.797
322.739
322.783
320.677
321.91
321.644
323.233
319.433
319.946
318.95
319.109
319.119
319.431
318.705
319.363
319.487
319.263
320.073
320.172
320.098
320.53
318.261
318.56
319.394
318.923
319.653
318.161
316.101
314.69
314.828
314.197
315.01
315.879
314.749
314.962
315.542
316.239
314.587
316.527
314.844
315.555
315.739
315.448
314.124
314.868
315.562
316.208
310.333
311.355
311.691
311.041
311.003
310.064
310.622
310.844
312.063
311.338
311.209
310.694
311.687
309.807
310.811
310.15
310.943
311.057
310.373
311.08
306.859
306.93
306.336
304.855
307.383
306.75
307.141
307.443
305.958
305.89
307
307.594
306.588
306.394
305.144
306.099
307.154
306.395
306.409
306.211
302.624
301.069
301.565
302.612
302.296
301.44
302.068
300.949
301.67
302.67
302.119
301.805
301.362
302.125
301.59
300.627
301.956
302.013
303.042
302.51
331.8
331.149
331.068
331.112
331.919
331.759
332.108
332.991
332.53
333.8
333.497
332.294
331.567
331.308
331.989
332.122
330.845
330.64
333.112
330.59
327.163
328.728
327.777
328.055
327.059
328.542
327.647
328.673
330.1
329.73
327.684
327.162
327.792
327.173
328.13
326.676
327.802
327.193
327.595
327.269
324.279
325.054
324.77
324.829
323.419
323.846
324.634
322.898
324.538
324.824
324.924
322.196
324.395
324.033
323.21
323.9
323.884
324.226
322.273
322.664
318.836
319.87
319.603
320.96
319.278
321.309
319.835
320.862
319.451
319.322
320.861
318.078
319.08
319.646
319.672
318.418
318.226
320.295
320.993
318.877
314.741
315.13
315.413
316.043
313.861
315.433
314.832
315.944
315.559
316.213
314.827
315.325
314.355
315.471
314.617
316.153
315.727
314.493
315.434
316.039
310.732
312.667
311.298
310.336
310.608
309.693
310.728
310.359
310.055
309.95
310.382
310.74
312.064
311.792
309.41
310.028
312.026
310.839
311.767
312.064
306.152
306.161
307.422
306.541
307.201
306.321
307.364
307.82
306.48
306.576
305.018
306.131
305.511
306.077
306.172
305.374
306.3
306.355
307.217
306.846
302.123
302.769
302.25
301.747
301.533
302.715
303.719
302.311
301.686
301.261
300.819
302.366
301.852
302.629
302.694
301.955
303.162
302.56
300.497
301.429
334.959
333.679
332.931
332.949
332.171
332.193
332.718
333.322
332.147
331.104
331.666
333.104
332.056
333.237
332.941
332.255
332.213
332.214
331.589
330.403
330.106
329.58
328.895
329.603
329.209
329.426
328.258
329.337
328.146
329.633
329.666
327.544
329.879
328.527
329.196
327.1
329.704
327.803
329.312
329.12
326.311
324.545
325.049
324.893
323.829
324.129
324.569
324.036
324.828
323.985
324.747
324.164
323.938
323.953
323.52
324.417
323.33
325.322
322.791
323.796
320.563
320.711
320.594
320.346
320.73
318.367
320.2
320.579
320.015
321.461
321.907
320.686
320.743
320.622
319.213
320.525
319.894
319.315
320.14
318.241
316.889
317.453
315.091
315.295
317.178
315.28
314.966
316.106
315.704
315.657
315.491
315.681
316.324
315.826
314.294
316.226
315.843
315.612
314.887
314.455
311.771
310.848
311.24
313.053
310.754
310.917
311.611
311.303
311.248
311.684
310.14
311.063
311.674
311.721
312.555
311.875
311.375
311.178
312.425
312.135
307.029
306.129
307.894
307.248
306.646
308.532
306.715
307.328
306.419
306.226
305.057
305.565
308.474
307.108
307.23
308.202
307.214
306.696
305.75
307.065
302.334
302.378
303.321
301.589
302.359
303.095
302.7
301.06
300.704
303.163
301.335
302.188
301.133
302.754
302.043
303.571
301.896
303.124
302.386
302.143
334.7
334.233
333.437
333.638
332.634
333.082
334.394
333.336
333.747
333.532
330.825
331.277
332.839
334.527
332.93
333.077
331.645
331.308
332.003
333.102
329.118
328.019
328.272
329
330.854
328.003
329.33
329.021
328.91
330.319
329.166
328.383
328.139
328.039
329.717
328.799
327.539
328.083
329.679
329.104
325.494
324.784
325.571
324.636
325.075
324.884
325.784
322.613
326.003
322.847
323.834
325.079
323.643
324.904
325.21
325.228
323.5
324.111
325.444
323.096
321.862
321.512
320.468
320.009
321.066
320.571
321.42
320.706
321.423
320.863
321.054
320.606
320.587
320.98
319.371
320.234
319.939
320.221
321.142
318.993
316.441
316.128
316.827
314.707
315.792
315.79
316.387
316.723
315.65
314.733
315.491
316.138
316.204
315.934
315.501
316.09
315.38
314.414
315.685
316.214
311.694
311.576
310.515
310.221
312.832
311.886
311.101
311.955
310.43
311.555
311.649
311.899
312.841
311.727
311.337
311.81
311.582
310.932
310.168
311.206
306.954
307.377
306.452
305.556
308.383
306.935
307.122
306.75
307.77
307.405
307.498
307.221
306.903
307.113
306.111
306.094
305.112
308.001
305.708
306.491
303.472
303.058
302.791
302.56
303.115
301.605
302.293
303.061
303.017
302.383
301.949
301.793
301.766
303.179
302.459
301.873
303.596
301.674
301.532
301.345
)
;

boundaryField
{
    hotSide
    {
        type            fixedGradient;
        gradient        nonuniform List<scalar> 
400
(
321.511
322.87
325.591
329.677
335.133
341.965
350.181
359.788
370.794
383.208
397.037
412.289
428.971
447.088
466.647
487.651
510.105
534.011
559.372
586.191
323.738
325.08
327.767
331.802
337.194
343.949
352.078
361.591
372.498
384.81
398.537
413.687
430.268
448.289
467.755
488.672
511.043
534.872
560.161
586.913
326.149
327.47
330.116
334.091
339.406
346.071
354.099
363.503
374.296
386.491
400.101
415.136
431.606
449.52
468.885
489.706
511.988
535.735
560.948
587.63
328.704
330
332.597
336.503
341.73
348.292
356.205
365.485
376.15
388.215
401.695
416.604
432.954
450.753
470.009
490.73
512.919
536.579
561.714
588.325
331.33
332.599
335.142
338.97
344.099
350.546
358.332
367.477
378.003
389.928
403.271
418.047
434.27
451.949
471.095
491.712
513.807
537.382
562.439
588.978
333.918
335.158
337.643
341.389
346.414
352.74
360.392
369.397
379.779
391.562
404.765
419.407
435.503
453.065
472.101
492.618
514.622
538.114
563.096
589.569
336.321
337.531
339.959
343.622
348.544
354.751
362.274
371.142
381.385
393.031
406.101
420.618
436.595
454.047
472.983
493.409
515.33
538.747
563.663
590.076
338.36
339.543
341.92
345.509
350.339
356.44
363.847
372.595
382.718
394.244
407.2
421.608
437.485
454.844
473.695
494.045
515.897
539.253
564.114
590.478
339.852
341.015
343.352
346.885
351.645
357.665
364.985
373.643
383.675
395.113
407.984
422.312
438.116
455.407
474.197
494.491
516.294
539.606
564.428
590.758
340.643
341.795
344.11
347.613
352.334
358.311
365.584
374.193
384.176
395.567
408.393
422.679
438.443
455.699
474.456
494.722
516.498
539.788
564.589
590.901
340.643
341.795
344.11
347.613
352.334
358.311
365.584
374.193
384.176
395.567
408.393
422.679
438.443
455.699
474.456
494.722
516.498
539.788
564.589
590.901
339.852
341.015
343.352
346.885
351.645
357.665
364.985
373.643
383.675
395.113
407.984
422.312
438.116
455.407
474.197
494.491
516.294
539.606
564.428
590.758
338.36
339.543
341.92
345.509
350.339
356.44
363.847
372.595
382.718
394.244
407.2
421.608
437.485
454.844
473.695
494.045
515.897
539.253
564.114
590.478
336.321
337.531
339.959
343.622
348.544
354.751
362.274
371.142
381.385
393.031
406.101
420.618
436.595
454.047
472.983
493.409
515.33
538.747
563.663
590.076
333.918
335.158
337.643
341.389
346.414
352.74
360.392
369.397
379.779
391.562
404.765
419.407
435.503
453.065
472.101
492.618
514.622
538.114
563.096
589.569
331.33
332.599
335.142
338.97
344.099
350.546
358.332
367.477
378.003
389.928
403.271
418.047
434.27
451.949
471.095
491.712
513.807
537.382
562.439
588.978
328.704
330
332.597
336.503
341.73
348.292
356.205
365.485
376.15
388.215
401.695
416.604
432.954
450.753
470.009
490.73
512.919
536.579
561.714
588.325
326.149
327.47
330.116
334.091
339.406
346.071
354.099
363.503
374.296
386.491
400.101
415.136
431.606
449.52
468.885
489.706
511.988
535.735
560.948
587.63
323.738
325.08
327.767
331.802
337.194
343.949
352.078
361.591
372.498
384.81
398.537
413.687
430.268
448.289
467.755
488.672
511.043
534.872
560.161
586.913
321.511
322.87
325.591
329.677
335.133
341.965
350.181
359.788
370.794
383.208
397.037
412.289
428.971
447.088
466.647
487.651
510.105
534.011
559.372
586.191
)
;
    }
    coldSide
    {
        type            mixed;
        refValue        uniform 300;
        refGradient     uniform 0;
        valueFraction   uniform 0.991591;
        source          uniform 0;
        value           nonuniform List<scalar> 
400
(
300.012
300.003
300.012
300.009
300.013
300.009
299.996
300.01
300.026
300.006
300.014
300.018
300.008
300.022
300.022
300.022
300.022
300.018
300.02
300.029
300.003
300.015
300.013
300.017
300.002
300.012
300.022
300.014
300.022
300.019
300.014
300.014
300.019
300.021
300.016
300.02
300.009
300.023
300.02
300.026