/*--------------------------------*- C++ -*----------------------------------*\
| =========                 |                                                 |
| \\      /  F ield         | OpenFOAM: The Open Source CFD Toolbox           |
|  \\    /   O peration     | Version:  2212                                  |
|   \\  /    A nd           | Website:  www.openfoam.com                      |
|    \\/     M anipulation  |                                                 |
\*---------------------------------------------------------------------------*/
FoamFile
{
    version     2.0;
    format      ascii;
    arch        "LSB;label=32;scalar=64";
    class       volScalarField;
    location    "0";
    object      relativeErrorField;
}
// * * * * * * * * * * * * * * * * * * * * * * * * * * * * * * * * * * * * * //

dimensions      [0 0 0 1 0 0 0];

internalField   nonuniform List<scalar> 
3200
(
0.00680692
0.00294757
0.000895003
0.00316538
0.00443535
0.00501312
0.00527324
0.00493653
0.00449876
0.00364096
0.0029625
0.00225637
0.00149565
0.00102028
0.000263344
0.000420051
0.00159568
0.00374607
0.00727663
0.0112327
0.00717311
0.00362934
0.000687401
0.00160354
0.00279078
0.00342808
0.00340384
0.00330667
0.00269647
0.002137
0.001235
0.000540177
0.000138071
0.000358042
0.00065123
0.00112822
0.00224248
0.00405534
0.00735525
0.0105794
0.00668943
0.00396184
0.00134099
0.0006109
0.00130884
0.00216757
0.00202786
0.00201985
0.00135932
0.000992
0.000602878
0.00015741
0.000249137
0.000934637
0.00107458
0.00172832
0.00296672
0.0043496
0.00674852
0.0095576
0.00612515
0.00369869
0.00143293
8.04471e-06
0.000879419
0.00125322
0.00143316
0.0012576
0.000702795
0.000313926
8.04936e-06
0.000391207
0.000960888
0.00137479
0.00134154
0.00201532
0.00264625
0.00420845
0.00630151
0.00837809
0.00526633
0.00337159
0.0015166
0.000243345
8.37601e-05
0.000687872
0.000542437
0.000420976
0.000123462
0.00010789
0.000295751
0.000797779
0.00101011
0.00116742
0.00151148
0.00171605
0.0023914
0.00351963
0.0050613
0.00702514
0.00396473
0.00256341
0.0013525
0.000228842
2.47604e-05
0.000360682
0.000214856
0.000358948
0.000184256
0.000302807
0.000597344
0.000581927
0.000792015
0.00120706
0.00116911
0.00130233
0.00194119
0.0026228
0.00369677
0.00500395
0.00223393
0.00165632
0.0008465
0.000185984
9.92621e-05
2.22558e-05
0.000103149
8.92808e-05
2.23308e-05
0.000130389
0.000399773
0.000788618
0.000669645
0.000935915
0.000799469
0.00118346
0.00161218
0.00140844
0.0025231
0.0029218
0.00083154
0.000783662
5.88368e-05
4.39196e-05
0.000134237
8.15604e-06
0.000103816
0.000173895
8.37122e-06
2.35933e-05
0.000154864
0.000177266
0.000116699
0.000353179
0.000236632
0.000367474
0.000639396
0.000859783
0.000896502
0.00105928
0.00656954
0.00289606
0.000676044
0.00298504
0.00398882
0.00443196
0.00404482
0.00395465
0.00282772
0.00200047
0.00114167
0.000299284
7.41244e-05
0.000617942
0.00064105
0.000879504
0.00214891
0.00394698
0.00731144
0.0111651
0.00704846
0.0035996
0.000646006
0.00155179
0.00223173
0.0027638
0.00270948
0.00225983
0.00135023
0.000684611
7.2175e-05
0.000790073
0.00117636
0.00131974
0.00145747
0.00202462
0.00278199
0.00466458
0.00744021
0.0106738
0.00676662
0.00408699
0.00131639
0.000494173
0.0014127
0.00160106
0.00137651
0.00116812
0.000465108
0.000194967
0.00086991
0.00129705
0.00153806
0.00187684
0.00189987
0.00230998
0.00295792
0.0045428
0.00700282
0.00973709
0.00600453
0.00364211
0.00155676
0.000187659
0.000446432
0.000780456
0.000757617
0.000461836
5.07905e-05
0.000370213
0.00106495
0.001407
0.00175355
0.00189483
0.00162141
0.00240091
0.00304561
0.00420215
0.00623946
0.00831521
0.00509605
0.0032057
0.00156863
0.000561571
0.000233566
0.000371051
0.00043027
4.80488e-05
0.000300846
0.000869904
0.00129932
0.00142909
0.00178843
0.00166175
0.0020551
0.00225659
0.00269369
0.00357018
0.00514975
0.00661672
0.00401556
0.00235408
0.00138681
0.000573085
0.000126679
0.000150616
4.98731e-05
0.000149578
0.0003786
0.000840813
0.000862613
0.00149077
0.00136559
0.00155577
0.00142219
0.00161206
0.00200898
0.00267774
0.00368253
0.00494061
0.00232445
0.00184349
0.00103501
0.000485455
0.000166976
5.21307e-06
0.000195513
0.000113364
0.00034437
0.000590442
0.000745589
0.000708709
0.000981137
0.000990986
0.0009922
0.0010083
0.00106939
0.00185906
0.00261729
0.00299763
0.000965761
0.000654447
0.000440635
0.000126153
3.32005e-05
0.000101576
0.000150868
4.61304e-05
0.000142663
0.000238178
0.00027343
0.000550904
0.00020995
0.000246486
0.000808992
0.000368971
0.00040981
0.000578197
0.000985832
0.00143123
0.00644337
0.00280037
0.000768572
0.00226994
0.00312683
0.00332767
0.00274018
0.00187419
0.00063622
0.000332807
0.00118581
0.00215035
0.00257298
0.00270192
0.0023802
0.00265999
0.00325162
0.00456864
0.00771956
0.0113608
0.00685559
0.00338504
0.000793323
0.000891344
0.00174332
0.00167597
0.00139684
0.000661355
0.000406844
0.00125108
0.00214297
0.00271094
0.00308671
0.00301673
0.00322801
0.00296641
0.00377165
0.00508496
0.00773047
0.0110492
0.00649509
0.00404372
0.00151019
9.57315e-05
0.00055249
0.000863498
0.000388114
0.000249662
0.00099258
0.00185913
0.00247596
0.0031284
0.00316879
0.00332829
0.00331406
0.00322304
0.00373081
0.00528437
0.00723283
0.0097535
0.00581681
0.00384701
0.00156095
0.000646231
8.24239e-05
3.97908e-05
0.000208975
0.000786516
0.00131057
0.00187106
0.00280615
0.00309575
0.00309594
0.00327653
0.00321207
0.00315419
0.00378398
0.00465652
0.00665813
0.00846919
0.00521219
0.00316579
0.00162449
0.000947502
0.000407901
0.000269713
0.000368439
0.00111099
0.00126389
0.00206408
0.00237734
0.0026725
0.00260045
0.00285408
0.00289236
0.00278088
0.00308237
0.00375577
0.00541362
0.00684004
0.00357729
0.00249935
0.0016401
0.000642513
0.000348695
0.000297694
0.000497058
0.000716296
0.00118825
0.00143824
0.00191047
0.00204001
0.00230927
0.00212484
0.00208346
0.00231191
0.00226032
0.00307928
0.00380756
0.00508912
0.00246405
0.00174957
0.00090579
0.000235465
0.000283714
0.000288855
0.000234864
0.000445526
0.000673458
0.000750859
0.00140187
0.00141931
0.00135342
0.00122381
0.00126556
0.00142802
0.00133755
0.00206709
0.00248806
0.00313617
0.000749173
0.000598552
0.000403337
0.000233907
8.35463e-06
7.12849e-06
3.94982e-05
0.000339775
0.000188027
0.000456514
8.74624e-05
0.000380577
0.000629585
0.000547424
0.000506596
0.000575718
0.000428525
0.000825191
0.000776229
0.00119835
0.00661442
0.00310143
6.28552e-05
0.00166549
0.00199446
0.00155272
0.000931954
0.000364476
0.00182424
0.00327623
0.00447875
0.00523368
0.00549113
0.0048179
0.00433105
0.0041353
0.00445466
0.00596855
0.00850065
0.0122068
0.00690748
0.00402469
0.0011736
0.000242408
0.000931818
0.000442595
0.000184818
0.00132914
0.00249661
0.00382869
0.00483967
0.00546401
0.00537766
0.00511164
0.00480005
0.00434749
0.00478598
0.00606155
0.00840374
0.0112081
0.00673494
0.00405831
0.00206868
0.000659707
0.000283116
2.52106e-05
0.000923922
0.00185943
0.00286496
0.00409559
0.00479015
0.00527763
0.00530367
0.00504062
0.00469908
0.00450056
0.00480165
0.00581992
0.00778944
0.0101764
0.00603309
0.00393165
0.00230447
0.000968683
0.000771326
0.000992331
0.00119537
0.00209431
0.00279383
0.00374485
0.00443741
0.00464959
0.00478946
0.00449456
0.00439083
0.00419016
0.00437753
0.00507662
0.00660001
0.00871392
0.00509183
0.00315292
0.00184148
0.00131884
0.000657035
0.000837529
0.00113414
0.00215245
0.00253092
0.00318087
0.00350339
0.00414832
0.00399604
0.00367791
0.00386524
0.00349041
0.00390798
0.0044726
0.00559296
0.00716529
0.00388578
0.00277485
0.00174231
0.00101016
0.000699736
0.000792393
0.000950826
0.00162967
0.00193272
0.00262835
0.00317595
0.00304732
0.00307436
0.0028159
0.00263559
0.00279756
0.00278248
0.00328156
0.00418382
0.00515932
0.0024485
0.00168776
0.000909552
0.000605573
0.000617839
0.000494828
0.0011637
0.00119737
0.0011616
0.00168678
0.0017736
0.00189453
0.00187305
0.00195423
0.0016169
0.001774
0.00190361
0.00215741
0.00288056
0.00324778
0.000800086
0.000448961
0.000285883
0.00038857
0.000155098
0.000260527
0.000148534
0.000275879
0.000624725
0.000603901
0.000837049
0.000684171
0.00072431
0.000470085
0.000643338
0.000518538
0.000927151
0.000408089
0.000814457
0.00138514
0.00692618
0.00366893
0.000636425
0.000640477
0.000758553
0.000236032
0.00101199
0.00273767
0.00471167
0.00651062
0.0077217
0.00848827
0.00839449
0.00741374
0.00666885
0.00615355
0.00606461
0.00722348
0.00958627
0.0128555
0.00727486
0.00405731
0.00187314
0.000566487
0.000278052
0.000892949
0.00205837
0.003248
0.00508326
0.00634166
0.00735751
0.00820563
0.00803088
0.00771567
0.00657831
0.00617297
0.00620965
0.00710146
0.00899196
0.0118412
0.00663171
0.0044291
0.00272301
0.00139753
0.00107526
0.00147117
0.00247094
0.0036551
0.00515252
0.00633446
0.00714729
0.00767777
0.00752635
0.00703752
0.00632625
0.00582888
0.00590731
0.00670881
0.00876164
0.0107525
0.00615488
0.00456579
0.00257363
0.00160163
0.00129486
0.00160965
0.00260794
0.0035156
0.00441914
0.00532001
0.00627067
0.00662816
0.00674039
0.00617011
0.00570223
0.00522536
0.00538754
0.00599817
0.00729657
0.00916106
0.00514144
0.00372728
0.00239137
0.00168477
0.00151206
0.0016827
0.00229175
0.00305738
0.00374538
0.00476172
0.00527958
0.00564335
0.00557126
0.0052459
0.00478647
0.00425987
0.00448314
0.00481701
0.00622202
0.00729002
0.00428624
0.00317248
0.00208799
0.0013673
0.00122729
0.00141134
0.00173783
0.00220272
0.00276796
0.00356878
0.00407242
0.00418411
0.00396124
0.0039386
0.0036648
0.00312322
0.00343077
0.00400423
0.00460256
0.00585145
0.00242882
0.00165293
0.00109941
0.000911844
0.000826937
0.000863741
0.00101968
0.00163017
0.0020124
0.00231601
0.00250947
0.00265079
0.00251798
0.00241103
0.00264965
0.00205421
0.00207255
0.00242335
0.00283136
0.00335229
0.000946754
0.000712633
0.000452839
0.000175927
0.000424658
0.000332932
0.000333963
0.000696005
0.000476046
0.000909597
0.000836418
0.00106451
0.00105216
0.000841227
0.000505208
0.000710524
0.000541206
0.000930411
0.000927927
0.00110388
0.00734318
0.00432373
0.00185146
0.000633812
0.000797457
0.00161915
0.00317669
0.00524619
0.00747292
0.00966521
0.0110436
0.0115991
0.0114044
0.0104292
0.00926942
0.00819603
0.00782368
0.00882458
0.0106171
0.0134887
0.00756559
0.00479077
0.00282476
0.00155067
0.00170663
0.00240417
0.00376287
0.00566974
0.00747371
0.00919214
0.0105493
0.0112245
0.0105431
0.0098107
0.00884567
0.00786887
0.00784829
0.00842399
0.0102642
0.0127439
0.00720509
0.00507352
0.00312652
0.002265
0.00216925
0.00265306
0.00385369
0.00546305
0.0070263
0.0083809
0.00952879
0.0101283
0.00970349
0.0090468
0.00827758
0.00739968
0.00713424
0.00766719
0.00919078
0.0114488
0.00664575
0.00470809
0.00304403
0.00225779
0.00224629
0.00286528
0.00364292
0.0046545
0.00630161
0.00742901
0.00845361
0.00855516
0.00843733
0.00771397
0.00718509
0.00638742
0.006294
0.00713811
0.00830294
0.00969949
0.00530857
0.00398229
0.00275372
0.0018948
0.00202477
0.00260749
0.00331328
0.00409599
0.00510947
0.00636707
0.00685314
0.00694057
0.00678117
0.0064141
0.00592546
0.00552141
0.00534568
0.00571948
0.0066525
0.00790184
0.00404822
0.00301484
0.00223522
0.0017425
0.00150649
0.00177548
0.00228164
0.0032245
0.0039182
0.00470822
0.0052101
0.00556627
0.00514462
0.00466661
0.00463897
0.00388772
0.00385908
0.00439359
0.00471169
0.00566702
0.00247818
0.0018654
0.00150758
0.00115661
0.000992894
0.00124687
0.00157988
0.00197407
0.00246759
0.00292498
0.00315579
0.00347961
0.00343039
0.00266165
0.00277772
0.00242849
0.00252083
0.00269103
0.00295956
0.003885
0.000863885
0.000596459
0.000498149
0.000463477
0.000384722
0.000238112
0.000581273
0.000580186
0.000973193
0.00111357
0.00105576
0.00122796
0.00113952
0.000908837
0.000904201
0.00089476
0.000755992
0.000796473
0.00120088
0.00127173
0.00786596
0.00493502
0.0027722
0.00176056
0.00175612
0.00328027
0.00525615
0.00760367
0.0104226
0.0126134
0.0143067
0.0145456
0.0145432
0.0127573
0.0113079
0.00995949
0.00961639
0.00987455
0.0117138
0.0143772
0.00805511
0.00538004
0.00347631
0.00285458
0.00260654
0.00371701
0.005594
0.00766571
0.00982663
0.0117795
0.0130319
0.0137172
0.0131192
0.0122055
0.010794
0.00972591
0.00916318
0.00952964
0.0108805
0.0133952
0.00764914
0.00556955
0.00391495
0.00305921
0.00332333
0.0039044
0.00527961
0.00722963
0.00917532
0.0105624
0.01194
0.0122051
0.011957
0.0109376
0.0095355
0.00881579
0.00850556
0.00858911
0.0102007
0.0119573
0.00656743
0.00510653
0.00371868
0.00323427
0.0030746
0.00384596
0.00503836
0.00627667
0.00807599
0.00912433
0.0104022
0.0107832
0.0101492
0.00954745
0.00839451
0.00766009
0.00729346
0.00759171
0.00884543
0.010157
0.00558955
0.0045305
0.00334982
0.00272721
0.00273123
0.00337161
0.00395201
0.00541305
0.00633689
0.00740688
0.00828369
0.00865276
0.00841392
0.00784819
0.00690746
0.00623029
0.00597229
0.00662721
0.00713505
0.00836019
0.00447735
0.00332713
0.00262872
0.00217777
0.00229364
0.00261725
0.00330434
0.0040139
0.00483286
0.0053702
0.00634611
0.00637143
0.00613406
0.00572643
0.0053719
0.00458535
0.00451874
0.00470672
0.00529281
0.00609248
0.00286729
0.00206784
0.00165221
0.00147114
0.00134725
0.00174225
0.00211126
0.00244406
0.00301011
0.00347621
0.00390315
0.00411134
0.00406159
0.00340403
0.00331657
0.00305231
0.00289868
0.0028181
0.00357235
0.00391764
0.0010916
0.000534605
0.000642172
0.000346855
0.000697898
0.000328129
0.00045117
0.000879145
0.00125833
0.00128195
0.0013862
0.00138993
0.0013029
0.00103528
0.00109229
0.00104061
0.00101278
0.000959776
0.00139786
0.00107459
0.0085718
0.00572411
0.00363325
0.0029461
0.00337124
0.00457876
0.0070258
0.00996833
0.012545
0.0151952
0.0172824
0.0174757
0.0170285
0.0151076
0.0133477
0.0118429
0.0107633
0.0112847
0.0126374
0.0148519
0.00844283
0.00612582
0.00434954
0.00346251
0.00381113
0.00502979
0.00711828
0.00939026
0.0118379
0.0142797
0.0157351
0.0162327
0.0155939
0.0139104
0.01264
0.0110562
0.0104836
0.0104963
0.011781
0.013887
0.00773231
0.00594187
0.00425747
0.0038862
0.00404845
0.00525014
0.00670135
0.00882345
0.0109155
0.0125456
0.0139093
0.0144363
0.0137384
0.0125479
0.0111891
0.010228
0.00959462
0.0094924
0.0109399
0.0124924
0.00708614
0.00579656
0.004043
0.00361153
0.00380441
0.00500962
0.00616492
0.00758511
0.0094477
0.010813
0.0119281
0.0123067
0.0119298
0.011011
0.00979467
0.00874414
0.00831507
0.00845865
0.00933325
0.0106899
0.00576762
0.00473046
0.00347637
0.00326656
0.0035813
0.00441272
0.00514225
0.00644561
0.00745604
0.00913133
0.00975048
0.0099566
0.00944326
0.00892499
0.00790887
0.00710834
0.00680986
0.00702776
0.00783747
0.0085821
0.00469326
0.00364568
0.00272844
0.00233924
0.00257314
0.00342286
0.00409173
0.00479704
0.00575369
0.0063428
0.00706794
0.00749655
0.00707172
0.0066351
0.00594062
0.00530172
0.0052413
0.00521889
0.00555615
0.00664291
0.00285927
0.00244141
0.00171977
0.00173294
0.00189259
0.0019665
0.00233241
0.003163
0.00362937
0.00411904
0.00455016
0.00457323
0.00422662
0.0040482
0.00358125
0.00319859
0.00324238
0.00344053
0.00356275
0.00400166
0.00094947
0.000819859
0.000716437
0.000655143
0.000631553
0.000601697
0.000566121
0.000926563
0.00138315
0.00126304
0.00144322
0.00163105
0.00150725
0.00144117
0.00123783
0.000990834
0.000838809
0.00102367
0.00122355
0.0013492
0.00846628
0.00618155
0.00437008
0.00359831
0.00428939
0.00606983
0.00845066
0.0113623
0.0144828
0.0176324
0.0192036
0.0197079
0.0185941
0.0169172
0.0148872
0.0132382
0.0121538
0.0120977
0.0134435
0.0155398
0.00854594
0.00639937
0.0049203
0.00443101
0.00504949
0.00617083
0.00837119
0.0106766
0.0135995
0.0159449
0.0176237
0.017858
0.0172694
0.0155965
0.0137646
0.0126505
0.0115784
0.0115717
0.0127168
0.0142749
0.00814689
0.00622515
0.00505978
0.00447796
0.00498461
0.00600446
0.00773078
0.00994774
0.0121033
0.0143105
0.0155763
0.0159172
0.0155122
0.0140012
0.0123508
0.0111158
0.0102847
0.010366
0.0113699
0.0129041
0.00709665
0.00569465
0.00463218
0.00407148
0.00471582
0.00543148
0.00709073
0.00856406
0.0105478
0.0121623
0.0133336
0.0135178
0.012976
0.0118466
0.0107966
0.0094968
0.00920912
0.00900128
0.00990764
0.0111973
0.00595982
0.00506771
0.00423976
0.00377144
0.00403959
0.00470026
0.00595193
0.00705916
0.00858552
0.00991374
0.0107507
0.0109446
0.0103319
0.00969602
0.00872436
0.00769294
0.00741274
0.00721333
0.00823544
0.00900639
0.00452851
0.00383941
0.00295558
0.00283595
0.00341589
0.00360752
0.0042694
0.00554192
0.00644265
0.00730833
0.00807382
0.00816305
0.00784333
0.00728052
0.00627974
0.00598985
0.00551304
0.00565047
0.00619892
0.00668722
0.00283025
0.0021602
0.00178309
0.00173602
0.00222623
0.00230179
0.00283156
0.00337023
0.00398785
0.00466353
0.00520159
0.00508166
0.00475207
0.00439857
0.00403245
0.0036763
0.00341918
0.00319675
0.00397593
0.00424827
0.00111976
0.000951816
0.00100152
0.000838762
0.000690426
0.00100997
0.00115444
0.00119819
0.00152946
0.00161536
0.00168003
0.00183694
0.00167071
0.00156958
0.00144923
0.00118535
0.00110606
0.00116852
0.00106585
0.00111777
0.00869012
0.00631959
0.00488406
0.00445312
0.00533716
0.00701085
0.00942508
0.012553
0.0158255
0.0188088
0.0206386
0.0212173
0.0200336
0.0181357
0.0161364
0.0141666
0.0130459
0.0129387
0.0139515
0.0159902
0.0083992
0.00670296
0.00542606
0.00495961
0.00552642
0.0072459
0.00924858
0.0119284
0.0148515
0.0172765
0.0188977
0.0192692
0.0184371
0.0165119
0.0149986
0.0133715
0.0121493
0.0120496
0.0128313
0.0144147
0.00815205
0.00663729
0.00542892
0.00505038
0.00544217
0.00681791
0.00856687
0.0109192
0.0132612
0.0154091
0.0166604
0.0169763
0.0162656
0.0147307
0.0134249
0.0116824
0.011034
0.0106683
0.0117814
0.0130009
0.00709512
0.00600437
0.00475659
0.00481035
0.00520831
0.00588575
0.00767016
0.00936935
0.0112439
0.0129844
0.014323
0.0141299
0.0139142
0.012641
0.0113599
0.0102451
0.00932172
0.00925666
0.0103778
0.0112224
0.00595319
0.00518387
0.0042694
0.00419249
0.00416312
0.0050976
0.00636718
0.00780942
0.00937721
0.0108136
0.0115714
0.0118425
0.0110734
0.0102551
0.00913168
0.00844847
0.00783135
0.00783242
0.00837721
0.0091093
0.00470775
0.00386621
0.0031988
0.00294987
0.00335189
0.0041847
0.00492878
0.00592928
0.00679012
0.00791443
0.00834708
0.00845884
0.00807147
0.00746601
0.00672177
0.00605607
0.00565385
0.00537629
0.00614501
0.00676858
0.00297201
0.00229523
0.0019992
0.00188882
0.00215009
0.00260158
0.00310448
0.00354445
0.00448088
0.00505637
0.00543125
0.00531288
0.00527173
0.0047784
0.00396564
0.00385113
0.0035929
0.00354892
0.00392581
0.0042184
0.000945421
0.000953074
0.000679207
0.000540884
0.000801895
0.00115391
0.00121856
0.00140342
0.00164831
0.001601
0.00166701
0.00198813
0.00180512
0.00165154
0.00167164
0.00124674
0.00130262
0.00136476
0.00155182
0.0015691
0.008293
0.0060983
0.00489921
0.00494052
0.00567218
0.00752805
0.0100545
0.0135426
0.0165492
0.0192892
0.0211437
0.0215932
0.0206946
0.0186396
0.0164889
0.0146584
0.0133707
0.0132233
0.0142772
0.0159075
0.00828903
0.00667771
0.00550807
0.00526397
0.00576229
0.00755387
0.00977803
0.0125584
0.0153024
0.0178596
0.0193822
0.0198244
0.0190413
0.0173757
0.0152024
0.0137007
0.0123804
0.0123132
0.0131849
0.0147893
0.0080682
0.00627364
0.00529373
0.00516692
0.00593096
0.00744465
0.0090882
0.0114155
0.013713
0.0158031
0.0171157
0.0173508
0.0165109
0.0153282
0.0136872
0.0122686
0.0112859
0.0110962
0.0118882
0.0130405
0.00713818
0.00602233
0.00512758
0.00502414
0.00564309
0.00639597
0.00803244
0.00986316
0.0116883
0.0133706
0.0146544
0.0149488
0.0141415
0.0129713
0.0115094
0.0108401
0.00987199
0.00954928
0.0102855
0.011447
0.00597667
0.00506052
0.00426069
0.00416805
0.0043337
0.00547573
0.00657485
0.00836741
0.00974442
0.011012
0.011553
0.0118126
0.0115224
0.010633
0.00964388
0.00843525
0.00790556
0.00788457
0.00835511
0.00928223
0.00442945
0.00385902
0.00330859
0.00343469
0.00355011
0.00398632
0.00508729
0.0060284
0.00746045
0.00816931
0.00867565
0.00859021
0.00869034
0.00776191
0.00689476
0.00637261
0.00595971
0.00568044
0.00605224
0.00663088
0.00287752
0.00266046
0.00223838
0.00209723
0.00225528
0.0026663
0.0029684
0.00359336
0.00445914
0.00494614
0.00546888
0.00564024
0.00541864
0.00479135
0.00442007
0.00378274
0.00366497
0.00375119
0.00375153
0.00441966
0.000867359
0.000693052
0.000805373
0.000669833
0.000770293
0.000890058
0.000918347
0.00116711
0.00151809
0.00158896
0.00202283
0.00181298
0.00181533
0.00156581
0.00141076
0.00137616
0.00123842
0.00104321
0.0013649
0.00140951
0.00799409
0.00596823
0.00462753
0.0045701
0.00560963
0.0076361
0.0101656
0.013312
0.0165354
0.0194087
0.021182
0.0215034
0.0203784
0.0187138
0.0164466
0.0144178
0.0133409
0.0131657
0.0136594
0.0153434
0.00797051
0.00629911
0.00541865
0.00536491
0.00602795
0.00770524
0.00968924
0.0125513
0.0153664
0.0176868
0.0194146
0.0197078
0.0188588
0.0170182
0.0151414
0.0133305
0.0124391
0.0121373
0.0127754
0.0141408
0.00771281
0.00621537
0.00535862
0.00526315
0.00568762
0.00718164
0.00930657
0.0113522
0.0138897
0.0155549
0.0170979
0.0172198
0.0166966
0.0150396
0.0134642
0.0121919
0.0110625
0.0109348
0.0116079
0.0126994
0.00691734
0.00577408
0.00506999
0.00474695
0.00556278
0.00664072
0.00826692
0.00997762
0.0115796
0.0132962
0.0146488
0.0145
0.0141324
0.0129462
0.011763
0.0106416
0.00968738
0.00951869
0.0100189
0.0109532
0.0058667
0.00498592
0.00437138
0.00419662
0.00478413
0.00530567
0.00672275
0.00835122
0.00975989
0.0107413
0.0117058
0.0117698
0.011437
0.0102783
0.0091758
0.00865903
0.00794716
0.00772969
0.00840663
0.00901683
0.004263
0.00378713
0.00325509
0.00334207
0.00344836
0.00395582
0.00520851
0.00604047
0.00707486
0.00807916
0.0088571
0.00872353
0.00839371
0.00763043
0.00690796
0.00641848
0.00597449
0.00584304
0.00613352
0.00665607
0.00299316
0.00240683
0.00214118
0.0020941
0.00253435
0.0026729
0.00301195
0.00406443
0.0044529
0.00510044
0.00533144
0.00546106
0.00536352
0.00490955
0.00438108
0.00412068
0.00384926
0.0033628
0.00380665
0.00407481
0.0009752
0.000845958
0.000829473
0.000790134
0.000883369
0.000845702
0.00119013
0.00134293
0.00168525
0.00179812
0.00188546
0.00193625
0.00160269
0.00183998
0.00158249
0.00127078
0.00130942
0.00151307
0.00126003
0.00139614
0.00708536
0.00526547
0.00421907
0.00398968
0.00513581
0.00716977
0.00966965
0.0128129
0.0160073
0.0184757
0.0201979
0.0204245
0.0196119
0.0179805
0.0157191
0.0137329
0.0127333
0.0123254
0.0130401
0.014703
0.00737205
0.00568006
0.00478976
0.00467198
0.00561789
0.00740112
0.00958592
0.0123365
0.0148882
0.0171254
0.0184029
0.0187653
0.0177615
0.0165408
0.0147371
0.0130769
0.0118872
0.011776
0.0121748
0.0137665
0.00707717
0.00574388
0.00488799
0.00473742
0.00561422
0.0071461
0.00893685
0.0111076
0.0132634
0.015371
0.0164761
0.016592
0.0158507
0.0144812
0.0130217
0.011569
0.0106233
0.0104835
0.0111093
0.0123949
0.00652796
0.00526758
0.00469436
0.00457615
0.00516498
0.00609322
0.00774109
0.0095751
0.011598
0.0130282
0.0138962
0.0142487
0.013477
0.0121365
0.011329
0.0100846
0.00939212
0.00912312
0.0097566
0.0106262
0.0053164
0.00438922
0.00407953
0.00399846
0.00435976
0.00526291
0.00653884
0.00793891
0.00943531
0.010492
0.0112603
0.0112892
0.0109589
0.0102565
0.00936428
0.00820468
0.00772005
0.00765398
0.00801319
0.00866954
0.00425733
0.00376697
0.00296257
0.00319085
0.0034248
0.00384313
0.00475178
0.00589712
0.00687268
0.00792637
0.00832148
0.00844337
0.00811965
0.00769367
0.0067178
0.00616036
0.00566792
0.00567958
0.00585535
0.00629155
0.00256647
0.00221884
0.00180413
0.00175137
0.00232227
0.00240729
0.00306902
0.00348759
0.00431261
0.00477442
0.00509109
0.00506612
0.00498997
0.00462434
0.00410744
0.00375855
0.00352628
0.00337782
0.00374356
0.00410434
0.00101995
0.000820613
0.000392663
0.000652566
0.00071091
0.000812036
0.0010739
0.00118812
0.001081
0.00185745
0.00187985
0.0019287
0.00174739
0.00179201
0.00147855
0.001263
0.00120992
0.00109079
0.0013377
0.00132376
0.00610759
0.0043144
0.0031542
0.00322134
0.00450132
0.00617698
0.00899343
0.011973
0.0145871
0.0170812
0.018518
0.0188505
0.0179666
0.0166092
0.0145688
0.0128528
0.0117663
0.01129
0.012074
0.0133027
0.00640533
0.00512787
0.00384248
0.00416355
0.00488246
0.00693268
0.00863708
0.0110538
0.013662
0.01583
0.0171861
0.0174895
0.0165293
0.0151916
0.0135945
0.0120401
0.0112222
0.0107928
0.0115791
0.0124577
0.00625265
0.00509539
0.00418921
0.00411123
0.00528611
0.00651731
0.00829867
0.0104221
0.0124231
0.014192
0.0150655
0.0154397
0.0147781
0.0136823
0.0122871
0.0110418
0.0101828
0.00979999
0.0104177
0.0113036
0.00578798
0.0046447
0.00420775
0.00411126
0.00466307
0.0058098
0.00746427
0.00890231
0.0107295
0.0122324
0.0129391
0.0131474
0.012664
0.0117462
0.010584
0.00951467
0.00879633
0.00871841
0.00915122
0.00992636
0.00504959
0.00394658
0.00365515
0.00378785
0.00399368
0.00495463
0.00608914
0.00750088
0.00878326
0.00997646
0.0104805
0.0107446
0.0103269
0.00942976
0.00879346
0.00781958
0.00708686
0.0070095
0.00739316
0.00787442
0.00385873
0.00337497
0.00277655
0.00297819
0.00302867
0.00393615
0.00480011
0.00533466
0.00647269
0.00727067
0.00804252
0.00790112
0.00766479
0.00714892
0.0063325
0.00563528
0.00561324
0.00527867
0.00531079
0.00600358
0.00247794
0.00214126
0.00212583
0.00177061
0.00210184
0.00252749
0.00293102
0.00350536
0.00398072
0.00443058
0.00495916
0.00510945
0.00452148
0.00441195
0.00409065
0.00363314
0.0033631
0.00321316
0.00367534
0.00396681
0.00105836
0.000721259
0.000515741
0.00054385
0.000741981
0.000985462
0.00113401
0.00136549
0.00163999
0.001672
0.00179419
0.00166788
0.00163394
0.00152953
0.00119485
0.00135832
0.0011158
0.00123358
0.00123308
0.00131934
0.00422229
0.00290431
0.0020015
0.00208193
0.00302056
0.00515297
0.00755204
0.0104564
0.0128922
0.0149668
0.0165578
0.0167957
0.0159877
0.0144431
0.0128904
0.0112842
0.0100758
0.00999183
0.0105651
0.0120701
0.0050179
0.00393307
0.00309657
0.00311612
0.00391015
0.00562589
0.00762638
0.010057
0.0124482
0.0140476
0.0150858
0.0153725
0.0148911
0.0134712
0.0121441
0.0109313
0.00982759
0.00959355
0.0100289
0.0115297
0.00515123
0.00421359
0.00350607
0.00352932
0.00420912
0.00567652
0.00743155
0.00932401
0.0112401
0.0125354
0.0136908
0.0139507
0.0134539
0.01238
0.010814
0.00970734
0.00885422
0.00887479
0.00930518
0.0104366
0.00525508
0.0039481
0.00331258
0.00342899
0.00394706
0.0050078
0.00650269
0.00821326
0.00978872
0.0111244
0.0115954
0.011768
0.0116351
0.0108147
0.00961242
0.00853762
0.00797638
0.00771748
0.0082264
0.00902718
0.00439309
0.00381675
0.00323062
0.00317453
0.00339168
0.00430952
0.005596
0.00661649
0.00792773
0.00894368
0.00953034
0.00968061
0.0092326
0.00867897
0.00772731
0.00716026
0.00655847
0.00629507
0.00688769
0.00732479
0.00327813
0.00264444
0.00261693
0.00218681
0.00274613
0.00335158
0.00420477
0.00507074
0.00611924
0.006492
0.00734934
0.0073311
0.00689889
0.00642327
0.00568149
0.00517371
0.00507835
0.0048888
0.00510147
0.00563181
0.0022072
0.00184447
0.00158938
0.00142073
0.0017627
0.00217436
0.00264582
0.00321292
0.00386032
0.0041413
0.004441
0.00443049
0.00429893
0.00398953
0.00393448
0.00320009
0.0031913
0.00301101
0.00310037
0.00340716
0.000710258
0.000751625
0.000461375
0.000618009
0.000668761
0.00074886
0.000918306
0.000962079
0.00133506
0.00157237
0.0015689
0.00163845
0.00181279
0.00151712
0.00134628
0.00123502
0.00116616
0.00121316
0.00116366
0.0011079
0.00290008
0.001129
0.000310507
0.000362864
0.0016214
0.00327751
0.00584598
0.00830081
0.0106619
0.0128424
0.0138103
0.0140022
0.0135391
0.0123239
0.0108466
0.00933211
0.00848749
0.00819175
0.00897998
0.0102832
0.00393894
0.00247845
0.00161348
0.0018647
0.00267656
0.00421865
0.00607902
0.00828042
0.0100485
0.0120598
0.0129959
0.0130056
0.0128772
0.0117743
0.0104881
0.00905931
0.00831757
0.00806376
0.00878916
0.0098951
0.0041831
0.00284054
0.00213075
0.00218784
0.00301461
0.00448923
0.00586182
0.00797423
0.00967732
0.0109667
0.0118074
0.0118618
0.0114439
0.0105113
0.00941114
0.00836457
0.00778535
0.00748526
0.00821972
0.00935375
0.00406622
0.00331496
0.00272932
0.00258081
0.00295007
0.00420432
0.00551129
0.00696206
0.008392
0.0094329
0.0100977
0.0105378
0.00976737
0.00920245
0.00838328
0.00745382
0.00690505
0.00674428
0.00721057
0.0079119
0.00348746
0.00304538
0.00227691
0.0023294
0.00281424
0.00378388
0.00479163
0.00585789
0.0070689
0.00778564
0.00828984
0.00838539
0.00816346
0.00752484
0.00701313
0.00620174
0.0056772
0.00552319
0.00610849
0.00667209
0.00286728
0.00231684
0.00189963
0.00197157
0.00218025
0.00284622
0.00389074
0.00427907
0.00515179
0.00589325
0.00646673
0.00640702
0.00613719
0.00567378
0.00519886
0.00469889
0.00431545
0.0041307
0.0047855
0.00518712
0.00184427
0.00132764
0.00123887
0.0013053
0.00144081
0.00199778
0.00224523
0.00300146
0.00329413
0.00374243
0.00396333
0.0039104
0.0037687
0.00347633
0.00347233
0.00278448
0.00269531
0.00264254
0.00273914
0.00339824
0.000578098
0.000692349
0.000419392
0.000386426
0.000449814
0.000473649
0.000815751
0.00107562
0.00110175
0.00115286
0.00142501
0.00137261
0.00125251
0.00117765
0.000976558
0.000944869
0.0010731
0.000763132
0.000941272
0.00100249
0.00104497
0.000496985
0.00136587
0.00139483
0.00012379
0.00134186
0.00364049
0.00597793
0.00819085
0.00979725
0.0109388
0.0112524
0.0108071
0.00962918
0.00829847
0.00704857
0.00609293
0.00596468
0.00706079
0.00824948
0.00226607
0.00106685
0.000143074
3.04943e-05
0.00103521
0.00226749
0.0041641
0.00625553
0.00809198
0.00953677
0.0106527
0.0109052
0.0104341
0.00950711
0.00821083
0.00722414
0.00664037
0.00611615
0.00710825
0.00830579
0.00274118
0.00170832
0.000696438
0.00121885
0.00181468
0.00293379
0.00439312
0.00606467
0.00732311
0.00896659
0.0096966
0.0100404
0.00947224
0.00876093
0.00774659
0.00694637
0.00635101
0.00611399
0.00667273
0.00780302
0.00283346
0.00211705
0.0016894
0.00130721
0.00200813
0.00282748
0.00416949
0.00567085
0.00688517
0.0079745
0.00862529
0.00853378
0.00833356
0.00782982
0.00690283
0.00597769
0.00592245
0.0054732
0.00609004
0.00674693
0.00269062
0.00215181
0.00144641
0.00162905
0.00208467
0.0026994
0.00359304
0.00476169
0.00597498
0.00633585
0.007186
0.00721773
0.00710064
0.00643789
0.00584216
0.00489
0.00470622
0.00464507
0.00519906
0.00548587
0.00232378
0.00175192
0.00165627
0.00135583
0.00154003
0.00209904
0.00310062
0.00372098
0.00428436
0.00491608
0.00533158
0.00532137
0.0050988
0.00485819
0.00448131
0.00398065
0.00354327
0.00353766
0.00387025
0.00425508
0.00164394
0.00116553
0.00108018