/*--------------------------------*- C++ -*----------------------------------*\
| =========                 |                                                 |
| \\      /  F ield         | OpenFOAM: The Open Source CFD Toolbox           |
|  \\    /   O peration     | Version:  2212                                  |
|   \\  /    A nd           | Website:  www.openfoam.com                      |
|    \\/     M anipulation  |                                                 |
\*---------------------------------------------------------------------------*/
FoamFile
{
    version     2.0;
    format      ascii;
    arch        "LSB;label=32;scalar=64";
    class       volScalarField;
    location    "0";
    object      stateMean;
}
// * * * * * * * * * * * * * * * * * * * * * * * * * * * * * * * * * * * * * //

dimensions      [0 0 0 1 0 0 0];

internalField   nonuniform List<scalar> 
3200
(
359.809
359.502
359.455
360.074
361.089
362.326
363.569
364.822
365.807
366.558
366.807
366.631
366.084
365.123
364.056
362.85
361.793
361.125
361.053
361.39
353.721
353.37
353.464
353.877
354.711
355.715
356.861
357.856
358.776
359.347
359.672
359.552
358.993
358.208
357.171
356.105
355.24
354.653
354.682
354.918
346.821
346.611
346.643
346.985
347.787
348.512
349.507
350.308
351.122
351.559
351.696
351.655
351.104
350.544
349.644
348.845
348.227
347.685
347.573
347.809
339.397
339.158
339.146
339.484
340.025
340.723
341.424
342.127
342.786
343.167
343.278
343.161
342.887
342.384
341.609
341.01
340.379
340.086
340.037
340.157
331.41
331.225
331.191
331.4
331.938
332.372
333.006
333.541
334
334.195
334.33
334.307
334.018
333.576
333.104
332.536
332.111
331.853
331.783
331.99
322.862
322.72
322.739
322.822
323.214
323.538
324
324.303
324.614
324.906
325.002
324.863
324.676
324.461
324.033
323.627
323.375
323.148
323.085
323.196
313.842
313.843
313.832
313.891
314.075
314.381
314.653
314.858
314.988
315.103
315.188
315.229
315.041
314.915
314.625
314.478
314.339
314.009
314.115
314.057
304.694
304.74
304.564
304.658
304.804
304.85
304.903
305.057
305.058
305.075
305.129
305.109
305.04
305.043
304.924
304.875
304.866
304.844
304.774
304.763
359.793
359.543
359.583
360.174
361.271
362.542
364.006
365.155
366.383
367.118
367.434
367.312
366.632
365.71
364.389
363.037
362.028
361.246
361.126
361.436
353.736
353.411
353.491
353.925
354.927
355.955
357.1
358.21
359.229
359.834
360.107
359.999
359.443
358.543
357.462
356.441
355.461
354.911
354.763
355.009
346.897
346.696
346.67
347.05
347.765
348.714
349.727
350.589
351.411
351.947
352.184
352.031
351.539
350.866
349.937
349.061
348.249
347.787
347.703
347.92
339.396
339.174
339.216
339.565
340.184
340.887
341.649
342.386
342.99
343.378
343.617
343.49
343.145
342.556
341.706
341.153
340.535
340.112
340.052
340.175
331.384
331.196
331.23
331.52
331.897
332.48
333.039
333.654
334.125
334.504
334.647
334.502
334.267
333.736
333.287
332.724
332.227
331.892
331.838
331.886
322.9
322.671
322.765
322.944
323.254
323.706
324.05
324.46
324.786
325.068
325.075
325.147
324.854
324.57
324.117
323.734
323.407
323.181
323.098
323.198
313.882
313.913
313.901
313.991
314.162
314.373
314.681
314.861
315.083
315.24
315.289
315.198
315.134
314.931
314.687
314.427
314.175
314.159
314.155
314.093
304.739
304.704
304.72
304.635
304.754
304.883
304.888
305.017
305.097
305.152
305.162
305.221
305.067
305.009
305.099
304.876
304.798
304.762
304.805
304.881
359.887
359.63
359.648
360.505
361.627
362.956
364.463
365.871
367.12
367.896
368.21
368.144
367.501
366.451
365.035
363.726
362.5
361.569
361.394
361.645
353.787
353.439
353.627
354.221
355.138
356.355
357.554
358.745
359.803
360.464
360.785
360.632
360.09
359.134
358.105
356.813
355.874
355.144
354.97
355.26
346.901
346.769
346.807
347.306
348.096
348.979
350.06
351.055
351.876
352.477
352.694
352.627
352.079
351.362
350.439
349.411
348.569
348.114
347.87
348.024
339.412
339.312
339.275
339.762
340.333
341.147
341.968
342.787
343.418
343.849
344.17
344.031
343.578
343.017
342.257
341.435
340.828
340.323
340.263
340.307
331.483
331.237
331.291
331.68
332.129
332.699
333.297
334.022
334.419
334.869
334.973
334.89
334.519
334.125
333.571
332.917
332.387
331.996
331.98
332.02
322.802
322.756
322.878
322.989
323.339
323.757
324.222
324.63
325.029
325.239
325.392
325.305
325.147
324.75
324.335
323.973
323.512
323.342
323.177
323.288
313.952
313.906
313.879
313.927
314.207
314.469
314.69
314.957
315.175
315.277
315.482
315.41
315.243
315.001
314.776
314.567
314.273
314.243
314.138
314.162
304.681
304.695
304.715
304.749
304.764
304.851
304.945
305.104
305.106
305.214
305.102
305.165
305.192
305.1
305.007
304.942
304.809
304.843
304.749
304.818
360.16
359.925
360.101
360.838
362.109
363.629
365.105
366.634
367.936
368.875
369.317
369.188
368.512
367.207
365.771
364.333
363.05
362.227
361.862
362.161
353.984
353.823
353.893
354.549
355.487
356.818
358.105
359.411
360.482
361.304
361.668
361.549
360.864
359.869
358.69
357.366
356.332
355.621
355.367
355.496
347.132
346.905
347.11
347.584
348.439
349.31
350.509
351.581
352.474
353.193
353.437
353.322
352.789
351.95
350.942
349.908
349.023
348.409
348.194
348.319
339.605
339.447
339.615
339.938
340.665
341.516
342.298
343.204
343.879
344.435
344.673
344.515
344.127
343.426
342.675
341.828
341.096
340.554
340.35
340.51
331.536
331.314
331.431
331.854
332.245
332.901
333.546
334.345
334.805
335.199
335.307
335.345
334.96
334.393
333.908
333.186
332.712
332.302
332.12
332.22
322.966
322.903
322.959
323.144
323.475
323.926
324.365
324.91
325.244
325.595
325.772
325.606
325.378
324.97
324.523
324.153
323.716
323.455
323.356
323.376
313.985
313.921
313.908
314.065
314.326
314.539
314.98
315.184
315.314
315.553
315.581
315.545
315.397
315.229
314.891
314.689
314.472
314.3
314.295
314.235
304.71
304.661
304.688
304.803
304.818
304.934
304.977
305.081
305.235
305.252
305.323
305.253
305.218
305.075
305.051
304.929
304.967
304.725
304.772
304.888
360.558
360.383
360.519
361.371
362.666
364.16
365.812
367.449
368.904
369.951
370.396
370.291
369.522
368.151
366.675
365.174
363.796
362.893
362.508
362.681
354.357
354.052
354.32
354.975
356.011
357.34
358.774
360.055
361.334
362.115
362.48
362.457
361.771
360.799
359.37
358.109
356.977
356.169
355.792
355.964
347.299
347.214
347.487
347.957
348.793
349.853
351.048
352.174
353.216
353.903
354.189
354.103
353.532
352.647
351.549
350.449
349.524
348.868
348.712
348.721
339.809
339.807
339.827
340.247
340.907
341.757
342.78
343.662
344.386
344.914
345.24
345.144
344.766
343.997
343.154
342.245
341.533
340.988
340.731
340.824
331.677
331.616
331.706
332.047
332.577
333.206
333.932
334.625
335.174
335.681
335.854
335.807
335.464
334.916
334.238
333.49
332.975
332.509
332.441
332.386
323.183
323.11
323.136
323.31
323.681
324.144
324.62
325.08
325.489
325.868
326.031
325.949
325.651
325.333
324.873
324.294
323.977
323.754
323.57
323.687
314.032
313.957
314.008
314.191
314.413
314.665
314.935
315.311
315.566
315.733
315.793
315.767
315.591
315.373
315.226
314.798
314.556
314.423
314.326
314.321
304.772
304.757
304.752
304.749
304.907
304.96
305.034
305.206
305.184
305.339
305.317
305.364
305.315
305.189
305.013
304.995
304.86
304.897
304.823
304.82
361.073
360.946
361.235
362.051
363.387
364.925
366.627
368.335
369.841
371.01
371.516
371.356
370.592
369.278
367.712
366.073
364.653
363.749
363.208
363.276
354.771
354.59
354.894
355.511
356.654
357.957
359.406
360.898
362.13
363.057
363.545
363.479
362.647
361.572
360.257
358.848
357.747
356.875
356.521
356.594
347.756
347.669
347.824
348.414
349.285
350.331
351.552
352.787
353.822
354.554
354.957
354.912
354.275
353.37
352.296
351.108
350.107
349.399
349.093
349.221
340.183
340.043
340.146
340.596
341.321
342.239
343.15
344.036
344.991
345.583
345.935
345.764
345.331
344.541
343.713
342.731
341.968
341.535
341.26
341.215
331.892
331.844
331.949
332.214
332.818
333.553
334.284
334.959
335.598
336.176
336.338
336.209
335.855
335.317
334.657
333.979
333.359
332.93
332.727
332.748
323.219
323.16
323.27
323.501
323.82
324.291
324.805
325.404
325.841
326.209
326.372
326.376
326.027
325.578
325.218
324.59
324.184
323.966
323.707
323.74
314.115
314.085
314.187
314.309
314.494
314.803
315.116
315.415
315.696
315.907
315.98
316.015
315.874
315.456
315.284
314.945
314.737
314.558
314.428
314.555
304.769
304.742
304.784
304.85
304.905
304.937
305.111
305.169
305.331
305.396
305.378
305.409
305.34
305.211
305.14
305.061
304.939
304.875
304.926
304.893
361.711
361.573
361.917
362.745
363.95
365.672
367.457
369.206
370.884
372.027
372.649
372.397
371.749
370.199
368.597
366.93
365.589
364.48
364.012
364.048
355.325
355.143
355.422
356.218
357.158
358.547
360.122
361.621
362.944
363.933
364.384
364.342
363.578
362.49
361.075
359.694
358.459
357.566
357.086
357.208
348.226
348.129
348.346
348.894
349.841
350.87
352.103
353.415
354.552
355.277
355.762
355.616
355.073
354.085
352.838
351.756
350.788
349.968
349.733
349.715
340.411
340.41
340.576
341.092
341.726
342.656
343.669
344.598
345.58
346.131
346.569
346.508
345.925
345.211
344.208
343.289
342.472
341.89
341.677
341.625
332.179
332.204
332.3
332.617
333.147
333.872
334.53
335.405
335.993
336.497
336.79
336.766
336.406
335.828
335.048
334.31
333.693
333.386
333.066
333.095
323.496
323.387
323.506
323.73
324.143
324.608
325.16
325.664
326.128
326.406
326.722
326.627
326.352
325.945
325.5
324.884
324.487
324.177
324.021
324.016
314.319
314.223
314.297
314.461
314.645
314.986
315.297
315.565
315.862
316.07
316.204
316.209
316.075
315.704
315.481
315.181
314.909
314.663
314.695
314.648
304.866
304.748
304.849
304.833
305.014
304.973
305.077
305.261
305.416
305.444
305.476
305.456
305.39
305.255
305.206
305.118
305.036
304.945
305.011
304.861
362.502
362.347
362.657
363.534
364.822
366.353
368.237
370.139
371.68
372.966
373.733
373.49
372.727
371.192
369.551
367.902
366.367
365.422
364.838
364.759
355.919
355.824
356.098
356.741
357.83
359.193
360.783
362.298
363.683
364.826
365.35
365.262
364.525
363.216
361.912
360.412
359.237
358.278
357.824
357.84
348.634
348.606
348.77
349.438
350.296
351.489
352.697
354.023
355.178
355.971
356.45
356.415
355.748
354.745
353.565
352.452
351.425
350.588
350.338
350.281
340.893
340.925
340.932
341.427
342.14
343.173
344.132
345.087
346.063
346.708
347.09
347.043
346.575
345.789
344.807
343.823
343.027
342.431
342.124
342.112
332.474
332.485
332.532
332.955
333.556
334.311
334.987
335.781
336.377
337.072
337.279
337.212
336.782
336.247
335.474
334.729
334.131
333.709
333.514
333.404
323.731
323.643
323.673
323.895
324.322
324.935
325.458
325.941
326.434
326.721
326.957
327
326.679
326.283
325.751
325.205
324.833
324.477
324.259
324.359
314.414
314.432
314.399
314.611
314.871
315.095
315.393
315.806
316.061
316.272
316.408
316.358
316.141
315.933
315.603
315.281
315.085
314.939
314.784
314.773
304.855
304.865
304.898
304.949
305.012
305.069
305.12
305.281
305.456
305.438
305.493
305.532
305.458
305.386
305.263
305.121
305.005
304.992
304.988
304.977
363.095
363.094
363.441
364.216
365.523
367.185
368.97
370.796
372.487
373.93
374.507
374.405
373.447
372.068
370.403
368.78
367.321
366.238
365.714
365.642
356.492
356.416
356.742
357.465
358.585
359.847
361.412
362.884
364.399
365.485
366.089
365.93
365.252
364.002
362.563
361.296
360.009
359.103
358.654
358.517
349.223
349.116
349.416
349.96
350.885
351.958
353.209
354.523
355.665
356.643
357.088
357.005
356.476
355.406
354.178
353.026
351.983
351.261
350.901
350.871
341.255
341.222
341.428
341.839
342.661
343.484
344.571
345.507
346.497
347.213
347.615
347.515
347.018
346.198
345.316
344.292
343.588
342.913
342.652
342.644
332.812
332.852
333.012
333.318
333.871
334.534
335.351
336.052
336.799
337.367
337.646
337.587
337.144
336.599
335.874
335.086
334.528
333.998
333.901
333.82
323.873
323.886
323.907
324.195
324.71
325.086
325.582
326.229
326.689
327.058
327.306
327.248
326.976
326.558
325.951
325.543
325.06
324.777
324.647
324.569
314.522
314.451
314.515
314.694
315.044
315.255
315.59
315.899
316.193
316.458
316.627
316.537
316.334
316.083
315.799
315.5
315.223
314.959
315.021
314.966
304.946
304.941
305.017
305.033
305.052
305.212
305.313
305.372
305.507
305.551
305.571
305.6
305.517
305.44
305.346
305.203
305.114
305.068
304.976
304.945
363.905
363.822
364.239
365.065
366.366
367.91
369.632
371.472
373.172
374.528
375.201
375.152
374.217
372.822
371.244
369.584
368.189
367.159
366.581
366.539
357.06
357.102
357.443
358.113
359.148
360.557
361.988
363.54
365.014
366.107
366.69
366.603
365.879
364.593
363.332
361.95
360.675
359.798
359.276
359.19
349.74
349.74
349.979
350.542
351.372
352.514
353.721
355.036
356.21
357.148
357.588
357.516
356.913
355.882
354.827
353.553
352.629
351.803
351.527
351.422
341.669
341.715
341.821
342.399
343.094
343.858
344.946
345.922
346.848
347.591
348.051
347.837
347.48
346.647
345.729
344.813
343.936
343.352
343.2
343.069
333.127
333.188
333.292
333.696
334.115
334.835
335.625
336.409
337.149
337.742
337.995
337.973
337.498
336.922
336.179
335.541
334.905
334.474
334.247
334.173
324.155
324.105
324.176
324.399
324.833
325.392
325.892
326.431
326.863
327.308
327.449
327.405
327.126
326.715
326.214
325.709
325.274
324.879
324.841
324.82
314.701
314.618
314.696
314.843
315.106
315.42
315.733
315.999
316.384
316.614
316.732
316.646
316.543
316.26
315.85
315.641
315.378
315.183
315.13
315.092
304.938
304.983
304.957
304.975
305.115
305.28
305.352
305.45
305.555
305.556
305.577
305.658
305.573
305.484
305.438
305.251
305.207
305.166
305.166
305.128
364.594
364.521
364.959
365.884
367.053
368.586
370.277
372.187
373.742
374.985
375.668
375.597
374.813
373.424
371.864
370.333
368.953
367.982
367.485
367.347
357.728
357.757
358.081
358.768
359.714
361.082
362.532
364.066
365.436
366.556
367.104
367.063
366.397
365.259
363.823
362.553
361.307
360.504
360.07
360.034
350.299
350.166
350.438
351.038
351.944
353.079
354.197
355.46
356.586
357.487
357.948
357.865
357.251
356.387
355.267
354.161
353.175
352.461
352.12
352.026
342.157
342.166
342.355
342.84
343.566
344.311
345.308
346.293
347.175
347.886
348.327
348.294
347.76
346.999
346.061
345.341
344.494
343.862
343.616
343.621
333.498
333.49
333.602
333.97
334.421
335.176
335.877
336.75
337.406
337.933
338.114
338.097
337.804
337.231
336.566
335.787
335.213
334.806
334.583
334.594
324.322
324.345
324.434
324.757
325.073
325.479
326.073
326.573
327.176
327.479
327.643
327.543
327.437
326.941
326.422
325.987
325.574
325.201
325.053
325.033
314.823
314.877
314.904
315.027
315.244
315.531
315.768
316.08
316.435
316.631
316.796
316.807
316.655
316.341
316.083
315.725
315.52
315.38
315.22
315.307
304.965
304.952
305.039
305.054
305.141
305.229
305.285
305.4
305.534
305.571
305.703
305.624
305.598
305.483
305.388
305.326
305.228
305.112
305.157
305.13
365.424
365.362
365.682
366.5
367.707
369.228
370.851
372.576
374.167
375.436
376.089
375.996
375.174
373.989
372.457
370.928
369.7
368.79
368.155
368.088
358.412
358.377
358.749
359.444
360.385
361.65
362.954
364.467
365.825
366.841
367.464
367.39
366.737
365.589
364.319
363.001
361.973
361.147
360.684
360.606
350.838
350.774
351.044
351.605
352.339
353.415
354.652
355.773
356.953
357.689
358.232
358.125
357.654
356.667
355.62
354.617
353.633
352.991
352.654
352.574
342.616
342.589
342.806
343.174
343.926
344.74
345.693
346.604
347.385
348.094
348.558
348.387
348.03
347.298
346.494
345.663
344.862
344.324
344.035
343.989
333.872
333.854
334.001
334.31
334.868
335.384
336.161
336.954
337.601
338.021
338.344
338.273
337.985
337.348
336.675
336.16
335.559
335.117
334.991
334.918
324.558
324.597
324.672
324.96
325.251
325.657
326.279
326.724
327.185
327.576
327.829
327.72
327.488
327.065
326.615
326.213
325.813
325.51
325.355
325.331
315.032
314.962
315.026
315.166
315.457
315.645
315.88
316.315
316.512
316.755
316.828
316.83
316.725
316.477
316.183
315.957
315.718
315.41
315.402
315.372
305.055
305.054
305.098
305.138
305.217
305.254
305.401
305.483
305.612
305.66
305.686
305.689
305.562
305.599
305.479
305.336
305.296
305.306
305.18
305.183
366.143
366.105
366.47
367.155
368.329
369.783
371.329
372.998
374.539
375.638
376.273
376.167
375.502
374.386
372.922
371.479
370.353
369.428
368.936
368.913
359.091
359.007
359.322
359.935
360.916
362.16
363.479
364.906
366.135
367.103
367.564
367.534
366.861
365.983
364.797
363.593
362.52
361.82
361.325
361.37
351.359
351.317
351.543
352.036
352.878
353.917
354.991
356.117
357.134
358.01
358.399
358.307
357.788
356.942
355.982
354.968
354.098
353.5
353.192
353.214
343.08
342.987
343.214
343.612
344.245
344.967
345.891
346.812
347.714
348.313
348.611
348.625
348.153
347.4
346.762
345.93
345.26
344.727
344.519
344.477
334.148
334.094
334.314
334.626
335.078
335.689
336.39
337.082
337.741
338.177
338.434
338.361
338.092
337.633
337.059
336.36
335.866
335.504
335.299
335.263
324.88
324.9
324.868
325.18
325.491
325.846
326.335
326.866
327.295
327.696
327.824
327.806
327.588
327.291
326.78
326.378
325.983
325.748
325.576
325.538
315.092
315.088
315.093
315.219
315.538
315.696
316.02
316.246
316.573
316.753
316.853
316.811
316.72
316.51
316.232
315.99
315.778
315.588
315.567
315.575
305.133
305.108
305.023
305.149
305.214
305.289
305.407
305.474
305.463
305.711
305.718
305.722
305.644
305.626
305.492
305.382
305.319
305.236
305.266
305.226
366.95
366.871
367.132
367.861
369.018
370.274
371.876
373.434
374.724
375.814
376.344
376.298
375.646
374.682
373.362
372.086
370.994
370.11
369.706
369.574
359.735
359.757
359.879
360.593
361.436
362.719
363.815
365.077
366.296
367.223
367.713
367.679
367.055
366.18
365.119
364.011
363.128
362.37
362.066
361.898
351.893
351.879
352.045
352.516
353.415
354.303
355.331
356.404
357.34
358.083
358.391
358.405
357.941
357.228
356.334
355.439
354.648
354.012
353.742
353.659
343.49
343.41
343.649
344.019
344.599
345.36
346.25
347.006
347.82
348.433
348.676
348.652
348.3
347.722
346.999
346.264
345.624
345.193
344.95
344.903
334.567
334.436
334.636
334.989
335.36
335.961
336.589
337.262
337.833
338.307
338.476
338.49
338.208
337.707
337.245
336.638
336.09
335.754
335.584
335.507
325.111
325.119
325.135
325.419
325.648
326.143
326.598
326.914
327.384
327.696
327.947
327.849
327.671
327.362
326.921
326.495
326.274
325.947
325.746
325.805
315.277
315.27
315.39
315.408
315.64
315.892
316.124
316.389
316.599
316.772
316.939
316.955
316.71
316.591
316.385
316.122
315.91
315.732
315.752
315.746
305.217
305.146
305.125
305.177
305.28
305.394
305.474
305.573
305.676
305.697
305.735
305.685
305.655
305.595
305.458
305.468
305.351
305.344
305.302
305.296
367.536
367.584
367.882
368.554
369.522
370.885
372.278
373.763
374.953
375.872
376.461
376.398
375.809
374.825
373.74
372.566
371.494
370.815
370.392
370.409
360.323
360.376
360.609
361.163
361.979
363.09
364.245
365.474
366.585
367.292
367.668
367.644
367.223
366.358
365.444
364.51
363.579
362.945
362.564
362.658
352.409
352.441
352.636
353.099
353.78
354.707
355.686
356.646
357.527
358.091
358.5
358.485
358.105
357.433
356.519
355.717
354.972
354.523
354.228
354.262
344.035
343.874
344.013
344.419
344.953
345.648
346.453
347.276
347.984
348.53
348.692
348.666
348.455
347.938
347.232
346.531
345.98
345.523
345.34
345.326
334.907
334.931
335.009
335.273
335.619
336.18
336.833
337.355
337.921
338.327
338.524
338.509
338.232
337.866
337.324
336.88
336.404
336.032
335.956
335.884
325.317
325.264
325.447
325.507
325.882
326.26
326.694
327.103
327.534
327.702
327.981
327.929
327.698
327.416
327.017
326.671
326.446
326.185
326.061
326.08
315.428
315.404
315.439
315.504
315.728
315.965
316.206
316.462
316.719
316.835
316.929
316.899
316.804
316.63
316.519
316.181
316.061
315.886
315.799
315.805
305.189
305.231
305.181
305.269
305.323
305.383
305.466
305.505
305.636
305.718
305.717
305.729
305.764
305.649
305.565
305.496
305.436
305.41
305.357
305.31
368.439
368.276
368.55
369.153
370.181
371.314
372.719
373.996
375.129
376.072
376.432
376.369
375.939
375.12
374.115
373.031
372.151
371.454
371.164
371.152
361.116
360.996
361.174
361.761
362.535
363.536
364.597
365.707
366.568
367.411
367.751
367.641
367.375
366.661
365.806
364.843
364.091
363.5
363.269
363.258
353.052
352.911
353.066
353.501
354.193
355.082
355.89
356.897
357.683
358.234
358.532
358.457
358.126
357.535
356.822
356.082
355.475
354.952
354.804
354.87
344.419
344.424
344.55
344.833
345.283
346.013
346.722
347.432
348.073
348.508
348.737
348.813
348.4
347.995
347.453
346.833
346.32
345.929
345.761
345.738
335.212
335.264
335.257
335.531
335.942
336.495
337.033
337.552
338.071
338.37
338.539
338.513
338.326
337.95
337.578
337.077
336.651
336.342
336.288
336.276
325.613
325.574
325.615
325.82
326.063
326.442
326.924
327.164
327.529
327.812
327.998
327.938
327.769
327.505
327.208
326.883
326.582
326.34
326.375
326.366
315.569
315.489
315.566
315.696
315.843
316.115
316.279
316.584
316.725
316.891
316.96
316.919
316.827
316.667
316.58
316.267
316.134
316.009
315.934
316.058
305.234
305.296
305.248
305.274
305.328
305.369
305.501
305.602
305.626
305.65
305.733
305.709
305.656
305.611
305.522
305.479
305.483
305.353
305.372
305.364
369.247
369.125
369.33
369.85
370.83
371.842
373.103
374.299
375.351
376.068
376.493
376.491
376.096
375.33
374.426
373.49
372.624
372.041
371.917
371.905
361.78
361.719
361.832
362.221
363.041
363.887
364.923
365.962
366.826
367.451
367.857
367.849
367.482
366.865
366.045
365.286
364.637
363.993
363.902
363.96
353.596
353.536
353.549
354.11
354.682
355.412
356.218
357.042
357.652
358.319
358.579
358.617
358.252
357.767
357.117
356.499
355.925
355.463
355.288
355.381
344.842
344.837
344.988
345.161
345.695
346.245
346.943
347.648
348.199
348.643
348.868
348.769
348.569
348.207
347.652
347.064
346.752
346.291
346.205
346.188
335.595
335.598
335.59
335.885
336.263
336.675
337.154
337.69
338.2
338.372
338.658
338.618
338.476
338.11
337.731
337.204
336.917
336.662
336.618
336.53
325.896
325.838
325.968
326.035
326.255
326.583
327.037
327.341
327.596
327.838
327.973
327.934
327.79
327.61
327.359
327.05
326.748
326.58
326.527
326.523
315.779
315.705
315.774
315.83
315.956
316.073
316.372
316.6
316.716
316.88
316.975
316.985
316.926
316.658
316.578
316.481
316.209
316.184
316.079
316.084
305.34
305.316
305.377
305.347
305.381
305.542
305.598
305.606
305.637
305.673
305.692
305.691
305.761
305.675
305.581
305.489
305.456
305.436
305.436
305.44
370.041
369.899
370.004
370.599
371.481
372.398
373.48
374.576
375.536
376.199
376.506
376.607
376.182
375.569
374.838
374.033
373.232
372.799
372.555
372.698
362.438
362.416
362.463
362.898
363.594
364.409
365.388
366.287
366.865
367.627
367.944
367.92
367.649
367.13
366.413
365.671
365.024
364.671
364.545
364.605
354.219
354.013
354.176
354.52
355.022
355.811
356.525
357.37
357.99
358.526
358.624
358.651
358.419
357.934
357.364
356.802
356.276
356.021
355.84
355.923
345.36
345.307
345.284
345.584
346.015
346.635
347.209
347.819
348.327
348.695
348.882
348.957
348.694
348.343
347.907
347.388
347.013
346.681
346.598
346.651
335.979
335.934
335.933
336.182
336.435
336.917
337.373
337.794
338.178
338.525
338.719
338.645
338.461
338.168
337.919
337.534
337.192
336.98
336.851
337.009
326.088
326.019
326.112
326.218
326.462
326.771
327.127
327.364
327.713
327.927
327.947
328.076
327.939
327.627
327.472
327.223
326.991
326.896
326.758
326.78
315.9
315.876
315.879
315.981
316.053
316.27
316.369
316.678
316.856
316.958
316.995
316.971
316.9
316.88
316.655
316.492
316.394
316.396
316.195
316.235
305.296
305.348
305.34
305.468
305.44
305.562
305.63
305.618
305.611
305.78
305.741
305.729
305.725
305.659
305.577
305.556
305.55
305.482
305.479
305.525
370.835
370.779
370.838
371.317
372.004
372.908
373.997
374.878
375.725
376.36
376.664
376.805
376.459
375.862
375.209
374.46
373.837
373.402
373.296
373.405
363.153
363.009
363.126
363.463
364.061
364.816
365.669
366.503
367.257
367.793
367.986
368.018
367.777
367.32
366.68
366.166
365.618
365.192
365.134
365.268
354.774
354.672
354.695
354.996
355.627
356.163
356.923
357.501
358.171
358.505
358.705
358.8
358.503
358.176
357.655
357.143
356.755
356.431
356.31
356.451
345.871
345.624
345.804
346.043
346.4
346.93
347.553
348.024
348.459
348.796
349.045
349.011
348.794
348.553
348.112
347.631
347.312
347.155
347.039
347.136
336.274
336.231
336.21
336.453
336.772
337.167
337.559
338.057
338.401
338.574
338.758
338.738
338.605
338.295
338.07
337.723
337.412
337.255
337.152
337.321
326.376
326.309
326.367
326.438
326.749
326.985
327.291
327.466
327.726
327.937
328.002
328.039
327.994
327.723
327.608
327.445
327.147
327.056
327
327.044
315.934
316.013
316.006
316.09
316.236
316.314
316.505
316.724
316.907
317.026
316.964
317.059
316.901
316.824
316.651
316.642
316.506
316.353
316.422
316.357
305.363
305.45
305.365
305.418
305.434
305.573
305.596
305.661
305.717
305.732
305.749
305.715
305.738
305.717
305.656
305.597
305.553
305.563
305.553
305.535
371.592
371.378
371.408
371.844
372.542
373.321
374.361
375.256
375.931
376.519
376.895
376.89
376.613
376.129
375.518
374.855
374.227
373.911
373.844
374.089
363.703
363.576
363.635
363.962
364.486
365.236
366.031
366.78
367.426
367.959
368.154
368.051
367.908
367.473
367.024
366.42
365.865
365.702
365.605
365.763
355.178
355.107
355.188
355.38
355.924
356.431
357.153
357.698
358.274
358.672
358.893
358.824
358.723
358.308
357.863
357.413
356.996
356.746
356.712
356.856
346.14
346.104
346.127
346.24
346.659
347.157
347.631
348.174
348.587
348.89
349.139
349.038
348.905
348.627
348.216
347.87
347.59
347.302
347.289
347.467
336.56
336.513
336.484
336.662
336.978
337.319
337.693
338.051
338.441
338.714
338.834
338.872
338.681
338.444
338.185
337.917
337.639
337.504
337.418
337.534
326.545
326.447
326.477
326.624
326.728
327.028
327.39
327.609
327.877
328.125
328.122
328.118
328.018
327.944
327.597
327.448
327.291
327.199
326.985
327.167
316.199
316.04
316.091
316.23
316.32
316.429
316.541
316.705
316.932
317.075
317.06
317.051
316.959
316.913
316.8
316.674
316.564
316.474
316.468
316.497
305.44
305.41
305.458
305.539
305.439
305.502
305.56
305.696
305.657
305.776
305.701
305.761
305.732
305.62
305.716
305.68
305.634
305.583
305.528
305.551
)
;

boundaryField
{
    hotSide
    {
        type            fixedGradient;
        gradient        nonuniform List<scalar> 
400
(
321.511
322.87
325.591
329.677
335.133
341.965
350.181
359.788
370.794
383.208
397.037
412.289
428.971
447.088
466.647
487.651
510.105
534.011
559.372
586.191
323.738
325.08
327.767
331.802
337.194
343.949
352.078
361.591
372.498
384.81
398.537
413.687
430.268
448.289
467.755
488.672
511.043
534.872
560.161
586.913
326.149
327.47
330.116
334.091
339.406
346.071
354.099
363.503
374.296
386.491
400.101
415.136
431.606
449.52
468.885
489.706
511.988
535.735
560.948
587.63
328.704
330
332.597
336.503
341.73
348.292
356.205
365.485
376.15
388.215
401.695
416.604
432.954
450.753
470.009
490.73
512.919
536.579
561.714
588.325
331.33
332.599
335.142
338.97
344.099
350.546
358.332
367.477
378.003
389.928
403.271
418.047
434.27
451.949
471.095
491.712
513.807
537.382
562.439
588.978
333.918
335.158
337.643
341.389
346.414
352.74
360.392
369.397
379.779
391.562
404.765
419.407
435.503
453.065
472.101
492.618
514.622
538.114
563.096
589.569
336.321
337.531
339.959
343.622
348.544
354.751
362.274
371.142
381.385
393.031
406.101
420.618
436.595
454.047
472.983
493.409
515.33
538.747
563.663
590.076
338.36
339.543
341.92
345.509
350.339
356.44
363.847
372.595
382.718
394.244
407.2
421.608
437.485
454.844
473.695
494.045
515.897
539.253
564.114
590.478
339.852
341.015
343.352
346.885
351.645
357.665
364.985
373.643
383.675
395.113
407.984
422.312
438.116
455.407
474.197
494.491
516.294
539.606
564.428
590.758
340.643
341.795
344.11
347.613
352.334
358.311
365.584
374.193
384.176
395.567
408.393
422.679
438.443
455.699
474.456
494.722
516.498
539.788
564.589
590.901
340.643
341.795
344.11
347.613
352.334
358.311
365.584
374.193
384.176
395.567
408.393
422.679
438.443
455.699
474.456
494.722
516.498
539.788
564.589
590.901
339.852
341.015
343.352
346.885
351.645
357.665
364.985
373.643
383.675
395.113
407.984
422.312
438.116
455.407
474.197
494.491
516.294
539.606
564.428
590.758
338.36
339.543
341.92
345.509
350.339
356.44
363.847
372.595
382.718
394.244
407.2
421.608
437.485
454.844
473.695
494.045
515.897
539.253
564.114
590.478
336.321
337.531
339.959
343.622
348.544
354.751
362.274
371.142
381.385
393.031
406.101
420.618
436.595
454.047
472.983
493.409
515.33
538.747
563.663
590.076
333.918
335.158
337.643
341.389
346.414
352.74
360.392
369.397
379.779
391.562
404.765
419.407
435.503
453.065
472.101
492.618
514.622
538.114
563.096
589.569
331.33
332.599
335.142
338.97
344.099
350.546
358.332
367.477
378.003
389.928
403.271
418.047
434.27
451.949
471.095
491.712
513.807
537.382
562.439
588.978
328.704
330
332.597
336.503
341.73
348.292
356.205
365.485
376.15
388.215
401.695
416.604
432.954
450.753
470.009
490.73
512.919
536.579
561.714
588.325
326.149
327.47
330.116
334.091
339.406
346.071
354.099
363.503
374.296
386.491
400.101
415.136
431.606
449.52
468.885
489.706
511.988
535.735
560.948
587.63
323.738
325.08
327.767
331.802
337.194
343.949
352.078
361.591
372.498
384.81
398.537
413.687
430.268
448.289
467.755
488.672
511.043
534.872
560.161
586.913
321.511
322.87
325.591
329.677
335.133
341.965
350.181
359.788
370.794
383.208
397.037
412.289
428.971
447.088
466.647
487.651
510.105
534.011
559.372
586.191
)
;
    }
    coldSide
    {
        type            mixed;
        refValue        uniform 300;
        refGradient     uniform 0;
        valueFraction   uniform 0.991591;
        source          uniform 0;
        value           nonuniform List<scalar> 
400
(
300.039
300.04
300.039
300.04
300.04
300.04
300.041
300.041
300.042
300.042
300.042
300.043
300.043
300.044
300.044
300.044
300.045
300.045
300.045
300.046
300.04
300.04
300.039
300.039
300.04
300.04
300.04
300.041
300.042
300.042
300.042
300.042
300.043
300.043
300.044
300.045
300.045
300.045
300.046
300.045
300.038