/*--------------------------------*- C++ -*----------------------------------*\
| =========                 |                                                 |
| \\      /  F ield         | OpenFOAM: The Open Source CFD Toolbox           |
|  \\    /   O peration     | Version:  2212                                  |
|   \\  /    A nd           | Website:  www.openfoam.com                      |
|    \\/     M anipulation  |                                                 |
\*---------------------------------------------------------------------------*/
FoamFile
{
    version     2.0;
    format      ascii;
    arch        "LSB;label=32;scalar=64";
    class       volScalarField;
    location    "./ITHACAoutput/true/14.2";
    object      error;
}
// * * * * * * * * * * * * * * * * * * * * * * * * * * * * * * * * * * * * * //

dimensions      [0 0 0 1 0 0 0];

internalField   nonuniform List<scalar> 
3200
(
5.15471
4.88661
4.76674
4.68744
4.58731
4.62364
4.67693
4.78875
4.87762
4.95076
4.88815
4.82949
4.65036
4.5671
4.46987
4.41681
4.37052
4.43644
4.66505
4.93905
4.58889
4.36872
4.23532
4.10898
4.11634
4.26004
4.23658
4.32943
4.34306
4.40457
4.44284
4.39747
4.31643
4.24846
4.06186
4.02958
4.04208
4.0226
4.23402
4.39796
3.90936
3.79286
3.68838
3.59199
3.55681
3.5511
3.77141
3.82862
3.85341
3.85687
3.8703
3.82527
3.73814
3.71266
3.57334
3.50322
3.64732
3.61713
3.72515
3.84654
3.29983
3.14118
3.05469
3.06827
3.01933
3.09228
3.12591
3.21576
3.19957
3.21907
3.25053
3.1572
3.12367
3.10046
3.06188
2.99746
3.01365
3.03359
3.1345
3.22132
2.54363
2.56563
2.47302
2.35977
2.36201
2.39422
2.43904
2.50448
2.516
2.57968
2.56364
2.6233
2.51643
2.46108
2.34898
2.40251
2.36383
2.38939
2.48562
2.57306
1.90777
1.79682
1.71579
1.77425
1.69311
1.75261
1.7371
1.78636
1.87795
1.83297
1.9029
1.8151
1.86585
1.87321
1.71806
1.77837
1.70878
1.74
1.78308
1.85289
1.07633
1.13075
1.03671
1.05896
1.00255
1.13344
1.11704
1.08024
1.11363
1.17408
1.14204
1.12595
1.12032
1.1057
1.073
1.08225
1.07787
1.12978
1.11652
1.06348
0.417525
0.429563
0.3162
0.328328
0.33023
0.306596
0.362111
0.35108
0.368571
0.389574
0.371508
0.368739
0.366346
0.359201
0.449377
0.360836
0.382762
0.353417
0.389062
0.442777
4.45114
4.30174
4.05572
3.90274
3.82682
3.87749
3.97507
3.9809
4.01442
4.0823
4.10182
3.94392
3.90458
3.74071
3.64675
3.64818
3.64499
3.81557
3.99662
4.15144
4.04988
3.86804
3.69607
3.53405
3.5382
3.56768
3.63369
3.71424
3.73612
3.84441
3.78051
3.75444
3.66997
3.52659
3.48055
3.45075
3.46735
3.52783
3.68107
3.87714
3.53674
3.37429
3.24968
3.10191
3.1508
3.1793
3.22836
3.27772
3.31279
3.36763
3.39453
3.27675
3.27775
3.17822
3.08925
3.03837
3.06077
3.09647
3.33723
3.43674
2.97777
2.82122
2.74367
2.74793
2.66846
2.64735
2.77322
2.79234
2.84835
2.86563
2.80467
2.81671
2.76791
2.71025
2.68618
2.6727
2.62338
2.58937
2.83448
2.87317
2.30366
2.28383
2.15783
2.08553
2.13402
2.18853
2.21705
2.23718
2.2746
2.30957
2.26343
2.34677
2.24361
2.1706
2.07158
2.08767
2.06229
2.18284
2.22896
2.29222
1.64971
1.63904
1.57485
1.48841
1.54854
1.56593
1.58335
1.63401
1.63641
1.65443
1.63423
1.61327
1.59577
1.6126
1.56211
1.57244
1.60384
1.58791
1.62304
1.64472
0.961916
0.965286
0.944742
0.848817
0.959729
0.914857
1.00579
0.984991
1.04291
0.994656
1.01839
1.01761
0.97895
0.957432
1.0115
0.956747
0.980061
0.962922
0.985761
1.01357
0.383035
0.278462
0.315731
0.356735
0.267726
0.363371
0.347829
0.36043
0.284306
0.355901
0.305538
0.249927
0.318182
0.316052
0.349464
0.224026
0.378692
0.288415
0.326642
0.287001
3.76339
3.44059
3.25885
3.0407
3.02093
2.96631
3.02251
2.94941
3.02541
3.07301
3.06041
2.97573
2.84331
2.80238
2.74381
2.63949
2.75847
2.80999
3.12504
3.36019
3.49055
3.17957
3.01718
2.91942
2.87782
2.78617
2.84598
2.80078
2.90411
2.93522
2.92169
2.84417
2.83178
2.70146
2.63226
2.57238
2.70943
2.71113
2.89416
3.12253
3.01829
2.84507
2.65393
2.61907
2.48663
2.48851
2.56558
2.56474
2.6792
2.69079
2.61077
2.61309
2.52501
2.53612
2.41044
2.43738
2.46789
2.52962
2.63253
2.78596
2.48479
2.38604
2.23921
2.19375
2.13633
2.16273
2.224
2.27409
2.24071
2.39324
2.31204
2.26557
2.17691
2.08177
2.09983
2.13373
2.1316
2.19276
2.27444
2.36442
1.98202
1.9347
1.84721
1.73374
1.70213
1.75759
1.75973
1.84468
1.89742
1.84227
1.89486
1.8109
1.82333
1.68153
1.76937
1.6979
1.73005
1.7794
1.85437
1.93983
1.47621
1.38813
1.35266
1.27909
1.32648
1.30612
1.29733
1.3211
1.3118
1.30829
1.32756
1.36709
1.31271
1.20247
1.30007
1.21127
1.31214
1.34264
1.33761
1.42804
0.870442
0.797462
0.767386
0.777137
0.738262
0.837439
0.811237
0.821905
0.816373
0.820659
0.827214
0.828782
0.760712
0.799972
0.790642
0.777997
0.76521
0.788284
0.801284
0.874233
0.276129
0.254855
0.276328
0.364196
0.267109
0.286469
0.301991
0.161891
0.281753
0.298519
0.413329
0.265619
0.259503
0.258007
0.249951
0.323589
0.240234
0.271095
0.27944
0.273858
3.06082
2.77546
2.40968
2.14484
2.16001
2.0513
2.0753
2.10288
2.08872
2.02407
2.01728
1.99028
1.95657
1.82832
1.68294
1.74966
1.89296
1.97309
2.24899
2.43565
2.80791
2.56924
2.26121
2.1489
2.11047
1.99704
2.09367
2.0563
2.08806
2.06023
2.06103
2.01447
1.95389
1.84411
1.88257
1.77571
1.83429
2.0615
2.15296
2.46433
2.52953
2.31178
2.11244
1.9754
1.83148
1.88126
1.93067
1.92046
1.94017
2.00529
1.93213
1.89818
1.93704
1.77516
1.68491
1.73282
1.82827
1.87158
2.1142
2.24784
2.10453
2.00685
1.76513
1.63599
1.66901
1.68374
1.6849
1.70803
1.7142
1.66189
1.71407
1.73652
1.55145
1.59752
1.52823
1.55607
1.53192
1.72665
1.80948
1.99342
1.71128
1.70929
1.51255
1.36025
1.35256
1.3471
1.41864
1.36253
1.41601
1.45965
1.41184
1.4025
1.30958
1.34645
1.29381
1.30216
1.30225
1.36192
1.54057
1.55552
1.22029
1.23289
1.06587
1.05154
1.00694
1.01512
1.01044
1.00873
1.04444
1.08216
1.0305
1.02294
1.02206
0.949179
0.980353
1.05791
0.913178
1.07875
1.1612
1.21052
0.729492
0.699378
0.651459
0.670772
0.602198
0.606339
0.568559
0.605972
0.675111
0.727659
0.565371
0.658818
0.565061
0.554972
0.586557
0.624278
0.583509
0.551249
0.70545
0.681324
0.267776
0.260908
0.242946
0.209992
0.226298
0.221018
0.183802
0.246087
0.187532
0.241459
0.253438
0.24882
0.225716
0.197064
0.303498
0.212846
0.195131
0.214302
0.282411
0.244974
2.41381
2.11569
1.81892
1.51975
1.39415
1.23562
1.09417
1.23567
1.1667
1.06975
1.1414
1.03537
0.873888
0.943522
0.929121
0.883169
0.971941
1.14965
1.49959
1.76897
2.27592
2.0696
1.75569
1.56817
1.43799
1.31233
1.34781
1.30458
1.26507
1.25826
1.21762
1.29089
1.12165
1.112
1.09414
1.05791
1.15878
1.32667
1.60381
1.87142
2.04316
1.86855
1.64232
1.43649
1.31508
1.27868
1.25536
1.21271
1.32857
1.26124
1.32337
1.22818
1.22742
1.16822
1.10799
1.13048
1.26832
1.3065
1.56644
1.75375
1.80254
1.55554
1.41973
1.27182
1.24118
1.24606
1.12399
1.17557
1.13715
1.18764
1.21828
1.06808
1.15176
1.08244
0.999939
1.07282
1.09154
1.16278
1.4155
1.53962
1.46048
1.25524
1.09284
1.01157
1.02218
0.98
0.992066
0.928161
1.0182
0.993539
0.970663
0.98742
0.996446
0.901305
0.879962
0.879303
0.923698
1.06297
1.05951
1.32862
1.03702
0.937193
0.887151
0.818666
0.724665
0.785863
0.776586
0.740786
0.698283
0.690151
0.748976
0.714738
0.710914
0.711861
0.7365
0.724488
0.797947
0.786059
0.865346
0.913303
0.592095
0.558292
0.595172
0.500015
0.451537
0.473612
0.395049
0.45686
0.52417
0.48743
0.475352
0.403744
0.429534
0.466427
0.45194
0.475049
0.471838
0.456463
0.471498
0.643832
0.213894
0.176424
0.120542
0.215457
0.201319
0.209632
0.103118
0.194648
0.206739
0.205105
0.118074
0.241172
0.174497
0.111945
0.192404
0.11619
0.13583
0.176815
0.201206
0.186495
1.957
1.5706
1.18345
0.911097
0.663402
0.526787
0.438707
0.401743
0.378941
0.283786
0.316661
0.191441
0.102966
0.0190372
0.053307
0.239126
0.323164
0.508891
0.868607
1.2127
1.85168
1.57029
1.30405
1.01244
0.866498
0.719827
0.704896
0.588036
0.57805
0.532044
0.555477
0.53455
0.484278
0.457264
0.400878
0.484681
0.663188
0.797714
1.0207
1.29675
1.69196
1.4695
1.1939
1.05832
0.845475
0.805123
0.808044
0.815485
0.742367
0.745442
0.69065
0.638288
0.592237
0.655081
0.574565
0.701911
0.71746
0.825991
1.07762
1.26153
1.51345
1.38158
1.11512
0.929338
0.819189
0.737087
0.736034
0.746285
0.739753
0.733401
0.727055
0.650133
0.646752
0.624414
0.705245
0.679223
0.76115
0.805145
1.01722
1.19212
1.13989
1.03388
0.982988
0.812137
0.703219
0.620783
0.627896
0.6987
0.683807
0.643988
0.601909
0.621706
0.551646
0.564012
0.464714
0.593729
0.699631
0.700697
0.865221
0.99708
0.853252
0.842344
0.645189
0.568683
0.586684
0.507152
0.488328
0.48328
0.465586
0.491485
0.428561
0.484509
0.436393
0.471668
0.439547
0.445147
0.526803
0.586095
0.69631
0.706974
0.523358
0.526462
0.438857
0.367053
0.283798
0.325545
0.369599
0.334099
0.331454
0.352956
0.353413
0.332373
0.293035
0.260443
0.311513
0.28634
0.285752
0.362139
0.389858
0.495758
0.220439
0.13978
0.19846
0.0914141
0.103536
0.167053
0.0465634
0.105842
0.10362
0.0609151
0.0573283
0.0883107
0.0654784
0.0774009
0.0423534
0.118489
0.0646009
0.129423
0.144437
0.121979
1.70164
1.22314
0.733646
0.455868
0.204156
-0.0101769
-0.12646
-0.231332
-0.394335
-0.309149
-0.492048
-0.42203
-0.498199
-0.559111
-0.480804
-0.409542
-0.235315
0.0326334
0.339466
0.710108
1.60759
1.30893
0.875921
0.593655
0.415531
0.236009
0.182369
0.118123
0.0596684
-0.0212259
-0.0393483
-0.0875209
-0.0909798
-0.0620104
-0.144767
-0.042099
0.0617229
0.310258
0.638466
0.957113
1.51805
1.23708
0.869841
0.721231
0.487323
0.425499
0.265269
0.232853
0.259291
0.156931
0.188488
0.0509744
0.0815844
0.113684
0.201741
0.260912
0.323027
0.477096
0.708084
0.987289
1.33157
1.08153
0.884772
0.690151
0.520689
0.386363
0.403652
0.424543
0.28735
0.302245
0.327873
0.186601
0.176102
0.218663
0.260787
0.256855
0.342539
0.579285
0.697901
0.979538
1.04925
0.885455
0.651318
0.559526
0.413844
0.44994
0.430843
0.379298
0.280148
0.304566
0.363229
0.262321
0.267766
0.209523
0.302211
0.338198
0.421012
0.514327
0.62547
0.749706
0.794424
0.641667
0.574963
0.445927
0.296433
0.284648
0.365963
0.294289
0.275838
0.279991
0.269868
0.265173
0.176959
0.201883
0.252315
0.26377
0.36873
0.399685
0.502008
0.600311
0.511532
0.397261
0.305517
0.314259
0.273673
0.193486
0.144891
0.121726
0.189016
0.18254
0.160021
0.125259
0.211252
0.180583
0.191579
0.190481
0.201699
0.209643
0.219762
0.339143
0.164709
0.124483
0.184685
0.0794827
0.0862828
0.10827
0.0425943
0.086554
0.0274716
0.0724492
0.0603112
0.0522683
0.0588595
0.00981937
0.0644737
0.0689653
0.0538834
0.0811362
0.157585
0.112972
1.42983
0.923184
0.580594
0.151684
-0.214642
-0.434953
-0.665152
-0.722274
-0.870166
-0.871193
-1.03066
-0.972585
-1.04404
-1.02707
-1.00521
-0.793648
-0.636776
-0.298282
0.081068
0.498791
1.47654
1.05753
0.703642
0.380749
0.083646
-0.127618
-0.207739
-0.34764
-0.437596
-0.463098
-0.533365
-0.577159
-0.627085
-0.512024
-0.533265
-0.379127
-0.163776
0.026773
0.35736
0.725135
1.34794
1.06373
0.725697
0.464376
0.19701
0.116054
0.00430913
-0.0762924
-0.147232
-0.131283
-0.177036
-0.292411
-0.231737
-0.188757
-0.154428
-0.102866
0.0464509
0.185004
0.555035
0.825957
1.21113
0.956106
0.666325
0.514416
0.360262
0.209802
0.105435
0.0869817
-0.0265944
-0.000986722
-0.0763022
-0.0817558
-0.0844499
-0.0474638
-0.023898
-0.00861616
0.1637
0.36533
0.536531
0.721255
1.05299
0.818164
0.655896
0.416751
0.361943
0.259863
0.182963
0.116821
0.0903573
0.0575379
0.00945033
0.0218716
-0.0559026
0.0262682
0.050181
0.215622
0.223209
0.348766
0.514152
0.667638
0.720486
0.630729
0.464428
0.3725
0.229423
0.173704
0.14281
0.038978
0.120428
0.115119
0.0476483
0.0380925
0.0244758
0.0677495
0.0714789
0.097212
0.104042
0.304633
0.349523
0.58839
0.395015
0.411454
0.367554
0.138673
0.20833
0.134249
0.105424
0.104994
0.0526375
0.135676
0.0344087
0.0319379
0.0357512
0.0507085
0.105322
0.132635
0.147314
0.176501
0.309563
0.370197
0.168318
0.130169
0.0967865
0.0760417
0.030244
0.0290379
-0.0165746
0.0257488
0.00134006
0.0149661
-0.0523426
0.0469957
0.0603028
-0.0301643
-0.0142083
-0.0515642
0.00733148
0.0779775
0.0335626
0.0974408
1.5004
0.914159
0.420186
-0.0714499
-0.363596
-0.668192
-0.916401
-1.05704
-1.19585
-1.31221
-1.33049
-1.3381
-1.45927
-1.38449
-1.26185
-1.13022
-0.834064
-0.528015
-0.0583694
0.445915
1.45226
1.07727
0.577946
0.202389
-0.0647475
-0.412306
-0.421863
-0.638156
-0.786744
-0.728419
-0.820277
-0.845946
-0.911117
-0.803194
-0.674343
-0.580831
-0.386955
-0.158005
0.278756
0.619265
1.36653
1.03293
0.714721
0.324269
0.0035995
-0.137865
-0.248278
-0.376669
-0.417968
-0.424935
-0.431336
-0.505068
-0.529325
-0.505471
-0.481269
-0.316627
-0.141713
0.13771
0.400053
0.656262
1.21875
0.942544
0.664728
0.409596
0.17652
0.0728489
-0.0318082
-0.138522
-0.23024
-0.192821
-0.25873
-0.228676
-0.31014
-0.264115
-0.235464
-0.0952364
0.0191274
0.2278
0.46645
0.722118
0.985948
0.752992
0.561147
0.422325
0.190961
0.12714
-0.000140674
-0.0365468
-0.0650837
-0.0982023
-0.111223
-0.176034
-0.13312
-0.168174
-0.0424696
-0.0185029
0.107202
0.256303
0.534059
0.682817
0.653817
0.514947
0.446489
0.335621
0.186315
0.148385
0.111613
-0.0238226
-0.0539074
-0.0745708
-0.0352623
-0.096236
-0.041452
-0.0222746
-0.0534414
0.0637437
0.163047
0.244755
0.36396
0.441374
0.423688
0.371363
0.299309
0.194625
0.102108
0.0919669
0.0868756
0.0632271
0.0460358
-0.0487677
-0.0560368
-0.069672
0.0435955
-0.0294874
0.00158127
0.0499025
0.0737284
0.170448
0.208812
0.334184
0.141216
0.0811533
0.066598
0.100018
-0.00110425
0.0210602
0.0644143
-0.0843955
0.0153983
0.0280228
-0.0125505
0.010969
0.0260262
-0.037917
-0.000906287
0.0320412
0.0484953
0.079982
0.0594354
0.0793931
1.68713
1.13889
0.532264
0.0421438
-0.375069
-0.840725
-1.04185
-1.26052
-1.36305
-1.51556
-1.51397
-1.58328
-1.65715
-1.4833
-1.42526
-1.21346
-0.95796
-0.527573
0.012092
0.452897
1.6362
1.1746
0.693372
0.217281
-0.0571284
-0.352544
-0.632707
-0.709166
-0.897098
-1.01266
-1.0124
-1.10155
-1.0497
-1.00097
-0.822256
-0.727488
-0.534138
-0.136851
0.372137
0.633257
1.51276
1.14936
0.711518
0.424306
0.106886
-0.172456
-0.296278
-0.434735
-0.61336
-0.664677
-0.580733
-0.695451
-0.706714
-0.611402
-0.542051
-0.405847
-0.176072
0.0468258
0.37819
0.739981
1.36068
0.957735
0.721413
0.395023
0.220348
-0.00566743
-0.0983171
-0.186938
-0.318558
-0.369141
-0.346374
-0.413549
-0.399755
-0.328454
-0.275906
-0.213937
0.0385947
0.199253
0.550166
0.828938
1.07155
0.818012
0.667156
0.387298
0.262931
0.093956
0.0259727
-0.110865
-0.20707
-0.210193
-0.101912
-0.257767
-0.210609
-0.258432
-0.0987435
-0.0401602
0.088121
0.279005
0.430438
0.703915
0.732015
0.659506
0.475906
0.333781
0.215626
0.100292
-0.0176657
0.0235014
-0.0232552
-0.0527494
-0.0830189
-0.14268
-0.169802
-0.0726423
-0.0364661
-0.024281
0.062527
0.174443
0.408047
0.59933
0.480408
0.431574
0.299788
0.181906
0.147785
0.108938
0.0564349
0.011856
-0.0532741
-0.00561783
-0.0353744
-0.112033
-0.0886365
-0.0126202
-0.052553
0.0908103
0.0453706
0.160915
0.210341
0.371121
0.173646
0.114279
0.0928165
0.0674219
0.104183
0.0126785
0.0331115
0.048215
-0.0350424
0.00460767
-0.0511823
-0.00719257
-0.0166507
-0.0275466
-0.0146757
0.0147257
0.105667
0.0664242
0.0555819
0.0769659
1.98008
1.38704
0.714716
0.237586
-0.268404
-0.666028
-0.924149
-1.19108
-1.28565
-1.52201
-1.58399
-1.55843
-1.64796
-1.424
-1.4348
-1.09239
-0.797039
-0.389464
0.148783
0.630098
1.81899
1.43457
0.866192
0.405162
0.00384347
-0.275615
-0.482729
-0.721482
-0.838311
-0.916102
-1.05487
-1.06939
-1.02375
-0.948399
-0.763072
-0.581246
-0.33729
-0.0577254
0.46477
0.915324
1.73571
1.31783
0.89289
0.491128
0.1321
-0.0337975
-0.203595
-0.395979
-0.501364
-0.654482
-0.609145
-0.631414
-0.628231
-0.660916
-0.487009
-0.332568
-0.0845278
0.237897
0.593633
0.934928
1.53903
1.18883
0.827774
0.615989
0.289757
0.128412
-0.0743649
-0.242164
-0.326945
-0.364226
-0.457056
-0.348659
-0.368988
-0.414373
-0.298512
-0.0925288
0.0791682
0.316604
0.643529
0.855604
1.22824
0.923389
0.751898
0.464768
0.362341
0.094388
0.00674054
-0.026466
-0.232984
-0.262981
-0.20677
-0.237387
-0.211333
-0.206447
-0.119159
0.0209135
0.0894275
0.306569
0.535674
0.843374
0.882086
0.746096
0.568748
0.428346
0.217362
0.0599496
0.0802286
-0.0106428
0.011003
-0.0230402
-0.128377
-0.181473
-0.144022
-0.0918477
0.0041519
0.00496491
0.121956
0.253271
0.502278
0.547683
0.512292
0.459849
0.327289
0.215965
0.197151
0.075507
0.0160927
0.0817828
-0.0529043
-0.0839392
0.00975523
-0.101554
-0.00994725
-0.0523159
-0.0351379
0.100076
0.098453
0.196378
0.276717
0.400116
0.19389
0.152117
0.15338
0.0914178
0.117212
0.0201127
0.0256291
-0.0498621
0.0179158
-0.0217385
-0.0520578
0.0295448
-0.0385558
-0.0463765
0.00291866
0.0277064
-0.0157746
0.00839783
0.0879034
0.174788
2.52964
1.90045
1.19153
0.689187
0.0548918
-0.334314
-0.63194
-0.912644
-1.12178
-1.24242
-1.40513
-1.45357
-1.40495
-1.28754
-1.12162
-0.852593
-0.464587
0.064586
0.58496
1.12355
2.36581
1.80988
1.29235
0.787932
0.339977
-0.0187442
-0.259263
-0.548261
-0.658214
-0.8173
-0.820803
-0.852902
-0.877283
-0.761123
-0.607439
-0.402146
-0.0327713
0.304189
0.841494
1.22397
2.06303
1.69898
1.19703
0.874702
0.512634
0.225048
-0.0869791
-0.249618
-0.383695
-0.428063
-0.530838
-0.533247
-0.502591
-0.446046
-0.349002
-0.11403
0.138434
0.624666
0.884022
1.2167
1.7915
1.51463
1.11367
0.823784
0.52028
0.320919
0.137477
-0.0849606
-0.163409
-0.205931
-0.25978
-0.310468
-0.30522
-0.224752
-0.116029
0.0127009
0.275161
0.607238
0.901794
1.08486
1.48007
1.15942
0.930751
0.680461
0.47892
0.302504
0.145693
0.017058
-0.0693293
-0.0368712
-0.115623
-0.159663
-0.104832
-0.0869192
0.00757461
0.139184
0.276898
0.531475
0.74119
0.973559
1.07611
0.900439
0.716908
0.498317
0.355439
0.261948
0.170252
0.0577862
-0.0309675
-0.0400153
0.0293114
-0.114755
-0.0210075
-0.037617
0.0561206
0.1313
0.259484
0.386541
0.551105
0.668794
0.576068
0.483321
0.405972
0.381042
0.259781
0.0806942
0.134905
0.10851
-0.0322292
0.103151
-0.0279411
-0.0296312
-0.0119731
0.0327617
0.114077
0.0992199
0.137864
0.225457
0.411253
0.470496
0.180146
0.20298
0.122277
0.111718
0.0160405
0.0796694
0.0240279
-0.0321965
-0.00700189
0.0187981
0.00354095
-0.00997402
-0.0313214
0.0125642
0.0554177
0.0336277
0.0951393
0.15859
0.111188
0.113477
3.24133
2.57406
1.84391
1.15678
0.675321
0.122218
-0.167871
-0.46668
-0.750895
-0.856544
-0.946079
-0.998458
-0.954015
-0.826714
-0.689184
-0.272691
0.0529577
0.548657
1.19563
1.74189
3.00143
2.40408
1.81399
1.25453
0.840444
0.377091
0.0973881
-0.138869
-0.356389
-0.466153
-0.607681
-0.580938
-0.508001
-0.388108
-0.216506
0.0234692
0.337348
0.805368
1.40475
1.82575
2.68154
2.16832
1.75197
1.34895
0.897278
0.575096
0.205784
0.101185
-0.0857744
-0.16618
-0.281147
-0.215679
-0.235407
-0.0603229
0.0224616
0.21875
0.502867
0.822596
1.25365
1.67111
2.23164
1.87223
1.47536
1.13972
0.838055
0.594973
0.32389
0.203935
0.0154171
-0.0370587
-0.123179
-0.0797148
0.0177589
0.0943302
0.151433
0.342692
0.623035
0.901263
1.22021
1.4984
1.78565
1.49234
1.22104
0.961066
0.702068
0.484157
0.267864
0.280792
0.102357
0.127865
-0.0372838
0.0175376
0.0568522
0.13176
0.165442
0.35798
0.581978
0.774299
1.04189
1.30116
1.2993
1.10926
0.911156
0.703794
0.477832
0.410053
0.323106
0.254289
0.123271
0.0718753
0.0589154
0.094481
0.0858775
0.156093
0.189392
0.312255
0.400377
0.546272
0.734653
0.946527
0.791101
0.693208
0.592962
0.427704
0.336008
0.268649
0.224921
0.146621
-0.00271645
0.0259739
0.0385811
0.100234
0.0769124
0.0910196
0.100403
0.120017
0.31553
0.363521
0.480884
0.571396
0.297335
0.176591
0.150287
0.117514
0.0968601
0.0959564
0.134826
0.0112769
-0.0196385
0.0593167
-0.00393483
0.00330693
0.0282671
0.0141535
0.136495
0.0860638
0.0832069
0.195957
0.199422
0.207518
4.16305
3.38319
2.6938
2.02393
1.38139
0.891734
0.423549
0.126223
-0.134033
-0.248576
-0.389411
-0.440202
-0.360134
-0.272382
0.128814
0.368388
0.73192
1.29347
1.96112
2.55452
3.76771
3.14025
2.54654
1.97385
1.44089
1.05873
0.67708
0.412952
0.25282
-0.0230698
-0.00890644
-0.0324409
-0.0125932
0.121259
0.284526
0.636826
1.03128
1.46764
1.98961
2.46708
3.30382
2.79075
2.29926
1.80588
1.409
1.01913
0.829624
0.525682
0.401794
0.248315
0.19846
0.127506
0.323902
0.379104
0.449536
0.766706
1.04795
1.48379
1.93412
2.32022
2.7053
2.39204
2.00432
1.60278
1.25808
0.884476
0.729301
0.50588
0.40431
0.320511
0.253346
0.282796
0.277842
0.400618
0.560641
0.774667
0.958948
1.31561
1.63704
1.98608
2.22909
1.9184
1.60279
1.26747
1.07402
0.831622
0.632661
0.519578
0.378793
0.366958
0.282335
0.314967
0.374202
0.375417
0.476297
0.753772
0.88338
1.10324
1.38622
1.58613
1.59588
1.40326
1.25223
0.92198
0.804451
0.593437
0.498857
0.42325
0.332062
0.229506
0.229707
0.272928
0.212187
0.326408
0.48063
0.539132
0.651016
0.88791
0.959088
1.24309
0.90516
0.869019
0.680767
0.551773
0.455998
0.403473
0.325062
0.26612
0.207161
0.16085
0.211001
0.18577
0.173317
0.241709
0.247226
0.407925
0.320451
0.43339
0.625271
0.7318
0.334707
0.209691
0.253988
0.270703
0.19617
0.179144
0.11485
0.128565
0.0711438
0.05953
0.0695965
0.0349903
0.0697446
0.0745083
0.0953772
0.0673787
0.128095
0.167278
0.251084
0.265598
5.24042
4.49895
3.72327
2.98094
2.37245
1.80893
1.25529
0.974781
0.749574
0.593374
0.40563
0.381375
0.494202
0.68642
0.87745
1.24192
1.67778
2.23967
2.96337
3.55876
4.71354
4.09483
3.45292
2.76764
2.1948
1.8383
1.47519
1.09579
0.92141
0.793959
0.713823
0.682841
0.757483
0.919517
1.05506
1.37018
1.77201
2.29243
2.76298
3.38041
4.09746
3.54754
3.08386
2.53251
2.02835
1.69043
1.33441
1.24597
0.864702
0.829097
0.837102
0.813359
0.863253
0.968416
1.07425
1.3744
1.66131
2.10661
2.56434
3.02978
3.39445
2.99654
2.59945
2.22608
1.7438
1.49128
1.2312
1.08656
0.95655
0.839445
0.862513
0.755445
0.793962
0.928379
1.06365
1.2883
1.58015
1.82349
2.26271
2.65087
2.64544
2.40238
2.14467
1.73137
1.49127
1.25724
1.06272
0.919862
0.806768
0.700579
0.622395
0.68228
0.704919
0.805486
0.827189
1.12792
1.36283
1.48089
1.82925
2.01932
1.93305
1.73255
1.52432
1.28746
1.10826
0.941132
0.819183
0.663278
0.615331
0.50406
0.562414
0.533686
0.572516
0.633354
0.698178
0.836241
0.909842
1.14524
1.37025
1.52396
1.14655
1.03319
0.83757
0.78845
0.634381
0.624362
0.443924
0.441215
0.327816
0.315588
0.365552
0.392017
0.353079
0.360229
0.465522
0.527604
0.543111
0.68888
0.835951
0.861992
0.376856
0.384008
0.255619
0.280623
0.187467
0.151923
0.170721
0.119501
0.0202207
0.0747421
0.111493
0.0732434
0.162341
0.100409
0.15498
0.263348
0.172594
0.292323
0.29007
0.346428
6.48908
5.6831
4.89551
4.16713
3.49975
2.92594
2.41332
2.01922
1.77042
1.57369
1.46599
1.44542
1.50533
1.66435
1.99487
2.37061
2.80134
3.43787
4.16808
4.78469
5.83331
5.11555
4.49955
3.83882
3.31037
2.72202
2.34106
2.02113
1.88834
1.65151
1.60474
1.55286
1.605
1.72246
2.0115
2.29765
2.79214
3.26768
3.86856
4.37854
5.00155
4.49798
3.91991
3.44345
2.90177
2.53412
2.19521
1.9384
1.79199
1.59086
1.51579
1.48462
1.58463
1.70869
1.94067
2.17339
2.60006
2.9505
3.37122
3.84867
4.12426
3.72206
3.29066
2.80169
2.54588
2.12415
1.90472
1.70256
1.53254
1.45474
1.35254
1.48377
1.4649
1.56635
1.65921
1.93361
2.25169
2.61191
2.87434
3.32864
3.274
2.92827
2.59194
2.27985
2.00048
1.76343
1.59277
1.4543
1.25662
1.24349
1.14826
1.16941
1.19181
1.24679
1.45362
1.5928
1.83522
2.02853
2.3948
2.63986
2.40665
2.2069
1.86063
1.67741
1.45289
1.30551
1.19125
1.03239
0.983936
0.898356
0.866865
0.91817
0.893917
0.965198
1.06483
1.16768
1.33303
1.49269
1.72777
1.95026
1.49837
1.30767
1.14167
0.958181
0.835893
0.814416
0.670622
0.639089
0.54984
0.572904
0.495425
0.49799
0.543223
0.595923
0.644775
0.700899
0.817553
0.884963
1.02759
1.20264
0.479285
0.441779
0.409867
0.329693
0.270735
0.322019
0.203843
0.164614
0.221187
0.23127
0.222209
0.172541
0.159157
0.122368
0.148542
0.228318
0.312591
0.331308
0.379941
0.346711
8.04409
7.21629
6.28945
5.51802
4.78186
4.18372
3.72549
3.35889
2.99999
2.7661
2.72439
2.69199
2.68343
2.94185
3.1815
3.57111
4.14937
4.73953
5.54509
6.15994
7.06221
6.47189
5.64309
4.96122
4.47312
3.97362
3.50181
3.16021
2.87019
2.75568
2.62244
2.63256
2.67269
2.81114
3.08179
3.44151
3.90011
4.46648
5.01732
5.57608
6.07042
5.55345
4.98153
4.34245
3.87448
3.4545
3.12603
2.87825
2.64195
2.48811
2.43329
2.43208
2.46768
2.68621
2.77954
3.07296
3.46415
3.98313
4.40415
4.88325
5.04584
4.57397
4.13541
3.66554
3.26275
2.95572
2.61128
2.46196
2.2694
2.07802
2.15321
2.06169
2.14688
2.24264
2.41892
2.64592
2.95453
3.37166
3.66558
4.06685
3.87058
3.63713
3.26473
2.89749
2.57013
2.3634
2.0015
1.96869
1.83797
1.7612
1.72649
1.74574
1.7232
1.83056
1.94326
2.10862
2.41273
2.63258
2.95402
3.22338
2.85653
2.53721
2.32457
2.11282
1.88476
1.72075
1.59498
1.51074
1.31209
1.27386
1.27358
1.27874
1.31844
1.35405
1.46182
1.52394
1.78599
1.9238
2.16267
2.32266
1.75289
1.62531
1.39365
1.28064
1.14169
1.02112
0.939331
0.874505
0.948614
0.778218
0.752112
0.761325
0.76028
0.804037
0.909671
0.963777
1.09332
1.15725
1.28037
1.43577
0.557558
0.479398
0.484625
0.387148
0.413965
0.369017
0.307291
0.227764
0.302698
0.272621
0.223159
0.251536
0.283668
0.206852
0.258164
0.282512
0.355655
0.373582
0.377395
0.518822
9.65817
8.81699
7.91307
7.14267
6.3369
5.70974
5.12051
4.71732
4.45587
4.18963
4.04479
4.08998
4.16749
4.35692
4.64322
5.09718
5.60429
6.25005
6.98213
7.66694
8.45511
7.81381
6.99244
6.30393
5.67025
5.21112
4.66922
4.39363
4.10832
3.96873
3.79963
3.84115
3.86714
4.07734
4.32432
4.6192
5.12799
5.67467
6.32691
6.89591
7.20742
6.69276
5.94538
5.46564
4.95958
4.53824
4.15615
3.88356
3.6264
3.50392
3.42886
3.41067
3.47133
3.6584
3.80224
4.12425
4.48126
5.03598
5.55137
5.99491
5.95956
5.49752
5.01708
4.55283
4.1822
3.72669
3.49907
3.32023
3.07443
2.95643
2.90565
2.88896
2.91605
3.13777
3.16469
3.47546
3.79992
4.22554
4.63598
5.00065
4.66847
4.30928
3.94009
3.64861
3.27587
2.9208
2.74078
2.59272
2.49976
2.39244
2.2946
2.35035
2.28643
2.4111
2.53567
2.7641
3.03865
3.33409
3.62041
3.97627
3.27212
3.13498
2.86046
2.56259
2.33642
2.0975
1.9912
1.88565
1.77944
1.68056
1.59407
1.67719
1.68685
1.73815
1.94566
2.03918
2.15111
2.42204
2.62207
2.86674
2.04096
1.82383
1.65584
1.58349
1.46849
1.28614
1.189
1.10072
1.08719
1.05643
0.98899
1.01348
1.08414
1.10143
1.2041
1.30975
1.35298
1.49204
1.60283
1.74207
0.595559
0.610969
0.537783
0.535802
0.441087
0.470352
0.387945
0.32033
0.400072
0.401878
0.41557
0.279963
0.332557
0.439532
0.368567
0.475181
0.440051
0.451585
0.522477
0.53106
11.316
10.4593
9.49635
8.56423
7.89659
7.13887
6.70543
6.20206
5.92883
5.70607
5.54967
5.58989
5.62558
5.83908
6.15703
6.57788
7.13236
7.7963
8.58528
9.3109
9.81442
9.08612
8.28225
7.63704
6.92976
6.42304
6.01524
5.67454
5.34862
5.13367
5.05321
5.10339
5.11178
5.3073
5.59493
5.9474
6.42793
6.95698
7.64727
8.24739
8.33393
7.74046
7.14981
6.5559
6.07601
5.67675
5.11038
4.89457
4.6948
4.54219
4.42756
4.42905
4.43974
4.58686
4.83068
5.17052
5.57247
6.04796
6.56587
7.11229
6.81249
6.41581
5.87996
5.36904
5.00153
4.59059
4.35441
4.0497
3.93136
3.80532
3.69293
3.75513
3.75909
3.86886
4.0937
4.34591
4.63515
5.05527
5.5243
5.84901
5.34212
4.99582
4.58897
4.28656
3.95745
3.6706
3.34936
3.19435
3.02355
2.99657
2.90681
2.98915
2.96642
3.11996
3.24493
3.39767
3.67919
3.99371
4.38315
4.64458
3.81012
3.64538
3.24904
3.0465
2.83985
2.66191
2.43744
2.29308
2.25383
2.13964
2.06841
2.1625
2.0342
2.21196
2.28697
2.45694
2.6849
2.85499
3.083
3.32154
2.26712
2.17391
2.00827
1.82276
1.70862
1.56101
1.52661
1.42155
1.32647
1.31979
1.21
1.33922
1.3099
1.32952
1.46427
1.52653
1.51716
1.71559
1.79713
2.09422
0.764565
0.744223
0.71732
0.649878
0.541773
0.538403
0.461652
0.512526
0.5183
0.404864
0.393878
0.460263
0.465923
0.468685
0.468191
0.519308
0.536566
0.612175
0.679401
0.627091
12.5532
11.7571
10.8614
9.92469
9.21248
8.52154
7.91028
7.46938
7.2035
6.85092
6.76397
6.73782
6.7766
7.02824
7.39877
7.84324
8.44546
9.08781
9.84067
10.5283
10.9557
10.2085
9.44619
8.69948
8.03369
7.48086
6.96723
6.66054
6.31545
6.15807
5.92656
6.10901
6.13704
6.27421
6.51724
6.93753
7.47182
7.94488
8.6775
9.26753
9.28853
8.66672
7.95461
7.44855
6.81211
6.36473
5.90334
5.66826
5.46338
5.25302
5.24393
5.13765
5.25572
5.46003
5.67626
6.00661
6.30006
6.87596
7.3859
7.91652
7.52615
7.09882
6.56114
6.04682
5.63537
5.30207
4.98245
4.73413
4.42778
4.38765
4.29666
4.30529
4.27848
4.44767
4.64522
4.84566
5.21239
5.6758
6.09688
6.49517
5.90654
5.52522
5.13809
4.74938
4.36269
4.06094
3.87709
3.65943
3.50222
3.38316
3.45404
3.37389
3.38117
3.52378
3.64184
3.84853
4.13344
4.46676
4.78646
5.06645
4.17819
3.98154
3.61961
3.39599
3.18924
2.9878
2.77971
2.63261
2.54095
2.43513
2.42897
2.43384
2.44716
2.53757
2.65344
2.82128
2.93978
3.21045
3.44501
3.64171
2.49366
2.26292
2.20741
2.06621
1.89853
1.73082
1.65359
1.62635
1.5684
1.526
1.52673
1.43891
1.52579
1.54686
1.58026
1.66363
1.95462
1.95742
2.04973
2.1932
0.861039
0.839169
0.735047
0.691654
0.647412
0.510027
0.591671
0.527779
0.483705
0.475105
0.502031
0.464408
0.472632
0.48396
0.559623
0.571437
0.599667
0.606391
0.72422
0.668168
)
;

boundaryField
{
    hotSide
    {
        type            calculated;
        value           nonuniform List<scalar> 
400
(
5.30782
4.60408
3.91601
3.21299
2.56541
2.10795
1.8519
1.57938
1.64928
1.83542
2.12788
2.6771
3.38864
4.31041
5.38807
6.63727
8.19311
9.80831
11.4675
12.7065
5.05066
4.46553
3.6039
2.93807
2.27741
1.73129
1.38272
1.0816
1.07142
1.29505
1.5422
2.05478
2.72774
3.53645
4.65204
5.83631
7.36992
8.97136
10.6147
11.9139
4.94264
4.23126
3.4337
2.58353
1.99152
1.35457
0.90315
0.748399
0.586279
0.696681
0.877567
1.35298
2.00416
2.8531
3.88191
5.05379
6.44773
8.07168
9.65567
11.0218
4.87588
4.09071
3.22774
2.33054
1.70376
1.09313
0.63572
0.329228
0.103746
0.215026
0.408272
0.857846
1.32365
2.18929
3.1451
4.33045
5.68087
7.30543
8.72731
10.0885
4.78865
4.02755
3.22047
2.35783
1.5898
0.856507
0.394457
-0.0273112
-0.179294
-0.19377
-0.0899798
0.23064
0.848654
1.55262
2.54194
3.6679
4.94907
6.50361
8.06322
9.37949
4.8377
4.09079
3.17814
2.26101
1.44264
0.730669
0.190246
-0.238191
-0.475168
-0.651397
-0.480265
-0.151884
0.30161
1.06845
1.98337
3.09854
4.35494
5.88004
7.30874
8.69145
4.90279
4.20002
3.24571
2.29597
1.31165
0.652469
0.083205
-0.45982
-0.715484
-0.845307
-0.731821
-0.443562
0.0168893
0.605091
1.43407
2.5898
3.90018
5.29392
6.87807
8.08268
5.02462
4.21575
3.18225
2.33283
1.46198
0.623806
-0.0139393
-0.509801
-0.849579
-1.05801
-0.993354
-0.719401