/*--------------------------------*- C++ -*----------------------------------*\
| =========                 |                                                 |
| \\      /  F ield         | OpenFOAM: The Open Source CFD Toolbox           |
|  \\    /   O peration     | Version:  2212                                  |
|   \\  /    A nd           | Website:  www.openfoam.com                      |
|    \\/     M anipulation  |                                                 |
\*---------------------------------------------------------------------------*/
FoamFile
{
    version     2.0;
    format      ascii;
    arch        "LSB;label=32;scalar=64";
    class       volScalarField;
    location    "0";
    object      stateMean;
}
// * * * * * * * * * * * * * * * * * * * * * * * * * * * * * * * * * * * * * //

dimensions      [0 0 0 1 0 0 0];

internalField   nonuniform List<scalar> 
3200
(
346.526
345.935
345.906
346.142
347.126
348.205
349.457
350.553
351.459
352.157
352.535
352.344
351.899
350.958
349.922
348.958
347.969
347.534
347.604
348.166
340.512
340.133
339.876
340.282
341.016
342.022
343.144
344.106
345.044
345.593
345.804
345.707
345.245
344.51
343.559
342.537
341.889
341.354
341.524
341.932
334.399
334.034
333.924
334.242
334.971
335.811
336.588
337.593
338.291
338.691
339.005
338.873
338.415
337.891
337.119
336.257
335.643
335.201
335.391
335.666
328.205
327.889
327.905
328.148
328.708
329.425
330.137
330.833
331.451
331.927
332.101
331.981
331.7
331.114
330.491
329.811
329.345
329.012
329
329.266
321.984
321.822
321.832
322.012
322.468
323.027
323.538
324.155
324.618
324.881
325.078
325.046
324.722
324.358
323.843
323.309
322.895
322.633
322.629
322.867
315.717
315.632
315.657
315.734
316.069
316.542
316.897
317.307
317.652
317.857
317.998
317.974
317.748
317.507
317.116
316.675
316.387
316.208
316.246
316.401
309.505
309.389
309.36
309.498
309.662
309.966
310.15
310.474
310.614
310.694
310.774
310.817
310.626
310.492
310.344
310.062
309.879
309.769
309.787
309.887
303.217
303.123
303.184
303.133
303.286
303.298
303.405
303.448
303.54
303.651
303.635
303.584
303.597
303.545
303.481
303.381
303.352
303.354
303.19
303.275
346.458
345.87
345.78
346.316
347.285
348.404
349.735
350.908
351.979
352.713
353.062
352.918
352.399
351.411
350.38
349.159
348.187
347.671
347.759
348.246
340.46
340.007
339.988
340.353
341.216
342.239
343.341
344.399
345.318
345.967
346.304
346.028
345.663
344.878
343.954
342.872
342.015
341.565
341.566
341.981
334.376
334.044
334.056
334.422
335.049
336.029
336.904
337.812
338.634
339.109
339.367
339.223
338.828
338.22
337.325
336.523
335.748
335.353
335.404
335.712
328.291
327.946
327.952
328.295
328.724
329.583
330.332
331.103
331.701
332.188
332.346
332.327
331.939
331.404
330.69
330.036
329.403
329.063
329.059
329.353
322.002
321.814
321.792
321.972
322.569
323.151
323.731
324.322
324.827
325.101
325.281
325.162
324.948
324.489
324.05
323.43
323.032
322.719
322.63
322.892
315.856
315.636
315.685
315.813
316.044
316.556
316.999
317.4
317.787
318.018
318.172
318.017
317.895
317.54
317.289
316.78
316.536
316.241
316.234
316.395
309.457
309.41
309.44
309.54
309.672
309.994
310.182
310.515
310.717
310.869
310.997
310.805
310.774
310.59
310.355
310.107
309.895
309.817
309.83
309.895
303.112
303.121
303.129
303.194
303.251
303.391
303.402
303.49
303.578
303.597
303.635
303.724
303.621
303.579
303.429
303.407
303.39
303.219
303.183
303.32
346.552
346.033
345.974
346.526
347.504
348.707
350.179
351.538
352.657
353.519
353.85
353.79
353.056
352.156
350.87
349.598
348.625
347.963
347.987
348.404
340.501
340.141
340.083
340.56
341.459
342.542
343.723
344.903
345.833
346.673
346.896
346.849
346.327
345.426
344.353
343.315
342.454
341.833
341.825
342.134
334.405
334.042
334.094
334.519
335.217
336.205
337.283
338.252
339.137
339.664
339.903
339.834
339.419
338.656
337.789
336.895
336.058
335.559
335.583
335.832
328.259
328.096
328.086
328.434
329.017
329.841
330.631
331.406
332.148
332.627
332.763
332.776
332.355
331.836
331.119
330.277
329.746
329.21
329.21
329.475
322.039
321.833
321.912
322.152
322.633
323.211
323.915
324.576
325.13
325.397
325.644
325.6
325.227
324.853
324.2
323.672
323.183
322.906
322.893
322.923
315.855
315.641
315.698
315.861
316.272
316.659
317.12
317.599
317.94
318.265
318.331
318.326
318.117
317.799
317.347
316.996
316.597
316.459
316.381
316.479
309.584
309.464
309.512
309.57
309.799
310.05
310.284
310.532
310.803
310.986
311.111
311.031
310.899
310.791
310.463
310.198
309.955
309.85
309.804
309.935
303.181
303.188
303.216
303.282
303.328
303.41
303.498
303.535
303.632
303.676
303.72
303.699
303.663
303.619
303.562
303.444
303.427
303.344
303.387
303.334
346.758
346.282
346.325
346.864
347.984
349.285
350.805
352.227
353.467
354.466
354.803
354.762
354.031
352.906
351.583
350.33
349.227
348.472
348.456
348.806
340.767
340.371
340.398
340.902
341.901
342.926
344.243
345.526
346.648
347.451
347.673
347.63
347.065
346.154
345.12
343.88
342.914
342.281
342.201
342.492
334.627
334.316
334.423
334.739
335.547
336.647
337.716
338.79
339.62
340.301
340.554
340.534
340.017
339.264
338.342
337.369
336.419
335.964
335.863
336.092
328.46
328.154
328.235
328.643
329.301
330.02
330.917
331.874
332.639
333.123
333.483
333.289
332.863
332.341
331.521
330.749
330.01
329.665
329.502
329.629
322.156
322.056
322.038
322.304
322.787
323.506
324.204
324.825
325.446
325.909
326.083
326.036
325.701
325.239
324.643
323.946
323.455
323.16
323.099
323.119
315.923
315.754
315.747
316.014
316.369
316.904
317.321
317.871
318.262
318.508
318.723
318.676
318.467
318.047
317.601
317.2
316.79
316.572
316.524
316.556
309.56
309.56
309.396
309.719
309.806
310.077
310.46
310.714
310.999
311.184
311.29
311.183
311.086
310.782
310.651
310.373
310.152
309.99
309.955
309.967
303.228
303.117
303.235
303.243
303.308
303.481
303.493
303.593
303.664
303.735
303.763
303.741
303.733
303.709
303.576
303.464
303.433
303.39
303.334
303.334
347.184
346.801
346.764
347.428
348.524
349.873
351.551
352.97
354.42
355.311
355.876
355.826
355.031
353.819
352.515
351.02
349.917
349.225
349.027
349.406
341.007
340.756
340.734
341.275
342.227
343.542
344.884
346.246
347.398
348.258
348.749
348.537
347.942
346.953
345.801
344.592
343.564
342.875
342.717
342.911
334.948
334.703
334.723
335.185
335.986
336.988
338.208
339.319
340.394
341.021
341.387
341.331
340.855
339.934
338.929
337.956
337.067
336.517
336.305
336.559
328.612
328.5
328.597
328.909
329.648
330.493
331.399
332.386
333.192
333.766
334.036
333.973
333.524
332.898
332.035
331.196
330.421
329.942
329.8
330.083
322.327
322.225
322.299
322.586
323.095
323.85
324.587
325.261
325.949
326.363
326.547
326.502
326.141
325.617
325.015
324.287
323.804
323.38
323.29
323.474
315.978
315.91
315.965
316.141
316.555
317.016
317.537
318.118
318.548
318.85
319.186
318.992
318.814
318.437
317.887
317.459
317.087
316.763
316.653
316.761
309.611
309.644
309.594
309.77
309.97
310.227
310.562
310.95
311.134
311.35
311.415
311.395
311.401
310.984
310.709
310.496
310.288
310.166
310.034
310.123
303.227
303.223
303.19
303.275
303.4
303.362
303.514
303.668
303.731
303.851
303.767
303.877
303.788
303.625
303.587
303.517
303.49
303.388
303.383
303.313
347.686
347.299
347.444
348.101
349.123
350.612
352.215
353.838
355.284
356.381
356.939
356.902
356.163
354.886
353.411
351.933
350.743
350.021
349.781
350.038
341.452
341.252
341.344
341.945
342.937
344.161
345.545
347.007
348.184
349.183
349.608
349.539
348.899
347.762
346.558
345.372
344.288
343.654
343.367
343.563
335.231
335.029
335.087
335.631
336.51
337.575
338.768
339.965
341.048
341.794
342.187
342.111
341.533
340.609
339.68
338.56
337.652
337.058
336.939
336.999
328.949
328.884
328.878
329.346
330.082
330.914
331.931
332.853
333.693
334.376
334.658
334.652
334.25
333.437
332.535
331.714
331.068
330.533
330.356
330.435
322.625
322.472
322.576
322.86
323.456
324.186
324.84
325.68
326.375
326.786
327.173
326.992
326.679
326.061
325.425
324.791
324.229
323.812
323.755
323.757
316.149
316.114
316.195
316.4
316.776
317.332
317.9
318.362
318.915
319.185
319.434
319.405
319.159
318.742
318.29
317.739
317.329
317.085
316.987
316.97
309.696
309.701
309.833
309.853
310.083
310.454
310.705
311.034
311.333
311.508
311.719
311.657
311.448
311.229
311.029
310.615
310.364
310.248
310.288
310.259
303.241
303.256
303.347
303.279
303.43
303.458
303.667
303.682
303.818
303.928
303.882
303.84
303.877
303.78
303.591
303.599
303.465
303.396
303.422
303.433
348.284
347.968
348.125
348.73
349.951
351.349
353.049
354.755
356.271
357.414
358.054
357.861
357.164
355.988
354.429
352.971
351.726
350.938
350.691
350.865
342.073
341.827
342.013
342.574
343.495
344.741
346.259
347.763
348.966
350.101
350.588
350.567
349.799
348.768
347.426
346.154
345.112
344.34
344.128
344.341
335.804
335.544
335.668
336.183
336.999
338.031
339.329
340.465
341.793
342.609
342.987
342.868
342.36
341.367
340.346
339.271
338.297
337.825
337.497
337.601
329.305
329.212
329.278
329.789
330.412
331.328
332.363
333.373
334.264
335.023
335.277
335.3
334.822
334.184
333.228
332.261
331.569
331.034
330.883
331.017
322.888
322.852
322.926
323.284
323.852
324.471
325.297
326.021
326.678
327.291
327.627
327.45
327.15
326.557
325.964
325.222
324.697
324.259
324.078
324.107
316.429
316.366
316.333
316.649
317.019
317.507
318.137
318.669
319.204
319.453
319.755
319.683
319.47
319.054
318.568
318.026
317.68
317.411
317.303
317.28
309.843
309.795
309.881
310.002
310.266
310.531
310.849
311.254
311.564
311.762
311.86
311.902
311.757
311.423
311.156
310.822
310.608
310.464
310.372
310.447
303.326
303.272
303.213
303.348
303.518
303.577
303.768
303.719
303.882
303.921
303.942
304.046
303.946
303.801
303.753
303.687
303.677
303.499
303.541
303.505
348.996
348.737
348.871
349.594
350.692
352.206
353.929
355.564
357.226
358.408
359.059
358.978
358.157
356.864
355.357
353.894
352.709
351.878
351.577
351.74
342.672
342.473
342.569
343.214
344.23
345.369
346.887
348.422
349.773
350.986
351.409
351.383
350.65
349.593
348.285
347.063
345.872
345.192
344.927
345.015
336.239
336.074
336.247
336.723
337.595
338.75
340.04
341.27
342.404
343.281
343.744
343.667
343.077
342.188
341.061
339.989
339.078
338.492
338.179
338.226
329.729
329.657
329.732
330.15
330.887
331.868
332.831
333.841
334.938
335.628
335.966
335.859
335.488
334.681
333.725
332.932
332.126
331.536
331.386
331.501
323.213
323.147
323.227
323.568
324.163
324.854
325.653
326.46
327.169
327.803
328.058
328.039
327.608
327.084
326.342
325.574
325.003
324.612
324.496
324.593
316.65
316.549
316.661
316.862
317.352
317.833
318.353
318.992
319.499
319.955
320.09
319.981
319.733
319.425
318.86
318.401
317.905
317.688
317.552
317.567
310.025
310.001
309.989
310.218
310.439
310.724
311.087
311.407
311.658
311.894
312.138
312.092
311.95
311.711
311.381
311.099
310.786
310.602
310.529
310.601
303.353
303.304
303.432
303.425
303.464
303.639
303.73
303.829
303.946
303.994
304.052
304.156
304.018
303.874
303.841
303.743
303.646
303.538
303.53
303.527
349.795
349.448
349.671
350.407
351.459
352.991
354.668
356.393
358.014
359.301
359.917
359.91
359.167
357.864
356.33
354.855
353.64
352.905
352.586
352.611
343.345
343.118
343.351
343.914
344.811
346.27
347.593
349.127
350.607
351.685
352.287
352.211
351.462
350.407
349.157
347.817
346.865
346.047
345.766
345.789
336.812
336.647
336.801
337.359
338.17
339.237
340.566
341.831
342.965
343.971
344.351
344.362
343.789
342.873
341.742
340.677
339.76
339.087
338.923
338.915
330.193
330.172
330.245
330.69
331.423
332.317
333.306
334.331
335.308
336.127
336.532
336.488
335.989
335.213
334.296
333.492
332.687
332.133
331.897
331.972
323.639
323.598
323.649
323.954
324.517
325.177
325.99
326.873
327.563
328.18
328.472
328.46
328.102
327.513
326.75
326.128
325.522
325.18
324.986
324.946
316.893
316.86
316.909
317.137
317.555
318.064
318.558
319.269
319.763
320.285
320.404
320.35
320.153
319.613
319.209
318.715
318.262
317.997
317.836
317.865
310.224
310.162
310.158
310.394
310.572
310.89
311.273
311.498
311.986
312.077
312.262
312.179
312.013
311.93
311.556
311.229
310.966
310.773
310.809
310.757
303.439
303.372
303.392
303.466
303.505
303.674
303.745
303.813
303.958
304.108
304.14
304.138
304.14
303.88
303.838
303.824
303.68
303.615
303.554
303.599
350.515
350.268
350.498
351.194
352.327
353.729
355.358
357.139
358.825
360.087
360.794
360.654
359.998
358.618
357.184
355.718
354.547
353.817
353.418
353.599
344.061
343.792
343.975
344.653
345.526
346.872
348.304
349.866
351.299
352.303
352.905
352.838
352.181
351.117
349.805
348.573
347.534
346.872
346.575
346.684
337.398
337.222
337.41
337.933
338.733
339.821
341.056
342.28
343.625
344.443
344.959
344.957
344.457
343.428
342.404
341.37
340.386
339.759
339.581
339.579
330.637
330.566
330.765
331.169
331.829
332.797
333.743
334.803
335.799
336.553
336.993
336.881
336.493
335.749
334.806
333.927
333.219
332.758
332.53
332.499
323.938
323.908
324.004
324.315
324.89
325.607
326.28
327.171
327.959
328.615
328.848
328.871
328.458
327.797
327.236
326.609
325.973
325.628
325.401
325.388
317.13
317.1
317.274
317.493
317.779
318.344
318.965
319.536
319.969
320.417
320.63
320.593
320.395
319.995
319.426
318.967
318.609
318.263
318.124
318.261
310.324
310.316
310.316
310.451
310.69
310.984
311.374
311.708
311.988
312.256
312.467
312.432
312.259
312.065
311.737
311.456
311.146
311.02
310.883
310.92
303.458
303.464
303.488
303.515
303.59
303.709
303.8
303.976
304.072
304.195
304.165
304.212
304.23
303.995
303.936
303.863
303.685
303.666
303.672
303.711
351.364
351.18
351.288
351.929
353.083
354.466
356.063
357.769
359.388
360.586
361.388
361.282
360.571
359.371
357.913
356.558
355.446
354.72
354.419
354.506
344.727
344.54
344.687
345.31
346.208
347.537
348.929
350.418
351.68
352.865
353.408
353.344
352.721
351.743
350.523
349.322
348.377
347.673
347.316
347.406
337.867
337.918
338.011
338.541
339.297
340.36
341.581
342.848
343.903
344.917
345.449
345.432
344.833
343.994
342.946
341.936
341.033
340.512
340.235
340.274
331.183
331.103
331.255
331.705
332.316
333.148
334.145
335.244
336.083
336.861
337.301
337.319
336.818
336.08
335.231
334.462
333.79
333.297
333.032
333.102
324.262
324.318
324.39
324.688
325.206
325.863
326.722
327.497
328.193
328.776
329.133
329.08
328.8
328.187
327.591
326.928
326.376
325.973
325.896
325.796
317.396
317.338
317.487
317.721
318.149
318.596
319.097
319.706
320.233
320.595
320.789
320.847
320.658
320.247
319.728
319.292
318.838
318.616
318.484
318.46
310.467
310.497
310.469
310.658
310.89
311.183
311.508
311.84
312.153
312.424
312.484
312.575
312.416
312.156
311.867
311.642
311.377
311.218
311.141
311.121
303.512
303.512
303.559
303.562
303.639
303.679
303.825
303.95
304.117
304.176
304.218
304.216
304.094
304.026
304.004
303.905
303.748
303.755
303.738
303.797
352.162
351.939
352.139
352.795
353.832
355.207
356.741
358.363
359.848
361.029
361.768
361.715
361.124
359.951
358.679
357.407
356.277
355.572
355.292
355.504
345.429
345.276
345.387
345.921
346.867
348.117
349.454
350.921
352.215
353.205
353.742
353.726
353.166
352.168
351.094
349.994
349.036
348.366
348.208
348.207
338.573
338.482
338.599
339.082
339.86
340.831
342.052
343.182
344.348
345.161
345.687
345.671
345.215
344.424
343.457
342.468
341.694
341.167
340.943
340.956
331.572
331.563
331.643
332.076
332.782
333.624
334.581
335.638
336.512
337.218
337.634
337.52
337.094
336.563
335.697
334.865
334.279
333.826
333.674
333.535
324.663
324.632
324.706
325.054
325.613
326.248
326.959
327.679
328.443
329.012
329.271
329.323
329.026
328.427
327.876
327.232
326.78
326.38
326.272
326.232
317.646
317.598
317.702
318.014
318.321
318.806
319.346
319.844
320.476
320.817
321.046
320.978
320.827
320.356
319.951
319.525
319.142
318.842
318.766
318.813
310.624
310.606
310.678
310.738
310.997
311.326
311.66
311.987
312.286
312.554
312.692
312.698
312.483
312.329
312.002
311.731
311.515
311.367
311.325
311.288
303.548
303.597
303.542
303.607
303.691
303.824
303.919
304.044
304.178
304.143
304.226
304.31
304.222
304.113
304.022
304.045
304.007
303.815
303.745
303.787
353.02
352.843
352.96
353.563
354.506
355.846
357.372
358.944
360.391
361.466
362.102
362.127
361.456
360.457
359.247
358.063
357.118
356.415
356.098
356.409
346.1
345.931
346.062
346.672
347.494
348.7
349.994
351.315
352.512
353.456
354.082
354.045
353.556
352.681
351.702
350.572
349.646
349.169
348.919
348.968
339.179
338.971
339.117
339.682
340.362
341.408
342.506
343.634
344.632
345.496
345.953
345.949
345.458
344.83
343.912
343.021
342.219
341.764
341.561
341.651
332.156
332.041
332.194
332.566
333.13
333.981
334.866
335.771
336.797
337.413
337.693
337.66
337.325
336.741
336.069
335.284
334.685
334.272
334.077
334.172
325.064
324.957
325.204
325.401
325.949
326.531
327.236
328.021
328.689
329.145
329.394
329.416
329.142
328.726
328.249
327.524
327.12
326.697
326.691
326.682
317.954
317.908
317.998
318.177
318.533
319.056
319.504
320.019
320.566
320.887
321.058
321.138
320.853
320.589
320.157
319.746
319.414
319.173
319.031
319.037
310.736
310.814
310.857
310.966
311.197
311.514
311.759
312.056
312.353
312.544
312.706
312.798
312.53
312.395
312.16
311.833
311.692
311.518
311.521
311.435
303.624
303.619
303.64
303.652
303.756
303.83
303.964
304.003
304.093
304.268
304.294
304.246
304.19
304.137
304.082
303.899
303.91
303.796
303.871
303.903
353.86
353.602
353.745
354.338
355.31
356.569
357.963
359.392
360.739
361.721
362.326
362.393
361.815
360.826
359.753
358.773
357.849
357.239
357.06
357.224
346.775
346.675
346.81
347.345
348.098
349.255
350.366
351.683
352.966
353.752
354.245
354.364
353.736
353.047
352.058
351.106
350.341
349.87
349.686
349.674
339.753
339.68
339.785
340.221
340.918
341.802
342.89
343.925
344.913
345.74
346.081
346.135
345.729
345.091
344.196
343.499
342.809
342.335
342.205
342.328
332.697
332.57
332.662
333.064
333.577
334.405
335.205
336.105
336.93
337.546
337.897
337.9
337.529
337.079
336.364
335.725
335.167
334.823
334.603
334.695
325.53
325.311
325.449
325.833
326.266
326.813
327.546
328.238
328.867
329.27
329.633
329.603
329.239
328.893
328.402
327.878
327.406
327.132
327.08
327.103
318.259
318.259
318.314
318.507
318.806
319.157
319.728
320.212
320.627
320.94
321.178
321.132
321.071
320.719
320.359
319.939
319.552
319.471
319.358
319.434
310.946
310.944
311.022
311.159
311.23
311.591
311.861
312.147
312.458
312.689
312.7
312.688
312.651
312.393
312.309
312.012
311.846
311.638
311.642
311.708
303.642
303.667
303.672
303.74
303.804
303.877
304.032
304.079
304.202
304.289
304.303
304.244
304.233
304.201
304.084
304.036
304.03
303.879
303.895
303.949
354.616
354.499
354.601
355.072
356.004
357.129
358.487
359.801
361.032
361.972
362.457
362.502
362.111
361.392
360.302
359.349
358.549
358.079
357.957
358.149
347.542
347.391
347.495
347.961
348.824
349.785
350.931
352.139
353.173
353.956
354.434
354.408
354.062
353.468
352.613
351.723
350.936
350.48
350.434
350.455
340.342
340.252
340.434
340.834
341.442
342.35
343.308
344.277
345.185
345.872
346.231
346.239
345.876
345.384
344.609
343.956
343.292
342.9
342.824
342.885
333.104
333.048
333.23
333.493
334.112
334.747
335.53
336.452
337.096
337.59
337.975
338.003
337.653
337.258
336.67
336.046
335.553
335.264
335.1
335.256
325.839
325.798
325.846
326.152
326.575
327.137
327.714
328.385
329.011
329.347
329.619
329.676
329.432
328.989
328.552
328.103
327.765
327.623
327.424
327.412
318.535
318.396
318.443
318.742
319.1
319.459
319.872
320.267
320.743
321.03
321.19
321.231
321.125
320.855
320.495
320.136
319.872
319.71
319.589
319.662
311.112
311.06
311.167
311.359
311.4
311.73
311.95
312.228
312.468
312.656
312.821
312.792
312.724
312.504
312.331
312.05
311.914
311.818
311.772
311.739
303.739
303.744
303.751
303.777
303.81
303.842
304.048
304.127
304.192
304.311
304.247
304.272
304.2
304.22
304.121
304.029
304.09
303.939
303.955
303.955
355.57
355.212
355.477
355.874
356.696
357.805
359.031
360.246
361.398
362.203
362.704
362.755
362.395
361.735
360.913
360.031
359.368
358.784
358.75
358.875
348.393
348.16
348.231
348.645
349.466
350.304
351.298
352.512
353.431
354.163
354.571
354.633
354.305
353.699
352.924
352.265
351.633
351.22
351.139
351.372
341.003
340.916
340.944
341.357
341.999
342.772
343.6
344.618
345.459
346.104
346.414
346.47
346.106
345.657
345.043
344.346
343.851
343.464
343.366
343.544
333.633
333.569
333.613
333.876
334.486
335.151
335.825
336.642
337.282
337.779
338.093
338.147
337.806
337.482
337.001
336.475
335.975
335.661
335.623
335.723
326.288
326.093
326.296
326.526
326.924
327.355
328.049
328.568
329.115
329.465
329.727
329.727
329.557
329.164
328.813
328.359
328.059
327.802
327.797
327.845
318.791
318.746
318.797
318.906
319.253
319.632
320.062
320.501
320.801
321.127
321.333
321.307
321.118
320.915
320.68
320.358
320.184
319.958
319.833
319.936
311.308
311.229
311.305
311.418
311.587
311.8
311.966
312.327
312.518
312.658
312.797
312.857
312.68
312.579
312.449
312.191
312.041
312.044
312.031
312.042
303.828
303.787
303.745
303.819
303.827
303.964
303.948
304.131
304.138
304.267
304.279
304.331
304.279
304.25
304.067
304.09
304.022
304.042
304.049
303.959
356.476
356.245
356.195
356.619
357.386
358.442
359.496
360.663
361.664
362.464
362.882
362.948
362.701
362.084
361.289
360.609
360.102
359.697
359.603
359.865
349.208
348.848
348.966
349.329
349.907
350.844
351.907
352.778
353.733
354.484
354.775
354.812
354.533
354.076
353.492
352.746
352.181
351.88
351.826
352.067
341.738
341.484
341.583
341.966
342.494
343.259
344.116
344.885
345.638
346.189
346.582
346.626
346.414
345.951
345.392
344.818
344.342
344.096
344.066
344.121
334.25
334.077
334.123
334.436
334.855
335.495
336.221
336.853
337.517
337.944
338.184
338.263
338.158
337.717
337.258
336.755
336.49
336.202
336.101
336.246
326.676
326.562
326.612
326.815
327.221
327.697
328.299
328.708
329.188
329.631
329.825
329.918
329.749
329.422
329.102
328.673
328.378
328.192
328.156
328.251
319.063
319.012
319.121
319.231
319.452
319.874
320.216
320.634
320.875
321.25
321.324
321.383
321.321
321.074
320.864
320.542
320.41
320.153
320.203
320.306
311.534
311.522
311.508
311.54
311.713
311.9
312.132
312.422
312.576
312.696
312.828
312.83
312.826
312.689
312.569
312.347
312.242
312.134
312.156
312.201
303.9
303.858
303.852
303.859
303.976
304.005
304.161
304.142
304.315
304.265
304.369
304.339
304.298
304.256
304.208
304.167
304.096
304.1
304.039
304.102
357.459
357.102
357.035
357.469
358.172
359.081
360.103
361.184
362.064
362.718
363.179
363.247
363.05
362.535
361.813
361.249
360.779
360.393
360.495
360.854
349.93
349.695
349.604
350.022
350.602
351.464
352.346
353.211
353.98
354.637
354.942
355.04
354.898
354.406
353.858
353.223
352.81
352.549
352.497
352.81
342.376
342.175
342.221
342.463
343.049
343.737
344.456
345.205
345.898
346.35
346.73
346.681
346.588
346.229
345.789
345.261
344.818
344.618
344.667
344.843
334.718
334.568
334.68
334.926
335.337
335.913
336.56
337.133
337.684
338.126
338.37
338.346
338.274
337.925
337.547
337.12
336.867
336.69
336.636
336.772
327.104
326.982
327.001
327.161
327.622
327.906
328.552
328.968
329.369
329.831
329.838
330.021
329.912
329.63
329.322
328.986
328.695
328.51
328.509
328.725
319.385
319.325
319.35
319.527
319.702
320.071
320.481
320.767
321.046
321.247
321.481
321.466
321.424
321.292
321.005
320.672
320.497
320.404
320.516
320.559
311.627
311.594
311.538
311.74
311.867
312.084
312.302
312.459
312.641
312.812
312.858
312.862
312.773
312.778
312.594
312.502
312.315
312.357
312.322
312.364
303.921
303.917
303.928
304
304.041
304.064
304.137
304.104
304.203
304.307
304.309
304.339
304.294
304.271
304.212
304.205
304.071
304.152
304.15
304.163
358.355
358.029
357.858
358.301
358.918
359.795
360.747
361.575
362.414
363.095
363.513
363.544
363.412
362.968
362.439
361.864
361.401
361.18
361.286
361.596
350.667
350.337
350.381
350.707
351.26
352.045
352.823
353.595
354.352
354.999
355.226
355.274
355.217
354.855
354.29
353.783
353.513
353.286
353.29
353.539
342.994
342.776
342.732
343.048
343.531
344.159
344.854
345.553
346.083
346.612
346.9
346.956
346.921
346.529
346.103
345.712
345.337
345.207
345.251
345.456
335.197
335.139
335.106
335.282
335.802
336.203
336.801
337.29
337.857
338.362
338.474
338.481
338.418
338.141
337.841
337.524
337.21
336.994
337.09
337.286
327.488
327.319
327.364
327.505
327.853
328.284
328.774
329.229
329.569
329.95
330.071
330.146
329.995
329.795
329.576
329.284
329.059
328.979
328.88
329.11
319.668
319.586
319.627
319.758
319.944
320.219
320.616
320.838
321.227
321.346
321.491
321.491
321.433
321.298
321.158
320.949
320.737
320.72
320.73
320.868
311.857
311.828
311.825
311.809
312.02
312.192
312.345
312.582
312.757
312.865
312.898
313.004
312.927
312.743
312.629
312.53
312.478
312.462
312.488
312.54
303.969
303.968
304.022
303.994
304.043
304.12
304.218
304.2
304.273
304.284
304.299
304.392
304.352
304.306
304.287
304.277
304.204
304.157
304.149
304.187
359.117
358.722
358.634
358.92
359.52
360.298
361.13
361.986
362.769
363.391
363.741
363.799
363.663
363.308
362.801
362.388
361.995
361.819
361.944
362.344
351.309
351.01
350.939
351.172
351.702
352.474
353.213
353.903
354.636
355.197
355.476
355.544
355.393
355.058
354.701
354.226
353.853
353.708
353.819
354.099
343.454
343.302
343.246
343.46
343.998
344.405
345.097
345.786
346.38
346.836
347.073
347.186
347.075
346.763
346.401
345.998
345.708
345.611
345.679
345.903
335.605
335.496
335.422
335.626
335.985
336.532
337.071
337.547
338.065
338.383
338.625
338.708
338.62
338.322
338.113
337.702
337.42
337.262
337.479
337.621
327.73
327.74
327.627
327.799
328.07
328.448
328.974
329.355
329.709
329.902
330.101
330.18
330.034
329.955
329.686
329.417
329.305
329.146
329.148
329.249
319.8
319.747
319.758
319.912
320.134
320.381
320.66
320.932
321.275
321.482
321.555
321.554
321.526
321.418
321.236
321.065
320.932
320.801
320.899
320.964
311.933
311.93
311.834
312.061
312.075
312.265
312.424
312.641
312.766
312.85
313.031
313.071
313.036
312.863
312.825
312.762
312.592
312.482
312.6
312.674
304.01
303.959
303.892
303.958
304.042
304.116
304.231
304.182
304.276
304.357
304.425
304.346
304.36
304.375
304.36
304.237
304.23
304.2
304.201
304.283
)
;

boundaryField
{
    hotSide
    {
        type            fixedGradient;
        gradient        nonuniform List<scalar> 
400
(
321.511
322.87
325.591
329.677
335.133
341.965
350.181
359.788
370.794
383.208
397.037
412.289
428.971
447.088
466.647
487.651
510.105
534.011
559.372
586.191
323.738
325.08
327.767
331.802
337.194
343.949
352.078
361.591
372.498
384.81
398.537
413.687
430.268
448.289
467.755
488.672
511.043
534.872
560.161
586.913
326.149
327.47
330.116
334.091
339.406
346.071
354.099
363.503
374.296
386.491
400.101
415.136
431.606
449.52
468.885
489.706
511.988
535.735
560.948
587.63
328.704
330
332.597
336.503
341.73
348.292
356.205
365.485
376.15
388.215
401.695
416.604
432.954
450.753
470.009
490.73
512.919
536.579
561.714
588.325
331.33
332.599
335.142
338.97
344.099
350.546
358.332
367.477
378.003
389.928
403.271
418.047
434.27
451.949
471.095
491.712
513.807
537.382
562.439
588.978
333.918
335.158
337.643
341.389
346.414
352.74
360.392
369.397
379.779
391.562
404.765
419.407
435.503
453.065
472.101
492.618
514.622
538.114
563.096
589.569
336.321
337.531
339.959
343.622
348.544
354.751
362.274
371.142
381.385
393.031
406.101
420.618
436.595
454.047
472.983
493.409
515.33
538.747
563.663
590.076
338.36
339.543
341.92
345.509
350.339
356.44
363.847
372.595
382.718
394.244
407.2
421.608
437.485
454.844
473.695
494.045
515.897
539.253
564.114
590.478
339.852
341.015
343.352
346.885
351.645
357.665
364.985
373.643
383.675
395.113
407.984
422.312
438.116
455.407
474.197
494.491
516.294
539.606
564.428
590.758
340.643
341.795
344.11
347.613
352.334
358.311
365.584
374.193
384.176
395.567
408.393
422.679
438.443
455.699
474.456
494.722
516.498
539.788
564.589
590.901
340.643
341.795
344.11
347.613
352.334
358.311
365.584
374.193
384.176
395.567
408.393
422.679
438.443
455.699
474.456
494.722
516.498
539.788
564.589
590.901
339.852
341.015
343.352
346.885
351.645
357.665
364.985
373.643
383.675
395.113
407.984
422.312
438.116
455.407
474.197
494.491
516.294
539.606
564.428
590.758
338.36
339.543
341.92
345.509
350.339
356.44
363.847
372.595
382.718
394.244
407.2
421.608
437.485
454.844
473.695
494.045
515.897
539.253
564.114
590.478
336.321
337.531
339.959
343.622
348.544
354.751
362.274
371.142
381.385
393.031
406.101
420.618
436.595
454.047
472.983
493.409
515.33
538.747
563.663
590.076
333.918
335.158
337.643
341.389
346.414
352.74
360.392
369.397
379.779
391.562
404.765
419.407
435.503
453.065
472.101
492.618
514.622
538.114
563.096
589.569
331.33
332.599
335.142
338.97
344.099
350.546
358.332
367.477
378.003
389.928
403.271
418.047
434.27
451.949
471.095
491.712
513.807
537.382
562.439
588.978
328.704
330
332.597
336.503
341.73
348.292
356.205
365.485
376.15
388.215
401.695
416.604
432.954
450.753
470.009
490.73
512.919
536.579
561.714
588.325
326.149
327.47
330.116
334.091
339.406
346.071
354.099
363.503
374.296
386.491
400.101
415.136
431.606
449.52
468.885
489.706
511.988
535.735
560.948
587.63
323.738
325.08
327.767
331.802
337.194
343.949
352.078
361.591
372.498
384.81
398.537
413.687
430.268
448.289
467.755
488.672
511.043
534.872
560.161
586.913
321.511
322.87
325.591
329.677
335.133
341.965
350.181
359.788
370.794
383.208
397.037
412.289
428.971
447.088
466.647
487.651
510.105
534.011
559.372
586.191
)
;
    }
    coldSide
    {
        type            mixed;
        refValue        uniform 300;
        refGradient     uniform 0;
        valueFraction   uniform 0.991591;
        source          uniform 0;
        value           nonuniform List<scalar> 
400
(
300.027
300.026
300.027
300.027
300.027
300.027
300.028
300.028
300.029
300.029
300.03
300.03
300.03
300.031
300.031
300.032
300.033
300.033
300.033
300.034
300.026
300.026
300.027
300.026
300.027
300.027
300.028
300.028
300.028
300.029
300.03
300.03
300.03
300.031
300.031
300.032
300.032