/*--------------------------------*- C++ -*----------------------------------*\
| =========                 |                                                 |
| \\      /  F ield         | OpenFOAM: The Open Source CFD Toolbox           |
|  \\    /   O peration     | Version:  2212                                  |
|   \\  /    A nd           | Website:  www.openfoam.com                      |
|    \\/     M anipulation  |                                                 |
\*---------------------------------------------------------------------------*/
FoamFile
{
    version     2.0;
    format      ascii;
    arch        "LSB;label=32;scalar=64";
    class       volScalarField;
    location    "0";
    object      T;
}
// * * * * * * * * * * * * * * * * * * * * * * * * * * * * * * * * * * * * * //

dimensions      [0 0 0 1 0 0 0];

internalField   nonuniform List<scalar> 
3200
(
319.852
319.461
319.01
318.93
319.052
319.056
319.217
319.398
319.446
319.454
319.245
318.931
318.496
318.081
317.592
316.897
316.542
316.465
316.526
316.861
317.172
316.821
316.469
316.408
316.518
316.512
316.656
316.815
316.856
316.893
316.707
316.415
316.069
315.717
315.26
314.681
314.361
314.295
314.331
314.616
314.514
314.202
313.927
313.904
313.995
313.977
314.104
314.241
314.255
314.351
314.144
313.895
313.643
313.332
312.919
312.435
312.177
312.11
312.136
312.384
311.87
311.602
311.388
311.375
311.483
311.431
311.55
311.633
311.66
311.78
311.576
311.367
311.21
310.935
310.563
310.201
309.985
309.926
309.954
310.137
309.219
309.004
308.85
308.849
308.945
308.891
308.97
309.029
309.053
309.176
308.998
308.834
308.758
308.511
308.197
307.95
307.781
307.726
307.755
307.916
306.577
306.4
306.315
306.309
306.41
306.339
306.387
306.441
306.455
306.556
306.438
306.306
306.283
306.076
305.853
305.7
305.571
305.505
305.532
305.687
303.944
303.834
303.784
303.795
303.855
303.806
303.802
303.855
303.881
303.916
303.879
303.786
303.781
303.656
303.507
303.445
303.367
303.295
303.317
303.429
301.324
301.281
301.261
301.275
301.287
301.274
301.268
301.298
301.308
301.308
301.302
301.265
301.271
301.225
301.177
301.159
301.134
301.105
301.108
301.155
320.037
319.424
319.1
319.046
318.991
319.191
319.379
319.54
319.631
319.722
319.477
319.087
318.808
318.255
317.695
317.056
316.579
316.521
316.496
316.824
317.317
316.837
316.554
316.484
316.482
316.613
316.809
316.947
317.022
317.121
316.881
316.545
316.301
315.844
315.347
314.828
314.379
314.339
314.318
314.577
314.61
314.257
313.992
313.927
313.99
314.053
314.227
314.309
314.415
314.488
314.267
314.018
313.78
313.449
312.989
312.58
312.159
312.146
312.155
312.33
311.927
311.68
311.448
311.369
311.474
311.506
311.649
311.672
311.806
311.857
311.662
311.499
311.276
311.035
310.637
310.323
309.937
309.93
309.976
310.087
309.279
309.089
308.893
308.828
308.925
308.952
309.078
309.063
309.195
309.255
309.067
308.97
308.784
308.607
308.293
308.022
307.723
307.727
307.784
307.852
306.634
306.495
306.347
306.286
306.361
306.4
306.495
306.471
306.567
306.638
306.47
306.404
306.277
306.178
305.945
305.724
305.515
305.529
305.563
305.609
303.982
303.906
303.807
303.764
303.806
303.847
303.893
303.894
303.938
303.99
303.875
303.846
303.753
303.74
303.569
303.441
303.319
303.321
303.345
303.365
301.332
301.304
301.267
301.268
301.275
301.288
301.308
301.309
301.316
301.344
301.292
301.294
301.252
301.249
301.191
301.151
301.108
301.115
301.126
301.132
320.127
319.689
319.366
319.209
319.223
319.49
319.666
319.835
320.034
320.026
319.881
319.398
319.127
318.75
318.005
317.376
316.771
316.632
316.711
316.914
317.399
317.029
316.772
316.642
316.656
316.886
317.085
317.196
317.363
317.361
317.245
316.832
316.597
316.255
315.624
315.073
314.55
314.443
314.504
314.647
314.699
314.392
314.184
314.081
314.094
314.272
314.483
314.557
314.699
314.695
314.595
314.274
314.062
313.757
313.234
312.763
312.337
312.259
312.275
312.408
311.995
311.751
311.608
311.501
311.515
311.676
311.856
311.9
312.05
312.017
311.939
311.703
311.504
311.265
310.824
310.459
310.116
310.051
310.044
310.164
309.308
309.138
309.004
308.935
308.947
309.071
309.227
309.239
309.39
309.361
309.293
309.102
308.956
308.764
308.426
308.15
307.867
307.834
307.815
307.935
306.636
306.531
306.414
306.382
306.409
306.455
306.599
306.59
306.733
306.69
306.64
306.487
306.409
306.265
306.031
305.829
305.626
305.616
305.581
305.67
303.973
303.925
303.851
303.83
303.844
303.852
303.966
303.971
304.053
304.014
303.988
303.889
303.841
303.763
303.624
303.505
303.38
303.379
303.328
303.397
301.335
301.318
301.295
301.274
301.29
301.291
301.338
301.334
301.36
301.355
301.338
301.301
301.289
301.26
301.21
301.178
301.139
301.124
301.103
301.135
320.265
319.939
319.546
319.464
319.548
319.791
319.956
320.097
320.381
320.406
320.35
319.914
319.458
318.972
318.343
317.756
317.175
316.93
316.93
317.125
317.528
317.263
316.934
316.848
316.934
317.159
317.292
317.415
317.671
317.686
317.634
317.254
316.854
316.483
315.926
315.403
314.924
314.717
314.665
314.852
314.806
314.578
314.333
314.252
314.323
314.534
314.629
314.732
314.943
314.95
314.911
314.613
314.262
313.957
313.521
313.037
312.639
312.48
312.422
312.569
312.097
311.894
311.731
311.667
311.714
311.907
311.951
312.065
312.257
312.231
312.214
311.965
311.674
311.429
311.086
310.691
310.346
310.237
310.166
310.291
309.397
309.217
309.131
309.088
309.115
309.263
309.298
309.408
309.552
309.522
309.535
309.323
309.082
308.917
308.637
308.334
308.044
307.977
307.908
308.023
306.73
306.567
306.521
306.482
306.494
306.621
306.643
306.732
306.808
306.803
306.847
306.679
306.485
306.389
306.168
305.965
305.746
305.715
305.664
305.74
304.038
303.938
303.929
303.881
303.886
303.967
303.993
304.046
304.095
304.084
304.127
304.015
303.893
303.853
303.726
303.585
303.473
303.426
303.398
303.44
301.348
301.314
301.316
301.307
301.3
301.337
301.352
301.355
301.373
301.363
301.379
301.351
301.302
301.286
301.261
301.208
301.171
301.145
301.14
301.157
320.556
320.152
319.862
319.782
319.839
320.135
320.224
320.579
320.914
320.881
320.712
320.537
319.961
319.396
318.826
318.243
317.612
317.371
317.295
317.426
317.772
317.423
317.197
317.114
317.173
317.458
317.514
317.846
318.162
318.122
317.974
317.822
317.31
316.835
316.342
315.827
315.284
315.076
314.986
315.109
315.014
314.71
314.542
314.454
314.508
314.775
314.821
315.108
315.385
315.381
315.221
315.084
314.673
314.271
313.865
313.393
312.933
312.762
312.667
312.798
312.287
312.005
311.913
311.821
311.852
312.086
312.124
312.379
312.596
312.59
312.484
312.344
312.039
311.698
311.36
310.977
310.613
310.446
310.363
310.496
309.552
309.318
309.268
309.184
309.228
309.408
309.447
309.627
309.8
309.796
309.753
309.606
309.375
309.111
308.851
308.561
308.275
308.129
308.051
308.185
306.794
306.624
306.642
306.549
306.578
306.73
306.759
306.885
307.002
307.012
307
306.859
306.7
306.494
306.319
306.142
305.915
305.814
305.736
305.857
304.067
303.967
303.987
303.924
303.965
304.059
304.062
304.132
304.2
304.226
304.221
304.108
304.03
303.892
303.797
303.701
303.559
303.499
303.444
303.531
301.363
301.333
301.34
301.317
301.329
301.363
301.364
301.379
301.407
301.423
301.422
301.373
301.35
301.308
301.269
301.235
301.191
301.182
301.156
301.188
321.036
320.616
320.255
320.177
320.323
320.491
320.724
321.088
321.489
321.555
321.25
321.075
320.514
319.92
319.232
318.712
318.124
317.798
317.636
317.742
318.194
317.838
317.527
317.491
317.62
317.756
317.953
318.272
318.656
318.714
318.437
318.286
317.796
317.294
316.702
316.24
315.771
315.466
315.288
315.363
315.38
315.065
314.814
314.812
314.903
315.024
315.186
315.474
315.799
315.849
315.615
315.483
315.078
314.659
314.167
313.751
313.382
313.103
312.92
312.998
312.578
312.329
312.126
312.1
312.193
312.301
312.396
312.655
312.954
312.992
312.784
312.683
312.369
312.021
311.605
311.26
310.967
310.733
310.557
310.621
309.783
309.574
309.439
309.387
309.484
309.587
309.622
309.839
310.105
310.113
309.944
309.88
309.629
309.377
309.046
308.775
308.561
308.363
308.212
308.25
306.973
306.837
306.762
306.684
306.786
306.877
306.861
307.037
307.224
307.233
307.115
307.057
306.899
306.706
306.48
306.291
306.135
305.995
305.883
305.901
304.197
304.112
304.062
304.013
304.085
304.149
304.123
304.235
304.348
304.349
304.277
304.229
304.155
304.032
303.895
303.765
303.697
303.598
303.542
303.545
301.415
301.368
301.361
301.344
301.366
301.397
301.375
301.424
301.463
301.461
301.431
301.421
301.393
301.358
301.301
301.264
301.24
301.218
301.195
301.189
321.454
321.023
320.728
320.565
320.806
320.925
321.18
321.449
321.882
321.979
321.864
321.685
321.14
320.453
319.763
319.088
318.584
318.285
318.157
318.314
318.549
318.197
317.948
317.83
318.038
318.117
318.366
318.567
318.995
319.081
318.946
318.835
318.317
317.756
317.138
316.561
316.137
315.866
315.764
315.867
315.668
315.363
315.17
315.093
315.253
315.295
315.543
315.711
316.079
316.162
316.038
315.93
315.504
315.048
314.503
314.034
313.687
313.449
313.341
313.421
312.806
312.549
312.417
312.345
312.477
312.504
312.699
312.844
313.161
313.233
313.152
313.03
312.685
312.336
311.865
311.489
311.202
311.055
310.904
310.975
309.942
309.765
309.66
309.61
309.7
309.72
309.859
309.985
310.241
310.294
310.233
310.141
309.877
309.608
309.206
308.931
308.731
308.63
308.469
308.526
307.088
306.975
306.899
306.864
306.934
306.931
307.024
307.121
307.324
307.354
307.309
307.229
307.061
306.892
306.573
306.37
306.264
306.187
306.058
306.081
304.252
304.181
304.121
304.124
304.164
304.169
304.212
304.265
304.409
304.419
304.384
304.333
304.241
304.139
303.956
303.803
303.78
303.724
303.651
303.646
301.426
301.392
301.378
301.383
301.401
301.399
301.401
301.425
301.477
301.49
301.467
301.45
301.414
301.393
301.325
301.274
301.272
301.252
301.24
301.219
322.017
321.533
321.172
321.233
321.304
321.416
321.664
322.038
322.362
322.441
322.525
322.299
321.611
320.989
320.317
319.451
319.086
318.731
318.704
318.816
319.037
318.638
318.314
318.393
318.467
318.537
318.774
319.105
319.396
319.444
319.544
319.351
318.757
318.209
317.612
316.882
316.566
316.259
316.232
316.3
316.068
315.749
315.47
315.548
315.629
315.657
315.904
316.167
316.401
316.444
316.557
316.389
315.871
315.421
314.913
314.31
314.036
313.787
313.763
313.792
313.134
312.877
312.651
312.713
312.787
312.784
313.036
313.24
313.426
313.477
313.568
313.398
312.978
312.627
312.228
311.715
311.508
311.307
311.295
311.289
310.212
310.028
309.826
309.898
309.939
309.921
310.143
310.275
310.441
310.5
310.558
310.418
310.126
309.843
309.528
309.115
308.965
308.795
308.817
308.769
307.291
307.175
307.015
307.067
307.098
307.103
307.258
307.326
307.456
307.508
307.529
307.459
307.264
307.076
306.819
306.51
306.417
306.27
306.327
306.281
304.377
304.306
304.22
304.243
304.247
304.263
304.356
304.377
304.481
304.497
304.501
304.48
304.384
304.279
304.113
303.896
303.867
303.757
303.817
303.792
301.461
301.44
301.414
301.419
301.421
301.432
301.457
301.46
301.504
301.503
301.502
301.507
301.478
301.442
301.37
301.286
301.299
301.254
301.282
301.274
322.494
322.14
321.8
321.888
321.816
321.874
322.258
322.485
322.813
322.863
322.947
322.745
322.046
321.493
320.826
320.099
319.683
319.336
319.346
319.237
319.463
319.168
318.877
318.98
318.907
318.945
319.285
319.485
319.768
319.834
319.917
319.734
319.125
318.649
318.08
317.448
317.063
316.769
316.788
316.664
316.449
316.208
315.967
316.033
315.992
315.992
316.306
316.482
316.728
316.785
316.889
316.696
316.178
315.822
315.314
314.777
314.453
314.217
314.219
314.099
313.431
313.236
313.041
313.106
313.072
313.058
313.351
313.456
313.683
313.755
313.843
313.663
313.24
312.985
312.521
312.099
311.838
311.668
311.634
311.517
310.441
310.282
310.133
310.18
310.164
310.151
310.415
310.455
310.647
310.721
310.785
310.645
310.302
310.112
309.742
309.407
309.221
309.081
309.044
308.953
307.459
307.344
307.23
307.264
307.26
307.254
307.456
307.46
307.605
307.667
307.723
307.619
307.38
307.233
306.962
306.723
306.607
306.498
306.453
306.384
304.476
304.412
304.331
304.348
304.348
304.352
304.471
304.477
304.565
304.609
304.635
304.58
304.443
304.343
304.184
304.033
303.964
303.883
303.87
303.831
301.512
301.472
301.44
301.455
301.461
301.456
301.493
301.504
301.543
301.539
301.545
301.529
301.491
301.448
301.401
301.345
301.326
301.291
301.296
301.277
323.076
322.692
322.388
322.338
322.417
322.403
322.718
322.976
323.232
323.357
323.329
323.07
322.543
321.973
321.323
320.72
320.218
319.734
319.749
319.81
319.967
319.621
319.388
319.355
319.42
319.408
319.708
319.906
320.14
320.264
320.204
320.01
319.525
319.066
318.508
317.98
317.537
317.109
317.104
317.17
316.869
316.574
316.411
316.361
316.417
316.396
316.689
316.828
317.046
317.171
317.114
316.945
316.512
316.161
315.685
315.23
314.822
314.485
314.481
314.523
313.769
313.531
313.428
313.378
313.42
313.405
313.656
313.764
313.962
314.047
314.024
313.869
313.524
313.232
312.836
312.467
312.123
311.86
311.858
311.89
310.678
310.502
310.434
310.417
310.441
310.405
310.61
310.725
310.868
310.923
310.91
310.807
310.52
310.303
310.002
309.71
309.44
309.244
309.222
309.252
307.612
307.493
307.445
307.447
307.457
307.413
307.577
307.688
307.792
307.821
307.795
307.729
307.514
307.365
307.148
306.948
306.756
306.603
306.582
306.606
304.557
304.51
304.484
304.472
304.478
304.434
304.543
304.625
304.683
304.705
304.674
304.647
304.507
304.423
304.295
304.184
304.061
303.969
303.954
303.968
301.517
301.508
301.506
301.5
301.506
301.481
301.523
301.549
301.557
301.588
301.572
301.554
301.506
301.475
301.439
301.402
301.364
301.327
301.327
301.336
323.614
323.193
323.043
322.897
322.873
322.962
323.298
323.503
323.654
323.709
323.634
323.503
322.903
322.258
321.752
321.162
320.712
320.332
320.198
320.45
320.418
320.065
319.956
319.841
319.819
319.898
320.204
320.398
320.51
320.537
320.502
320.39
319.849
319.285
318.877
318.355
317.952
317.631
317.516
317.715
317.249
316.963
316.895
316.778
316.767
316.819
317.097
317.265
317.338
317.369
317.369
317.255
316.802
316.317
315.997
315.559
315.205
314.911
314.837
314.994
314.096
313.878
313.829
313.735
313.718
313.749
314.005
314.114
314.168
314.21
314.24
314.103
313.757
313.377
313.109
312.758
312.455
312.177
312.132
312.286
310.95
310.804
310.768
310.686
310.672
310.674
310.908
310.983
310.995
311.065
311.076
310.966
310.712
310.437
310.217
309.957
309.689
309.473
309.418
309.581
307.821
307.709
307.694
307.641
307.631
307.635
307.806
307.837
307.854
307.913
307.921
307.833
307.667
307.474
307.326
307.143
306.915
306.773
306.72
306.855
304.679
304.615
304.619
304.584
304.587
304.587
304.7
304.705
304.714
304.745
304.769
304.679
304.606
304.485
304.413
304.314
304.168
304.067
304.033
304.129
301.574
301.544
301.544
301.534
301.54
301.536
301.595
301.59
301.577
301.583
301.596
301.568
301.544
301.504
301.482
301.45
301.403
301.369
301.346
301.39
324.12
323.657
323.485
323.355
323.405
323.519
323.758
323.929
324.08
324.031
324.019
323.844
323.377
322.817
322.322
321.63
321.236
320.94
320.856
321
320.849
320.498
320.338
320.211
320.289
320.41
320.564
320.721
320.866
320.818
320.811
320.674
320.274
319.779
319.369
318.768
318.419
318.148
318.081
318.191
317.59
317.349
317.211
317.076
317.186
317.301
317.382
317.526
317.626
317.62
317.612
317.5
317.157
316.749
316.406
315.911
315.576
315.334
315.301
315.419
314.374
314.19
314.086
313.959
314.064
314.158
314.188
314.346
314.383
314.424
314.418
314.295
314.035
313.713
313.426
313.038
312.737
312.534
312.53
312.661
311.164
311.031
310.957
310.851
310.925
310.998
311.028
311.149
311.151
311.249
311.234
311.113
310.936
310.662
310.446
310.153
309.882
309.743
309.752
309.878
307.943
307.884
307.83
307.766
307.793
307.849
307.869
307.95
307.972
308.04
308.03
307.93
307.82
307.614
307.48
307.268
307.041
306.982
306.971
307.064
304.769
304.727
304.709
304.665
304.685
304.702
304.722
304.771
304.799
304.82
304.841
304.753
304.707
304.568
304.487
304.366
304.211
304.202
304.193
304.255
301.602
301.584
301.573
301.566
301.573
301.578
301.586
301.606
301.602
301.614
301.626
301.592
301.582
301.531
301.502
301.466
301.409
301.408
301.41
301.426
324.625
324.226
324.048
323.841
323.903
323.988
324.132
324.395
324.566
324.547
324.512
324.336
323.748
323.39
322.768
322.071
321.69
321.408
321.39
321.54
321.29
320.971
320.837
320.623
320.689
320.791
320.905
321.127
321.275
321.285
321.238
321.104
320.595
320.303
319.756
319.169
318.821
318.553
318.556
318.665
317.961
317.714
317.632
317.433
317.5
317.611
317.684
317.855
317.997
318.017
318.004
317.871
317.421
317.223
316.732
316.26
315.943
315.692
315.716
315.811
314.647
314.459
314.417
314.231
314.295
314.431
314.47
314.599
314.715
314.733
314.748
314.657
314.247
314.106
313.701
313.318
313.064
312.865
312.878
312.94
311.375
311.235
311.216
311.066
311.116
311.255
311.248
311.374
311.454
311.469
311.491
311.426
311.075
310.98
310.669
310.378
310.163
310.017
310.017
310.065
308.129
308.032
308.007
307.882
307.956
308.056
308.021
308.134
308.194
308.194
308.202
308.167
307.913
307.854
307.647
307.417
307.285
307.158
307.163
307.18
304.885
304.817
304.81
304.736
304.789
304.847
304.804
304.874
304.921
304.933
304.926
304.908
304.743
304.721
304.6
304.458
304.401
304.284
304.305
304.303
301.642
301.614
301.616
301.578
301.604
301.622
301.618
301.626
301.652
301.649
301.658
301.664
301.595
301.587
301.55
301.504
301.471
301.445
301.44
301.447
324.981
324.716
324.531
324.337
324.365
324.547
324.55
324.797
324.865
325.034
324.838
324.514
324.223
323.829
323.159
322.63
322.244
322.042
322.049
322.178
321.587
321.378
321.246
321.091
321.064
321.273
321.279
321.49
321.541
321.708
321.537
321.265
320.999
320.678
320.109
319.642
319.271
319.128
319.118
319.23
318.239
318.079
317.965
317.851
317.797
318.002
318.021
318.179
318.226
318.373
318.228
318.007
317.785
317.517
317.032
316.631
316.311
316.185
316.193
316.284
314.884
314.774
314.707
314.612
314.552
314.741
314.728
314.886
314.9
315.05
314.914
314.769
314.572
314.358
313.945
313.612
313.344
313.214
313.276
313.323
311.547
311.475
311.44
311.381
311.313
311.466
311.449
311.581
311.576
311.736
311.61
311.508
311.348
311.187
310.865
310.596
310.389
310.259
310.317
310.38
308.231
308.193
308.185
308.15
308.067
308.187
308.161
308.268
308.284
308.393
308.309
308.229
308.115
307.996
307.779
307.569
307.438
307.315
307.369
307.423
304.943
304.924
304.916
304.902
304.836
304.9
304.896
304.959
304.983
305.044
304.981
304.945
304.87
304.794
304.677
304.539
304.478
304.389
304.427
304.461
301.662
301.649
301.647
301.646
301.618
301.635
301.633
301.656
301.671
301.695
301.668
301.659
301.631
301.602
301.564
301.519
301.504
301.47
301.484
301.505
325.579
325.377
325.171
324.888
324.835
324.944
325.033
325.05
325.347
325.278
325.226
324.96
324.463
323.97
323.526
323.096
322.677
322.547
322.545
322.638
322.097
321.949
321.776
321.568
321.493
321.578
321.687
321.699
321.956
321.924
321.883
321.641
321.206
320.765
320.398
320.027
319.646
319.547
319.533
319.614
318.658
318.533
318.41
318.236
318.159
318.238
318.34
318.381
318.574
318.57
318.512
318.312
317.968
317.559
317.279
316.965
316.634
316.566
316.54
316.589
315.246
315.132
315.041
314.916
314.822
314.925
315.019
315.032
315.172
315.223
315.165
314.96
314.723
314.368
314.145
313.891
313.643
313.596
313.55
313.571
311.852
311.738
311.702
311.607
311.526
311.629
311.704
311.681
311.802
311.862
311.789
311.622
311.463
311.183
311.02
310.802
310.622
310.585
310.554
310.559
308.456
308.38
308.347
308.311
308.228
308.308
308.371
308.359
308.453
308.475
308.429
308.291
308.178
307.992
307.881
307.704
307.597
307.553
307.568
307.514
305.087
305.009
305.013
305.005
304.938
304.995
305.014
305.029
305.082
305.098
305.058
304.953
304.914
304.801
304.739
304.608
304.558
304.536
304.55
304.503
301.709
301.671
301.678
301.667
301.654
301.675
301.686
301.691
301.704
301.707
301.686
301.655
301.64
301.608
301.591
301.534
301.529
301.517
301.537
301.507
326.235
325.958
325.649
325.447
325.285
325.4
325.554
325.51
325.618
325.581
325.528
325.259
324.799
324.401
323.951
323.472
323.126
323.015
323.079
323.165
322.65
322.462
322.225
322.02
321.88
321.99
322.13
322.078
322.199
322.163
322.104
321.903
321.504
321.151
320.776
320.348
320.025
319.953
320.008
320.086
319.105
318.993
318.778
318.616
318.491
318.611
318.695
318.66
318.772
318.757
318.69
318.549
318.187
317.913
317.613
317.221
316.932
316.898
316.95
316.99
315.58
315.518
315.36
315.236
315.105
315.248
315.271
315.233
315.38
315.34
315.256
315.188
314.893
314.648
314.439
314.082
313.882
313.844
313.892
313.903
312.129
312.051
311.94
311.858
311.726
311.871
311.86
311.85
311.984
311.922
311.848
311.821
311.58
311.383
311.252
310.965
310.824
310.771
310.809
310.823
308.675
308.591
308.515
308.474
308.368
308.488
308.469
308.489
308.572
308.511
308.446
308.431
308.291
308.134
308.04
307.846
307.747
307.701
307.712
307.723
305.221
305.139
305.099
305.073
305.044
305.088
305.082
305.108
305.162
305.111
305.077
305.061
304.991
304.889
304.828
304.738
304.651
304.623
304.624
304.643
301.761
301.719
301.7
301.7
301.68
301.706
301.71
301.717
301.737
301.723
301.698
301.698
301.678
301.634
301.617
301.581
301.558
301.563
301.534
301.567
326.756
326.552
326.131
325.909
325.865
325.867
325.962
325.903
326.057
325.951
325.876
325.648
325.206
324.866
324.337
324.073
323.766
323.646
323.611
323.737
323.115
322.99
322.613
322.411
322.372
322.433
322.493
322.443
322.555
322.475
322.437
322.233
321.839
321.548
321.075
320.861
320.599
320.485
320.452
320.546
319.49
319.432
319.098
318.959
318.891
318.972
319.014
318.967
319.073
319.006
318.973
318.778
318.483
318.244
317.826
317.657
317.428
317.337
317.292
317.386
315.911
315.894
315.624
315.515
315.435
315.507
315.532
315.508
315.61
315.546
315.488
315.361
315.116
314.954
314.582
314.476
314.263
314.189
314.156
314.207
312.357
312.352
312.129
312.066
311.99
312.044
312.041
312.057
312.154
312.113
312.03
311.943
311.761
311.633
311.356
311.291
311.096
311.05
311.031
311.045
308.813
308.801
308.642
308.611
308.544
308.592
308.602
308.617
308.701
308.669
308.59
308.528
308.376
308.307
308.13
308.101
307.919
307.904
307.895
307.901
305.298
305.28
305.166
305.17
305.126
305.158
305.174
305.167
305.231
305.213
305.152
305.119
305.036
304.984
304.884
304.875
304.759
304.755
304.748
304.755
301.775
301.771
301.721
301.736
301.726
301.726
301.737
301.733
301.759
301.747
301.724
301.716
301.678
301.674
301.639
301.628
301.587
301.592
301.602
301.597
327.402
327.108
326.867
326.553
326.383
326.418
326.302
326.4
326.549
326.356
326.214
325.945
325.547
325.286
324.832
324.598
324.298
324.202
324.131
324.208
323.681
323.444
323.242
322.968
322.845
322.858
322.77
322.875
322.982
322.838
322.715
322.477
322.124
321.916
321.497
321.319
321.052
320.981
320.892
320.943
319.999
319.782
319.634
319.413
319.32
319.319
319.252
319.357
319.398
319.313
319.24
319.008
318.714
318.552
318.189
318.057
317.811
317.759
317.678
317.696
316.305
316.145
316.059
315.86
315.811
315.801
315.742
315.829
315.856
315.803
315.74
315.561
315.31
315.21
314.895
314.772
314.587
314.528
314.478
314.438
312.639
312.562
312.481
312.325
312.278
312.268
312.218
312.31
312.335
312.311
312.231
312.096
311.905
311.853
311.606
311.499
311.342
311.308
311.279
311.236
309.016
308.992
308.921
308.797
308.768
308.757
308.706
308.801
308.809
308.787
308.747
308.619
308.52
308.48
308.316
308.222
308.094
308.084
308.091
308.032
305.408
305.4
305.358
305.276
305.261
305.263
305.229
305.29
305.273
305.262
305.25
305.172
305.14
305.109
304.996
304.937
304.855
304.847
304.869
304.835
301.809
301.811
301.792
301.768
301.759
301.763
301.74
301.774
301.769
301.763
301.753
301.737
301.724
301.712
301.681
301.648
301.637
301.625
301.637
301.624
327.875
327.541
327.437
327.101
326.861
326.79
326.819
326.781
326.823
326.657
326.549
326.235
325.991
325.649
325.365
324.94
324.762
324.656
324.598
324.725
324.056
323.808
323.721
323.451
323.241
323.175
323.181
323.17
323.227
323.106
323.004
322.72
322.511
322.231
321.959
321.601
321.445
321.352
321.285
321.377
320.29
320.096
320.009
319.788
319.646
319.575
319.564
319.583
319.653
319.538
319.478
319.228
319.045
318.812
318.579
318.269
318.154
318.046
318
318.064
316.549
316.424
316.318
316.163
316.062
316.009
315.996
316.027
316.082
315.972
315.954
315.762
315.589
315.402
315.21
314.937
314.881
314.763
314.717
314.756
312.833
312.767
312.687
312.562
312.498
312.438
312.434
312.479
312.511
312.417
312.419
312.265
312.104
312.004
311.842
311.604
311.568
311.49
311.467
311.446
309.15
309.115
309.041
308.943
308.939
308.871
308.868
308.932
308.941
308.88
308.86
308.77
308.653
308.582
308.478
308.289
308.256
308.195
308.208
308.169
305.493
305.473
305.43
305.362
305.368
305.312
305.33
305.371
305.374
305.334
305.321
305.286
305.195
305.16
305.1
304.972
304.937
304.905
304.933
304.904
301.848
301.833
301.818
301.789
301.789
301.768
301.782
301.802
301.806
301.781
301.782
301.769
301.748
301.73
301.704
301.666
301.648
301.647
301.651
301.644
328.309
327.924
327.802
327.449
327.214
327.139
327.085
327.083
327.037
326.93
326.942
326.512
326.161
325.96
325.736
325.139
325.053
324.969
325.148
325.118
324.444
324.089
324.052
323.709
323.532
323.474
323.403
323.436
323.373
323.28
323.308
322.941
322.66
322.461
322.266
321.748
321.675
321.621
321.736
321.695
320.616
320.311
320.316
320.004
319.863
319.814
319.75
319.802
319.757
319.669
319.694
319.385
319.191
319.002
318.822
318.369
318.327
318.268
318.364
318.297
316.821
316.579
316.575
316.326
316.218
316.17
316.133
316.205
316.145
316.065
316.109
315.848
315.711
315.558
315.399
315.019
314.972
314.94
315.017
314.914
313.052
312.892
312.856
312.674
312.605
312.55
312.557
312.602
312.554
312.495
312.528
312.32
312.222
312.099
311.971
311.68
311.65
311.605
311.659
311.568
309.316
309.201
309.163
309.045
308.994
308.95
308.986
308.999
308.983
308.913
308.97
308.798
308.713
308.634
308.536
308.358
308.322
308.284
308.325
308.266
305.588
305.516
305.484
305.431
305.387
305.376
305.395
305.407
305.391
305.337
305.409
305.294
305.222
305.183
305.119
305.009
304.993
304.985
305.009
304.951
301.868
301.839
301.839
301.822
301.797
301.805
301.802
301.818
301.806
301.78
301.823
301.775
301.747
301.736
301.718
301.67
301.674
301.661
301.682
301.658
)
;

boundaryField
{
    hotSide
    {
        type            fixedGradient;
        gradient        nonuniform List<scalar> 
400
(
218.02
218.215
219.495
221.832
225.115
229.188
233.883
239.048
244.558
250.314
256.246
262.302
268.451
274.675
280.969
287.34
293.799
300.363
307.046
313.856
209.897
210.205
211.673
214.266
217.849
222.237
227.239
232.684
238.436
244.395
250.488
256.664
262.895
269.167
275.48
281.847
288.286
294.821
301.472
308.252
204.731
205.26
206.936
209.717
213.469
218.007
223.138
228.69
234.527
240.544
246.666
252.846
259.054
265.281
271.53
277.817
284.165
290.6
297.148
303.822
202.323
203.176
205.084
208.003
211.817
216.365
221.472
226.981
232.757
238.696
244.724
250.792
256.873
262.958
269.054
275.18
281.36
287.623
293.994
300.489
201.918
203.156
205.333
208.402
212.262
216.78
221.807
227.199
232.833
238.606
244.447
250.308
256.166
262.016
267.87
273.749
279.682
285.697
291.82
298.072
202.655
204.306
206.795
210.067
214.033
218.572
223.552
228.842
234.323
239.9
245.503
251.091
256.648
262.179
267.705
273.256
278.865
284.564
290.382
296.343
203.814
205.884
208.723
212.267
216.426
221.082
226.104
231.361
236.734
242.128
247.477
252.751
257.95
263.095
268.224
273.379
278.604
283.938
289.414
295.055
204.832
207.306
210.513
214.384
218.82
223.694
228.864
234.185
239.522
244.774
249.878
254.82
259.623
264.336
269.022
273.743
278.555
283.506
288.632
293.958
205.252
208.079
211.637
215.851
220.612
225.779
231.188
236.665
242.046
247.209
252.096
256.71
261.111
265.386
269.628
273.924
278.343
282.94
287.751
292.802
204.703
207.785
211.617
216.123
221.186
226.653
232.332
238.014
243.497
248.63
253.351
257.689
261.745
265.648
269.523
273.478
277.592
281.921
286.505
291.364
202.921
206.106
210.07
214.735
219.981
225.646
231.522
237.371
242.96
248.114
252.765
256.963
260.836
264.543
268.231
272.017
275.987
280.199
284.691
289.481
199.8
202.902
206.809
211.443
216.683
222.361
228.266
234.157
239.8
245.018
249.739
254.011
257.957
261.735
265.491
269.344
273.379
277.659
282.222
287.088
195.436
198.272
201.941
206.364
211.418
216.938
222.72
228.543
234.195
239.519
244.442
248.988
253.248
257.347
261.411
265.55
269.85
274.374
279.164
284.245
190.141
192.567
195.87
199.973
204.753
210.046
215.662
221.4
227.078
232.555
237.759
242.685
247.383
251.94
256.454
261.017
265.712
270.601
275.733
281.135
184.428
186.355
189.236
192.996
197.512
202.617
208.122
213.84
219.6
225.274
230.784
236.103
241.252
246.285
251.274
256.298
261.43
266.735
272.264
278.047
179.012
180.403
182.861
186.319
190.64
195.644
201.129
206.903
212.798
218.686
224.484
230.154
235.698
241.148
246.56
252
257.54
263.246
269.17
275.345
174.831
175.699
177.768
180.977
185.17
190.137
195.654
201.513
207.543
213.614
219.643
225.585
231.431
237.203
242.944
248.717
254.593
260.64
266.915
273.451
173.007
173.421
175.146
178.124
182.182
187.081
192.578
198.454
204.537
210.699
216.856
222.963
229.003
234.992
240.967
246.983
253.112
259.424
265.979
272.809
174.533
174.622
176.043
178.743
182.551
187.231
192.542
198.271
204.25
210.357
216.507
222.654
228.778
234.887
241.009
247.195
253.508
260.013
266.767
273.796
179.713
179.623
180.775
183.127
186.54
190.815
195.743
201.135
206.835
212.727
218.731
224.795
230.896
237.033
243.228
249.517
255.95
262.579
269.446
276.571
)
;
    }
    coldSide
    {
        type            mixed;
        refValue        uniform 300;
        refGradient     uniform 0;
        valueFraction   uniform 0.991591;
        source          uniform 0;
        value           nonuniform List<scalar> 
400
(
300.011
300.011
300.011
300.011
300.011
300.012
300.012
300.012
300.013
300.013
300.013
300.013
300.014
300.014
300.014
300.015
300.015
300.015
300.016
300.016
300.011
300.011
300.011
300.011
300.011
300.012
300.012
300.012
300.012
300.013
300.013
300.013
300.014
300.014
300.014
300.014