/*--------------------------------*- C++ -*----------------------------------*\
| =========                 |                                                 |
| \\      /  F ield         | OpenFOAM: The Open Source CFD Toolbox           |
|  \\    /   O peration     | Version:  2212                                  |
|   \\  /    A nd           | Website:  www.openfoam.com                      |
|    \\/     M anipulation  |                                                 |
\*---------------------------------------------------------------------------*/
FoamFile
{
    version     2.0;
    format      ascii;
    arch        "LSB;label=32;scalar=64";
    class       volScalarField;
    location    "0";
    object      relativeErrorField;
}
// * * * * * * * * * * * * * * * * * * * * * * * * * * * * * * * * * * * * * //

dimensions      [0 0 0 1 0 0 0];

internalField   nonuniform List<scalar> 
3200
(
0.0052905
0.00424573
0.00334878
0.00320276
0.00335534
0.00412982
0.00463868
0.00569553
0.00624167
0.00669471
0.00703223
0.00689436
0.00659065
0.00627272
0.00582434
0.00562995
0.00585266
0.00645243
0.00766129
0.00864116
0.00400585
0.00324621
0.00264051
0.00264095
0.00260738
0.00303901
0.00368735
0.0044696
0.00527981
0.00547643
0.00566173
0.00567048
0.00537882
0.00501912
0.00441889
0.0047483
0.00480558
0.00537602
0.00599396
0.00714528
0.00349962
0.00273979
0.00215754
0.00191612
0.00204904
0.0023698
0.00291595
0.00351086
0.00408693
0.00427808
0.00425245
0.00445376
0.00432592
0.00398281
0.0036973
0.00360224
0.00372114
0.00401696
0.00480198
0.00562873
0.00283304
0.00216582
0.00168473
0.0016861
0.00156757
0.00196547
0.00221518
0.00266431
0.00332654
0.00343336
0.00358613
0.0036641
0.0032129
0.00319448
0.00293469
0.00285013
0.00270244
0.00343056
0.00396092
0.0044625
0.00215297
0.00170468
0.00128031
0.00112447
0.00124134
0.00130918
0.00182299
0.0021763
0.00217406
0.0025819
0.00264106
0.00287995
0.00261886
0.00232584
0.0022239
0.0019714
0.00204668
0.00236579
0.00284141
0.00305353
0.001423
0.001222
0.000544392
0.000843522
0.000620449
0.00101984
0.00120419
0.0014224
0.00161641
0.00174838
0.0020142
0.00189732
0.00181723
0.0015991
0.00120893
0.00119749
0.00148378
0.00187349
0.00200248
0.00228533
0.000941171
0.000773575
0.000465206
0.000420709
0.000389257
0.000645309
0.00048872
0.000902744
0.0011356
0.00119665
0.000962027
0.00110967
0.000922402
0.000979842
0.000982733
0.00080003
0.000774369
0.00101336
0.00129382
0.00160273
0.00024809
0.000284854
0.000283339
8.16673e-06
0.000501452
0.000277992
0.000356509
0.000175984
0.000376634
0.000390687
0.000236214
0.000294717
0.000204904
0.000436597
0.000545658
0.000245515
0.000355481
0.000278904
0.000462501
0.000669317
0.00266857
0.00158853
0.000675807
0.000333349
0.000643295
0.000968876
0.00152309
0.00242195
0.00310003
0.00345208
0.00364648
0.00384196
0.00327646
0.00303353
0.00278884
0.00295348
0.00284561
0.0035783
0.0047412
0.00588218
0.00216224
0.0011844
0.000621665
0.000182329
0.000281892
0.000630554
0.00152351
0.00158826
0.00251761
0.00309276
0.00289032
0.00297732
0.0026571
0.00239818
0.00217671
0.00220611
0.00228111
0.00280538
0.00361
0.0049313
0.00165672
0.00102936
0.000332597
8.16062e-05
3.32774e-05
0.000229165
0.000876246
0.0011497
0.00168626
0.00215102
0.00240196
0.00218746
0.00219215
0.00177407
0.00163606
0.00136645
0.00155432
0.0020732
0.0028922
0.0039854
0.00111005
0.00073967
2.49192e-05
0.000164943
0.000119066
0.000241159
0.000603322
0.00088689
0.00134413
0.00164559
0.00183622
0.00174857
0.00168589
0.00133374
0.00113628
0.00119437
0.00119098
0.00175938
0.00239232
0.00306832
0.000936372
0.000662485
9.62696e-05
5.45192e-05
2.99035e-05
4.4035e-05
0.000319764
0.000566262
0.00122296
0.00126321
0.00135465
0.0012358
0.00103076
0.00117919
0.000818291
0.000681547
0.000901796
0.00138754
0.00168506
0.00243249
0.000445934
0.000417876
5.86171e-05
5.35524e-05
0.000114347
0.000150761
0.000399749
0.000490482
0.000481111
0.000976713
0.000977555
0.000995882
0.000580367
0.000716712
0.000601162
0.000540953
0.000525397
0.000736672
0.00111029
0.00163638
0.000437106
7.48301e-05
3.99269e-05
0.00025201
0.000162931
0.000139496
0.00017314
0.000246526
0.000685321
0.000462128
0.000397985
0.000603587
0.000285425
0.000425825
0.000317156
0.000434405
0.000250006
0.000594383
0.000606968
0.00108495
6.97718e-05
8.03445e-06
1.25223e-05
7.07321e-05
1.42552e-07
0.0001969
9.56232e-05
0.00037208
0.000147187
0.000177323
0.000365567
0.000145197
0.000104326
4.30451e-05
2.15337e-05
0.000109142
0.000154298
0.000245593
0.000273787
0.000258608
0.000433395
0.00154327
0.00258273
0.00303632
0.00334213
0.00275121
0.00199579
0.00156511
0.00108171
0.000385571
0.000106701
0.000340461
0.000565408
0.000830698
0.00110994
0.000850563
0.000296492
0.000275401
0.00162966
0.00287315
0.000627939
0.00142237
0.00228836
0.00283301
0.00309855
0.00262537
0.00211879
0.00139157
0.00106129
0.000631261
0.000678025
0.000548144
0.000986825
0.000968249
0.00115776
0.00105042
0.000782276
0.000144663
0.000877398
0.00226165
0.000749261
0.00123503
0.00208013
0.00249789
0.00260006
0.00236071
0.00208903
0.00151287
0.0012103
0.000826159
0.000716535
0.000623316
0.000867168
0.00122583
0.00141728
0.000971777
0.00101906
0.000292444
0.000665774
0.00168561
0.000490244
0.0010165
0.00203771
0.00213886
0.002413
0.00198253
0.00188278
0.00123533
0.00102605
0.000823481
0.000612778
0.000815784
0.000818508
0.00110743
0.0011978
0.000973951
0.000879918
0.00055589
0.00042503
0.00112585
0.000515647
0.000887783
0.00142684
0.00177712
0.00206312
0.00146999
0.00151803
0.00100451
0.0011163
0.000769193
0.000626213
0.000754825
0.000914498
0.00101101
0.0010036
0.00102087
0.000656241
0.00030633
0.000545042
0.000720791
0.000253575
0.000840799
0.0011089
0.00114586
0.00141279
0.00134387
0.00107211
0.000879307
0.00076701
0.000624734
0.000717232
0.000403408
0.00063984
0.00082248
0.000838104
0.000329307
0.000663574
0.000390517
0.000154782
0.000417041
0.000144239
0.000417808
0.000570716
0.000929564
0.000841006
0.00070207
0.000778291
0.000791622
0.000328585
0.000522856
0.000404877
0.000349982
0.000538208
0.000218107
0.000444828
0.000425508
0.000399711
0.00023666
0.000163147
0.000130319
0.000158507
9.16111e-05
3.84499e-05
0.000277922
0.000259181
0.000195802
0.000202114
0.000212791
6.9824e-05
0.000183951
0.000189856
4.1333e-05
0.000166362
8.48369e-05
0.000111358
0.000345075
1.91611e-05
1.31675e-05
1.23793e-05
0.000132506
0.00343813
0.00475195
0.00575524
0.00638042
0.00662476
0.00633623
0.00609888
0.00550583
0.00486597
0.00473484
0.00436348
0.00415289
0.00444245
0.0045594
0.00474802
0.00439823
0.00394753
0.0031188
0.00169913
0.000287118
0.00306479
0.00410875
0.00528576
0.00587219
0.00610457
0.00585381
0.00554656
0.00509209
0.00451673
0.00418982
0.0039868
0.00412832
0.00419307
0.00424508
0.00447893
0.00428991
0.00381192
0.00293301
0.00181499
0.000571694
0.00261061
0.00360336
0.00449311
0.00508433
0.00516184
0.00513409
0.004858
0.00459005
0.00407756
0.00370004
0.00352309
0.00368242
0.00382044
0.00399318
0.00407931
0.0040195
0.00327647
0.00289635
0.00193546
0.000645524
0.00245363
0.00307342
0.00376667
0.00416034
0.0045463
0.00436032
0.0040486
0.00367623
0.00338981
0.00324198
0.00313897
0.00332872
0.0032124
0.00337107
0.0034877
0.00334071
0.00307453
0.00231345
0.00183488
0.000839027
0.00204285
0.00248426
0.00290684
0.00363361
0.00365987
0.00356072
0.00353385
0.00327819
0.00301112
0.00256709
0.00253371
0.00248583
0.00276994
0.00301832
0.00295941
0.00283743
0.00254161
0.0019699
0.00133484
0.000897721
0.00145486
0.00174728
0.00239087
0.0025737
0.00262936
0.00247286
0.00254529
0.0022429
0.00216452
0.00204611
0.0019313
0.00203817
0.00209809
0.00192902
0.00200771
0.00213181
0.00188601
0.00142468
0.00105586
0.000747262
0.000826141
0.00109361
0.0013674
0.00144202
0.00149883
0.00158477
0.00168204
0.00123646
0.00130892
0.00117948
0.00101322
0.00120044
0.00105003
0.00126947
0.00149337
0.00122316
0.0013807
0.000943603
0.000718055
0.000290994
0.0003575
0.000448738
0.000368187
0.000356861
0.000588527
0.000562599
0.000599146
0.000271035
0.000574241
0.000524151
0.000368349
0.000136733
0.000337401
0.000652146
0.000440406
0.000474852
0.000408966
3.00452e-06
0.000235135
0.000165895
0.0057957
0.00726549
0.00841251
0.00941776
0.0097721
0.00969262
0.0094474
0.00908086
0.00874536
0.00831075
0.00794018
0.00798461
0.00805528
0.00797703
0.00803774
0.00774122
0.0069426
0.0059925
0.00449454
0.00286555
0.00485803
0.00653345
0.00761192
0.00843853
0.00879334
0.00882524
0.00853609
0.00797878
0.00774103
0.00740659
0.00747843
0.00737034
0.00726228
0.00747465
0.00741868
0.00717735
0.00634041
0.00542742
0.00405097
0.00296276
0.00467513
0.00560365
0.00658665
0.0071318
0.00759712
0.00754947
0.00754206
0.00716405
0.00675909
0.00672041
0.00654036
0.00622006
0.00658323
0.00659329
0.00638282
0.00642019
0.00572993
0.00517296
0.00385077
0.00274841
0.00392437
0.00444099
0.00559193
0.00607669
0.00626511
0.00636743
0.00624564
0.00610603
0.00580814
0.00571949
0.00543007
0.00549825
0.0053913
0.00577292
0.00556979
0.00538839
0.005023
0.00408274
0.00324952
0.00237207
0.0030441
0.00371513
0.0042386
0.00486816
0.00518435
0.00524904
0.00487998
0.00479164
0.0045968
0.00469734
0.00456299
0.00449284
0.00442606
0.00445581
0.00465211
0.00412484
0.00410211
0.00332846
0.00278728
0.00188044
0.00225216
0.00271622
0.00332324
0.00376636
0.00379904
0.00358209
0.00376467
0.00338269
0.00335306
0.00326056
0.00313047
0.00317435
0.00338138
0.00331252
0.00317664
0.0032542
0.00288665
0.00279949
0.00193139
0.00157201
0.00128687
0.00153186
0.00212372
0.0020105
0.00230744
0.00227325
0.00239462
0.00218109
0.00226239
0.00204843
0.00185267
0.00216781
0.00201035
0.00213364
0.00194215
0.00203276
0.00193377
0.00151351
0.0010496
0.00110627
0.000604973
0.000621121
0.000620531
0.00078001
0.000798718
0.000521468
0.0010012
0.000843531
0.000531998
0.000671181
0.000670494
0.000638678
0.000826563
0.000772262
0.000698308
0.000610246
0.000665198
0.000669369
0.000457342
7.33806e-05
0.00766638
0.00919589
0.0107622
0.0115571
0.0122266
0.0123937
0.0123006
0.0121036
0.0116189
0.0116243
0.0113428
0.0112158
0.0111366
0.01089
0.0106963
0.0103676
0.00939709
0.00831564
0.00668883
0.00475977
0.00671659
0.00813568
0.0094131
0.0105071
0.011196
0.0112153
0.0109904
0.0108492
0.0104955
0.0102892
0.0101741
0.0101043
0.0100644
0.0100049
0.00986381
0.00933473
0.00846482
0.007408
0.00599022
0.00451205
0.00601055
0.00711113
0.00828752
0.00920113
0.00940103
0.00959239
0.00972664
0.00942407
0.00916116
0.00891378
0.00889271
0.00891151
0.00901128
0.00880006
0.00872084
0.00836702
0.00752118
0.00672333
0.00532765
0.00422098
0.00499245
0.00589491
0.00689754
0.00751926
0.00781563
0.00822707
0.00817302
0.008122
0.00771731
0.00760948
0.00768539
0.00734602
0.00752936
0.00743923
0.00744332
0.00705645
0.00651295
0.00565604
0.00457329
0.00355644
0.00387888
0.00496498
0.00548755
0.00585242
0.00642402
0.00631668
0.00649356
0.00657313
0.00618936
0.00605949
0.00597277
0.00599537
0.00590951
0.00590529
0.00586139
0.00554319
0.00537582
0.00462448
0.00369907
0.00293748
0.0032429
0.00364721
0.00416203
0.0043099
0.00465103
0.00464009
0.00468217
0.00460406
0.00452519
0.00468576
0.00453
0.00424157
0.00414647
0.00438674
0.00451956
0.00402751
0.00410042
0.00337348
0.00263973
0.00222838
0.0017707
0.0020431
0.00251345
0.0026271
0.00272373
0.00280984
0.00281805
0.00292688
0.00306371
0.00293568
0.00271934
0.00305496
0.00262305
0.00270536
0.00272294
0.00250501
0.00253647
0.00211416
0.0016016
0.00131028
0.000647351
0.00077114
0.00095379
0.00116897
0.00105604
0.0010769
0.00103873
0.000932698
0.000956777
0.000926516
0.000970041
0.00108882
0.00076788
0.000885341
0.000825736
0.00103747
0.00091343
0.000811018
0.000537959
0.000529679
0.00870202
0.0104285
0.0120295
0.0134774
0.0141678
0.0145374
0.0146551
0.0144671
0.0142452
0.0140864
0.0138725
0.0136097
0.0136931
0.0134107
0.012942
0.0122382
0.0111127
0.00988437
0.0079058
0.00594795
0.00776923
0.00904759
0.011037
0.0119214
0.0125339
0.012927
0.0129677
0.0128037
0.0128617
0.0125891
0.0124217
0.0124836
0.0122508
0.0120048
0.0114784
0.011066
0.0102609
0.00869498
0.00726552
0.00548712
0.00659156
0.00802124
0.00936215
0.0103016
0.0107613
0.0113581
0.0114515
0.0114425
0.011451
0.0108932
0.0110091
0.0107801
0.0106505
0.010329
0.0103682
0.00979882
0.00905105
0.00783537
0.00655185
0.00509863
0.00570092
0.00671939
0.00790544
0.00868717
0.00928529
0.00961836
0.00939196
0.00955094
0.00956373
0.00943247
0.00922415
0.0090421
0.00903925
0.00899836
0.00851691
0.00828289
0.00743345
0.00666488
0.00538587
0.00433293
0.00454242
0.00529271
0.00618553
0.00683992
0.00741168
0.00769357
0.00785
0.007615
0.00737984
0.00736995
0.00742323
0.00727259
0.00726352
0.00707753
0.00696093
0.00662216
0.00609406
0.00527361
0.00450381
0.0035078
0.00322528
0.00404684
0.00447807
0.00505471
0.00533992
0.00552807
0.00551043
0.00552449
0.00554515
0.00543344
0.00534504
0.00524152
0.00517874
0.00529364
0.00517072
0.00508479
0.00447383
0.00398469
0.00316674
0.00266655
0.00228062
0.0022849
0.00268875
0.00309555
0.00325977
0.00346692
0.00338495
0.00337001
0.00344433
0.00341236
0.00329009
0.00330075
0.00310473
0.00327381
0.00320449
0.00288372
0.00266763
0.00226826
0.0021097
0.00172292
0.000738185
0.00100689
0.000700385
0.00100434
0.00126629
0.000983101
0.00137051
0.00113931
0.00103487
0.00120685
0.000826126
0.00135241
0.0011122
0.00119403
0.00107158
0.000967466
0.000943861
0.000996036
0.000673257
0.000430969
0.00931744
0.011027
0.0127722
0.0141889
0.0153083
0.0158938
0.0163539
0.0162338
0.0160327
0.0160104
0.0158991
0.0154295
0.0154163
0.0150381
0.0143419
0.0137021
0.0123442
0.0108388
0.00873022
0.00639762
0.00843615
0.00992211
0.0113631
0.0125741
0.0136831
0.0144459
0.014588
0.014524
0.0146207
0.0140879
0.0140677
0.0140778
0.0137154
0.0134136
0.0128431
0.0123347
0.0111403
0.00963117
0.00784252
0.00600596
0.00697831
0.00862636
0.00981038
0.0109763
0.0119235
0.0122193
0.0124345
0.012782
0.0124464
0.0124496
0.0121737
0.0123495
0.0120961
0.0118387
0.0114274
0.0104902
0.00966186
0.00854533
0.00691069
0.00535833
0.00603149
0.00731258
0.00831877
0.00929373
0.00998244
0.0103993
0.0105193
0.0106299
0.0104809
0.0104112
0.0104355
0.0105155
0.0101453
0.00977208
0.00962007
0.00915033
0.00807846
0.00726563
0.00584222
0.00475011
0.00462891
0.00572374
0.0065333
0.00741485
0.00790538
0.00828762
0.00854494
0.00822389
0.00826472
0.00846421
0.00837433
0.00839208
0.00823934
0.00809855
0.00786565
0.00728443
0.00656907
0.00573057
0.00492113
0.00368146
0.00345911
0.00416025
0.00488138
0.00544437
0.00577649
0.00611112
0.00625362
0.00620284
0.00616646
0.00629083
0.00608083
0.00604747
0.00593667
0.00581217
0.00553536
0.0053746
0.00498355
0.00428015
0.00348868
0.00277295
0.00223978
0.0027893
0.0028359
0.00344314
0.0034657
0.0036831
0.00394787
0.00378632
0.003773
0.00382642
0.00377145
0.00373866
0.00367451
0.00376904
0.00346214
0.00321469
0.00320477
0.00258214
0.00208487
0.00182488
0.000797233
0.000828112
0.000992919
0.00115028
0.00123414
0.00130785
0.00147112
0.00142839
0.00126643
0.00129069
0.00117406
0.00120648
0.00130848
0.00133459
0.00109828
0.00114053
0.00107174
0.000915243
0.000728953
0.000620476
0.00859799
0.0107077
0.0128803
0.0144221
0.0157282
0.0165139
0.0171265
0.0171096
0.0172845
0.0170847
0.0168917
0.0166121
0.0165875
0.0158783
0.0151314
0.0140587
0.012559
0.0108736
0.0084853
0.00636418
0.0078913
0.00963952
0.011314
0.0128967
0.0139996
0.0146787
0.0152302
0.0152205
0.0152566
0.0151432
0.0153578
0.0150468
0.0148763
0.014308
0.013687
0.0127744
0.0115542
0.00957937
0.00785126
0.00582706
0.00670749
0.00834957
0.00975414
0.0111938
0.0121548
0.0128465
0.0129763
0.013504
0.0134865
0.0132502
0.0135333
0.0131888
0.012953
0.0124707
0.0120798
0.0113238
0.0101242
0.00857277
0.00702989
0.00552429
0.00581528
0.00715334
0.00829862
0.00930652
0.0101251
0.0108908
0.0110008
0.0113033
0.0112637
0.0113463
0.0111564
0.0111487
0.0108982
0.0106704
0.00998482
0.00930742
0.0083036
0.0072739
0.00603448
0.00460606
0.00453372
0.0055222
0.00655478
0.00750353
0.00824257
0.00873027
0.00865841
0.00904318
0.00905682
0.00888216
0.00880519
0.00881174
0.00860621
0.0084166
0.00797615
0.00741049
0.0068086
0.00571979
0.00465349
0.00361221
0.00311791
0.00402521
0.00502268
0.00540952
0.00599122
0.00632706
0.00642313
0.00650513
0.00669361
0.00648115
0.00673417
0.00650985
0.006502
0.00603624
0.00587339
0.00556301
0.00488239
0.00433978
0.00339495
0.00267266
0.00194066
0.00249661
0.00284287
0.00362362
0.00366095
0.00400683
0.0040775
0.00398669
0.00383714
0.00411333
0.00405675
0.00399408
0.00395073
0.003907
0.00363891
0.00354038
0.00312651
0.00272315
0.00199033
0.00174099
0.000829689
0.00104877
0.00104027
0.000888276
0.00127541
0.00128863
0.00149121
0.00137952
0.00143142
0.00123468
0.00137541
0.00142278
0.00153327
0.00123604
0.00128425
0.00108386
0.00097571
0.000922725
0.00104452
0.000469074
0.00778565
0.00975451
0.0120927
0.0141348
0.0153026
0.0164638
0.0167483
0.0172801
0.0175665
0.0174412
0.0173462
0.0170204
0.0166466
0.0159387
0.0151029
0.0137688
0.0122287
0.0102412
0.00778301
0.00548435
0.00675506
0.0089867
0.0106752
0.0124614
0.0135429
0.0145932
0.0150701
0.0155345
0.0158259
0.0157489
0.0155149
0.0150814
0.0150203
0.0143644
0.0136728
0.0124656
0.011068
0.00933974
0.00706521
0.00513207
0.00609126
0.00755735
0.00929278
0.0107748
0.0118259
0.0125308
0.0131979
0.0135215
0.0134451
0.0136185
0.0135567
0.0133928
0.0130063
0.0126451
0.0118121
0.0108973
0.00982487
0.00798139
0.00645212
0.00452798
0.00515229
0.00662818
0.00775008
0.00900162
0.010023
0.0106464
0.0110487
0.0113451
0.0113349
0.0113167
0.0114242
0.0110731
0.0108845
0.0104128
0.00985911
0.00918551
0.00809915
0.00686168
0.00520867
0.00383451
0.00390933
0.00499635
0.0060909
0.00696027
0.00804175
0.00848018
0.00889546
0.00886955
0.00923346
0.00917876
0.00900773
0.00909344
0.00893449
0.00847016
0.00805618
0.00735818
0.00654462
0.00568946
0.00454941
0.00342865
0.00295523
0.00357322
0.004408
0.00532798
0.00593324
0.00622832
0.00636621
0.00652053
0.00683888
0.00664243
0.00660496
0.0065844
0.0064205
0.00636133
0.00580206
0.0056435
0.00473043
0.00404793
0.00318816
0.00253096
0.00173722
0.00234932
0.00286025
0.00325505
0.00345078
0.00393974
0.00373409
0.00412673
0.00429569
0.00413889
0.00412532
0.00430504
0.00405667
0.0036239
0.0036653
0.00328192
0.00313474
0.00257231
0.00206093
0.00128081
0.000779373
0.000855737
0.00101748
0.00102228
0.00140151
0.00137955
0.00134597
0.00146597
0.00142172
0.00162493
0.00147516
0.00138429
0.00150483
0.00134449
0.00114522
0.000970916
0.00121507
0.000955218
0.000567723
0.000533962
0.0056449
0.0082188
0.0105141
0.0127624
0.0140876
0.0153801
0.0162421
0.0166582
0.0167088
0.0169676
0.0167692
0.0164946
0.0160094
0.0151547
0.0142213
0.0128471
0.0110771
0.00868401
0.00620655
0.00371159
0.00513617
0.00707695
0.00930006
0.0111689
0.0126861
0.013875
0.0144876
0.014804
0.0149948
0.0153133
0.0152039
0.0148471
0.0144858
0.0137068
0.012753
0.0116222
0.00998208
0.00802693
0.0057613
0.00358354
0.00446534
0.00631662
0.00787014
0.00969295
0.0110686
0.0117532
0.0127038
0.0129201
0.0131725
0.0131005
0.013186
0.0129417
0.0127076
0.0121168
0.0113034
0.0101904
0.00894398
0.0069572
0.0051199
0.00328056
0.00373602
0.00515693
0.00698414
0.00809955
0.00925756
0.0100025
0.0105265
0.0109423
0.0111273
0.011105
0.0111784
0.0108494
0.0108337
0.0103044
0.00947241
0.00851992
0.00750235
0.00600707
0.00433045
0.00275055
0.00288693
0.00393492
0.00542829
0.0065273
0.00725035
0.00796764
0.0084947
0.00863785
0.00862889
0.00901347
0.00879703
0.00892366
0.00856897
0.00827298
0.00751022
0.00699809
0.00602229
0.0047134
0.00331144
0.00251182
0.00225829
0.00293515
0.00413158
0.00475166
0.00530754
0.00578569
0.00617311
0.00645597
0.00651134
0.00664395
0.00648561
0.00666195
0.00640146
0.00610522
0.00554496
0.00512389
0.00449924
0.00343057
0.00263904
0.00173852
0.00157377
0.00185704
0.00247739
0.00294572
0.00339815
0.00364901
0.00379915
0.00400741
0.00405391
0.00409883
0.00373596
0.00413826
0.00380858
0.00360982
0.00350724
0.00307127
0.00282762
0.00224932
0.00132974
0.0010121
0.000599396
0.000467235
0.000941327
0.00107139
0.00109114
0.00126629
0.00141525
0.00145597
0.00129831
0.00136846
0.00115928
0.00140451
0.00143047
0.00117681
0.00115888
0.00100363
0.000927976
0.000723266
0.000823314
0.000417671
0.00307669
0.00582846
0.00826031
0.010537
0.0124953
0.0136336
0.014497
0.0151813
0.0154581
0.0157828
0.0153684
0.0152026
0.0147573
0.0136292
0.0125289
0.0109024
0.00919905
0.00647794
0.00389413
0.00117882
0.00269807
0.00489195
0.00707628
0.00942759
0.0109753
0.0120979
0.0130502
0.0136354
0.0138063
0.013873
0.0139229
0.0136422
0.0132346
0.0124855
0.0112802
0.00982475
0.00810037
0.00634974
0.00343913
0.00157943
0.00226725
0.00423869
0.00643834
0.00805365
0.00951685
0.0107265
0.0112598
0.0118208
0.0122339
0.0123599
0.0120123
0.0118916
0.0116161
0.010924
0.00994317
0.0086833
0.00718886
0.00539099
0.00325049
0.00145608
0.00216748
0.0034385
0.00523846
0.00696361
0.00796256
0.00890519
0.00951346
0.00991197
0.0100814
0.0101571
0.0103076
0.0100125
0.00970103
0.00930106
0.0084107
0.00723542
0.00630975
0.00464685
0.00298249
0.00135594
0.00148326
0.00299109
0.00413599
0.005389
0.00621749
0.00725244
0.00747415
0.00792311
0.00817089
0.00808826
0.00812477
0.00812232
0.00773135
0.00730564
0.00672431
0.00600386
0.00510612
0.00373752
0.00232508
0.000946294
0.00118706
0.00200177
0.00288815
0.00390732
0.0045852
0.00515886
0.00540124
0.00571054
0.00595697
0.00597397
0.00602457
0.0057715
0.0058455
0.00532935
0.00511045
0.00465642
0.00373744
0.002705
0.00167985
0.000902108
0.000791062
0.00130011
0.00197015
0.00258239
0.00287181
0.00325129
0.00345643
0.00355418
0.00368998
0.00369173
0.0037893
0.00339818
0.00344081
0.00327633
0.00290618
0.00281087
0.00216023
0.00183018
0.00113063
0.000749748
0.000293368
0.00033098
0.00050745
0.000737311
0.00117351
0.00112195
0.0010661
0.00130426
0.00123103
0.00148013
0.00135667
0.00135467
0.00109694
0.00109774
0.00110064
0.00100061
0.000695972
0.000605259
0.000222179
0.000187979
0.000421531
0.00218377
0.00504524
0.00718577
0.00934588
0.0108466
0.0121975
0.0127349
0.0132306
0.0136171
0.0132104
0.0131509
0.0123654
0.0113577
0.0100715
0.00820363
0.00627352
0.0034238
0.000528623
0.00227299
0.000284738
0.00203231
0.00444493
0.00661225
0.00853084
0.00987617
0.0107132
0.0113994
0.0120268
0.0122212
0.0118516
0.0118485
0.0111348
0.0101443
0.00895931
0.0076202
0.00566863
0.00329213
0.000703098
0.00158657
0.000173706
0.00181125
0.00376893
0.00558797
0.00722456
0.00861626
0.0093073
0.0100489
0.0104649
0.0105545
0.0104438
0.0103373
0.0096791
0.00896193
0.00786462
0.00669476
0.0048707
0.00272608
0.000826416
0.00120323
0.000174919
0.00141637
0.00328654
0.00483063
0.00610328
0.00707801
0.00771678
0.00838081
0.00872107
0.00898158
0.00883392
0.0087451
0.00835217
0.00780457
0.00672489
0.00567495
0.00437175
0.00275798
0.0006528
0.000758646
0.000137127
0.00124592
0.00254938
0.00384908
0.00496737
0.00574089
0.00621311
0.00662057
0.00713389
0.00726473
0.00710757
0.0069237
0.00663289
0.00582095
0.00549414
0.00463654
0.00322572
0.00208266
0.000568528
0.000841591
5.58148e-05
0.00108379
0.00178315
0.00270985
0.00363626
0.00420694
0.00468445
0.00512262
0.00514909
0.00512816
0.00530301
0.00515803
0.00494682
0.00434725
0.0039377
0.00331679
0.00259819
0.00164341
0.000525805
0.000577181
0.000211788
0.000489766
0.0011611
0.00171137
0.00210765
0.00250719
0.00287236
0.00295419
0.00307471
0.0033348
0.00309682
0.00304819
0.00320289
0.00275287
0.00240738
0.00227609
0.00157274
0.000855086
0.000393548
0.000404997
1.13502e-05
5.13908e-05
0.000706227
0.000543893
0.000700807
0.000883029
0.00103583
0.00107703
0.00125124
0.00111241
0.00126458
0.00106274
0.00106374
0.00106702
0.00110858
0.000565627
0.000644361
0.000513761
5.10344e-06
0.000194372
0.0048465
0.00177285
0.000920014
0.00349677
0.00579395
0.00747291
0.00871697
0.00941657
0.0101464
0.0104356
0.010263
0.0097456
0.00907473
0.00796466
0.00657946
0.00460996
0.00249621
0.000239123
0.00346762
0.00613502
0.00438788
0.00155497
0.000763606
0.00318426
0.00519293
0.0065679
0.00779186
0.00876649
0.00919418
0.00940111
0.0090986
0.00902208
0.00822344
0.00726697
0.00603078
0.0044584
0.0022421
5.76445e-05
0.00281754
0.00529031
0.00351279
0.00145677
0.000675636
0.00266738
0.00445373
0.00594316
0.00650024
0.00747806
0.00785681
0.00828406
0.00801913
0.00787831
0.0071926
0.00640917
0.00533174
0.00390953
0.0023043
0.000153709
0.00228342
0.00421753
0.0028981
0.00122563
0.00068341
0.00249554
0.0037555
0.00484655
0.00574257
0.00620075
0.00653296
0.0068454
0.00690735
0.00663926
0.00617182
0.0054022
0.00460981
0.00325465
0.00201438
4.36934e-05
0.00173682
0.00349966
0.0022693
0.00117247
0.000396407
0.00174326
0.0029552
0.00397583
0.00441554
0.00505436
0.00541246
0.00537139
0.00570402
0.00536396
0.00497045
0.00427551
0.00383597
0.00280871
0.00162006
0.000140202
0.00145728
0.0029013
0.00169587
0.000618514
0.000211196
0.00129351
0.00221214
0.00289399
0.00336194
0.00378668
0.00371076
0.00389317
0.00407063
0.00389643
0.00372643
0.00317336
0.00278619
0.00209238
0.00104332
0.000178874
0.00106131
0.00202725
0.000861835
0.000489725
0.000128501
0.000913246
0.00128226
0.00164094
0.00207637
0.0023504
0.00249031
0.00238487
0.0026425
0.0024575
0.00213836
0.00191575
0.00172993
0.00144054
0.000681698
4.68791e-06
0.000437662
0.00118923
0.000416331
4.90718e-05
8.21655e-05
0.00029077
0.000488973
0.000830996
0.00055498
0.000715472
0.000748156
0.00083168
0.00076762
0.000859183
0.000822436
0.000852076
0.000546881
7.81306e-05
0.000210848
4.75859e-05
0.000362443
0.000452983
0.00985699
0.00702317
0.00392156
0.00101334
0.00126406
0.00313871
0.00445618
0.00545492
0.00599504
0.00633221
0.00640041
0.00573095
0.00505396
0.00384185
0.00235845
0.00037796
0.00215455
0.00486178
0.00800341
0.0111082
0.00871097
0.00621185
0.00340029
0.000797263
0.00122396
0.00283938
0.00399612
0.00492023
0.00556161
0.00576522
0.00580225
0.00541515
0.00458033
0.00380567
0.00225834
0.000447527
0.00155798
0.00434635
0.00700879
0.00965142
0.00738643
0.00523839
0.00287164
0.000786101
0.000853021
0.00237203
0.00349119
0.00433086
0.00483183
0.00509438
0.00502979
0.00449595
0.0040632
0.00315241
0.00210347
0.000486082
0.00138494
0.00351231
0.00582663
0.00789584
0.00629553
0.00445352
0.00249783
0.000520277
0.000852083
0.00208002
0.0030937
0.00369235
0.00390836
0.00433627
0.00412934
0.00395313
0.00349852
0.00263648
0.00171737
0.00055569
0.000989931
0.00297349
0.00465377
0.00650808
0.00478068
0.00335356
0.00193421
0.000543421
0.000838168
0.00162291
0.00239096
0.00277762
0.00317308
0.00349405
0.00363501
0.00313775
0.00285218
0.00234717
0.00136549
0.000505739
0.000794778
0.00229709
0.00382464
0.00504821
0.00345254
0.00273801
0.00147056
0.000299433
0.000399647
0.00130793
0.00179987
0.00206711
0.0024013
0.00255685
0.00253281
0.00239003
0.00209085
0.00162909
0.000978999
0.000491538
0.00065238
0.00178547
0.00285111
0.00376812
0.00223629
0.00164567
0.000810124
0.000322953
0.000267856
0.000781669
0.00093837
0.00131839
0.00153697
0.00161064
0.00153545
0.00139865
0.00148375
0.000946407
0.000386599
0.000403272
0.000321148
0.00104962
0.00162326
0.00246146
0.000566769
0.000527027
0.000273702
1.94873e-05
0.000171919
0.000159216
0.000415213
0.000408896
0.00042491
0.000701447
0.000394332
0.000399765
0.000711214
0.000276781
0.000231342
9.7147e-05
0.000133292
0.000206941
0.000461018
0.000759315
0.0154091
0.0125283
0.00922553
0.0066127
0.00397915
0.00189818
0.000715463
0.000437134
0.00110583
0.00131438
0.00142308
0.000758907
0.000247517
0.00104752
0.00262621
0.00482644
0.00741242
0.010261
0.0137
0.016703
0.0137053
0.0112086
0.00821668
0.00570073
0.00343484
0.00172196
0.000298198
0.000587003
0.0012551
0.00155371
0.00136033
0.00120225
0.000389702
0.000726273
0.00221807
0.00415409
0.00632539
0.00890725
0.0119746
0.0143034
0.0118125
0.00971182
0.00710768
0.00489016
0.00300894
0.00152863
0.000209308
0.000570928
0.00102003
0.00126413
0.00141108
0.0008277
0.000358468
0.000426146
0.00189669
0.003451
0.00532805
0.00756607
0.0101115
0.0121425
0.00991668
0.00811972
0.0060869
0.0041801
0.00242082
0.00125726
0.000298042
0.000541868
0.000827873
0.000996197
0.00121539
0.000730542
0.000265024
0.000347619
0.00145917
0.00300695
0.00432895
0.00653059
0.00864546
0.0103756
0.00794389
0.00665232
0.00473849
0.0033606
0.0021109
0.000950172
0.000198098
0.000514458
0.000818633
0.000983668
0.000904075
0.000808355
0.000148377
0.000311169
0.00135235
0.00246557
0.00356313
0.00507882
0.00674819
0.00812365
0.00584285
0.00506373
0.00348653
0.00220143
0.00163455
0.0006841
0.000119422
0.00022307
0.000679482
0.000615839
0.000743813
0.000542658
0.000390775
0.000194496
0.00070928
0.00139367
0.00253789
0.00363616
0.00497706
0.00586632
0.0037021
0.00290117
0.00232043
0.00141077
0.0010394
0.000188537
9.33718e-05
0.000324392
0.000451053
0.000388811
0.000413485
0.000455602
0.000272464
0.000125291
0.000322277
0.000979156
0.00157417
0.00220629
0.0029953
0.00364507
0.00131914
0.00118467
0.0008652
0.000373285
0.000201386
0.000181596
0.000149223
4.69752e-05
5.65376e-05
0.000271203
0.000230427
0.000199734
1.81381e-05
1.12496e-05
8.04865e-06
0.000337049
0.000410276
0.00073477
0.00113883
0.0014301
0.0219659
0.0186302
0.0156809
0.0125413
0.00996964
0.00787186
0.00632197
0.00516479
0.00431227
0.00408093
0.00402262
0.00447623
0.00536644
0.00681013
0.00845407
0.0106226
0.0132949
0.0164108
0.0196322
0.0228468
0.0192905
0.0165955
0.0136769
0.0110446
0.00896341
0.00692423
0.00553317
0.00435288
0.00385983
0.00351348
0.00358961
0.0038315
0.00483037
0.00567046
0.00736751
0.00920976
0.0115362
0.0143351
0.0172956
0.0198674
0.0164994
0.014359
0.0120433
0.00949927
0.00769811
0.00603119
0.00481918
0.00365751
0.00334046
0.00285046
0.00296274
0.00312543
0.0037482
0.00500761
0.00621602
0.00787424
0.0097997
0.012366
0.0148315
0.0172408
0.0140243
0.0120645
0.0101051
0.00816067
0.00651125
0.00522861
0.00402534
0.00311568
0.00284791
0.00221828
0.0024095
0.00268741
0.00322098
0.00413578
0.00523315
0.00662986
0.0084313
0.0102826
0.0123092
0.0143094
0.0111958
0.0100271
0.00795421
0.00656059
0.00524608
0.00411616
0.003402
0.00242658
0.00207818
0.00190651
0.00211366
0.00214684
0.00260201
0.00338379
0.00426288
0.00536168
0.00673404
0.00824856
0.00989146