/*--------------------------------*- C++ -*----------------------------------*\
| =========                 |                                                 |
| \\      /  F ield         | OpenFOAM: The Open Source CFD Toolbox           |
|  \\    /   O peration     | Version:  2212                                  |
|   \\  /    A nd           | Website:  www.openfoam.com                      |
|    \\/     M anipulation  |                                                 |
\*---------------------------------------------------------------------------*/
FoamFile
{
    version     2.0;
    format      ascii;
    arch        "LSB;label=32;scalar=64";
    class       volScalarField;
    location    "0";
    object      T;
}
// * * * * * * * * * * * * * * * * * * * * * * * * * * * * * * * * * * * * * //

dimensions      [0 0 0 1 0 0 0];

internalField   nonuniform List<scalar> 
3200
(
343.789
344.497
345.366
346.553
347.634
348.123
348.711
348.938
349.225
349.551
349.504
349.333
348.838
348.76
348.146
347.343
346.606
345.745
344.909
344.037
338.21
338.8
339.576
340.616
341.55
341.948
342.475
342.604
342.879
343.185
343.09
342.921
342.528
342.468
341.99
341.228
340.607
339.835
339.171
338.424
332.553
332.953
333.668
334.538
335.341
335.701
336.162
336.251
336.453
336.709
336.614
336.443
336.156
336.112
335.714
335.028
334.508
333.853
333.278
332.688
326.786
327.096
327.71
328.439
329.038
329.356
329.728
329.805
329.972
330.14
330.069
329.954
329.737
329.679
329.317
328.747
328.359
327.786
327.348
326.883
320.949
321.137
321.671
322.177
322.676
322.942
323.22
323.322
323.425
323.473
323.408
323.418
323.205
323.157
322.885
322.415
322.17
321.713
321.373
321.003
315.011
315.1
315.535
315.855
316.256
316.49
316.631
316.74
316.8
316.842
316.753
316.795
316.638
316.613
316.448
316.058
315.911
315.563
315.293
315.031
309.017
309.057
309.332
309.555
309.784
309.952
309.997
310.051
310.146
310.159
310.065
310.102
310.015
310.014
309.908
309.651
309.572
309.378
309.185
309.049
303.015
303.023
303.121
303.196
303.283
303.335
303.358
303.376
303.407
303.397
303.386
303.395
303.348
303.383
303.327
303.22
303.21
303.144
303.075
303.028
344.396
345.421
346.213
347.288
348.234
348.736
349.47
349.969
350.139
350.282
350.364
350.229
349.785
349.68
348.996
348.189
347.34
346.424
345.722
344.941
338.707
339.566
340.262
341.189
342.023
342.446
343.087
343.526
343.613
343.747
343.801
343.678
343.322
343.231
342.591
341.938
341.161
340.45
339.837
339.167
332.935
333.62
334.266
335.008
335.726
336.098
336.631
337.013
337.012
337.165
337.173
337.09
336.778
336.702
336.183
335.637
334.932
334.365
333.898
333.321
327.041
327.578
328.174
328.732
329.361
329.624
330.056
330.381
330.331
330.481
330.499
330.408
330.192
330.116
329.727
329.267
328.632
328.214
327.849
327.39
321.166
321.471
322.005
322.421
322.883
323.099
323.431
323.708
323.617
323.762
323.806
323.735
323.533
323.507
323.203
322.833
322.312
322.015
321.743
321.364
315.219
315.358
315.76
316.069
316.399
316.524
316.79
316.953
316.941
317.028
317.033
316.985
316.836
316.83
316.594
316.344
315.993
315.771
315.532
315.367
309.208
309.234
309.478
309.658
309.894
309.914
310.105
310.193
310.194
310.222
310.212
310.195
310.116
310.136
309.967
309.824
309.594
309.477
309.303
309.255
303.095
303.106
303.204
303.234
303.305
303.311
303.388
303.41
303.419
303.412
303.43
303.429
303.386
303.413
303.344
303.289
303.21
303.177
303.107
303.085
345.293
346.261
347.496
348.223
349.295
349.902
350.484
351.178
351.288
351.221
351.409
351.402
350.918
350.527
349.816
349.221
348.416
347.492
346.631
345.955
339.47
340.269
341.321
342.001
342.899
343.402
343.997
344.567
344.632
344.573
344.691
344.703
344.292
343.891
343.299
342.804
342.153
341.332
340.605
340.068
333.614
334.201
335.112
335.688
336.411
336.839
337.399
337.865
337.869
337.831
337.94
337.941
337.595
337.194
336.794
336.303
335.786
335.123
334.495
334.074
327.686
328.061
328.858
329.295
329.832
330.226
330.757
331.092
331.024
331.056
331.135
331.136
330.868
330.508
330.167
329.807
329.377
328.856
328.318
327.95
321.639
321.919
322.559
322.838
323.269
323.572
324.028
324.225
324.187
324.244
324.304
324.261
324.115
323.8
323.489
323.232
322.931
322.557
322.075
321.756
315.499
315.696
316.162
316.4
316.706
316.877
317.218
317.322
317.322
317.35
317.374
317.319
317.292
317.085
316.81
316.625
316.429
316.16
315.795
315.539
309.347
309.406
309.732
309.87
310.073
310.128
310.318
310.445
310.441
310.425
310.436
310.39
310.422
310.297
310.09
310
309.892
309.737
309.5
309.348
303.126
303.159
303.282
303.307
303.378
303.4
303.46
303.528
303.51
303.49
303.498
303.502
303.504
303.454
303.383
303.346
303.323
303.251
303.2
303.14
346.47
347.372
348.562
349.292
350.333
351.05
351.736
352.291
352.217
352.462
352.616
352.28
352.021
351.514
350.98
350.368
349.624
348.674
347.485
346.865
340.511
341.262
342.271
342.862
343.768
344.406
345.03
345.49
345.414
345.61
345.75
345.435
345.259
344.761
344.324
343.791
343.146
342.343
341.289
340.816
334.462
335.088
335.913
336.421
337.146
337.688
338.273
338.606
338.58
338.732
338.835
338.522
338.398
337.991
337.599
337.192
336.61
335.904
335.014
334.688
328.34
328.845
329.46
329.881
330.48
330.916
331.425
331.655
331.619
331.807
331.864
331.595
331.49
331.184
330.849
330.508
330.025
329.455
328.759
328.53
322.14
322.516
322.986
323.293
323.739
324.079
324.525
324.718
324.664
324.78
324.85
324.64
324.53
324.348
324.033
323.743
323.444
323.004
322.436
322.295
315.866
316.123
316.493
316.714
316.992
317.24
317.564
317.753
317.659
317.737
317.762
317.623
317.548
317.427
317.181
316.987
316.809
316.488
316.066
315.955
309.57
309.735
309.905
310.05
310.23
310.394
310.574
310.686
310.633
310.653
310.65
310.57
310.549
310.484
310.329
310.191
310.113
309.931
309.661
309.563
303.232
303.262
303.31
303.361
303.463
303.481
303.544
303.584
303.589
303.563
303.576
303.529
303.547
303.52
303.466
303.41
303.367
303.349
303.239
303.185
347.41
348.391
349.514
350.532
351.333
351.954
352.631
353.357
353.382
353.713
353.664
353.58
353.131
352.59
352.101
351.442
350.362
349.887
348.71
347.796
341.247
342.135
343.092
344
344.634
345.187
345.773
346.409
346.426
346.696
346.644
346.58
346.177
345.658
345.309
344.709
343.783
343.376
342.362
341.674
335.038
335.849
336.617
337.371
337.87
338.355
338.836
339.374
339.456
339.554
339.607
339.52
339.161
338.726
338.415
337.967
337.2
336.802
335.956
335.404
328.771
329.407
330.076
330.673
331.064
331.485
331.826
332.313
332.391
332.378
332.493
332.43
332.114
331.741
331.506
331.139
330.554
330.177
329.519
329.076
322.423
322.943
323.432
323.89
324.223
324.584
324.805
325.186
325.283
325.191
325.34
325.294
325.058
324.712
324.565
324.298
323.823
323.547
323.029
322.706
316.045
316.434
316.773
317.122
317.348
317.605
317.771
318.02
318.076
318.027
318.141
318.115
317.949
317.689
317.531
317.381
317.064
316.901
316.472
316.269
309.639
309.896
310.082
310.322
310.42
310.555
310.675
310.867
310.854
310.847
310.929
310.881
310.756
310.647
310.513
310.465
310.275
310.156
309.903
309.822
303.247
303.316
303.389
303.458
303.471
303.547
303.603
303.661
303.624
303.642
303.671
303.645
303.604
303.571
303.52
303.503
303.448
303.42
303.322
303.286
348.487
349.436
350.519
351.608
352.488
353.096
353.801
354.29
354.473
354.87
354.731
354.658
354.225
353.727
353.138
352.542
351.536
350.83
349.75
348.652
342.262
343.038
343.96
344.912
345.656
346.214
346.789
347.208
347.383
347.706
347.604
347.529
347.138
346.689
346.229
345.708
344.792
344.206
343.281
342.365
335.919
336.542
337.323
338.15
338.727
339.238
339.705
340.061
340.228
340.47
340.384
340.357
339.931
339.627
339.262
338.817
337.984
337.535
336.728
335.993
329.529
330.005
330.64
331.314
331.742
332.201
332.595
332.894
332.991
333.163
333.137
333.085
332.704
332.502
332.202
331.861
331.132
330.784
330.163
329.557
323.055
323.399
323.894
324.428
324.755
325.137
325.457
325.63
325.706
325.88
325.833
325.78
325.484
325.336
325.1
324.849
324.257
324.013
323.535
323.113
316.522
316.742
317.09
317.481
317.71
318.008
318.259
318.33
318.424
318.506
318.467
318.476
318.255
318.127
317.972
317.768
317.344
317.197
316.832
316.566
309.961
310.097
310.274
310.491
310.657
310.858
310.996
311.034
311.082
311.125
311.089
311.128
310.985
310.919
310.798
310.682
310.441
310.346
310.115
309.994
303.323
303.408
303.453
303.509
303.578
303.658
303.697
303.685
303.72
303.735
303.716
303.747
303.674
303.657
303.642
303.578
303.526
303.475
303.389
303.353
349.516
350.474
351.488
352.434
353.486
354.079
354.888
355.255
355.538
356.088
355.824
355.739
355.206
354.834
353.987
353.585
352.644
351.555
350.671
349.808
343.115
343.926
344.803
345.663
346.5
347.052
347.703
348.08
348.328
348.781
348.501
348.453
347.95
347.658
346.893
346.591
345.762
344.866
344.075
343.357
336.643
337.303
338.042
338.792
339.453
339.961
340.426
340.809
341.04
341.372
341.139
341.061
340.654
340.398
339.741
339.485
338.836
338.097
337.433
336.84
330.108
330.606
331.2
331.83
332.349
332.78
333.161
333.47
333.702
333.911
333.71
333.652
333.306
333.103
332.573
332.355
331.848
331.25
330.768
330.247
323.488
323.81
324.375
324.847
325.2
325.591
325.888
326.139
326.318
326.464
326.259
326.256
325.954
325.745
325.349
325.185
324.812
324.349
324.001
323.607
316.82
317.036
317.465
317.804
318.036
318.372
318.548
318.711
318.894
318.981
318.791
318.794
318.538
318.365
318.123
318.01
317.735
317.43
317.168
316.903
310.095
310.237
310.494
310.719
310.819
311.06
311.154
311.264
311.364
311.451
311.288
311.31
311.15
311.032
310.853
310.865
310.656
310.483
310.336
310.196
303.39
303.43
303.524
303.6
303.623
303.722
303.736
303.783
303.817
303.844
303.786
303.777
303.765
303.71
303.639
303.655
303.577
303.522
303.488
303.418
350.505
351.333
352.382
353.601
354.467
355.14
355.657
356.269
356.522
356.949
356.606
356.692
356.164
355.879
355.193
354.361
353.288
352.311
351.367
350.512
343.966
344.672
345.582
346.648
347.368
347.97
348.425
348.899
349.139
349.524
349.22
349.305
348.815
348.589
348.005
347.263
346.33
345.488
344.631
343.995
337.347
337.958
338.707
339.624
340.205
340.682
341.13
341.465
341.722
342.014
341.777
341.831
341.451
341.189
340.795
340.125
339.338
338.6
337.857
337.383
330.621
331.178
331.746
332.551
333.048
333.389
333.82
333.991
334.252
334.449
334.298
334.316
333.979
333.752
333.501
332.953
332.279
331.686
331.039
330.703
323.854
324.318
324.76
325.399
325.788
326.027
326.405
326.511
326.763
326.826
326.788
326.776
326.453
326.303
326.102
325.721
325.155
324.747
324.197
323.961
317.081
317.393
317.743
318.182
318.473
318.579
318.913
318.966
319.234
319.186
319.186
319.162
318.968
318.786
318.606
318.451
318.016
317.713
317.31
317.164
310.285
310.442
310.708
310.943
311.077
311.17
311.367
311.434
311.552
311.536
311.552
311.524
311.383
311.268
311.163
311.129
310.83
310.639
310.407
310.352
303.459
303.478
303.607
303.68
303.714
303.745
303.788
303.85
303.862
303.863
303.864
303.868
303.842
303.776
303.736
303.736
303.621
303.558
303.471
303.472
351.072
352.087
353.054
354.325
355.244
356.034
356.495
357.011
357.51
357.632
357.546
357.641
357.232
356.64
356.035
355.195
354.362
353.368
352.053
351.046
344.459
345.319
346.117
347.244
348.039
348.733
349.107
349.566
350.019
350.102
349.998
350.092
349.731
349.23
348.694
348.022
347.254
346.397
345.236
344.387
337.767
338.435
339.143
340.137
340.801
341.373
341.676
342.073
342.406
342.514
342.43
342.501
342.205
341.744
341.283
340.775
340.113
339.384
338.426
337.695
331.05
331.551
332.128
332.957
333.464
333.965
334.177
334.526
334.763
334.871
334.851
334.865
334.604
334.213
333.922
333.42
332.905
332.286
331.512
330.931
324.25
324.604
325.082
325.689
326.117
326.468
326.686
326.923
327.118
327.206
327.226
327.175
326.996
326.634
326.493
326.049
325.684
325.179
324.578
324.124
317.422
317.637
317.932
318.393
318.728
318.933
319.112
319.267
319.46
319.481
319.546
319.42
319.325
319.053
318.984
318.617
318.42
317.994
317.567
317.255
310.52
310.637
310.744
311.052
311.222
311.34
311.48
311.573
311.744
311.721
311.801
311.653
311.607
311.41
311.443
311.171
311.081
310.833
310.561
310.359
303.551
303.549
303.593
303.705
303.771
303.791
303.866
303.865
303.946
303.927
303.96
303.912
303.874
303.83
303.843
303.763
303.713
303.644
303.544
303.454
351.706
352.879
354.009
354.827
356.035
356.676
357.443
358.034
358.485
358.503
358.596
358.386
357.893
357.286
356.84
356.052
355.018
354.262
352.672
351.718
345.023
345.997
346.967
347.658
348.737
349.259
349.914
350.396
350.805
350.854
350.925
350.728
350.251
349.777
349.441
348.641
347.799
347.196
345.817
345.01
338.279
339.042
339.86
340.437
341.418
341.787
342.305
342.713
343.08
343.157
343.204
343.004
342.621
342.206
341.969
341.291
340.556
340.044
338.866
338.225
331.428
332.042
332.718
333.187
334.018
334.264
334.657
335.002
335.3
335.405
335.468
335.245
335.016
334.589
334.409
333.879
333.272
332.854
331.854
331.414
324.553
324.976
325.496
325.856
326.523
326.679
326.981
327.251
327.492
327.617
327.702
327.466
327.339
326.925
326.789
326.4
325.937
325.569
324.805
324.493
317.563
317.864
318.243
318.513
318.97
319.088
319.241
319.496
319.643
319.795
319.845
319.645
319.583
319.247
319.165
318.877
318.541
318.297
317.778
317.55
310.569
310.776
310.964
311.134
311.387
311.455
311.515
311.7
311.816
311.908
311.946
311.803
311.792
311.566
311.514
311.311
311.148
311.014
310.685
310.571
303.562
303.63
303.682
303.741
303.793
303.82
303.85
303.9
303.979
303.994
304.018
303.957
303.971
303.864
303.863
303.802
303.751
303.706
303.57
303.524
352.353
353.488
354.656
355.675
356.593
357.554
358.297
358.56
358.87
359.22
359.339
359.181
358.531
357.712
357.422
356.847
355.785
354.454
353.24
352.378
345.593
346.517
347.496
348.4
349.181
350.03
350.682
350.87
351.155
351.456
351.584
351.396
350.836
350.104
349.854
349.385
348.408
347.354
346.295
345.605
338.764
339.491
340.302
341.036
341.747
342.457
342.959
343.15
343.382
343.618
343.747
343.58
343.123
342.46
342.271
341.895
341.011
340.169
339.278
338.731
331.845
332.427
333.079
333.625
334.28
334.837
335.234
335.361
335.559
335.746
335.861
335.72
335.363
334.831
334.653
334.393
333.56
332.949
332.249
331.786
324.836
325.263
325.766
326.227
326.738
327.177
327.509
327.588
327.706
327.846
327.903
327.833
327.549
327.109
326.978
326.777
326.171
325.69
325.157
324.774
317.773
318.078
318.435
318.758
319.167
319.465
319.709
319.789
319.797
319.876
319.943
319.952
319.694
319.355
319.301
319.161
318.733
318.423
317.972
317.76
310.691
310.861
311.053
311.269
311.558
311.71
311.844
311.888
311.901
311.975
311.99
312.007
311.849
311.591
311.598
311.548
311.234
311.088
310.823
310.703
303.586
303.643
303.696
303.778
303.876
303.935
303.971
303.992
304.003
304.024
304.034
304.027
303.979
303.898
303.899
303.877
303.783
303.729
303.649
303.587
352.83
353.952
355.034
356.067
357.201
358.211
358.888
359.172
359.443
359.599
359.961
359.779
359.183
358.615
358.193
357.526
356.441
355.251
354.057
352.752
345.983
346.959
347.838
348.733
349.726
350.574
351.136
351.436
351.594
351.763
352.086
351.924
351.46
350.914
350.536
349.954
349.025
348.048
346.949
345.849
339.048
339.85
340.621
341.357
342.216
342.899
343.336
343.672
343.735
343.891
344.156
344.023
343.663
343.213
342.8
342.365
341.567
340.793
339.843
338.9
332.044
332.707
333.313
333.914
334.634
335.179
335.513
335.839
335.835
335.985
336.178
336.095
335.8
335.458
335.086
334.762
334.09
333.479
332.728
331.897
324.981
325.487
325.989
326.423
327.034
327.412
327.631
327.953
327.9
328.047
328.124
328.141
327.909
327.654
327.373
327.102
326.567
326.09
325.549
324.859
317.916
318.278
318.634
318.901
319.375
319.619
319.724
320.026
319.934
320.102
320.091
320.108
320.007
319.773
319.585
319.408
319.016
318.642
318.293
317.774
310.793
311.006
311.212
311.385
311.683
311.798
311.821
312.013
312.007
312.069
312.057
312.082
312.018
311.903
311.773
311.65
311.42
311.182
310.981
310.649
303.623
303.707
303.751
303.819
303.93
303.945
303.959
304.038
304.022
304.056
304.032
304.057
304.052
304.009
303.954
303.894
303.828
303.757
303.703
303.565
353.306
354.334
355.487
356.736
357.766
358.701
359.227
359.761
360.051
360.108
360.444
360.264
359.902
359.365
358.798
357.952
356.758
355.771
354.527
353.414
346.402
347.26
348.224
349.313
350.196
351.041
351.474
351.942
352.168
352.245
352.508
352.372
352.048
351.621
351.104
350.355
349.317
348.427
347.412
346.479
339.36
340.114
340.884
341.831
342.544
343.29
343.682
344.077
344.229
344.349
344.541
344.426
344.103
343.78
343.32
342.723
341.845
341.032
340.263
339.446
332.282
332.903
333.518
334.351
334.872
335.45
335.83
336.116
336.234
336.414
336.561
336.414
336.162
335.89
335.504
335.055
334.32
333.64
333.078
332.357
325.157
325.69
326.119
326.793
327.216
327.607
327.895
328.127
328.204
328.39
328.524
328.407
328.151
327.975
327.667
327.332
326.731
326.172
325.808
325.199
318.011
318.413
318.669
319.182
319.477
319.759
319.957
320.105
320.181
320.321
320.419
320.381
320.143
320.094
319.808
319.533
319.108
318.703
318.529
318.025
310.831
311.095
311.24
311.546
311.71
311.906
312.016
312.065
312.144
312.203
312.293
312.28
312.097
312.115
311.927
311.731
311.498
311.241
311.159
310.832
303.621
303.694
303.759
303.874
303.941
303.983
304.033
304.046
304.064
304.074
304.129
304.123
304.047
304.065
303.995
303.947
303.848
303.777
303.746
303.619
353.826
354.757
355.862
357.101
358.214
359.114
359.656
360.245
360.68
360.785
360.841
360.49
360.226
359.859
359.284
358.74
357.245
356.134
354.964
353.815
346.791
347.643
348.539
349.641
350.605
351.411
351.847
352.34
352.743
352.824
352.893
352.544
352.294
352.01
351.521
351.047
349.719
348.78
347.779
346.788
339.73
340.456
341.14
342.085
342.958
343.625
343.991
344.402
344.693
344.845
344.866
344.576
344.363
344.116
343.709
343.34
342.187
341.422
340.563
339.683
332.573
333.199
333.767
334.49
335.243
335.781
336.063
336.431
336.606
336.784
336.817
336.544
336.401
336.177
335.875
335.541
334.559
333.994
333.266
332.532
325.405
325.882
326.311
326.898
327.496
327.906
328.09
328.405
328.469
328.64
328.713
328.46
328.377
328.205
327.964
327.684
326.909
326.537
325.938
325.37
318.217
318.54
318.859
319.29
319.697
319.973
320.075
320.316
320.334
320.465
320.552
320.35
320.303
320.214
319.985
319.804
319.223
319.003
318.517
318.141
310.961
311.152
311.309
311.591
311.868
312.01
312.068
312.2
312.252
312.316
312.358
312.222
312.166
312.124
311.995
311.898
311.544
311.418
311.117
310.935
303.659
303.715
303.765
303.897
303.986
304.027
304.048
304.084
304.108
304.137
304.144
304.108
304.096
304.076
304.004
303.985
303.879
303.818
303.725
303.653
353.909
354.968
356.235
357.12
358.391
359.462
360.132
360.447
361.032
361.218
361.361
360.726
360.664
360.261
359.502
358.562
357.803
356.554
355.259
354.045
346.905
347.803
348.869
349.637
350.749
351.679
352.272
352.524
353.035
353.183
353.302
352.72
352.649
352.383
351.719
350.881
350.223
349.162
348.008
346.988
339.814
340.567
341.43
342.071
343.022
343.849
344.334
344.534
344.959
345.11
345.185
344.684
344.645
344.433
343.898
343.165
342.603
341.74
340.729
339.869
332.688
333.277
333.968
334.47
335.223
335.952
336.335
336.517
336.855
336.973
337.015
336.654
336.619
336.44
335.969
335.431
334.908
334.226
333.424
332.672
325.484
325.976
326.456
326.844
327.433
327.997
328.303
328.452
328.665
328.797
328.885
328.584
328.585
328.435
328.004
327.615
327.201
326.638
326.054
325.467
318.238
318.577
318.905
319.191
319.641
320.062
320.246
320.382
320.474
320.619
320.661
320.458
320.457
320.377
320.039
319.756
319.479
319.041
318.67
318.2
310.971
311.171
311.332
311.518
311.854
312.04
312.156
312.284
312.313
312.436
312.365
312.296
312.312
312.271
312.036
311.845
311.719
311.436
311.232
310.899
303.679
303.754
303.796
303.86
303.989
304.024
304.095
304.111
304.131
304.183
304.127
304.146
304.127
304.125
304.038
303.983
303.921
303.854
303.77
303.644
354.024
355.167
356.649
357.647
358.651
359.605
360.307
360.743
361.383
361.463
361.584
361.24
360.809
360.704
359.808
358.841
358.034
356.732
355.516
354.451
346.984
348.007
349.226
350.032
350.924
351.787
352.378
352.794
353.35
353.425
353.542
353.195
352.866
352.739
351.954
351.143
350.466
349.324
348.269
347.36
339.863
340.802
341.775
342.406
343.168
343.878
344.431
344.789
345.226
345.35
345.415
345.132
344.837
344.715
344.06
343.377
342.842
341.827
340.951
340.224
332.746
333.516
334.32
334.715
335.383
336.009
336.431
336.736
337.065
337.205
337.238
337.021
336.752
336.653
336.088
335.582
335.146
334.289
333.629
333.021
325.587
326.194
326.821
327.043
327.572
328.079
328.381
328.66
328.874
329.011
329.024
328.904
328.646
328.529
328.072
327.735
327.366
326.755
326.251
325.764
318.37
318.776
319.212
319.35
319.704
320.094
320.266
320.537
320.621
320.751
320.695
320.687
320.499
320.369
320.073
319.828
319.563
319.149
318.841
318.425
311.095
311.307
311.568
311.613
311.837
312.065
312.191
312.372
312.406
312.489
312.435
312.466
312.331
312.217
312.055
311.89
311.762
311.534
311.336
311.067
303.738
303.811
303.886
303.886
303.953
304.048
304.088
304.18
304.17
304.181
304.181
304.208
304.124
304.099
304.05
303.979
303.965
303.876
303.805
303.711
354.293
355.388
356.89
357.819
358.941
359.825
360.579
361.042
361.574
361.76
361.639
361.602
361.07
360.911
359.828
358.974
358.144
356.884
355.814
354.694
347.204
348.191
349.487
350.225
351.214
351.996
352.619
353.036
353.5
353.655
353.573
353.54
353.059
352.884
351.974
351.27
350.507
349.467
348.511
347.629
340.147
340.917
342.006
342.617
343.43
344.095
344.62
344.959
345.385
345.489
345.452
345.428
345.017
344.82
344.098
343.556
342.784
341.951
341.12
340.49
332.984
333.551
334.459
334.961
335.615
336.149
336.568
336.858
337.228
337.281
337.292
337.209
336.93
336.716
336.134
335.764
335.053
334.411
333.722
333.254
325.771
326.159
326.847
327.261
327.741
328.133
328.48
328.699
328.994
329.062
329.068
328.936
328.793
328.599
328.131
327.936
327.279
326.843
326.301
325.952
318.465
318.72
319.213
319.562
319.885
320.135
320.368
320.529
320.739
320.768
320.8
320.679
320.587
320.473
320.086
320.037
319.476
319.193
318.837
318.607
311.099
311.25
311.529
311.771
311.963
312.139
312.254
312.38
312.475
312.471
312.518
312.428
312.378
312.279
312.044
312.06
311.692
311.532
311.327
311.206
303.732
303.776
303.856
303.935
304.033
304.079
304.124
304.161
304.188
304.185
304.207
304.174
304.15
304.107
304.042
304.036
303.914
303.879
303.798
303.767
354.443
355.614
356.837
357.936
358.892
359.933
360.814
361.188
361.44
361.666
361.831
361.577
361.238
360.892
359.926
359.11
358.284
357.016
355.874
354.904
347.369
348.373
349.402
350.341
351.19
352.117
352.866
353.134
353.415
353.55
353.741
353.499
353.193
352.914
352.054
351.368
350.679
349.55
348.574
347.747
340.223
341.052
341.893
342.721
343.409
344.251
344.806
345.064
345.319
345.444
345.583
345.359
345.11
344.862
344.104
343.605
343.009
342.028
341.167
340.517
333.09
333.702
334.373
335.006
335.585
336.26
336.696
336.929
337.173
337.317
337.367
337.153
336.975
336.8
336.138
335.813
335.278
334.502
333.704
333.255
325.865
326.265
326.783
327.255
327.73
328.202
328.552
328.782
328.979
329.141
329.1
328.965
328.819
328.697
328.125
327.967
327.466
326.85
326.21
325.911
318.54
318.83
319.162
319.52
319.862
320.179
320.409
320.616
320.691
320.905
320.809
320.74
320.618
320.562
320.118
320.031
319.656
319.207
318.718
318.533
311.14
311.348
311.534
311.727
311.971
312.099
312.278
312.409
312.442
312.554
312.481
312.478
312.394
312.39
312.118
312.047
311.815
311.562
311.254
311.176
303.725
303.796
303.861
303.928
304.007
304.051
304.12
304.177
304.177
304.204
304.186
304.191
304.143
304.161
304.058
304.031
303.953
303.899
303.766
303.762
354.389
355.639
356.809
357.879
359.028
359.951
360.626
361.131
361.457
361.697
361.674
361.575
361.32
361.009
360.259
359.221
358.431
357.187
355.837
354.758
347.357
348.422
349.394
350.265
351.307
352.038
352.693
353.132
353.395
353.617
353.561
353.497
353.265
353.022
352.365
351.474
350.833
349.743
348.58
347.669
340.269
341.161
341.931
342.604
343.552
344.1
344.746
345.097
345.25
345.481
345.434
345.376
345.177
344.97
344.437
343.658
343.148
342.214
341.209
340.49
333.123
333.801
334.401
334.921
335.684
336.115
336.739
337.005
337.129
337.272
337.286
337.18
337.032
336.878
336.457
335.734
335.396
334.64
333.801
333.219
325.886
326.376
326.793
327.242
327.849
328.09
328.638
328.846
328.914
329.015
329.039
328.951
328.846
328.737
328.391
327.824
327.573
327.031
326.351
325.865
318.549
318.869
319.174
319.505
319.946
320.095
320.481
320.663
320.689
320.794
320.748
320.724
320.631
320.551
320.273
319.89
319.731
319.334
318.857
318.484
311.154
311.352
311.551
311.693
311.978
312.093
312.322
312.374
312.456
312.51
312.432
312.47
312.427
312.357
312.185
311.912
311.884
311.626
311.339
311.089
303.733
303.801
303.881
303.906
304.032
304.055
304.143
304.129
304.172
304.192
304.157
304.198
304.179
304.122
304.077
303.968
303.998
303.914
303.773
303.723
354.296
355.721
357.012
357.959
358.916
359.849
360.683
361.259
361.379
361.552
361.654
361.646
361.195
360.881
360.101
359.22
358.152
356.973
355.643
354.68
347.277
348.459
349.563
350.4
351.207
352.01
352.735
353.255
353.37
353.473
353.584
353.575
353.175
352.943
352.224
351.391
350.553
349.539
348.419
347.578
340.181
341.092
342.046
342.756
343.436
344.129
344.743
345.178
345.296
345.416
345.461
345.437
345.1
344.947
344.298
343.534
342.841
342.034
341.097
340.414
333.002
333.747
334.531
335.088
335.617
336.193
336.65
337.066
337.189
337.262
337.281
337.256
336.981
336.861
336.333
335.691
335.109
334.451
333.737
333.154
325.762
326.365
326.932
327.365
327.763
328.208
328.571
328.923
328.989
329.048
329.035
329.028
328.882
328.728
328.327
327.826
327.338
326.875
326.308
325.839
318.467
318.912
319.288
319.579
319.865
320.202
320.453
320.753
320.722
320.803
320.758
320.749
320.654
320.536
320.245
319.925
319.547
319.235
318.842
318.487
311.111
311.34
311.575
311.751
311.961
312.163
312.303
312.5
312.452
312.52
312.469
312.467
312.411
312.34
312.204
312
311.729
311.577
311.338
311.107
303.74
303.804
303.881
303.939
304.015
304.071
304.137
304.189
304.183
304.212
304.171
304.185
304.157
304.144
304.094
304.023
303.908
303.892
303.825
303.727
)
;

boundaryField
{
    hotSide
    {
        type            fixedGradient;
        gradient        nonuniform List<scalar> 
400
(
435.296
447.735
459.757
471.309
482.339
492.795
502.627
511.788
520.232
527.917
534.804
540.857
546.045
550.34
553.718
556.16
557.653
558.188
557.76
556.37
447.696
460.499
472.875
484.769
496.126
506.893
517.019
526.455
535.154
543.073
550.172
556.414
561.765
566.198
569.688
572.216
573.767
574.333
573.907
572.492
458.961
472.095
484.792
496.995
508.648
519.698
530.091
539.777
548.708
556.84
564.131
570.543
576.044
580.602
584.194
586.8
588.404
588.997
588.575
587.137
469.017
482.446
495.429
507.908
519.825
531.126
541.757
551.665
560.803
569.124
576.586
583.151
588.783
593.454
597.137
599.812
601.463
602.081
601.661
600.203
477.801
491.486
504.718
517.436
529.583
541.103
551.94
562.042
571.359
579.845
587.455
594.152
599.9
604.667
608.428
611.163
612.855
613.494
613.076
611.6
485.257
499.159
512.6
525.52
537.861
549.564
560.575
570.84
580.308
588.932
596.667
603.475
609.319
614.167
617.994
620.779
622.504
623.161
622.743
621.251
491.339
505.415
519.025
532.109
544.605
556.457
567.608
578.003
587.592
596.327
604.163
611.059
616.98
621.893
625.772
628.596
630.347
631.016
630.598
629.092
496.011
510.219
523.956
537.161
549.775
561.738
572.993
583.487
593.167
601.984
609.894
616.856
622.833
627.794
631.711
634.563
636.333
637.01
636.589
635.071
499.243
513.539
527.361
540.647
553.339
565.375
576.699
587.257
596.996
605.867
613.825
620.829
626.843
631.833
635.773
638.642
640.422
641.102
640.678
639.149
501.017
515.356
529.219
542.545
555.274
567.345
578.702
589.29
599.056
607.951
615.931
622.954
628.982
633.984
637.933
640.807
642.588
643.267
642.837
641.3
501.321
515.658
529.519
542.843
555.568
567.636
578.989
589.572
599.333
608.224
616.198
623.215
629.238
634.234
638.176
641.043
642.818
643.49
643.054
641.509
500.152
514.442
528.258
541.536
554.218
566.244
577.557
588.101
597.826
606.682
614.624
621.612
627.607
632.579
636.501
639.349
641.109
641.769
641.325
639.775
497.514
511.714
525.441
538.633
551.232
563.177
574.413
584.885
594.542
603.334
611.218
618.152
624.1
629.03
632.916
635.735
637.472
638.116
637.661
636.108
493.423
507.488
521.084
534.149
546.625
558.452
569.576
579.942
589.499
598.2
605.999
612.856
618.737
623.608
627.443
630.222
631.928
632.551
632.085
630.532
487.9
501.788
515.211
528.109
540.423
552.097
563.074
573.301
582.729
591.309
598.999
605.757
611.55
616.345
620.118
622.845
624.513
625.111
624.633
623.081
480.977
494.647
507.857
520.549
532.664
544.148
554.945
565.002
574.271
582.705
590.26
596.899
602.585
607.289
610.984
613.651
615.274
615.842
615.352
613.804
472.696
486.106
499.065
511.513
523.395
534.655
545.239
555.097
564.179
572.441
579.839
586.336
591.898
596.495
600.102
602.699
604.27
604.807
604.304
602.762
463.105
476.219
488.889
501.059
512.673
523.677
534.018
543.647
552.517
560.582
567.802
574.139
579.56
584.036
587.543
590.061
591.576
592.077
591.561
590.03
452.266
465.048
477.395
489.253
500.567
511.284
521.354
530.728
539.36
547.206
554.227
560.386
565.651
569.994
573.39
575.822
577.275
577.739
577.212
575.693
440.249
452.665
464.657
476.171
487.155
497.558
507.331
516.425
524.797
532.404
539.207
545.172
550.266
554.464
557.741
560.08
561.467
561.893
561.354
559.852
)
;
    }
    coldSide
    {
        type            mixed;
        refValue        uniform 300;
        refGradient     uniform 0;
        valueFraction   uniform 0.991591;
        source          uniform 0;
        value           nonuniform List<scalar> 
400
(
300.025
300.026
300.026
300.027
300.027
300.028
300.029
300.029
300.03
300.03
300.03
300.03
300.03
300.031
300.031
300.031
300.031
300.031
300.031
300.031
300.025
300.026
300.027
300.027
300.028
300.029
300.029
300.029
300.03
300.031
300.031
300.031
300.031
300.031
300.032
300.032
300.032
300.032
300.032
300.032