/*--------------------------------*- C++ -*----------------------------------*\
| =========                 |                                                 |
| \\      /  F ield         | OpenFOAM: The Open Source CFD Toolbox           |
|  \\    /   O peration     | Version:  2212                                  |
|   \\  /    A nd           | Website:  www.openfoam.com                      |
|    \\/     M anipulation  |                                                 |
\*---------------------------------------------------------------------------*/
FoamFile
{
    version     2.0;
    format      ascii;
    arch        "LSB;label=32;scalar=64";
    class       volScalarField;
    location    "0";
    object      T;
}
// * * * * * * * * * * * * * * * * * * * * * * * * * * * * * * * * * * * * * //

dimensions      [0 0 0 1 0 0 0];

internalField   nonuniform List<scalar> 
3200
(
315.466
315.076
314.736
314.794
315.126
315.351
315.81
316.117
316.512
316.876
316.963
317.209
317.141
316.891
316.635
316.369
316.519
316.706
317.044
317.535
313.582
313.235
312.928
313.002
313.295
313.473
313.87
314.112
314.455
314.746
314.825
315.021
314.956
314.747
314.497
314.265
314.383
314.564
314.832
315.249
311.612
311.301
311.043
311.109
311.38
311.503
311.862
312.056
312.33
312.535
312.63
312.802
312.733
312.558
312.322
312.139
312.222
312.39
312.593
312.938
309.567
309.326
309.113
309.163
309.395
309.499
309.811
309.947
310.171
310.285
310.404
310.547
310.477
310.322
310.134
309.981
310.016
310.174
310.341
310.589
307.479
307.301
307.141
307.187
307.34
307.454
307.691
307.795
307.966
308.043
308.143
308.246
308.183
308.058
307.905
307.804
307.816
307.929
308.096
308.221
305.347
305.249
305.123
305.188
305.276
305.374
305.547
305.621
305.723
305.766
305.843
305.907
305.853
305.782
305.669
305.595
305.58
305.674
305.793
305.872
303.227
303.161
303.083
303.134
303.19
303.251
303.354
303.4
303.454
303.475
303.517
303.555
303.517
303.463
303.421
303.364
303.348
303.41
303.473
303.521
301.077
301.069
301.03
301.052
301.075
301.095
301.128
301.145
301.167
301.159
301.179
301.204
301.187
301.154
301.15
301.128
301.112
301.151
301.154
301.189
315.499
315.048
314.862
314.916
315.239
315.58
315.97
316.437
316.842
317.143
317.35
317.528
317.467
317.269
317.079
316.799
316.603
316.778
317.074
317.492
313.582
313.225
313.073
313.104
313.395
313.649
313.994
314.371
314.713
314.967
315.162
315.317
315.224
315.076
314.871
314.623
314.457
314.62
314.877
315.198
311.595
311.334
311.188
311.214
311.461
311.631
311.946
312.255
312.527
312.728
312.919
313.045
312.951
312.822
312.637
312.411
312.269
312.399
312.625
312.897
309.538
309.395
309.267
309.256
309.461
309.58
309.833
310.09
310.315
310.484
310.638
310.729
310.637
310.534
310.377
310.203
310.076
310.173
310.368
310.547
307.445
307.388
307.273
307.246
307.406
307.495
307.695
307.894
308.057
308.194
308.324
308.375
308.297
308.21
308.085
307.96
307.868
307.901
308.107
308.198
305.355
305.316
305.224
305.199
305.325
305.375
305.517
305.68
305.785
305.891
305.964
306.006
305.936
305.864
305.769
305.711
305.62
305.648
305.809
305.854
303.241
303.216
303.152
303.137
303.202
303.239
303.316
303.42
303.489
303.559
303.598
303.611
303.561
303.511
303.446
303.439
303.379
303.391
303.49
303.495
301.098
301.078
301.054
301.053
301.064
301.082
301.106
301.14
301.173
301.201
301.21
301.21
301.196
301.172
301.161
301.152
301.129
301.134
301.161
301.153
315.754
315.326
315.068
315.2
315.473
315.842
316.25
316.83
317.175
317.427
317.701
317.901
317.802
317.571
317.364
317.132
316.878
316.978
317.322
317.786
313.827
313.471
313.242
313.349
313.585
313.879
314.244
314.735
315.02
315.212
315.456
315.636
315.52
315.336
315.131
314.942
314.681
314.777
315.053
315.452
311.818
311.522
311.322
311.423
311.621
311.857
312.148
312.56
312.821
312.957
313.155
313.303
313.183
313.054
312.86
312.731
312.466
312.546
312.779
313.109
309.761
309.52
309.321
309.417
309.611
309.785
310.021
310.332
310.562
310.653
310.829
310.93
310.824
310.699
310.554
310.494
310.249
310.297
310.477
310.731
307.664
307.447
307.293
307.367
307.541
307.657
307.817
308.082
308.275
308.34
308.455
308.518
308.453
308.34
308.243
308.185
307.997
308.037
308.164
308.349
305.499
305.33
305.229
305.285
305.414
305.499
305.6
305.79
305.952
305.991
306.074
306.086
306.051
305.965
305.907
305.854
305.716
305.764
305.843
305.961
303.315
303.203
303.157
303.186
303.275
303.3
303.375
303.482
303.599
303.607
303.68
303.68
303.627
303.574
303.559
303.51
303.421
303.47
303.512
303.574
301.123
301.071
301.068
301.067
301.105
301.102
301.138
301.165
301.208
301.215
301.234
301.241
301.212
301.197
301.204
301.165
301.15
301.167
301.175
301.21
315.963
315.553
315.34
315.477
315.788
316.313
316.691
317.18
317.533
317.943
318.195
318.216
318.118
318.068
317.743
317.529
317.393
317.417
317.725
318.147
313.995
313.645
313.453
313.585
313.853
314.307
314.601
315.043
315.319
315.653
315.872
315.886
315.806
315.753
315.448
315.272
315.153
315.155
315.438
315.785
311.945
311.661
311.493
311.609
311.832
312.235
312.448
312.837
313.039
313.316
313.482
313.484
313.457
313.382
313.139
312.995
312.885
312.88
313.099
313.383
309.865
309.606
309.5
309.606
309.749
310.097
310.241
310.578
310.73
310.953
311.041
311.075
311.074
310.984
310.786
310.692
310.612
310.564
310.726
310.963
307.701
307.511
307.437
307.525
307.624
307.921
308.001
308.248
308.393
308.577
308.603
308.654
308.664
308.56
308.411
308.355
308.295
308.224
308.337
308.528
305.513
305.37
305.35
305.435
305.483
305.681
305.733
305.913
306.01
306.155
306.15
306.209
306.221
306.121
306.027
305.997
305.946
305.88
305.943
306.107
303.319
303.232
303.211
303.279
303.311
303.426
303.45
303.55
303.617
303.708
303.704
303.731
303.736
303.679
303.621
303.609
303.594
303.518
303.585
303.672
301.106
301.078
301.066
301.097
301.109
301.143
301.153
301.188
301.218
301.242
301.245
301.255
301.26
301.231
301.206
301.21
301.217
301.174
301.203
301.234
316.339
316.034
315.848
315.887
316.348
316.724
317.21
317.702
318.16
318.522
318.731
318.881
318.688
318.573
318.259
318.081
317.968
317.905
318.13
318.465
314.295
314.081
313.926
313.914
314.318
314.656
315.054
315.483
315.849
316.176
316.343
316.479
316.27
316.197
315.895
315.761
315.649
315.596
315.772
316.021
312.218
312.001
311.942
311.892
312.233
312.508
312.814
313.226
313.483
313.785
313.888
314.043
313.843
313.773
313.512
313.389
313.3
313.242
313.389
313.568
310.08
309.865
309.87
309.815
310.075
310.315
310.529
310.904
311.08
311.371
311.395
311.551
311.379
311.325
311.085
310.999
310.916
310.835
310.997
311.11
307.888
307.695
307.708
307.682
307.889
308.066
308.245
308.538
308.653
308.884
308.898
309.016
308.896
308.844
308.656
308.588
308.533
308.425
308.6
308.648
305.652
305.51
305.532
305.507
305.677
305.789
305.911
306.137
306.211
306.387
306.364
306.46
306.369
306.337
306.21
306.161
306.111
306.026
306.172
306.181
303.414
303.318
303.356
303.322
303.425
303.497
303.556
303.704
303.733
303.838
303.833
303.882
303.853
303.816
303.734
303.693
303.655
303.622
303.725
303.73
301.148
301.123
301.133
301.125
301.142
301.178
301.192
301.253
301.261
301.28
301.291
301.293
301.294
301.278
301.255
301.231
301.224
301.215
301.253
301.248
316.945
316.59
316.399
316.408
316.837
317.122
317.82
318.203
318.712
319.048
319.313
319.454
319.211
319.08
318.785
318.671
318.452
318.41
318.705
318.943
314.858
314.562
314.383
314.385
314.758
314.996
315.599
315.928
316.319
316.632
316.852
316.981
316.72
316.61
316.356
316.251
316.056
316.021
316.262
316.444
312.665
312.454
312.313
312.267
312.616
312.815
313.298
313.588
313.871
314.178
314.32
314.453
314.214
314.088
313.871
313.778
313.607
313.593
313.781
313.919
310.426
310.273
310.164
310.11
310.392
310.565
310.955
311.203
311.428
311.659
311.781
311.905
311.677
311.587
311.38
311.283
311.161
311.157
311.268
311.38
308.165
308.034
307.939
307.898
308.114
308.276
308.572
308.776
308.936
309.097
309.204
309.296
309.105
309.044
308.864
308.774
308.71
308.686
308.761
308.852
305.853
305.762
305.695
305.672
305.832
305.945
306.15
306.333
306.417
306.518
306.61
306.662
306.516
306.482
306.347
306.273
306.254
306.218
306.261
306.331
303.524
303.46
303.423
303.398
303.511
303.588
303.698
303.841
303.875
303.914
303.985
304.007
303.912
303.905
303.813
303.777
303.757
303.74
303.77
303.789
301.186
301.162
301.141
301.136
301.178
301.199
301.245
301.292
301.306
301.308
301.332
301.343
301.322
301.318
301.265
301.269
301.261
301.257
301.263
301.272
317.335
317.027
316.939
316.976
317.417
317.704
318.242
318.812
319.438
319.736
320.024
320.087
319.896
319.619
319.397
319.1
319.022
318.999
319.253
319.678
315.21
314.923
314.834
314.879
315.268
315.502
315.985
316.437
316.988
317.204
317.468
317.509
317.324
317.069
316.897
316.619
316.555
316.538
316.723
317.077
312.989
312.759
312.682
312.692
313.032
313.22
313.64
314.003
314.476
314.628
314.859
314.878
314.735
314.504
314.347
314.107
314.032
314.036
314.173
314.463
310.711
310.526
310.451
310.456
310.74
310.887
311.223
311.504
311.893
312.024
312.194
312.213
312.115
311.916
311.755
311.567
311.496
311.499
311.609
311.848
308.384
308.247
308.18
308.163
308.404
308.514
308.767
308.987
309.265
309.389
309.514
309.521
309.463
309.299
309.167
309.036
308.964
308.938
309.04
309.221
306.009
305.928
305.87
305.851
306.035
306.111
306.282
306.447
306.631
306.734
306.81
306.807
306.776
306.664
306.587
306.485
306.427
306.404
306.481
306.592
303.622
303.594
303.537
303.508
303.626
303.666
303.77
303.897
304.001
304.053
304.1
304.079
304.068
304.03
303.975
303.908
303.868
303.862
303.903
303.966
301.224
301.208
301.182
301.182
301.214
301.221
301.259
301.309
301.334
301.359
301.388
301.375
301.364
301.347
301.338
301.304
301.307
301.295
301.314
301.327
318.006
317.757
317.525
317.555
317.925
318.341
318.929
319.449
319.985
320.34
320.554
320.652
320.619
320.261
319.978
319.759
319.652
319.602
319.891
320.215
315.776
315.558
315.344
315.379
315.684
316.054
316.563
316.988
317.45
317.738
317.917
317.981
317.973
317.648
317.396
317.194
317.075
317.069
317.286
317.531
313.477
313.265
313.09
313.127
313.38
313.69
314.127
314.462
314.867
315.096
315.264
315.264
315.28
314.983
314.761
314.608
314.481
314.488
314.646
314.853
311.119
310.934
310.766
310.829
311.016
311.258
311.632
311.902
312.231
312.412
312.564
312.529
312.549
312.294
312.101
311.993
311.876
311.883
311.979
312.161
308.699
308.544
308.426
308.484
308.644
308.797
309.091
309.321
309.536
309.709
309.815
309.785
309.783
309.613
309.422
309.349
309.254
309.253
309.312
309.453
306.23
306.131
306.064
306.091
306.196
306.299
306.519
306.69
306.816
306.98
307.029
307.024
307.005
306.89
306.74
306.678
306.631
306.62
306.669
306.749
303.744
303.695
303.655
303.67
303.729
303.79
303.922
304.025
304.078
304.204
304.237
304.224
304.194
304.148
304.05
304.012
303.987
304.005
303.999
304.055
301.269
301.247
301.232
301.228
301.256
301.271
301.318
301.355
301.368
301.41
301.43
301.409
301.405
301.388
301.364
301.336
301.341
301.354
301.341
301.353
318.666
318.346
318.244
318.304
318.531
318.908
319.454
319.958
320.437
320.865
321.124
321.177
321.197
320.935
320.653
320.462
320.365
320.277
320.462
320.89
316.357
316.084
315.994
316.015
316.225
316.532
317.006
317.429
317.843
318.173
318.401
318.449
318.447
318.217
317.982
317.803
317.745
317.616
317.793
318.159
313.969
313.73
313.649
313.649
313.827
314.088
314.492
314.852
315.194
315.456
315.638
315.658
315.666
315.452
315.265
315.109
315.061
314.926
315.095
315.404
311.519
311.312
311.224
311.247
311.392
311.592
311.923
312.216
312.476
312.716
312.864
312.856
312.866
312.676
312.529
312.377
312.359
312.238
312.398
312.627
309.009
308.868
308.762
308.804
308.91
309.056
309.324
309.545
309.731
309.937
310.071
310.044
310.043
309.9
309.778
309.639
309.627
309.54
309.679
309.826
306.45
306.378
306.284
306.313
306.39
306.502
306.674
306.851
306.966
307.13
307.21
307.216
307.193
307.082
307.004
306.899
306.877
306.824
306.927
307.025
303.88
303.849
303.785
303.803
303.841
303.911
304.022
304.131
304.203
304.293
304.33
304.356
304.343
304.259
304.213
304.164
304.143
304.096
304.173
304.226
301.306
301.283
301.272
301.272
301.286
301.305
301.354
301.389
301.418
301.45
301.455
301.456
301.46
301.434
301.406
301.397
301.4
301.38
301.402
301.426
319.366
319.078
318.992
318.959
319.223
319.505
320.099
320.584
320.941
321.455
321.753
321.796
321.816
321.686
321.244
321.042
320.947
320.901
321.112
321.474
316.958
316.706
316.635
316.575
316.801
317.059
317.577
317.968
318.262
318.69
318.945
318.97
318.994
318.87
318.472
318.305
318.233
318.166
318.331
318.618
314.45
314.24
314.195
314.122
314.317
314.541
315.003
315.316
315.537
315.886
316.095
316.121
316.14
316.036
315.672
315.548
315.503
315.417
315.536
315.768
311.891
311.714
311.675
311.622
311.781
311.944
312.365
312.611
312.768
313.062
313.203
313.231
313.254
313.152
312.844
312.748
312.697
312.651
312.747
312.912
309.268
309.154
309.119
309.084
309.196
309.332
309.674
309.846
309.983
310.212
310.29
310.318
310.352
310.26
310.018
309.905
309.909
309.859
309.938
310.035
306.633
306.548
306.533
306.523
306.58
306.689
306.942
307.044
307.173
307.322
307.384
307.378
307.403
307.33
307.167
307.08
307.102
307.075
307.119
307.164
303.992
303.947
303.953
303.925
303.956
304.026
304.185
304.253
304.315
304.4
304.446
304.446
304.46
304.392
304.314
304.253
304.261
304.254
304.268
304.307
301.341
301.325
301.329
301.313
301.329
301.355
301.411
301.43
301.446
301.462
301.501
301.484
301.506
301.467
301.437
301.42
301.427
301.426
301.431
301.452
320.042
319.794
319.722
319.653
319.921
320.234
320.745
321.222
321.573
322.082
322.335
322.493
322.37
322.194
321.843
321.702
321.612
321.498
321.731
322.087
317.54
317.324
317.276
317.193
317.452
317.664
318.133
318.521
318.805
319.221
319.432
319.586
319.486
319.305
319.001
318.887
318.797
318.662
318.886
319.187
314.948
314.777
314.745
314.641
314.899
315.042
315.457
315.775
315.989
316.315
316.484
316.634
316.542
316.39
316.101
316.04
315.965
315.819
316.002
316.24
312.289
312.193
312.165
312.05
312.25
312.365
312.719
312.976
313.144
313.386
313.527
313.669
313.565
313.435
313.185
313.146
313.11
312.954
313.094
313.295
309.598
309.539
309.516
309.427
309.559
309.66
309.927
310.127
310.265
310.458
310.55
310.676
310.57
310.473
310.269
310.231
310.22
310.082
310.206
310.341
306.873
306.841
306.818
306.764
306.834
306.937
307.123
307.269
307.357
307.519
307.568
307.648
307.558
307.486
307.333
307.312
307.306
307.217
307.288
307.398
304.133
304.123
304.101
304.076
304.114
304.186
304.3
304.381
304.431
304.535
304.562
304.596
304.539
304.493
304.387
304.385
304.395
304.352
304.362
304.436
301.375
301.381
301.375
301.361
301.387
301.4
301.45
301.473
301.486
301.522
301.531
301.546
301.524
301.507
301.475
301.466
301.485
301.464
301.462
301.485
320.739
320.514
320.43
320.371
320.479
320.913
321.257
321.802
322.221
322.605
322.854
322.874
322.922
322.8
322.627
322.406
322.267
322.298
322.365
322.723
318.139
317.955
317.881
317.793
317.897
318.27
318.564
319.036
319.385
319.709
319.892
319.932
319.957
319.839
319.687
319.497
319.364
319.396
319.429
319.717
315.442
315.315
315.256
315.156
315.24
315.556
315.787
316.173
316.478
316.757
316.886
316.922
316.965
316.846
316.732
316.549
316.434
316.442
316.487
316.706
312.714
312.621
312.55
312.48
312.558
312.799
312.986
313.284
313.526
313.733
313.846
313.886
313.929
313.823
313.745
313.545
313.488
313.481
313.534
313.674
309.95
309.874
309.802
309.773
309.835
309.956
310.163
310.375
310.558
310.718
310.786
310.84
310.871
310.786
310.724
310.568
310.501
310.495
310.544
310.633
307.149
307.099
307.018
307.014
307.064
307.119
307.302
307.436
307.56
307.684
307.724
307.742
307.781
307.719
307.685
307.558
307.515
307.493
307.543
307.613
304.317
304.275
304.207
304.237
304.246
304.274
304.385
304.465
304.538
304.614
304.651
304.661
304.663
304.637
304.634
304.54
304.523
304.474
304.545
304.579
301.455
301.433
301.41
301.431
301.429
301.429
301.46
301.499
301.525
301.545
301.556
301.563
301.553
301.559
301.56
301.527
301.524
301.502
301.518
301.54
321.421
321.107
321.062
321.105
321.272
321.577
321.934
322.36
322.751
323.041
323.368
323.418
323.434
323.298
323.165
322.974
322.925
322.93
323.092
323.379
318.722
318.445
318.421
318.451
318.571
318.869
319.151
319.487
319.835
320.08
320.339
320.361
320.401
320.283
320.166
319.997
319.95
319.908
320.081
320.281
315.956
315.717
315.704
315.723
315.806
316.072
316.301
316.566
316.852
317.065
317.286
317.317
317.325
317.232
317.123
316.962
316.922
316.882
317.04
317.179
313.112
312.959
312.911
312.969
312.991
313.208
313.418
313.628
313.829
313.993
314.183
314.224
314.198
314.137
314.054
313.927
313.871
313.84
313.961
314.075
310.243
310.151
310.084
310.157
310.137
310.298
310.478
310.634
310.787
310.9
311.042
311.083
311.07
311.035
310.97
310.845
310.803
310.768
310.895
310.959
307.332
307.298
307.246
307.306
307.273
307.375
307.498
307.613
307.734
307.807
307.892
307.928
307.887
307.902
307.87
307.759
307.725
307.692
307.795
307.846
304.405
304.399
304.356
304.407
304.38
304.442
304.517
304.567
304.654
304.69
304.732
304.763
304.741
304.755
304.746
304.667
304.647
304.622
304.688
304.723
301.482
301.483
301.463
301.477
301.471
301.499
301.51
301.536
301.559
301.58
301.587
301.603
301.59
301.597
301.592
301.558
301.565
301.557
301.573
301.587
322.11
321.825
321.792
321.66
321.885
322.233
322.58
322.913
323.376
323.592
323.833
323.927
323.923
323.817
323.73
323.654
323.556
323.66
323.827
324.043
319.308
319.066
319.049
318.924
319.127
319.432
319.702
319.982
320.391
320.554
320.76
320.804
320.81
320.698
320.647
320.576
320.467
320.549
320.706
320.88
316.433
316.273
316.238
316.108
316.315
316.562
316.784
317.018
317.36
317.445
317.628
317.643
317.683
317.545
317.54
317.469
317.376
317.42
317.557
317.689
313.524
313.404
313.349
313.255
313.434
313.632
313.806
314.016
314.268
314.308
314.468
314.461
314.517
314.383
314.391
314.326
314.26
314.299
314.411
314.486
310.574
310.465
310.432
310.365
310.495
310.655
310.774
310.955
311.139
311.155
311.283
311.25
311.327
311.193
311.194
311.171
311.125
311.148
311.237
311.283
307.588
307.497
307.486
307.468
307.53
307.643
307.722
307.857
307.995
307.965
308.081
308.058
308.107
308.016
308.014
307.987
307.979
307.981
308.04
308.076
304.573
304.505
304.513
304.517
304.546
304.608
304.651
304.75
304.808
304.795
304.858
304.839
304.86
304.831
304.815
304.791
304.791
304.8
304.849
304.866
301.536
301.51
301.514
301.522
301.527
301.541
301.566
301.591
301.609
301.605
301.639
301.601
301.619
301.612
301.618
301.597
301.609
301.618
301.628
301.641
322.866
322.591
322.5
322.416
322.479
322.798
323.093
323.472
323.832
324.188
324.43
324.481
324.489
324.334
324.241
324.135
324.153
324.304
324.54
324.717
319.963
319.729
319.658
319.593
319.635
319.921
320.152
320.482
320.779
321.074
321.256
321.3
321.299
321.166
321.064
320.968
320.994
321.122
321.318
321.447
316.983
316.826
316.743
316.685
316.749
316.984
317.14
317.423
317.697
317.934
318.058
318.07
318.046
317.963
317.873
317.789
317.792
317.93
318.066
318.155
313.945
313.86
313.772
313.717
313.776
313.993
314.077
314.338
314.545
314.733
314.828
314.82
314.792
314.733
314.671
314.592
314.608
314.708
314.797
314.854
310.902
310.838
310.758
310.719
310.775
310.944
310.98
311.213
311.344
311.511
311.554
311.568
311.551
311.488
311.46
311.385
311.38
311.465
311.508
311.564
307.833
307.771
307.712
307.69
307.736
307.836
307.872
308.039
308.118
308.242
308.275
308.292
308.274
308.234
308.22
308.135
308.163
308.2
308.226
308.267
304.727
304.707
304.644
304.631
304.66
304.729
304.737
304.845
304.884
304.972
304.99
305.003
304.975
304.953
304.955
304.876
304.922
304.932
304.944
304.969
301.587
301.588
301.552
301.548
301.566
301.592
301.587
301.623
301.633
301.67
301.676
301.687
301.664
301.666
301.667
301.638
301.658
301.657
301.657
301.66
323.617
323.405
323.23
323.185
323.204
323.365
323.771
324.022
324.427
324.69
324.959
324.991
324.956
324.934
324.843
324.72
324.832
324.858
325.093
325.361
320.612
320.464
320.3
320.246
320.236
320.416
320.759
320.941
321.309
321.509
321.747
321.763
321.728
321.676
321.609
321.508
321.575
321.608
321.785
321.997
317.539
317.426
317.28
317.237
317.221
317.385
317.662
317.809
318.135
318.28
318.478
318.488
318.454
318.385
318.352
318.257
318.283
318.342
318.441
318.628
314.424
314.315
314.205
314.18
314.163
314.299
314.502
314.638
314.913
315.027
315.154
315.161
315.13
315.08
315.073
314.959
314.962
315.042
315.084
315.243
311.279
311.164
311.099
311.065
311.043
311.154
311.308
311.43
311.645
311.716
311.808
311.82
311.77
311.747
311.772
311.646
311.653
311.718
311.74
311.869
308.091
307.994
307.953
307.922
307.909
307.993
308.098
308.2
308.344
308.38
308.442
308.457
308.414
308.409
308.433
308.32
308.332
308.365
308.39
308.482
304.869
304.811
304.766
304.756
304.765
304.792
304.865
304.942
305.018
305.034
305.066
305.074
305.056
305.066
305.073
304.988
305.005
305.009
305.052
305.103
301.635
301.609
301.596
301.589
301.601
301.596
301.627
301.656
301.683
301.698
301.704
301.7
301.701
301.703
301.702
301.673
301.678
301.678
301.69
301.709
324.286
324.075
323.885
323.773
323.76
323.976
324.331
324.583
324.945
325.125
325.278
325.487
325.397
325.424
325.37
325.404
325.378
325.475
325.725
326.041
321.204
321.014
320.866
320.757
320.739
320.929
321.223
321.434
321.754
321.882
322.007
322.204
322.098
322.121
322.05
322.084
322.057
322.127
322.347
322.595
318.066
317.862
317.748
317.679
317.65
317.809
318.053
318.24
318.506
318.573
318.707
318.87
318.781
318.786
318.686
318.736
318.689
318.76
318.948
319.139
314.868
314.654
314.6
314.547
314.513
314.643
314.834
314.984
315.203
315.249
315.366
315.49
315.441
315.408
315.308
315.347
315.302
315.37
315.522
315.68
311.602
311.434
311.401
311.375
311.346
311.429
311.584
311.703
311.853
311.912
311.996
312.08
312.041
312.014
311.929
311.945
311.881
311.973
312.092
312.204
308.292
308.204
308.191
308.161
308.152
308.177
308.294
308.405
308.468
308.514
308.6
308.648
308.628
308.589
308.52
308.545
308.478
308.571
308.644
308.729
304.986
304.938
304.923
304.916
304.914
304.92
304.972
305.065
305.098
305.106
305.185
305.202
305.207
305.166
305.116
305.136
305.088
305.146
305.196
305.241
301.674
301.657
301.657
301.655
301.643
301.651
301.668
301.708
301.707
301.722
301.746
301.739
301.746
301.727
301.715
301.723
301.71
301.713
301.739
301.749
324.934
324.677
324.536
324.339
324.459
324.577
324.853
325.206
325.383
325.574
325.746
325.86
325.916
325.829
325.794
325.851
325.93
326.119
326.372
326.64
321.763
321.544
321.397
321.24
321.361
321.442
321.658
321.954
322.108
322.263
322.401
322.522
322.541
322.479
322.394
322.467
322.543
322.67
322.886
323.118
318.525
318.362
318.213
318.088
318.209
318.267
318.423
318.644
318.77
318.922
319.017
319.143
319.125
319.072
318.987
319.033
319.14
319.206
319.375
319.599
315.231
315.134
314.981
314.892
314.985
315.033
315.136
315.316
315.414
315.561
315.611
315.717
315.678
315.641
315.571
315.591
315.678
315.731
315.848
316.069
311.903
311.818
311.691
311.618
311.712
311.729
311.798
311.95
312.006
312.155
312.165
312.264
312.237
312.185
312.136
312.127
312.188
312.246
312.343
312.533
308.554
308.461
308.376
308.33
308.388
308.417
308.445
308.563
308.598
308.717
308.698
308.773
308.773
308.728
308.679
308.668
308.699
308.761
308.829
308.967
305.146
305.089
305.042
305.022
305.064
305.059
305.079
305.153
305.172
305.262
305.233
305.257
305.271
305.258
305.228
305.204
305.224
305.26
305.298
305.394
301.724
301.71
301.685
301.68
301.711
301.681
301.704
301.727
301.741
301.774
301.748
301.758
301.772
301.777
301.756
301.742
301.743
301.774
301.782
301.803
325.559
325.431
325.201
325.042
325.075
325.091
325.336
325.644
325.793
326.043
326.067
326.174
326.321
326.343
326.38
326.306
326.517
326.728
326.966
327.282
322.319
322.185
321.997
321.845
321.872
321.861
322.081
322.347
322.45
322.691
322.668
322.777
322.892
322.913
322.939
322.858
323.03
323.177
323.422
323.671
319.005
318.872
318.729
318.571
318.595
318.579
318.758
318.984
319.037
319.276
319.229
319.319
319.428
319.437
319.467
319.386
319.521
319.616
319.829
320.04
315.638
315.495
315.39
315.23
315.291
315.286
315.385
315.58
315.607
315.821
315.767
315.837
315.939
315.947
315.948
315.916
315.98
316.047
316.216
316.406
312.206
312.09
311.994
311.879
311.95
311.957
311.989
312.17
312.171
312.338
312.269
312.338
312.419
312.426
312.438
312.409
312.427
312.492
312.613
312.772
308.751
308.662
308.596
308.518
308.577
308.574
308.583
308.724
308.724
308.838
308.788
308.831
308.872
308.888
308.91
308.883
308.871
308.92
309.014
309.139
305.281
305.228
305.167
305.119
305.187
305.16
305.164
305.238
305.243
305.319
305.281
305.312
305.324
305.336
305.354
305.327
305.305
305.355
305.403
305.493
301.767
301.747
301.735
301.712
301.747
301.735
301.733
301.755
301.764
301.778
301.783
301.791
301.781
301.801
301.792
301.789
301.776
301.802
301.813
301.847
326.194
325.989
325.641
325.486
325.509
325.579
325.686
325.969
326.155
326.377
326.587
326.458
326.615
326.579
326.742
326.722
326.931
327.141
327.442
327.671
322.837
322.662
322.355
322.206
322.215
322.268
322.382
322.627
322.753
322.944
323.111
322.991
323.125
323.098
323.226
323.201
323.361
323.563
323.79
323.981
319.4
319.27
319.005
318.865
318.897
318.934
319.034
319.214
319.302
319.478
319.582
319.492
319.597
319.599
319.684
319.659
319.774
319.98
320.117
320.261
315.926
315.835
315.613
315.487
315.526
315.541
315.616
315.775
315.829
315.965
316.066
315.957
316.056
316.07
316.12
316.114
316.179
316.38
316.454
316.551
312.421
312.33
312.195
312.097
312.101
312.108
312.165
312.311
312.329
312.443
312.519
312.414
312.506
312.535
312.559
312.57
312.58
312.746
312.79
312.86
308.898
308.822
308.733
308.678
308.665
308.642
308.711
308.811
308.817
308.903
308.946
308.881
308.964
308.97
308.982
308.994
308.992
309.113
309.132
309.181
305.345
305.295
305.262
305.227
305.218
305.203
305.248
305.299
305.307
305.347
305.367
305.35
305.407
305.394
305.411
305.419
305.402
305.485
305.466
305.51
301.785
301.772
301.766
301.758
301.749
301.737
301.761
301.772
301.775
301.791
301.8
301.786
301.811
301.809
301.809
301.812
301.812
301.831
301.837
301.852
)
;

boundaryField
{
    hotSide
    {
        type            fixedGradient;
        gradient        nonuniform List<scalar> 
400
(
142.688
143.549
145.654
148.971
153.375
158.683
164.702
171.253
178.189
185.394
192.781
200.286
207.865
215.488
223.138
230.809
238.501
246.218
253.965
261.745
137.028
137.999
140.302
143.898
148.635
154.298
160.665
167.539
174.762
182.212
189.802
197.469
205.172
212.885
220.595
228.301
236.008
243.725
251.463
259.229
134.816
136.015
138.528
142.312
147.215
153.025
159.521
166.504
173.815
181.33
188.961
196.645
204.341
212.026
219.689
227.332
234.964
242.597
250.245
257.917
135.836
137.372
140.113
144.013
148.943
154.722
161.153
168.054
175.271
182.683
190.2
197.758
205.317
212.854
220.361
227.841
235.306
242.769
250.245
257.745
139.228
141.164
144.162
148.176
153.099
158.785
165.068
171.789
178.806
186.003
193.292
200.611
207.92
215.201
222.449
229.67
236.877
244.086
251.314
258.572
144.014
146.373
149.666
153.844
158.813
164.449
170.609
177.152
183.948
190.887
197.887
204.892
211.868
218.805
225.705
232.581
239.452
246.336
253.252
260.214
149.397
152.18
155.804
160.213
165.316
170.995
177.12
183.553
190.169
196.863
203.559
210.211
216.799
223.328
229.813
236.28
242.755
249.262
255.824
262.457
154.773
157.963
161.938
166.633
171.955
177.784
183.98
190.401
196.913
203.409
209.817
216.106
222.278
228.361
234.394
240.417
246.469
252.58
258.776
265.073
159.672
163.224
167.536
172.541
178.137
184.195
190.559
197.066
203.56
209.92
216.077
222.019
227.781
233.42
239.005
244.596
250.243
255.982
261.838
267.829
163.723
167.55
172.138
177.416
183.278
189.585
196.162
202.815
209.36
215.651
221.619
227.274
232.686
237.952
243.164
248.402
253.722
259.166
264.756
270.509
166.661
170.632
175.374
180.818
186.855
193.338
200.079
206.863
213.479
219.763
225.642
231.143
236.361
241.417
246.423
251.465
256.605
261.885
267.327
272.945
168.363
172.317
177.055
182.507
188.563
195.074
201.849
208.673
215.332
221.662
227.589
233.136
238.396
243.487
248.518
253.577
258.726
264.006
269.443
275.049
168.886
172.663
177.241
182.55
188.478
194.878
201.567
208.347
215.025
221.453
227.557
233.339
238.863
244.218
249.496
254.775
260.113
265.553
271.121
276.834
168.471
171.945
176.252
181.324
187.051
193.286
199.859
206.59
213.31
219.89
226.251
232.374
238.285
244.039
249.702
255.333
260.984
266.697
272.499
278.41
167.537
170.625
174.609
179.423
184.955
191.059
197.565
204.305
211.123
217.898
224.547
231.033
237.356
243.54
249.625
255.655
261.671
267.709
273.797
279.958
166.678
169.341
172.995
177.577
182.97
189.012
195.527
202.339
209.298
216.282
223.207
230.025
236.718
243.29
249.764
256.169
262.535
268.895
275.274
281.695
166.682
168.921
172.264
176.653
181.953
187.981
194.537
201.438
208.528
215.687
222.83
229.904
236.882
243.758
250.542
257.252
263.913
270.549
277.185
283.84
168.5
170.364
173.422
177.621
182.81
188.782
195.322
202.237
209.371
216.606
223.86
231.076
238.225
245.294
252.284
259.206
266.078
272.921
279.753
286.593
172.977
174.565
177.36
181.314
186.279
192.048
198.411
205.178
212.199
219.36
226.578
233.799
240.987
248.124
255.207
262.238
269.23
276.196
283.152
290.111
180.373
181.796
184.345
187.981
192.581
197.972
203.968
210.403
217.136
224.058
231.09
238.173
245.268
252.354
259.417
266.455
273.474
280.48
287.482
294.491
)
;
    }
    coldSide
    {
        type            mixed;
        refValue        uniform 300;
        refGradient     uniform 0;
        valueFraction   uniform 0.991591;
        source          uniform 0;
        value           nonuniform List<scalar> 
400
(
300.009
300.009
300.009
300.009
300.01
300.01
300.01
300.011
300.011
300.011
300.012
300.012
300.012
300.013
300.013
300.014
300.014
300.014
300.015
300.015
300.009
300.009
300.009
300.009
300.009
300.01
300.01
300.01
300.011
300.011
300.012
300.012
300.012
300.013
300.013
300.014