/*--------------------------------*- C++ -*----------------------------------*\
| =========                 |                                                 |
| \\      /  F ield         | OpenFOAM: The Open Source CFD Toolbox           |
|  \\    /   O peration     | Version:  2212                                  |
|   \\  /    A nd           | Website:  www.openfoam.com                      |
|    \\/     M anipulation  |                                                 |
\*---------------------------------------------------------------------------*/
FoamFile
{
    version     2.0;
    format      ascii;
    arch        "LSB;label=32;scalar=64";
    class       volScalarField;
    location    "0";
    object      stateMean;
}
// * * * * * * * * * * * * * * * * * * * * * * * * * * * * * * * * * * * * * //

dimensions      [0 0 0 1 0 0 0];

internalField   nonuniform List<scalar> 
3200
(
313.055
317.428
312.939
314.959
317.154
314.957
315.897
316.48
316.686
316.527
318.257
316.894
316.44
315.542
315.546
314.463
313.832
316.288
316.236
313.84
313.371
313.006
314.591
313.196
313.803
313.313
316.367
314.312
313.607
313.437
316.111
312.877
315.728
313.943
312.706
312.493
312.776
315.866
313.11
312.404
311.32
311.49
309.104
312.663
311.05
311.549
312.954
311.996
313.868
313.557
312.884
311.033
314.568
314.099
312.203
309.231
313.382
312.106
310.879
311.647
307.294
309.918
310.482
310.879
307.998
307.87
310.413
309.863
309.763
310.643
310.528
311.198
307.881
308.985
308.687
309.66
308.288
311.349
309.248
307.877
306.917
307.727
307.993
309.584
307.147
306.597
307.698
305.298
305.62
306.163
307.211
306.435
308.884
308.546
307.912
307.696
309.11
309.091
307.829
307.584
305.862
303.406
306.675
304.302
305.986
303.6
305.157
305.286
307.189
304.492
304.687
304.462
305.984
304.719
305.28
307.084
304.342
306.833
305.646
305.04
303.242
301.096
304.36
301.017
303.972
302.845
304.241
301.706
304.413
302.037
303.499
302.24
304.739
304.376
305.716
303.088
302.23
303.267
303.99
305.096
299.696
300.241
300.987
301.541
301.352
303.276
301.57
300.887
301.28
301.791
303.287
300.938
301.937
300.918
300.335
300.633
298.859
302.878
299.355
303.242
316.936
315.004
316.358
317.388
315.335
315.964
317.189
316.15
315.399
317.88
315.775
316.836
319.142
317.77
315.964
316.504
317.449
315.707
318.74
315.656
312.706
314.859
314.766
314.694
311.542
318.637
315.014
319.242
315.164
319.423
319.167
313.845
318.987
314.518
318.654
314.045
318.159
315.008
317.128
314.136
310.381
309.825
313.967
311.898
312.462
309.171
310.542
312.291
311.548
312.64
313.392
313.227
314.286
314.338
310.145
313.695
312.634
311.397
311.521
311.01
308.193
310.978
311.061
306.665
308.041
311.842
308.803
310.065
310.663
310.737
307.65
309.353
309.622
310.535
310.998
312.935
310.381
308.517
308.515
310.197
308.064
308.009
307.567
306.557
308.036
309.547
306.575
308.126
308.889
309.68
307.525
306.855
307.701
309.421
308.149
308.262
305.318
309.47
306.144
304.721
302.078
305.707
305.356
305.511
303.328
307.446
307.135
308.372
305.075
305.96
306.455
305.814
306.848
304.735
305.843
304.032
307.208
305.945
306.036
308.287
303.636
303.494
303.757
301.573
301.733
299.93
302.312
302.311
306.65
302.207
304.236
302.795
304.839
304.763
302.466
303.236
301.639
302.457
304.461
302.477
300.046
302.101
302.666
300.441
299.54
301.868
301.713
301.039
300.481
302.148
299.356
301.495
301.317
301.514
300.319
299.85
303.031
301.435
302.342
301.092
314.944
314.836
319.421
315.698
318.266
316.365
316.592
318.946
317.172
317.155
317.29
318.22
318.478
316.29
317.414
318.085
317.586
317.111
317.068
317.152
315.683
314.318
314.199
317.085
317.069
315.792
316.774
314.012
316.346
315.48
315.315
316.551
315.754
318.476
315.655
316.31
314.688
313.84
315.362
316.076
310.911
311.104
311.69
314.082
316.35
311.31
313.104
309.347
311.827
315.444
313.659
314.207
312.292
312.697
312.134
314.641
312.826
310.868
313.03
310.829
310.07
311.641
311.264
310.847
311.258
313.012
309.394
310.865
310.266
310.543
308.785
308.416
311.915
312.17
311.043
311.375
309.743
310.284
309.248
310.672
309.026
306.788
308.236
307.327
307.941
308.526
308.47
308.069
307.755
307.818
307.184
306.601
310.623
309.319
308.377
309.105
306.096
309.186
307.848
308.507
307.918
305.727
305.001
304.195
304.977
306.097
306.373
306.225
305.925
303.647
307.053
305.986
307.402
305.265
306.482
306.576
306.106
306.292
305.618
307.679
300.811
301.848
304.134
303.699
302.961
302.516
303.824
303.776
306.593
302.307
302.448
300.716
305.977
303.048
303.444
302.438
303.902
303.608
303.751
303.331
302.025
301.236
299.549
300.151
302.991
300.019
299.919
299.056
301.958
300.976
300.565
301.707
301.839
299.507
303.312
299.436
303.815
301.648
300.265
301.851
316.688
315.656
320.885
319.448
319.204
320.235
318.734
317.152
314.716
316.938
318.394
318.69
320.849
318.18
318.012
319.728
320.847
317.046
319.652
316.026
314.633
315.763
313.913
318.263
316.916
319.059
314.769
319.521
317.009
320.451
319.251
314.618
320.041
317.606
318.699
315.21
318.084
315.36
317.014
315
313.577
311.452
312.05
312.536
313.94
314.685
312.123
315.106
312.371
314.64
313.824
314.721
313.489
313.097
314.247
312.735
313.652
313.483
312.155
312.021
309.808
311.865
310.867
309.307
311.617
312.699
310.749
310.662
312.016
310.835
311.905
311.175
311.788
311.772
309.513
310.925
310.599
309.401
310.938
307.609
309.048
309.611
307.342
307.497
311.599
310.47
308.968
310.428
309.8
310.196
307.109
309.012
309.451
306.644
307.54
309.275
310.669
309.866
305.407
311.983
306.866
304.724
304.885
307.542
306.235
308.685
306.474
309.368
306.136
304.846
306.463
306.621
306.501
304.193
306.079
308.199
306.897
305.752
304.907
305.686
304.463
303.082
302.419
303.28
302.059
304.412
302.854
304.689
306.119
301.254
303.469
303.1
303.043
304.935
304.136
306.836
304.483
304.853
304.171
304.147
300.879
301.925
301.723
303.361
300.502
301.723
301.247
299.82
300.432
302.371
300.883
302.291
302.487
301.832
300.717
299.903
301.443
301.325
300.753
301.053
317.36
319.406
316.044
319.201
321.293
316.256
318.328
317.454
320.214
322.228
320.077
319.533
320.298
321.384
317.847
322.363
316.463
319.364
319.609
318.12
316.489
316.453
316.64
315.573
317.694
316.917
316.402
316.045
316.931
316.339
317.791
316.116
318.199
317.938
315.82
315.959
318.005
316.676
316.534
316.075
311.622
311.253
313.203
314.38
313.87
312.841
314.855
313.983
314.69
314.911
314.324
315.52
315.041
314.783
313.306
314.347
313.999
313.402
313.466
311.07
311.272
310.9
311.18
311.407
314.002
314.204
313.222
311.061
313.278
308.804
310.339
313.008
311.717
311.282
310.163
313.003
311.787
310.724
308.809
310.628
309.458
309.86
309.919
310.025
309.94
310.404
309.76
309.727
309.307
308.003
309.172
307.325
310.218
307.843
308.333
307.622
307.826
310.836
310.235
311.692
307.992
304.872
305.456
306.464
308.259
308.046
305.36
306.601
307.369
305.966
305.215
306.769
307.114
307.1
306.805
306.941
306.137
305.601
306.55
306.279
303.779
303.053
306.587
301.409
304.642
304.006
305.4
303.839
303.14
303.004
302.935
303.908
303.712
307.789
304.159
303.068
303.309
304.107
303.419
304.752
300.666
302.015
303.224
300.242
302.013
301.404
303.101
299.918
300.5
303.653
301.732
300.861
302.885
300.123
300.645
304.05
301.909
302.218
303.476
301.93
318.098
318.649
320.596
320.022
322.354
322.799
317.42
319.782
321.583
322.397
320.757
320.731
321.148
321.44
320.989
321.327
321.597
322.147
318.389
318.713
317.521
314.717
318.511
317.689
316.543
319.165
316.326
320.064
318.994
320.017
320.527
319.61
319.295
318.786
319.595
319.214
319.258
317.547
318.588
315.507
313.018
316.027
314.062
314.408
313.585
313.456
314.457
316.627
314.582
316.766
316.895
314.939
314.803
316.119
316.501
316.287
314.825
314.255
316.336
313.668
311.056
310.478
312.516
312.03
313.053
311.032
312.074
311.439
312.99
312.191
312.36
310.951
310.54
311.32
312.223
311.439
311.663
311.167
313.559
311.812
309.966
307.5
308.186
308.376
309.833
308.001
308.699
309.6
308.375
312.4
312.1
309.222
308.641
309.245
308.788
310.914
308.603
310.466
307.581
309.897
307.613
304.756
306.213
308.21
306.843
306.161
306.69
307.51
304.954
307.352
307.336
304.85
306.778
305.084
306.384
306.098
305.202
306.412
307.824
305.722
305.468
305.877
304.258
301.429
303.511
301.43
304.481
303.711
303.736
302.677
304.448
304.244
301.888
304.206
303.037
306.297
302.339
303.883
303.723
302.305
301.574
299.82
300.212
301.18
300.32
303.372
300.878
298.668
302.637
302.02
302.731
302.645
300.056
298.859
300.31
303.318
300.77
301.376
299.222
301.296
321.569
320.415
319.347
318.958
320.711
321.591
323.421
325.329
324.612
322.745
322.123
322.371
325.081
322.01
321.589
322.707
321.794
322.04
321.158
320.835
317.188
316.187
318.776
316.519
318.67
320.022
318.073
318.706
317.918
318.73
318.93
317.189
317.797
320.2
318.732
316.152
317.271
319.526
318.706
316.464
314.509
312.024
317.205
315.085
317.442
315.112
315.163
316.532
318.686
317.483
313.209
315.954
315.792
317.708
314.786
315.94
314.117
316.754
313.458
316.976
310.194
312.423
310.769
312.616
312.574
309.577
315.186
312.3
313.59
312.45
312.769
313.427
312.931
314.088
310.598
314.038
313.994
312.877
313.859
313.383
309.141
311.066
308.199
309.279
309.477
308.193
312.426
309.408
309.749
309.514
312.17
311.609
312.858
308.175
308.995
310.482
309.056
306.609
311.719
308.505
306.747
306.519
307.946
306.332
306.148
308.067
308.717
306.62
304.984
305.933
306.813
305.946
308.21
305.833
307.242
307.479
306.754
306.715
307.492
306.544
303.663
304.28
303.154
304.396
303.074
304.3
305.173
306.549
302.805
305.436
302.64
304.675
306.384
305.7
303.456
305.853
302.095
303.214
305.759
305.03
302.409
301.062
300.633
299.81
302.305
302.983
301.175
302.156
302.743
302.571
301.221
300.392
302.208
299.725
303.607
299.822
302.09
302.134
303.129
300.45
318.849
319.711
322.305
321.395
322.041
322.661
322.015
324.428
322.48
323.149
323.616
323.909
324.262
324.67
323.009
324.101
322.978
322.637
322.12
319.613
320.377
317.8
316.627
317.467
320.527
319.596
318.757
319.965
318.99
320.3
320.985
321.435
320.406
320.506
318.957
318.239
319.566
318.814
318.532
317.672
315.671
314.959
317.409
315.784
314.893
314.502
317.348
317.148
314.812
315.683
319.616
316.137
315.557
315.969
316.706
316.249
315.535
316.553
316.116
315.628
310.456
313.584
311.196
314.834
313.931
312.489
312.773
316.296
312.915
312.817
314.183
314.682
311.895
311.524
314.27
314.797
313.173
312.917
314.25
315.341
308.557
310.273
309.567
309.248
313.613
308.816
310.835
311.244
310.738
309.439
309.807
309.729
311.724
308.756
309.408
309.715
308.196
311.269
310.263
308.547
308.096
307.159
304.003
307.98
305.254
310.066
310.876
307.666
308.55
307.21
307.822
306.587
306.249
308.805
307.94
307.202
308.721
305.113
306.5
309.073
303.611
304.512
306.109
304.415
304.843
304.902
301.681
306.266
303.401
303.873
304.337
304.424
303.192
302.482
304.1
309.27
304.822
304.621
303.34
305.594
303.3
302.919
300.349
302.004
300.826
300.398
301.869
302.315
300.27
301.489
298.096
300.06
300.58
300.436
301.449
302.216
301.805
301.946
299.811
300.577
322.182
323.727
322.148
322.848
323.487
322.975
325.479
323.516
323.489
323.391
324.879
324.23
323.568
324.809
323.43
325.344
323.332
323.951
322.749
321.892
317.939
317.793
318.279
318.8
317.916
318.953
320.433
320.04
321.225
318.187
322.226
321.764
321.74
321.277
322.534
322.469
320.441
319.991
322.184
320.53
314.861
315.734
315.252
317.562
316.634
317.956
315.929
318.052
316.689
317.358
318.535
316.405
316.478
316.134
318.809
317.844
316.481
317.574
316.149
316.249
312.166
311.121
311.852
315.423
315.047
312.09
311.921
315.217
313.503
315.545
314.369
313.589
315.577
313.751
313.456
315.955
313.671
314.631
315.67
312.38
311.032
310.413
310.02
310.919
311.398
309.915
309.498
310.851
311.409
311.805
311.391
311.364
312.724
310.25
310.076
310.104
311.608
309.248
310.866
307.122
307.907
305.912
304.699
309.389
308.169
310.311
307.296
307.604
307.526
307.767
306.957
309.371
307.316
309.161
307.076
308.233
309.099
306.913
309.166
308.756
306.343
303.96
303.514
303.908
303.932
305.227
303.439
304.961
304.426
305.14
304.983
305.89
302.178
306.32
305.578
303.57
303.637
303.385
303.735
303.765
299.638
300.973
299.915
302.096
301.695
301.835
301.32
300.952
302.258
304.085
299.524
302.899
299.8
301.462
301.573
302.321
300.728
301.703
301.075
301.812
322.552
323.72
324.325
323.873
326.479
323.518
324.14
322.948
324.368
325.167
323.255
326.389
325.147
326.241
324.738
326.472
326.213
326.495
324.362
323.025
320.903
318.511
317.948
318.097
319.4
321.139
320.731
320.449
322.849
320.685
322.109
320.168
320.706
324.219
320.561
322.228
320.624
318.94
320.15
319.524
314.343
318.451
317.711
316.351
317.071
316.768
318.455
317.782
317.142
318.4
318.047
318.513
319.133
318.529
318.726
318.461
318.055
316.971
317.496
317.509
313.955
311.943
312.156
317.548
313.315
313.61
313.273
313.133
311.76
315.276
315.794
316.77
315.708
313.749
313.753
313.699
312.802
314.115
316.251
314.162
309.071
311.349
308.904
308.062
310.978
310.792
311.625
311.858
310.529
310.942
312.161
311.964
312.26
311.689
313.901
311.877
311.838
309.209
309.61
311.287
308.091
308.315
306.214
305.394
307.523
308.241
307.23
306.543
306.112
309.959
308.95
306.779
307.993
307.619
307.542
307.853
308.026
307.931
307.313
308.415
304.251
304.479
302.716
302.441
305.046
303.076
305.494
306.336
305.562
305.21
305.52
304.73
305.318
306.49
305.035
305.912
303.441
305.244
304.168
305.139
303.005
302.716
302.324
301.053
301.434
301.986
300.648
303.241
302.668
302.666
299.898
303.753
301.769
301.538
303.383
303.707
300.992
302.23
301.81
303.027
324.372
325.847
323.062
326.333
324.257
325.504
325.331
323.332
327.337
325.979
326.991
325.366
326.875
325.581
327.103
325.323
328.171
325.629
325.53
323.311
318.033
319.63
320.568
319.955
322.705
321.591
320.344
321.555
321.502
322.347
322.28
320.918
321.929
324.324
321.193
324.246
321.128
320.769
319.474
319.659
314.792
317.547
316.335
317.665
320.611
319.835
319.602
318.424
314.654
318.697
319.525
319.956
319.493
317.668
318.104
317.537
317.202
317.522
316.028
318.532
315.888
314.121
313.38
315.741
313.891
316.642
316.067
316.09
317.978
316.814
314.428
317.133
316.971
314.66
315.969
315.057
315.637
310.89
313.592
314.232
311.111
309.557
313.186
309.741
312.76
314.985
312.387
313.116
310.992
313.627
315.077
313.173
311.011
310.346
312.529
311.75
311.912
309.758
312.98
310.523
307.945
306.446
307.194
309.285
308.29
307.941
310.898
308.335
312.032
306.717
307.487
310.579
307.148
307.504
306.924
310.128
308.024
308.667
309.357
305.655
304.103
304.122
306.384
305.724
304.392
306.73
304.394
304.315
304.24
306.891
303.976
306.399
305.452
308.08
306.628
303.644
305.338
305.84
305.39
304.513
300.129
301.171
299.772
300.7
302.435
302.063
302.195
300.379
299.417
299.994
303.137
302.517
302.499
302.204
300.756
301.304
298.103
302.102
302.422
302.845
324.756
322.572
324.001
325.114
327.774
328.081
326.871
325.194
328.125
327.092
325.334
325.351
325.812
327.083
326.775
326.422
325.719
327.643
324.749
326.075
321.073
320.878
320.707
322.083
322.125
321.537
323.515
321.248
324.105
322.523
323.613
323.3
323.305
323.223
324.598
323.354
320.764
322.527
322.049
321.154
317.815
316.908
320.379
319.865
318.275
319.308
318.14
318.163
319.376
318.73
319.596
317.621
319.619
320.374
318.863
317.87
318.668
321.268
318.884
319.265
314.118
315.774
313.375
312.071
313.684
316.199
314.709
315.809
317.857
316.655
315.59
315.291
316.684
318.913
314.835
315.348
315.587
318.258
314.193
314.966
310.698
309.956
311.627
312.52
310.105
311.633
313.193
311.711
313.192
312.856
315.143
310.522
312.5
310.432
310.556
313.05
311.862
312.145
309.7
313.728
307.779
306.862
307.599
307.899
306.571
310.134
307.906
309.367
308.531
308.078
310.451
308.131
309.705
308.416
309.392
310.219
310.54
308.675
307.403
307.477
304.07
303.905
306.065
307.523
304.737
303.275
306.107
302.821
304.69
308.565
305.164
304.368
301.434
307.353
308.266
304.107
306.411
307.512
306.377
304.286
302.329
300.468
300.068
302.727
300.455
303.687
303.12
300.728
300.201
299.806
302.902
303.602
301.091
300.107
299.711
303.674
304.126
302.879
302.124
303.24
324.766
326.276
324.047
328.568
324.63
327.537
326.284
325.662
325.405
328.697
330.647
330.16
329.534
330.337
329.814
326.266
326.987
327.141
326.826
325.468
321.002
320.091
322.897
321.299
319.897
322.151
323.011
322.819
324.537
322.443
322.69
322.896
323.032
324.973
322.475
324.149
321.324
324.013
320.76
324.76
319.444
319.264
319.011
316.828
321.497
320.424
319.932
318.565
320.899
319.502
321.136
318.98
320.333
321.941
320.041
321.798
319.742
319.058
321.531
321.496
315.578
315.748
314.529
315.446
317.462
318.236
316.337
315.882
317.27
316.993
318.782
316.375
317.323
318.972
318.104
318.186
317.181
317.585
315.773
315.444
309.734
310.271
311.196
313.175
312.586
310.091
313.982
312.174
312.242
311.335
312.573
309.713
314.287
311.727
312.726
311.652
311.964
311.803
311.871
312.594
307.606
310.445
306.073
309.931
306.783
310.09
311.407
309.137
308.636
310.02
308.66
308.746
308.51
310.415
307.749
308.209
307.48
310.27
309.67
306.377
302.696
305.544
305.115
305.187
304.989
305.644
306.893
303.395
306.401
304.875
303.417
304.92
305.062
308.548
304.076
304.683
307.844
304.484
304.921
302.913
300.554
302.437
301.649
299.868
302.23
302.338
300.025
299.996
300.117
301.346
302.185
302.59
301.159
300.222
303.567
301.396
300.412
301.203
302.657
302.524
326.15
325.458
327.3
328.423
326.545
326.693
328.905
326.098
327.097
329.064
329.429
330.609
328.583
328.603
325.563
327.014
328.713
327.387
328.598
325.812
323.587
321.6
323.95
324.457
325.534
325.828
323.024
324.423
323.298
326.074
326.612
326.403
324.298
325.924
324.334
323.019
322.741
322.416
321.627
322.86
317.539
316.87
319.515
319.083
320.83
319.054
319.651
321.954
321.294
318.422
322.585
321.763
320.519
319.165
321.084
321.526
321.156
318.98
318.775
320.074
314.938
315.029
314.874
316.943
318.826
315.597
318.791
315.914
317.739
318.131
317.076
316.894
316.44
317.294
317.7
316.412
318.237
318.187
316.474
317.163
309.929
310.629
310.106
312.746
310.815
313.889
314.509
312.705
315.007
312.236
314.659
314.66
312.203
312.038
313.909
312.595
313.665
311.362
314.579
314.088
307.345
307.405
307.141
307.68
309.685
308.588
308.687
311.197
309.601
310.894
309.397
310.226
309.676
308.108
306.608
310.809
309.126
308.601
309.703
308.978
304.191
303.503
306.99
304.718
305.96
305.381
306.271
303.711
305.642
304.217
305.968
304.761
305.237
305.984
305.611
304.811
306.87
305.363
302.34
306.718
302.117
298.772
300.821
303.995
302.817
302.356
300.361
301.692
301.191
300.624
302.268
299.699
301.177
304.253
301.76
302.064
301.21
300.793
301.992
300.295
326.986
326.206
327.446
328.368
326.626
328.576
329.563
328.103
329.654
331.017
328.15
329.622
332.69
329.378
328.319
331.088
326.908
328.169
328.468
326.904
323.757
322.331
323.487
323.535
324.029
323.548
324.043
323.315
325.7
323.66
323.965
327.725
324.435
326.13
323.79
323.599
323.758
324.584
322.831
324.796
319.615
317.249
318.057
320.06
320.635
322.013
319.144
317.227
322.242
320.017
322.715
319.552
321.54
321.439
322.514
322.984
322.942
322.875
320.351
320.025
315.343
316.084
316.607
314.243
318.688
316.679
315.395
316.819
317.535
317.779
317.957
318.015
316.98
315.851
317.922
316.886
317.277
316.829
318.46
316.726
312.197
310.68
311.107
312.148
311.404
311.736
314.549
313.031
314.054
313.789
310.445
314.338
313.223
313.917
313.569
313.676
313.145
311.254
314.86
315.253
309.088
306.334
309.478
308.918
311.821
310.717
310.622
309.402
311.665
311.181
310.38
308.858
309.629
310.349
308.2
309.456
310.115
309.246
308.952
311.097
305.342
303.36
305.287
304.677
303.025
304.94
305.706
304.597
303.457
303.247
303.918
306.108
306.582
307.022
306.02
305.764
305.568
305.882
305.083
306.62
301.249
301.637
302.732
303.069
301.856
300.23
300.543
303.743
301.367
302.34
302.187
302.991
302.223
302.473
300.626
304.232
303.174
300.141
301.616
300.032
328.13
327.288
326.011
327.842
329.41
330.776
329.019
330.591
327.448
330.841
329.747
330.895
332.544
331.162
331.345
329.7
330.704
330.639
329.528
328.946
324.438
320.435
323.4
322.749
323.575
327.549
324.688
325.582
327.094
325.293
328.358
328.289
327.2
326.414
325.348
325.16
325.682
324.542
324.519
326.663
318.04
318.671
319.627
321.147
321.081
321.988
320.667
322.437
320.046
321.559
321.331
321.47
322.02
323.171
322.38
322.183
322.001
319.943
320.746
321.89
317.389
316.568
315.442
314.491
316.066
317.565
317.732
318.497
317.705
318.118
318.155
316.978
317.773
318.563
316.365
320.35
315.663
317.189
320.054
317.824
311.282
310.221
312.237
314.406
311.381
311.8
311.929
312.469
312.047
313.94
313.486
313.941
313.387
313.287
313.714
314.513
313.645
311.787
314.949
314.104
307.195
311.082
308.345
307.089
309.937
310.291
307.703
310.07
310.069
307.532
311.614
309.204
308.651
311.417
310.583
307.682
307.864
311.535
309.191
309.443
302.253
305.858
303.398
305.064
305.377
307.229
307.049
306.13
307.581
306.563
305.06
305.813
305.115
308.106
304.656
304.52
304.697
305.042
305.671
305.5
299.765
299.547
303.992
300.452
305.559
302.1
302.695
301.088
302.043
302.185
303.844
300.499
301.943
303.475
302.947
301.861
300.909
300.257
301.369
302.084
327.721
328.659
327.443
326.636
331.075
330.597
332.6
330.682
330.955
331.848
330.367
332.26
328.688
332.114
330.663
331.05
330.951
328.986
330.162
327.805
324.143
322.674
322.756
325.829
328.517
325.694
326.912
325.381
328.482
325.5
325.49
328.625
325.032
325.701
325.233
328.783
324.666
323.868
325.227
324.886
317.41
321.255
319.774
321.735
322.897
320.385
321.865
323.1
322.852
320.836
322.592
321.712
320.348
323.521
322.996
323.658
323.237
323.219
322.898
321.311
316.224
317.706
318.258
317.646
317.867
317.604
320.608
316.267
317.687
319.468
320.189
318.461
317.613
318.014
319.761
318.715
319.015
318.238
319.175
316.188
312.239
312.15
313.319
312.703
315.548
312.156
312.185
314.976
313.124
316.03
316.223
314.659
314.023
312.077
314.521
314.685
312.522
315.446
314.965
313.547
309.733
311.879
310.486
310.294
309.52
311.221
309.587
309.792
309.388
311.021
311.231
307.414
309.97
309.962
308.07
310.671
310.529
313.461
309.82
310.073
305.135
304.745
305.031
304.867
306.449
304.964
305.337
306.319
308.054
306.097
306.563
307.765
306.182
306.615
305.899
304.814
306.597
305.83
305.955
306.537
299.834
299.943
302.277
303.201
299.907
300.969
300.915
301.346
302.812
303.343
302.424
301.98
300.612
301.718
301.961
302.794
302.867
300.503
300.338
302.306
327.59
329.317
330.205
328.737
330.024
329.945
331.77
331.765
332.666
333.28
335.265
331.343
331.107
332.166
329.406
332.04
331.354
329.841
328.986
329.265
321.347
326.288
325.467
323.498
327.466
326.75
325.621
323.382
328.517
326.817
329.278
328.572
326.435
328.25
326.097
327.021
327.038
326.91
323.082
326.527
320.162
319.03
323.975
322.103
323.311
322.169
323.276
320.544
322.576
323.529
324.548
321.144
320.804
322.163
323.449
321.708
323.78
323.815
321.926
317.984
318.767
317.255
319.354
317.991
319.295
319.422
316.964
318.126
319.148
319.985
318.975
320.965
319.591
320.203
318.161
319.504
318.814
318.086
317.342
316.05
312.696
312.807
312.999
314.702
311.938
313.526
314.183
314.235
315.765
312.733
314.689
316.104
313.275
315.164
312.939
314.216
312.699
311.294
312.994
313.05
307.845
307.777
309.004
310.568
309.958
309.799
311.407
309.08
311.281
306.787
311.265
309.876
312.735
309.188
310.814
313.372
309.168
310.549
308.64
310.529
303.813
305.437
304.747
305.522
306.416
304.515
306.239
306.414
306.298
305.459
304.37
307.341
306.517
308.415
305.763
306.975
305.498
305.273
306.859
306.797
302.561
301.148
301.121
302.838
301.019
302.092
302.908
304.372
301.865
299.805
302.383
301.069
301.806
302.859
300.753
302.482
301.874
302.207
303.362
301.616
328.102
328.65
331.371
330.313
331.222
328.994
330.746
331.953
332.882
333.677
332.647
334.556
329.318
332.516
332.197
333.372
329.026
332.521
331.344
328.653
325.933
326.602
325.479
326.641
325.423
326.48
326.232
327.163
330.71
327.509
327.289
327.901
327.827
327.455
327.356
327.987
326.866
327.969
325.999
327.683
318.159
319.207
321.568
322.15
319.249
320.554
324.618
320.51
320.416
324.829
323.884
323.813
324.456
325.087
322.624
322.748
321.698
324.299
324.131
319.784
317.993
318.032
314.526
319.177
315.35
320.129
315.769
319.33
318.544
316.147
321.058
321.692
320.421
320.644
319.841
316.824
316.344
318.392
319.452
318.161
315.159
314.165
313.407
313.461
313.2
312.376
314.543
314.014
314.755
316.122
314.229
314.498
316.656
315.577
314.169
314.67
313.733
315.203
312.709
312.587
309.222
311.632
308.15
310.685
307.565
309.983
312.147
310.076
309.45
310.03
308.72
311.642
308.89
312.147
313.834
309.625
309.817
311.068
310.838
310.25
304.475
305.508
306.896
305.426
306.383
303.136
306.245
306.418
306.305
304.78
304.697
306.951
307.9
305.99
304.466
306.451
305.836
306.862
305.039
308.461
301.279
301.498
303.449
302.581
303.254
301.489
301.905
302.99
301.115
302.022
303.735
301.476
302.328
302.755
299.961
301.809
303.727
301.435
300.549
302.085
327.282
328.151
329.564
330.155
329.933
331.547
331.066
331.088
330.865
332.848
331.269
334.133
332.928
333.623
333.181
331.6
331.821
331.163
330.148
330.47
322.817
325.45
323.827
324.349
327.398
324.595
328.135
328.322
327.094
330.097
327.171
329.642
326.561
327.686
326.968
328.865
329.025
325.645
325.468
326.153
321.726
319.69
322.562
320.948
321.788
323.299
322.327
325.141
323.642
323.793
324.098
322.15
324.839
323.548
325.34
324.045
321.339
322.608
318.857
320.552
317.521
316.887
319.045
316.128
320.09
319.158
317.894
318.924
318.832
319.045
319.248
320.318
317.839
320.11
318.513
319.856
315.183
318.705
319.068
319.396
312.976
312.593
312.053
314.388
314.132
315.008
313.344
314.977
315.652
314.113
315.841
315.324
314.622
315.966
315.202
314.347
314.454
312.182
315.53
313.215
310.809
308.352
311.472
308.893
307.145
311.67
310.098
310.033
309.846
311.346
309.407
310.237
310.389
311.252
309.249
311.903
308.607
311.895
309.754
306.87
306.229
305.895
306.039
305.49
307.186
303.151
307.802
305.891
305.537
304.996
304.938
307.589
308.91
307.527
306.654
305.087
306.36
303.853
306.097
305.281
302.651
301.807
301.261
301.576
301.565
302.407
300.108
302.754
302.863
303.948
303.555
302.937
302.431
303.092
300.625
302.375
302.411
300.169
301.344
302.662
)
;

boundaryField
{
    hotSide
    {
        type            fixedGradient;
        gradient        nonuniform List<scalar> 
400
(
321.511
322.87
325.591
329.677
335.133
341.965
350.181
359.788
370.794
383.208
397.037
412.289
428.971
447.088
466.647
487.651
510.105
534.011
559.372
586.191
323.738
325.08
327.767
331.802
337.194
343.949
352.078
361.591
372.498
384.81
398.537
413.687
430.268
448.289
467.755
488.672
511.043
534.872
560.161
586.913
326.149
327.47
330.116
334.091
339.406
346.071
354.099
363.503
374.296
386.491
400.101
415.136
431.606
449.52
468.885
489.706
511.988
535.735
560.948
587.63
328.704
330
332.597
336.503
341.73
348.292
356.205
365.485
376.15
388.215
401.695
416.604
432.954
450.753
470.009
490.73
512.919
536.579
561.714
588.325
331.33
332.599
335.142
338.97
344.099
350.546
358.332
367.477
378.003
389.928
403.271
418.047
434.27
451.949
471.095
491.712
513.807
537.382
562.439
588.978
333.918
335.158
337.643
341.389
346.414
352.74
360.392
369.397
379.779
391.562
404.765
419.407
435.503
453.065
472.101
492.618
514.622
538.114
563.096
589.569
336.321
337.531
339.959
343.622
348.544
354.751
362.274
371.142
381.385
393.031
406.101
420.618
436.595
454.047
472.983
493.409
515.33
538.747
563.663
590.076
338.36
339.543
341.92
345.509
350.339
356.44
363.847
372.595
382.718
394.244
407.2
421.608
437.485
454.844
473.695
494.045
515.897
539.253
564.114
590.478
339.852
341.015
343.352
346.885
351.645
357.665
364.985
373.643
383.675
395.113
407.984
422.312
438.116
455.407
474.197
494.491
516.294
539.606
564.428
590.758
340.643
341.795
344.11
347.613
352.334
358.311
365.584
374.193
384.176
395.567
408.393
422.679
438.443
455.699
474.456
494.722
516.498
539.788
564.589
590.901
340.643
341.795
344.11
347.613
352.334
358.311
365.584
374.193
384.176
395.567
408.393
422.679
438.443
455.699
474.456
494.722
516.498
539.788
564.589
590.901
339.852
341.015
343.352
346.885
351.645
357.665
364.985
373.643
383.675
395.113
407.984
422.312
438.116
455.407
474.197
494.491
516.294
539.606
564.428
590.758
338.36
339.543
341.92
345.509
350.339
356.44
363.847
372.595
382.718
394.244
407.2
421.608
437.485
454.844
473.695
494.045
515.897
539.253
564.114
590.478
336.321
337.531
339.959
343.622
348.544
354.751
362.274
371.142
381.385
393.031
406.101
420.618
436.595
454.047
472.983
493.409
515.33
538.747
563.663
590.076
333.918
335.158
337.643
341.389
346.414
352.74
360.392
369.397
379.779
391.562
404.765
419.407
435.503
453.065
472.101
492.618
514.622
538.114
563.096
589.569
331.33
332.599
335.142
338.97
344.099
350.546
358.332
367.477
378.003
389.928
403.271
418.047
434.27
451.949
471.095
491.712
513.807
537.382
562.439
588.978
328.704
330
332.597
336.503
341.73
348.292
356.205
365.485
376.15
388.215
401.695
416.604
432.954
450.753
470.009
490.73
512.919
536.579
561.714
588.325
326.149
327.47
330.116
334.091
339.406
346.071
354.099
363.503
374.296
386.491
400.101
415.136
431.606
449.52
468.885
489.706
511.988
535.735
560.948
587.63
323.738
325.08
327.767
331.802
337.194
343.949
352.078
361.591
372.498
384.81
398.537
413.687
430.268
448.289
467.755
488.672
511.043
534.872
560.161
586.913
321.511
322.87
325.591
329.677
335.133
341.965
350.181
359.788
370.794
383.208
397.037
412.289
428.971
447.088
466.647
487.651
510.105
534.011
559.372
586.191
)
;
    }
    coldSide
    {
        type            mixed;
        refValue        uniform 300;
        refGradient     uniform 0;
        valueFraction   uniform 0.991591;
        source          uniform 0;
        value           nonuniform List<scalar> 
400
(
299.997
300
300.017
300.007
300.006
300.013
300.02
300.028
299.997
300.025
300.001
300.02
300.005
300.018
300.011
299.998
299.999
300.022
300.011
300.022
300.002
300.018
300.01
300.016
300.017
299.998
300.009
300.025
300.008
300.023
300.01
300.004
300.02
299.99
300.014
299.996
300
300.01
300.013
300.015
300.008
300.022
299.996
300.014
300.027