/*--------------------------------*- C++ -*----------------------------------*\
| =========                 |                                                 |
| \\      /  F ield         | OpenFOAM: The Open Source CFD Toolbox           |
|  \\    /   O peration     | Version:  2212                                  |
|   \\  /    A nd           | Website:  www.openfoam.com                      |
|    \\/     M anipulation  |                                                 |
\*---------------------------------------------------------------------------*/
FoamFile
{
    version     2.0;
    format      ascii;
    arch        "LSB;label=32;scalar=64";
    class       volScalarField;
    location    "0";
    object      relativeErrorField;
}
// * * * * * * * * * * * * * * * * * * * * * * * * * * * * * * * * * * * * * //

dimensions      [0 0 0 1 0 0 0];

internalField   nonuniform List<scalar> 
3200
(
0.00459835
0.010689
0.00763674
0.00399951
0.0106318
0.00814138
0.00990403
0.0114491
0.00863997
0.00469226
0.0040064
0.0157567
0.00555958
0.00808905
0.00896789
0.0195446
0.0111155
0.000168619
0.0150255
0.0121871
0.0198631
0.0011899
0.0112657
0.00653046
0.000131067
0.00768322
0.00409551
0.00997825
0.00739188
0.000400045
0.00503434
0.00761718
0.00792947
0.0146174
0.00713844
0.00550178
0.00392922
0.00914207
0.00282315
0.0169395
0.0131324
0.00278193
0.00907641
0.00778986
0.0113361
0.00631392
0.0088658
0.00989644
0.00245126
0.0116298
0.00945342
0.00609642
0.010816
0.00948592
0.0044243
0.00383131
0.00616774
0.00417715
0.00543802
0.000815618
0.0133646
0.00227923
0.0244658
0.0104691
0.00479601
0.00539659
0.0066594
0.0054521
0.00713803
0.00437351
0.00605534
0.00527043
0.00629529
0.00397449
0.0116075
0.00448363
0.00625745
0.00150285
0.0105352
0.0200491
0.00814888
0.0134493
0.0119616
0.0230606
0.00741266
0.0158184
0.000258808
0.00866612
0.0040497
0.00277953
0.00693753
0.0105063
0.00139818
0.00435486
0.00307228
0.00330683
0.0104406
0.000937932
0.00898787
0.0110074
0.00445746
0.000983626
0.00116663
0.00776132
0.0112731
0.00199725
0.0049698
0.00168935
0.00693651
0.00482407
0.00264117
0.00411357
0.00173119
0.00292142
0.00818036
0.00636132
0.00336451
0.0151905
0.0021617
0.0070267
0.00713576
0.00863209
0.00319671
0.00400335
0.0105168
0.0104358
3.02019e-05
0.00831369
0.00606525
0.00933979
0.00308956
0.0147502
0.000315489
0.0092915
0.0105576
0.00354041
0.00131416
0.0184097
0.0110553
0.00779948
0.0043028
0.00583136
0.0188383
0.00738952
0.00142404
0.00394295
0.00574077
0.0130298
0.000849773
0.0157954
0.00959155
0.0177727
0.00443879
0.00865901
0.00691615
0.0051934
0.0121448
0.000277449
0.00613661
0.00397573
0.000825243
0.00771988
0.00281172
0.000240141
0.00957204
0.000104051
0.00374511
0.000345718
0.00553735
0.00138691
0.00111552
0.00211804
0.00834987
0.00749469
0.00516352
0.0119988
0.00543171
0.00237333
0.0216161
0.00501317
0.0157749
0.00263144
0.0090224
0.000740199
1.77217e-05
0.00183451
0.00474896
0.00308201
0.00578905
0.00118479
0.00324405
0.00200315
0.00470665
0.0115018
8.63357e-05
0.00428365
0.00152776
0.00332045
0.000171537
0.0112874
0.002778
0.00515384
3.61159e-05
0.00413358
0.00223351
0.000360516
0.00201584
0.000394788
0.0132201
0.0112807
0.018737
0.00647928
0.000307533
0.0125363
0.00521234
0.00222443
0.00983486
0.000250042
3.85469e-05
0.00960358
0.00785086
0.00529442
0.000869323
0.00975235
0.0012158
0.000385061
0.00528081
0.00198701
0.00700476
0.00972509
0.0100632
0.00411151
0.00414385
0.000748807
0.0127356
0.00573135
0.00988463
0.00793382
0.0143287
0.00413244
0.00106534
0.0144043
0.00714283
0.00123977
0.0044219
0.0114372
0.00697317
0.00489003
0.00857391
0.000240439
0.00330106
0.00661638
0.00159594
0.00595105
0.00833031
0.00964364
0.0101593
0.00143239
0.00493159
0.00482436
0.00941419
0.00429331
0.00388979
0.00644806
0.00666494
0.0232496
0.00719127
0.00469336
0.00274098
0.00500334
0.00353207
0.0137076
0.00388429
0.00363298
0.00408083
0.00169633
0.00278811
0.00409082
0.00114901
0.00210915
0.00332679
0.0172611
0.000773285
0.000812947
0.00478239
0.00866729
0.00099314
0.00233016
0.00166745
0.00469242
0.0138875
0.00215735
0.00626029
0.00922545
4.5628e-05
0.00990064
0.00675844
0.00230315
0.00230729
0.0121328
0.000502629
0.00575331
0.0054652
0.0109821
0.012616
0.00268287
0.00513365
0.00201214
0.0119411
0.00549264
4.48064e-05
0.00165701
0.00123018
0.00269553
0.00226167
0.00386882
0.004331
0.00239965
0.00217594
0.0118654
0.0078882
0.00686044
0.00520311
0.0140519
0.00873688
0.00417335
0.00509828
0.00249661
0.00577881
0.000531229
0.00115286
0.00314089
0.0144845
0.00674269
0.00892443
0.0069444
0.00545231
0.000294887
0.000318652
0.00300467
0.00300448
0.0138453
0.0174169
0.0084795
0.000859477
0.0143738
0.00566517
0.00682478
0.00304606
0.00288769
0.0113113
0.00232068
0.0108262
0.00113875
0.00507356
0.0104113
0.0114869
0.0118175
0.0142611
0.00823397
0.0104863
0.0144556
0.00414114
0.00597485
0.0019521
0.00273853
0.00203935
0.00109497
0.00350979
0.00303246
0.00496843
0.00194853
0.000280743
0.00158498
0.00995623
0.00503388
0.00212875
0.0073868
0.00538247
3.28365e-05
0.0021036
0.00592737
0.00778495
0.00568706
0.000800081
0.00161352
0.00643007
0.00475699
0.0109699
0.00402262
0.000335885
0.00405225
0.00990514
0.00122851
0.00705646
0.0107926
0.00764932
0.00352327
0.00577782
0.0056893
0.00786708
0.00673343
0.00159842
0.00824216
0.00588574
0.00216604
0.0133669
0.0181414
8.74654e-05
0.00505036
0.00653777
0.00253679
0.00241027
0.00929236
0.0149485
0.00998493
0.0049994
0.00883892
0.000332164
0.00278323
0.0110678
0.00121594
0.0121197
0.0146894
0.00203878
0.00317758
0.00429447
0.00684085
0.0129328
0.00222262
0.0184908
0.00203028
0.00415986
0.00909666
0.0135591
0.00823865
0.00714361
0.00124412
0.00226721
0.00812058
0.000656744
0.00391358
0.00522436
0.00458839
0.00772562
0.0175005
0.0008711
0.00519468
0.00502975
0.00174974
0.000214131
0.00465346
0.0067613
0.0107132
0.00621856
0.00553537
0.00366839
0.00185692
0.00330508
0.00668124
0.00200135
0.00525795
0.000726549
0.000994929
0.0127592
0.0004669
0.0063113
0.00629672
0.0154007
0.00635063
0.00675092
0.00487249
0.0158827
0.000339324
0.011234
0.000173666
0.00911161
0.00622121
0.00744701
0.000821572
0.00758209
0.00600308
0.00715801
0.0103252
0.00322431
0.00726246
0.0332642
0.00980941
0.00268005
0.0180592
0.0139909
0.0167818
0.0190242
0.00630478
0.00308991
0.00140456
0.00377675
0.000851586
0.000523702
0.0017738
0.0135747
0.00556988
0.00254367
0.00324447
0.0123849
0.00205425
0.00372678
0.00303367
0.00817036
0.000712987
0.000725371
9.1875e-05
0.00230716
0.0019499
0.00179154
0.00200714
0.0028217
9.70903e-05
0.0010957
0.0121511
0.00279502
0.00342576
0.00733196
0.0110548
0.00747912
0.00237251
0.00464861
0.00678994
0.0114513
0.00456795
0.000725715
0.0132552
0.00117569
0.000764931
0.00986749
0.0058777
0.00741499
0.00664086
0.00215589
0.0104722
0.000370934
0.0162874
0.00403139
0.0119605
0.00210376
0.0112493
0.00428735
0.0100148
0.00703158
0.00325686
0.00498101
0.00349488
0.0190882
0.00537689
0.00141605
0.00645803
0.00807419
0.00783538
0.000687236
0.00228433
0.00507842
0.00108325
0.00537092
0.00966862
0.00375712
0.00171267
0.00365778
0.00596965
0.0085677
0.016754
0.00132932
0.000914061
0.00326642
0.00198722
0.00609631
0.00286334
0.0140658
0.00850332
0.00241431
0.00977896
0.00153132
0.0124993
0.0135499
0.00317983
0.000120069
0.00158599
0.000281547
0.00775885
0.00176407
0.00312454
0.0116485
0.000995802
0.00409888
0.00377339
0.00576747
0.00253716
0.00157076
0.00440571
0.000415754
0.00167993
0.000243384
0.0025182
0.00377361
0.008077
0.00150873
0.0117034
0.00290189
0.0010253
0.0145801
0.00013388
0.00396742
0.000603808
0.00484436
0.0184392
0.000938463
0.022933
0.000341145
0.0110153
0.00405218
0.010376
0.00146206
0.00563339
0.000648503
0.000936079
0.0221442
0.000143473
0.00826661
0.00270857
0.00625718
0.00302755
0.0157003
0.00358367
0.0189704
0.000887271
0.00359616
0.00157811
0.0101339
0.00692828
0.00485595
0.0188186
0.00268263
0.00292739
0.017042
0.00463228
9.35177e-05
0.00915107
0.0001794
0.0102866
0.0127475
0.0158409
0.0049205
0.0159732
0.0103787
0.00869592
0.0109088
0.0147992
0.0103949
0.00787151
0.0131448
0.00435304
0.00562812
0.00630066
0.00258539
0.00914421
0.00532436
0.00997001
0.0173626
0.0118601
0.0130378
0.000707509
0.0104014
0.0129739
0.0217802
0.00961028
0.00055388
5.13738e-05
0.00952309
0.00145166
0.00707052
0.00529181
0.004736
0.00951798
0.00936851
0.00260636
0.00251117
0.0176092
0.00417076
0.00174573
0.00514154
0.00432895
0.0121497
0.0149529
0.000671485
0.00881987
0.0115566
0.0055437
0.0186045
8.65512e-05
0.00456598
0.0125798
0.0103132
0.00393878
0.000747166
0.000989668
0.0110093
0.00605056
0.0174868
0.011433
0.00415363
0.00696337
0.0105145
0.00425186
0.0112029
0.00395351
0.00115503
0.00110452
0.0129974
0.000622402
0.000259438
0.00120762
0.000373257
0.00268787
0.0115285
0.00235309
0.00676688
0.00219551
0.00790672
0.00230511
0.0152597
0.00246669
0.00729096
0.00664287
0.00276521
0.0072884
0.00345624
0.0182461
0.00407414
0.0031548
0.00266539
0.00383224
0.0104729
0.0112129
0.00544397
0.00211609
0.00369572
0.00447593
0.0144799
0.00564647
0.00980727
0.00561024
0.00201784
0.0240376
0.00100174
0.00437937
0.00320504
0.00289489
0.00768689
0.000679357
0.00134982
0.000647511
0.00963191
0.00934448
0.00737806
0.0102122
0.00137101
0.0180121
0.00536713
0.00328447
0.00268591
0.00500999
0.00260825
0.00744673
0.00352135
0.00379399
0.000365949
0.0110922
0.00958905
0.000494428
0.00775496
0.011225
0.0135185
0.0150015
0.000501094
0.0112893
0.0034518
0.00572293
0.00487005
0.00608718
0.00892391
0.00648599
0.00826033
0.0105987
0.0201754
0.00279382
0.00234058
0.011667
0.000675446
0.00518838
0.00858263
0.00140108
0.00124726
0.000459745
0.0106327
0.0106858
0.0254544
0.00476543
0.0155327
0.00777403
0.00312083
0.00260783
0.0136548
0.0213027
0.00879032
0.00871584
0.00908672
0.0110956
0.00063164
0.0104729
0.00188804
0.00518561
0.00927573
0.00448604
0.00422334
0.00608521
0.0091245
0.000607693
0.0131965
0.00339202
0.0112052
0.00418545
0.000275243
0.0221809
0.000676073
0.0045445
0.000307785
0.0107115
0.00204256
0.00392877
0.000800483
0.00370111
0.0167912
0.00286362
0.0128968
7.87418e-06
0.0133038
0.00744038
0.00936103
0.00186622
0.00913647
0.012977
0.00897269
0.00882328
0.00494494
0.00148856
0.00148664
0.00502779
0.000563884
0.00170498
0.010498
0.00337837
0.00165667
0.00935668
0.00696165
0.0108067
0.0196585
0.00524478
0.00125521
0.00260717
0.00651623
0.0118656
0.0178306
0.010626
0.0112154
0.0018298
0.0041561
0.00305764
0.00189751
0.0016979
0.00284329
0.00187642
0.00263877
0.00283529
0.00825285
0.00579854
0.014545
0.00967787
0.000510192
0.00704065
0.00601385
0.000916377
0.0140272
0.00433922
0.0172294
0.018286
0.00170932
0.0138283
0.00300273
0.00374179
0.00786577
0.00496827
0.000555121
0.000165117
0.00474988
0.00727974
0.010867
0.00418631
0.00200296
0.000536523
0.0117012
0.00185027
0.00537616
0.00253637
0.000765755
0.00330341
0.00532201
0.00273003
0.000149847
0.00254943
0.000633858
0.00278112
0.00175579
0.00467507
0.0016707
0.00167518
0.00751847
0.0146889
0.000553112
0.00248648
0.00498995
0.00292135
0.000256613
0.0088248
0.0155974
0.0112841
0.00329317
0.00782821
0.00257966
0.0136803
0.00170974
0.00399028
0.00783853
0.0162922
0.00897207
0.00207921
0.013488
0.00380874
0.0122011
0.0105511
0.00226832
0.0149689
0.00619772
0.0089083
0.00319497
0.00267808
0.00782438
0.0130304
0.000705434
0.00335668
0.0021848
0.00126964
0.000635297
0.0165384
0.00691401
0.0203171
0.00848712
0.0138238
0.00741675
0.0133371
0.012648
0.0205954
0.0145117
0.0156294
0.0126158
0.0168985
0.0040167
0.00491292
0.00803876
0.00363187
0.00825511
0.00641257
0.00344805
2.78596e-05
0.00421683
0.00637675
0.008472
0.0149335
0.0131854
0.00889797
0.00497802
0.00903788
0.0228411
0.017157
0.0073065
0.0161879
0.00342515
0.00319008
0.00489741
0.00700923
0.00136905
0.0113714
0.00271731
0.010979
0.0159977
0.00862677
0.0252445
0.000356538
0.0152453
0.0146962
0.0107637
0.0235125
0.00118236
0.019027
0.00322463
0.00738971
0.00681699
0.00557723
0.0100808
0.0149161
0.00178764
0.00780971
0.00258599
0.00977255
0.0128724
0.00684125
0.00302897
0.000139363
0.00651376
0.00974634
0.00821468
0.0117243
0.00028889
0.00635086
0.00332423
0.00834098
0.0142092
0.00385529
0.00663878
0.0171556
0.00755477
0.0194647
0.00829632
0.00470898
0.00335705
0.000282406
0.00345796
0.00554987
0.00108975
0.0161974
0.00279124
0.00980293
0.000197242
0.0183014
0.00401141
0.00474588
0.0105929
0.00217672
0.000114334
0.00947175
0.0174956
0.0102906
0.0045549
0.0065644
0.000209291
0.00170646
0.000924619
0.004204
0.00564381
0.00329654
0.0048636
0.0101288
0.00282351
0.0167767
0.00728566
0.00428852
0.0102804
0.0163419
0.00240956
0.00385337
0.00749732
0.00322364
0.00935222
0.00258046
0.000502182
0.00740961
0.000557081
0.00226266
0.00265355
0.018807
0.00403653
0.00131336
0.00439271
0.0119455
0.0119446
0.00393105
0.00693141
0.00677801
0.00341207
0.00220936
0.00382801
0.00997924
0.00494697
0.0108656
0.000878515
0.00349338
0.00694328
0.00619162
0.00123281
0.00455607
0.00716495
0.0122059
0.00113529
0.00264028
0.00503552
0.00452542
0.00575699
0.00533618
0.0161295
0.00466327
0.00368262
0.00477834
0.0175194
0.00111922
0.00484216
0.0146597
0.00380416
0.0013152
0.0145669
0.0274933
0.0057672
0.0178317
0.00976389
0.0233359
0.0118687
0.0130214
0.0160549
0.000549043
0.00927027
0.00586234
0.0139398
0.0152544
0.00801057
0.0096928
0.012137
0.00543422
0.00772273
0.00139152
0.000165393
0.00141733
0.0184465
0.0019756
0.000162118
0.0204167
0.00224771
0.0110996
0.000939274
0.019333
0.00247429
0.0236106
0.00244674
0.0028941
0.00699595
0.00581372
0.0115611
0.00152471
0.00528853
0.00831987
0.00339386
0.00538108
0.0114934
0.019307
0.00817159
0.0142248
0.0129623
0.0159537
0.00847471
0.0111106
0.00683713
0.00102075
0.00416365
0.00153372
0.0110878
0.0020422
0.00311694
0.000207543
0.0108399
0.0196065
0.00562737
0.0136536
0.00541983
0.0105975
0.00728165
0.010436
0.0163426
0.000988647
0.0104305
0.0178123
0.00516247
0.00137434
0.00511542
0.00991872
0.00385763
0.0055974
0.00303327
0.00067745
0.00605833
0.0206865
0.00988562
0.0101724
0.0120788
0.00424026
0.00983384
0.00998076
0.00750752
0.0181168
0.00262393
0.00732042
0.0150646
0.0104075
0.00610871
0.00982048
0.00100232
0.0139754
0.0110371
0.0111028
0.00187744
0.00269538
0.00622465
0.000579314
9.1738e-05
0.00506244
0.013695
0.00636345
0.00437322
0.00152282
0.00402327
0.00101521
0.0144111
0.00630585
0.000872713
0.00252801
0.00435623
0.00697897
0.00620901
0.00770289
0.000606538
0.00148841
0.00168505
0.00666871
0.000517922
0.011753
0.00780558
0.0104978
0.00154564
0.0014277
0.0122227
0.00341692
0.023398
0.00422805
0.0110415
0.00605678
0.000962404
0.0032895
0.00786042
0.0105383
0.000150832
0.00824564
0.0065674
0.00364725
0.00318251
0.00432751
0.0141637
0.0084676
0.0161727
0.00220812
0.000675226
0.00526747
0.00996507
0.00622039
0.00443914
0.00105289
0.000410073
0.000157194
0.0105933
0.005974
0.0209719
0.00630005
0.0171874
0.0107198
0.019201
0.0205248
0.0185143
0.0179068
0.000480229
0.0111812
0.0150205
0.0180183
0.0101086
0.00543159
0.00132931
0.0101661
0.00594669
0.00488964
0.00223563
0.0148201
0.00738415
0.00711033
0.0167442
0.010932
0.00470717
0.00500097
0.0140756
0.00660203
0.00762092
0.0129222
0.00501748
0.0150821
0.0104853
0.00186359
0.00181456
0.0103461
0.00134584
0.0017977
0.0157746
0.00702104
0.00541531
0.00973805
0.0198579
0.0113685
0.00612187
0.0143511
0.0183931
0.0214068
0.0057932
0.0116334
0.0247754
0.0131363
0.00943551
0.000178879
0.000903705
0.00430212
0.008267
0.00500116
0.00163185
0.00133712
0.00775519
0.0108542
0.0083305
0.00220457
0.00757256
0.00333312
0.00667106
3.57351e-05
0.00386911
0.0101908
0.0184463
0.0113997
0.00764468
0.0173103
0.00710103
0.00679205
0.00610205
0.00800026
0.00240165
0.00156593
0.00256454
0.020423
0.00211014
0.0100064
0.00192965
0.000935945
0.00331749
0.00424905
0.0108861
0.0155013
0.00641288
0.00703504
0.0126246
0.00644941
0.00566088
0.0111402
0.0113324
0.00248337
0.00808476
0.00997378
0.00877935
0.00192123
0.00777722
0.00480517
0.00150548
0.00504152
0.00704333
0.0105196
0.00326791
0.00985445
0.00445019
0.00340942
0.0010444
0.00138457
0.00761157
0.00953948
0.00859304
0.000691369
0.00185223
0.00739432
0.013325
0.00756923
0.00386074
0.00696106
0.000404899
0.0061076
0.00715408
0.00305271
0.00465028
0.00537669
0.00261603
0.00690334
0.00218936
0.00922025
0.00425808
0.0112552
0.000783149
0.0175758
0.00543676
0.00627363
0.0116121
0.00493271
0.000402861
0.0015678
0.00536886
0.00386088
0.00687144
0.00880195
0.00134326
0.00107257
0.000548755
0.0031967
0.00363966
0.0177801
0.00908663
0.00705654
0.0106487
0.00707231
0.00538463
0.0142109
0.0167657
0.0153634
0.011297
0.0166668
0.0197435
0.00568996
0.0139614
0.00941371
0.0228291
0.0209799
0.00653336
0.0187646
0.0197635
0.00586675
0.00300429
0.00517495
0.00914969
0.000201487
0.0154823
0.000953392
0.0160622
0.000481332
0.0162606
0.000206538
0.0136123
0.000113372
0.00141822
0.0104684
0.00301921
0.00863733
0.00259925
0.0015704
5.73658e-05
0.0152576
0.00188132
0.00398743
0.0138734
0.0084203
0.00426354
0.0119196
0.00133275
0.00197961
0.00303969
0.0109924
0.0319668
0.00823393
0.0141937
0.0149564
0.0180485
0.0111686
7.11231e-05
4.68358e-05
0.00534445
0.00654791
0.00054731
0.00441908
8.2422e-05
0.00886807
0.00174049
0.0148961
0.0013135
0.010279
0.000657447
0.00190856
0.00225233
0.0029134
0.0297203
0.0118637
0.00096259
0.0147719
0.00921257
0.00790873
0.00450003
0.00204021
0.00346732
0.000121184
0.00332466
3.07979e-05
0.00339486
0.000977226
0.00196706
0.00674417
0.00153358
0.00908208
0.0107551
0.00382445
0.0136804
0.00464767
0.00610464
0.0127032
0.0139097
0.00862876
0.00622646
0.012013
0.0103765
0.00134806
0.0110208
0.00213725
0.00672402
0.0149759
0.00272898
0.0163661
0.0140002
0.00141803
0.00560716
0.00727146
0.0187683
0.010194
0.0035375
0.00854014
0.000538294
0.00348112
0.0131855
0.00409975
0.00400253
0.0178473
0.0149011
0.0109512
0.00444916
0.00589457
0.00886044
0.0045139
0.00571147
0.00219469
0.00208663
0.014898
0.00467438
0.000635684
0.000454584
0.00291092
0.000689314
0.00743043
1.23659e-05
0.00560581
0.00379764
0.0152863
0.00740328
0.00942389
0.000541906
0.0109444
0.00824551
0.00338207
0.000671377
0.00440192
0.000979468
0.00519275
0.00857197
0.0225274
0.00214234
0.00369703
0.00504737
0.00322179
0.00563745
0.00861267
0.0111202
0.00174744
0.00443901
0.0133353
0.00741306
0.0160398
0.00635984
0.00377456
0.0180647
0.0208457
0.0199588
0.00681454
0.00965802
0.0198033
0.0177262
0.010337
0.011365
0.0114996
0.0074923
0.00397123
0.00550527
0.00674895
0.000694119
0.00529532
0.00662108
0.00238352
0.00619338
0.000320917
0.00825031
5.21551e-05
0.011364
0.00264988
0.00149252
0.0087197
0.000339492
0.00158304
0.000765909
0.00835013
0.00175093
0.00529469
8.23632e-05
0.00633932
0.00641732
0.00874105
0.000313804
0.0111873
0.00971728
0.0180958
0.0110123
0.00571835
0.0185751
0.0115478
0.00626435
0.00885998
0.00846136
0.0134789
0.0108646
0.0160079
0.0022379
0.00099306
0.00929155
0.00358563
0.0115342
0.00336505
0.0014164
0.0109633
0.00563318
0.0191135
0.0103164
0.0114468
0.0128846
0.00942134
0.0204509
0.0242391
0.0100636
0.0133085
0.0121056
0.00591796
0.0150958
0.00426321
0.00450314
0.00258632
0.000370032
0.00689419
0.00606669
0.00266557
0.00564048
0.00704681
0.00047574
0.0227438
0.0076225
0.0075978
0.00181644
0.0183442
0.00453135
0.00299583
0.00247635
0.0112141
0.0124365
0.00531876
0.014666
0.011063
0.00855598
0.0141942
0.00295399
0.0097783
0.00132097
0.00998441
0.00678917
0.00633432
0.00386437
0.00940212
0.00839872
0.00563586
0.0116076
0.00841246
0.00376703
0.00906464
0.00682379
0.0172421
0.0052251
0.00474647
0.0130007
0.00769182
0.00153818
0.000829756
0.00300516
0.00764746
0.0169666
0.00111141
0.011727
0.000924217
0.00630667
0.00631966
0.000965055
0.0131236
0.00781675
0.000672393
0.00527963
0.00266031
0.00912583
0.00340627
0.00651711
0.00353921
0.00886901
0.00341937
0.0178605
0.00249611
0.00634076
0.00669373
0.000565027
0.0113982
0.00839841
0.0100642
0.00283597
0.00040399
0.00310168
0.00199161
0.00357888
0.0162159
0.00257395
0.00386947
0.00822251
0.0002736
0.00651584
0.00297298
0.00996459
0.0169753
0.0244493
0.0200561
0.0214012
0.00893283
0.0056175
0.0169911
0.00572973
0.00721112
0.0112039
0.0115367
0.00554725
0.00496663
0.00852933
0.0119831
0.00526369
0.00493632
0.00565351
0.00234862
0.0131055
0.00745397
0.00484387
0.00753247
0.0169585
0.0144325
0.00881997
0.0165936
0.0110388
0.00103495
0.021
0.0128678
0.00424812
0.0088172
0.00671539
0.0013476
0.0109183
0.000352669
0.00442494
0.00619545
0.00429204
0.0139209
0.00341119
0.0238223
0.000224829
0.0200436
0.0177709
0.0068787
0.0131857
0.00334594
0.000876913
0.000284664
0.00610382
0.00908621
0.000275523
0.00423322
0.00161334
0.00619062
0.000663619
0.00896898
0.00400963
0.00224429
0.00848411
0.00252429
0.000875861
0.00405195
0.000699408
0.00784162
0.0104263
0.00220297
0.0119163
0.0216909
0.00101914
0.0024298
0.0024342
0.000759846
0.00276052
0.00223551
0.00647632
0.00374789
0.00448235
0.00453686
0.0175192
0.0145727
0.00644007
0.016177
0.0123808
0.00487189
0.0108924
0.00967322
0.013041
0.0110246
0.00937409
0.00650559
0.00237642
0.0129056
0.0049396
0.00638278
0.0080415
0.00246409
0.00040338
0.00185897
0.000509063
0.00535051
0.0194156
0.00514444
0.00602677
0.0132427
0.0110442
0.000392994
0.00196976
0.000942397
0.00519327
0.00801356
0.00191209
0.00646468
0.00983099
0.00369677
0.000229438
0.0108059
0.00162682
0.00567791
0.00519489
0.00141889
0.000328056
0.000834043
0.00729309
0.0120506
0.000856677
0.000561754
0.00343167
0.00879248
0.000479452
0.00508167
0.00880924
0.00154021
0.00128519
0.00847608
0.0111273
0.00703207
0.00448899
0.00400345
0.00060853
0.00572343
0.0104187
0.00238367
0.00325128
0.00117334
0.00424991
0.00572656
0.00843343
0.00547504
0.00936816
0.00788686
0.00157503
0.00543968
0.00207742
0.00226515
0.013998
0.00246174
0.00308517
0.00983273
0.0106042
0.00259079
0.00355022
0.0132501
0.00669551
0.00631354
0.0120906
0.0129145
0.00353968
0.0076851
0.00883641
0.00273195
0.00417102
0.0101869
0.0145888
0.000454207
0.00164275
0.00669676
0.00151419
0.000523138
0.000102579
0.00179137
0.00500784
0.000899608
0.000538756
0.00734957
0.000241435
2.13439e-05
0.00158086
0.00127268
6.90687e-05
0.00951332
0.00567263
0.00617617
0.00695204
0.0121263
0.00104908
0.00624293
0.0047748
0.005134
0.009782
0.0121243
0.00569311
0.0146668
0.0110299
7.34533e-05
0.00386169
0.00151361
0.00622204
0.00110657
0.00271381
0.00641966
0.0105711
0.00886553
0.00022292
0.0104036
0.00218605
0.0094467
0.00575302
0.00695586
0.0147279
0.000617471
0.00346891
0.00745189
0.00137351
0.0103732
0.00351692
0.00796417
0.00150671
0.0004926
0.00542142
0.0027005
0.0097656
0.00603259
0.00426148
0.00353751
0.0182216
0.00306551
0.012553
0.00443073
0.00118351
0.01045
0.0119036
0.00652125
0.00129086
0.00869067
0.000826808
0.00771876
0.0160287
0.0110703
0.0100452
0.00184054
0.0013337
0.00350446
0.00594658
0.00406446
0.00901183
0.000470904
0.0023799
0.00627433
0.00345933
0.00227856
0.0090024
0.00581728
0.00211434
0.00776832
0.00131354
0.00980789
0.00219465
0.00451285
0.00447081
0.00449601
0.0109931
0.00242074
0.0288209
0.00152221
0.0100357
0.00351995
0.00289003
0.00740769
0.00118491
0.00246052
0.00477269
0.00388087
0.00958844
0.0058104
0.00282554
0.000305451
0.0013969
0.00666404
0.00331522
0.00137683
0.000235073
0.0089125
0.0133252
0.00860937
0.000590137
0.00102351
2.08371e-05
0.0025918
0.00311895
0.00159993
0.00935516
0.000885827
0.00596634
0.00215783
0.00192498
0.00340187
0.00456885
0.00713957
0.00647074
0.0079391
0.0102924
0.0100563
0.00625115
0.00648417
0.00913462
0.00566729
0.000295613
0.00943638
0.000537361
0.017561
0.0114479
0.0134921
0.0163507
0.0176001
0.00591609
0.00794156
0.00460739
0.00225543
0.00368077
0.0104221
0.0106934
0.00895629
0.00461213
0.00720516
0.00793027
0.0035963
0.0101056
0.00442828
0.00485704
0.00141742
0.00190947
0.00982382
0.00604535
0.0066493
0.000603448
0.00554195
0.00354002
0.00472153
0.00191907
0.00574802
0.00776286
0.0178628
0.0158969
0.00706999
0.0115085
0.00560708
0.0033845
0.0037013
0.00315073
0.00557998
0.00674816
0.0112117
0.00373417
0.0206389
0.0124522
0.00871009
0.00390323
0.00979437
0.00910997
0.00365929
0.00530353
0.000695127
0.0098506
0.00337924
0.00296148
0.00150942
0.00522918
0.0132098
0.00329824
0.000790423
0.000837885
0.00834753
0.00967615
0.00334144
0.00365459
0.00573926
0.00439641
0.00905636
0.00197907
0.00790861
0.013129
0.00736513
0.0177445
0.0052685
0.00603493
0.0121823
0.0120856
0.00367545
0.00121269
0.00734811
0.00356771
0.00323143
0.00503478
0.00359825
0.0103817
0.00820833
0.00151359
0.00042453
0.009338
0.00372669
0.0100405
0.00656223
0.000861552
0.000562656
0.00639184
0.00892647
0.0107029
0.0016978
0.0093426
0.00905574
0.00597402
0.00344767
0.00614262
0.00167036
0.000558982
0.00171842
0.0100983
0.000552313
0.000292299
0.00793807
0.0041771
0.010064
0.00446151
0.00522196
0.0181675
0.0118937
0.0115555
0.00467306
0.00264488
0.000350555
0.00372909
0.0163358
0.00177966
0.0113833
0.00403763
0.00304255
0.00110321
0.00556712
0.00947336
0.0145731
0.00759307
0.0101976
0.000888466
0.00903713
0.00443326
0.000274659
0.00943712
0.00311343
0.00524949
0.00161966
0.0181915
0.00787285
0.0105563
0.0047921
2.71186e-05
0.00196841
0.00109073
0.0112726
0.00851597
0.00340018
0.0155858
0.0013773
0.0175362
0.00216064
0.0237179
0.00818792
0.00846983
0.00340236
0.0105309
0.00564381
0.00295773
0.012637
0.0135583
0.0139865
0.00677047
0.0116315
0.0105458
0.0105031
0.00429542
0.0065592
0.0165606
0.00573406
0.0291824
4.73654e-05
0.0152774
0.000352883
0.00898906
0.0011461
0.00302236
0.00214996
0.000832177
0.000836354
0.00283174
0.00648599
0.000838575
0.00775957
0.0025205
0.00110571
0.00262898
0.00857647
0.000236643
0.00465555
0.00578004
0.012152
0.00879542
0.00665315
0.00143676
0.00536557
0.000366588
0.00563195
0.00679535
0.00525807
0.0034175
0.000942451
0.010551
0.00261827
0.00555921
0.0129895
0.00588313
0.00431517
0.0109689
0.00426801
0.0134826
0.00631131
0.00339209
0.00271904
0.00884454
0.00162445
0.0137125
0.00426566
0.00311367
0.000458626
0.00543713
0.00736882
0.0136481
0.00618562
0.00958036
0.0167836
0.00271
0.00646376
0.0108915
0.0120513
0.00413892
0.0161027
0.00451473
0.00770436
0.00210422
0.00179943
0.00044661
0.00638907
0.00867592
0.00312267
0.0022446
0.00186608
0.00786955
0.0152323
0.00379329
0.0127504
0.00583023
0.00716407
0.000815459
0.00765359
0.0111002
0.00483711
0.00667443
0.0125082
0.00971096
0.00641239
0.000425268
0.00844626
0.00854729
0.00059302
0.000449197
0.00301585
0.00697737
0.0177031
0.0118851
0.0089359
0.00761495
0.00637382
0.00601096
0.00228468
0.0110133
0.00113166
0.00768551
0.000712472
0.00968832
0.00572206
0.00612845
0.00856222
0.00587629
0.003157
0.000162058
0.000571475
0.0165492
0.00663236
0.00139823
0.00579834
0.00425448
0.00110105
0.00283725
0.00394019
0.010292
0.00122341
0.00321701
0.000434459
0.0033221
0.00406036
0.00154488
0.001696
0.0104335
0.000331038
0.00539302
0.00707026
0.0137391
0.00228339
0.00487455
0.000435277
0.000945615
0.001322
0.0157779
0.00702763
0.0128327
0.023208
0.0193332
0.000331461
0.0157122
0.0205584
0.00129841
0.0103118
0.0044101
0.0148418
0.00384128
0.00494055
0.0108349
0.0133243
0.00228113
0.00116847
0.00355069
0.0229693
0.0242636
0.0126771
0.0207413
0.0118525
0.00203636
0.00660333
0.014687
0.0119336
0.0115709
0.00260768
0.00175897
0.0104332
0.000225442
0.00073274
0.010166
0.00273433
0.00521393
0.0132366
0.00587267
0.012338
0.014149
0.030262
0.0105013
0.014771
0.0264787
0.0187794
0.0110191
0.00334301
0.00719308
0.00375568
0.000574755
0.00410819
0.0112197
0.00203
0.000359021
0.0141573
0.00273833
0.00577011
0.00279559
1.89371e-06
0.0143602
0.00430701
0.0146118
0.0136599
0.00140541
0.0109807
0.0262204
0.00644665
0.00949729
0.00217768
0.00456342
0.00572352
0.00259387
0.00260141
0.0100888
0.00957242
0.00985678
0.00561313
0.000420467
0.00364427
0.00547585
0.0053431
0.00985638
0.0154609
0.0188987
0.000284121
0.00189034
0.00316952
0.00939975
0.00653091
0.000269074
0.00449214
0.00421928
0.00467308
0.014034
0.00764583
0.00242666
0.00571703
0.000776039
0.0110161
0.00954993
0.00932413
0.00107299
0.00382312
0.00371969
0.0125985
0.00920548
0.0129567
0.00156784
0.00808687
0.00318719
0.0014032
0.00467977
0.00493422
0.00405259
0.00642257
0.00292738
0.00298716
0.00976706
0.00361454
0.00339659
0.014928
0.0126742
0.00443101
0.0171089
0.0078974
0.00297666
0.00982966
0.00194621
0.00167386
0.000743974
0.00140947
0.00705977
0.00106441
0.00731998
0.00164992
0.000659069
0.00135246
0.00185937
0.0121094
0.00292406
0.00819308
0.00416671
0.00596394
0.0156544
0.00354256
0.0017739
0.0115927
0.000623599
0.0152915
0.00892077
0.0100191
0.013982
0.00941797
0.00383607
0.00106321
0.0107963
1.77568e-05
0.00376629
0.00495877
0.00591251
0.0144661
0.0332237
0.0335693
0.0113799
0.0214581
0.0106132
0.0164863
0.00915983
0.0193789
0.00299649
0.00772037
0.000699987
0.00791938
0.00366018
0.00759116
0.0131122
0.00920214
0.0140267
0.0227111
0.0188749
0.0186464
0.0258039
0.000493677
0.0211767
0.0029593
0.0109989
0.00116927
0.0209493
0.000271897
0.0023588
0.000183099
0.000911898
0.00517479
0.00229114
0.0170638
0.00160144
0.0163944
0.00364838
0.010051
0.000490887
0.0255718
0.0139517
0.0140964
0.0110092
0.0088506
0.00873598
0.0156296
0.0147103
0.00194439
0.0137612
0.00360082
0.00442197
0.00621892
0.00990095
0.000545036
0.0109782
0.0125122
0.00100842
0.0148828
0.0119442
0.025277
0.0230805
0.0174346
0.0167046
0.0139527
0.00306762
0.00257622
0.00538757
0.0101577
0.00367563
0.0160916
0.00392576
0.00342794
0.00432055
0.0162438
0.00805148
0.00592439
0.00898191
0.010105
0.00692127
0.0116476
0.0100342
0.019008
0.0242359
0.00385332
0.00842122
0.00150737
0.00621978
0.0145158
0.00234041
0.000242637
0.00956343
0.0127608
0.00810988
0.0153316
0.0119571
0.0133545
0.00017589
0.0133729
0.00106161
0.0232774
0.00289963
0.00906281
0.00620091
0.0068823
0.0193969
0.00212569
0.00842723
0.0246598
0.0132875
0.00412719
0.000514393
0.00254467
0.00602265
0.0102395
0.0132732
0.000934121
0.00370721
0.003488
0.0105809
0.00779228
0.00504245
0.017532
0.000198833
0.0120129
0.0165087
0.012236
0.0153638
0.0033666
0.0158309
0.00619276
0.00430308
0.0034379
0.00720222
0.0044607
0.00906301
0.00594602
0.00397806
0.00646961
0.0028975
0.0197459
0.0110627
0.0135831
0.00519162
0.0112783
0.0054782
0.000619646
0.00127087
0.00102274