/*--------------------------------*- C++ -*----------------------------------*\
| =========                 |                                                 |
| \\      /  F ield         | OpenFOAM: The Open Source CFD Toolbox           |
|  \\    /   O peration     | Version:  2212                                  |
|   \\  /    A nd           | Website:  www.openfoam.com                      |
|    \\/     M anipulation  |                                                 |
\*---------------------------------------------------------------------------*/
FoamFile
{
    version     2.0;
    format      ascii;
    arch        "LSB;label=32;scalar=64";
    class       volScalarField;
    location    "0";
    object      stateMean;
}
// * * * * * * * * * * * * * * * * * * * * * * * * * * * * * * * * * * * * * //

dimensions      [0 0 0 1 0 0 0];

internalField   nonuniform List<scalar> 
3200
(
341.47
339.648
341.04
342.665
340.767
342.003
341.744
341.504
342.688
344.166
344.404
340.228
343.538
347.954
341.718
337.697
340.217
343.606
338.159
338.866
330.551
337.078
333.973
340.312
338.484
336.167
337.685
335.944
342.027
339.752
341.326
342.103
336.639
334.118
336.352
336.578
339.432
334.69
336.527
331.537
327.126
330.746
328.907
329.608
328.711
330.657
330.063
329.933
332.572
329.594
330.32
335.421
329.627
329.856
331.286
333.754
330.147
330.534
329.865
331.209
321.376
325.139
318.109
329.728
324.978
325.009
324.804
328.942
324.951
325.923
329.337
325.562
329.218
325.682
322.979
328.008
324.27
325.597
322.449
319.198
322.606
315.81
316.443
313.059
323.007
315.731
320.886
323.89
322.507
320.366
319.03
317.831
321.556
322.367
321.792
321.69
317.103
319.974
317.238
316.476
312.88
314.673
314.844
312.16
318.279
315.486
316.538
315.603
312.957
316.7
316.012
316.439
315.616
315.893
312.281
316.733
313.544
309.7
315.044
312.073
310.776
311.288
309.678
310.002
312.092
305.696
308.98
306.479
310.966
312.001
308.159
313.65
309.146
311.86
305.659
307.751
309.172
303.008
305.212
310.981
304.176
304.656
297.207
300.699
302.533
301.794
301.273
306.98
302.789
298.267
305.961
308.433
301.687
305.637
305.085
304.537
306.617
302.829
301.031
301.669
342.941
340.841
342.869
344.126
347.892
344.934
346.611
345.492
347.74
346.417
345.551
345.093
342.725
347.906
343.189
340.459
342.339
344.652
336.068
344.945
332.08
338.519
334.877
338.5
338.576
339.53
337.598
340.508
341.612
339.341
338.642
340.326
337.864
343.111
338.879
337.132
338.767
336.804
337.573
333.595
330.687
333.507
332.058
330.945
331.857
332.995
333.801
333.211
337.907
329.817
327.33
331.337
333.24
328.953
331.14
331.86
329.051
331.963
331.784
328.423
323.277
324.26
325.906
323.23
327.039
326.993
325.348
326.599
325.083
324.259
330.738
326.03
325.893
326.83
322.704
324.77
323.187
323.602
321.315
324.489
319.739
324.808
318.066
320.13
322.124
317.211
318.803
319.606
318.521
321.405
320.267
323.402
320.664
319.131
318.208
317.613
323.783
320.813
321.775
321.624
317.298
315.772
313.311
316.687
312.687
322.232
312.76
316.601
314.328
313.652
316.342
310.871
316.346
316.169
313.625
315.319
315.535
313.247
314.061
315.002
307.582
303.33
308.965
309.051
307.399
311.629
309.327
308.358
309.636
310.594
313.436
309.788
311.013
311.871
308.937
311.934
306.713
308.015
307.946
304.865
303.037
301.159
301.268
306.276
306.797
302.187
301.467
303.652
306.676
301.399
303.078
302.555
303.415
302.206
302.315
301.803
304.261
302.197
303.561
299.291
340.869
341.484
342.389
349.389
341.909
343.851
343.869
346.781
344.125
346.051
345.836
345.038
350.927
347.961
348.374
347.318
342.668
344.281
343.953
342.547
338.724
333.254
332.333
341.412
339.158
344.061
341.403
342.046
340.941
340.983
343.847
340.695
343.405
339.093
340.907
335.339
334.652
334.227
333.114
334.928
328.386
336.852
330.921
334.552
333.49
332.198
332.678
333.201
334.889
334.81
335.456
334.368
333.472
333.886
336.427
331.165
333.273
329.842
333.839
331.877
325.36
324.262
323.854
328.471
326.578
327.587
329.366
328.99
323.963
328.939
327.511
328.883
330.675
327.664
329.367
323.312
324.116
325.245
328.08
327.901
322.762
318.201
321.025
323.326
318.97
321.724
325.48
327.148
321.387
319.842
323.568
322.23
322.093
318.202
325.828
317.654
322.286
317.68
320.252
319.352
310.976
314.155
310.835
310.145
314.252
314.015
313.776
317.379
319.37
314.627
321.159
314.652
313.912
317.996
319.287
312.3
317.018
314.257
313.824
311.902
308.882
307.52
310.407
310.284
306.555
303.607
308.814
310.745
310.735
309.743
309.268
310.619
307.049
305.772
307.093
307.232
310
309.367
309.748
310.741
302.303
304.518
302.727
302.67
306.863
303.162
301.131
304.971
298.409
301.159
305.13
304.554
307.876
302.941
306.425
302.944
300.21
301.062
300.669
302.66
341.502
346.436
342.231
348.617
344.306
348.287
357.617
349.778
347.509
352.947
351.536
352.396
352.97
348.286
346.844
345.905
346.357
344.404
344.189
343.501
333.578
340.273
337.81
340.08
343.498
338.907
341.156
339.095
343.08
340.148
340.638
340.331
339.342
340.552
340.213
338.615
338.024
338.704
338.759
342.278
331.325
333.575
330.236
336.616
335.695
332.673
332.152
336.171
337.875
335.653
334.369
338.478
333.511
333.448
336.754
335.161
335.404
334.884
331.719
335.733
326.483
321.19
328.02
323.006
326.447
331.03
328.948
324.426
330.132
328.958
329.523
326.681
333.963
329.305
327.812
329.248
329.556
329.263
326.732
327.108
318.862
320.255
322.476
324.021
322.294
320.704
322.582
319.615
318.87
327.064
321.247
321.332
322.584
320.767
323.212
320.169
325.432
318.026
319.828
317.356
314.15
318.645
319.085
315.938
315.096
314.677
315.196
317.823
315.998
316.463
311.802
315.756
316.669
314.095
316.995
314.259
314.442
316.206
314.842
314.103
308.71
309.61
310.062
306.471
309.506
305.493
310.073
308.914
313.78
309.251
310.519
309.458
310.729
314.877
309.401
301.953
309.072
312.299
307.581
305.581
302.501
304.667
303.177
302.721
309.74
303.096
305.58
303.915
305.004
302.196
307.873
304.193
308.844
302.806
301.963
303.508
306.076
305.08
301.489
308.645
345.747
344.062
351.276
344.131
346.117
349.597
346.678
350.572
351.62
352.795
345.585
352.74
350.604
349.755
350.206
351.207
349.327
348.109
349.608
346.323
340.691
336.86
340.147
336.462
341.681
343.558
334.527
344.706
345.274
340.676
344.463
345.252
348.086
343.71
339.979
339.888
342.801
338.777
341.393
336.991
334.349
336.118
336.301
334.3
332.85
339.818
332.773
334.943
332.778
336.019
338.636
339.5
334.134
337.114
337.797
335.538
339.634
333.151
331.429
328.587
330.156
325.639
327.36
326.997
331.137
329.719
333.657
331.831
329.556
325.967
331.704
329.588
331.755
326.627
327.357
327.169
331.575
327.32
327.012
326.391
320.938
320.064
324.775
320.477
319.221
322.261
324.244
322.564
326.822
321.163
319.61
324.048
322.712
324.045
322.666
327.26
319.924
322.086
320.072
322.047
318.164
318.474
316.762
314.494
314.113
313.979
320.063
317.364
318.741
313.907
316.315
323.232
315.898
316.877
316.402
316.191
317.584
314.833
315.368
315.07
311.901
311.858
311.314
312.259
309.596
314.81
307.643
310.371
308.562
310.962
308.605
311.697
310.444
308.13
309.353
312.601
312.066
309.187
311.367
305.457
307.087
307.552
303.179
299.629
304.12
301.362
301.642
301.29
305.853
301.188
300.65
299.935
309.251
303.965
303.806
306.61
303.255
301.455
305.607
303.416
345.281
346.112
349.94
350.291
355.753
348.901
352.941
350.495
346.884
348.972
352.817
355.383
350.848
350.572
350.401
350.771
346.806
342.632
345.3
343.919
342.703
341.281
341.456
342.376
343.702
341.083
345.634
340.189
345.329
343.013
341.489
349.077
341.578
342.682
340.981
344.242
339.61
338.684
339.485
338.296
339.021
332.637
329.508
334.051
338.746
337.025
337.887
335.559
338.126
339.483
338.141
338.021
336.59
334.255
335.033
332.618
334.242
333.244
330.09
334.548
327.858
324.388
329.914
331.373
334.479
326.503
328.813
329.406
330.798
332.612
334.573
332.148
332.234
329.002
329.588
329.033
328.452
327.077
326.521
327.93
320.382
322.246
318.822
323.493
326.463
318.818
321.908
319.919
324.208
322.609
326.835
323.668
327.738
327.961
322.484
317.333
320.662
322.678
318.807
319.634
314.985
315.286
316.832
313.147
318.983
314.341
315.129
315.674
319.598
316.518
314.234
315.101
316.085
316.804
317.342
314.693
315.49
316.138
315.434
316.036
309.645
307.701
309.723
309.789
307.012
304.858
309.633
308.741
311.092
310.469
309.644
306.815
304.683
312.954
310.422
306.916
308.473
313.436
309.675
307.869
300.675
298.127
305.804
303.737
307.218
304.306
299.472
299.988
303.887
298.667
301.327
305.9
302.218
303.983
300.779
307.079
303.321
304.102
302.403
302.665
346.563
352.753
349.705
354.679
350.886
353.053
351.102
353.399
353.328
356.191
354.068
354.368
353.148
354.406
349.638
349.642
350.41
348.565
349.879
349.007
341.653
340.665
339.487
343.371
344.362
346.836
346.483
345.219
344.023
345.49
350.216
348.192
344.674
347.51
342.903
342.558
339.524
343.315
340.208
344.351
333.296
338.037
339.929
337.693
343.495
335.14
340.578
340.566
339.369
343.715
336.216
342.143
336.715
337.943
337.545
336.906
338.18
329.586
333.768
336.814
328.802
331.29
332.482
330.69
329.628
328.77
331.125
332.328
331.924
333.132
329.367
331.311
328.026
331.726
333.488
329.9
330.623
333.888
330.563
321.57
324.395
323.341
320.878
322.013
323.366
324.183
322.172
327.856
323.609
325.913
322.685
328.614
321.336
324.054
325.809
322.953
322.141
325.009
327.457
318.415
316.951
313.513
315.746
316.322
315.597
317.318
314.298
315.117
317.753
319.447
317.137
321.52
313.856
317.438
319.239
321.051
316.544
314.464
313.219
314.497
312.207
308.558
309.568
307.182
309.367
308.899
308.833
315.526
310.984
310.159
311.113
306.034
313.4
308.438
311.746
307.441
310.531
308.729
310.54
306.227
304.621
299.841
302.889
302.116
305.302
305.094
302.862
301.869
305.435
299.566
302.924
304.063
301.724
304.608
301.471
301.579
308.065
301.741
302.019
304.569
354.134
348.646
350.219
353.939
350.45
349.867
354.76
359.499
352.053
356.358
353.533
358.202
354.033
354.219
355.017
348.93
352.059
350.574
353.111
353.346
344.298
345.059
346.135
340.379
345.141
343.22
342.91
343.639
349.618
344.034
343.3
350.295
342.382
346.774
342.421
349.117
343.086
350.058
340.911
342.551
337.462
333.323
339.35
335.175
337.68
338.909
337.443
338.27
340.44
343.13
339.382
341.36
340.82
341.667
338.961
339.636
337.982
335.13
333.876
334.604
332.346
328.152
327.962
329.231
332.911
335.973
331.522
334.298
331.675
333.431
332.337
333.33
335.185
329.993
332.949
335.207
330.862
328.535
330.506
331.961
323.548
324.205
323.505
322.883
324.758
329.615
326.249
326.442
327.13
324.635
326.443
326.452
325.581
328.908
322.088
325.165
327.525
325.884
324.369
325.47
316.245
320.411
312.596
319.694
316.875
315.523
314.492
316.716
316.613
318.214
320.947
318.599
317.917
315.98
317.649
316.602
320.74
318.078
316.271
315.129
310.911
311.763
311.579
312.101
309.586
310.292
310.405
307.859
310.117
313.615
312.392
313.21
310.405
310.325
313.618
308.716
316.962
308.347
313.02
311.437
302.913
304.215
305.62
300.06
303.23
305.796
305.304
302.22
304.302
304.655
307.638
305.906
308.232
303.982
303.5
301.679
306.278
305.122
304.564
303.524
349.616
349.735
353.646
352.306
357.841
352.965
357.027
354.956
358.079
358.62
357.913
357.624
351.022
354.919
356.024
356.806
353.754
351.84
350.145
353.026
344.842
344.655
343.969
348.53
346.218
346.354
349.877
348.05
346.03
346.196
349.322
346.683
346.91
348.562
345.635
348.863
347.041
343.842
343.6
346.35
336.618
336.916
341.807
334.337
338.727
340.38
343.969
341.252
339.586
342.419
343.783
344.745
339.371
341.196
345.449
341.329
339.878
336.439
336.007
334.72
332.28
331.322
330.365
330.432
327.597
333.901
333.211
331.305
333.165
331.807
332.911
330.673
331.855
327.09
336.409
333.921
332.514
335.536
327.332
327.318
320.999
325.645
323.955
323.813
324.265
330.167
322.987
327.002
324.452
323.559
324.936
325.203
327.286
328.687
325.634
325.711
327.389
325.263
324.889
326.568
312.816
317.251
319.109
319.8
319.515
316.213
314.436
318.49
316.537
318.636
319.271
320.349
318.003
320.024
318.232
315.654
316.973
316.112
314.056
319.42
307.184
309.671
309.362
312.283
305.915
312.446
311.343
312.345
310.088
308.334
308.01
309.267
311.628
311.814
309.288
312.186
309.312
312.794
311.205
313.334
303.062
297.982
301.681
301.445
299.844
301.887
303.522
303.889
301.794
304.599
301.343
306.094
303.005
303.725
303.55
302.397
304.452
308.723
306.069
301.16
354.833
353.773
353.424
356.786
357.945
357.699
356.488
358.564
359.781
354.89
357.809
356.136
360.738
359.902
354.589
358.649
358.74
353.593
352.344
352.911
347.353
344.3
349.913
344.471
350.563
345.067
351.039
345.649
350.396
345.787
346.238
349.309
346.621
348.406
344.336
344.479
344.82
349.835
345.017
345.576
342.028
334.643
336.221
341.875
338.487
337.545
337.346
342.228
349.425
341.438
343.457
343.665
344.617
342.154
338.191
338.052
339.654
339.872
337.3
338.839
330.549
333.564
331.351
335.859
331.517
334.633
331.141
330.834
332.291
332.551
341.44
335.477
331.148
336.254
334.279
333.7
332.418
331.45
331.778
330.482
322.644
323.794
322.816
323.718
323.516
322.081
323.873
327.401
328.004
325.786
328.985
323.006
326.435
328.491
328.778
326.951
326.053
327.807
320.444
323.284
313.444
316.319
314.944
321.911
318.113
322.521
312.957
317.911
319.283
319.835
323.485
320.74
316.338
314.69
317.499
318.351
321.343
318.376
318.266
311.281
305.546
313.601
308.871
312.132
307.604
311.804
312.219
311.163
311.156
315.147
311.972
310.705
310.623
311.35
310.189
308.048
310.299
311.99
311.382
305.427
305.654
300.56
303.271
306.774
305.972
304.512
303.297
302.177
303.224
305.102
306.128
310.359
302.863
302.379
305.018
304.448
305.164
306.048
300.045
303.938
351.334
357.791
350.689
359.217
356.032
355.341
360.604
361.755
361.56
356.962
357.97
361.505
360.65
357.866
358.028
357.85
356.195
354.711
355.027
355.283
345.526
344.088
343.822
347.145
348.67
346.607
349.753
347.05
351.078
348.106
347.704
350.16
347.15
347.44
346.984
349.418
346.926
347.947
345.892
347.958
336.493
341.755
339.064
342.926
336.008
345.612
343.355
341.678
346.132
343.789
341.993
342.831
342.61
344.193
343.157
344.737
338.373
338.621
341.942
337.452
327.773
330.585
332.305
335.617
333.989
338.603
335.801
336.276
336.825
329.443
339.377
340.6
335.816
336.795
336.274
334.083
336.988
330.42
333.195
332.456
324.436
322.397
326.708
323.983
323.126
327.354
325.311
332.629
327.767
322.843
324.724
331.254
326.706
326.13
325.868
328.603
328.889
323.011
329.396
320.965
320.251
322.097
318.601
320.849
318.241
321.069
320.121
320.03
316.826
315.084
320.746
319.848
314.325
320.637
319.093
320.702
319.91
323.14
319.248
316.027
306.489
308.17
311.082
310.909
309.764
313.119
316.056
310.471
314.484
311.138
312.811
312.803
310.516
314.862
313.172
310.907
309.011
309.778
307.725
309.468
305.506
302.465
300.861
302.531
298.163
304.358
305.539
301.593
303.804
307.097
306.186
306.688
302.764
303.737
304.542
304.19
302.483
308.475
302.758
302.354
351.977
354.967
352.958
356.549
359.252
361.954
364.799
363.386
363.972
359.585
358.403
362.401
358.282
358.661
359.9
359.812
357.464
353.508
358.092
359.148
349.318
345.916
349.778
347.185
352.752
350.963
350.211
351.277
354.656
353.823
351.865
354.529
352.5
348.884
355.682
352.669
349.48
344.745
349.966
347.021
336.407
340.359
338.885
338.442
342.172
345.605
342.156
349.227
341.101
348.057
347.282
343.525
345.599
339.852
340.561
340.613
338.473
337.298
340.145
341.561
333.323
330.82
333.226
330.148
331.93
334.136
336.326
332.744
333.357
335.033
333.448
336.265
337.064
332.762
337.361
340.495
332.796
332.196
333.691
332.533
326.376
324.823
323.539
324.528
324.389
327.425
331.742
321.347
328.248
320.897
330.212
327.737
329.651
329.184
330.197
329.442
328.803
327.767
324.777
321.278
319.764
316.213
315.752
317.6
318.585
319.117
318.424
320.34
324.857
320.327
316.767
314.45
322.154
318.461
319.152
318.757
320.038
320.863
318.853
320.249
313.978
312.102
311.064
307.676
311.586
312.888
312.774
311.629
311.31
310.959
313.489
314.958
310.92
311.333
312.189
313.815
310.888
312.573
313.691
310.442
304.05
306.244
300.305
305.835
302.35
302.511
303.924
302.011
306.921
304.484
302.772
303.4
305.04
302
301.166
305.376
300.854
306.079
304.148
305.312
357.817
356.423
352.422
358.506
358.928
361.529
361.971
359.234
359.672
363.198
360.849
360.663
362.638
362.799
356.742
360.574
360.786
356.449
355.742
353.438
344.276
349.347
349.098
352.189
349.487
349.995
350.356
351.063
352.272
350.875
350.749
353.093
350.52
350.327
349.624
350.462
349.822
352.999
351.489
347.215
339.335
337.676
341.602
344.245
340.62
344.148
345.86
338.453
344.628
347.738
346.492
342.652
343.93
343.028
344.52
341.875
343.037
339.766
345.434
338.682
334.158
330.696
335.018
331.249
336.452
336.966
339.666
335.023
336.035
332.406
334.442
338.347
333.638
337.402
334.134
334.362
336.221
333.384
330.91
332.069
325.096
327.71
320.691
325.735
330.932
325.468
327.379
330.473
323.205
324.988
327.543
329.942
326.785
324.468
332.156
330.447
330.019
327.244
326.991
327.631
317.016
317.664
316.148
318.94
319.916
317.215
320.377
320.045
322.223
321.223
320.04
321.829
319.736
322.404
319.919
320.596
320.517
320.457
315.454
318.14
320.326
311.856
308.295
312.556
312.4
313.845
311.201
310.829
310.128
310.416
308.637
309.804
312.476
311.475
311.102
309.424
310.427
311.849
311.455
308.578
299.757
306.43
304.006
304.151
303.86
304.654
304.825
304.372
306.735
304.165
302.083
304.548
304.471
304.911
305.254
301.685
301.874
301.415
306.941
300.75
357.194
357.255
356.478
361.988
360.022
363.696
360.25
366.895
364.777
365.558
366.59
366.995
362.696
363.306
361.956
359.316
358.623
356.015
355.742
356.222
349.797
349.007
348.905
353.118
355.566
350.596
353.994
352.885
351.786
355.96
354.628
354.803
352.599
354.235
350.908
353.671
351.178
353.716
348.811
345.141
337.977
341.11
339.713
341.875
345.099
345.331
345.25
346.175
346.64
340.487
345.634
351.422
348.541
347.164
342.715
340.566
340.671
344.926
341.717
343.676
338.798
336.709
336.675
335.284
334.143
340.438
334.98
336.426
335.929
339.044
332.984
337.334
337.389
338.018
337.477
338.941
336.456
333.026
331.169
333.022
321.768
329.37
329.704
323.818
323.932
326.769
327.645
330.51
326.967
329.219
329.811
329.319
331.505
330.736
327.478
328.034
324.75
328.947
324.354
325.431
319.968
319.917
317.751
317.002
323.341
319.43
323.012
322.96
318.178
321.209
322.071
319.555
320.241
320.572
323.204
319.74
319.95
317.256
318.401
322.91
313.213
310.22
317.549
308.21
308.351
310.532
311.195
312.153
313.225
317.167
311.514
308.509
310.784
311.071
311.646
310.219
314.875
307.338
314.216
308.642
304.232
306.718
302.634
304.078
306.876
303.071
305.624
304.528
298.511
306.439
307.255
302.585
304.044
303.43
303.686
300.58
301.406
302.948
308.709
303.543
355.642
362.906
353.694
359.487
359.548
361.537
359.081
360.962
364.16
367.714
358.202
368.164
365.469
358.682
366.597
358.81
364.012
359.911
356.127
359.914
343.3
353.716
348.467
354.144
350.977
353.886
353.336
355.262
354.271
354.896
353.595
356.866
354.797
351.657
355.185
353.769
354.95
350.838
353.649
351.973
343.299
341.192
342.468
343.33
345.253
344.006
345.832
344.089
348.445
344.302
344.939
346.419
342.387
345.053
343.939
341.259
343.597
344.016
341.6
343.821
332.466
334.959
336.038
338.2
334.397
336.924
332.923
339.057
338.713
337.53
335.849
335.174
333.009
339.64
334.239
331.719
338.197
335.003
333.415
332.949
327.397
323.521
327.407
326.435
329.738
328.525
329.032
327.126
326.408
330.311
328.544
329.879
326.638
324.165
327.869
324.851
327.052
326.536
328.548
326.242
316.975
319.023
318.487
316.672
317.623
322.846
320.969
318.159
323.637
321.097
320.763
321.862
318.63
315.153
324.602
323.604
323.125
318.583
318.647
321.265
308.886
311.998
314.784
312.193
315.476
310.692
310.591
309.852
314.38
311.564
312.5
312.722
307.356
314.579
312.043
310.637
311.087
312.727
313.237
313.557
301.001
303.767
305.128
304.029
303.162
302.947
303.721
303.682
301.029
304.307
305.847
306.354
308.377
303.496
302.699
304.304
303.873
304.552
299.34
306.268
360.031
356.367
357.928
365.016
359.546
357.91
365.066
361.867
364.092
371.167
364.334
363.898
361.675
370.412
364.588
364.858
363.841
356.601
355.982
360.088
348.585
351.852
355.476
353.981
351.227
352.326
352.558
355.838
356.198
353.133
356.936
357.087
353.141
357.66
358.44
351.744
354.241
351.806
351.034
345.196
343.628
342.23
338.269
341.055
343.86
346.629
345.377
349.257
348.199
346.595
344.12
347.293
348.075
342.954
346.84
345.685
346.61
347.469
342.373
345.779
333.678
334.068
338.308
335.155
330.077
336.861
335.898
339.915
340.765
337.296
338.358
338.335
335.754
335.873
342.389
337.062
338.734
337.549
336.84
336.817
326.759
324.963
323.895
330.112
330.899
329.292
327.289
332.598
330.382
331.973
331.882
332.015
335.077
327.869
331.141
332.163
329.95
326.497
326.914
333.089
321.772
320.236
320.318
317.514
318.654
317.492
322.204
319.13
320.73
322.218
320.26
320.167
320.428
319.634
320.718
322.576
318.424
320.352
320.373
316.629
308.898
311.499
307.561
315.416
313.907
316.08
313.635
312.522
312.826
313.507
315.276
312.726
310.755
312.51
312.797
312.552
312.363
309.126
313.8
310.3
303.042
302.503
299.564
303.26
303.808
300.829
304.175
309.026
301.661
307.429
300.123
301.509
305.54
304.041
301.071
304.343
303.192
305.837
306.117
299.908
355.363
355.345
363.639
360.069
364.192
362.152
364.956
361.276
367.372
371.352
368.249
365.558
367.068
365.534
363.395
364.712
362.804
359.471
360.748
360.721
349.187
358.709
351.055
357.709
354.94
359.414
351.564
359.064
360.061
359.175
358.913
357.355
358.339
352.96
358.419
353.003
357.462
355.045
358.356
349.27
344.479
344.506
345.684
346.54
346.678
344.356
344.755
349.285
345.192
348.772
351.58
347.832
346.5
350.093
345.984
345.357
349.281
344.33
345.258
340.522
332.463
334.448
334.776
335.795
339.583
339.824
338.931
337.356
339.602
335.388
339.535
339.687
339.345
335.232
337.959
338.61
337.488
337.023
338.026
336.354
327.999
325.074
323.403
330.225
328.772
331.122
329.609
326.898
330.965
331.675
328.582
327.508
329.023
326.587
335.587
327.136
331.56
327.004
331.725
323.612
321.427
319.475
324.441
320.269
316.277
323.261
325.33
314.683
318.372
324.002
322.504
321.838
324.582
319.308
318.293
322.834
323.684
323.567
318.986
319.85
311.843
307.949
313.533
309.733
308.35
309.714
308.754
314.646
308.637
311.666
312.259
314.68
311.331
314.971
310.709
315.39
312.252
311.443
312.536
307.234
301.129
300.369
302.933
301.089
302.864
304.352
304.935
304.243
305.481
305.301
303.293
301.831
302.072
306.044
302.524
301.266
302.647
302.512
309.434
301.003
357.167
355.017
358.033
365.357
367.681
368.211
362.917
361.684
366.803
368.13
364.224
367.945
363.849
368.432
366.063
362.402
364.587
360.739
363.691
357.1
345.646
351.734
351.24
352.424
351.68
356.446
352.945
358.635
352.966
356.755
359.127
353.497
358.318
356.862
357.017
357.095
353.921
354.395
350.529
351.02
339.829
343.676
345.734
347.449
341.613
347.169
350.227
344.797
351.13
348.665
345.817
346.363
346.351
344.756
349.584
348.793
345.081
346.795
339.387
344.773
331.99
336.238
329.37
339.026
337.125
335.527
339.88
336.751
345.389
340.913
341.372
337.175
341.2
337.72
342.31
337.141
336.499
332.391
334.871
333.504
326.755
324.983
326.09
326.124
326.393
331.043
331.506
330.064
329.105
327.891
327.947
326.31
332.275
330.733
326.634
330.915
331.056
333.789
329.253
324.365
321.262
317.391
317.546
320.093
317.266
321.105
319.294
326.696
317.032
320.046
320.993
321.357
324.124
324.547
324.938
323.028
320.794
316.056
320.101
317.4
316.191
315.064
312.615
312.558
311.377
309.169
314.655
316.985
311.344
314.797
315.084
319.711
310.264
312.384
314.378
311.511
311.593
313.697
313.477
314.054
303.942
302.855
302.594
302.344
303.507
303.598
300.661
305.694
306.199
302.314
304.442
307.904
299.593
302.449
307.202
303.804
304.619
300.134
303.77
303.327
352.476
359.599
363.393
365.78
366.447
367.301
365.902
367.542
369.575
368.634
365.324
364.939
371.209
360.87
369.35
368.856
361.43
362.56
359.417
361.446
354.948
362.892
349.512
363.42
350.797
362.549
353.228
363.413
359.318
363.091
363.618
359.45
363.742
351.951
364.158
354.296
362.674
355.573
363.37
353.478
342.191
342.656
342.355
345.628
349.192
343.54
345.751
349.231
345.009
349.999
349.756
346.217
346.972
343.451
350.8
345.659
348.534
347.055
343.422
344.715
337.516
332.553
337.49
335.988
338.323
340.922
340.112
341.549
338.067
336.61
339.341
339.367
343.15
338.097
336.276
339.744
338.074
334.937
339.465
336.051
325.729
327.711
329.982
325.943
330.257
333.996
330.919
330.349
327.231
326.472
328.582
330.219
333.538
328.564
325.498
328.497
331.667
329.36
326.224
328.537
323.235
317.249
322.751
319.42
325.481
327.266
319.055
323.31
322.054
321.998
317.1
320.023
320.894
315.724
319.729
322.062
326.183
320.151
316.344
325.112
314.635
307.741
311.168
314.629
312.693
313.165
314.231
316.163
314.161
312.032
309.42
310.084
313.538
316.524
312.908
311.795
313.584
311.752
311.987
309.556
301.843
303.785
307.165
301.176
302.601
307.004
301.05
302.587
307.052
304.679
303.319
302.271
308.88
306.021
305.921
303.45
305.93
306.312
308.292
300.962
360.578
364.316
360.778
362.724
361.571
365.992
365.971
366.864
365.367
364.365
369.348
367.122
363.456
367.302
367.015
370.133
366.178
365.046
360.812
358.318
343.013
346.269
353.391
350.714
350.879
360.841
357.2
356.43
359.789
358.796
356.179
360.117
357.91
359.83
355.72
357.537
355.175
355.152
353.348
349.619
340.672
345.923
344.508
344.336
344.217
345.865
345.235
348.906
348.381
347.812
346.294
347.413
350.764
346.776
347.259
348.242
345.085
347.47
343.807
340.915
333.702
335.986
336.836
339.163
344.317
340.586
339.978
338.049
341.394
340.447
340.546
340.675
342.605
342.06
341.367
340.712
340.818
337.991
339.09
331.54
327.97
328.924
330.136
326.432
324.813
326.631
328.517
326.148
327.932
331.245
331.581
327.378
330.454
333.033
328.594
331.08
329.03
323.518
327.045
324.151
321.649
319.385
322.322
319.739
318.666
319.281
320.816
324.876
319.192
325.86
326.319
322.044
322.391
322.535
319.214
327.331
323.836
318.999
321.207
316.406
309.732
311.77
315.148
308.722
309.876
316.299
312.567
312.146
313.281
308.52
313.873
310.712
312.389
309.677
309.023
314.975
312.35
314.602
313.609
308.907
300.244
304.541
301.902
302.534
304.191
300.945
305.988
307.289
306.659
302.523
303.639
305.662
304.585
300.591
300.817
306.01
307.673
303.685
306.71
302.766
)
;

boundaryField
{
    hotSide
    {
        type            fixedGradient;
        gradient        nonuniform List<scalar> 
400
(
321.511
322.87
325.591
329.677
335.133
341.965
350.181
359.788
370.794
383.208
397.037
412.289
428.971
447.088
466.647
487.651
510.105
534.011
559.372
586.191
323.738
325.08
327.767
331.802
337.194
343.949
352.078
361.591
372.498
384.81
398.537
413.687
430.268
448.289
467.755
488.672
511.043
534.872
560.161
586.913
326.149
327.47
330.116
334.091
339.406
346.071
354.099
363.503
374.296
386.491
400.101
415.136
431.606
449.52
468.885
489.706
511.988
535.735
560.948
587.63
328.704
330
332.597
336.503
341.73
348.292
356.205
365.485
376.15
388.215
401.695
416.604
432.954
450.753
470.009
490.73
512.919
536.579
561.714
588.325
331.33
332.599
335.142
338.97
344.099
350.546
358.332
367.477
378.003
389.928
403.271
418.047
434.27
451.949
471.095
491.712
513.807
537.382
562.439
588.978
333.918
335.158
337.643
341.389
346.414
352.74
360.392
369.397
379.779
391.562
404.765
419.407
435.503
453.065
472.101
492.618
514.622
538.114
563.096
589.569
336.321
337.531
339.959
343.622
348.544
354.751
362.274
371.142
381.385
393.031
406.101
420.618
436.595
454.047
472.983
493.409
515.33
538.747
563.663
590.076
338.36
339.543
341.92
345.509
350.339
356.44
363.847
372.595
382.718
394.244
407.2
421.608
437.485
454.844
473.695
494.045
515.897
539.253
564.114
590.478
339.852
341.015
343.352
346.885
351.645
357.665
364.985
373.643
383.675
395.113
407.984
422.312
438.116
455.407
474.197
494.491
516.294
539.606
564.428
590.758
340.643
341.795
344.11
347.613
352.334
358.311
365.584
374.193
384.176
395.567
408.393
422.679
438.443
455.699
474.456
494.722
516.498
539.788
564.589
590.901
340.643
341.795
344.11
347.613
352.334
358.311
365.584
374.193
384.176
395.567
408.393
422.679
438.443
455.699
474.456
494.722
516.498
539.788
564.589
590.901
339.852
341.015
343.352
346.885
351.645
357.665
364.985
373.643
383.675
395.113
407.984
422.312
438.116
455.407
474.197
494.491
516.294
539.606
564.428
590.758
338.36
339.543
341.92
345.509
350.339
356.44
363.847
372.595
382.718
394.244
407.2
421.608
437.485
454.844
473.695
494.045
515.897
539.253
564.114
590.478
336.321
337.531
339.959
343.622
348.544
354.751
362.274
371.142
381.385
393.031
406.101
420.618
436.595
454.047
472.983
493.409
515.33
538.747
563.663
590.076
333.918
335.158
337.643
341.389
346.414
352.74
360.392
369.397
379.779
391.562
404.765
419.407
435.503
453.065
472.101
492.618
514.622
538.114
563.096
589.569
331.33
332.599
335.142
338.97
344.099
350.546
358.332
367.477
378.003
389.928
403.271
418.047
434.27
451.949
471.095
491.712
513.807
537.382
562.439
588.978
328.704
330
332.597
336.503
341.73
348.292
356.205
365.485
376.15
388.215
401.695
416.604
432.954
450.753
470.009
490.73
512.919
536.579
561.714
588.325
326.149
327.47
330.116
334.091
339.406
346.071
354.099
363.503
374.296
386.491
400.101
415.136
431.606
449.52
468.885
489.706
511.988
535.735
560.948
587.63
323.738
325.08
327.767
331.802
337.194
343.949
352.078
361.591
372.498
384.81
398.537
413.687
430.268
448.289
467.755
488.672
511.043
534.872
560.161
586.913
321.511
322.87
325.591
329.677
335.133
341.965
350.181
359.788
370.794
383.208
397.037
412.289
428.971
447.088
466.647
487.651
510.105
534.011
559.372
586.191
)
;
    }
    coldSide
    {
        type            mixed;
        refValue        uniform 300;
        refGradient     uniform 0;
        valueFraction   uniform 0.991591;
        source          uniform 0;
        value           nonuniform List<scalar> 
400
(
300.035
300.026
300.019
300.021
300.06
300.006
300.039
300.024
300.026
300.048
300.046
300.034
299.998
300.036
300.008
300.026
300.009
300.033
300.015
300.002
300.039
300.01
300.038
300.039
300.064
299.984
299.999
300.035
299.983
300.005
300.021
300.053
300.054
300.056
300.032
300.021
300.003
300.024
300.032
300.038