/*--------------------------------*- C++ -*----------------------------------*\
| =========                 |                                                 |
| \\      /  F ield         | OpenFOAM: The Open Source CFD Toolbox           |
|  \\    /   O peration     | Version:  2212                                  |
|   \\  /    A nd           | Website:  www.openfoam.com                      |
|    \\/     M anipulation  |                                                 |
\*---------------------------------------------------------------------------*/
FoamFile
{
    version     2.0;
    format      ascii;
    arch        "LSB;label=32;scalar=64";
    class       volScalarField;
    location    "./ITHACAoutput/true/19.8";
    object      error;
}
// * * * * * * * * * * * * * * * * * * * * * * * * * * * * * * * * * * * * * //

dimensions      [0 0 0 1 0 0 0];

internalField   nonuniform List<scalar> 
3200
(
7.17845
7.08404
7.04017
7.07626
7.0863
7.24996
7.2951
7.33306
7.48274
7.47965
7.48791
7.44676
7.45411
7.40045
7.33094
7.23642
7.3026
7.26086
7.29949
7.50471
6.28669
6.21679
6.20765
6.25782
6.20006
6.25311
6.41704
6.41888
6.55581
6.62643
6.54314
6.56422
6.55943
6.50413
6.4021
6.3779
6.4148
6.40288
6.4055
6.4841
5.34619
5.3179
5.31565
5.32058
5.38277
5.44832
5.47767
5.59724
5.60668
5.67591
5.68839
5.68745
5.58806
5.54046
5.54046
5.50628
5.48669
5.45268
5.48255
5.4998
4.47092
4.3941
4.37307
4.32518
4.39036
4.4611
4.47413
4.58534
4.66575
4.6886
4.72051
4.70912
4.62859
4.5883
4.52825
4.52297
4.49643
4.51011
4.56191
4.55933
3.41884
3.35724
3.41965
3.43759
3.41385
3.48109
3.56635
3.61763
3.66
3.66527
3.68135
3.63077
3.63686
3.56533
3.5418
3.56109
3.50934
3.45432
3.50956
3.60631
2.49172
2.48713
2.43823
2.46615
2.52504
2.39895
2.56606
2.57013
2.57869
2.61921
2.59816
2.57782
2.55157
2.52068
2.56812
2.53671
2.49166
2.55004
2.63068
2.54725
1.39223
1.4598
1.46891
1.4404
1.49736
1.51553
1.60264
1.56226
1.55878
1.54007
1.5831
1.56307
1.56425
1.61661
1.55057
1.52453
1.49463
1.53031
1.5554
1.47485
0.447951
0.540218
0.513071
0.447232
0.539921
0.502457
0.521437
0.44464
0.482584
0.462043
0.544754
0.525154
0.48305
0.558366
0.623219
0.483054
0.547903
0.493031
0.523109
0.46769
6.6454
6.48495
6.42121
6.38633
6.44952
6.46015
6.52735
6.50489
6.67545
6.80135
6.75469
6.69933
6.73266
6.65281
6.57173
6.52822
6.53089
6.62171
6.71568
6.86551
5.79136
5.67734
5.71976
5.66264
5.62783
5.72483
5.75385
5.87006
5.98711
6.00088
6.08971
5.98769
5.95023
5.87281
5.86268
5.85599
5.78764
5.88187
5.92109
5.96194
5.08749
4.95001
4.88399
4.85478
4.86888
4.88213
5.00288
5.07129
5.10994
5.16959
5.17486
5.1993
5.12327
5.08834
5.0801
5.03373
5.00524
5.00935
5.09201
5.11785
4.10491
4.08945
4.02482
4.03275
4.03518
4.11825
4.15423
4.17472
4.23448
4.27401
4.2847
4.22836
4.22824
4.16617
4.19367
4.11879
4.08944
4.19984
4.18406
4.25288
3.19461
3.1578
3.11548
3.1437
3.17088
3.29048
3.29633
3.28162
3.32392
3.31732
3.37936
3.35939
3.27461
3.3217
3.24594
3.20083
3.31406
3.32266
3.31439
3.40694
2.36956
2.24633
2.29969
2.23592
2.2631
2.26628
2.34742
2.37753
2.41453
2.50476
2.44618
2.43044
2.4042
2.44552
2.34153
2.3171
2.3829
2.36263
2.30677
2.40728
1.42963
1.39844
1.33972
1.33994
1.35893
1.39845
1.4535
1.42639
1.42799
1.50631
1.49038
1.46255
1.38582
1.36751
1.38341
1.42233
1.42486
1.41354
1.36046
1.45065
0.464238
0.545499
0.455116
0.43666
0.37551
0.491618
0.525368
0.52362
0.458809
0.500062
0.494349
0.505125
0.483793
0.523939
0.473204
0.453837
0.398148
0.520026
0.555434
0.538457
5.88424
5.73081
5.6219
5.51879
5.55495
5.55704
5.62666
5.71149
5.7743
5.83556
5.83365
5.75828
5.79363
5.69513
5.68543
5.66738
5.75616
5.77706
5.81485
5.98103
5.15514
5.10728
4.95888
4.88852
4.94603
4.9798
4.983
5.11862
5.2451
5.2049
5.21706
5.1937
5.1994
5.06739
5.05825
5.06048
5.07886
5.10332
5.20002
5.31464
4.4042
4.35319
4.32145
4.33022
4.20538
4.36791
4.39431
4.39612
4.44545
4.46446
4.47626
4.43855
4.49
4.47174
4.33309
4.41236
4.38769
4.40867
4.48466
4.65576
3.65355
3.6254
3.54104
3.57512
3.56707
3.57234
3.57602
3.68965
3.71891
3.72336
3.75034
3.71568
3.7021
3.67341
3.68011
3.66587
3.64112
3.65462
3.77407
3.88017
2.8906
2.74503
2.79613
2.77741
2.7642
2.82932
2.86661
2.95324
2.96953
2.98725
2.97298
2.99292
2.88461
2.91811
2.92891
2.87019
2.88396
2.86727
2.92693
2.89759
2.14963
2.02221
2.0573
2.03061
1.98596
2.03617
2.08428
2.11514
2.09068
2.1673
2.10377
2.03808
2.10856
2.11332
2.04006
2.00997
2.08317
2.11402
2.11479
2.1216
1.17904
1.20041
1.1955
1.29
1.22092
1.19867
1.18885
1.22501
1.30403
1.31582
1.28769
1.19549
1.22634
1.30114
1.24777
1.29359
1.29927
1.30213
1.20303
1.33121
0.410834
0.414703
0.413039
0.373175
0.401367
0.479809
0.415908
0.443785
0.480576
0.387933
0.41701
0.448536
0.482684
0.414309
0.35738
0.41916
0.450928
0.42486
0.371178
0.436545
5.12875
4.88552
4.88198
4.68347
4.65819
4.641
4.69184
4.8314
4.8123
4.92466
4.90319
4.84017
4.81755
4.80659
4.72656
4.78699
4.85517
4.92515
5.08475
5.16843
4.49919
4.40379
4.3172
4.24485
4.2405
4.23855
4.25924
4.29939
4.28136
4.41239
4.42851
4.35617
4.34961
4.33784
4.28497
4.25991
4.34016
4.47689
4.56678
4.70575
3.93388
3.8326
3.74708
3.66362
3.67753
3.69891
3.64385
3.6872
3.73316
3.84706
3.82399
3.85455
3.81523
3.7718
3.7764
3.7614
3.8061
3.85843
4.02201
4.01529
3.24228
3.15661
3.13568
3.07345
3.03886
3.0949
3.09341
3.17037
3.07212
3.209
3.14506
3.16209
3.15597
3.1239
3.23329
3.09561
3.18354
3.21604
3.23806
3.38454
2.55711
2.53501
2.43024
2.42672
2.40676
2.42088
2.38438
2.47094
2.46615
2.48561
2.55979
2.49638
2.50906
2.49522
2.50178
2.58713
2.46434
2.5062
2.58008
2.64003
1.80962
1.76699
1.74632
1.76995
1.77654
1.76075
1.7682
1.81921
1.83613
1.80214
1.8613
1.84588
1.8055
1.78778
1.82716
1.84014
1.83202
1.86896
1.81435
1.97049
1.08033
1.09836
1.08791
1.08579
1.03394
1.07071
1.05463
1.02615
1.18168
1.11532
1.16521
1.13031
1.13298
1.0912
1.12175
1.07327
1.07724
1.11876
1.12109
1.13372
0.389875
0.400538
0.326399
0.362329
0.338757
0.320018
0.36949
0.386721
0.375121
0.41906
0.354263
0.415694
0.403748
0.328882
0.331047
0.372175
0.335953
0.403349
0.428316
0.284909
4.42922
4.28276
4.07643
3.95769
3.90027
3.84148
3.89352
3.87968
3.94767
3.88616
3.87264
3.97463
3.92536
3.89946
3.9542
3.93462
4.12004
4.14733
4.37231
4.56338
3.95144
3.81162
3.67012
3.59837
3.45599
3.50991
3.55722
3.53086
3.61238
3.60284
3.68392
3.62098
3.53943
3.54395
3.57015
3.54383
3.69874
3.76697
4.00296
4.13206
3.47346
3.38098
3.20945
3.11768
3.04938
3.07686
3.16236
3.14838
3.09933
3.1606
3.21206
3.13292
3.10146
3.17235
3.15036
3.1793
3.24784
3.32983
3.36893
3.48839
2.81434
2.8045
2.69602
2.65439
2.61634
2.46773
2.62779
2.62203
2.63695
2.70169
2.6853
2.65059
2.65829
2.64301
2.61406
2.6742
2.64292
2.79695
2.8835
2.97136
2.27177
2.16694
2.14799
1.99101
2.02868
2.11025
2.08962
2.0667
2.18558
2.11709
2.11891
2.18532
2.15422
2.09563
2.09989
2.09918
2.17038
2.23246
2.234
2.30879
1.64704
1.60498
1.51213
1.4898
1.44821
1.52089
1.49906
1.53992
1.55533
1.4942
1.5778
1.5119
1.60355
1.55036
1.55995
1.56158
1.5506
1.52588
1.64021
1.66889
0.940847
0.907362
0.884963
0.886087
0.882451
0.866932
0.861855
0.955907
0.92083
0.874838
0.931357
0.923854
0.963333
0.94129
0.899722
0.915181
0.895232
0.987081
0.975808
1.03552
0.413936
0.388431
0.321315
0.250918
0.324034
0.309862
0.297514
0.265867
0.304468
0.325184
0.30883
0.325546
0.327296
0.374101
0.289611
0.269713
0.317271
0.343503
0.337697
0.358057
3.91826
3.66732
3.47229
3.16988
3.1867
3.12149
3.08553
3.06698
3.10998
3.06403
3.10957
3.06719
3.11055
3.11735
3.14558
3.17476
3.39693
3.54608
3.68853
3.96087
3.52075
3.36223
3.18449
2.92307
2.97348
2.84502
2.85695
2.88599
2.91979
2.85775
2.88389
2.87574
2.93142
2.92965
2.87312
3.01135
3.04511
3.15353
3.37938
3.55855
2.96595
2.90627
2.7693
2.64396
2.58486
2.49242
2.56273
2.53551
2.52848
2.55784
2.54559
2.59605
2.54641
2.51545
2.52835
2.6097
2.68389
2.83973
2.99795
3.11269
2.51266
2.35909
2.2914
2.23699
2.16266
2.12944
2.11449
2.14294
2.09994
2.1884
2.14761
2.17995
2.16153
2.12878
2.17866
2.19459
2.27965
2.37465
2.46874
2.56945
2.03319
1.90422
1.8405
1.7412
1.71626
1.73728
1.70469
1.73507
1.71333
1.76474
1.77316
1.70755
1.65048
1.74029
1.68497
1.74525
1.81399
1.87028
2.01045
2.0914
1.47514
1.41368
1.391
1.25656
1.29296
1.27512
1.19065
1.34412
1.24202
1.27687
1.33712
1.27599
1.26836
1.28006
1.28466
1.28672
1.3103
1.32965
1.4109
1.476
0.858903
0.902022
0.778478
0.792647
0.736768
0.745105
0.705009
0.725072
0.711247
0.832156
0.824599
0.775683
0.769123
0.752459
0.787447
0.727542
0.80043
0.879786
0.798885
0.832277
0.269596
0.302933
0.288036
0.245765
0.259554
0.243795
0.251264
0.205006
0.241073
0.288964
0.213245
0.233995
0.24972
0.245027
0.23786
0.184481
0.275142
0.23054
0.28495
0.274271
3.42332
3.16066
2.91289
2.69732
2.58423
2.4838
2.41843
2.34838
2.40711
2.40144
2.4523
2.44465
2.42254
2.42379
2.4999
2.6027
2.72689
2.9438
3.22333
3.44328
3.07546
2.92352
2.67153
2.5244
2.4134
2.32659
2.25786
2.25388
2.29289
2.26759
2.24494
2.29239
2.25753
2.34016
2.34161
2.38985
2.60546
2.7328
3.01451
3.17567
2.74902
2.6017
2.39141
2.2959
2.13325
2.07648
2.07546
2.06212
2.035
2.06397
2.05764
2.05402
2.11057
2.09458
2.09899
2.15843
2.25523
2.41471
2.61048
2.71265
2.25216
2.07208
1.95502
1.91484
1.81974
1.75934
1.75797
1.74777
1.74357
1.77772
1.68424
1.82144
1.70394
1.7655
1.77067
1.85563
1.87585
2.01167
2.22822
2.27251
1.79817
1.67735
1.53507
1.54291
1.44971
1.50422
1.40342
1.34249
1.35318
1.38053
1.41203
1.4329
1.37767
1.4084
1.38646
1.44016
1.55402
1.61344
1.78197
1.83929
1.30291
1.13549
1.10636
1.05703
1.08628
1.07094
1.03928
1.01925
0.982868
0.98498
1.01373
1.00953
1.01065
1.01244
0.986781
1.04169
1.14682
1.15576
1.25143
1.28713
0.805189
0.806014
0.684734
0.69022
0.658089
0.590807
0.59791
0.588591
0.689646
0.620655
0.517473
0.611728
0.595479
0.598077
0.716023
0.622579
0.666587
0.792053
0.705224
0.74847
0.250215
0.255765
0.271909
0.204184
0.185146
0.225472
0.164985
0.150301
0.253568
0.185954
0.226331
0.190443
0.251124
0.240187
0.180049
0.220697
0.253622
0.273479
0.251171
0.294919
3.11287
2.84897
2.53407
2.27357
2.12438
2.05696
1.93881
1.86894
1.83483
1.87249
1.78753
1.83442
1.81623
1.96408
1.93475
2.09427
2.26167
2.53349
2.79567
3.07852
2.80075
2.58105
2.30592
2.13999
1.96155
1.86674
1.76506
1.78131
1.79504
1.79273
1.72361
1.78902
1.79559
1.7816
1.85219
1.9481
2.14744
2.28977
2.51522
2.77083
2.45226
2.24917
2.04709
1.89972
1.77951
1.74109
1.66401
1.59434
1.60608
1.61048
1.56773
1.6876
1.60621
1.67255
1.72731
1.77351
1.91179
2.03066
2.22056
2.44967
2.07313
1.92203
1.72835
1.59047
1.44786
1.45233
1.45475
1.4227
1.4165
1.41046
1.39092
1.41276
1.45773
1.40324
1.42353
1.57051
1.60957
1.76566
1.88723
2.06381
1.63865
1.46184
1.40368
1.36704
1.21401
1.22735
1.2052
1.09579
1.1264
1.1512
1.14911
1.16282
1.16588
1.13765
1.1823
1.22125
1.29125
1.39411
1.52417
1.65898
1.12562
1.09195
0.943816
0.954111
0.892322
0.852985
0.848413
0.767532
0.841792
0.864639
0.826823
0.797936
0.834267
0.823793
0.916748
0.943607
0.86577
0.989348
1.08953
1.24531
0.732203
0.672142
0.606917
0.558473
0.572164
0.506955
0.527687
0.520116
0.491048
0.439395
0.493437
0.485595
0.533665
0.514915
0.466172
0.552978
0.565713
0.620811
0.614068
0.736233
0.199119
0.256053
0.194093
0.185466
0.205937
0.226132
0.12079
0.224371
0.212125
0.177396
0.192004
0.109244
0.176476
0.217029
0.21663
0.164908
0.148835
0.134733
0.195863
0.21637
2.9368
2.66555
2.25822
1.94189
1.71229
1.5449
1.57197
1.50286
1.36448
1.36572
1.33969
1.43312
1.39055
1.52724
1.59937
1.69652
1.92259
2.24747
2.54368
2.82233
2.69795
2.40165
2.13542
1.90213
1.66383
1.57997
1.44422
1.44999
1.31481
1.35212
1.3656
1.38465
1.4283
1.39903
1.51231
1.65316
1.81427
2.08351
2.35891
2.55724
2.27927
2.08987
1.81432
1.6527
1.47533
1.4427
1.34482
1.26166
1.32139
1.34973
1.30406
1.20783
1.38252
1.36579
1.43896
1.54066
1.74358
1.88724
2.07426
2.29234
1.88745
1.78339
1.53678
1.50663
1.3108
1.24997
1.21122
1.11454
1.1673
1.14483
1.07959
1.1233
1.15577
1.17295
1.28163
1.35821
1.49083
1.5499
1.69444
1.94169
1.57051
1.3716
1.30817
1.18799
1.10504
1.01041
0.951799
0.950828
0.917529
0.95942
0.928332
0.978728
0.860432
0.91118
1.00164
1.09018
1.14127
1.22912
1.44072
1.55591
1.15998
1.02608
0.951194
0.820409
0.75764
0.685678
0.702184
0.727985
0.674624
0.644018
0.736117
0.638276
0.71136
0.728737
0.74748
0.802976
0.811413
0.916246
1.05867
1.08557
0.622038
0.60021
0.50845
0.482896
0.508956
0.488709
0.416451
0.408861
0.343105
0.379289
0.376684
0.420143
0.364453
0.476279
0.448775
0.556878
0.500254
0.535911
0.630504
0.692151
0.213108
0.236542
0.234711
0.167917
0.226207
0.159347
0.172091
0.132849
0.165987
0.134867
0.0520773
0.179011
0.129712
0.137239
0.151641
0.189161
0.209854
0.146271
0.21638
0.330951
2.81611
2.48497
2.1656
1.79707
1.5909
1.31784
1.23442
1.22828
1.03252
1.01273
1.02509
1.05106
1.12539
1.18785
1.27224
1.38573
1.77822
2.02472
2.32078
2.75494
2.57112
2.32451
1.92704
1.76816
1.40091
1.35123
1.27245
1.19287
1.10094
1.05099
1.05603
1.0881
1.18833
1.22094
1.29215
1.46101
1.63334
1.8665
2.20137
2.51401
2.25941
2.03825
1.77165
1.53865
1.36089
1.22673
1.23687
1.06429
1.07394
1.02153
0.987467
1.08433
1.07894
1.09732
1.22217
1.32612
1.52767
1.70473
1.94174
2.19052
1.94984
1.72177
1.56952
1.29281
1.23058
1.05475
0.969584
0.994734
0.968336
0.871368
0.941174
0.923117
0.967057
1.00409
1.06502
1.23743
1.35133
1.48272
1.68057
1.83485
1.54497
1.38396
1.25151
1.05829
0.940703
0.97173
0.850433
0.772826
0.712784
0.766999
0.758128
0.801566
0.755456
0.805065
0.932399
0.942746
1.10735
1.23087
1.37073
1.50872
1.07591
0.923678
0.912763
0.783357
0.696822
0.669223
0.653221
0.621428
0.504738
0.569304
0.559814
0.54034
0.62223
0.651099
0.642949
0.619897
0.746799
0.770485
0.971393
1.15136
0.661725
0.65299
0.570942
0.445339
0.412331
0.417468
0.37283
0.365176
0.378558
0.33155
0.375053
0.365404
0.387869
0.364429
0.377804
0.418359
0.436681
0.567931
0.540179
0.613698
0.252966
0.214225
0.194163
0.111087
0.140913
0.129349
0.0968411
0.112175
0.111068
0.103601
0.171874
0.107741
0.125036
0.179998
0.155028
0.211084
0.161328
0.189321
0.121218
0.214818
2.95489
2.58778
2.16511
1.81609
1.54831
1.3312
1.14385
0.967785
0.88006
0.907488
0.84995
0.839194
0.880281
1.03321
1.18127
1.37566
1.65946
1.98577
2.3806
2.7207
2.69668
2.2938
1.98257
1.79027
1.44543
1.34918
1.09892
1.06238
0.943113
0.92886
0.93721
0.9075
0.981783
1.06292
1.16429
1.39412
1.62272
1.82991
2.21982
2.566
2.31927
2.12114
1.78841
1.50761
1.35917
1.14974
1.06781
0.979599
0.96754
0.850147
0.889248
0.972499
0.954062
1.00464
1.10574
1.24468
1.43343
1.62888
2.00807
2.20535
1.94347
1.69826
1.51175
1.35905
1.18616
1.00505
0.947828
0.853498
0.876367
0.824128
0.782824
0.736866
0.894754
0.903809
0.994229
1.07627
1.17951
1.48132
1.63491
1.85616
1.59419
1.3898
1.22524
0.995135
0.88078
0.87171
0.755663
0.724412
0.732
0.648256
0.669741
0.716433
0.663939
0.77849
0.790344
0.905645
0.996234
1.16205
1.38545
1.53198
1.1358
0.978674
0.814705
0.756149
0.706966
0.678674
0.575287
0.54627
0.541464
0.554858
0.460426
0.497553
0.50258
0.456602
0.668249
0.644978
0.767431
0.91821
0.968909
1.08001
0.7102
0.614613
0.516568
0.48979
0.410305
0.298061
0.301377
0.348076
0.280465
0.349044
0.331197
0.37709
0.294994
0.30678
0.393334
0.365689
0.421615
0.520628
0.604809
0.690054
0.231724
0.173505
0.245538
0.133326
0.119603
0.138154
0.0992125
0.143661
0.0871344
0.108776
0.0489097
0.119511
0.0618319
0.182695
0.116816
0.154958
0.150149
0.187968
0.212383
0.248762
3.16301
2.72786
2.31945
1.95651
1.59398
1.33347
1.12364
0.95553
0.960444
0.788622
0.819639
0.940048
0.954297
1.12732
1.23407
1.43258
1.75031
2.21858
2.56934
2.98205
2.93437
2.54278
2.14174
1.80169
1.50279
1.33906
1.18022
1.00374
0.930036
0.886476
0.969848
0.901214
0.974366
1.1026
1.26185
1.46754
1.67737
1.96297
2.38026
2.64092
2.45845
2.23645
1.83365
1.59974
1.3974
1.21738
1.08236
1.01896
0.897234
0.905641
0.866198
0.836141
0.899587
1.04586
1.20326
1.34693
1.50633
1.83792
2.12944
2.34341
2.11838
1.84123
1.56295
1.48285
1.19584
1.07999
0.992224
0.926957
0.787837
0.808594
0.783389
0.721941
0.785777
0.919576
0.958599
1.24402
1.23744
1.45937
1.74724
1.95249
1.58545
1.46553
1.3396
1.12117
0.989466
0.872987
0.813453
0.725553
0.634854
0.642109
0.692358
0.625803
0.638923
0.710945
0.844553
0.941703
1.01275
1.14009
1.39596
1.55632
1.15099
1.04968
0.939549
0.764818
0.674273
0.654451
0.567135
0.558922
0.478484
0.487339
0.442088
0.489405
0.495113
0.50803
0.624735
0.656843
0.829193
0.919859
0.967573
1.08787
0.625449
0.642892
0.53678
0.529105
0.434387
0.390821
0.318665
0.348312
0.381478
0.237282
0.270534
0.252552
0.256621
0.299101
0.379454
0.421987
0.487009
0.639058
0.648231
0.633006
0.310719
0.190028
0.189757
0.172013
0.136523
0.127713
0.101907
0.112369
0.108421
0.147984
0.0592069
0.109172
0.0653463
0.13364
0.163119
0.0790466
0.190372
0.168539
0.14753
0.220216
3.62918
3.11563
2.58552
2.2689
1.87301
1.58334
1.34897
1.20789
1.06823
0.90951
0.960994
0.983755
1.07397
1.23491
1.48137
1.69651
2.06225
2.42835
2.84744
3.37778
3.22584
2.9702
2.47928
2.07783
1.77522
1.50227
1.28295
1.15828
1.10794
1.04183
1.06243
1.08078
1.06732
1.1783
1.46047
1.61455
1.83878
2.23979
2.58789
2.95052
2.77443
2.45035
2.09268
1.85437
1.61789
1.42725
1.19509
1.08631
0.979707
0.899156
0.950201
0.981286
1.11639
1.11648
1.25083
1.49309
1.66027
2.00825
2.2866
2.53144
2.35346
2.00719
1.81824
1.56589
1.37074
1.14196
1.04649
0.982935
0.914646
0.830695
0.801975
0.839772
0.894685
0.946912
1.06546
1.20447
1.4214
1.64148
1.94885
2.13796
1.87071
1.63554
1.53745
1.2127
1.09929
0.871298
0.842279
0.785976
0.770731
0.718509
0.762727
0.669071
0.722611
0.78988
0.890689
1.00398
1.13059
1.38449
1.55276
1.69354
1.36548
1.1995
1.0519
0.883396
0.820004
0.70684
0.672574
0.536146
0.562718
0.485378
0.561722
0.535951
0.561087
0.540666
0.747833
0.743368
0.830042
1.01936
1.11714
1.25945
0.867399
0.686803
0.665813
0.54345
0.487109
0.452365
0.369217
0.292166
0.338802
0.258013
0.357142
0.365751
0.378383
0.365205
0.468445
0.454222
0.420553
0.567521
0.658119
0.771901
0.229433
0.193738
0.313507
0.166228
0.19012
0.152722
0.110388
0.0947867
0.114402
0.0302206
0.0580978
0.0437956
0.131433
0.0861684
0.146518
0.149668
0.143444
0.170826
0.200252
0.273588
4.18343
3.62537
3.17104
2.69366
2.26453
1.93182
1.6987
1.50527
1.3861
1.28015
1.32955
1.30625
1.34672
1.57342
1.81679
2.09569
2.43098
2.88327
3.39218
3.76921
3.7056
3.27553
2.84089
2.46428
2.1818
1.79548
1.66568
1.48968
1.39635
1.27814
1.29781
1.31662
1.38799
1.46639
1.71801
1.87643
2.3032
2.61761
3.0182
3.40985
3.241
2.85608
2.52158
2.16991
1.87617
1.67912
1.4872
1.352
1.2703
1.14979
1.18188
1.21216
1.25539
1.3295
1.58573
1.68563
1.98948
2.24712
2.53378
2.94136
2.62726
2.41892
2.10593
1.84116
1.60198
1.35531
1.3136
1.1242
1.02299
1.01441
1.10132
1.04138
1.13039
1.14897
1.33876
1.47395
1.67069
1.84455
2.12348
2.44012
2.09932
1.85331
1.61872
1.4726
1.30116
1.17029
0.96592
0.901437
0.891861
0.872839
0.935553
0.788467
0.861271
0.948808
1.04166
1.21457
1.28901
1.49108
1.73282
1.98135
1.42778
1.3392
1.20479
1.04862
0.90455
0.779673
0.757719
0.69016
0.663217
0.601376
0.609743
0.588257
0.636508
0.692437
0.774711
0.853881
0.97236
1.10105
1.22765
1.32592
0.909952
0.788046
0.754875
0.669631
0.525834
0.426494
0.440227
0.417783
0.372922
0.447985
0.381093
0.394125
0.42771
0.434102
0.521231
0.524561
0.607051
0.693389
0.763014
0.753937
0.310846
0.315483
0.2118
0.205554
0.208279
0.165619
0.116161
0.0942936
0.134323
0.189461
0.107295
0.162673
0.155364
0.235894
0.136446
0.160037
0.19645
0.20827
0.278453
0.2874
4.88346
4.3816
3.7947
3.36868
2.87034
2.56258
2.25494
2.08753
1.93379
1.85872
1.81925
1.81911
1.94911
2.10302
2.31423
2.60022
3.03159
3.45846
3.9711
4.48523
4.35679
3.86368
3.45213
2.99839
2.64432
2.38117
2.09253
1.86601
1.75665
1.70749
1.74893
1.69396
1.82586
1.98471
2.13831
2.47366
2.78142
3.03152
3.53684
3.98041
3.70499
3.29921
2.89802
2.5882
2.30507
1.99996
1.89743
1.67192
1.56556
1.59485
1.54717
1.56762
1.62552
1.74912
1.86507
2.17913
2.41153
2.72002
3.11613
3.49763
3.11767
2.74203
2.45536
2.16046
1.91372
1.73604
1.61641
1.44551
1.337
1.34181
1.35962
1.35952
1.38043
1.50941
1.57619
1.85416
1.98862
2.26393
2.52294
2.82717
2.42447
2.15646
1.92898
1.75667
1.49719
1.3777
1.28986
1.14087
1.13599
1.07273
1.07651
1.04332
1.06097
1.18511
1.28557
1.36832
1.64755
1.75937
1.98058
2.25434
1.70392
1.56021
1.37585
1.22234
1.07901
0.973018
0.931284
0.829247
0.79614
0.755058
0.719054
0.733688
0.838741
0.899931
0.926739
0.999854
1.07984
1.27211
1.44649
1.568
0.991106
1.00815
0.820788
0.792514
0.652503
0.642966
0.622609
0.472158
0.516023
0.43833
0.490799
0.468399
0.527527
0.485168
0.53516
0.651273
0.730232
0.825818
0.883004
0.965731
0.414608
0.358535
0.293975
0.251849
0.210663
0.159391
0.172939
0.171624
0.189705
0.162075
0.177824
0.147238
0.0841607
0.131712
0.195873
0.157813
0.157299
0.256176
0.199127
0.302398
5.75709
5.24635
4.58762
4.12165
3.62426
3.21825
2.95788
2.75501
2.57144
2.47246
2.44025
2.53164
2.63147
2.80053
3.02345
3.37759
3.76416
4.30106
4.86599
5.34485
5.09036
4.62768
4.17315
3.71738
3.26268
2.96244
2.68838
2.47167
2.33759
2.27267
2.20496
2.33544
2.36234
2.53523
2.78045
3.07836
3.40826
3.75795
4.3393
4.63574
4.30604
3.86047
3.54272
3.16842
2.85946
2.63385
2.37538
2.15734
2.15482
2.05821
1.99846
2.00254
2.13518
2.16917
2.39037
2.67494
2.93792
3.32022
3.66515
3.99737
3.54845
3.23229
2.81813
2.63336
2.36615
2.17558
1.99208
1.79662
1.72976
1.72734
1.71467
1.71044
1.72495
1.92765
2.04298
2.17467
2.46875
2.73079
2.9843
3.30775
2.76223
2.52871
2.31574
2.00305
1.90771
1.68176
1.54489
1.44218
1.4257
1.32219
1.32142
1.3654
1.40235
1.46525
1.63274
1.7995
1.94168
2.15186
2.3505
2.60448
1.97479
1.79753
1.61449
1.42781
1.35898
1.22612
1.15039
1.09226
1.027
1.00173
0.926188
0.895173
1.00388
1.08696
1.14091
1.27573
1.3516
1.51976
1.67496
1.91395
1.17779
1.12378
1.03208
0.823406
0.789685
0.720615
0.605821
0.587182
0.647016
0.566482
0.593532
0.609834
0.585236
0.684816
0.765107
0.72806
0.787509
0.909353
0.985454
1.08345
0.412967
0.299891
0.344856
0.281603
0.29527
0.233948
0.219082
0.218068
0.203406
0.169883
0.190252
0.17051
0.208589
0.196421
0.201573
0.20577
0.280579
0.334695
0.339727
0.376572
6.66967
6.24229
5.67917
5.04377
4.54003
4.2245
3.82525
3.61812
3.37533
3.34055
3.30242
3.36267
3.54113
3.63852
3.8578
4.30351
4.71193
5.19699
5.80178
6.34492
5.99617
5.52063
4.94694
4.48689
4.06907
3.69238
3.44967
3.22597
3.13017
3.04736
2.93986
3.00417
3.15246
3.28826
3.52919
3.79691
4.17061
4.633
5.13933
5.52744
4.97362
4.63995
4.20154
3.82689
3.40444
3.18537
2.96655
2.76549
2.64417
2.63559
2.61071
2.6775
2.66191
2.83197
2.99602
3.32234
3.6195
3.91613
4.35641
4.70527
4.10537
3.82288
3.45989
3.21289
2.86668
2.63446
2.41004
2.28006
2.18741
2.18037
2.13797
2.23453
2.22342
2.37876
2.53154
2.72347
2.90874
3.24953
3.60521
3.8174
3.21582
2.94544
2.73972
2.46956
2.27688
2.07125
1.97298
1.78992
1.76903
1.71904
1.71629
1.6974
1.77984
1.81587
1.97574
2.1359
2.32075
2.52955
2.77706
3.01378
2.33869
2.11414
2.01473
1.77043
1.61687
1.49043
1.42189
1.33413
1.26777
1.23236
1.23386
1.24218
1.24619
1.31036
1.39234
1.58043
1.67207
1.80812
2.04475
2.10525
1.33512
1.28459
1.13218
1.08677
0.967049
0.955199
0.913894
0.787965
0.785091
0.76408
0.712885
0.765557
0.759227
0.832302
0.84978
0.935603
1.00412
1.10461
1.18163
1.30671
0.48614
0.445579
0.39527
0.344539
0.266667
0.253861
0.334252
0.206476
0.299538
0.251952
0.248272
0.279465
0.351593
0.276967
0.269393
0.265956
0.33387
0.383238
0.402355
0.391535
7.98245
7.36583
6.7111
6.11402
5.68707
5.27216
4.79807
4.5856
4.45036
4.22643
4.2437
4.25644
4.4781
4.65224
4.95235
5.34893
5.78201
6.28008
6.92959
7.47604
6.93084
6.51064
5.87042
5.41181
4.98282
4.6271
4.29828
4.10095
3.9874
3.88232
3.76953
3.85995
4.03246
4.11762
4.4117
4.67428
5.08697
5.51528
6.01908
6.44038
5.85731
5.44908
4.99173
4.55069
4.29128
4.02095
3.69656
3.46689
3.36528
3.32344
3.25627
3.22996
3.43422
3.56334
3.75643
4.00786
4.28193
4.71899
5.18587
5.45233
4.8019
4.49828
4.16546
3.8117
3.50466
3.23292
2.99551
2.92485
2.73236
2.7004
2.69383
2.71301
2.88089
2.88935
3.10947
3.40448
3.54189
3.84697
4.21493
4.53022
3.70523
3.4792
3.17363
2.95855
2.72963
2.60431
2.31254
2.31853
2.19683
2.10168
2.13242
2.20551
2.18166
2.2888
2.48605
2.59534
2.74887
2.98621
3.3529
3.49267
2.61022
2.52057
2.34782
2.09315
1.9472
1.78412
1.72229
1.62938
1.58109
1.50002
1.51179
1.61847
1.59977
1.61583
1.79138
1.89046
1.97883
2.17453
2.32592
2.5152
1.56887
1.52968
1.38114
1.27286
1.1556
1.11196
1.07426
1.03955
0.961404
0.862818
0.905187
0.943829
0.897563
1.01326
1.07047
1.10225
1.23086
1.38432
1.36299
1.48715
0.46377
0.544596
0.412424
0.543015
0.391276
0.363482
0.349501
0.352883
0.293034
0.354908
0.326466
0.315814
0.324121
0.244846
0.378961
0.357944
0.419682
0.491937
0.484606
0.560058
9.20005
8.57687
7.87529
7.30927
6.66757
6.33413
5.94507
5.66765
5.52249
5.40414
5.33352
5.39556
5.50197
5.76854
5.96715
6.41059
6.86392
7.43054
8.05991
8.59891
7.96659
7.4518
6.85319
6.37678
5.84947
5.56119
5.20588
4.95648
4.67645
4.74698
4.64734
4.6526
4.79403
5.01624
5.27169
5.57751
5.98557
6.53668
7.02149
7.38594
6.69309
6.3495
5.81638
5.3717
5.06069
4.66589
4.40381
4.27252
4.13055
3.9705
3.96852
3.9712
4.14349
4.24464
4.5178
4.83979
5.07043
5.47254
5.96851
6.25318
5.39879
5.17456
4.74652
4.4188
4.05815
3.87844
3.64364
3.47295
3.29821
3.25739
3.23022
3.33028
3.4223
3.48624
3.63926
3.95467
4.18772
4.50186
4.8895
5.09147
4.14564
3.9216
3.65864
3.42864
3.19729
2.97425
2.82749
2.72264
2.59651
2.60611
2.52038
2.62804
2.63871
2.72034
2.84363
2.99341
3.22546
3.49123
3.74446
4.00037
2.99647
2.80564
2.62447
2.38227
2.31991
2.18194
2.01947
1.97585
1.88702
1.86775
1.82326
1.89999
1.89322
2.02998
2.02731
2.1335
2.3081
2.49483
2.68363
2.83788
1.78985
1.71261
1.54832
1.46405
1.37249
1.27953
1.19496
1.12959
1.11509
1.09195
1.10207
1.02954
1.15318
1.1436
1.25812
1.33327
1.33019
1.48914
1.60764
1.63758
0.614496
0.537506
0.602423
0.432757
0.461412
0.463335
0.465931
0.373189
0.405169
0.329769
0.390816
0.342708
0.375167
0.327127
0.383529
0.402772
0.491915
0.514712
0.455311
0.549619
10.1917
9.57416
8.90006
8.32586
7.7733
7.14742
6.91856
6.55864
6.38288
6.26845
6.25521
6.29321
6.43111
6.65793
6.94059
7.33987
7.75567
8.42026
9.04217
9.61497
8.77638
8.24029
7.68544
7.15789
6.65083
6.2742
5.92024
5.70519
5.51916
5.43077
5.43087
5.42364
5.54715
5.71346
6.09064
6.29151
6.76073
7.24402
7.74173
8.28542
7.31334
6.98266
6.40968
5.97298
5.58922
5.29642
4.95912
4.85102
4.66271
4.6046
4.53979
4.62242
4.7253
4.78997
5.08461
5.34518
5.68283
6.11021
6.46928
6.94403
5.95748
5.61012
5.21572
4.80563
4.59248
4.34146
4.10569
3.91562
3.82858
3.72733
3.69308
3.73922
3.77521
3.91545
4.13396
4.32023
4.63381
5.01423
5.32014
5.65885
4.52693
4.3096
4.04573
3.80754
3.4921
3.31895
3.13636
3.00601
2.96907
2.81382
2.94405
2.92734
3.0079
3.0722
3.19391
3.3307
3.57374
3.86291
4.12176
4.3845
3.21677
3.03991
2.90068
2.80458
2.53566
2.33194
2.2511
2.1827
2.16248
2.02828
2.02497
2.00988
2.12068
2.07608
2.21053
2.40835
2.51258
2.68786
2.93282
3.12114
1.89748
1.85281
1.70004
1.65153
1.44937
1.39977
1.39571
1.26689
1.32129
1.21961
1.17006
1.29272
1.24264
1.27631
1.37952
1.4177
1.44859
1.62265
1.77374
1.77953
0.671631
0.567806
0.530277
0.538895
0.521679
0.456711
0.474957
0.35151
0.418554
0.479822
0.408854
0.383022
0.35523
0.422531
0.424207
0.477441
0.518647
0.556408
0.60536
0.580057
)
;

boundaryField
{
    hotSide
    {
        type            calculated;
        value           nonuniform List<scalar> 
400
(
6.949
6.41483
5.65142
4.89256
4.18854
3.67196
3.17029
2.85198
2.66694
2.53615
2.66372
2.85952
3.31225
3.85195
4.53631
5.39316
6.28786
7.58162
8.77911
9.74949
6.85487
6.25466
5.49826
4.64959
4.04233
3.42126
2.90786
2.58831
2.39591
2.20521
2.29681
2.42455
2.79887
3.29404
4.03459
4.88255
5.86059
6.96511
8.15602
9.13208
6.8113
6.19121
5.38964
4.64634
3.83629
3.2265
2.66035
2.27365
1.9888
1.88606
1.87433
2.01632
2.26893
2.83986
3.44784
4.22395
5.29758
6.3105
7.45455
8.45808
6.84772
6.15666
5.28685
4.44814
3.71784
2.92438
2.44505
2.0134
1.6727
1.51775
1.52551
1.65356
1.95247
2.36264
3.02196
3.75811
4.66231
5.71352
6.88862
7.88397
6.85808
6.22018
5.32333
4.42317
3.66071
2.94148
2.33222
1.86446
1.44333
1.31179
1.25793
1.29121
1.55674
1.93367
2.52375
3.26084
4.15868
5.28668
6.24702
7.33149
7.02208
6.23113
5.32574
4.40629
3.60222
2.87655
2.23205
1.79728
1.27617
1.03893
1.04101
1.03088
1.26724
1.60109
2.21612
2.85495
3.84325
4.87185
5.91366
6.70568
7.06752
6.29863
5.39566
4.4574
3.65452
2.84084
2.16692
1.67935
1.30345
0.955704
0.853826
0.821201
1.03301
1.3681
1.90859
2.59468
3.44409
4.39785
5.52467
6.47689
7.10574
6.27642
5.48073
4.5972
3.64092
2.82251
2.09707
1.60967
1.2345
0.949716
0.677903
0.653218
0.892033
1.17477
1.74127
2.39189
3.23703
4.18543
5.24731
6.11701
7.25561
6.44717
5.54372
4.57827
3.70907
2.86566
2.15594
1.57569
1.09624
0.754067
0.590279
0.658223
0.752461
1.05567
1.58759
2.20837
2.99429
4.05024
5.10219
5.94129
7.25261
6.57316
5.60508
4.69073
3.64764
2.81979
2.15036
1.61341
1.09755
0.734336
0.617757
0.486442
0.59378
0.949759
1.51255
2.10943
2.95953
3.82634
4.98386
5.82687
7.26087
6.52651
5.60316
4.66926
3.63413
2.86533
2.20121
1.52846
1.07152
0.746695
0.56022
0.517459
0.645263
0.999159
1.47309
2.07722
2.92141
3.84361
4.91324
5.81364
7.21962
6.47104
5.52769
4.60615
3.73603
2.82287
2.19348
1.57528
1.16488
0.772604
0.549413
0.637827
0.667983
0.975819
1.47292
2.16857
2.98163
3.85632
4.97526
5.85162
7.22679
6.50419
5.56287
4.58335
3.68659
2.86608
2.17123
1.55696
1.12219
0.846832
0.590399
0.651984
0.758117
1.01622
1.60285
2.26836
3.16004
4.07794
5.08163
5.98948
7.17287
6.42409
5.46412
4.57215
3.66046
2.87267
2.17228
1.70462
1.25871
0.909136
0.743186
0.824883
0.918948
1.24282
1.75667
2.43733
3.25736
4.25201
5.34814
6.21626
7.10305
6.34271
5.45412
4.49184
3.71494
2.90064
2.24815
1.67507
1.33064
0.99334
0.891088
0.931482
1.16527
1.48606
1.96777
2.66015
3.47655
4.55205
5.54667
6.49886
7.00821
6.29887
5.43576
4.55197
3.69506
2.92954
2.3507
1.83435
1.42757
1.10662
1.08529
1.12982
1.38025
1.76482
2.25364
3.01418
3.92216
4.94853
5.99004
6.89805
7.07406
6.30121
5.52422
4.61984
3.88019
3.15143
2.47462
2.0015
1.6534
1.4989
1.36888
1.44737
1.74583
2.09996
2.68487
3.40061
4.33046
5.38152
6.44328
7.31377
7.03199
6.39172
5.5448
4.68952