/*--------------------------------*- C++ -*----------------------------------*\
| =========                 |                                                 |
| \\      /  F ield         | OpenFOAM: The Open Source CFD Toolbox           |
|  \\    /   O peration     | Version:  2212                                  |
|   \\  /    A nd           | Website:  www.openfoam.com                      |
|    \\/     M anipulation  |                                                 |
\*---------------------------------------------------------------------------*/
FoamFile
{
    version     2.0;
    format      ascii;
    arch        "LSB;label=32;scalar=64";
    class       volScalarField;
    location    "0";
    object      relativeErrorField;
}
// * * * * * * * * * * * * * * * * * * * * * * * * * * * * * * * * * * * * * //

dimensions      [0 0 0 1 0 0 0];

internalField   nonuniform List<scalar> 
3200
(
0.0220803
0.0217784
0.0216288
0.0217237
0.021738
0.0222235
0.0223465
0.0224498
0.0228983
0.0228838
0.022909
0.0227882
0.0228204
0.0226692
0.0224717
0.0221985
0.0224186
0.0223068
0.0224408
0.0230839
0.0195471
0.019321
0.0192812
0.0194245
0.0192324
0.0193843
0.0198806
0.0198762
0.0202927
0.0205073
0.0202496
0.0203187
0.0203114
0.0201504
0.0198462
0.019784
0.0199117
0.0198876
0.0199075
0.020161
0.0168018
0.0167066
0.0166911
0.0166974
0.0168829
0.017079
0.0171622
0.0175293
0.0175533
0.0177671
0.0178062
0.0178062
0.0175005
0.017359
0.0173679
0.0172703
0.0172187
0.0171214
0.0172238
0.0172846
0.0142017
0.0139534
0.0138808
0.0137225
0.0139228
0.0141406
0.0141759
0.0145231
0.014774
0.0148443
0.0149453
0.0149113
0.0146601
0.0145377
0.0143535
0.0143433
0.0142659
0.0143158
0.0144863
0.0144825
0.010976
0.0107756
0.0109724
0.011026
0.0109458
0.0111574
0.0114269
0.0115879
0.0117212
0.0117369
0.0117884
0.0116276
0.0116495
0.0114236
0.011352
0.0114179
0.0112561
0.0110837
0.0112645
0.0115779
0.0080852
0.0080689
0.00790844
0.0079969
0.0081857
0.00777489
0.00831451
0.00832599
0.00835249
0.00848307
0.00841491
0.00834967
0.00826589
0.00816746
0.00832315
0.00822352
0.00807963
0.00827109
0.00853464
0.00826539
0.00456611
0.0047872
0.0048164
0.00472219
0.00490813
0.00496689
0.00525161
0.00511867
0.00510679
0.00504528
0.00518625
0.00512086
0.0051252
0.0052974
0.00508172
0.00499719
0.00489998
0.00501774
0.0051007
0.00483705
0.00148504
0.00179085
0.00170078
0.00148245
0.00178959
0.00166532
0.00172815
0.00147357
0.00159927
0.00153117
0.00180527
0.00174034
0.00160086
0.00185054
0.00206558
0.0016011
0.00181615
0.00163435
0.00173414
0.00155047
0.0204344
0.0199305
0.0197213
0.0195999
0.019779
0.0197969
0.0199893
0.0199091
0.0204226
0.0208032
0.0206605
0.0204957
0.0206063
0.0203735
0.0201389
0.0200203
0.0200435
0.0203371
0.0206396
0.0211112
0.0180021
0.0176397
0.0177611
0.0175725
0.017453
0.0177424
0.0178217
0.0181726
0.0185282
0.0185672
0.0188421
0.01853
0.0184208
0.0181902
0.0181696
0.0181606
0.0179604
0.0182645
0.018397
0.0185323
0.0159851
0.0155473
0.0153323
0.0152323
0.0152679
0.015301
0.0156715
0.015879
0.0159951
0.0161791
0.0161956
0.0162748
0.0160418
0.0159392
0.0159215
0.0157849
0.0157043
0.0157258
0.0159933
0.0160805
0.0130366
0.0129835
0.0127731
0.0127925
0.0127942
0.0130517
0.0131602
0.0132204
0.0134062
0.0135296
0.0135634
0.0133869
0.0133899
0.013198
0.0132907
0.0130593
0.0129723
0.0133285
0.0132839
0.0135066
0.0102546
0.010134
0.00999498
0.0100819
0.0101654
0.0105451
0.0105603
0.0105103
0.0106436
0.0106214
0.01082
0.0107572
0.0104879
0.0106416
0.0104023
0.0102614
0.0106283
0.0106597
0.0106365
0.0109362
0.00768798
0.00728695
0.00745828
0.00724962
0.00733582
0.00734422
0.00760535
0.00770137
0.0078201
0.00811171
0.007922
0.00787163
0.00778777
0.00792322
0.00758808
0.00751086
0.00772619
0.0076624
0.007483
0.00781038
0.00468845
0.00458569
0.00439254
0.00439256
0.00445412
0.0045829
0.00476263
0.00467324
0.00467807
0.00493443
0.00488224
0.00479128
0.00454032
0.00448089
0.00453363
0.0046619
0.00467094
0.00463455
0.00446116
0.00475738
0.001539
0.00180832
0.00150864
0.00144738
0.00124462
0.00162937
0.00174114
0.00173528
0.00152045
0.00165713
0.0016382
0.00167394
0.00160329
0.00173641
0.00156834
0.00150423
0.00131973
0.0017238
0.00184126
0.00178504
0.0180825
0.0176019
0.017256
0.0169274
0.0170257
0.0170199
0.0172217
0.0174716
0.0176565
0.01784
0.0178342
0.0176075
0.0177228
0.0174312
0.0174131
0.0173703
0.0176554
0.0177322
0.01786
0.0183799
0.0160157
0.01586
0.0153903
0.0151624
0.0153309
0.0154259
0.0154269
0.015839
0.0162246
0.0160972
0.0161348
0.0160657
0.016089
0.0156881
0.0156689
0.0156857
0.0157528
0.0158386
0.016148
0.0165112
0.0138318
0.0136665
0.0135603
0.0135805
0.0131817
0.0136837
0.0137597
0.0137596
0.0139098
0.013967
0.0140039
0.0138882
0.0140534
0.0140021
0.0135747
0.0138305
0.0137607
0.0138339
0.0140793
0.0146219
0.0115988
0.0115059
0.0112337
0.0113367
0.0113061
0.0113177
0.0113248
0.0116806
0.0117703
0.0117828
0.0118682
0.0117601
0.01172
0.0116332
0.0116592
0.0116192
0.011546
0.011594
0.0119778
0.0123182
0.00927599
0.00880679
0.00896787
0.00890475
0.0088592
0.00906475
0.0091813
0.00945618
0.00950648
0.00956222
0.00951655
0.00958136
0.00923641
0.00934624
0.00938384
0.00919892
0.00924635
0.00919603
0.00939038
0.00929841
0.00697294
0.00655854
0.0066708
0.00658261
0.0064362
0.00659726
0.00675155
0.00685019
0.00677003
0.0070176
0.00681189
0.00659971
0.00682888
0.00684562
0.00660985
0.00651403
0.006753
0.0068547
0.00685878
0.00688201
0.00386613
0.00393583
0.00391918
0.00422834
0.00400128
0.00392778
0.00389503
0.00401302
0.0042715
0.00430993
0.00421779
0.00391597
0.00401738
0.00426293
0.00408866
0.00423942
0.00425871
0.00426874
0.00394441
0.00436513
0.0013619
0.00137468
0.0013691
0.00123689
0.00133027
0.00159017
0.00137833
0.00147065
0.00159252
0.0012855
0.00138186
0.00148635
0.00159956
0.00137303
0.00118442
0.00138924
0.00149461
0.00140828
0.0012304
0.00144713
0.015746
0.0149917
0.0149712
0.0143525
0.0142648
0.0142023
0.0143487
0.0147675
0.0147034
0.0150436
0.014978
0.0147886
0.0147252
0.0146996
0.0144641
0.0146592
0.0148787
0.0151036
0.0156031
0.0158679
0.0139665
0.0136644
0.0133882
0.0131558
0.0131341
0.0131201
0.0131768
0.0132947
0.0132345
0.013637
0.0136869
0.0134657
0.01345
0.01342
0.0132638
0.0131943
0.0134512
0.0138835
0.0141701
0.0146077
0.0123462
0.012024
0.0117501
0.0114823
0.0115198
0.0115807
0.0114029
0.0115339
0.0116743
0.0120286
0.0119565
0.0120539
0.0119344
0.0118033
0.0118233
0.0117825
0.0119289
0.0120992
0.0126182
0.0126017
0.0102873
0.0100125
0.00994221
0.0097407
0.00962678
0.0098001
0.00979152
0.0100318
0.00971857
0.0101503
0.00994806
0.0100032
0.00998623
0.00988806
0.0102383
0.00980657
0.0100896
0.010197
0.0102708
0.0107386
0.00820217
0.0081294
0.00779103
0.00777711
0.00771045
0.00775306
0.00763379
0.00790887
0.00789205
0.00795356
0.00819092
0.00798881
0.00803089
0.00798868
0.00801215
0.00828833
0.00789768
0.00803454
0.00827395
0.00846816
0.00586816
0.00572895
0.00566069
0.00573587
0.0057558
0.00570324
0.00572608
0.00589018
0.00594415
0.00583369
0.0060252
0.00597573
0.0058458
0.00578949
0.00591835
0.00596186
0.00593702
0.0060582
0.00588252
0.00638982
0.00354177
0.00360052
0.0035658
0.00355831
0.0033879
0.00350785
0.0034547
0.00336103
0.00387011
0.00365262
0.003816
0.00370188
0.00371092
0.00357451
0.00367506
0.00351677
0.00353031
0.0036669
0.00367505
0.00371681
0.00129233
0.00132763
0.00108184
0.00120087
0.00112269
0.00106053
0.00122443
0.00128147
0.001243
0.00138858
0.00117387
0.00137745
0.0013379
0.00108986
0.00109708
0.00123344
0.00111345
0.00133689
0.00141971
0.000944399
0.0135814
0.0131258
0.0124857
0.0121139
0.0119299
0.0117423
0.0118941
0.0118458
0.0120489
0.0118588
0.0118176
0.0121312
0.0119852
0.0119122
0.0120868
0.012035
0.0126108
0.0127029
0.0134003
0.0139927
0.0122528
0.0118143
0.0113695
0.0111407
0.0106935
0.0108539
0.0109944
0.0109081
0.0111563
0.0111249
0.0113753
0.0111829
0.0109345
0.0109534
0.0110402
0.0109653
0.0114515
0.0116696
0.0124074
0.0128129
0.0108911
0.0105974
0.0100551
0.00976269
0.00954394
0.00962513
0.0098881
0.00984059
0.00968461
0.00987463
0.0100354
0.0097896
0.00969393
0.00991932
0.00985506
0.00995055
0.0101703
0.0104323
0.0105597
0.0109379
0.00892268
0.00888896
0.00854186
0.0084065
0.00828246
0.00780876
0.00831213
0.00829128
0.00833657
0.00854021
0.00848839
0.00837969
0.00840596
0.00836027
0.00827181
0.00846565
0.00837015
0.00886164
0.00913936
0.00942051
0.00728258
0.00694497
0.00688221
0.00637715
0.00649564
0.00675463
0.0066866
0.00661163
0.00699069
0.00677097
0.00677678
0.00698986
0.00689161
0.00670584
0.00672144
0.00672138
0.00695168
0.00715283
0.00715992
0.00740125
0.00533865
0.00520152
0.00489951
0.00482603
0.00469017
0.0049244
0.00485269
0.00498405
0.00503329
0.00483514
0.00510565
0.00489272
0.00519
0.00501874
0.00505088
0.00505734
0.00502298
0.00494407
0.00531568
0.00540949
0.0030837
0.00297366
0.00289987
0.00290315
0.00289081
0.00283957
0.00282257
0.00313025
0.00301515
0.00286443
0.00304949
0.00302505
0.00315457
0.00308272
0.00294697
0.00299803
0.00293311
0.0032345
0.00319797
0.003394
0.00137197
0.00128739
0.0010649
0.000831551
0.00107381
0.0010268
0.000985831
0.000880936
0.00100881
0.00107743
0.00102325
0.00107865
0.00108447
0.00123961
0.00095969
0.000893793
0.00105145
0.00113844
0.00111924
0.00118676
0.0119958
0.0112222
0.0106191
0.00968805
0.00973308
0.00952791
0.0094127
0.0093516
0.00947943
0.00933766
0.00947643
0.009349
0.00948446
0.00950978
0.00960142
0.00969663
0.010382
0.0108448
0.0112871
0.0121262
0.0109024
0.0104073
0.00985206
0.00903823
0.00918883
0.00878701
0.00881937
0.00890525
0.00900681
0.00881403
0.00889465
0.00887091
0.00904543
0.00904381
0.00887379
0.00930587
0.00941559
0.00975627
0.0104604
0.0110195
0.00928903
0.00909907
0.00866637
0.00827017
0.00808136
0.00778865
0.00800494
0.00791703
0.00789302
0.00798359
0.00794536
0.00810398
0.00795107
0.00785724
0.00790095
0.00815903
0.00839507
0.0088868
0.00938611
0.00974859
0.00795866
0.00747017
0.0072532
0.00707813
0.00684021
0.00673248
0.00668284
0.00677073
0.00663342
0.00691211
0.00678326
0.00688618
0.00682945
0.006728
0.00688811
0.00694118
0.00721313
0.00751672
0.0078174
0.00813852
0.00651291
0.00609849
0.00589274
0.00557304
0.00549147
0.00555703
0.00545125
0.00554711
0.00547668
0.00564052
0.00566743
0.0054582
0.00527666
0.00556511
0.00538971
0.00558426
0.00580602
0.00598809
0.0064387
0.00669937
0.00477889
0.0045791
0.0045047
0.0040684
0.0041853
0.00412664
0.00385248
0.0043483
0.00401753
0.00412997
0.00432485
0.00412741
0.00410321
0.00414177
0.00415749
0.00416509
0.00424241
0.004306
0.00457008
0.00478168
0.0028142
0.00295521
0.00255014
0.00259619
0.00241284
0.00243981
0.00230824
0.00237367
0.00232825
0.00272393
0.0026992
0.00253918
0.00251788
0.00246359
0.00257846
0.00238262
0.00262169
0.002882
0.00261731
0.00272696
0.000893467
0.00100391
0.000954507
0.00081439
0.000860039
0.000807785
0.000832498
0.000679211
0.000798688
0.00095734
0.000706481
0.000775236
0.000827353
0.000811833
0.00078812
0.000611284
0.000911738
0.000763974
0.000944319
0.00090896
0.0104607
0.00965381
0.00889198
0.00822893
0.00787909
0.00756838
0.0073652
0.00714868
0.00732506
0.00730658
0.00746129
0.00743928
0.00737442
0.00738153
0.00761744
0.00793541
0.00831914
0.00898635
0.00984524
0.0105217
0.00950795
0.00903474
0.0082519
0.0077933
0.00744662
0.00717503
0.00695977
0.00694478
0.00706295
0.006984
0.00691423
0.00706141
0.00695602
0.00721344
0.00722137
0.00737395
0.00804355
0.00844116
0.00931592
0.00981776
0.00859768
0.00813432
0.00747366
0.00717194
0.00666077
0.0064806
0.0064748
0.00643103
0.00634492
0.00643441
0.00641468
0.00640421
0.00658214
0.00653447
0.00655087
0.0067394
0.00704488
0.00754649
0.00816176
0.00848392
0.00712538
0.00655391
0.00618154
0.00605222
0.00574943
0.00555655
0.00555034
0.00551663
0.00550226
0.00560945
0.00531446
0.00574799
0.00537827
0.00557412
0.00559232
0.00586282
0.00592899
0.00636064
0.00704778
0.00718975
0.00575492
0.00536715
0.00491055
0.00493417
0.00463471
0.00480761
0.00448423
0.00428861
0.00432211
0.00440909
0.0045097
0.00457672
0.004401
0.00450016
0.00443123
0.0046042
0.0049697
0.00516123
0.00570192
0.00588653
0.00421822
0.00367564
0.00358066
0.00342028
0.00351415
0.00346381
0.00336075
0.00329547
0.00317747
0.00318411
0.00327707
0.00326365
0.00326765
0.00327396
0.0031916
0.00336991
0.00371079
0.00374053
0.00405094
0.00416712
0.00263718
0.00263965
0.0022422
0.00225987
0.00215438
0.00193388
0.0019569
0.00192621
0.00225677
0.00203093
0.0016933
0.00200179
0.00194876
0.00195745
0.00234374
0.00203814
0.00218249
0.00259362
0.00230957
0.00245141
0.000829125
0.000847491
0.000900947
0.000676517
0.000613411
0.000746985
0.000546571
0.000497909
0.000839984
0.000615996
0.000749748
0.000630873
0.000831909
0.000795702
0.000596499
0.000731195
0.000840319
0.00090615
0.000832268
0.000977257
0.00949118
0.00868288
0.00771901
0.00692156
0.00646365
0.00625504
0.0058928
0.00567809
0.00557278
0.00568626
0.00542828
0.00557155
0.00551795
0.0059696
0.0058834
0.00637203
0.00688531
0.00771725
0.00852042
0.00938644
0.0086421
0.00796129
0.00710933
0.00659445
0.00604155
0.00574673
0.00543132
0.00547935
0.00552013
0.00551226
0.00529973
0.00550162
0.00552327
0.00548223
0.00570193
0.00600012
0.0066174
0.00705953
0.00775825
0.00854977
0.00765708
0.00702081
0.00638745
0.00592509
0.00554777
0.00542574
0.00518358
0.00496501
0.00500046
0.00501355
0.00488047
0.00525427
0.00500195
0.0052102
0.00538278
0.00552906
0.00596272
0.00633619
0.00693148
0.00764901
0.0065502
0.00607127
0.00545769
0.00502051
0.00456872
0.00458125
0.00458745
0.00448525
0.00446485
0.00444538
0.0043838
0.00445309
0.00459567
0.00442502
0.00449042
0.00495574
0.00508081
0.00557552
0.00596136
0.00652074
0.00523887
0.00467272
0.00448564
0.00436736
0.00387737
0.00391889
0.00384725
0.00349726
0.00359445
0.0036733
0.00366662
0.00371066
0.00372096
0.00363161
0.00377506
0.00390048
0.00412522
0.00445506
0.00487195
0.00530388
0.00364148
0.00353206
0.00305234
0.00308501
0.00288464
0.00275694
0.00274167
0.00247994
0.00271959
0.00279325
0.00267108
0.00257791
0.00269557
0.00266211
0.00296303
0.00305043
0.00279937
0.00319959
0.00352423
0.00402868
0.00239704
0.00220023
0.00198649
0.00182771
0.00187228
0.00165871
0.00172635
0.00170143
0.00160624
0.00143723
0.001614
0.0015884
0.00174576
0.00168457
0.00152527
0.0018095
0.0018514
0.00203197
0.00201013
0.00241023
0.000659708
0.000848314
0.000643013
0.000614407
0.000682194
0.000749064
0.000400103
0.00074318
0.000702604
0.000587565
0.000635951
0.00036184
0.000584538
0.000718884
0.00071759
0.000546282
0.000493057
0.000446359
0.0006489
0.000716863
0.00893186
0.00810363
0.00686185
0.00589749
0.00519741
0.00468694
0.00476686
0.00455553
0.00413494
0.00413813
0.00405926
0.00434295
0.00421509
0.00463121
0.00485217
0.00514955
0.00583888
0.00682917
0.00773313
0.00858371
0.00830671
0.00739189
0.00656959
0.00584914
0.00511396
0.00485401
0.00443518
0.00445141
0.00403542
0.00414944
0.00419082
0.00424978
0.00438481
0.00429639
0.00464617
0.00508116
0.00557898
0.00640989
0.00726032
0.00787346
0.00710371
0.00651152
0.00565088
0.00514542
0.00459136
0.00448809
0.00418214
0.00392241
0.00410726
0.00419489
0.00405296
0.0037543
0.00429816
0.00424736
0.00447644
0.00479469
0.00542838
0.00587799
0.00646289
0.00714444
0.00595439
0.00562482
0.00484549
0.00474888
0.00413023
0.0039373
0.00381416
0.00350888
0.00367437
0.0036033
0.00339796
0.00353586
0.00363867
0.00369366
0.00403703
0.00427961
0.00469907
0.00488688
0.00534426
0.00612552
0.00501502
0.00437905
0.00417553
0.00379094
0.00352533
0.0032226
0.00303501
0.00303134
0.00292479
0.00305811
0.00295901
0.00311987
0.00274315
0.00290548
0.00319464
0.00347792
0.00364184
0.0039232
0.00459975
0.00496841
0.00374939
0.00331616
0.0030736
0.0026505
0.00244725
0.0022144
0.00226733
0.00235033
0.00217784
0.00207893
0.00237623
0.0020605
0.00229665
0.00235307
0.00241399
0.00259368
0.00262144
0.00296067
0.00342148
0.0035089
0.00203532
0.00196374
0.00166335
0.00157957
0.00166462
0.00159823
0.00136178
0.00133686
0.00112179
0.00124005
0.00123154
0.00137366
0.00119165
0.00155742
0.00146763
0.00182136
0.00163635
0.00175319
0.00206286
0.00226473
0.000705928
0.000783534
0.00077744
0.000556177
0.000749215
0.000527751
0.000569939
0.000439964
0.000549697
0.000446632
0.000172462
0.000592827
0.000429574
0.000454515
0.000502227
0.000626518
0.000695082
0.000484498
0.00071675
0.00109629
0.00854052
0.00753344
0.00656218
0.00544276
0.00481595
0.00398747
0.00373348
0.00371362
0.00312098
0.00306078
0.00309814
0.00317701
0.00340256
0.00359264
0.00384951
0.00419485
0.00538569
0.00613528
0.00703569
0.00835501
0.00789671
0.00713698
0.00591421
0.00542425
0.00429576
0.00414171
0.00389879
0.00365383
0.00337153
0.00321818
0.00323361
0.00333221
0.00363994
0.00374094
0.00396061
0.00448006
0.00501064
0.00572841
0.0067589
0.00772131
0.00702706
0.00633749
0.00550663
0.00478067
0.00422677
0.00380874
0.00383901
0.00330249
0.00333181
0.00316891
0.00306323
0.00336406
0.00334796
0.00340586
0.00379458
0.00411879
0.00474654
0.00529863
0.00603742
0.00681281
0.00614062
0.00542117
0.00494037
0.00406812
0.00387111
0.003317
0.00304838
0.00312678
0.00304333
0.00273835
0.00295772
0.00290121
0.00303978
0.00315686
0.0033493
0.00389264
0.00425227
0.00466714
0.00529145
0.0057785
0.00492678
0.0044126
0.00398937
0.00337265
0.00299719
0.00309533
0.00270839
0.00246081
0.00226935
0.00244181
0.00241357
0.00255202
0.00240551
0.00256391
0.00297005
0.0030037
0.00352901
0.00392358
0.00437041
0.0048112
0.00347429
0.00298233
0.0029466
0.00252841
0.00224871
0.00215929
0.00210734
0.00200452
0.00162798
0.00183614
0.00180553
0.00174281
0.00200711
0.00210049
0.00207451
0.00200046
0.00241041
0.0024873
0.00313639
0.00371791
0.00216389
0.00213518
0.0018667
0.00145589
0.00134784
0.00136449
0.00121848
0.00119337
0.00123704
0.0010834
0.00122555
0.00119406
0.00126753
0.00119102
0.00123485
0.00136754
0.00142758
0.00185686
0.0017663
0.00200684
0.000837795
0.000709471
0.000643007
0.000367872
0.000466625
0.000428317
0.000320663
0.000371428
0.000367754
0.000343027
0.000569084
0.000356739
0.000414011
0.000596013
0.00051335
0.000698993
0.000534247
0.00062697
0.00040145
0.000711453
0.00893322
0.00782064
0.00654042
0.00548359
0.00467293
0.00401594
0.00344942
0.00291755
0.0026525
0.00273485
0.00256145
0.00252933
0.00265376
0.00311577
0.00356365
0.00415186
0.00501065
0.00599866
0.00719452
0.00822523
0.00825966
0.00702357
0.00606829
0.0054775
0.00442066
0.00412473
0.0033585
0.00324593
0.00288097
0.00283714
0.00286264
0.00277218
0.00299968
0.00324849
0.0035595
0.00426373
0.00496485
0.00560101
0.00679703
0.00785941
0.00719642
0.00657999
0.00554603
0.00467361
0.00421203
0.00356185
0.00330708
0.00303317
0.00299532
0.00263167
0.00275271
0.00301068
0.0029541
0.00311143
0.00342554
0.00385721
0.00444368
0.00505131
0.00622921
0.00684294
0.00610882
0.00533697
0.00474954
0.00426859
0.00372452
0.00315498
0.00297465
0.00267808
0.00274946
0.00258538
0.0024558
0.0023118
0.00280753
0.0028365
0.00312102
0.00337945
0.00370469
0.00465395
0.00513788
0.00583436
0.00507611
0.0044246
0.00389987
0.00316676
0.00280222
0.00277278
0.0024032
0.00230346
0.00232733
0.00206095
0.00212926
0.00227783
0.00211117
0.0024758
0.00251397
0.00288133
0.00317026
0.00369875
0.00441074
0.00487803
0.00366367
0.00315649
0.00262725
0.00243802
0.00227907
0.00218753
0.00185404
0.00176032
0.0017447
0.00178778
0.00148352
0.00160321
0.00161953
0.00147154
0.00215393
0.00207924
0.0024744
0.00296103
0.003125
0.00348371
0.00232088
0.00200837
0.00168783
0.00160018
0.00134037
0.0009736
0.00098435
0.0011368
0.000915941
0.00113988
0.0010816
0.0012315
0.000963438
0.001002
0.00128481
0.00119462
0.00137745
0.0017011
0.00197634
0.00225505
0.00076727
0.000574486
0.000812968
0.000441421
0.000395974
0.000457378
0.000328446
0.000475582
0.000288451
0.000360089
0.00016191
0.000395631
0.000204692
0.000604817
0.000386735
0.000513027
0.000497123
0.000622355
0.000703213
0.000823687
0.00952932
0.00821567
0.00698282
0.0058877
0.00479475
0.00400956
0.00337745
0.00287134
0.00288552
0.00236906
0.00246224
0.00282425
0.00286763
0.00338851
0.00371069
0.00430927
0.00526721
0.00667916
0.00773824
0.00898412
0.00896058
0.00776265
0.00653605
0.00549626
0.00458277
0.00408207
0.00359677
0.00305816
0.00283311
0.00270017
0.00295412
0.00274531
0.00296867
0.0033602
0.00384669
0.0044753
0.00511701
0.0059905
0.0072665
0.0080645
0.00760871
0.00692001
0.00567198
0.00494687
0.00431982
0.0037622
0.00334408
0.00314751
0.00277109
0.00279683
0.00267502
0.0025824
0.00277878
0.0032313
0.00371859
0.0041638
0.00465801
0.00568518
0.0065889
0.00725266
0.00664452
0.00577411
0.00490022
0.00464786
0.00374728
0.00338343
0.00310779
0.00290285
0.00246688
0.00253171
0.00245279
0.00226054
0.00246074
0.00288025
0.00300313
0.00389827
0.00387865
0.00457547
0.00547937
0.00612419
0.0050399
0.004658
0.00425692
0.00356208
0.00314299
0.00277246
0.00258296
0.00230353
0.00201537
0.00203829
0.0021978
0.00198663
0.00202849
0.00225746
0.00268216
0.00299127
0.00321763
0.00362292
0.00443688
0.00494732
0.00370825
0.00338149
0.00302627
0.0024631
0.00217118
0.00210706
0.00182571
0.00179909
0.00154006
0.0015685
0.00142286
0.00157521
0.00159369
0.00163544
0.00201138
0.00211505
0.00267042
0.00296285
0.00311698
0.00350488
0.00204243
0.00209927
0.00175262
0.0017274
0.00141804
0.00127572
0.00104011
0.0011368
0.00124499
0.000774377
0.000882894
0.000824229
0.000837545
0.000976251
0.00123861
0.00137756
0.00158997
0.00208656
0.0021167
0.00206711
0.00102858
0.00062904
0.000628124
0.000569371
0.000451886
0.00042271
0.000337288
0.000371909
0.000358836
0.000489773
0.000195953
0.000361323
0.000216277
0.000442316
0.000539899
0.000261641
0.00063014
0.000557889
0.00048836
0.000728986
0.0108925
0.00934839
0.00775495
0.00680265
0.00561357
0.00474373
0.00404029
0.00361681
0.00319806
0.00272263
0.00287674
0.00294515
0.00321583
0.00369867
0.00443823
0.00508458
0.00618309
0.00728354
0.00854368
0.010138
0.0098183
0.00903789
0.00754165
0.00631835
0.00539636
0.00456523
0.00389766
0.00351812
0.00336469
0.00316367
0.00322623
0.00328222
0.00324185
0.00357975
0.0044382
0.00490796
0.00559145
0.00681314
0.00787458
0.00898032
0.00856261
0.00756077
0.00645535
0.00571857
0.00498789
0.004399
0.00368257
0.00334674
0.00301789
0.00276957
0.0029268
0.00302275
0.00343939
0.00344033
0.00385522
0.00460314
0.00512002
0.00619491
0.0070555
0.00781268
0.00736484
0.00628013
0.00568764
0.00489709
0.00428579
0.00356968
0.00327059
0.00307148
0.00285777
0.00259531
0.00250559
0.00262383
0.00279572
0.00295939
0.00333054
0.0037659
0.00444519
0.00513472
0.0060976
0.00669046
0.00593593
0.00518899
0.00487693
0.00384607
0.00348573
0.00276231
0.00266989
0.00249111
0.00244258
0.00227697
0.0024171
0.0021204
0.00229028
0.0025038
0.00282378
0.0031835
0.00358565
0.00439172
0.00492637
0.00537374
0.00439352
0.00385909
0.00338378
0.00284135
0.0026371
0.00227288
0.00216245
0.00172365
0.00180896
0.00156029
0.0018057
0.00172292
0.00180384
0.00173834
0.00240469
0.00239064
0.00266975
0.00327911
0.00359412
0.00405235
0.00283029
0.00224087
0.00217222
0.00177286
0.00158893
0.00147549
0.0012042
0.000952845
0.0011049
0.00084141
0.00116468
0.00119278
0.00123402
0.00119111
0.00152793
0.00148165
0.00137194
0.00185154
0.00214728
0.00251868
0.000759292
0.000641148
0.00103748
0.000550078
0.000629124
0.000505357
0.000365265
0.000313636
0.000378536
9.99937e-05
0.000192234
0.000144912
0.000434892
0.000285125
0.000484828
0.000495266
0.000474684
0.000565309
0.000662707
0.000905421
0.0125048
0.0108337
0.00947286
0.00804394
0.00676014
0.00576507
0.00506797
0.00448986
0.00413374
0.00381745
0.00396476
0.0038956
0.00401694
0.00469419
0.0054218
0.0062561
0.00725951
0.00861321
0.0101369
0.0112667
0.0112384
0.0099317
0.0086113
0.00746742
0.00660944
0.00543759
0.00504328
0.00450949
0.00422635
0.0038683
0.00392782
0.00398505
0.00420164
0.00443986
0.00520299
0.00568435
0.00697931
0.00793449
0.00915147
0.0103414
0.00997226
0.00878614
0.00775514
0.00667182
0.00576716
0.00516022
0.00456944
0.00415333
0.00390185
0.00353149
0.00363004
0.00372329
0.00385654
0.00408491
0.00487319
0.00518147
0.00611705
0.00691105
0.00779468
0.00905028
0.0082011
0.00754954
0.00657129
0.00574386
0.00499661
0.00422641
0.00409562
0.00350459
0.00318875
0.00316185
0.00343275
0.00324609
0.00352388
0.00358231
0.00417478
0.0045973
0.00521206
0.0057557
0.00662746
0.00761694
0.00664824
0.00586842
0.00512477
0.00466134
0.00411796
0.00370321
0.00305608
0.00285174
0.00282123
0.00276094
0.00295932
0.00249416
0.00272468
0.00300194
0.00329617
0.00384394
0.00408021
0.00472066
0.0054869
0.00627465
0.00458748
0.00430246
0.00387018
0.0033681
0.00290499
0.00250365
0.00243291
0.00221582
0.00212919
0.00193059
0.00195745
0.00188854
0.00204356
0.0022233
0.00248772
0.00274227
0.00312315
0.00353693
0.00394408
0.0042602
0.00296657
0.002569
0.00246069
0.00218265
0.00171382
0.00138995
0.00143461
0.00136141
0.00121518
0.00145975
0.00124178
0.00128427
0.00139376
0.00141465
0.0016987
0.00170967
0.00197867
0.00226026
0.0024874
0.00245794
0.00102842
0.00104375
0.000700702
0.000680021
0.000689016
0.00054788
0.000384262
0.000311917
0.000444329
0.000626714
0.00035492
0.000538108
0.000513934
0.00078034
0.000451374
0.000529426
0.000649902
0.000689023
0.000921233
0.000950854
0.0145335
0.0130366
0.0112869
0.0100165
0.00853211
0.00761509
0.00669922
0.0062006
0.00574312
0.00551976
0.00540255
0.00540254
0.00578945
0.0062479
0.0068771
0.0077292
0.00901421
0.0102868
0.0118152
0.0133483
0.0131629
0.0116706
0.0104246
0.00905188
0.0079808
0.00718477
0.00631247
0.00562811
0.00529761
0.005149
0.00527398
0.00510855
0.00550702
0.0059872
0.00645199
0.00746572
0.00839688
0.00915446
0.0106833
0.0120258
0.0113628
0.0101165
0.00888423
0.00793254
0.00706313
0.00612688
0.00581168
0.00512018
0.00479395
0.00488335
0.00473734
0.00480026
0.00497807
0.00535741
0.00571364
0.00667722
0.00739107
0.00833856
0.00955511
0.0107269
0.00970583
0.0085351
0.00764134
0.00672223
0.00595333
0.00539963
0.00502674
0.00449472
0.00415694
0.00417168
0.00422705
0.00422696
0.00429233
0.00469399
0.00490243
0.00576805
0.00618754
0.00704559
0.00785315
0.00880147
0.00766176
0.00681403
0.00609431
0.00554903
0.00472864
0.00435063
0.00407274
0.00360194
0.00358629
0.00338646
0.00339838
0.00329372
0.00334966
0.00374199
0.00405971
0.00432164
0.00520434
0.00555846
0.00625827
0.00712413
0.00546637
0.0050049
0.00441302
0.00392019
0.00346012
0.00311992
0.00298583
0.00265849
0.00255222
0.00242045
0.00230504
0.00235202
0.00268893
0.00288531
0.00297153
0.0032063
0.00346318
0.00408029
0.0046401
0.00503032
0.00322816
0.0032835
0.0026731
0.00258083
0.00212474
0.00209355
0.00202716
0.00153723
0.00168
0.00142703
0.00159785
0.00152495
0.0017175
0.00157966
0.00174253
0.00212073
0.00237801
0.00268948
0.00287591
0.00314551
0.00137129
0.0011858
0.000972259
0.000832918
0.00069669
0.000527118
0.00057191
0.000567551
0.000627339
0.000535966
0.000588046
0.000486903
0.000278315
0.000435572
0.000647765
0.00052191
0.000520219
0.000847245
0.000658583
0.00100016
0.0170537
0.0155371
0.0135825
0.0121994
0.0107241
0.00952033
0.00874813
0.00814664
0.00760286
0.00730974
0.00721451
0.00748518
0.00778135
0.00828276
0.00894407
0.00999427
0.0111412
0.0127341
0.0144107
0.0158326
0.0153168
0.0139218
0.0125513
0.0111777
0.00980802
0.00890343
0.00807816
0.00742579
0.00702219
0.00682677
0.0066234
0.00701572
0.00709732
0.00761798
0.00835648
0.00925394
0.0102482
0.0113025
0.0130542
0.0139488
0.0131605
0.0117967
0.0108235
0.0096778
0.00873228
0.0080417
0.00725132
0.00658481
0.00657646
0.0062813
0.00609897
0.00611172
0.00651718
0.00662184
0.0072983
0.00816878
0.00897376
0.0101437
0.0111999
0.0122171
0.0110154
0.0100326
0.00874552
0.00817062
0.00734027
0.00674796
0.00617792
0.00557115
0.00536337
0.00535565
0.00531638
0.00530348
0.00534891
0.00597813
0.00633669
0.00674626
0.0076599
0.00847448
0.00926283
0.0102682
0.00870958
0.0079724
0.00729993
0.00631337
0.00601202
0.00529925
0.00486743
0.00454343
0.00449121
0.004165
0.00416259
0.00430127
0.00441794
0.00461653
0.00514482
0.00567101
0.00611994
0.00678335
0.00741055
0.00821216
0.00632507
0.0057569
0.00517017
0.00457187
0.00435102
0.00392528
0.00368253
0.00349624
0.00328719
0.00320624
0.00296445
0.00286524
0.00321334
0.00347949
0.00365249
0.00408449
0.00432783
0.00486681
0.00536433
0.00613021
0.00383242
0.0036565
0.00335795
0.00267883
0.00256897
0.00234413
0.00197062
0.00190991
0.00210447
0.0018425
0.00193049
0.00198354
0.00190358
0.00222757
0.00248887
0.00236849
0.00256205
0.00295864
0.00320643
0.00352546
0.0013654
0.000991517
0.00114016
0.000931012
0.000976177
0.000773429
0.000724268
0.000720909
0.00067243
0.000561605
0.000628942
0.000563681
0.00068957
0.000649353
0.000666397
0.000680286
0.000927625
0.00110657
0.00112322
0.00124506
0.0196605
0.0183967
0.0167328
0.0148568
0.0133697
0.0124376
0.0112599
0.0106484
0.00993278
0.00982985
0.00971767
0.00989554
0.0104219
0.0107102
0.011358
0.0126731
0.0138794
0.0153122
0.0170985
0.0187032
0.0179656
0.0165378
0.0148158
0.0134349
0.0121812
0.0110513
0.010323
0.00965221
0.00936463
0.0091164
0.00879482
0.00898769
0.00943226
0.00983995
0.0105628
0.0113664
0.0124879
0.0138756
0.0153956
0.0165612
0.0151458
0.0141275
0.0127902
0.0116474
0.0103596
0.00969127
0.00902416
0.00841153
0.00804184
0.00801538
0.00793971
0.00814319
0.00809647
0.00861477
0.0091152
0.0101098
0.0110162
0.0119213
0.0132642
0.0143286
0.0127062
0.0118303
0.0107053
0.00993942
0.00886697
0.00814749
0.00745249
0.00704984
0.0067629
0.00674087
0.00660978
0.00690858
0.0068747
0.00735575
0.0078292
0.00842401
0.00899851
0.0100544
0.0111567
0.0118149
0.010116
0.00926453
0.00861638
0.00776572
0.00715892
0.00651161
0.00620205
0.00562616
0.0055602
0.00540291
0.00539426
0.00533504
0.00559447
0.00570819
0.00621134
0.00671565
0.00729777
0.0079554
0.00873493
0.00948043
0.00747793
0.00675946
0.00644101
0.00565944
0.00516812
0.00476354
0.00454416
0.00426345
0.00405122
0.00393799
0.00394276
0.00396944
0.00398241
0.00418771
0.00445004
0.00505164
0.00534504
0.0057805
0.0065376
0.0067315
0.00433989
0.00417545
0.00367985
0.00353207
0.00314278
0.00310411
0.00296974
0.00256044
0.00255104
0.00248274
0.00231639
0.00248757
0.00246706
0.00270461
0.00276153
0.00304058
0.00326343
0.00359023
0.00384078
0.00424754
0.00160677