/*--------------------------------*- C++ -*----------------------------------*\
| =========                 |                                                 |
| \\      /  F ield         | OpenFOAM: The Open Source CFD Toolbox           |
|  \\    /   O peration     | Version:  2212                                  |
|   \\  /    A nd           | Website:  www.openfoam.com                      |
|    \\/     M anipulation  |                                                 |
\*---------------------------------------------------------------------------*/
FoamFile
{
    version     2.0;
    format      ascii;
    arch        "LSB;label=32;scalar=64";
    class       volScalarField;
    location    "0";
    object      stateMean;
}
// * * * * * * * * * * * * * * * * * * * * * * * * * * * * * * * * * * * * * //

dimensions      [0 0 0 1 0 0 0];

internalField   nonuniform List<scalar> 
3200
(
317.928
318.194
318.459
318.663
318.901
318.98
319.159
319.31
319.298
319.374
319.366
319.334
319.189
319.054
318.899
318.751
318.436
318.238
317.979
317.601
315.33
315.546
315.746
315.904
316.176
316.333
316.363
316.524
316.507
316.499
316.582
316.499
316.384
316.276
316.184
315.998
315.747
315.551
315.358
315.133
312.845
312.994
313.156
313.327
313.446
313.558
313.692
313.711
313.802
313.786
313.774
313.722
313.72
313.63
313.466
313.323
313.161
313.019
312.829
312.691
310.345
310.519
310.671
310.863
310.946
311.02
311.14
311.142
311.143
311.163
311.131
311.1
311.098
311.026
310.953
310.813
310.692
310.534
310.351
310.257
308.064
308.201
308.239
308.333
308.472
308.518
308.537
308.572
308.594
308.622
308.606
308.623
308.553
308.538
308.457
308.325
308.262
308.205
308.048
307.877
305.691
305.749
305.87
305.922
305.945
306.152
306.059
306.117
306.154
306.138
306.159
306.155
306.135
306.104
305.983
305.933
305.896
305.758
305.605
305.636
303.514
303.478
303.512
303.589
303.581
303.61
303.568
303.646
303.677
303.71
303.667
303.673
303.644
303.554
303.575
303.553
303.534
303.451
303.383
303.431
301.195
301.114
301.155
301.237
301.161
301.215
301.211
301.299
301.27
301.296
301.213
301.228
301.261
301.174
301.094
301.218
301.136
301.175
301.131
301.175
318.562
318.894
319.176
319.449
319.63
319.861
320.015
320.224
320.19
320.136
320.182
320.166
319.996
319.889
319.749
319.552
319.304
318.975
318.663
318.341
315.914
316.173
316.318
316.581
316.828
316.939
317.102
317.147
317.148
317.196
317.107
317.147
317.067
316.983
316.801
316.6
316.456
316.156
315.929
315.743
313.177
313.434
313.659
313.862
314.027
314.19
314.231
314.299
314.359
314.352
314.347
314.27
314.247
314.146
313.992
313.862
313.712
313.534
313.292
313.146
310.77
310.883
311.077
311.211
311.356
311.416
311.512
311.603
311.625
311.627
311.616
311.631
311.55
311.5
311.34
311.272
311.155
310.902
310.788
310.622
308.334
308.446
308.589
308.671
308.757
308.75
308.847
308.947
308.968
309.008
308.946
308.933
308.954
308.821
308.794
308.727
308.501
308.381
308.29
308.122
305.846
306.022
306.04
306.183
306.237
306.314
306.306
306.337
306.345
306.278
306.337
306.33
306.311
306.207
306.238
306.183
306.036
305.977
305.961
305.809
303.496
303.559
303.66
303.707
303.737
303.746
303.735
303.799
303.824
303.76
303.776
303.789
303.839
303.82
303.761
303.674
303.622
303.586
303.597
303.475
301.186
301.115
301.219
301.253
301.331
301.231
301.212
301.226
301.3
301.264
301.27
301.254
301.266
301.213
301.25
301.253
301.292
301.154
301.105
301.112
319.527
319.848
320.172
320.509
320.713
320.946
321.093
321.191
321.261
321.269
321.271
321.277
321.108
321.025
320.818
320.601
320.272
320.017
319.764
319.43
316.725
316.915
317.249
317.521
317.672
317.841
318.025
318.047
318.035
318.136
318.124
318.086
317.967
317.941
317.763
317.558
317.331
317.105
316.822
316.565
314.007
314.176
314.364
314.526
314.827
314.836
314.968
315.099
315.147
315.179
315.167
315.153
315.005
314.89
314.871
314.62
314.468
314.276
314.044
313.755
311.341
311.465
311.676
311.782
311.934
312.069
312.194
312.189
312.239
312.276
312.249
312.242
312.177
312.097
311.961
311.835
311.716
311.562
311.316
311.115
308.731
308.95
308.998
309.125
309.25
309.294
309.356
309.355
309.399
309.414
309.428
309.376
309.423
309.305
309.194
309.144
309.018
308.927
308.768
308.724
306.132
306.311
306.347
306.45
306.575
306.603
306.627
306.656
306.723
306.671
306.734
306.776
306.662
306.598
306.599
306.551
306.398
306.29
306.218
306.16
303.786
303.796
303.843
303.795
303.912
303.98
304.033
304.034
303.981
303.983
304.011
304.09
304.033
303.921
303.931
303.839
303.786
303.736
303.793
303.634
301.252
301.258
301.274
301.33
301.318
301.255
301.333
301.317
301.289
301.387
301.358
301.321
301.278
301.335
301.378
301.3
301.252
301.262
301.302
301.226
320.588
320.995
321.209
321.635
321.893
322.138
322.296
322.333
322.479
322.434
322.456
322.451
322.346
322.181
322.052
321.764
321.463
321.166
320.796
320.549
317.643
317.878
318.145
318.414
318.62
318.819
318.979
319.091
319.22
319.147
319.13
319.145
319.04
318.9
318.773
318.601
318.319
317.985
317.715
317.436
314.697
314.914
315.152
315.402
315.558
315.703
315.911
315.996
316.044
315.979
316.002
315.922
315.868
315.783
315.626
315.475
315.26
315.041
314.725
314.616
311.932
312.11
312.255
312.454
312.628
312.708
312.834
312.862
313.036
312.939
313.003
312.946
312.876
312.803
312.57
312.571
312.343
312.175
312.029
311.789
309.203
309.297
309.498
309.607
309.735
309.827
309.961
309.955
310.019
310.03
309.956
309.989
309.917
309.85
309.746
309.555
309.57
309.422
309.252
309.12
306.57
306.664
306.754
306.805
306.875
306.967
307.029
307.036
307.061
307.117
307.058
307.051
307.049
307.009
306.901
306.812
306.743
306.631
306.617
306.41
303.944
303.957
304.008
304.055
304.153
304.162
304.219
304.283
304.152
304.233
304.183
304.204
304.176
304.183
304.111
304.114
304.064
303.977
303.934
303.89
301.293
301.292
301.38
301.36
301.398
301.432
301.397
301.391
301.411
301.372
301.437
301.37
301.374
301.437
301.421
301.365
301.386
301.303
301.265
301.398
321.696
322.002
322.412
322.749
323.031
323.308
323.455
323.636
323.69
323.816
323.829
323.663
323.591
323.45
323.195
322.996
322.587
322.341
321.913
321.562
318.542
318.816
319.133
319.395
319.731
319.866
319.991
320.162
320.186
320.251
320.17
320.177
320.154
320.004
319.806
319.643
319.294
319.036
318.625
318.361
315.453
315.657
315.977
316.228
316.461
316.592
316.653
316.79
316.927
316.912
316.861
316.893
316.837
316.643
316.519
316.331
316.098
315.856
315.669
315.438
312.6
312.699
312.928
313.101
313.273
313.552
313.511
313.617
313.674
313.647
313.664
313.66
313.581
313.496
313.406
313.215
313.112
312.827
312.62
312.443
309.674
309.848
309.96
310.219
310.285
310.306
310.418
310.519
310.456
310.555
310.553
310.457
310.432
310.412
310.316
310.215
310.04
309.876
309.781
309.637
306.865
306.956
307.116
307.211
307.327
307.326
307.415
307.429
307.454
307.536
307.452
307.497
307.365
307.364
307.287
307.213
307.15
307.102
306.921
306.843
304.162
304.226
304.288
304.33
304.379
304.437
304.482
304.421
304.48
304.539
304.483
304.477
304.414
304.403
304.404
304.346
304.321
304.186
304.157
304.067
301.295
301.331
301.411
301.496
301.438
301.466
301.492
301.535
301.505
301.488
301.504
301.483
301.474
301.416
301.486
301.492
301.43
301.388
301.381
301.351
322.719
323.124
323.513
324.025
324.222
324.495
324.719
324.896
324.967
325.073
325.027
325.01
324.852
324.688
324.47
324.234
323.798
323.439
323.102
322.676
319.412
319.701
320.047
320.489
320.624
320.931
321.083
321.191
321.256
321.369
321.343
321.3
321.146
321.01
320.903
320.586
320.367
320.077
319.684
319.374
316.33
316.497
316.776
317.054
317.269
317.514
317.581
317.724
317.815
317.829
317.841
317.747
317.714
317.629
317.478
317.244
317.014
316.705
316.405
316.183
313.201
313.442
313.625
313.805
314.006
314.164
314.292
314.358
314.469
314.416
314.456
314.389
314.339
314.277
314.114
313.974
313.762
313.541
313.332
313.145
310.145
310.341
310.493
310.691
310.815
310.89
311.01
311.054
311.129
311.104
311.096
311.134
311.139
310.975
310.942
310.786
310.618
310.464
310.235
310.087
307.203
307.311
307.398
307.601
307.636
307.723
307.87
307.769
307.909
307.894
307.834
307.875
307.845
307.781
307.713
307.642
307.548
307.459
307.314
307.202
304.344
304.329
304.491
304.518
304.616
304.65
304.727
304.739
304.775
304.666
304.673
304.71
304.695
304.68
304.608
304.625
304.511
304.389
304.432
304.371
301.472
301.449
301.476
301.532
301.533
301.563
301.568
301.625
301.596
301.552
301.628
301.603
301.58
301.574
301.569
301.609
301.503
301.533
301.467
301.468
323.831
324.239
324.673
325.088
325.402
325.697
325.941
326.158
326.206
326.268
326.217
326.168
326.083
325.935
325.681
325.383
325.058
324.642
324.177
323.811
320.387
320.663
321.075
321.395
321.68
321.935
322.158
322.289
322.343
322.416
322.439
322.344
322.285
322.076
321.92
321.703
321.314
321.014
320.572
320.286
316.991
317.241
317.587
317.827
318.138
318.338
318.469
318.589
318.694
318.706
318.712
318.675
318.54
318.449
318.315
318.113
317.868
317.563
317.233
317.027
313.824
314.087
314.313
314.472
314.688
314.866
314.973
315.071
315.139
315.138
315.232
315.062
315.115
314.966
314.854
314.652
314.511
314.256
313.931
313.803
310.66
310.845
311.072
311.157
311.343
311.38
311.564
311.693
311.731
311.729
311.698
311.651
311.657
311.559
311.498
311.353
311.146
310.994
310.74
310.619
307.574
307.787
307.877
307.992
308.03
308.11
308.201
308.27
308.341
308.357
308.328
308.314
308.278
308.228
308.194
308.074
307.902
307.827
307.671
307.59
304.517
304.543
304.7
304.735
304.807
304.913
304.941
304.98
304.9
304.98
305.084
304.978
304.974
304.941
304.788
304.842
304.758
304.593
304.644
304.574
301.532
301.535
301.531
301.613
301.645
301.618
301.69
301.715
301.618
301.69
301.65
301.682
301.614
301.615
301.663
301.609
301.563
301.53
301.54
301.487
324.862
325.265
325.755
326.203
326.542
326.791
327.074
327.281
327.413
327.428
327.512
327.414
327.334
327.049
326.913
326.572
326.215
325.756
325.318
324.896
321.281
321.619
322.045
322.374
322.715
322.968
323.213
323.315
323.386
323.433
323.502
323.392
323.3
323.196
322.983
322.729
322.367
322.061
321.685
321.311
317.808
318.109
318.439
318.723
318.982
319.154
319.351
319.522
319.581
319.615
319.657
319.499
319.51
319.342
319.168
318.988
318.711
318.455
318.137
317.81
314.426
314.656
314.953
315.204
315.459
315.564
315.66
315.773
315.839
315.876
315.895
315.842
315.738
315.712
315.592
315.336
315.184
314.915
314.691
314.435
311.147
311.384
311.523
311.647
311.888
311.96
312.058
312.231
312.247
312.246
312.248
312.21
312.161
312.125
312.005
311.881
311.723
311.533
311.322
311.127
307.984
308.061
308.267
308.319
308.444
308.543
308.603
308.728
308.687
308.681
308.719
308.731
308.662
308.627
308.479
308.392
308.407
308.222
308.063
307.865
304.73
304.815
304.915
305.001
305.025
305.126
305.138
305.173
305.222
305.284
305.23
305.227
305.159
305.151
305.167
305.044
304.993
304.901
304.873
304.726
301.63
301.582
301.655
301.677
301.668
301.66
301.776
301.683
301.701
301.74
301.725
301.804
301.731
301.68
301.669
301.709
301.713
301.714
301.642
301.613
325.864
326.267
326.84
327.332
327.738
328.074
328.199
328.394
328.623
328.668
328.694
328.554
328.506
328.244
328.02
327.753
327.351
326.851
326.389
325.979
322.094
322.502
322.911
323.296
323.687
323.917
324.185
324.288
324.501
324.504
324.49
324.431
324.31
324.23
323.985
323.698
323.384
322.962
322.545
322.235
318.578
318.859
319.255
319.545
319.852
320.008
320.217
320.392
320.399
320.405
320.451
320.512
320.271
320.196
320.012
319.786
319.454
319.182
318.875
318.565
315.097
315.275
315.619
315.754
316.056
316.218
316.348
316.519
316.521
316.571
316.636
316.565
316.478
316.386
316.186
316.009
315.77
315.606
315.364
315.042
311.59
311.846
311.986
312.188
312.353
312.527
312.655
312.715
312.79
312.771
312.802
312.729
312.806
312.696
312.535
312.368
312.235
312.065
311.777
311.605
308.217
308.392
308.521
308.71
308.831
308.959
308.994
309.01
309.093
309.139
309.047
309.13
309.027
308.967
308.898
308.786
308.719
308.556
308.359
308.291
305
305.046
305.17
305.23
305.24
305.293
305.397
305.429
305.513
305.486
305.488
305.436
305.474
305.337
305.333
305.192
305.213
305.142
305.015
304.93
301.67
301.654
301.667
301.745
301.699
301.777
301.775
301.822
301.795
301.829
301.912
301.782
301.825
301.81
301.784
301.736
301.703
301.756
301.675
301.552
326.919
327.373
327.847
328.379
328.749
329.177
329.401
329.521
329.799
329.861
329.849
329.781
329.624
329.447
329.223
328.954
328.398
327.988
327.537
326.98
323.023
323.374
323.905
324.206
324.714
324.899
325.099
325.277
325.44
325.527
325.522
325.453
325.282
325.15
324.958
324.654
324.341
323.966
323.498
323.08
319.271
319.579
319.958
320.31
320.608
320.856
320.948
321.205
321.255
321.339
321.374
321.245
321.19
321.088
320.861
320.643
320.321
320.025
319.675
319.339
315.581
315.879
316.123
316.498
316.658
316.927
317.095
317.139
317.215
317.338
317.268
317.26
317.167
317.061
316.917
316.652
316.44
316.21
315.92
315.696
312.04
312.255
312.458
312.728
312.921
312.962
313.149
313.28
313.378
313.344
313.353
313.289
313.298
313.194
313.002
312.919
312.679
312.479
312.268
312.076
308.603
308.793
308.855
309.039
309.18
309.259
309.322
309.392
309.535
309.486
309.495
309.5
309.391
309.324
309.285
309.257
309.075
308.998
308.746
308.528
305.141
305.172
305.285
305.443
305.509
305.535
305.607
305.638
305.64
305.696
305.653
305.654
305.615
305.616
305.574
305.503
305.451
305.288
305.285
305.189
301.69
301.737
301.767
301.861
301.842
301.864
301.906
301.898
301.905
301.915
301.847
301.908
301.885
301.823
301.838
301.772
301.811
301.772
301.83
301.728
327.82
328.303
328.87
329.37
329.788
330.148
330.462
330.743
330.905
330.917
330.974
330.946
330.831
330.573
330.298
329.96
329.527
329.049
328.51
328.054
323.791
324.292
324.727
325.051
325.526
325.746
326.106
326.234
326.417
326.464
326.456
326.453
326.314
326.142
325.931
325.577
325.218
324.88
324.366
323.922
319.962
320.242
320.679
321.07
321.329
321.643
321.818
321.982
322.049
322.195
322.156
322.045
322.008
321.881
321.687
321.443
321.145
320.838
320.355
320.076
316.199
316.509
316.781
317.024
317.288
317.554
317.687
317.845
317.866
317.941
317.982
318.005
317.803
317.731
317.565
317.398
317.203
316.812
316.572
316.286
312.464
312.718
312.949
313.249
313.434
313.509
313.684
313.765
313.792
313.894
313.872
313.808
313.825
313.662
313.591
313.409
313.248
313.012
312.723
312.526
308.88
309.072
309.283
309.393
309.492
309.567
309.714
309.778
309.807
309.806
309.901
309.85
309.821
309.832
309.578
309.554
309.382
309.18
309.082
308.936
305.294
305.41
305.537
305.594
305.704
305.845
305.867
305.841
305.924
305.862
305.88
305.827
305.894
305.861
305.75
305.748
305.662
305.533
305.42
305.314
301.779
301.844
301.781
301.904
301.927
301.919
301.967
301.929
301.99
301.971
302.031
301.957
302.011
301.883
301.94
301.892
301.887
301.839
301.806
301.762
328.761
329.303
329.846
330.347
330.848
331.239
331.564
331.826
331.889
332.095
332.064
331.909
331.828
331.561
331.338
331.009
330.554
329.946
329.462
328.942
324.541
325.023
325.539
326
326.418
326.695
326.954
327.212
327.344
327.418
327.334
327.373
327.242
327.031
326.772
326.453
326.125
325.718
325.186
324.834
320.652
320.95
321.449
321.785
322.089
322.364
322.584
322.716
322.887
322.904
322.944
322.948
322.835
322.62
322.378
322.139
321.879
321.445
321.057
320.767
316.698
317.036
317.393
317.557
317.926
318.12
318.278
318.399
318.578
318.578
318.604
318.644
318.54
318.35
318.241
317.878
317.803
317.497
317.13
316.864
312.994
313.16
313.347
313.631
313.828
314.005
314.118
314.249
314.372
314.381
314.331
314.381
314.336
314.22
314.033
313.875
313.739
313.547
313.23
313.023
309.236
309.37
309.524
309.745
309.882
309.946
310.071
310.111
310.214
310.217
310.262
310.203
310.175
310.13
309.975
309.899
309.681
309.544
309.452
309.299
305.602
305.603
305.736
305.772
305.894
305.963
306.058
306.048
306.029
306.18
306.146
306.157
306.139
306.078
305.975
305.906
305.814
305.634
305.598
305.594
301.774
301.902
301.911
301.938
301.982
302
302.034
302.03
302.038
302.001
302.09
302.037
302.077
302.002
301.965
302.04
301.92
301.932
301.944
301.865
329.551
330.164
330.817
331.262
331.784
332.193
332.531
332.757
332.957
333.146
333.095
333.041
332.891
332.645
332.295
331.96
331.469
330.975
330.433
329.802
325.328
325.669
326.266
326.778
327.191
327.566
327.875
328.074
328.176
328.269
328.249
328.203
328.165
327.98
327.608
327.351
327.017
326.505
326.051
325.603
321.243
321.637
322.084
322.417
322.745
323.023
323.331
323.503
323.653
323.756
323.705
323.652
323.473
323.41
323.199
322.87
322.611
322.169
321.8
321.486
317.201
317.603
317.865
318.194
318.464
318.764
318.923
319.037
319.141
319.244
319.273
319.216
319.125
319.022
318.841
318.631
318.339
318.042
317.661
317.416
313.279
313.558
313.713
314.097
314.27
314.553
314.631
314.726
314.769
314.836
314.792
314.871
314.789
314.683
314.533
314.365
314.179
313.866
313.641
313.456
309.429
309.625
309.813
310.024
310.129
310.282
310.351
310.516
310.509
310.598
310.521
310.536
310.491
310.483
310.241
310.206
310.077
309.846
309.707
309.535
305.603
305.802
305.847
305.995
306.077
306.135
306.239
306.333
306.298
306.386
306.287
306.271
306.247
306.243
306.119
306.11
306.117
305.945
305.831
305.698
301.938
301.979
301.867
302.023
302.008
302.053
302.103
302.124
302.109
302.195
302.167
302.179
302.088
302.127
302.059
302.048
302.046
302.01
301.973
301.893
330.362
331.012
331.579
332.174
332.718
333.158
333.485
333.755
333.928
334.062
334.012
334.008
333.913
333.611
333.273
332.887
332.437
331.867
331.245
330.776
326.021
326.529
327.062
327.54
327.922
328.402
328.612
328.854
328.995
329.137
329.117
329.074
328.956
328.812
328.479
328.228
327.701
327.285
326.787
326.317
321.761
322.21
322.627
323.065
323.443
323.719
323.98
324.171
324.292
324.433
324.401
324.35
324.268
324.137
323.812
323.633
323.246
322.902
322.532
322.061
317.727
317.987
318.368
318.703
319.011
319.322
319.42
319.655
319.789
319.814
319.727
319.771
319.649
319.585
319.338
319.139
318.873
318.629
318.283
317.914
313.671
313.957
314.243
314.444
314.67
314.851
315.099
315.199
315.233
315.265
315.202
315.337
315.239
315.116
314.979
314.756
314.628
314.371
314.077
313.789
309.807
309.924
310.095
310.291
310.473
310.634
310.687
310.78
310.825
310.897
310.888
310.9
310.833
310.753
310.639
310.524
310.368
310.199
310.035
309.909
305.825
305.964
306.019
306.127
306.294
306.416
306.421
306.458
306.514
306.444
306.511
306.493
306.448
306.427
306.321
306.295
306.19
306.081
305.989
305.981
301.944
301.946
302.056
302.07
302.076
302.125
302.181
302.209
302.172
302.119
302.201
302.143
302.148
302.061
302.155
302.124
302.08
302.06
301.983
301.968
331.132
331.719
332.41
332.943
333.546
333.95
334.342
334.578
334.78
334.88
334.92
334.895
334.717
334.494
334.199
333.816
333.28
332.747
332.13
331.53
326.633
327.198
327.7
328.247
328.691
329.038
329.399
329.686
329.836
329.908
329.866
329.899
329.726
329.507
329.281
328.861
328.464
328.12
327.525
327.01
322.357
322.823
323.3
323.688
324.048
324.424
324.589
324.864
325.005
324.995
325.043
325.003
324.91
324.737
324.559
324.174
323.864
323.478
323.006
322.564
318.098
318.523
318.871
319.231
319.539
319.775
319.946
320.157
320.295
320.305
320.287
320.272
320.223
320.053
319.935
319.599
319.402
319.062
318.742
318.389
314.013
314.318
314.593
314.815
315.124
315.288
315.416
315.597
315.624
315.699
315.695
315.717
315.677
315.521
315.38
315.253
314.924
314.763
314.493
314.183
310.006
310.176
310.394
310.584
310.762
310.9
310.97
311.095
311.144
311.194
311.23
311.206
311.085
311.001
310.946
310.841
310.726
310.498
310.29
310.142
306.028
306.027
306.234
306.284
306.445
306.474
306.511
306.676
306.641
306.724
306.671
306.689
306.62
306.649
306.582
306.447
306.347
306.229
306.152
306.053
301.935
301.997
302.069
302.118
302.166
302.224
302.216
302.222
302.207
302.236
302.22
302.25
302.31
302.257
302.187
302.219
302.213
302.107
302.157
302.048
331.829
332.419
333.172
333.736
334.329
334.822
335.158
335.422
335.649
335.77
335.802
335.688
335.546
335.315
335.017
334.575
334.094
333.459
332.799
332.241
327.249
327.777
328.314
328.855
329.391
329.768
330.108
330.377
330.548
330.632
330.7
330.551
330.487
330.261
329.95
329.576
329.164
328.729
328.066
327.703
322.888
323.389
323.775
324.222
324.6
324.89
325.204
325.467
325.501
325.614
325.674
325.653
325.489
325.41
325.134
324.784
324.452
323.998
323.584
323.197
318.588
318.948
319.419
319.663
319.986
320.229
320.459
320.69
320.783
320.799
320.811
320.803
320.762
320.523
320.362
320.177
319.827
319.506
319.196
318.828
314.387
314.654
314.911
315.269
315.408
315.675
315.848
315.98
316.016
316.13
316.131
316.077
316.02
315.928
315.724
315.516
315.33
315.075
314.833
314.545
310.241
310.442
310.657
310.876
310.977
311.139
311.24
311.319
311.398
311.43
311.506
311.53
311.407
311.303
311.224
311.06
310.952
310.751
310.565
310.302
306.144
306.213
306.323
306.552
306.604
306.691
306.821
306.852
306.801
306.886
306.858
306.838
306.854
306.742
306.647
306.666
306.587
306.446
306.352
306.239
302.039
302.157
302.118
302.188
302.181
302.248
302.268
302.273
302.291
302.325
302.305
302.323
302.282
302.291
302.28
302.27
302.189
302.128
302.117
302.075
332.573
333.073
333.724
334.448
335.037
335.431
335.899
336.161
336.442
336.496
336.535
336.454
336.238
336.085
335.798
335.273
334.78
334.206
333.513
332.898
327.762
328.298
328.948
329.485
329.977
330.422
330.724
330.995
331.124
331.225
331.332
331.25
331.069
330.886
330.585
330.249
329.801
329.262
328.68
328.231
323.409
323.794
324.296
324.736
325.222
325.499
325.767
326.009
326.158
326.181
326.206
326.125
326.112
325.902
325.688
325.304
324.943
324.582
324.078
323.678
318.996
319.319
319.734
320.034
320.432
320.712
320.977
321.14
321.256
321.275
321.317
321.208
321.197
321.008
320.814
320.576
320.338
319.944
319.537
319.284
314.679
314.981
315.226
315.538
315.771
316.014
316.144
316.352
316.391
316.45
316.453
316.463
316.362
316.301
316.109
315.912
315.687
315.436
315.149
314.881
310.407
310.654
310.782
311.057
311.238
311.392
311.483
311.589
311.668
311.71
311.708
311.694
311.677
311.595
311.49
311.275
311.155
310.989
310.723
310.641
306.305
306.368
306.538
306.601
306.738
306.766
306.821
306.958
306.968
306.993
307.044
306.987
306.987
306.903
306.871
306.769
306.684
306.565
306.471
306.333
302.072
302.117
302.173
302.229
302.313
302.331
302.256
302.388
302.296
302.346
302.35
302.317
302.242
302.313
302.316
302.314
302.24
302.185
302.161
302.166
332.964
333.646
334.381
335.059
335.564
336.05
336.586
336.847
337.017
337.259
337.241
337.211
336.955
336.732
336.37
335.902
335.391
334.812
334.082
333.47
328.28
328.756
329.466
329.994
330.491
330.909
331.291
331.531
331.675
331.795
331.907
331.802
331.6
331.471
331.124
330.8
330.319
329.821
329.248
328.771
323.739
324.193
324.708
325.209
325.526
325.849
326.218
326.484
326.611
326.666
326.733
326.746
326.517
326.352
326.114
325.809
325.478
324.981
324.456
324.144
319.279
319.621
320.001
320.403
320.757
321.072
321.346
321.447
321.66
321.703
321.709
321.679
321.491
321.453
321.196
320.858
320.673
320.319
319.904
319.551
314.945
315.199
315.541
315.794
316.06
316.219
316.539
316.556
316.694
316.797
316.767
316.685
316.693
316.563
316.337
316.195
316.004
315.729
315.325
315.157
310.672
310.781
310.981
311.263
311.435
311.622
311.704
311.814
311.873
311.96
311.948
311.836
311.843
311.81
311.615
311.492
311.377
311.154
310.976
310.767
306.391
306.442
306.607
306.731
306.864
306.922
306.973
307.016
307.102
307.204
307.162
307.119
307.158
307.034
306.964
306.918
306.773
306.604
306.609
306.473
302.201
302.124
302.263
302.137
302.294
302.327
302.344
302.345
302.407
302.346
302.375
302.384
302.374
302.449
302.311
302.327
302.26
302.183
302.184
302.105
333.39
334.074
334.85
335.491
336.203
336.602
337.047
337.368
337.545
337.679
337.749
337.671
337.534
337.223
336.969
336.46
335.936
335.294
334.591
333.991
328.63
329.197
329.859
330.4
330.99
331.335
331.738
332.027
332.334
332.276
332.376
332.357
332.189
331.928
331.624
331.261
330.791
330.175
329.628
329.211
324.047
324.434
325.021
325.52
325.883
326.326
326.629
326.793
326.958
327.131
327.132
327.118
326.923
326.788
326.474
326.104
325.822
325.364
324.814
324.487
319.599
319.858
320.33
320.703
321.107
321.326
321.594
321.792
321.985
322.036
322.063
321.953
321.843
321.752
321.565
321.21
320.934
320.575
320.144
319.907
315.205
315.455
315.752
316.017
316.283
316.537
316.71
316.835
316.975
316.974
317.06
316.944
316.919
316.817
316.667
316.487
316.221
315.92
315.633
315.351
310.78
310.989
311.195
311.463
311.549
311.708
311.89
311.948
312.048
312.072
312.117
312.035
312.031
311.879
311.863
311.736
311.537
311.324
311.111
310.938
306.464
306.552
306.732
306.831
306.938
307.043
307.139
307.213
307.234
307.261
307.251
307.319
307.19
307.19
307.065
306.977
306.965
306.791
306.657
306.616
302.149
302.229
302.17
302.344
302.321
302.323
302.324
302.42
302.39
302.466
302.405
302.452
302.418
302.463
302.402
302.379
302.285
302.257
302.312
302.213
333.699
334.375
335.118
335.762
336.382
337.068
337.348
337.749
337.954
338.084
338.097
338.044
337.877
337.609
337.274
336.815
336.332
335.598
334.907
334.276
328.875
329.46
330.075
330.663
331.229
331.658
332.058
332.309
332.52
332.621
332.621
332.615
332.467
332.265
331.841
331.588
331.06
330.516
329.958
329.366
324.27
324.641
325.265
325.754
326.187
326.525
326.9
327.039
327.248
327.317
327.382
327.289
327.165
327.069
326.736
326.431
326.044
325.565
325.155
324.639
319.7
320.08
320.515
320.968
321.222
321.51
321.777
321.992
322.097
322.208
322.242
322.187
322.133
321.968
321.717
321.494
321.14
320.717
320.37
319.998
315.318
315.56
315.856
316.127
316.475
316.677
316.885
317.034
317.085
317.247
317.117
317.127
317.032
316.949
316.802
316.636
316.361
316.039
315.748
315.46
310.903
311.098
311.26
311.38
311.671
311.896
311.995
312.077
312.108
312.247
312.25
312.26
312.139
312.17
312.017
311.799
311.672
311.473
311.205
310.999
306.56
306.614
306.781
306.844
307.06
307.122
307.136
307.274
307.226
307.33
307.38
307.254
307.298
307.256
307.142
307.091
307.047
306.858
306.693
306.677
302.159
302.266
302.309
302.305
302.326
302.395
302.381
302.507
302.442
302.382
302.453
302.478
302.504
302.433
302.428
302.371
302.325
302.283
302.229
302.251
)
;

boundaryField
{
    hotSide
    {
        type            fixedGradient;
        gradient        nonuniform List<scalar> 
400
(
321.511
322.87
325.591
329.677
335.133
341.965
350.181
359.788
370.794
383.208
397.037
412.289
428.971
447.088
466.647
487.651
510.105
534.011
559.372
586.191
323.738
325.08
327.767
331.802
337.194
343.949
352.078
361.591
372.498
384.81
398.537
413.687
430.268
448.289
467.755
488.672
511.043
534.872
560.161
586.913
326.149
327.47
330.116
334.091
339.406
346.071
354.099
363.503
374.296
386.491
400.101
415.136
431.606
449.52
468.885
489.706
511.988
535.735
560.948
587.63
328.704
330
332.597
336.503
341.73
348.292
356.205
365.485
376.15
388.215
401.695
416.604
432.954
450.753
470.009
490.73
512.919
536.579
561.714
588.325
331.33
332.599
335.142
338.97
344.099
350.546
358.332
367.477
378.003
389.928
403.271
418.047
434.27
451.949
471.095
491.712
513.807
537.382
562.439
588.978
333.918
335.158
337.643
341.389
346.414
352.74
360.392
369.397
379.779
391.562
404.765
419.407
435.503
453.065
472.101
492.618
514.622
538.114
563.096
589.569
336.321
337.531
339.959
343.622
348.544
354.751
362.274
371.142
381.385
393.031
406.101
420.618
436.595
454.047
472.983
493.409
515.33
538.747
563.663
590.076
338.36
339.543
341.92
345.509
350.339
356.44
363.847
372.595
382.718
394.244
407.2
421.608
437.485
454.844
473.695
494.045
515.897
539.253
564.114
590.478
339.852
341.015
343.352
346.885
351.645
357.665
364.985
373.643
383.675
395.113
407.984
422.312
438.116
455.407
474.197
494.491
516.294
539.606
564.428
590.758
340.643
341.795
344.11
347.613
352.334
358.311
365.584
374.193
384.176
395.567
408.393
422.679
438.443
455.699
474.456
494.722
516.498
539.788
564.589
590.901
340.643
341.795
344.11
347.613
352.334
358.311
365.584
374.193
384.176
395.567
408.393
422.679
438.443
455.699
474.456
494.722
516.498
539.788
564.589
590.901
339.852
341.015
343.352
346.885
351.645
357.665
364.985
373.643
383.675
395.113
407.984
422.312
438.116
455.407
474.197
494.491
516.294
539.606
564.428
590.758
338.36
339.543
341.92
345.509
350.339
356.44
363.847
372.595
382.718
394.244
407.2
421.608
437.485
454.844
473.695
494.045
515.897
539.253
564.114
590.478
336.321
337.531
339.959
343.622
348.544
354.751
362.274
371.142
381.385
393.031
406.101
420.618
436.595
454.047
472.983
493.409
515.33
538.747
563.663
590.076
333.918
335.158
337.643
341.389
346.414
352.74
360.392
369.397
379.779
391.562
404.765
419.407
435.503
453.065
472.101
492.618
514.622
538.114
563.096
589.569
331.33
332.599
335.142
338.97
344.099
350.546
358.332
367.477
378.003
389.928
403.271
418.047
434.27
451.949
471.095
491.712
513.807
537.382
562.439
588.978
328.704
330
332.597
336.503
341.73
348.292
356.205
365.485
376.15
388.215
401.695
416.604
432.954
450.753
470.009
490.73
512.919
536.579
561.714
588.325
326.149
327.47
330.116
334.091
339.406
346.071
354.099
363.503
374.296
386.491
400.101
415.136
431.606
449.52
468.885
489.706
511.988
535.735
560.948
587.63
323.738
325.08
327.767
331.802
337.194
343.949
352.078
361.591
372.498
384.81
398.537
413.687
430.268
448.289
467.755
488.672
511.043
534.872
560.161
586.913
321.511
322.87
325.591
329.677
335.133
341.965
350.181
359.788
370.794
383.208
397.037
412.289
428.971
447.088
466.647
487.651
510.105
534.011
559.372
586.191
)
;
    }
    coldSide
    {
        type            mixed;
        refValue        uniform 300;
        refGradient     uniform 0;
        valueFraction   uniform 0.991591;
        source          uniform 0;
        value           nonuniform List<scalar> 
400
(
300.01
300.01
300.011
300.011
300.011
300.012
300.013
300.014
300.014
300.014
300.015
300.015
300.016
300.016
300.016
300.017
300.017
300.019
300.018
300.018
300.009
300.009
300.011
300.011
300.011
300.012
300.013
300.013
300.014
300.015
300.016
300.016
300.017
300.016
300.017
300.018