/*--------------------------------*- C++ -*----------------------------------*\
| =========                 |                                                 |
| \\      /  F ield         | OpenFOAM: The Open Source CFD Toolbox           |
|  \\    /   O peration     | Version:  2212                                  |
|   \\  /    A nd           | Website:  www.openfoam.com                      |
|    \\/     M anipulation  |                                                 |
\*---------------------------------------------------------------------------*/
FoamFile
{
    version     2.0;
    format      ascii;
    arch        "LSB;label=32;scalar=64";
    class       volScalarField;
    location    "./ITHACAoutput/true/8.9";
    object      error;
}
// * * * * * * * * * * * * * * * * * * * * * * * * * * * * * * * * * * * * * //

dimensions      [0 0 0 1 0 0 0];

internalField   nonuniform List<scalar> 
3200
(
5.89693
2.8507
2.07443
0.457735
3.29183
4.44427
3.27213
4.82287
5.80453
3.88332
3.50497
4.43338
0.362379
4.53547
2.87776
1.87458
1.50858
4.16728
3.76698
4.67662
6.2953
2.76011
1.83967
4.79913
2.19782
1.24982
4.62193
5.55184
1.06037
2.02842
2.81523
-1.09074
0.548999
5.02958
-0.241079
2.10292
4.434
1.98614
7.56091
2.61071
0.525679
1.93245
6.30628
2.86593
2.94908
0.177982
3.19787
2.61396
0.652529
1.92973
1.46902
-0.272825
2.55463
4.77407
3.73785
1.65028
3.93043
4.86513
3.98323
1.36059
4.92206
4.06494
3.4246
-1.6422
1.95603
0.451833
2.09089
0.284936
4.16924
1.50285
0.458791
1.1923
-0.777671
-0.385081
1.71389
2.72336
2.03818
-2.22234
3.68875
4.06134
-0.72841
2.24876
-4.13723
5.35913
2.16922
2.54275
2.17735
2.02283
2.83818
0.215402
3.51562
1.7684
0.667006
1.6689
-0.706155
0.287932
5.81383
1.64844
1.97885
0.514714
0.162686
-0.791773
0.787829
3.11099
4.42533
0.696839
-0.561744
-1.72717
4.33278
0.767639
-1.98895
1.47034
-0.186825
-1.15887
-0.755363
-2.03103
-0.430162
-0.336996
-1.08681
0.942664
1.65488
-0.00603356
1.48901
2.0674
3.96672
-0.935049
-1.69788
-1.58322
1.1651
2.88544
1.18266
-0.350244
2.39438
1.48793
-0.783016
-2.18439
-2.40271
0.880045
2.43549
1.74837
1.5189
1.95008
-1.10784
-1.63694
0.680767
-0.419889
0.407716
0.109793
-1.00918
1.21594
-3.78605
-1.72393
-2.09228
-2.85202
0.731774
0.462755
-3.28669
1.62085
-2.36446
0.759513
-0.0245932
3.98087
-0.600388
4.24582
3.34888
0.753251
1.28841
0.398248
1.22828
2.53938
2.92704
3.29394
4.445
-1.14161
3.76943
3.39591
3.55821
1.41408
1.59828
3.51872
3.54351
-2.92026
-2.14299
-0.208861
0.889648
-0.538528
-0.160725
-0.116136
3.9987
1.78878
-0.437683
4.60708
-0.562157
-0.694634
0.856358
4.20075
0.524004
0.416232
-0.200999
1.22778
2.60453
-0.113025
0.574731
-0.243537
-0.147547
2.20843
2.36696
-1.0699
-0.708421
2.86809
1.62651
2.84356
1.00573
2.79169
4.66278
1.1454
1.6102
5.86769
-0.137896
3.94662
5.59309
1.16596
1.31139
0.966411
0.401883
-0.456567
4.01015
-0.132451
-0.0728563
0.946392
2.26123
1.86688
-0.730513
-1.62928
3.81883
2.89976
0.768363
1.01409
-2.13052
1.32637
-0.9332
-0.159987
-2.61006
1.45189
1.55182
0.414066
0.490465
0.790878
-0.901955
1.50016
2.76805
2.86615
1.33133
-0.565593
2.49981
-0.0838054
0.559687
2.37483
1.36147
2.02935
2.11937
0.128439
1.15076
-0.320926
-0.320697
0.854558
1.64971
-1.39708
0.438831
0.699805
0.228078
2.03754
2.01313
-1.84726
2.5473
0.286618
-0.593609
2.12488
1.71817
2.81875
-0.995975
0.756205
-0.70653
-0.223035
0.0196504
0.795603
1.77441
2.00646
-1.79855
1.67282
-0.77044
-0.909222
0.167942
-1.84019
-2.68832
1.99571
-0.432338
-0.593331
3.02309
-0.225459
-0.965298
-1.39514
0.211279
1.04043
1.08045
0.948809
0.985216
0.326775
1.19086
2.49667
-0.178066
1.43945
-0.916373
1.65801
-4.96851
-3.14246
-3.8859
3.26705
0.985571
2.44767
1.74499
2.24187
2.11181
1.21245
-1.13903
-3.60081
-0.517849
-1.33018
1.71371
3.4105
-0.141602
2.23574
-0.151223
0.721652
2.08893
-0.126995
3.52346
4.80414
0.368954
3.08094
0.950515
1.9797
0.00745242
0.557502
1.61773
0.88154
0.0963998
-2.66799
2.34683
-0.618852
2.6987
3.388
2.89784
0.0893138
1.28481
2.85254
1.42153
0.239893
5.71135
1.4971
2.66655
0.0135154
2.33635
3.29502
-1.03467
-0.87989
3.95726
0.00569459
2.48628
-2.61997
1.64103
3.10358
1.67448
1.59724
2.17426
1.3277
1.96257
-0.101522
0.711885
2.77292
2.90728
2.38057
0.767088
0.225434
0.568889
-1.16909
1.00295
0.0252607
-0.845054
2.49629
2.65125
2.22105
0.281545
3.49245
0.923434
1.66442
2.34176
3.65458
-2.54153
4.55158
-0.071493
3.29591
1.56213
-0.0476265
1.19354
-0.602229
1.55476
0.389068
3.23589
-2.04365
1.46542
-1.0608
0.322622
0.888148
2.38265
4.63382
4.01999
-0.244941
2.63013
2.09687
3.93052
-0.111439
2.01428
-1.37167
0.592874
-2.20661
-1.11364
1.21579
4.82803
-1.29024
2.50464
0.194792
-1.56692
2.37879
-0.777249
-1.55312
0.518297
-1.90345
0.180967
0.149153
2.78391
-0.707303
-3.17555
-0.552044
1.34963
2.59228
1.79054
1.85537
5.11893
-0.463151
4.88185
0.234152
1.18878
1.99605
-0.911892
1.32805
-2.33315
0.637402
-1.24906
0.157671
2.52395
-0.14179
-1.40073
3.14112
3.44269
-0.852797
-0.696906
1.01283
2.34435
0.780106
-1.42751
1.15017
1.1265
0.888399
4.59509
1.04346
-2.12181
-1.32406
-1.20758
-2.66994
-3.12218
3.56296
2.60553
2.62525
0.523894
0.000617689
-1.48137
-3.92117
-0.0777041
-3.29842
-0.793752
0.237507
-1.59391
3.46723
-0.471515
-4.25515
-5.82014
0.996199
2.99714
4.45256
-2.77867
0.862038
-1.14106
2.99426
-2.63854
0.0890687
-0.686881
0.60671
2.49137
-0.772197
0.199296
2.35563
-0.12464
-0.0552201
-0.0429264
-1.95153
0.00593395
3.4907
-0.265938
-1.34133
1.16097
3.50709
0.29011
3.8018
-0.226161
0.718168
-0.367979
0.453503
2.18825
1.65509
-0.126472
0.534479
-0.464108
3.23219
-2.04699
-0.407273
-1.63906
-0.171169
2.84141
1.43696
-1.17666
-3.60147
-3.03814
1.12358
-0.591648
0.394237
-1.01023
0.934497
-2.58942
-0.911854
-0.896336
-1.37042
5.13109
-0.675031
2.54835
0.208963
0.885577
-2.74121
-0.167596
1.25781
3.37959
1.03347
-0.766239
-0.729697
-1.9845
0.859389
0.0177195
3.27219
-0.724985
1.95744
-0.804312
-2.45217
0.555322
-1.36778
1.494
-0.835674
0.06026
1.68316
1.57028
-2.30085
1.07574
-0.466916
-4.05415
0.219873
1.08552
1.55363
0.426181
0.528401
-1.50907
-4.10573
1.27907
2.04429
-2.71787
-5.64463
1.29289
-2.21191
2.29256
1.49821
-1.75741
2.88936
-0.870825
0.323496
-3.15543
1.39107
0.93137
2.00879
-0.680692
1.886
-2.08396
0.772524
-0.270712
0.219378
-0.938235
-1.48274
-1.07633
0.548433
0.599319
4.6948
-1.58952
-2.09978
-1.88571
-2.30414
0.477427
2.66012
3.33086
-2.41115
0.00421661
0.931372
1.85255
3.60246
-1.17457
2.60064
1.11164
-0.582282
0.277709
4.14093
-0.866645
0.490247
-0.136219
-3.53374
0.754198
-0.569758
-3.69708
-2.26881
2.30839
-1.00002
-1.7498
-2.20145
-2.36883
-0.144052
0.10771
-0.941743
-1.8496
-3.29762
-3.87144
-2.23489
2.4645
-0.192347
0.0610788
2.93486
4.10464
1.5302
-1.31963
1.88934
-1.95632
-0.64806
-1.95716
-1.14039
0.0500361
-0.24386
-4.31425
-3.32589
0.038384
-1.85198
0.47472
-1.12886
1.54851
-2.02082
4.20101
2.27269
1.48812
0.311619
-1.82677
-0.240884
0.981272
-2.58549
0.26208
-0.739172
-0.987236
0.0630526
-0.730504
-2.56067
-5.64486
1.8276
-4.32879
-3.29518
2.43955
-2.72983
1.14855
2.70838
0.910277
-0.0920802
-0.196002
3.64354
-0.0903255
2.78501
0.0678196
0.371952
-1.24204
1.81688
-1.34809
0.833512
0.354727
-0.26016
-0.333464
-1.6215
2.57292
1.13442
0.0451283
1.94428
0.89266
2.02752
2.61252
2.02071
-1.66718
-0.486571
-1.40749
-1.40689
-1.23454
0.599398
0.0733433
-1.86487
0.283951
-1.17103
-3.67289
0.164983
1.95877
-2.70532
-0.805489
-1.00384
0.607807
2.79067
-0.826843
0.586284
1.98806
0.503295
-2.45597
-2.25464
1.67561
-0.70917
0.07719
0.193879
-0.0695576
-4.81995
1.47493
-1.80643
-1.80179
-1.20873
0.523844
1.23655
-0.834789
-0.119554
3.03791
0.36807
1.8301
0.56088
-1.73459
3.57506
-1.80332
0.131872
-1.91257
-0.900743
-1.1095
-0.89035
2.17342
0.327558
3.226
-0.578133
-0.797978
1.23182
2.4616
-0.0314634
0.29117
0.938333
1.97071
1.24978
-2.86995
-3.77956
0.648701
-1.49746
2.19347
1.29703
-3.51898
-0.640659
0.572055
2.30833
0.337306
1.18867
0.242273
-1.67724
-1.24452
-1.54512
-2.91477
0.0935827
-2.76625
-1.51778
-3.65863
-1.56409
-1.74849
-2.31299
-4.26871
-3.47069
-2.95198
-5.01708
0.125732
-2.52338
-3.99309
1.27932
1.34541
1.92384
0.067977
-2.63539
-2.19324
-1.44635
-0.675591
-0.0600759
-0.688244
0.286055
-2.2158
-0.485311
-0.500637
0.271654
0.0296137
0.156148
-0.126868
1.10221
0.165073
-3.05187
0.347347
-2.42163
-2.72947
2.05608
1.68983
-0.750192
0.334797
-1.79148
-5.86517
-0.00782671
0.327649
1.84656
-1.38418
-0.778006
-3.34631
1.00373
-2.91312
-2.95251
-2.30158
-0.683362
1.30697
-1.87677
-0.667564
3.80193
-1.27569
0.564266
-3.45106
-1.29903
0.235575
-3.86343
-0.225179
0.641487
0.328603
-2.36992
-2.20883
2.09137
-3.84585
-3.23825
-4.22089
1.4981
1.17736
-1.89892
-3.09315
0.643911
-0.678874
-2.52202
-0.202559
-0.223527
0.69018
0.171897
0.392891
0.439211
-1.98561
-1.23463
-1.26129
-0.827702
-0.0885222
-1.11243
0.57489
-3.78428
3.1397
-0.392268
1.1052
-1.79168
1.47067
-1.33472
0.434364
-0.474492
0.86667
2.89848
-1.07538
-2.4551
0.182656
-0.530107
-0.663577
0.133341
-1.1645
0.121246
0.721256
-1.07259
1.27425
0.780767
-2.09818
-1.12919
2.13175
-0.966797
0.00198837
-1.03333
-0.474051
-0.299465
0.475416
1.34301
-1.13415
-3.98495
-1.85243
-4.54058
-2.03319
-0.0507189
2.13338
-1.78896
0.865679
-0.441794
-0.946772
2.3054
-0.95157
-0.910528
0.472237
2.50128
0.483176
-1.54425
2.92343
-2.21286
2.49829
-1.24483
-1.18769
-0.609399
-0.0930334
-1.24466
1.39503
0.90874
-0.201357
-1.42896
1.13465
-2.98344
-3.56201
-3.74784
-2.79685
-4.26248
-0.5254
-4.4399
-5.02542
-4.21766
-3.5536
-1.81409
-1.03282
-3.06017
-4.92252
-6.0704
-2.51893
-3.1984
-2.22593
1.95382
1.04705
-4.55273
-3.16136
-0.486616
-4.2192
-3.15243
-1.34168
-0.806079
-1.93705
-0.605029
0.0404493
-2.64819
-2.13484
-1.58653
-1.93029
-1.13737
-2.28282
-3.55833
-3.27668
2.70905
-1.61676
-1.22839
-2.80581
0.952507
-0.0585896
-0.760063
0.616185
-3.59455
-2.88751
-0.437335
-4.22365
-3.35104
-2.72429
-1.81172
-2.63847
-4.12333
-2.95358
-2.19825
-1.15499
0.367529
0.282031
-0.845104
-2.66992
-2.45297
-2.75863
-1.39401
0.60672
-2.78153
-1.53146
-0.0248238
2.70902
0.246011
-1.70578
-1.11496
-3.18425
-4.82212
-0.106593
-1.94336
-2.08735
3.02581
-1.49667
-1.67449
-3.67486
-0.70704
-5.1937
-3.39429
-0.116048
-1.99919
-0.240271
0.842492
-3.93852
-3.08048
0.720671
-0.3993
-2.78788
-3.77306
0.572621
-4.8062
1.26908
-3.34631
1.63298
3.14391
-3.01441
-3.00895
-3.06881
-0.629059
-1.96508
-3.29825
-3.0898
0.445192
0.953218
0.22973
-1.58184
-1.99492
1.42176
-1.38831
-3.34926
-1.28629
0.533818
2.29577
-1.91393
1.6734
-1.76461
-0.129999
0.829884
-1.91249
2.57239
-0.876936
-0.468742
-0.784319
-0.938203
3.71154
1.11677
-0.81576
0.546193
-1.17927
-0.340694
0.996672
-0.475352
-1.46556
2.1663
-2.25052
1.55522
-0.957888
0.556592
2.77454
1.95214
2.70752
-0.419089
-1.05654
1.42876
-3.61014
0.231592
1.21249
1.0487
-1.08575
-2.23396
1.985
-2.57637
0.284735
-3.47159
-1.72858
-0.125761
-1.91682
-5.50197
-6.68817
-3.55611
-2.53501
-4.53996
-4.02463
-3.45415
-3.70357
-4.35896
-3.83706
-4.14028
-3.56998
3.20341
-3.53923
-4.32699
-2.0493
-0.615204
-2.32262
-1.89123
-1.83626
-5.0886
-0.635269
-5.16652
-0.00766768
-2.45134
0.0751212
0.475031
-3.18702
-0.0935976
-2.74138
1.34199
-5.53413
-0.442726
2.82938
-0.256121
-1.25345
-0.877656
-1.89571
-4.13806
-1.18047
-3.05269
-6.18227
-0.998418
-5.80738
1.10448
-1.66805
-3.87862
-1.28465
-0.116502
-1.52895
-4.239
1.11451
-1.55819
-1.63783
-2.64692
-1.46108
0.068263
-3.33869
-2.65779
-2.68294
-1.18455
-3.96257
-4.21809
-6.93987
1.7012
0.659008
0.444448
-1.33596
-2.18535
-4.10183
-2.75721
-0.430851
-1.39979
-2.41899
0.663213
1.4112
-0.150824
-2.59641
-2.33955
-2.61415
-2.40194
-3.29836
0.156015
-4.03414
0.154423
-4.18342
-2.9446
-5.30795
-0.747798
0.0460997
-3.99112
-1.22768
-1.50975
-3.08623
-0.389535
1.71453
0.310566
-2.76547
-1.74946
1.49631
-0.277644
-5.01173
-1.16392
-2.5861
-2.65003
-0.925768
-1.6456
1.73418
-0.404572
1.90679
0.0518065
-0.322615
1.57565
-0.678263
-0.616177
0.979514
0.766696
0.582023
-1.82641
-0.324932
-2.01024
-2.59469
-0.326573
2.25304
-0.452688
-1.98744
0.972067
0.660603
-0.568862
-0.715579
-0.552835
-1.37141
-2.2852
-0.450761
-0.208004
1.19806
-2.62698
-2.83276
-1.61604
-4.98129
-0.781066
-3.21916
0.824078
-0.458795
1.31359
1.46629
-0.596596
0.305682
2.7284
-2.88007
-1.93235
-3.14664
-0.0107496
-2.55579
-1.11235
1.0356
0.360241
2.913
-1.67849
-2.20964
-5.88722
-2.6215
-5.10729
-4.03961
-0.543257
-7.09941
-1.21212
-6.06733
-2.63319
-1.60617
-1.36836
-5.95406
-5.45606
-1.7777
-2.98522
2.51539
-1.1105
-1.9574
-2.71483
-2.4156
-3.0969
-0.554515
-4.55656
-0.352941
-1.86388
-3.82375
-7.51956
-3.91219
-4.70119
-7.29129
-4.15446
-2.60413
-1.83533
-0.485428
-2.69408
0.928803
-0.378322
-3.45803
-5.99314
-3.98705
-3.51605
-1.34552
-1.72509
-1.10979
-2.45595
-2.3332
-1.27173
-0.367969
-2.85415
-1.74401
-3.3683
-3.56433
0.146967
-3.36589
-0.619286
-0.473135
0.997791
-0.356387
-1.25871
-2.32467
-0.386971
-2.01608
-2.95733
-3.56027
-0.122492
-4.20662
-1.47368
-3.57621
-2.29925
-3.29049
-2.83251
-2.51756
1.89224
-1.0132
-2.68582
-0.732304
-2.21596
-1.1497
4.61831
-1.97773
-2.22862
-3.86335
0.449158
-3.31792
-2.23223
2.43545
-4.00713
-3.77479
-3.59829
-5.66192
-0.127751
-2.48337
0.62965
1.71647
3.45815
-0.402987
-1.99125
-3.54036
-3.23354
0.422398
0.13097
-3.47072
-1.54512
-4.20607
-0.62005
-0.379404
-1.1424
-2.6161
-2.23641
-1.57131
-2.0629
-2.4043
-2.60713
-1.25392
-1.25678
1.96436
1.18472
-1.9382
1.97729
0.673369
-0.226433
-3.73474
-2.3985
-2.00955
-0.0618556
-0.542177
-2.15822
-2.63711
0.619546
1.59991
-1.12343
4.14533
-1.04358
-0.521815
-0.429575
-0.867164
1.60679
3.99366
-0.129102
0.5848
-2.03661
-1.3827
0.031276
-0.242794
0.687797
-2.93854
-0.286251
-1.12027
0.25296
-1.25048
0.587973
-2.76646
0.300475
1.24081
-0.414781
-0.0971443
0.224956
-4.08181
-0.229041
-2.55419
-3.58501
-1.98249
-5.09867
-5.13429
-6.05729
-4.85218
-2.69696
-5.45259
-5.29043
-5.84504
-4.38169
-5.05255
-5.61013
-1.73913
-2.03213
-1.90803
-1.04267
-1.03809
-1.41168
-1.27703
-1.05643
-0.423633
-4.83177
-0.484653
-4.84777
-0.0488364
0.661983
-3.89911
-0.027652
-5.18092
0.292677
-1.8981
-0.512427
-2.11374
-0.0748013
2.01034
-0.0674119
-3.11218
-5.51447
-3.13982
-2.74486
-1.51153
-4.75328
-5.00031
-3.13974
-2.19504
-4.73197
-2.82712
0.649656
-6.65059
-0.646349
-2.12561
-1.17308
-0.653294
-2.07914
-3.32563
0.215751
-2.23885
-3.5031
-2.47141
-3.11634
-3.35796
0.742291
-3.09021
-1.13956
-4.31298
-2.20559
0.341543
-1.24804
-2.53546
-3.15067
0.107063
0.227257
1.4349
0.706368
1.28895
-2.15523
-1.47181
-2.68232
-0.223143
-2.71926
-2.57461
-1.86086
-3.48039
-1.68471
-5.29646
-3.90663
-2.45406
-0.322542
-2.4337
-1.50264
-5.01141
-3.14777
-1.47697
0.915562
-0.828406
-0.23682
-3.44617
-3.7155
-0.112442
-2.78398
-2.03783
0.758868
-2.521
-2.76476
-0.423513
-2.22762
-2.99579
2.21846
-2.71928
-1.87764
-0.600927
-0.07609
-3.17007
3.67581
1.55957
-1.004
1.25586
-3.04956
-1.47317
3.12795
-2.33865
-1.19501
0.0731611
2.055
0.258229
-0.980807
-4.1492
1.71822
2.61176
1.01451
0.115809
-1.04334
-1.54471
0.45463
1.60925
-2.32313
-0.684276
-1.26214
-1.26543
0.382591
-0.967744
1.74847
-0.791049
-2.09327
-2.79109
0.806576
-0.259757
-3.20045
0.372609
-2.55808
-0.254176
-0.340006
1.06612
-1.41291
3.54629
-1.73323
-3.07607
-0.667049
0.430976
-4.68109
-3.13015
-6.30393
-3.29906
-6.30602
-8.15168
-4.46015
-7.04706
-7.52725
-5.40577
-6.27436
-0.253907
-4.15215
-2.62372
0.582642
1.07234
-1.35316
-1.7711
-1.3626
-1.44393
-2.18939
0.101207
-1.11442
-1.25276
-3.66977
0.0443252
-1.14792
-3.24963
-0.428011
-4.09543
0.195919
-1.25562
0.377193
-2.9962
0.2947
-0.852353
-0.784749
2.37931
-3.05889
-3.49785
-2.16324
-1.26224
-6.94608
-3.81821
-2.69189
-2.60935
-5.29069
-0.327081
-3.43722
-2.55317
-1.85685
-1.27587
-2.42526
-0.387723
2.15323
-3.02131
-3.50408
0.0450126
-4.46177
-3.06196
-3.70975
-5.21523
-5.0584
-1.08086
-5.64263
-0.907211
-4.88393
-1.34728
-4.33918
-2.71318
-1.53827
-3.13312
-1.72229
-1.24489
-1.04631
-3.29481
-0.535377
-1.1031
0.414846
-0.563059
0.457369
-4.25418
-2.56039
-0.67929
-2.48477
-2.95005
-5.11941
-3.3645
-1.46036
-2.56405
0.6387
-0.127163
-2.85516
2.80396
2.50574
-0.983563
-2.65105
1.76035
-2.15141
-0.808919
-0.491998
0.45932
-0.0859303
0.608103
0.0236391
-0.285528
-1.67257
-0.948102
1.05076
0.890391
-2.11376
-1.66968
-0.625414
0.395021
1.04786
1.13631
1.51839
-2.2455
-0.96874
1.59513
1.45918
-2.74493
-0.15121
0.10892
-0.0675496
-0.535052
-1.35403
-2.20907
0.195058
1.92968
1.70152
-2.43303
0.180462
-1.18573
3.42762
0.647386
-0.551973
-3.54592
0.696123
-0.274378
-0.186005
-0.213048
-1.88989
0.185746
-0.479433
0.66586
-0.624262
-1.31615
-1.1701
-1.55054
-1.53128
1.38887
1.74743
-1.04244
2.70591
1.17216
-1.87698
-1.41768
-5.36773
-0.985333
-4.3549
-3.88927
-1.12367
-7.55472
-3.212
-3.45547
-1.61762
-0.519909
-4.0107
-3.62948
-6.33469
-5.91726
-0.51332
-4.19108
-2.95597
-2.07391
-0.866817
-1.69002
-1.15704
-0.193148
0.182343
-2.46038
-3.07859
-4.16884
-2.85955
-2.05137
-2.696
-3.13548
1.28858
-1.55335
-3.79
-0.134001
-0.0249689
-3.73955
-5.26118
-2.57343
-2.02279
-0.658021
-2.27057
-3.46491
-0.439465
-2.25079
-3.33926
-1.25055
-2.02276
-3.56042
-2.41701
-2.65101
0.491655
-1.67092
-3.46963
-4.36023
-2.45974
2.09521
-0.902636
-1.75896
0.469979
1.41111
-0.19918
-0.747772
-3.37011
-5.35106
-2.09983
-4.08478
-0.948574
-6.63749
-4.68356
-1.69559
-0.195713
-2.50207
-5.46463
0.713567
1.10043
1.06164
0.625448
-3.71656
1.08187
-0.451268
-2.27703
0.0863042
-0.409915
-1.81491
-3.33613
-2.31319
-1.90974
-0.466867
-0.0762415
0.0579966
-0.668987
-0.628099
-2.10738
-4.06265
-0.735409
1.00041
0.303609
-1.32695
1.87218
-2.54995
1.91163
-1.06068
-0.663859
-2.16494
-0.233068
-4.02602
2.54748
-0.10846
1.53252
-2.64308
0.0803593
-0.832714
-3.72295
0.377488
0.680853
4.28392
4.40487
0.177268
-4.04483
-0.0269625
0.841025
0.982661
-0.714913
1.67907
1.98633
1.86824
1.90761
-1.06562
-2.23763
-3.22897
2.37536
1.4
-0.949725
0.936177
1.98761
-1.25342
0.503676
1.42775
2.09715
1.74751
-1.39446
-0.107463
-1.7933
-0.220467
-0.42167
2.51085
-0.0930038
0.686732
2.58611
1.25625
2.73692
2.22428
0.186053
1.88961
2.23485
-1.52265
-0.357764
0.334032
-1.35796
-4.08757
-6.03368
-2.92689
-2.0971
-5.4351
-2.97732
-4.46979
-2.56935
-2.15685
-4.29369
-5.63431
-1.85064
-3.51858
-5.72593
-3.27611
1.75515
-1.17242
-0.198625
3.17763
3.84934
-0.380487
1.71033
-1.59017
-4.65957
0.0868042
-3.02892
0.075348
-2.44251
0.602804
-0.317953
-1.4755
-0.550827
-1.39524
0.680422
-2.19587
0.124888
-3.16091
0.672783
1.50052
0.802289
2.96805
1.08536
-1.22878
-4.32619
-2.21911
-0.41522
-2.87117
-1.73681
-2.47181
-2.1446
-1.8769
-4.28362
-0.696907
-4.35302
0.0549779
0.90128
-1.02259
0.681505
2.43988
-0.329268
1.09077
-3.09625
0.279086
-2.76272
-1.01664
-2.42161
0.541785
0.617048
0.621939
-2.23629
-0.208753
1.47377
-0.714198
1.86511
-1.34364
-1.90319
-2.20731
1.42657
3.64437
3.02869
-2.64119
-3.50838
-0.898336
-1.37678
1.61549
-1.50379
-1.87604
0.0432537
-2.8061
0.556576
0.298303
-2.91508
-2.83576
-0.372867
-2.67238
-3.53854
-1.17776
2.15999
2.34896
-1.35634
0.69642
0.438186
0.258255
1.56694
0.42393
0.420837
-4.47766
-1.70851
-2.09237
-0.527067
-2.86007
0.550901
3.38198
-0.0434882
-1.787
-0.781562
-2.95517
1.45009
1.15296
0.0627219
-0.562708
-1.89241
-1.19897
-1.24841
-0.127595
-1.24014
0.382239
-0.773633
0.423494
-5.37642
2.21529
-0.644861
3.56143
-0.906909
-1.09897
-0.490997
1.57455
-1.68485
-1.90548
2.35419
-1.54581
1.10313
-1.87606
-0.731191
1.13313
1.14678
1.19906
0.0889789
1.94297
0.514411
-2.83647
1.70757
0.468074
0.464955
0.41628
2.38378
1.20904
-0.783494
1.34398
2.59921
0.573627
-2.46887
0.996863
0.564681
-1.84462
-3.92884
-6.07084
-2.11033
1.17747
-1.36623
-1.8666
-3.37238
-0.922648
1.58464
-5.46155
-3.46531
2.01204
0.44588
3.7938
1.42807
3.47892
-1.49767
-4.55628
-0.840147
-2.20106
-5.23834
-3.41726
-3.72177
-0.87564
-4.09214
-0.0721813
-3.37667
-1.60807
-3.9889
-2.86647
-1.55227
1.39347
0.200195
3.56442
0.543451
2.24189
-0.941846
3.97464
-1.33313
-1.87236
-3.3931
-2.31944
-3.02532
-1.86953
-0.26035
-0.499968
-2.67097
-2.04806
-1.66308
1.26904
-4.15481
2.55919
0.0419667
3.74361
1.95687
0.85262
0.143203
-1.11099
0.777909
-0.404088
1.07922
-1.50501
-2.61308
-0.136279
-4.69367
-1.6876
-1.51842
-1.8276
-0.506132
1.15799
0.975738
0.321304
0.342288
1.81833
0.792329
0.668399
-1.06764
0.695947
1.33859
3.47546
-1.53874
-0.27379
0.256071
-0.401741
-2.52476
-1.09879
-2.4235
0.444267
0.828367
-2.42621
-0.111414
2.66212
1.71065
1.32443
2.25783
0.516493
2.13058
-0.791681
-2.1198
-0.818363
0.264403
0.999046
-1.61488
-3.97996
-0.954855
-3.39138
-0.11502
-1.10387
0.168276
-2.20724
-0.836938
0.95006
-0.126257
-1.87796
2.60699
1.14504
1.58815
-3.39358
0.152259
-2.13426
-0.425755
3.03108
-4.74524
-2.26982
1.17466
-1.57015
-0.581861
-0.90587
-2.64617
-1.80608
-1.22319
-0.352109
-0.710637
-5.9797
0.180073
0.929274
0.484122
0.734085
1.74612
1.54914
1.13982
-1.33115
-0.579063
1.2923
-0.907918
0.152747
-0.934741
-0.289412
-0.33961
2.94011
-2.07237
-1.61727
-0.381934
5.22371
2.72405
1.62109
1.64279
2.74415
2.60546
-1.77464
3.11905
-2.62424
1.87061
-2.51258
-0.637448
-1.3704
-1.84169
-4.12999
-1.04425
-1.27262
-0.117909
3.21709
1.50283
4.15973
8.22335
3.24613
3.05993
-0.171655
2.31503
-1.0952
-0.979461
-0.0015887
-1.37467
-0.366321
-0.0524892
-4.19075
0.299169
0.083686
-0.255599
-3.41142
0.107567
0.473071
0.784588
1.52542
1.63688
1.74784
2.68673
1.91523
0.115407
2.81648
-1.75503
-1.92101
-1.2105
-2.53636
0.830772
-2.14524
-1.42168
-2.21486
-2.05168
-2.34748
5.12499
6.49595
-0.0942283
5.57115
4.63838
-1.65676
0.353516
0.505325
2.02227
0.381782
-3.94022
-3.72413
-2.96228
-1.93629
-2.53259
0.0353185
-0.451991
0.904831
-1.35786
-0.285807
3.87491
4.36488
2.07516
2.14805
3.9944
-0.92699
0.195517
-2.29945
1.23576
-2.08289
1.27302
-0.106432
4.5645
0.123291
-1.96465
1.52836
0.333673
-3.03656
-1.38513
-2.7685
-1.33851
-0.469846
1.11813
0.941998
3.36047
0.096162
-0.0624608
-0.652039
3.32266
2.25161
1.60822
1.24807
-1.62861
-0.753137
0.637512
0.148082
-0.940563
-2.77389
-1.48321
0.170882
-0.558675
0.908821
-0.036851
-1.09432
-0.0789379
2.47804
-1.72376
0.598414
0.273869
0.714196
-0.898243
-4.46615
3.08726
0.464401
-2.68695
1.85988
-1.96636
-2.74878
-1.94652
-1.4049
0.0349998
2.17511
1.2607
1.63637
0.188259
0.658933
-1.3193
0.433038
-0.457435
-2.00657
-0.349687
-1.98827
-3.58299
-0.662778
3.71151
3.06154
2.80503
-0.369968
0.860557
-0.51272
1.32392
0.34994
0.0671326
-0.0195383
7.14829
5.40773
2.52668
1.27613
1.14758
4.76996
1.25722
-0.765309
-0.855682
-0.929452
-0.0274235
-0.953496
0.121472
1.01625
0.568117
0.690549
1.69592
3.57997
7.79257
5.62725
3.82948
5.38096
4.29075
4.55923
-1.26913
0.134283
1.27044
1.50661
-0.0137614
1.25646
0.602793
0.9231
-4.05894
-0.00326748
0.61966
3.55883
0.892781
0.983054
2.64839
5.4091
2.38697
1.51142
3.56979
2.3808
1.93075
2.26682
1.65532
-3.17714
0.450897
0.960276
-0.988329
1.15351
0.533282
-1.05482
1.22891
0.232905
5.3472
-1.09991
2.88743
4.8459
5.10118
2.3993
2.23594
-1.18109
2.64816
2.69166
-0.392148
1.82617
3.82816
1.57382
-2.29931
0.692696
-1.78113
-1.43149
2.34922
0.334563
3.69416
0.0226074
3.06621
7.09449
0.993975
3.44157
1.58092
0.592567
1.90194
1.2585
2.78179
1.41269
2.81514
1.48114
-0.920377
-0.263565
0.252599
0.116612
3.0935
0.988792
1.56517
-0.26696
2.70879
3.5758
0.0671754
-0.745711
0.615822
0.475888
0.817199
0.863329
0.685989
0.068667
3.09056
-2.96321
-0.54589
-0.0678526
1.43831
3.21738
-0.110378
0.753619
0.614863
3.05662
2.75379
-0.168637
1.89617
-1.95917
2.85877
1.18743
-1.18578
0.925395
-1.02649
-1.84514
-1.00761
1.41578
3.82453
0.442776
-0.739361
0.320639
3.06334
1.02557
-0.356941
-0.123278
4.45997
1.19172
2.34192
-0.483786
-1.60941
-1.58678
-0.437989
0.614504
0.399283
-1.10485
-2.15115
1.37439
-0.930776
0.53369
-1.75387
0.320462
-2.80641
1.29253
0.406409
-0.16836
-0.33324
-1.42945
8.5899
6.8457
2.73741
4.58513
2.37589
1.15131
2.27387
2.54089
3.80111
-0.247675
2.27031
2.69676
0.500115
0.803019
-1.28599
4.24959
8.27874
3.81614
6.98007
6.52895
5.8234
2.52237
3.15358
1.04283
3.11191
0.563295
1.1856
0.197798
-0.706556
-0.418168
-0.227532
-0.50458
-0.0215776
-1.44923
0.676804
3.3111
0.486807
5.58169
0.773103
6.08564
4.72903
5.48045
3.67346
1.03001
-0.666897
0.623138
-1.54616
-0.281618
2.0023
3.10228
-0.140184
1.48781
-2.59138
0.800961
2.97149
3.74676
5.1887
3.37812
2.80921
1.57137
2.48242
6.74359
0.77721
3.50091
0.590754
0.503751
1.07768
0.25469
-1.66934
-1.16225
0.680462
2.55807
-0.238146
0.872784
2.88307
1.26075
1.96691
7.07518
4.32974
1.96658
4.6299
3.98709
-0.369998
3.47265
4.32043
-0.296728
0.281697
3.01847
4.07697
2.70531
2.11844
0.787765
4.06731
1.66399
-0.217586
2.60016
3.7295
2.03265
5.69083
4.11142
1.63274
0.23183
0.991828
2.68714
1.68496
0.37874
0.660763
2.88408
-2.411
0.989508
-0.78428
0.112053
-2.79626
-0.0713909
-1.84524
1.16698
-1.23143
0.0904017
2.92102
0.900254
0.621739
-0.980149
-0.324472
-0.625929
0.260226
3.66761
1.29666
-1.26444
-1.21208
-0.459075
2.20773
1.15534
3.01551
-3.13703
-3.46649
-0.0147592
2.78561
0.534353
2.4332
-0.736511
-0.957279
1.95958
3.85233
0.322636
0.701983
1.36773
-0.71603
3.91181
1.27349
-0.232476
1.5459
1.01815
1.24134
-0.284047
0.0402209
1.37095
-2.30085
0.651552
2.74903
-0.952236
9.73751
6.29916
6.55838
4.5967
2.10739
3.95164
2.51
8.19456
5.49736
-1.32244
3.56461
3.31706
4.3606
3.70164
7.20188
4.99526
6.76639
6.42808
8.93446
12.211
7.53934
7.55887
3.44077
6.3836
2.3626
6.50888
1.56376
5.42845
7.22381
1.51867
5.00541
3.45691
2.68519
3.32196
5.30276
2.38643
6.80465
3.5732
10.9653
6.22481
6.23928
10.3914
5.8803
2.68061
7.35767
6.12938
4.56954
2.31464
1.8567
3.15531
0.311049
-0.288256
5.1019
4.52757
1.9656
4.4281
4.82224
8.00992
2.66393
8.39415
7.48116
5.73727
3.24585
3.28135
5.07614
2.3484
0.0343148
-2.06032
0.199511
3.34216
0.800467
1.48676
-1.94929
1.80624
4.19675
2.10144
6.72217
3.20301
6.19961
6.85557
8.18565
2.47289
1.85703
2.22828
4.2984
3.74283
0.242461
4.88323
1.28049
0.0991438
1.70039
2.75546
-1.00565
4.68739
4.81925
1.98437
2.72709
3.96553
2.49888
1.4533
4.87368
3.82749
2.38817
2.4043
0.928112
4.17378
-1.19889
1.01051
1.87861
3.71367
5.51924
3.2208
1.89233
2.52317
2.36384
1.03414
2.24913
1.91681
2.56288
3.80425
2.73626
2.61012
4.03247
-0.326981
0.868291
-1.91637
2.54115
-0.416263
3.37667
-2.14628
1.08342
-0.32166
0.595924
-0.855389
3.09688
-3.32657
2.85015
0.856919
0.45729
0.228986
4.10318
-3.28691
5.16803
1.10653
-1.31911
0.986624
1.32271
-1.96767
0.802522
0.796663
-0.364465
0.191658
1.87063
-0.906569
-2.84847
-1.59582
-1.93663
0.63645
1.20863
1.70063
11.9431
9.26781
10.945
3.95353
11.9587
7.86984
3.59584
3.4224
3.26017
4.89614
5.73589
4.4226
6.07717
4.80974
8.55944
9.29589
6.59693
9.93538
13.4104
13.0016
10.4933
-0.408616
8.79736
0.958748
8.17784
0.799043
3.5548
0.546514
8.02008
0.185423
0.0390596
7.30109
0.163215
6.40947
1.42264
2.32765
1.0034
7.03985
0.526788
8.02953
10.2943
6.56771
5.70164
6.32542
6.25533
7.17589
2.47061
3.31311
2.3576
1.65956
4.56666
5.38834
7.50067
3.11037
6.40919
4.25109
7.8601
4.33299
12.9647
8.53032
5.49116
6.50431
5.0409
3.489
4.87626
4.6916
4.10557
1.62495
1.05833
6.27154
1.93967
1.35557
5.0012
1.99358
0.0142606
3.08403
6.47706
5.34118
6.9912
8.35324
7.19112
8.58033
6.24181
5.06081
5.57761
4.33086
3.3769
7.23363
-0.712191
-1.26149
1.13998
0.193113
3.02722
0.686185
1.75155
2.36884
2.5056
8.80305
5.16371
5.13554
5.21415
2.00044
1.0131
3.88414
2.64266
5.10305
-0.462061
1.28222
1.90046
-0.0107705
2.8242
2.08842
2.23098
1.5235
3.94911
3.78758
4.71719
3.95465
-2.54739
2.71628
1.32765
1.94345
-0.172196
1.87794
0.89974
3.11611
0.777826
2.46845
2.98218
-2.13216
1.43989
3.34515
0.74673
-0.509232
-5.25711
0.410643
0.177228
1.67323
2.70985
-0.151997
3.42249
2.83683
-1.28542
2.83792
-1.90966
0.440216
2.60756
0.467871
1.35685
-0.522296
-0.348424
0.457511
-1.52709
-1.16288
0.182943
2.10797
1.25024
2.34315
0.595402
-0.204204
9.33562
14.6915
14.0576
9.1025
8.32177
10.502
10.5738
5.71062
8.38995
5.91668
6.54691
7.12062
6.13184
11.1486
10.0773
6.98124
11.0661
13.2325
12.9602
12.2428
8.42557
10.8131
10.5669
7.54159
8.46364
4.77031
5.73995
7.83079
4.70588
5.64921
5.86421
11.2593
8.65645
6.01521
4.9954
7.12486
12.5196
13.8206
8.54294
12.6074
10.2316
8.5107
6.78029
9.19442
8.10119
4.38134
7.62061
5.49313
7.66921
7.12508
4.97497
2.84373
5.40357
6.08286
7.98
3.62504
9.71929
7.67577
7.73496
14.8266
6.44509
8.25529
6.69406
6.56472
6.01367
6.5643
7.37899
5.49405
5.28031
4.22435
3.9948
6.29356
7.39862
4.12371
4.80811
6.67106
6.28343
7.20176
3.729
7.59092
3.94034
7.95128
2.97218
6.50382
6.1309
5.03683
5.06466
4.77184
2.49639
5.06727
3.8727
1.14391
2.01398
2.94572
3.21573
2.57225
1.0131
2.68239
3.8848
6.69238
5.16055
3.46517
-0.0349626
2.31994
3.08895
3.73505
0.218654
3.36795
4.28363
2.46124
4.77107
-0.375365
2.96922
5.72512
1.47388
2.37003
2.87168
2.37784
5.3998
3.63533
1.75963
2.34456
4.96969
3.27803
2.12922
1.85245
1.84688
4.77521
1.60292
1.24024
2.23122
1.26072
1.94493
1.84473
1.64838
0.799385
1.99083
1.44888
0.180295
3.8824
0.822806
-0.0175775
0.973259
5.02655
1.29504
0.678466
-0.551595
0.501004
3.06662
2.29377
0.220873
-4.26645
1.20564
1.7553
0.535568
2.1219
1.70863
4.70432
-0.871355
-1.74342
)
;

boundaryField
{
    hotSide
    {
        type            calculated;
        value           nonuniform List<scalar> 
400
(
6.73818
0.818374
2.5914
-2.27054
1.61292
-0.376809
2.01337
-2.57974
1.26743
1.14981
-0.788283
-0.909427
-0.3652
3.61986
3.77533
8.23302
9.71093
10.8977
13.1454
10.583
3.72029
4.85194
3.11595
4.44163
0.315156
-0.65218
-2.08059
-0.813799
3.84187
-3.13657
-2.11205
-0.432361
-3.07831
1.60954
2.68647
6.50544
7.97865
7.47032
10.4802
15.9481
2.97467
0.301072
3.01576
3.5133
-2.78403
-1.99485
-2.63346
0.813332
-0.726763
0.737569
0.316858
-4.36398
-5.00741
-1.4173
2.72253
3.63754
3.88239
7.74052
12.1674
15.3233
1.39045
5.17944
2.14795
3.56369
-1.32621
1.04174
-2.79253
-0.952537
-1.23435
-1.56566
1.43515
0.0370891
-1.88349
2.0641
3.83818
2.4
5.74193
5.78958
5.18565
10.377
4.25793
4.31554
-0.171178
1.4937
3.28111
-1.78944
-1.81449
-4.51235
-4.88837
-2.57471
-3.65687
-3.31413
-1.03697
1.64713
3.7133
2.28395
3.54399
3.31046
13.2001
9.60462
5.44329
1.75245
-2.60115
1.00117
0.00212216
-0.513067
-3.25392
-5.67414
-1.60006
-0.951416
-2.08694
-2.83122
-4.35928
-0.747977
-0.654006
5.91785
2.32978
5.16403
9.11953
11.7923
4.30169
2.31778
0.511251