/*--------------------------------*- C++ -*----------------------------------*\
| =========                 |                                                 |
| \\      /  F ield         | OpenFOAM: The Open Source CFD Toolbox           |
|  \\    /   O peration     | Version:  2212                                  |
|   \\  /    A nd           | Website:  www.openfoam.com                      |
|    \\/     M anipulation  |                                                 |
\*---------------------------------------------------------------------------*/
FoamFile
{
    version     2.0;
    format      ascii;
    arch        "LSB;label=32;scalar=64";
    class       volScalarField;
    location    "0";
    object      stateMean;
}
// * * * * * * * * * * * * * * * * * * * * * * * * * * * * * * * * * * * * * //

dimensions      [0 0 0 1 0 0 0];

internalField   nonuniform List<scalar> 
3200
(
337.959
341.518
342.951
345.282
343.184
342.755
344.594
343.606
343.034
345.173
345.551
344.406
348.067
343.331
344.321
344.601
344.231
340.858
340.602
339.179
331.812
335.781
337.267
334.927
338.165
339.738
336.943
336.499
341.345
340.564
339.777
343.496
341.502
336.535
341.229
338.26
335.292
337.121
330.98
335.496
331.79
330.745
326.848
330.81
331.266
334.565
332.032
333.026
335.286
334.167
334.628
336.212
333.085
330.456
331.005
332.565
329.746
328.289
328.694
330.955
321.57
322.717
323.746
329.24
326.082
328.018
326.776
328.917
325.277
328.072
329.116
328.254
329.98
329.252
326.756
325.315
325.56
329.393
323.093
322.431
321.367
318.613
325.301
316.136
319.669
319.63
320.305
320.719
320.094
322.817
319.516
321.164
322.075
320.813
322.879
321.55
315.681
319.516
318.883
320.124
314.602
315.715
314.35
312.264
311.194
315.161
316.641
317.992
312.067
315.703
318.46
314.93
316.452
317.238
316.613
317.65
315.805
315.475
316.01
313.822
307.22
308.975
307.609
307.173
305.42
310.466
311.361
311.358
308.691
307.014
308.716
310.206
307.381
308.175
310.314
311.571
311.643
308.218
306.534
307.127
301.457
301.058
304.159
304.735
302.467
303.616
302.832
303.167
304.314
302.103
307.105
305.029
305.369
306.092
302.464
302.685
306.385
301.43
305.372
302.216
344.036
340.539
345.771
341.633
343.259
346.569
346.694
348.14
347.715
346.617
346.229
345.649
344.093
349.124
343.553
343.212
342.321
343.757
342.922
340.492
334.697
341.593
341.377
340.055
339.587
341.634
341.826
342.262
338.496
340.891
343.118
337.888
342.708
342.36
340.239
336.276
339.322
338.818
338.874
337.013
329.826
332.901
332.686
334.023
334.46
332.626
332.948
336.791
336.724
333.304
334.545
333.172
334.715
332.523
330.171
333.167
332.169
327.393
332.926
328.484
320.992
325.708
325.948
326.716
327.715
329.001
324.927
329.401
329.582
328.69
327.375
327.642
330
330.566
324.725
325.217
326.914
326.245
329.005
325.259
321.645
321.093
323.842
320.109
320.347
321.817
322.047
322.003
323.883
321.579
320.311
320.115
321.463
323.103
319.731
321.983
321.001
318.857
319.572
318.683
312.698
314.846
314.036
315.742
315.984
315.045
314.468
317.699
315.996
315.805
316.277
314.397
314.289
317.965
313.353
315.376
316.015
313.062
313.256
311.998
309.902
308.244
309.835
309.492
309.394
308.76
307.913
307.791
311.676
308.246
310.689
310.786
309.629
311.527
312.244
307.418
309.701
309.721
305.977
309.131
303.952
304.413
302.85
302.068
302.076
302.255
302.263
302.958
302.121
300.829
303.504
301.873
304.201
301.59
308.173
306.298
306.994
299.794
302.032
300.539
342.577
342.581
343.351
344.946
348.011
351.172
348.733
350.088
347.438
345.949
349.502
346.916
348.909
347.493
345.482
346.999
342.635
340.659
344.454
341.241
337.56
336.956
339.48
339.531
339.089
340.43
341.772
345.005
340.331
343.477
340.159
339.29
339.439
341.779
340.027
337.854
338.667
339.247
333.225
337.014
329.992
332.998
331.14
330.689
335.542
335.898
331.531
335.878
333.685
338.943
334.682
333.067
334.21
333.891
332.844
333.179
332.021
333.578
332.3
329.886
323.866
324.675
326.668
327.625
327.708
329.864
328.076
329.377
330.482
327.265
327.11
327.416
329.12
325.587
327.772
326.613
325.508
323.78
329.598
322.221
320.929
317.78
319.807
321.74
320.83
322.951
321.092
322.509
319.844
325.22
321.711
324.141
322.575
321.759
319.966
317.39
317.672
321.614
318.446
318.761
310.99
315.186
313.271
316.887
315.159
318.191
317.311
315.16
311.678
317.865
314.07
316.311
317.943
313.818
316.761
317.305
314.997
317.188
314.894
314.772
306.185
309.768
312.363
309.877
308.117
307.014
307.943
307.987
304.801
310.424
305.079
309.686
308.653
307.738
310.518
308.139
311.658
308.55
310.31
308.811
300.484
303.18
304.481
299.986
299.731
304.074
303.961
302.287
300.982
302.56
304.768
302.176
302.173
302.376
298.626
302.131
305.249
304.404
304.246
305.678
347.912
341.717
343.297
343.954
346.748
347.948
350.052
353.015
349.551
352.972
350.468
349.235
350.688
345.104
348.421
351.527
352.399
344.907
342.283
340.337
341.696
338.47
341.01
337.46
343.693
341.551
342.865
342.023
340.467
343.903
342.932
340.602
342.755
342.233
341.683
343.006
340.448
336.378
339.598
340.258
331.842
329.84
333.51
330.493
335.028
334.578
336.119
335.678
334.221
334.9
336.681
335.875
336.596
332.519
337.343
335.209
335.934
333.971
330.506
331.566
328.232
330.932
330.739
326.981
329.111
328.53
330.305
328.672
332.422
330.864
330.848
331.203
324.475
329.97
326.376
328.31
327.219
330.442
327.499
325.797
317.697
320.257
322.342
322.62
324.198
321.668
322.797
319.785
323.958
321.368
324.129
325.685
322.502
324.183
321.033
323.049
321.83
319.893
319.72
323.378
314.002
315.696
319.487
315.437
314.801
314.558
315.892
315.962
318.125
320.788
315.403
314.572
319.208
321.963
314.819
318.099
313.364
313.935
316.986
312.189
309.934
308.83
312.431
308.019
308.617
307.674
310.488
308.025
312.07
309.252
310.296
309.767
310.849
311.29
310.759
309
308.811
304.581
310.743
311.163
304.925
305.373
302.633
300.495
299.871
305.658
303.284
302.392
301.495
299.759
304.536
300.747
302.211
303.87
302.969
299.061
304.022
302.62
303.205
306.573
344.662
346.461
350.191
349.414
345.504
349.46
350.805
351.754
352.284
350.249
349.997
350.857
351.403
352.353
352.331
350.047
344.68
346.686
345.83
342.481
335.356
338.333
341.703
339.058
343.479
342.733
344.556
344.17
343.292
343.751
347.821
346.668
342.992
344.451
341.61
342.652
339.398
342.404
335.662
337.188
331.976
333.485
336.062
334.953
334.219
338.259
335.846
337.211
337.723
336.812
337.606
339.297
342.117
334.28
340.003
338.495
332.272
336.965
332.648
330.756
326.522
327.792
328.253
324.803
328.935
326.448
329.52
329.513
331.343
328.397
331.562
329.267
329.53
329.848
329.566
330.467
325.874
326.923
327.655
325.488
320.478
319.549
319.241
320.136
324.134
323.255
324.451
324.682
324.677
322.931
323.457
325.307
322.991
324.215
326.441
322.302
320.198
324.559
322.382
322.375
314.68
312.643
316.459
315.262
314.081
315.781
318.937
318.901
315.089
317.537
316.751
316.571
316.716
321.301
314.809
317.875
317.65
316.841
314.91
314.051
310.025
309.397
306.357
309.157
307.828
309.226
311.64
306.429
311.879
309.981
312.026
310.977
311.114
310.795
307.614
309.33
306.299
309.973
310.075
307.958
300.62
303.142
302.859
302.256
301.267
302.032
306.191
307.134
302.729
304.888
301.198
302.081
306.873
303.962
302.71
300.93
302.857
301.961
302.869
304.759
347.448
348.205
350.153
347.767
351.262
350.63
353.334
351.709
352.233
352.977
354.933
353.956
353.097
354.692
348.986
351.019
351.854
345.959
345.315
344.279
340.076
343.165
343.222
343.015
342.794
342.712
343.826
343.259
346.055
344.478
344.494
343.567
343.515
342.982
342.779
341.016
341.404
344.081
340.183
342.566
336.771
332.307
333.094
335.99
335.369
337.946
342.431
336.918
336.83
335.441
338.672
337.936
340.256
335.562
339.068
338.657
337.542
335.467
333.056
335.919
328.574
324.362
329.783
328.315
332.71
330.927
329.728
334.107
330.672
329.913
330.225
332.817
332.453
327.873
333.474
332.497
333.1
327.009
326.987
329.805
324.833
321.294
322.883
325.016
322.992
323.3
322.647
323.383
323.319
323.356
325.781
324.947
324.816
324.165
323.165
323.901
321.919
325.988
318.798
322.132
314.447
317.484
314.411
317.424
315.866
316.978
315.824
313.948
318.034
319.473
316.835
317.489
317.51
316.558
317.669
316.179
315.368
316.955
314.418
314.771
311.446
310.561
307.414
310.637
309.794
310.952
310.505
310.424
309.717
308.885
311.362
314.177
311.977
314.572
311.952
309.847
307.537
311.335
308.566
309.79
304.082
300.858
304.153
304.153
302.813
300.825
302.881
304.939
300.494
305.642
300.931
304.662
304.583
303.973
303.419
304.53
301.847
302.292
303.364
304.564
346.016
350.571
351.701
352.479
352.128
354.173
350.963
355.318
356.22
355.579
354.915
353.009
351.911
353.498
354.834
355.401
351.25
351.337
349.814
345.197
339.92
345.89
344.973
342.812
347.063
346.498
345.144
344.988
346.393
345.205
344.56
347.104
346.317
345.389
345.276
343.981
344.608
345.37
344.614
338.258
336.357
336.275
338.253
334.927
336.379
337.504
336.514
341.046
340.57
338.241
342.028
341.033
340.175
338.942
339.382
340.443
338.834
337.645
336.202
334.372
328.195
329.569
331.721
331.858
332.523
331.505
329.819
333.47
332.408
331.002
328.268
330.631
332.394
331.541
333.295
334.586
329.512
330.994
330.811
325.451
323.682
324.049
326.303
323.61
328.376
326.846
323.813
325.9
324.288
323.283
328.064
327.128
323.18
324.096
326.24
326.955
322.33
327.434
321.106
325.531
314.237
312.86
319.199
319.39
319.65
317.403
318.914
320.392
320.289
316.809
316.301
316.969
318.676
318.944
315.352
317.969
319.73
317.471
315.47
313.574
311.453
307.946
311.493
309.976
309.136
311.993
307.614
311.151
310.806
311.154
311.308
306.625
309.157
311.002
309.535
311.145
310.187
308.731
310.094
311.005
301.033
305.477
301.707
304.259
302.785
300.605
301.464
300.737
303.885
304.534
302.048
307.076
303.213
302.204
302.331
304.428
305.535
301.277
305.802
302.914
351.737
350.409
349.328
351.676
355.824
357.552
354.91
354.296
356.594
356.232
355.661
355.758
356.12
355.191
355.004
353.892
346.556
352.741
353.007
350.314
342.549
344.608
344.626
345.054
348.794
344.809
349.765
344.959
347.655
345.261
344.861
348.391
345.045
347.339
342.832
349.239
343.661
339.906
342.541
343.187
336.437
337.747
340.368
337.818
340.103
343.628
338.803
343.91
337.213
340.097
342.308
339.602
338.22
339.334
341.685
335.935
338.196
337.868
338.498
337.02
329.08
332.722
332.35
332.708
331.548
334.65
335.198
338.163
329.697
330.831
331.046
332.734
333.408
335.082
333.444
330.794
331.425
332.111
328.72
327.737
322.858
325.483
325.467
326.001
326.051
327.199
323.973
328.352
324.3
328.708
327.47
329.762
325.066
324.083
327.892
324.877
324.897
326.213
323.277
320.992
315.933
319.136
318.291
315.231
317.193
322.107
318.422
319.979
320.14
318.466
319.186
315.756
317.798
315.351
317.043
317.238
315.151
317.22
316.987
315.264
308.997
309.258
311.768
310.379
312.176
312.869
310.699
308.2
310.964
312.529
309.57
309.85
311.022
311.088
310.827
311.537
312.339
310.393
310.048
308.566
305.901
306.132
304.95
308.352
304.19
306.664
302.654
303.964
302.21
302.069
304.132
303.218
300.777
306.358
305.377
306.556
303.382
305.89
304.411
302.238
349.186
347.025
352.107
353.161
357.362
354.598
357.537
356.844
353.615
360.312
354.425
359.139
355.437
354.036
353.345
357.429
356.407
352.207
352.923
347.031
344.155
345.334
346.516
346.669
347.804
345.697
350.091
346.21
347.954
350.035
353.731
350.002
350.558
352.825
349.296
347.311
346.088
344.286
346.071
342.116
336.879
340.234
343.126
341.502
341.415
339.613
340.323
339.982
341.524
341.504
340.443
339.436
341.726
340.342
341.635
341.463
337.368
340.499
337.395
336.974
328.922
330.497
331.691
333.07
331.446
333.376
334.587
335.414
332.137
336.305
333.572
335.591
334.153
334.92
334.193
333.577
328.853
331.445
332.827
330.652
325.524
324.628
319.086
325.925
326.42
328.288
324.187
328.128
327.166
322.564
329.006
328.709
328.408
330.298
324.553
326.674
323.317
321.988
320.02
323.711
318.664
320.334
320.189
316.706
317.172
320.941
319.165
321.951
318.454
318.259
319.022
320.45
319.981
319.191
319.533
319.707
319.735
318.209
318.051
314.709
308.837
312.032
308.213
309.621
310.625
314.235
312.989
312.675
310.78
311.288
312.904
313.355
310.045
308.99
311.623
306.254
311.338
310.712
310.524
310.889
301.754
299.391
303.546
302.867
305.524
304.904
303.52
303.819
302.906
306.542
303.889
304.714
303.323
304.801
302.933
306.253
303.152
302.176
303.8
303.458
350.771
355.447
352.053
354.864
356.38
355.24
358.772
359.149
360.316
359.238
357.083
359.712
359.305
359.518
357.64
357.848
357.92
353.563
353.397
352.904
345.347
345.654
346.424
346.71
346.91
346.679
351.446
347.395
351.969
347.281
346.57
351.02
346.938
351.795
345.962
347.752
345.945
347.126
344.691
342.294
337.635
340.938
343.674
341.656
341.617
340.723
344.268
344.765
343.084
342.232
344.769
342.771
339.115
346.166
339.857
340.998
339.689
338.813
339.905
340.894
330.577
333.241
334.777
334.036
334.972
335.491
331.64
335.676
333.872
337.122
335.015
332.39
333.834
334.917
335.284
331.749
331.338
329.839
330.296
329.504
326.144
325.62
327.041
324.809
327.531
327.603
327.082
328.86
327.179
330.849
329.46
327.948
325.703
327.655
326.531
329.823
327.734
325.836
323.232
324.817
317.397
320.719
321.14
317.697
320.531
319.939
317.28
320.674
320.999
318.7
320.504
321.23
315.935
320.758
319.779
318.348
317.661
320.594
313.597
315.6
311.318
309.126
313.522
312.042
307.538
313.098
312.037
310.837
308.904
310.726
311.965
315.108
309.192
308.23
309.744
310.55
311.612
312.017
309.927
308.705
305.782
304.165
304.773
304.809
303.194
304.576
301.887
304.449
305.768
306.474
302.876
303.935
306.858
303.262
306.166
303.831
303.884
302.445
304.894
299.913
354.351
356.039
354.057
353.409
358.969
357.842
361.394
358.7
361.928
363.889
360.197
362.669
362.928
360.496
360.986
354.542
357.992
356.014
352.38
351.546
347.065
347.775
347.736
348.207
349.339
347.417
348.959
349.367
351.976
348.361
349.553
351.556
348.542
351.94
347.322
348.406
346.386
349.369
345.709
346.564
339.546
336.624
342.372
343.141
342.134
341.544
347.505
344.604
343.64
343.642
346.324
341.275
344.223
343.112
342.139
341.247
342.068
339.701
336.85
341.782
335.275
331.92
336.681
335.55
336.467
338.226
338.296
334.505
339.199
334.532
338.509
334.903
337.763
335.951
334.549
335.89
334.21
333.464
333.011
335.066
325.285
326.002
324.681
325.868
325.057
329.966
328.448
326.712
328.621
329.139
331.308
329.501
327.493
328.452
325.073
325.641
328.16
322.292
322.393
325.734
320.355
316.05
320.101
318.909
318.741
317.931
318.602
318.011
318.669
319.017
320.404
319.641
317.568
317.626
320.504
319.919
318.725
317.555
316.762
316.568
309.123
312.95
311.758
309.283
309.509
313.798
311.28
311.082
311.303
311.793
312.612
313.444
310.996
309.199
309.351
313.401
310.698
311.975
307.276
309.994
304.12
307.135
302.922
303.922
303.864
303.919
305.621
303.566
304.246
303.109
304.399
305.083
304.922
305.282
305.237
302.289
301.901
304.66
300.883
302.396
356.291
356.153
360.499
356.531
360.312
360.232
357.811
364.522
360.379
360.725
358.888
357.687
360.978
360.316
362.678
361.874
356.059
359.322
357.691
356.488
348.138
349.233
349.042
348.437
348.418
351.395
352.311
353.644
352.508
351.789
352.434
352.783
348.186
350.785
352.725
348.734
348.269
351.625
352.804
349.844
342.105
340.965
342.866
344.364
341.639
343.734
345.074
343.192
344.11
345.723
344.58
344.738
341.449
343.406
344.953
345.56
343.359
338.5
341.21
341.841
332.383
331.623
333.468
334.266
337.134
339.347
336.302
338.455
335.438
341.188
339.235
336.185
334.566
336.704
339.461
333.05
332.418
332.207
332.409
336.57
324.51
326.182
328.19
326.021
326.708
328.294
329.975
329.083
328.773
327.378
326.987
326.805
327.439
327.267
328.586
330.361
326.842
324.913
325.427
326.919
316.434
320.955
316.623
319.734
319.474
321.104
319.286
323.173
316.666
319.356
317.715
321.856
319.067
319.886
322.662
318.433
317.992
314.251
314
318.129
315.048
311.089
310.299
310.24
312.02
309.704
309.465
309.64
309.639
312.634
313.806
314.776
309.133
310.051
312.333
310.369
309.235
312.393
310.558
309.575
301.593
301.961
305.129
303.87
305.584
304.037
304.262
301.348
303.965
303.192
301.293
302.616
301.122
301.616
303.631
301.901
301.528
305.258
304.067
303.356
357.743
360.771
363.082
360.357
359.902
363.591
361.444
363.189
361.467
361.148
363.285
364.532
360.57
361.986
363.882
361.081
355.675
358.22
356.882
353.207
345.133
349.614
347.839
351.47
354.865
350.422
353.807
350.922
353.595
350.63
351.551
352.628
351.548
352.173
349.829
352.401
349.755
352.71
348.561
347.481
340.729
338.772
340.921
343.514
346.886
345.037
343.461
346.102
345.099
345.902
345.575
345.239
347.515
343.743
347.171
342.505
341.384
343.029
341.058
339.091
334.369
333.117
337.521
334.375
337.642
336.106
337.698
334.885
334.918
334.968
337.826
335.744
333.953
335.99
333.224
336.223
336.557
336.632
332.781
330.396
323.487
329.286
330.322
327.889
328.543
325.716
328.98
329.469
327.634
330.526
327.163
327.379
330.508
330.312
327.704
329.838
330.53
327.992
324.485
324.167
320.323
318.363
318.741
319.048
317.864
319.124
319.231
324.214
321.505
321.918
320.353
322.656
319.185
316.27
319.591
321.218
320.088
322.134
317.609
317.814
311.338
312.018
313.419
312.802
312.926
311.877
313.051
311.48
312.671
311.493
317.292
309.682
312.507
308.25
312.656
312.777
312.094
309.952
313.14
313.306
301.469
305.387
302.762
305.767
304.647
302.806
302.813
302.778
303.9
302.053
303.482
306.825
302.269
303.492
303.474
303.5
301.507
302.656
304.624
302.479
355.932
358.232
361.612
358.495
359.268
361.996
364.36
366.729
362.928
359.724
362.267
362.685
364.03
361.354
358.566
365.295
362.957
357.131
358.36
354.737
349.416
347.598
352.866
356.226
352.806
354.443
357.723
356.098
356.542
353.768
356.984
352.892
356.058
354.093
356.231
354.832
353.222
349.975
350.877
347.28
342.566
341.06
344.489
339.827
345.386
346.158
347.885
346.977
347.801
346.707
345.097
345.276
347.329
346.54
345.949
342.784
347.957
340.988
343.26
339.365
333.375
334.635
335.544
337.008
335.324
336.697
335.382
338.102
339.306
336.879
341.437
338.381
338.115
338.289
336.799
334.944
334.921
335.366
335.146
333.514
326.73
326.974
328.865
327.263
326.78
324.793
329.937
328.778
328.323
329.02
331.143
329.678
330.928
327.954
327.44
330.545
328.07
325.135
325.931
326.198
317.429
319.255
317.751
320.79
322.232
321.036
320.048
319.388
322.056
324.449
321.424
323.832
320.502
321.416
320.05
322.319
320.835
318.932
319.897
321.565
309.226
310.738
310.361
315.413
311.936
314.286
312.634
309.222
317.03
314.572
311.127
313.855
312.835
313.114
314.798
313.894
313.242
312.301
312.594
317.813
303.788
303.056
303.523
303.296
302.307
302.526
302.953
305.44
304.698
302.833
305.033
303.966
305.044
304.382
304.415
301.113
306.102
305.624
304.367
298.744
358.124
359.481
359.768
358.986
359.435
364.103
359.461
365.407
361.055
365.513
363.637
364.296
364.625
366.71
363.372
363.313
361.848
358.194
359.599
356.688
344.632
349.824
350.276
353.785
351.566
355.226
355.328
354.528
356.024
355.08
354.766
358.84
354.227
354.265
354.387
357.292
353.505
352.863
352.285
351.33
343.175
343.242
342.528
343.533
345.561
343.071
347.827
348.142
347.536
348.916
345.549
348.471
347.643
348.287
347.939
348.023
340.323
338.719
345.084
339.241
332.089
338.527
336.699
336.74
335.409
337.222
341.695
341.601
340.925
339.943
340.54
337.928
338.329
336.85
338.962
337.717
333.37
332.688
334.795
334.579
324.614
329.645
328.664
331.308
327.918
331.371
328.133
329.607
325.003
329.479
331.567
328.04
329.167
332.443
330.673
331.923
330.348
329.33
327.6
327.666
317.103
320.445
320.704
321.4
317.529
318.696
319.424
319.852
322.777
321.926
320.535
321
322.041
323.806
322.431
320.681
321.307
319.733
320.578
321.557
312.378
309.867
314.13
311.872
312.258
311.876
313.539
317.147
309.623
312.261
315.412
310.85
314.647
315.39
314.537
313.937
312.435
310.231
311.084
310.663
303.936
303.481
305.479
303.748
304.659
306.229
304.588
306.24
307.845
304.93
300.555
301.2
301.447
304.608
303.361
304.715
302.857
303.81
304.073
304.144
356.18
358.153
361.318
362.859
363.268
359.906
363.645
365.849
366.068
366.207
365.305
366.165
364.963
363.886
364.108
363.725
362.439
360.265
355.768
357.701
351.175
349.821
351.155
351.139
357.211
356.033
355.093
355.014
356.646
355.433
356.086
355.709
360.58
356.366
355.547
352.383
354.805
354.463
352.554
349.595
344.244
345.284
343.431
344.833
345.489
345.344
346.122
351.088
347.553
347.093
349.041
346.85
347.378
348.832
346.382
347.187
341.867
348.101
343.908
341.785
333.114
335.948
336.279
339.871
336.211
336.323
339.543
337.434
335.509
337.802
341.675
338.644
341.041
340.582
336.666
338.524
334.996
338.492
335.281
331.121
328.772
326.425
328.417
329.54
328.363
329.128
327.71
329.164
327.822
329.187
331.588
330.901
330.324
330.375
327.293
329.276
328.568
330.265
327.158
326.19
321.223
322.108
320.839
321.076
320.829
320.87
321.122
321.8
318.821
324.897
322.48
321.98
320.431
318.591
321.843
320.892
320.937
318.398
318.608
321.459
310.9
314.798
310.036
311.766
314.195
312.136
314.133
314.988
314.177
311.766
309.357
312.726
313.882
312.786
309.998
311.983
313.31
313.018
308.379
311.604
301.949
304.789
305.933
305.93
304.8
303.765
303.996
305.512
306.567
303.046
305.351
303.882
306.161
304.075
307.186
303.069
303.937
304.492
304.638
305.72
357.351
359.31
363.679
362.095
364.559
366.018
365.099
364.995
363.848
367.956
365.438
364.952
367.036
366.57
368.455
362.685
358.401
362.6
359.176
359.412
351.443
354.926
354.518
356.858
355.01
357.762
357.316
358.445
359.449
359.211
359.021
359.247
358.665
359.951
357.648
354.811
357.414
352.09
356.675
351.18
343.813
343.212
345.208
348.045
349.93
348.812
351.13
349.986
347.785
346.728
349.97
348.299
352.295
348.783
346.464
345.516
343.886
345.503
345.883
346.971
337.295
333.154
339.275
336.71
339.773
340.001
339.55
340.471
342.463
341.991
340.149
338.236
340.964
339.755
337.622
339.103
338.244
332.977
335.568
337.81
326.35
327.086
331.562
327.843
327.115
331.842
331.358
328.698
327.692
329.092
329.679
330.981
327.649
329.976
331.763
328.835
327.586
329.159
325.382
326.869
320.524
321.991
321.316
319.709
320.796
322.181
321.967
319.798
325.132
321.75
323.524
322.609
325.478
322.699
324.405
321.314
323.627
322.218
319.302
321.257
312.694
314.335
313.731
314.086
313.251
309.89
312.302
314.896
314.867
314.125
311.458
312.5
310.616
316.736
317.024
313.526
310.674
312.873
310.922
314.053
305.422
302.518
300.643
304.19
303.828
303.178
305.276
300.659
303.305
304.814
303.036
303.56
303.33
304.844
304.506
303.159
306.814
303.843
301.729
305.417
358.883
362.519
362.498
364.701
367.422
365.789
367.414
361.875
364.675
371.546
366.659
366.855
365.709
366.222
362.539
364.534
362.532
362.628
359.884
356.41
352.035
352.182
356.505
353.772
357.994
354.031
359.135
355.398
353.69
359.441
355.955
357.457
358.141
357.377
355.237
357.971
353.351
356.373
348.776
353.349
344.245
340.231
344.915
348.292
343.785
345.17
346.863
349.226
349.759
348.499
351.343
351.904
346.439
346.905
349.333
346.715
346.151
342.785
347.958
342.09
333.877
335.733
338.365
338.475
336.819
339.675
342.099
344.281
342.083
338.972
341.514
340.796
344.17
340.327
337.826
339.794
335.034
338.408
335.27
334.502
324.018
329.817
330.543
330.285
328.323
328.978
332.564
327.992
331.643
332.848
331.247
330.168
333.881
328.119
327.902
330.637
329.786
328.434
329.791
330.751
318.155
319.263
320.78
320.845
322.398
319.224
324.658
322.497
321.663
319.846
318.041
320.321
321.616
320.936
321.034
322.292
321
321.251
320.527
319.225
311.103
311.265
309.89
314.298
313.149
315.976
311.556
314.542
310.77
316.304
313.075
314.469
313.53
314.952
310.963
317.344
311.121
313.065
313.418
313.61
300.537
307.939
299.5
303.577
306.019
303.727
303.403
306.704
303.94
303.95
305.111
304.551
302.865
305.633
307.562
306.296
306.621
304.032
303.443
302.939
359.248
362.106
360.648
367.861
360.068
364.35
368.79
369.096
369.35
367.762
366.922
368.187
366.441
367.576
363.661
362.731
365.218
361.658
357.964
358.189
351.268
362.325
353.308
361.339
354.304
361.851
359.239
362.362
354.969
362.845
362.991
355.688
362.746
356.385
361.227
360.154
361.295
355.065
361.389
353.731
342.01
345.864
346.89
346.431
346.657
345.878
350.706
349.961
350.984
351.717
348.81
347.954
345.773
350.067
346.645
348.661
344.896
348.259
339.467
343.774
337.336
336.426
338.02
339.706
338.447
338.747
339.434
341.995
342.618
337.432
341.764
342.32
338.619
341.546
343.425
340.239
336.718
337.72
335.939
334.474
326.143
324.833
327.273
328.558
328.141
329.479
330.511
326.716
334.706
335.277
332.876
333.801
330.923
333.202
332.058
331.35
331.113
324.712
328.249
328.198
318.615
321.886
322.945
320.149
321.461
319.066
324.687
322.988
322.401
324.328
321.493
322.213
322.039
322.701
320.22
320.316
319.316
320.003
326.433
321.113
312.989
312.407
314.566
312.561
313.582
311.405
313.776
312.113
311.618
316.742
313.17
311.255
313.834
315.063
319.778
314.071
314.262
312.721
311.64
314.469
301.378
301.974
306.11
302.003
306.765
304.428
302.271
304.42
303.538
305.42
305.246
304.437
306.415
306.042
304.685
302.747
303.591
302.482
304.216
305.004
363.864
358.68
359.52
364.684
365.662
363.662
363.744
368.73
366.136
368.653
368.023
367.405
368.309
363.169
364.087
367.003
362.72
360.345
360.411
360.957
354.979
352.738
353.163
356.369
355.62
359.471
358.636
356.652
359.851
358.946
358.731
353.298
355.827
358.361
359.246
356.959
351.391
349.909
355.008
350.798
343.399
345.241
347.123
344.863
346.103
349.957
346.832
349.051
346.938
347.515
349.665
351.763
349.14
348.37
346.358
350.579
344.338
346.227
346.017
338.804
337.426
335.714
337.399
337.654
338.326
337.886
337.165
339.125
339.391
340.474
340.703
338.377
337.22
340.42
339.642
337.669
337.936
336.891
340.24
336.28
330.182
326.246
331.321
327.888
328.355
329.535
329.581
329.932
332.249
329.699
330.893
333.601
332.69
331.7
331.356
331.914
333.379
331.611
330.312
327.43
319.219
320.968
324.537
322.253
321.551
320.967
324.535
321.428
320.541
322.379
320.069
325.2
321.827
319.029
323.228
322.27
321.701
322.124
319.033
320.745
312.883
312.33
309.746
311.48
312.67
312.984
313.021
310.118
313.307
313.679
312.688
313.649
312.948
313.023
313.188
314
312.767
313.267
314.495
310.761
304.085
304.937
303.96
299.92
303.666
304.295
305.536
304.491
301.931
302.707
304.78
309.264
303.786
303.229
304.437
302.839
303.238
300.229
305.79
306.651
)
;

boundaryField
{
    hotSide
    {
        type            fixedGradient;
        gradient        nonuniform List<scalar> 
400
(
321.511
322.87
325.591
329.677
335.133
341.965
350.181
359.788
370.794
383.208
397.037
412.289
428.971
447.088
466.647
487.651
510.105
534.011
559.372
586.191
323.738
325.08
327.767
331.802
337.194
343.949
352.078
361.591
372.498
384.81
398.537
413.687
430.268
448.289
467.755
488.672
511.043
534.872
560.161
586.913
326.149
327.47
330.116
334.091
339.406
346.071
354.099
363.503
374.296
386.491
400.101
415.136
431.606
449.52
468.885
489.706
511.988
535.735
560.948
587.63
328.704
330
332.597
336.503
341.73
348.292
356.205
365.485
376.15
388.215
401.695
416.604
432.954
450.753
470.009
490.73
512.919
536.579
561.714
588.325
331.33
332.599
335.142
338.97
344.099
350.546
358.332
367.477
378.003
389.928
403.271
418.047
434.27
451.949
471.095
491.712
513.807
537.382
562.439
588.978
333.918
335.158
337.643
341.389
346.414
352.74
360.392
369.397
379.779
391.562
404.765
419.407
435.503
453.065
472.101
492.618
514.622
538.114
563.096
589.569
336.321
337.531
339.959
343.622
348.544
354.751
362.274
371.142
381.385
393.031
406.101
420.618
436.595
454.047
472.983
493.409
515.33
538.747
563.663
590.076
338.36
339.543
341.92
345.509
350.339
356.44
363.847
372.595
382.718
394.244
407.2
421.608
437.485
454.844
473.695
494.045
515.897
539.253
564.114
590.478
339.852
341.015
343.352
346.885
351.645
357.665
364.985
373.643
383.675
395.113
407.984
422.312
438.116
455.407
474.197
494.491
516.294
539.606
564.428
590.758
340.643
341.795
344.11
347.613
352.334
358.311
365.584
374.193
384.176
395.567
408.393
422.679
438.443
455.699
474.456
494.722
516.498
539.788
564.589
590.901
340.643
341.795
344.11
347.613
352.334
358.311
365.584
374.193
384.176
395.567
408.393
422.679
438.443
455.699
474.456
494.722
516.498
539.788
564.589
590.901
339.852
341.015
343.352
346.885
351.645
357.665
364.985
373.643
383.675
395.113
407.984
422.312
438.116
455.407
474.197
494.491
516.294
539.606
564.428
590.758
338.36
339.543
341.92
345.509
350.339
356.44
363.847
372.595
382.718
394.244
407.2
421.608
437.485
454.844
473.695
494.045
515.897
539.253
564.114
590.478
336.321
337.531
339.959
343.622
348.544
354.751
362.274
371.142
381.385
393.031
406.101
420.618
436.595
454.047
472.983
493.409
515.33
538.747
563.663
590.076
333.918
335.158
337.643
341.389
346.414
352.74
360.392
369.397
379.779
391.562
404.765
419.407
435.503
453.065
472.101
492.618
514.622
538.114
563.096
589.569
331.33
332.599
335.142
338.97
344.099
350.546
358.332
367.477
378.003
389.928
403.271
418.047
434.27
451.949
471.095
491.712
513.807
537.382
562.439
588.978
328.704
330
332.597
336.503
341.73
348.292
356.205
365.485
376.15
388.215
401.695
416.604
432.954
450.753
470.009
490.73
512.919
536.579
561.714
588.325
326.149
327.47
330.116
334.091
339.406
346.071
354.099
363.503
374.296
386.491
400.101
415.136
431.606
449.52
468.885
489.706
511.988
535.735
560.948
587.63
323.738
325.08
327.767
331.802
337.194
343.949
352.078
361.591
372.498
384.81
398.537
413.687
430.268
448.289
467.755
488.672
511.043
534.872
560.161
586.913
321.511
322.87
325.591
329.677
335.133
341.965
350.181
359.788
370.794
383.208
397.037
412.289
428.971
447.088
466.647
487.651
510.105
534.011
559.372
586.191
)
;
    }
    coldSide
    {
        type            mixed;
        refValue        uniform 300;
        refGradient     uniform 0;
        valueFraction   uniform 0.991591;
        source          uniform 0;
        value           nonuniform List<scalar> 
400
(
300.012
300.033
300.004
300.041
300.005
300.034
300.009
300.05
300.015
300.049
300.035
300.013
300.012
300.032
300.033
300.016
300.046
300.005
300.012
300.034
300.009
300.037
300.027
300.045
300.026
300.007
300.046
300.052
299.995
300.035
300.06
300.016
300.045
300.026
300.029
300.04
300.021
300.067
300.017
300.042