/*--------------------------------*- C++ -*----------------------------------*\
| =========                 |                                                 |
| \\      /  F ield         | OpenFOAM: The Open Source CFD Toolbox           |
|  \\    /   O peration     | Version:  2212                                  |
|   \\  /    A nd           | Website:  www.openfoam.com                      |
|    \\/     M anipulation  |                                                 |
\*---------------------------------------------------------------------------*/
FoamFile
{
    version     2.0;
    format      ascii;
    arch        "LSB;label=32;scalar=64";
    class       volScalarField;
    location    "0";
    object      relativeErrorField;
}
// * * * * * * * * * * * * * * * * * * * * * * * * * * * * * * * * * * * * * //

dimensions      [0 0 0 1 0 0 0];

internalField   nonuniform List<scalar> 
3200
(
0.00541146
0.00855914
0.011288
0.0129149
0.0140639
0.0147579
0.0147075
0.0147115
0.0147483
0.0143916
0.0137312
0.0136606
0.0133774
0.0128631
0.0124683
0.0118962
0.0105821
0.00868896
0.00626257
0.00329439
0.00510797
0.00769416
0.0101383
0.0116073
0.0126986
0.0131033
0.0130915
0.0132032
0.0130559
0.0127473
0.0124916
0.0122713
0.0117359
0.0115233
0.0111052
0.0103437
0.0095135
0.00802179
0.00570387
0.00304213
0.00465925
0.00672963
0.00861216
0.0100445
0.0109938
0.0113239
0.0114116
0.0112926
0.0110884
0.0110371
0.0106829
0.0105512
0.0102486
0.00996487
0.00952975
0.00897606
0.00823769
0.00689198
0.00510448
0.00309608
0.00420655
0.00549316
0.0072993
0.00843876
0.00910308
0.00924607
0.00962789
0.00937289
0.00938003
0.00898121
0.00897332
0.0085562
0.00874427
0.00829845
0.00790783
0.00763691
0.00694839
0.00571305
0.00422144
0.00267692
0.00309154
0.00449722
0.00569653
0.00678889
0.00709525
0.00746385
0.00750346
0.00773785
0.00754909
0.00719129
0.0069447
0.00690248
0.00689848
0.00646447
0.00633047
0.00617515
0.00538225
0.00481578
0.0035476
0.0023786
0.0024523
0.00343786
0.00449071
0.0048542
0.00510702
0.00551811
0.00541245
0.00542976
0.00537954
0.00519406
0.00511948
0.00509129
0.00489091
0.0047445
0.00478448
0.00440752
0.00411913
0.00373215
0.00257417
0.00172302
0.00142519
0.00197232
0.00227861
0.0027226
0.0032051
0.00313138
0.00335874
0.00348642
0.00313211
0.00315783
0.00320866
0.00317138
0.00298341
0.00291186
0.00271003
0.0026491
0.00266394
0.00188703
0.00166008
0.00107838
0.000399318
0.000660121
0.000966378
0.000844257
0.00110864
0.00124504
0.00129505
0.000831015
0.00110034
0.000942611
0.00116142
0.0012312
0.000974704
0.000906863
0.00101469
0.000920557
0.000872201
0.000776084
0.000580606
0.000432978
0.00555356
0.00843269
0.0112206
0.0130389
0.0139213
0.0143184
0.0144744
0.0142901
0.0140585
0.0137357
0.013563
0.0131862
0.0129181
0.0122867
0.0121123
0.0117231
0.0106711
0.00891797
0.00635142
0.00320795
0.00483607
0.00793222
0.00997868
0.0115123
0.0123504
0.0128839
0.0128623
0.0125103
0.0124436
0.0121531
0.0117275
0.0116588
0.0113866
0.0112635
0.0108139
0.0101618
0.0093535
0.00767314
0.00570576
0.00308803
0.00470707
0.00646447
0.00870443
0.00992218
0.0107651
0.0112494
0.0112578
0.0109559
0.010851
0.0106202
0.0103258
0.0101856
0.0098532
0.00978865
0.0094789
0.0089312
0.00816983
0.00689374
0.00480448
0.00295417
0.00420106
0.00547194
0.00716401
0.00829214
0.00889614
0.00918869
0.00920673
0.00906206
0.00906594
0.00867928
0.00878562
0.00854352
0.00825114
0.00778476
0.00807648
0.007615
0.00680856
0.00569914
0.00423622
0.00257609
0.00329041
0.00464874
0.00601381
0.00675675
0.00707827
0.00721785
0.00744568
0.00724925
0.00702744
0.0069679
0.00673609
0.00660898
0.00671652
0.00643041
0.00625137
0.00584827
0.00525377
0.00451893
0.00326644
0.00253217
0.0023973
0.00332826
0.00420935
0.00454486
0.00538458
0.00552277
0.005479
0.00535141
0.00542502
0.00514646
0.00516512
0.0048942
0.00479171
0.00465617
0.00449633
0.00437108
0.00385897
0.00356686
0.00233157
0.00158355
0.00143395
0.00185777
0.0025359
0.00310168
0.0030951
0.00331265
0.00326667
0.0033092
0.00309391
0.00303835
0.00294713
0.0029382
0.00284356
0.00299141
0.00269939
0.00280505
0.00233577
0.00209471
0.00164959
0.000964594
0.000641927
0.00100516
0.000721434
0.00109988
0.000962747
0.00109072
0.00101544
0.00104681
0.00123675
0.00107937
0.00088163
0.000948871
0.000943695
0.00098866
0.000939929
0.00101105
0.000620112
0.000813239
0.000647668
0.000212042
0.00521316
0.00843857
0.0108104
0.0127259
0.0135594
0.014077
0.0141231
0.0137539
0.0133984
0.0127346
0.0123642
0.0122419
0.0119637
0.0119584
0.0117321
0.0109405
0.0100715
0.00855623
0.0063207
0.0032094
0.00533417
0.00764138
0.00980845
0.0113973
0.0121171
0.0127249
0.0122955
0.0121329
0.0117915
0.0115985
0.0112109
0.0105465
0.0106468
0.0105907
0.0100983
0.00977791
0.00920699
0.00776091
0.00535818
0.0030723
0.00455305
0.00655455
0.00845141
0.00989255
0.0106581
0.010914
0.0107515
0.0103786
0.0103993
0.00981153
0.00968337
0.00907169
0.00941385
0.00903418
0.00902452
0.00870919
0.00791934
0.00675719
0.00495289
0.00282896
0.00402146
0.00560034
0.00706266
0.0080738
0.00864806
0.00903682
0.0091979
0.00906082
0.00865188
0.00814143
0.00815037
0.00790718
0.00766719
0.00787386
0.00742805
0.00716737
0.00659324
0.00561126
0.004517
0.0025128
0.0030203
0.00429682
0.00569412
0.00644528
0.00691614
0.00733059
0.00679336
0.00708859
0.00701654
0.0065966
0.00637599
0.00611427
0.00607852
0.00636994
0.00602126
0.00584662
0.00546667
0.00456875
0.00321781
0.00185103
0.00240862
0.00325421
0.00402855
0.00458946
0.00493835
0.0050911
0.00545101
0.00522566
0.00481233
0.00494011
0.00453314
0.0046141
0.00472688
0.00431773
0.00428946
0.00401067
0.00395697
0.00325155
0.00248425
0.00150871
0.00169526
0.00196947
0.00260669
0.00264222
0.00298335
0.00304126
0.00319075
0.00307319
0.00315076
0.00298801
0.0028511
0.00270731
0.002727
0.00243765
0.00270904
0.00264774
0.00222013
0.00203835
0.00158985
0.000914339
0.000605292
0.000645047
0.000850189
0.000898978
0.000885489
0.000923599
0.000880677
0.000816324
0.00103772
0.000894508
0.000781925
0.000938587
0.00114186
0.00112691
0.000955114
0.000788232
0.000859859
0.000460413
0.000454513
0.000401364
0.00517073
0.008029
0.0107139
0.0120223
0.0132114
0.0132011
0.0132962
0.0129296
0.0124463
0.0118611
0.0114443
0.0110796
0.0111239
0.0111126
0.0110075
0.0107033
0.00993192
0.00823403
0.00595001
0.00312068
0.00490432
0.00764629
0.00941753
0.0107972
0.0114607
0.0118776
0.0119517
0.0114683
0.0109611
0.010557
0.0103635
0.0101393
0.00966283
0.0100083
0.00988534
0.00922052
0.00856782
0.00725921
0.00543646
0.00311381
0.0045365
0.00624918
0.00829708
0.00939108
0.0102164
0.0105038
0.0101437
0.0102123
0.00962366
0.00924201
0.00882198
0.00869285
0.00878881
0.0084634
0.00855197
0.00819832
0.00753521
0.00644224
0.00465487
0.00271354
0.00383833
0.00546171
0.00682134
0.00773312
0.00844892
0.0087742
0.00861926
0.00824017
0.00799635
0.00751201
0.00763499
0.00738727
0.00697456
0.00704219
0.00710043
0.0068448
0.00651026
0.00526107
0.00400998
0.00245665
0.00292912
0.00453777
0.0057455
0.00624788
0.00673811
0.00680852
0.00670571
0.00641475
0.00637398
0.00600265
0.00592826
0.00570297
0.00557405
0.00554328
0.00575389
0.0052528
0.00529909
0.00424557
0.00322742
0.00196017
0.00223457
0.00336346
0.0041633
0.00440185
0.00478596
0.00515863
0.0050613
0.00480626
0.00463809
0.0046818
0.00423607
0.0042472
0.00405625
0.0044197
0.00412742
0.00409549
0.00361154
0.00305525
0.00247355
0.00136288
0.00144301
0.00201378
0.00260999
0.00285512
0.00299222
0.00307188
0.00283216
0.00271266
0.00275238
0.00288457
0.00254857
0.00238541
0.00250948
0.00239573
0.00257335
0.00249298
0.00228757
0.00195857
0.00130928
0.00109524
0.000569727
0.00055344
0.000793754
0.000853647
0.000832479
0.00111355
0.00101632
0.000959639
0.000809033
0.0010481
0.00103657
0.000867627
0.000689554
0.000847969
0.000889199
0.000648867
0.000835968
0.00075343
0.000289966
0.000505616
0.00484857
0.00780925
0.0100383
0.0116485
0.0124573
0.0127375
0.012357
0.0120405
0.0112955
0.0107603
0.0103811
0.0100413
0.00987171
0.0101188
0.0100186
0.0100016
0.00892853
0.00744861
0.00532869
0.00272495
0.00457357
0.00712787
0.00892243
0.0104613
0.0111831
0.0114441
0.0110558
0.010811
0.0103648
0.00974413
0.00921951
0.00905611
0.00904443
0.00906697
0.00897586
0.00869384
0.00814854
0.00694578
0.00497896
0.00279052
0.00427111
0.00625386
0.00765635
0.00937771
0.00973631
0.0099042
0.00981871
0.00908697
0.00870434
0.00846318
0.00801135
0.00776411
0.00789809
0.00790422
0.00784251
0.0076631
0.00706835
0.00606454
0.00443826
0.00259563
0.003581
0.00544199
0.00686287
0.00763325
0.0081755
0.00822268
0.00792989
0.00792875
0.00744345
0.00670367
0.00663456
0.00673145
0.00659582
0.00655099
0.00660816
0.00644356
0.00608109
0.00504613
0.00358091
0.00260843
0.0032859
0.00440994
0.00525764
0.00604372
0.00638746
0.00652758
0.0064472
0.00617842
0.00590184
0.00567523
0.005393
0.00533229
0.00525746
0.00520887
0.0051062
0.00519035
0.00463256
0.00425242
0.00317395
0.00218541
0.00217224
0.00303322
0.00419095
0.00428101
0.00469518
0.00486386
0.00477972
0.00439322
0.00415822
0.00413567
0.0040166
0.00360637
0.00393118
0.00381937
0.00382063
0.0037335
0.00333222
0.00311358
0.00214296
0.00173125
0.00130908
0.00172315
0.00252206
0.00284825
0.0028313
0.00285332
0.00278927
0.00265495
0.00268542
0.00238484
0.00253301
0.00214107
0.00239997
0.00210932
0.00231208
0.00221615
0.00218296
0.00166532
0.0015914
0.00102953
0.00061452
0.000829003
0.00108027
0.00104672
0.00109427
0.00108101
0.00121574
0.000979921
0.000965788
0.000939672
0.000996692
0.000681217
0.000773923
0.000760365
0.000884494
0.000804772
0.000890527
0.000508545
0.000567761
0.000445291
0.00455477
0.00732853
0.00933358
0.0111156
0.0120376
0.0119261
0.0118309
0.0112144
0.0105243
0.0100007
0.00944681
0.00900814
0.00889824
0.0091054
0.00934819
0.00917033
0.00859029
0.00716386
0.00499744
0.00251892
0.00421228
0.00667712
0.0086049
0.00981537
0.0107146
0.0105987
0.0104093
0.0101356
0.00931359
0.00888591
0.00836011
0.00817287
0.00816374
0.00831468
0.00839261
0.00824564
0.00763409
0.00621873
0.0046778
0.002489
0.00412101
0.00570913
0.00757258
0.0087631
0.00928769
0.00915202
0.00903149
0.00872414
0.00820271
0.00771664
0.00750317
0.00719147
0.0070426
0.00725724
0.00740322
0.00712756
0.00659152
0.00573108
0.00420697
0.00254747
0.00341318
0.00476325
0.00656408
0.00723002
0.00786617
0.00773703
0.00760517
0.00727026
0.00697755
0.00631597
0.00622957
0.00602008
0.00594227
0.00606863
0.00608555
0.00617285
0.00556398
0.0047291
0.00341018
0.00228592
0.00299674
0.00390936
0.00515341
0.00578723
0.00590911
0.00627224
0.00592888
0.00580522
0.00535695
0.00508362
0.00476353
0.00474979
0.00486361
0.00501003
0.00508675
0.00501719
0.00463978
0.00366327
0.00266249
0.00161178
0.00210751
0.00304727
0.00369254
0.00432665
0.00441601
0.00475688
0.00443444
0.00430739
0.00387168
0.00362825
0.00371678
0.00360579
0.00331779
0.00348971
0.00361238
0.00345835
0.00319707
0.00271692
0.00211917
0.00137041
0.00132101
0.00174584
0.00220054
0.00278673
0.00285009
0.00288822
0.00271157
0.00252705
0.00245625
0.00217621
0.00232679
0.00226636
0.00221104
0.00203621
0.00193415
0.00218377
0.0018581
0.00161143
0.0012321
0.000677563
0.000335338
0.000724863
0.00072669
0.000810054
0.00092617
0.00100454
0.000799591
0.000666192
0.000828359
0.000843373
0.00063402
0.000912951
0.00074216
0.00069516
0.000647586
0.000988274
0.000762114
0.000715075
0.000184692
0.000113589
0.00400105
0.0069001
0.00890869
0.0106452
0.0114101
0.0112918
0.0111321
0.0103231
0.00939112
0.00899732
0.00828277
0.0081551
0.00807894
0.00847586
0.00852247
0.00839295
0.00777577
0.00650231
0.00454623
0.00236098
0.00396401
0.00597973
0.00823892
0.00943334
0.0101801
0.00998524
0.00976556
0.00928041
0.00869359
0.00794161
0.0073364
0.00736447
0.00719107
0.00751896
0.00768261
0.00779321
0.00720921
0.00610959
0.00433383
0.00235737
0.00357694
0.00541444
0.00694445
0.00834601
0.00898554
0.0088308
0.00854089
0.00828172
0.00739094
0.00708735
0.00646889
0.00614116
0.0064189
0.00684534
0.00662616
0.0065349
0.00625477
0.00548152
0.00388629
0.00210989
0.00336288
0.00469902
0.00586151
0.00696107
0.00717625
0.00734695
0.00706472
0.00689901
0.00651615
0.00586549
0.00530681
0.00556256
0.00537962
0.00549264
0.00561717
0.00577469
0.0050319
0.00441325
0.00341389
0.00211807
0.00264618
0.00364325
0.00467212
0.00545436
0.00585759
0.00588172
0.00592227
0.00546987
0.00497053
0.00469453
0.00452254
0.00434181
0.00434983
0.00420868
0.00441115
0.00439504
0.00428866
0.00358357
0.00263986
0.0017998
0.00209485
0.00281844
0.00329542
0.00408161
0.00411959
0.00427935
0.00409158
0.00408916
0.00381469
0.00324892
0.00327045
0.00324785
0.00328404
0.00331491
0.0031902
0.00317081
0.00312826
0.00271875
0.00209491
0.00130825
0.00105458
0.00170595
0.00211782
0.00222111
0.00266265
0.00276322
0.00259312
0.00210429
0.00253044
0.00227472
0.00197951
0.00192547
0.00203052
0.0016749
0.0018397
0.00216154
0.00179104
0.00173198
0.00143473
0.000820533
0.000430936
0.000793952
0.000887712
0.000630992
0.000734344
0.000769182
0.000680719
0.000836573
0.000632627
0.000925468
0.000657898
0.000748071
0.000848406
0.000582963
0.000622313
0.000756437
0.000531149
0.000653275
0.000344964
0.000499683
0.00384868
0.00610756
0.00845892
0.0100182
0.0108954
0.0104365
0.0105574
0.0098805
0.00902375
0.00824121
0.00749125
0.00753922
0.00749229
0.00788008
0.00814798
0.00798771
0.00728346
0.0062149
0.00426703
0.00204517
0.00355382
0.0058348
0.00781319
0.00911521
0.00973554
0.00970624
0.00933569
0.00880405
0.00814798
0.00731205
0.00681264
0.00675209
0.00662536
0.00727953
0.00720268
0.0072818
0.00656439
0.00588994
0.00415622
0.00216809
0.00362276
0.00499769
0.00668617
0.00784058
0.00832689
0.00839378
0.00795737
0.00749561
0.00695146
0.00672345
0.00617041
0.00572407
0.00619215
0.00638343
0.00641769
0.00600734
0.00578047
0.00491152
0.00361368
0.0022045
0.00333128
0.00442095
0.00608157
0.00667898
0.00722629
0.00712088
0.00684811
0.00624872
0.00604992
0.00544482
0.00521644
0.00491211
0.00505405
0.00503865
0.00517373
0.00535469
0.00506706
0.00417017
0.00304705
0.00206947
0.00269217
0.00374582
0.00449905
0.0054157
0.00563174
0.00583708
0.00566767
0.00526581
0.00471134
0.00419047
0.00407531
0.00376458
0.00387123
0.00418236
0.00433362
0.00429073
0.00406172
0.00342963
0.00259159
0.00167455
0.00170396
0.00281711
0.0033389
0.00410432
0.00419413
0.00414328
0.00381004
0.0036536
0.00341376
0.00316248
0.00296924
0.00318486
0.00293733
0.00309964
0.00290042
0.0029088
0.00292621
0.00257957
0.00183983
0.00140979
0.00102321
0.00138505
0.00190744
0.0024101
0.0024798
0.00234303
0.00237781
0.00228069
0.00228367
0.0019453
0.00177396
0.00180031
0.00185303
0.00194002
0.00194628
0.00191026
0.00161561
0.00151791
0.00109993
0.00105315
0.000391831
0.000356081
0.000312838
0.00047364
0.000911485
0.000946235
0.00114231
0.000605821
0.000700889
0.000590438
0.0006303
0.000644362
0.000653409
0.000516993
0.000730307
0.0007842
0.000554689
0.000538573
0.000302485
0.000348909
0.00383077
0.00610812
0.00830023
0.00956902
0.0101887
0.0103601
0.00991481
0.00909145
0.00834555
0.00749622
0.00706265
0.00691689
0.00697895
0.00728318
0.00769268
0.00790316
0.00702405
0.00594926
0.00413012
0.00197799
0.00384152
0.00576891
0.00716113
0.00878694
0.00939557
0.00924444
0.00888881
0.00827401
0.00766776
0.00713685
0.00642348
0.00602367
0.00676871
0.00660196
0.00700344
0.00689507
0.00639952
0.00550517
0.00395929
0.00218804
0.0035068
0.00495257
0.00669632
0.00755956
0.00795168
0.00824998
0.00789352
0.00731252
0.00673267
0.0061207
0.00582774
0.00538147
0.00580243
0.00601174
0.00614105
0.00614977
0.00586394
0.00496586
0.00353522
0.00204815
0.00280661
0.00445975
0.00555051
0.00626291
0.00679025
0.00688069
0.00682707
0.00618125
0.00547705
0.0052295
0.00476002
0.00463192
0.00466793
0.00488021
0.00511077
0.00529538
0.00481728
0.00413582
0.00314713
0.00197459
0.00252986
0.00357773
0.00454043
0.00495626
0.00537221
0.00554712
0.00513033
0.00507411
0.0046276
0.00421298
0.00389624
0.00375883
0.00390062
0.00407401
0.00429759
0.00430876
0.00393109
0.00321714
0.00246084
0.00171891
0.00164059
0.00253146
0.00331042
0.00375944
0.00397874
0.00396657
0.00370238
0.00376319
0.00372818
0.00301318
0.00273888
0.00266759
0.00281903
0.00267666
0.00307394
0.00315634
0.00269501
0.00243961
0.00188027
0.00109349
0.00115205
0.00160104
0.0020258
0.00229374
0.00232205
0.00232967
0.0021061
0.00243769
0.00204482
0.0017332
0.00173599
0.00169862
0.0018253
0.00190668
0.00171114
0.00166959
0.0018948
0.00163659
0.00119671
0.000788668
0.000432942
0.000346717
0.000764107
0.0007693
0.000981852
0.000609884
0.000809009
0.000906327
0.000680173
0.000595196
0.000638171
0.000562584
0.000561728
0.00059921
0.000753658
0.000489505
0.000661404
0.000520609
0.000480734
0.000184534
0.00361784
0.00574231
0.00819805
0.0093425
0.0104019
0.0102715
0.00967079
0.00889027
0.00803282
0.00739374
0.00669787
0.00660274
0.00679481
0.0071768
0.0074635
0.00767847
0.00696567
0.00593422
0.00427487
0.00202718
0.00380012
0.00560752
0.00736036
0.00837813
0.00894054
0.00912036
0.00874243
0.00866181
0.00751302
0.00677451
0.00643176
0.0059998
0.00621988
0.00639521
0.0069574
0.00694125
0.0064939
0.00567943
0.00378972
0.00243071
0.00336826
0.00503811
0.00630992
0.00756234
0.00796062
0.00797658
0.00764793
0.00738512
0.00658764
0.00577801
0.00553791
0.00570952
0.00554648
0.00568929
0.00573778
0.00609004
0.00560326
0.00470432
0.00364979
0.00236902
0.00304272
0.00427267
0.00535625
0.00609439
0.00675873
0.00651097
0.00651901
0.00607785
0.00531219
0.00501935
0.00489034
0.00458622
0.00483576
0.00478582
0.00520466
0.00496496
0.00491273
0.0041282
0.00298495
0.00202868
0.00251405
0.00344126
0.00441372
0.00470332
0.00546026
0.00523801
0.00518547
0.00511126
0.00446613
0.00400366
0.00378835
0.00367849
0.0038181
0.00425045
0.00397928
0.00408867
0.00376275
0.00326034
0.00238105
0.00137012
0.00168337
0.00262322
0.00320085
0.00364219
0.00395634
0.00376492
0.00364791
0.00357231
0.00337101
0.00280318
0.0029695
0.00262167
0.00252196
0.00296211
0.002775
0.00281218
0.0029518
0.00264302
0.00197258
0.00108938
0.00101715
0.00179745
0.00190571
0.00227479
0.00249941
0.00247816
0.00207344
0.00230032
0.00212584
0.00201248
0.0016464
0.00164349
0.00152995
0.00180137
0.00197753
0.00171242
0.00173243
0.00152321
0.00131176
0.00113432
0.000176602
0.000691071
0.000556443
0.000615344
0.000732616
0.000745846
0.000844695
0.000550949
0.000778735
0.000702153
0.00075433
0.000413897
0.000630929
0.000677105
0.000541577
0.000637112
0.000684831
0.000559436
0.000356485
0.000347941
0.00373852
0.00606062
0.00807319
0.00937781
0.00998887
0.010228
0.00999036
0.00917934
0.00830869
0.0076714
0.00708675
0.00707133
0.00688943
0.00748612
0.00787392
0.00768659
0.00710436
0.00619388
0.0046961
0.00229757
0.00399682
0.00561285
0.00743018
0.00845363
0.00912438
0.00908042
0.00894573
0.00834101
0.00772993
0.0068723
0.0062763
0.00615603
0.00658655
0.00687392
0.00712485
0.00707796
0.00649432
0.00579537
0.00416254
0.00260489
0.00364049
0.00505607
0.00638868
0.00727067
0.00789263
0.0081185
0.00777668
0.00746752
0.0064044
0.00616599
0.00543443
0.00557972
0.00560054
0.00598223
0.0063783
0.00638092
0.00583189
0.00508004
0.0037919
0.00238268
0.00318382
0.00440367
0.00549472
0.00612269
0.00662517
0.00670105
0.00642522
0.00629179
0.00565862
0.00537688
0.00477137
0.00473834
0.00486279
0.0050674
0.00520238
0.00526715
0.0047285
0.00424567
0.00340165
0.00233086
0.00240502
0.00368504
0.00441311
0.00522598
0.00534463
0.00538894
0.00525366
0.00491385
0.00446859
0.00419925
0.0038657
0.00368672
0.00393379
0.00424581
0.00417792
0.00424823
0.00379917
0.00318772
0.0026791
0.00213027
0.00188011
0.00274687
0.00341482
0.00377695
0.00393749
0.00410878
0.00382556
0.00344427
0.00339075
0.00311995
0.00288918
0.00290559
0.00286234
0.00318665
0.00286444
0.00305138
0.0029532
0.0024077
0.002264
0.00117227
0.00135337
0.00170967
0.00215903
0.00224487
0.00231247
0.0024467
0.00229272
0.00201507
0.00185795
0.00190317
0.00171226
0.00161597
0.00159716
0.00166772
0.00199239
0.00193802
0.0018102
0.00157542
0.00119314
0.000815701
0.000255049
0.000413654
0.000600921
0.000629711
0.000832442
0.000797819
0.000752295
0.000788471
0.000675291
0.000561018
0.000771287
0.000675541
0.000855817
0.000691723
0.000722076
0.000760583
0.00058888
0.000621389
0.000490185
0.000606567
0.00434604
0.00636415
0.00816023
0.00964963
0.010491
0.0103176
0.0104081
0.00958937
0.00877528
0.00824351
0.00748309
0.00724055
0.00761615
0.00779166
0.00810268
0.00805058
0.00765556
0.00666863
0.00521603
0.00338297
0.00424913
0.00617378
0.00770098
0.00878129
0.00948021
0.00959341
0.00935563
0.0085413
0.0079408
0.00730681
0.00700929
0.00680223
0.00684781
0.00735644
0.00756358
0.00724333
0.00710338
0.00614635
0.00482887
0.00289638
0.0038635
0.00518842
0.00670453
0.00781025
0.00818449
0.00833163
0.00800328
0.00760693
0.00679164
0.00658775
0.00612906
0.00599536
0.00623689
0.00600082
0.00643937
0.00637839
0.00621584
0.00557925
0.00434125
0.00323001
0.00347392
0.00461662
0.00574378
0.00640447
0.00707165
0.00704927
0.00644277
0.00637774
0.00584501
0.0054346
0.00513785
0.00496616
0.00533013
0.00555146
0.0054507
0.00585377
0.00522383
0.00483753
0.00366687
0.00257889
0.00276454
0.00374894
0.00437629
0.00492799
0.00547791
0.00564615
0.00533855
0.00523425
0.004947
0.00447276
0.0044097
0.00407728
0.0042956
0.00422932
0.00433405
0.00437964
0.00438401
0.00373349
0.00297625
0.00232287
0.00223416
0.00252504
0.00340658
0.00385132
0.003927
0.00385638
0.00394083
0.00378393
0.00389162
0.00317145
0.00293497
0.00310587
0.00316952
0.00299207
0.00341175
0.00339124
0.00308097
0.00280798
0.00193767
0.00168143
0.00131978
0.00168005
0.00218056
0.00234393
0.00243573
0.00267592
0.00232239
0.00241221
0.00231962
0.001918
0.001919
0.00148074
0.0018078
0.00214675
0.00206763
0.00179834
0.00181889
0.00171636
0.00147487
0.00109543
0.00040646
0.000574354
0.000592226
0.000924525
0.000777268
0.000913122
0.000753755
0.000863516
0.000837383
0.000702395
0.000508553
0.000654315
0.000852074
0.000653558
0.000578371
0.000438479
0.000514862
0.00063461
0.000591519
0.000309232
0.00534572
0.00677725
0.00867704
0.0102735
0.0106461
0.0112621
0.0107197
0.0103867
0.00977018
0.0090781
0.00854224
0.00867436
0.00873563
0.00899616
0.00904344
0.00888978
0.00858095
0.00739915
0.00604737
0.00380933
0.00501994
0.00640141
0.00813146
0.0089922
0.00971693
0.009696
0.00977995
0.00911411
0.00866145
0.00822555
0.00769781
0.00750261
0.00799563
0.00792922
0.00809956
0.00776038
0.00760816
0.00671679
0.00548545
0.00396372
0.00452997
0.00602976
0.00706701
0.00806533
0.00859397
0.00864883
0.00846312
0.00832158
0.00779954
0.00708917
0.00696631
0.00697605
0.00692678
0.00728031
0.0071242
0.00717758
0.00672156
0.00593891
0.00493242
0.00368163
0.00384957
0.004843
0.00620198
0.0067505
0.00705108
0.0072848
0.00720161
0.00694512
0.00650325
0.00599431
0.00560525
0.00580449
0.00551685
0.00594352
0.00605569
0.00601171
0.00559451
0.00517373
0.0043184
0.00304236
0.00342738
0.00432357
0.00487849
0.00559825
0.00579834
0.00574071
0.00581032
0.00570779
0.00507216
0.00478135
0.00434888
0.00450613
0.00483057
0.00486473
0.00512095
0.00508013
0.00446401
0.00393766
0.0034309
0.00249026
0.00231606
0.00272497
0.00351523
0.00395748
0.00395861
0.00416244
0.00418752
0.00428514
0.00379652
0.00387837
0.00369272
0.0032362
0.00334334
0.00347634
0.00357218
0.00382947
0.00317157
0.00290998
0.00242555
0.0022435
0.00159515
0.00189443
0.00220434
0.00245607
0.00239501
0.00263127
0.00257977
0.00261701
0.00237351
0.00204764
0.00186235
0.00201898
0.00207883
0.00204717
0.00208695
0.00211227
0.00164116
0.00173546
0.00147685
0.00111059
0.000542862
0.000545806
0.000574842
0.000869303
0.000888083
0.000904951
0.00109941
0.000854071
0.000719996
0.000836929
0.000724058
0.000752442
0.000952501
0.000661979
0.000805144
0.000712291
0.000826602
0.000636416
0.000489855
0.000480534
0.00616991
0.00804881
0.00964092
0.0108539
0.0117565
0.0117187
0.011912
0.0114784
0.0107437
0.010501
0.0097916
0.00984738
0.00975243
0.00978582
0.010061
0.00981749
0.0096796
0.00854542
0.0066066
0.00481629
0.00575414
0.00732998
0.00889261
0.00990372
0.0104927
0.01077
0.0105959
0.010194
0.0098111
0.00935478
0.00890442
0.00858864
0.00898344
0.0090379
0.00902658
0.00872861
0.00856375
0.00785519
0.0064356
0.00504363
0.00537204
0.00624698
0.00782168
0.00850032
0.00915621
0.00964469
0.00904561
0.00905978
0.0086121
0.00816312
0.00796482
0.00748546
0.00770584
0.00784215
0.00817935
0.00815948
0.00750014
0.00683429
0.00580188
0.00458797
0.00444215
0.0056623
0.00636351
0.00715469
0.00803639
0.00794706
0.00786461
0.00754619
0.00716507
0.00687244
0.00643553
0.00655319
0.00641613
0.00682721
0.00681986
0.00672584
0.00636954
0.00560027
0.00492129
0.00392931
0.00361114
0.00458334
0.00534118
0.00603233
0.00608383
0.006137
0.00616135
0.0059149
0.00582423
0.00559821
0.0052615
0.00519097
0.00516509
0.00551067
0.00528702
0.00550989
0.00481579
0.00479344
0.00409811
0.00309658
0.00264043
0.0032929
0.00391812
0.00421293
0.00449829
0.00460844
0.00445618
0.00451568
0.00417635
0.00381024
0.00396322
0.0038002
0.0042827
0.00385985
0.00371966
0.00375919
0.00379662
0.00359583
0.00275167
0.00236876
0.00180014
0.00191851
0.00216307
0.00261175
0.00276056
0.00296321
0.00285497
0.00245811
0.00277153
0.00234598
0.00250074
0.00242254
0.0022758
0.0025754
0.00232843
0.00231796
0.00243737
0.0019962
0.00174365
0.00158906
0.000524555
0.000740758
0.0006969
0.0010937
0.000666639
0.0010986
0.000864185
0.00110512
0.000844704
0.000862962
0.00113095
0.000853617
0.000801547
0.000565398
0.000807376
0.00102041
0.000729099
0.000560512
0.000298677
0.000564243
0.00713724
0.00895589
0.0106657
0.0118509
0.0126885
0.0130669
0.0130532
0.0125668
0.012199
0.0116742
0.0112861
0.0111073
0.0114967
0.011368
0.011418
0.0113514
0.0108375
0.00972233
0.0082411
0.00651941
0.00683784
0.00807843
0.00999532
0.0108451
0.0114709
0.0115041
0.0118219
0.0111279
0.0108487
0.0106823
0.0102511
0.0101711
0.0100122
0.0102845
0.0106154
0.0104054
0.00986779
0.00893158
0.00757457
0.00615617
0.00613126
0.0072575
0.0086042
0.00951609
0.0101424
0.0102629
0.010546
0.00996267
0.00970243
0.00913601
0.0090305
0.00905814
0.00896308
0.00904527
0.00911889
0.00888716
0.00853995
0.00806191
0.00693916
0.00567826
0.00532656
0.00616193
0.00714871
0.0079759
0.00810728
0.0088312
0.00848296
0.00833912
0.00802153
0.00762236
0.00737476
0.00736997
0.00744784
0.00750057
0.0078515
0.00745229
0.00721594
0.0066742
0.0056677
0.0049058
0.00422938
0.00494349
0.00582531
0.00636248
0.00674546
0.00675882
0.0067379
0.00645072
0.00663831
0.00604887
0.00607704
0.00591313
0.00591844
0.0058788
0.00616088
0.00593433
0.00576251
0.00534072
0.00454335
0.00397645
0.00323146
0.0035709
0.00427068
0.00494454
0.0049615
0.00494172
0.00495823
0.00504017
0.00477021
0.00450524
0.00439774
0.00447435
0.00464769
0.00442405
0.00447112
0.00420794
0.00432819
0.00416366
0.00340862
0.00288386
0.00199469
0.00207554
0.00264324
0.00304076
0.00297864
0.00319132
0.0029723
0.0029793
0.00302761
0.0027554
0.00261918
0.00254935
0.00254502
0.0026703
0.0030565
0.00287996
0.00248733
0.00244265
0.00214457
0.00192916
0.00066594
0.000749459
0.000858489
0.00103825
0.00118122
0.000919158
0.00111833
0.00101593
0.000996923
0.00123407
0.00112755
0.00104039
0.000859111
0.000839135
0.000950695
0.000954939
0.000631037
0.000792852
0.00106302
0.000614956
0.00863016
0.0103628
0.0121827
0.013476
0.0139573
0.014444
0.0148353
0.0139947
0.0139525
0.0136247
0.0132154
0.0131246
0.013215
0.0133208
0.0135029
0.0130307
0.012231
0.0112841
0.00989937
0.00827669
0.00794903
0.0093544
0.0108685
0.0120011
0.0125785
0.0129641
0.0128415
0.0129767
0.0125528
0.0121799
0.0118614
0.0117226
0.0119543
0.0117051
0.0117342
0.011734
0.0112627
0.0102155
0.00909157
0.00742038
0.00728989
0.00841993
0.00954888
0.0103755
0.0110473
0.0115948
0.0113265
0.0112505
0.0109541
0.0107088
0.0104287
0.0102036
0.0101939
0.010326
0.010456
0.0101146
0.00973479
0.00918574
0.00778446
0.00687206
0.00608186
0.00699397
0.00836919
0.00887152
0.0092885
0.00974311
0.00949034
0.00932302
0.00895696
0.00886364
0.00872103
0.00867747
0.0085501
0.00870449
0.00883359
0.0084305
0.00813137
0.00768759
0.00666924
0.00586346
0.00503514
0.00574107
0.00647778
0.00709329
0.00727083
0.00764243
0.00762051
0.00749647
0.00737551
0.00725078
0.00708952
0.00683314
0.00693077
0.00690117
0.00688376
0.00667395
0.00670778
0.00597047
0.00542452
0.00485684
0.00355407
0.00432535
0.00454743
0.00509381
0.00516113
0.00570504
0.00550157
0.0054489
0.00499355
0.00493616
0.00517303
0.00487867
0.0049988
0.00514299
0.00506697
0.00509309
0.00508407
0.00441614
0.00400118
0.00343352
0.00230092
0.00259334
0.00309551
0.00323766
0.00329196
0.00322487
0.00344573
0.00342136
0.00326798
0.00310927
0.0034028
0.00300591
0.00291441
0.0032806
0.00334697
0.00298775
0.0030682
0.00292975
0.00255636
0.00205683
0.0010046
0.000841278
0.00103206
0.00129786
0.00127562
0.00122509
0.00111931
0.00121237
0.00125014
0.00127645
0.00121992
0.00102165
0.00116451
0.00104759
0.0012729
0.00141576
0.000926434
0.000908101
0.000677047
0.000831087
0.0103868
0.0117081
0.0137434
0.0147493
0.0156241
0.0160615
0.0163714
0.0160108
0.015695
0.0154292
0.0152444
0.0150685
0.0150858
0.0153829
0.0151103
0.0147918
0.014138
0.0131859
0.0117541
0.0100421
0.00938729
0.0106223
0.0120879
0.013488
0.014092
0.0144453
0.014461
0.0143949
0.0140758
0.0139149
0.0136497
0.0137175
0.0134706
0.0138588
0.0135303
0.0135002
0.0130543
0.0115966
0.0106235
0.00942085
0.00828747
0.00962408
0.010786
0.011762
0.0123716
0.0126008
0.0127533
0.0125502
0.0125793
0.0120924
0.0119799
0.0119066
0.011825
0.0118096
0.0118161
0.0115627
0.011238
0.0103381
0.00923018
0.00810317
0.00707314
0.00819583
0.0090854
0.00965098
0.0103528
0.0106715
0.0107775
0.0104934
0.0103832
0.00990984
0.0099498
0.0100254
0.00979965
0.00979005
0.0100463
0.00969289
0.00962304
0.00871132
0.00790037
0.00731633
0.00573348
0.00671635
0.00738868
0.00791152
0.00813267
0.00846089
0.00855401
0.00842773
0.00819714
0.00823299
0.00783512
0.00784766
0.00790282
0.00786784
0.00790579
0.00801132
0.00737411
0.00699813
0.00637753
0.0057555
0.00429014
0.00473424
0.00521466
0.00569012
0.00582436
0.00601648
0.00631665
0.00573853
0.00623246
0.00599676
0.00594285
0.00582813
0.00555706
0.0055518
0.0058149
0.00565508
0.00547582