/*--------------------------------*- C++ -*----------------------------------*\
| =========                 |                                                 |
| \\      /  F ield         | OpenFOAM: The Open Source CFD Toolbox           |
|  \\    /   O peration     | Version:  2212                                  |
|   \\  /    A nd           | Website:  www.openfoam.com                      |
|    \\/     M anipulation  |                                                 |
\*---------------------------------------------------------------------------*/
FoamFile
{
    version     2.0;
    format      ascii;
    arch        "LSB;label=32;scalar=64";
    class       volScalarField;
    location    "0";
    object      relativeErrorField;
}
// * * * * * * * * * * * * * * * * * * * * * * * * * * * * * * * * * * * * * //

dimensions      [0 0 0 1 0 0 0];

internalField   nonuniform List<scalar> 
3200
(
0.0121027
0.0167514
0.0204258
0.0225141
0.0233997
0.0229519
0.0222717
0.0214087
0.0203855
0.0194811
0.0191433
0.0186222
0.0187518
0.019064
0.0195184
0.0195332
0.0188798
0.0169518
0.0133308
0.00893191
0.0106122
0.0143769
0.0175403
0.0195544
0.0203889
0.0199795
0.0192396
0.0185571
0.0176728
0.0167587
0.0163251
0.0160342
0.0162706
0.0162753
0.0164244
0.0166496
0.0162363
0.0142241
0.0111573
0.00757833
0.008781
0.0119025
0.0148741
0.0165748
0.016925
0.0167901
0.0163876
0.0156674
0.0151149
0.014277
0.0137103
0.0136219
0.0133197
0.0138405
0.0137748
0.0139759
0.0133438
0.0118115
0.00924268
0.0063099
0.00719431
0.00950586
0.012184
0.0137028
0.0140492
0.0137403
0.0135596
0.0127521
0.0122686
0.011778
0.0112413
0.011171
0.0112535
0.0110569
0.0112886
0.011544
0.0107723
0.00953003
0.00742281
0.00491382
0.00576123
0.00763236
0.0094902
0.010566
0.0107568
0.0109261
0.0104978
0.0102611
0.0095264
0.00910598
0.00870279
0.00884228
0.00846
0.0087538
0.00884267
0.00876106
0.00851526
0.0072808
0.00574645
0.00371864
0.00415412
0.0054498
0.00703238
0.00769943
0.00787052
0.00802408
0.00778329
0.00716145
0.00694106
0.00635991
0.00634349
0.00633605
0.00620118
0.00613838
0.00641055
0.00611254
0.00636613
0.00514751
0.00396199
0.00246336
0.00218189
0.00328557
0.0042316
0.00482751
0.0047829
0.00485764
0.00461752
0.00443662
0.00428704
0.0041107
0.00383261
0.00403576
0.00390921
0.00408888
0.00395461
0.00355382
0.0035891
0.00304984
0.00255473
0.0016315
0.000892737
0.00122476
0.00163386
0.00151501
0.00169423
0.00178556
0.00171252
0.0014062
0.00130878
0.00130255
0.00137026
0.0014442
0.00129013
0.00131867
0.00141502
0.00120742
0.00111744
0.00107782
0.000954928
0.000815399
0.0117222
0.0160406
0.0197624
0.0216407
0.0221945
0.0219353
0.0210945
0.0200355
0.0189827
0.0176227
0.0169666
0.0170035
0.0170773
0.017422
0.0181763
0.0184542
0.0177765
0.0159363
0.0126711
0.00844013
0.0101566
0.0136399
0.0171036
0.0189146
0.0194213
0.0191262
0.0182405
0.01737
0.016186
0.0155495
0.0149891
0.0145485
0.014494
0.0151549
0.0155739
0.0155632
0.0152198
0.0135779
0.0104445
0.00739251
0.00872643
0.0119213
0.0146533
0.0158537
0.0165154
0.0159825
0.0154342
0.0144211
0.0136522
0.013123
0.0124849
0.0122279
0.0121894
0.0127021
0.0130494
0.0131047
0.0123996
0.0114895
0.00857714
0.0060342
0.00689096
0.00938589
0.0116324
0.0129889
0.0138823
0.0133955
0.0126772
0.0119792
0.0114211
0.0105819
0.0102471
0.00980962
0.0103631
0.0104547
0.010592
0.010786
0.010294
0.00896047
0.00700675
0.00470485
0.00565546
0.0073963
0.00926822
0.0102763
0.0105079
0.010534
0.0100847
0.00938967
0.00883964
0.00862282
0.00798151
0.00778613
0.00798595
0.0080741
0.0080724
0.0086239
0.00782983
0.00707121
0.00541822
0.00346209
0.00420218
0.005415
0.00659997
0.0075634
0.00762279
0.00753159
0.00744787
0.00688122
0.00633554
0.00603659
0.00575515
0.00555003
0.00560378
0.00585786
0.00593338
0.00608023
0.0059721
0.00522006
0.00411048
0.00238945
0.00235284
0.00301364
0.00382628
0.00476632
0.00468338
0.00470551
0.00453262
0.00428832
0.00398494
0.0035906
0.00352312
0.00349875
0.00343924
0.00363457
0.00383102
0.00353043
0.00332526
0.00289132
0.00214598
0.00139228
0.000482677
0.00144083
0.00151028
0.00175636
0.00162742
0.00167932
0.00143477
0.00136277
0.00129667
0.001444
0.00121208
0.00112335
0.00135841
0.00115629
0.00114371
0.00136086
0.00126294
0.000775366
0.000622995
0.00065988
0.0108297
0.0152608
0.0187431
0.0202883
0.0209673
0.0203244
0.0191732
0.0180978
0.0164811
0.0153978
0.0147955
0.014266
0.0145191
0.0154048
0.0162777
0.0166904
0.0161205
0.0148741
0.0116279
0.0078052
0.00912887
0.0130246
0.0159935
0.0176579
0.0180562
0.0178237
0.0166641
0.0153718
0.0143843
0.0131713
0.0125318
0.0126699
0.0127609
0.0129079
0.0138566
0.0141749
0.0139232
0.0124146
0.00981649
0.00654289
0.00792163
0.0109818
0.0134532
0.0149687
0.0154752
0.0149565
0.0140254
0.013205
0.0122906
0.0113077
0.0105864
0.0103823
0.0106683
0.0111691
0.0116112
0.0117769
0.0116621
0.0104904
0.00782335
0.00517507
0.00636592
0.00890299
0.01124
0.0123086
0.0127806
0.0123098
0.0113899
0.0106544
0.00986053
0.00924111
0.00887632
0.00865485
0.00886452
0.00879723
0.00950847
0.00987087
0.00946366
0.0083155
0.00652121
0.00402757
0.00490261
0.00711776
0.00863786
0.00958548
0.00990873
0.00984314
0.00923992
0.00848581
0.00792065
0.00717125
0.0066957
0.00671699
0.00672504
0.00709703
0.00752013
0.00750324
0.00731048
0.00649741
0.00505928
0.0030349
0.00365447
0.00521172
0.0062669
0.00692383
0.00713324
0.00735282
0.00662469
0.00616832
0.00546931
0.00529057
0.00529306
0.00480383
0.00470626
0.00496862
0.00533819
0.00542262
0.00521156
0.00456594
0.00361074
0.00227969
0.00231326
0.00291211
0.00383538
0.00404372
0.00432378
0.00418428
0.00384812
0.00366297
0.00337678
0.00306662
0.00319229
0.00289346
0.00291586
0.00341111
0.00330982
0.00319824
0.00329622
0.00286842
0.00214373
0.00126701
0.000912761
0.000949999
0.00122118
0.00135545
0.0015897
0.00151606
0.00136992
0.00128606
0.00118349
0.00108998
0.000980051
0.00102172
0.000834758
0.00101247
0.000962223
0.0011553
0.000874919
0.000925773
0.000548792
0.000351435
0.00960903
0.0137467
0.0170413
0.0187157
0.0189909
0.0182829
0.0168706
0.0156593
0.0138314
0.012817
0.0117712
0.0117424
0.0116633
0.0131603
0.013771
0.0146053
0.0145048
0.0130987
0.0100339
0.00646601
0.00846416
0.0119185
0.014783
0.0160533
0.0164671
0.0158512
0.0148683
0.0133869
0.0120076
0.0107377
0.0101196
0.00989799
0.010205
0.010887
0.011817
0.0124479
0.0121869
0.0110219
0.00830771
0.00531354
0.00702505
0.00974086
0.012382
0.0135109
0.0138581
0.0135026
0.0124165
0.011331
0.0102884
0.00940084
0.00849278
0.00822132
0.00860921
0.00938341
0.00984779
0.0105225
0.0102037
0.00912317
0.0067905
0.00439301
0.00558917
0.00818837
0.0102788
0.0114697
0.0114739
0.0111445
0.0101776
0.00932139
0.00839133
0.00774296
0.00674674
0.00698529
0.00717892
0.00752024
0.0079611
0.00853304
0.0083983
0.00728817
0.00567073
0.0033143
0.0042985
0.00615474
0.00780735
0.00883391
0.00902612
0.00883772
0.00821962
0.00746968
0.00661636
0.00589416
0.00539291
0.00516664
0.00549524
0.0058101
0.00620278
0.00658996
0.00640248
0.00554089
0.00413134
0.00246554
0.00296897
0.00467008
0.0055249
0.00617978
0.00658335
0.00643026
0.0056874
0.00527617
0.00456671
0.00428904
0.00403352
0.00391864
0.00390448
0.00426747
0.0043481
0.00477074
0.00456534
0.00414445
0.00307113
0.00166324
0.001936
0.00276848
0.00343275
0.00389275
0.00413021
0.00378872
0.00354972
0.00303153
0.00298136
0.00255819
0.00253018
0.00226968
0.00220913
0.00253161
0.00278165
0.00272203
0.00280515
0.00252978
0.00179197
0.00124798
0.00085402
0.000969479
0.00119087
0.00163091
0.0011104
0.00142565
0.00105054
0.00118461
0.000943026
0.0012011
0.00107826
0.000589399
0.00101111
0.000892561
0.000813845
0.000696887
0.00116502
0.000701511
0.000536717
0.000545434
0.0080075
0.0123222
0.015149
0.0167733
0.0167296
0.016187
0.0148008
0.0129822
0.0110925
0.00979371
0.00869535
0.0086251
0.00902456
0.0100955
0.0113283
0.0124823
0.0123973
0.0114479
0.00837427
0.00494243
0.00691984
0.0100694
0.0131141
0.0144694
0.0145966
0.0141077
0.0125347
0.0111643
0.00982803
0.00827471
0.00747209
0.0072141
0.00770328
0.00879154
0.00990802
0.0104954
0.0103824
0.0092367
0.0068049
0.00404234
0.00602145
0.00859662
0.0110778
0.0121982
0.0124806
0.0118073
0.0106861
0.00934335
0.00799529
0.0069607
0.0063007
0.00621278
0.00661827
0.0071843
0.00813608
0.00882175
0.00853883
0.0078765
0.0055914
0.00317686
0.0047175
0.00727072
0.00877911
0.0101081
0.00994719
0.0096023
0.00905375
0.00763097
0.00657531
0.0057343
0.00513014
0.00481062
0.0055298
0.00584605
0.00662858
0.0068855
0.00687882
0.00616894
0.00442748
0.00227103
0.00378885
0.00556763
0.00687328
0.00786208
0.00811844
0.00757085
0.00692555
0.00599143
0.00494401
0.00431728
0.00382799
0.00357915
0.00439155
0.00441115
0.00496218
0.00543927
0.00538388
0.00476372
0.00339099
0.00151472
0.00252247
0.00415807
0.00510021
0.00573225
0.00585884
0.0053975
0.00496786
0.00456023
0.00353572
0.00309301
0.0027337
0.00277357
0.00267909
0.00335347
0.00376849
0.00381782
0.00388701
0.00343874
0.00259823
0.000765541
0.00160123
0.00254197
0.00279783
0.00360639
0.0034258
0.00328678
0.0031331
0.00285769
0.00220007
0.00199597
0.00155715
0.00154362
0.0018625
0.00213816
0.00203588
0.00227822
0.0022717
0.00216937
0.00131983
0.000594444
0.000529975
0.000880527
0.00108127
0.00119126
0.000947784
0.00113929
0.00118866
0.000760631
0.000694785
0.000509733
0.000437297
0.000485926
0.000891806
0.000653548
0.000818559
0.000941597
0.000657806
0.000683164
0.000532063
0.00030512
0.00646325
0.010227
0.013278
0.0144124
0.014831
0.0137802
0.0122754
0.0103688
0.00824272
0.00689923
0.00572504
0.00559988
0.00615587
0.00762651
0.00890315
0.010146
0.010072
0.00924347
0.00675147
0.00356253
0.00561568
0.00872605
0.0112908
0.0126162
0.0127129
0.0119313
0.0104577
0.0090124
0.0072783
0.00543051
0.00473971
0.00474459
0.00522208
0.00654972
0.00744619
0.00840546
0.0085438
0.00740208
0.00510986
0.00252885
0.00451041
0.00721352
0.00951215
0.010539
0.0106144
0.0101272
0.00891459
0.00741797
0.00586298
0.00482816
0.00406459
0.00378833
0.00426501
0.0051405
0.00619158
0.0070134
0.00700996
0.00624187
0.00419297
0.0017282
0.00407738
0.0056949
0.00778574
0.00875132
0.00873267
0.00833679
0.00726893
0.00619989
0.00511531
0.00412393
0.00341734
0.00300688
0.00330326
0.00406732
0.00484697
0.00565976
0.00568305
0.0048062
0.00321981
0.00114965
0.003164
0.00458297
0.00610666
0.00693431
0.00686914
0.00647017
0.00588133
0.00464931
0.00403121
0.00279983
0.00241405
0.00229355
0.00242742
0.00324778
0.00383229
0.00425691
0.00430396
0.00360735
0.00243934
0.000755386
0.00190508
0.00321087
0.0044175
0.00494456
0.00504568
0.00478883
0.00432111
0.00363114
0.0027796
0.00191034
0.00159692
0.00170709
0.00201191
0.00227256
0.00290344
0.00319279
0.0031523
0.00238049
0.00163224
0.000580891
0.0013127
0.00167036
0.00252249
0.00314195
0.00300153
0.00305495
0.00236661
0.00215201
0.00176112
0.0012586
0.00101442
0.00120312
0.00129383
0.0014599
0.00158907
0.00188674
0.00184917
0.00181726
0.00111491
0.000371032
0.000351006
0.000752992
0.000892835
0.000882833
0.00109203
0.00093167
0.000870913
0.000800371
0.00044718
0.000541168
0.000359093
0.000346036
0.000367556
0.000586561
0.00069296
0.000485588
0.000752997
0.00074934
0.000222578
5.36567e-05
0.00465439
0.0081925
0.0111463
0.0123589
0.0126462
0.0116327
0.0100289
0.00800302
0.00599512
0.004188
0.00309523
0.00304837
0.0035509
0.00503984
0.00655138
0.00747946
0.0081085
0.00730657
0.00463551
0.00168029
0.00382706
0.00699634
0.00967493
0.0108321
0.0107722
0.010238
0.00859586
0.00687601
0.00469922
0.00329913
0.00230033
0.00218471
0.0031667
0.00411712
0.00557444
0.00637868
0.00650143
0.00584166
0.00371948
0.00115994
0.00336935
0.00578253
0.00779303
0.00894745
0.00924399
0.00846307
0.00708317
0.00595454
0.0041062
0.00289984
0.00182128
0.00157852
0.00231558
0.00329148
0.00464328
0.00522194
0.00546704
0.00449283
0.00295153
0.000580847
0.00284291
0.00467896
0.00656555
0.00728724
0.00737855
0.0069151
0.00573927
0.00476061
0.00326932
0.00198098
0.00143292
0.000991311
0.00188164
0.00244397
0.00340842
0.0042844
0.00437855
0.00382746
0.00194001
0.000424229
0.00201053
0.00351022
0.0050459
0.00577456
0.00589123
0.00529939
0.00461598
0.00367279
0.00242464
0.00179836
0.00113866
0.000973399
0.0015274
0.00217508
0.00297357
0.0030779
0.00317404
0.00261296
0.0014709
8.56937e-05
0.0014584
0.00254661
0.00374928
0.00453106
0.00424671
0.00367527
0.00319322
0.00271753
0.00184496
0.00103649
0.00096135
0.000519757
0.00103579
0.00153185
0.00159737
0.00211081
0.00217838
0.00186526
0.000965178
1.55718e-05
0.000731735
0.0013369
0.00197509
0.00277704
0.00270168
0.00263152
0.00213484
0.00126504
0.000921229
0.000628699
0.000352214
0.000484457
0.000688837
0.00100038
0.00111763
0.00160017
0.00114194
0.00122389
0.000463687
5.25737e-05
0.000401976
0.000504505
0.000926277
0.000471056
0.000949356
0.000728663
0.000817693
0.000461892
0.000379962
0.000401175
7.60505e-05
0.00016644
9.50245e-05
0.000203606
0.000527199
0.000549819
0.000225281
0.000268327
0.000429086
0.000218031
0.00315171
0.00649208
0.00894518
0.0103981
0.0103432
0.00939236
0.00791823
0.00581379
0.00375702
0.00170815
0.000771668
0.000683183
0.00130438
0.00277371
0.00431305
0.00572938
0.00592197
0.00518859
0.0029837
0.000146642
0.00266393
0.00567943
0.00777496
0.00899001
0.00921471
0.00831478
0.00671476
0.0049689
0.00309544
0.00133209
0.000410559
0.000215245
0.00101401
0.00226296
0.00369707
0.00466238
0.00504378
0.00428294
0.0024686
0.000287327
0.00222686
0.00434442
0.00666581
0.00764663
0.00763134
0.00674778
0.00558517
0.0043375
0.00230021
0.00101744
1.41828e-05
0.000147468
0.000563696
0.00152407
0.00272238
0.00370166
0.00400023
0.00317389
0.00171992
0.000482239
0.00159911
0.00354984
0.00525528
0.00623669
0.00622601
0.00579883
0.00485608
0.00309215
0.00202166
0.000621712
3.59611e-05
0.000225265
0.000182908
0.00123711
0.00217517
0.00289293
0.00275041
0.00252349
0.000812576
0.00080189
0.00144071
0.00285238
0.00417276
0.00434649
0.00485676
0.00427145
0.00361542
0.00250028
0.00153836
0.000704923
5.16412e-05
0.000105515
0.000299563
0.000888666
0.00153641
0.0022923
0.00232105
0.00158584
0.000746346
0.000581258
0.000952686
0.00203213
0.00293563
0.00319783
0.00363913
0.00332304
0.00254264
0.00179672
0.000956111
0.000409179
0.000196886
0.000154286
0.000128949
0.000586178
0.0012059
0.00182453
0.00164806
0.00128384
0.000348866
0.000701621
0.000619109
0.000961025
0.00185021
0.00199763
0.00218074
0.00196196
0.00169062
0.000915612
0.000543844
3.52394e-05
4.63935e-05
0.000185129
1.33959e-05
0.000671896
0.000729062
0.000961139
0.00104806
0.000610889
8.68279e-05
0.000275491
0.000287019
0.000247166
0.000432036
0.000668409
0.000784604
0.000545956
0.000732623
0.000679563
0.000162448
7.07228e-05
3.8813e-05
0.000125489
6.16786e-05
0.000237323
0.000194566
0.000378881
0.000341779
9.91803e-06
5.86157e-05
4.31939e-06
0.00185712
0.00491105
0.00737818
0.00870268
0.00880225
0.00792294
0.00619075
0.00412293
0.00185309
0.000134341
0.00109666
0.00153161
0.000359728
0.00122554
0.00291022
0.00410607
0.00439549
0.00373987
0.00163045
0.000920699
0.00126493
0.00396183
0.0062524
0.00727056
0.00747925
0.00676894
0.00536134
0.00327903
0.00144412
0.000326379
0.00130984
0.00146391
0.000547405
0.000697242
0.00216309
0.00314112
0.00311032
0.00265015
0.000997269
0.00144271
0.00088269
0.00317571
0.00539933
0.00604175
0.00612783
0.0055108
0.00441052
0.00274824
0.00117062
0.000502122
0.00111305
0.00148259
0.000633811
0.000455147
0.00156051
0.00247385
0.00263006
0.00198601
0.000560672
0.00123666
0.00103385
0.00262155
0.00399347
0.00505547
0.00522168
0.00459536
0.00345338
0.00209932
0.000838553
0.000556113
0.00128437
0.00127198
0.000793925
0.000200799
0.00112144
0.00187643
0.00190739
0.0013571
0.000101606
0.0014808
0.000371551
0.00188021
0.00312995
0.00393188
0.00401829
0.00346211
0.00274598
0.00156158
0.000649142
8.94998e-05
0.000696945
0.00108374
0.000619968
0.000209271
0.000753734
0.00127596
0.00144853
0.000904983
5.30011e-05
0.00135861
0.000258937
0.00126612
0.00240737
0.00274337
0.00286237
0.00254833
0.00193481
0.0015459
0.000322335
0.000478583
0.000809679
0.000919536
0.000491259
2.57516e-06
0.000521134
0.000653327
0.0010485
0.000780239
0.000106976
0.00117636
0.000181245
0.000958888
0.00151288
0.00145263
0.0017061
0.00153185
0.00127892
0.000774537
0.000488177
7.0563e-05
0.000513409
0.000784573
0.000363998
9.58871e-05
0.000318378
0.000466036
0.000538118
0.000516098
0.000279831
0.000635386
2.62577e-05
0.000287284
0.000571606
0.000559628
0.000718197
0.000493121
0.000174921
0.000207141
0.000111301
8.98071e-05
0.00010148
0.000213253
6.68507e-06
5.99535e-05
7.89877e-05
0.000563859
0.000150824
5.51296e-05
9.86648e-06
0.000262637
0.000580877
0.00367948
0.00594703
0.00725232
0.00734031
0.00656185
0.00482696
0.00286479
0.000563366
0.00126489
0.00257468
0.00245378
0.00174829
0.000228006
0.00166761
0.00301999
0.0029904
0.00234121
0.000779734
0.00187866
0.000342811
0.00268166
0.00501082
0.00602281
0.00632946
0.00559176
0.00404664
0.0021324
0.000357602
0.00129067
0.00225986
0.00247629
0.00171218
0.000251433
0.00105845
0.00202181
0.00224626
0.0018203
0.000127414
0.00201534
0.000309757
0.00229425
0.00417926
0.0048699
0.0051759
0.00459801
0.00354825
0.00184381
0.000305957
0.00129718
0.0021218
0.0022361
0.00154508
0.000614496
0.000690188
0.00139142
0.00170919
0.00140799
0.000351086
0.0021229
3.37001e-05
0.00155231
0.00325757
0.00409391
0.0041714
0.00389912
0.00249463
0.00151989
9.87062e-05
0.00123226
0.00182778
0.00226317
0.00163861
0.000571843
0.000222313
0.000776633
0.00103966
0.00057491
0.000688193
0.00187715
0.000113842
0.00141498
0.0026181
0.00318304
0.00315001
0.0026671
0.00203372
0.00089778
1.91846e-05
0.00114986
0.00161733
0.00173222
0.00109137
0.000505229
5.99713e-06
0.000603078
0.000883054
0.000231026
0.00047123
0.0016896
8.91078e-05
0.000927014
0.00173868
0.00200589
0.00232285
0.00201801
0.00140173
0.000797077
0.00018822
0.000544158
0.00115343
0.00136553
0.00109977
0.000511526
5.10465e-05
0.00069413
0.000637558
0.000125925
0.000501095
0.00165373
8.38199e-05
0.000702124
0.00123228
0.00141427
0.00145736
0.00105364
0.000962582
0.00050792
0.000218046
0.000365871
0.000762291
0.00078805
0.000527694
0.000426914
0.000393661
5.59093e-05
0.000308932
0.000361737
0.000395158
0.000788533
4.34991e-05
0.000205956
0.000202144
0.000262299
0.0004032
9.90795e-05
0.000409973
0.000107812
0.000198331
1.5539e-05
0.000310936
9.67644e-05
0.00039682
7.17295e-05
2.75378e-05
7.61413e-05
2.3717e-05
2.02242e-05
0.000229461
0.000272254
0.000280893
0.00262597
0.00465823
0.00600331
0.00620533
0.00556364
0.00424589
0.00222337
6.66155e-05
0.00168891
0.00271831
0.00311391
0.00203475
0.000728171
0.000789471
0.00189478
0.00260175
0.00174644
0.000276507
0.00215989
0.000299883
0.00205256
0.00418338
0.00513257
0.00541967
0.00459492
0.00333161
0.00162405
0.000145799
0.00169276
0.00282091
0.00295148
0.00196489
0.000877197
0.000251436
0.00139457
0.00161107
0.000879934
0.000448887
0.00260167
0.000304487
0.00143045
0.00323991
0.00448119
0.00418784
0.00384341
0.00265875
0.00139977
0.000454202
0.00171658
0.00256096
0.00248258
0.00184708
0.000905292
0.000332013
0.000817351
0.0011598
0.000599801
0.000925052
0.00269771
0.000322082
0.00122289
0.00265299
0.00355473
0.0036931
0.00305442
0.00197748
0.000949028
0.000375848
0.00166119
0.00241584
0.0021976
0.00169889
0.00102321
0.000214846
0.000117008
0.000631996
5.36061e-05
0.00120327
0.00244371
0.000197488
0.00106184
0.00186854
0.00235578
0.00285297
0.00236708
0.00182906
0.000915258
0.000333117
0.00129744
0.0018678
0.00180743
0.00136107
0.000785743
0.000246068
0.000304247
0.000580428
0.000229965
0.000992111
0.00204011
0.000190515
0.000518921
0.0014494
0.00205957
0.00193506
0.00183336
0.00110676
0.000196355
0.000304602
0.00105165
0.0013694
0.00134795
0.00126704
0.000856835
0.000277497
1.72997e-06
0.000167591
8.22235e-05
0.000839979
0.00146955
0.000140052
0.000171898
0.000871715
0.00126911
0.00136136
0.00115625
0.000806888
0.00020302
0.000333264
0.00055137
0.00104726
0.00100519
0.000670551
0.000452788
0.000140473
2.21333e-05
6.87892e-05
1.92889e-05
0.000511268
0.000897549
1.1496e-05
0.000100427
0.000269154
0.000445673
0.000430012
0.00038144
0.000226796
0.00020464
0.000270386
0.000424577
0.000363207
0.000193956
0.000215343
1.61343e-06
8.80089e-05
0.000205054
4.88357e-05
0.000199478
0.000224747
0.000312307
0.000160788
0.00219584
0.0042855
0.005489
0.00558449
0.00524955
0.00380124
0.00184623
4.86984e-06
0.0014903
0.00262442
0.00249465
0.00186865
0.000665502
0.000751452
0.00176764
0.00234118
0.00153551
0.000282405
0.00230399
0.000687996
0.00159242
0.00366668
0.00449188
0.00492125
0.00434049
0.00303252
0.00162465
0.000108724
0.00180054
0.00272557
0.00259104
0.0020993
0.000856326
0.000428098
0.00100527
0.00149521
0.000722755
0.00064455
0.00253874
0.000655857
0.00134293
0.00278419
0.0038807
0.00400379
0.0036504
0.00263958
0.00106317
0.000457977
0.00145911
0.00245081
0.00256713
0.00201161
0.000978351
0.000171246
0.000768926
0.000982406
0.000284716
0.00107397
0.00253015
0.00065511
0.000887793
0.00256358
0.00338405
0.00335893
0.00268723
0.00214219
0.000847043
0.000270756
0.00122469
0.00193704
0.00226719
0.00174696
0.00102444
0.00037019
0.000502603
0.00080552
3.63046e-06
0.00104007
0.00219432
0.00061425
0.000517739
0.00174807
0.00222146
0.00255507
0.00203783
0.00144598
0.000661344
0.000601548
0.00122217
0.00168741
0.00158304
0.00123611
0.000809846
0.000123707
0.000119411
0.000257698
8.08475e-05
0.000935005
0.00164505
0.000599459
0.000536835
0.000984043
0.00191792
0.00173336
0.00142174
0.000951428
0.000284252
0.000457228
0.000980149
0.0012908
0.00126699
0.00140412
0.000646584
0.000386152
8.4819e-06
0.000310706
0.000282754
0.000818662
0.0014997
0.000326144
6.93586e-05
0.00100073
0.00104114
0.00103934
0.000803941
0.000621208
0.000232812
0.000181105
0.000413411
0.000815386
0.000678157
0.000865239
0.000337681
0.000316569
7.96639e-05
0.000531673
7.29585e-05
0.000348932
0.00102991
0.000214027
0.000207592
0.000502567
0.000271244
0.000481743
0.000343282
0.00011596
2.06547e-05
0.000142657
0.000111928
0.000435946
0.000589235
4.00452e-05
4.05526e-05
0.000239259
0.000216644
0.000104501
8.78023e-06
6.98683e-05
0.000433521
0.000300412
0.00209515
0.00428691
0.00542292
0.00569541
0.00506024
0.00419284
0.00228359
0.000713227
0.000758215
0.0017094
0.00161882
0.00105891
8.43921e-05
0.00133488
0.00214063
0.00222361
0.00145521
0.000132123
0.00183306
0.000619166
0.00151196
0.00349223
0.00436231
0.00500207
0.00437462
0.00311583
0.00193688
0.000530607
0.00104915
0.00182282
0.00183748
0.0012194
0.000486426
0.000857944
0.00147147
0.0017505
0.000846118
0.000507019
0.00208087
0.000707693
0.00125744
0.00265408
0.00385898
0.00418982
0.00371821
0.00250095
0.00166042
0.00020557
0.00125121
0.00154904
0.00159876
0.00134096
0.000306622
0.000422471
0.000774232
0.00102047
0.000262645
0.000537717
0.00247046
0.000649915
0.000736837
0.00217743
0.00292554
0.00303633
0.00290827
0.0021526
0.00130251
6.01459e-08
0.00103124
0.0014429
0.00167281
0.0013333
0.000560162
4.92818e-05
0.000497437
0.000773504
0.000284774
0.000839915
0.00188002
0.000618676
0.00067881
0.00180148
0.00224799
0.00257619
0.00215111
0.00166858
0.000955125
0.000110741
0.000908812
0.00145435
0.00132745
0.00112867
0.000709455
7.30836e-05
0.000424577
0.000449949
0.000114477
0.000920187
0.00171223
0.000370114
0.000337398
0.00108561
0.00167106
0.00199445
0.00165089
0.0010484
0.00065108
0.000193865
0.000801413
0.0010665
0.0010879
0.000853407
0.000539909
2.28107e-06
5.96143e-05
0.000208106
0.000228254
0.00058996
0.00128342
0.000169601
0.000288895
0.000703173
0.000836041
0.00104976
0.000788239
0.000537681
0.000183817
0.00010143
0.00058722
0.000561313
0.000468721
0.000496381
0.000309682
0.000157465
4.8022e-05
0.000192081
1.66522e-05
0.000484429
0.000923225
0.000246453
0.000199824
0.00013436
0.00050968
0.000454318
0.000528788
0.000240929
1.17396e-05
5.80844e-05
9.74096e-05
0.000349079
0.000217807
6.81571e-06
0.000230453
0.000166356
4.13917e-05
5.54555e-05
4.85252e-05
0.00023181
0.000272727
0.00014571
0.00249244
0.00455683
0.00571244
0.00603144
0.00560525
0.00469343
0.00327675
0.00200749
0.000578188
0.000126255
8.1669e-05
0.000130102
0.00138702
0.00226509
0.0030394
0.00309728
0.00235708
0.0010031
0.0011697
5.02558e-05
0.0017886
0.0039222
0.00506014
0.0052305
0.00466041
0.00384646
0.00258585
0.00142345
0.000303874
0.000449943
0.000658625
7.25666e-05
0.000722285
0.00178236
0.00238699
0.00213473
0.00166995
0.000318735
0.00151593
0.000131626
0.001628
0.00293153
0.00429102
0.00455229
0.00387812
0.00329443
0.00229573
0.000921147
0.000114297
0.000502562
0.000841617
0.000100867
0.000517752
0.00103404
0.00146233
0.00189432
0.00105601
0.000115525
0.0016501
1.67035e-05
0.00116828
0.00240548
0.0033423
0.003326
0.00320014
0.00279304
0.0018585
0.00105099
0.000181357
0.000631418
0.000542833
0.000308554
1.0452e-05
0.000794142
0.00132989
0.00140134
0.000753333
0.000522698
0.00159461
0.000178171
0.000753788
0.00168595
0.00256261
0.00286302
0.00268907
0.00216602
0.00122285
0.000655713
0.00032976
0.000430626
0.00063392
0.000266785
0.000127927
0.000490763
0.000630319
0.000627223
0.000351959
0.000505384
0.00147486
0.000419441
0.000570063
0.00128734
0.00180828
0.00178172
0.00165809
0.00152997
0.000938958
0.000378755
3.34004e-05
0.000319439
0.000439302
0.000278031
0.000179298
0.000341035
0.000482783
0.000519875
0.000301348
0.00051903
0.00134578
0.000213585
0.00045925
0.000702501
0.0011333
0.000887101
0.000837766
0.000871712
0.000636753
0.000147522
1.61539e-05
0.000368429
0.000241571
0.000160189
1.98688e-05
0.000134592
0.000301366
2.13904e-05
0.000294438
0.000317479
0.000461576
0.000111079
7.47593e-05
0.000469245
0.000626917
0.000541012
0.000218556
0.000179583
0.000367474
0.000186797
5.98082e-05
0.000341564
0.000132607
3.42306e-05
5.54109e-05
0.000192793
0.000132775
0.000130794
0.000150006
1.67456e-05
0.000137431
0.00103148
0.00348526
0.00515711
0.00681355
0.00712622
0.0069987
0.00602746
0.00483936
0.00379172
0.00260301
0.00188834
0.00189155
0.0022869
0.0032785
0.00395092
0.00447564
0.00448999
0.00373421
0.00218333
0.000354038
0.000785915
0.00260824
0.00452256
0.00581199
0.0059094
0.0060014
0.00534311
0.00433521
0.00313516
0.00200465
0.00154031
0.00172545
0.00160386
0.0023264
0.00326083
0.00338617
0.00337827
0.00278272
0.00118757
0.000265347
0.000289137
0.00221421
0.00375099
0.00472816
0.00495978
0.00494486
0.00434285
0.00321668
0.00243621
0.00149716
0.000944399
0.000861739
0.00107214
0.00167112
0.00249383
0.00273849
0.00284975
0.0021134
0.000903047
0.000582784
0.000352651
0.00185045
0.00305063
0.00386956
0.00417138
0.00411059
0.00333787
0.0026197
0.00197389
0.00110996
0.000876327
0.000797709
0.00102011
0.00143373
0.00173847
0.00215127
0.00195804
0.00129788
0.000371474
0.000659361
0.00042637
0.0012596
0.00249315
0.0030107
0.00306693
0.00318869
0.00272136
0.00214824
0.00154233
0.00110995
0.000485981
0.000520981
0.000943147
0.00126449
0.00153812
0.00138078
0.00138536
0.00118091
0.000279527
0.000675181
0.000277378
0.000940687
0.00158583
0.00197478
0.0022288
0.00225853
0.00203108
0.0013494
0.00090831
0.000498798
0.000291063
0.000423983
0.000280746
0.000485335
0.000999462
0.00118499
0.000999102
0.000757266
0.00011419
0.000559401
5.95646e-05
0.000625061
0.000958965
0.00144937
0.00108299
0.00169591
0.00150874
0.000911334
0.00059252
0.000305027
0.0001961
0.000406646
0.000336244
0.000491343
0.000422288
0.00070351
0.000555393
0.000254332
0.00014073
0.000706286
3.85817e-05
0.000383672
0.000302122
0.000556683
0.000255963
0.000596955
0.000308789
0.0004875
0.000271724
1.63592e-05
0.000129459
0.000197999
0.000100956
2.38263e-05
8.64689e-05
0.000296897
0.000256289
4.06409e-05
0.000105548
0.000249309
0.00234624
0.00468712
0.00678599
0.00811566
0.00844328
0.00853456
0.00771967
0.00710698
0.00591382
0.00515649
0.00467047
0.00451126
0.00484147
0.00532212
0.00619486
0.00636023
0.00635955
0.00548036
0.0038268
0.00213982
0.00209608
0.00404097
0.00579633
0.00676718
0.00732719
0.00729646
0.00655969
0.0060183
0.00511191
0.00420622
0.0040095
0.0032394
0.00381907
0.0045382
0.00495728
0.00514357
0.00498637
0.0042703
0.00279877
0.0013679
0.00173205
0.00337984
0.00457461
0.005577
0.00635465
0.00617792
0.00559462
0.00492048
0.00431451
0.00344448
0.00324164
0.00314662
0.00317786
0.00362333
0.00398824
0.00413591
0.00403858
0.00332128
0.00244462
0.00052474
0.00116717
0.00254437
0.00378599
0.00470522
0.00518411
0.00501935
0.00463156
0.00412884
0.00345077
0.00273907
0.00243512
0.00241375
0.00250738
0.00274018
0.00314704
0.00351744
0.00311699
0.00246692
0.00162695
0.000571128
0.000977114
0.00195959
0.00312054
0.0036904
0.00389443
0.00394754
0.0036983
0.00309325
0.00277255
0.00220036
0.001813
0.00168332
0.00189737
0.00207425
0.00237574
0.00265963
0.00244266
0.00182286
0.00124982
0.000114127
0.000579631
0.00128299
0.00224325
0.00274601
0.00284496
0.00259183
0.00261979
0.00218949
0.00166064
0.00145329
0.00102845
0.00135931
0.00118457
0.00188419
0.00184557
0.00186343
0.00180855
0.00138595
0.000677505
3.63349e-05
0.000453172
0.000703228
0.00154181
0.00185441
0.00163835
0.00183637
0.00174197
0.00142593
0.00113021
0.000710793
0.000835667
0.000684492
0.000805995
0.000921232
0.00118375
0.00105389
0.000973746
0.000696986
0.000146902
0.000208536
0.000140968
0.000219282
0.000560924
0.00033914
0.000610163
0.000558652
0.000504275
0.00040236
0.000282763
0.00033001
0.000281708
5.15308e-05
0.000267272
0.000211934
0.000577683
0.000513569
0.000442309
0.000108415
0.000140026
0.000134937
0.00429533
0.0067378
0.00848174
0.00987995
0.0103884
0.0103757
0.0104046
0.00964962
0.00852938
0.0078084
0.00732778
0.00745519
0.00779621
0.00800021
0.00883522
0.00881348
0.00869611
0.00787149
0.0061569
0.00435854
0.00364559
0.00565128
0.00726405
0.00837966
0.00898751
0.00915003
0.00870869
0.00829027
0.00721975
0.00668003
0.0062241
0.00611817
0.00658583
0.00677458
0.0072087
0.00747241
0.00701168
0.00616679
0.00499628
0.0033613
0.00304939
0.00445779
0.00616047
0.00702158
0.00756349
0.00781124
0.00744819
0.00666534
0.00608031
0.00553279
0.005367
0.00531457
0.0054203
0.00552256
0.00580302
0.0060969
0.00580922
0.00526552
0.00389339
0.00249703
0.00255883
0.00390047
0.00499542
0.00581934
0.0061827
0.00643334
0.00607503
0.00549681
0.00500881
0.00458149