/*--------------------------------*- C++ -*----------------------------------*\
| =========                 |                                                 |
| \\      /  F ield         | OpenFOAM: The Open Source CFD Toolbox           |
|  \\    /   O peration     | Version:  2212                                  |
|   \\  /    A nd           | Website:  www.openfoam.com                      |
|    \\/     M anipulation  |                                                 |
\*---------------------------------------------------------------------------*/
FoamFile
{
    version     2.0;
    format      ascii;
    arch        "LSB;label=32;scalar=64";
    class       volScalarField;
    location    "0";
    object      T;
}
// * * * * * * * * * * * * * * * * * * * * * * * * * * * * * * * * * * * * * //

dimensions      [0 0 0 1 0 0 0];

internalField   nonuniform List<scalar> 
3200
(
339.986
340.769
341.905
342.534
343.345
344.221
344.539
344.776
345.153
345.049
345.136
345.184
344.753
344.512
344.027
343.212
342.507
341.565
340.584
339.998
334.72
335.41
336.409
336.935
337.624
338.389
338.658
338.877
339.174
339.062
339.201
339.238
338.876
338.655
338.29
337.496
336.899
336.125
335.208
334.713
329.411
330.043
330.848
331.291
331.893
332.483
332.766
332.961
333.193
333.031
333.19
333.271
332.955
332.765
332.502
331.764
331.244
330.653
329.867
329.415
324.103
324.591
325.237
325.619
326.151
326.596
326.881
326.988
327.164
327.014
327.189
327.314
327.004
326.87
326.658
326.059
325.586
325.151
324.515
324.136
318.772
319.166
319.648
319.963
320.401
320.731
320.956
321.001
321.123
320.997
321.119
321.296
321.067
320.967
320.785
320.311
319.864
319.596
319.115
318.82
313.41
313.752
314.037
314.293
314.652
314.898
314.992
315.042
315.091
315.018
315.077
315.219
315.065
315.027
314.828
314.523
314.174
314.044
313.687
313.447
308.057
308.249
308.454
308.587
308.831
308.985
309.023
309.057
309.072
309.019
309.078
309.118
309.043
309.037
308.861
308.702
308.496
308.455
308.201
308.081
302.719
302.766
302.844
302.87
302.955
303.01
303.018
303.043
303.031
303.021
303.038
303.07
303.061
303.014
302.957
302.906
302.841
302.825
302.741
302.701
340.857
341.606
342.514
343.33
344.105
345.103
345.436
345.702
346.092
346.102
346.129
345.902
345.83
345.223
344.883
344.134
343.071
342.472
341.489
340.598
335.455
336.088
336.854
337.605
338.255
339.127
339.452
339.633
339.978
339.982
340.001
339.84
339.77
339.232
338.953
338.243
337.361
336.786
335.987
335.302
330.074
330.552
331.203
331.847
332.368
333.109
333.451
333.557
333.86
333.804
333.833
333.758
333.703
333.216
332.972
332.357
331.636
331.142
330.514
329.908
324.683
325.038
325.543
326.082
326.515
327.083
327.445
327.471
327.765
327.63
327.665
327.628
327.615
327.192
326.918
326.481
325.897
325.49
325.031
324.483
319.271
319.505
319.872
320.288
320.638
321.065
321.425
321.438
321.632
321.44
321.488
321.495
321.491
321.128
320.926
320.569
320.132
319.847
319.494
319.077
313.829
313.961
314.194
314.522
314.758
315.052
315.322
315.338
315.468
315.294
315.34
315.377
315.36
315.102
314.973
314.703
314.38
314.21
313.912
313.664
308.313
308.413
308.51
308.745
308.867
309.066
309.211
309.215
309.276
309.175
309.233
309.236
309.229
309.066
308.97
308.812
308.627
308.529
308.368
308.207
302.779
302.815
302.866
302.95
302.957
303.067
303.086
303.105
303.109
303.055
303.086
303.105
303.099
303.058
302.992
302.927
302.893
302.86
302.811
302.745
341.887
342.581
343.482
344.502
345.391
346.115
346.399
346.942
347.352
347.242
347.252
347.008
346.641
346.169
345.951
345.181
344.14
343.337
342.489
341.61
336.347
336.892
337.718
338.645
339.373
339.987
340.257
340.674
341.049
340.939
340.958
340.745
340.422
340.031
339.822
339.131
338.276
337.556
336.824
336.116
330.797
331.229
331.912
332.727
333.336
333.823
334.117
334.412
334.751
334.664
334.668
334.474
334.197
333.908
333.68
333.085
332.402
331.81
331.173
330.578
325.218
325.581
326.123
326.799
327.299
327.63
327.931
328.158
328.423
328.349
328.371
328.241
328.033
327.784
327.555
327.08
326.546
326.035
325.522
325.041
319.569
319.912
320.34
320.851
321.268
321.447
321.757
321.894
322.094
322.024
322.071
321.995
321.876
321.609
321.387
321.055
320.663
320.264
319.849
319.492
313.978
314.239
314.518
314.868
315.25
315.277
315.555
315.655
315.796
315.699
315.778
315.743
315.675
315.459
315.253
315.08
314.781
314.478
314.164
313.972
308.421
308.554
308.697
308.903
309.223
309.17
309.336
309.382
309.463
309.375
309.46
309.425
309.417
309.309
309.145
309.048
308.869
308.694
308.465
308.412
302.832
302.856
302.921
302.989
303.098
303.077
303.128
303.15
303.174
303.13
303.156
303.167
303.152
303.125
303.071
303.045
302.976
302.937
302.846
302.815
342.872
343.695
344.63
345.848
346.456
347.049
347.767
348.194
348.394
348.56
348.363
348.197
347.784
347.492
346.905
345.941
345.299
344.309
343.256
342.579
337.194
337.9
338.684
339.776
340.255
340.771
341.406
341.809
341.942
342.084
341.893
341.802
341.421
341.138
340.64
339.788
339.261
338.388
337.483
336.92
331.513
332.116
332.678
333.659
334.059
334.525
335.027
335.35
335.477
335.589
335.44
335.445
335.051
334.797
334.362
333.68
333.161
332.489
331.738
331.281
325.817
326.315
326.711
327.534
327.885
328.235
328.62
328.907
329.022
329.112
328.966
329.001
328.665
328.463
328.119
327.553
327.098
326.591
326.001
325.622
320.121
320.483
320.805
321.446
321.705
321.964
322.215
322.464
322.582
322.653
322.5
322.509
322.298
322.174
321.895
321.445
321.088
320.687
320.261
319.997
314.402
314.68
314.889
315.346
315.526
315.703
315.859
316.067
316.194
316.214
316.073
316.055
315.912
315.839
315.651
315.32
315.048
314.764
314.456
314.363
308.66
308.819
308.955
309.23
309.325
309.407
309.536
309.65
309.731
309.743
309.669
309.633
309.526
309.528
309.4
309.176
309.033
308.895
308.68
308.624
302.912
302.962
303.016
303.094
303.143
303.158
303.209
303.222
303.272
303.257
303.23
303.212
303.188
303.209
303.149
303.067
303.032
303.013
302.926
302.893
343.922
344.624
345.763
346.822
347.741
348.219
348.822
349.488
349.461
349.605
349.375
349.433
349.045
348.492
347.868
347.243
346.385
345.532
344.413
343.592
338.167
338.694
339.628
340.585
341.369
341.841
342.329
342.879
342.843
342.981
342.781
342.817
342.472
342.058
341.51
340.906
340.159
339.474
338.496
337.771
332.351
332.781
333.498
334.349
335.015
335.467
335.793
336.269
336.248
336.351
336.178
336.211
335.913
335.608
335.107
334.56
333.975
333.442
332.593
331.965
326.538
326.829
327.364
328.15
328.676
329.012
329.292
329.681
329.648
329.763
329.608
329.588
329.39
329.181
328.757
328.24
327.766
327.381
326.642
326.184
320.697
320.902
321.277
321.936
322.362
322.523
322.743
323.096
323.044
323.138
323.056
323.03
322.864
322.734
322.413
321.984
321.59
321.258
320.735
320.416
314.817
314.909
315.188
315.705
315.989
316.099
316.242
316.5
316.469
316.557
316.502
316.425
316.363
316.266
316.013
315.674
315.426
315.183
314.792
314.599
308.903
308.922
309.114
309.45
309.609
309.671
309.751
309.912
309.889
309.956
309.91
309.851
309.822
309.772
309.611
309.411
309.238
309.102
308.88
308.77
302.983
302.977
303.056
303.159
303.226
303.244
303.279
303.322
303.304
303.337
303.301
303.296
303.3
303.28
303.224
303.174
303.098
303.045
302.986
302.95
344.943
345.608
346.62
347.669
348.679
349.289
349.844
350.264
350.423
350.612
350.34
350.221
350.218
349.56
349.014
348.236
347.547
346.531
345.364
344.328
339.004
339.51
340.37
341.343
342.211
342.745
343.241
343.551
343.676
343.877
343.675
343.491
343.512
342.934
342.465
341.806
341.2
340.325
339.298
338.419
333.088
333.408
334.11
334.978
335.748
336.208
336.625
336.878
336.921
337.131
336.986
336.773
336.798
336.33
335.96
335.375
334.858
334.119
333.19
332.541
327.152
327.363
327.865
328.66
329.235
329.643
329.957
330.169
330.182
330.336
330.263
330.105
330.104
329.75
329.425
328.967
328.527
327.898
327.117
326.681
321.17
321.285
321.649
322.337
322.802
323.052
323.269
323.513
323.402
323.592
323.529
323.461
323.418
323.091
322.909
322.57
322.206
321.706
321.043
320.732
315.098
315.227
315.449
315.984
316.367
316.405
316.575
316.8
316.644
316.876
316.826
316.769
316.777
316.492
316.381
316.146
315.876
315.512
315.02
314.803
309.026
309.168
309.272
309.59
309.887
309.838
309.96
310.089
309.935
310.111
310.098
310.055
310.104
309.888
309.823
309.698
309.539
309.34
309.021
308.893
303.004
303.089
303.114
303.229
303.336
303.297
303.334
303.392
303.326
303.368
303.377
303.381
303.41
303.316
303.302
303.261
303.19
303.138
303.024
303.001
345.526
346.521
347.822
348.737
349.764
350.29
350.899
351.181
351.369
351.609
351.751
351.486
351.254
350.707
350.054
349.221
348.42
347.305
346.234
345.136
339.471
340.344
341.477
342.228
343.127
343.598
344.165
344.375
344.535
344.725
344.826
344.629
344.419
343.897
343.352
342.631
341.926
340.982
340.055
339.085
333.44
334.144
335.061
335.737
336.451
336.917
337.423
337.518
337.697
337.84
337.924
337.785
337.604
337.129
336.645
336.081
335.462
334.681
333.906
333.089
327.414
327.969
328.645
329.238
329.768
330.19
330.614
330.664
330.872
330.961
331.049
330.96
330.788
330.414
329.979
329.528
329.011
328.381
327.743
327.12
321.387
321.796
322.266
322.757
323.142
323.467
323.825
323.847
323.996
324.087
324.144
324.098
323.977
323.712
323.333
322.954
322.594
322.076
321.614
321.116
315.29
315.595
315.915
316.328
316.507
316.74
317.011
317.043
317.112
317.18
317.228
317.207
317.146
316.946
316.666
316.379
316.195
315.803
315.446
315.065
309.192
309.37
309.567
309.809
309.91
310.022
310.23
310.203
310.248
310.296
310.321
310.324
310.306
310.186
309.979
309.846
309.785
309.492
309.285
309.06
303.076
303.152
303.234
303.303
303.322
303.352
303.434
303.417
303.424
303.444
303.448
303.46
303.444
303.424
303.35
303.303
303.311
303.16
303.115
303.035
346.479
347.469
348.799
349.647
350.516
351.189
351.781
352.171
352.394
352.601
352.724
352.498
352.129
351.785
350.921
350.276
349.262
348.305
347.308
346.165
340.302
341.141
342.315
343.016
343.753
344.385
344.87
345.199
345.383
345.598
345.718
345.507
345.179
344.937
344.147
343.564
342.665
341.871
340.992
340.014
334.084
334.819
335.8
336.394
337.019
337.54
337.969
338.201
338.421
338.558
338.751
338.527
338.22
338.051
337.373
336.941
336.11
335.435
334.649
333.883
327.924
328.485
329.305
329.746
330.281
330.716
331.092
331.204
331.488
331.525
331.743
331.56
331.284
331.161
330.614
330.308
329.524
329.019
328.333
327.754
321.732
322.142
322.773
323.128
323.564
323.867
324.199
324.264
324.541
324.464
324.696
324.597
324.384
324.251
323.865
323.624
322.95
322.564
322.033
321.597
315.499
315.814
316.251
316.488
316.829
317.089
317.295
317.334
317.527
317.447
317.602
317.616
317.46
317.33
317.066
316.937
316.415
316.121
315.721
315.412
309.312
309.515
309.782
309.874
310.125
310.247
310.403
310.392
310.499
310.472
310.563
310.606
310.508
310.387
310.276
310.195
309.866
309.673
309.432
309.253
303.134
303.204
303.302
303.304
303.39
303.429
303.477
303.485
303.513
303.498
303.524
303.554
303.508
303.47
303.463
303.412
303.308
303.228
303.159
303.087
347.163
348.3
349.71
350.523
351.251
352.237
352.627
353.143
353.642
353.526
353.645
353.368
352.904
352.609
351.857
351.234
350.092
349.042
348.131
346.946
340.904
341.893
343.071
343.791
344.384
345.275
345.601
346.07
346.497
346.405
346.481
346.224
345.849
345.593
344.94
344.42
343.407
342.474
341.718
340.686
334.662
335.51
336.505
337.03
337.555
338.277
338.583
338.981
339.332
339.299
339.336
339.114
338.837
338.576
338.011
337.636
336.736
335.923
335.315
334.436
328.417
329.103
329.922
330.294
330.736
331.294
331.572
331.9
332.196
332.168
332.244
332.041
331.803
331.568
331.094
330.845
330.037
329.394
328.875
328.172
322.141
322.631
323.281
323.557
323.889
324.326
324.58
324.806
325.092
325.056
325.13
324.927
324.725
324.579
324.19
324.026
323.415
322.894
322.417
321.939
315.811
316.156
316.627
316.805
317.05
317.327
317.548
317.672
317.958
317.906
317.987
317.841
317.664
317.543
317.282
317.21
316.741
316.357
315.984
315.644
309.482
309.682
309.996
310.077
310.252
310.406
310.544
310.598
310.8
310.752
310.814
310.729
310.596
310.529
310.388
310.38
310.063
309.808
309.602
309.405
303.182
303.251
303.361
303.391
303.445
303.506
303.543
303.556
303.611
303.609
303.624
303.586
303.56
303.526
303.493
303.493
303.372
303.286
303.218
303.142
348.221
349.159
350.454
351.348
352.067
352.975
353.506
354.249
354.463
354.601
354.487
354.301
353.826
353.471
352.717
351.984
351.007
349.993
348.925
347.926
341.793
342.626
343.757
344.491
345.099
345.906
346.369
346.994
347.223
347.369
347.232
347.058
346.634
346.336
345.7
345.038
344.197
343.313
342.399
341.564
335.348
336.114
337.016
337.622
338.188
338.821
339.239
339.741
339.918
340.079
339.983
339.827
339.447
339.271
338.662
338.142
337.389
336.671
335.888
335.189
328.909
329.541
330.284
330.822
331.228
331.725
332.098
332.508
332.651
332.772
332.762
332.604
332.234
332.106
331.641
331.213
330.604
330.019
329.364
328.819
322.492
322.945
323.577
323.967
324.276
324.602
324.993
325.29
325.405
325.471
325.49
325.349
325.058
324.993
324.575
324.294
323.783
323.357
322.822
322.426
316.099
316.393
316.864
317.131
317.354
317.555
317.899
318.069
318.151
318.199
318.207
318.122
317.886
317.868
317.525
317.376
316.96
316.695
316.306
316.045
309.692
309.829
310.125
310.244
310.424
310.54
310.767
310.823
310.9
310.938
310.929
310.894
310.723
310.709
310.516
310.449
310.188
310.038
309.815
309.655
303.238
303.297
303.386
303.435
303.516
303.539
303.611
303.639
303.654
303.653
303.664
303.66
303.585
303.579
303.517
303.51
303.438
303.364
303.316
303.233
348.981
349.823
350.947
352.193
353.043
353.576
354.214
354.89
355.399
355.328
355.303
354.918
354.537
354.285
353.549
352.721
351.529
350.76
349.534
348.597
342.497
343.157
344.203
345.201
345.989
346.423
346.999
347.594
348.026
348.012
347.963
347.58
347.272
347.065
346.429
345.709
344.646
343.994
342.934
342.149
335.993
336.49
337.453
338.224
338.917
339.258
339.801
340.273
340.602
340.661
340.626
340.278
339.976
339.877
339.302
338.676
337.792
337.229
336.377
335.663
329.514
329.863
330.686
331.328
331.799
332.1
332.579
332.968
333.198
333.276
333.265
332.94
332.71
332.598
332.194
331.616
330.928
330.507
329.789
329.185
323.019
323.211
323.913
324.388
324.713
324.96
325.401
325.674
325.826
325.888
325.905
325.66
325.433
325.347
325.073
324.557
324.022
323.764
323.181
322.706
316.485
316.538
317.094
317.379
317.642
317.826
318.169
318.357
318.474
318.484
318.491
318.333
318.143
318.155
317.914
317.522
317.158
316.992
316.56
316.218
309.934
309.892
310.255
310.422
310.589
310.68
310.91
311.01
311.089
311.095
311.098
311.008
310.891
310.895
310.735
310.524
310.304
310.232
309.949
309.749
303.334
303.305
303.444
303.514
303.546
303.573
303.652
303.705
303.733
303.729
303.729
303.684
303.666
303.647
303.583
303.533
303.467
303.453
303.33
303.257
349.38
350.374
351.642
352.685
353.697
354.281
354.826
355.417
355.964
355.809
355.853
355.558
355.278
354.756
354.084
353.433
352.156
351.084
350.183
349.303
342.833
343.623
344.778
345.674
346.553
347.077
347.515
348.054
348.509
348.346
348.392
348.139
347.925
347.428
346.892
346.276
345.192
344.275
343.446
342.741
336.3
336.884
337.886
338.666
339.41
339.834
340.192
340.701
341.018
340.911
340.958
340.743
340.575
340.085
339.679
339.141
338.242
337.508
336.756
336.171
329.737
330.22
330.999
331.604
332.254
332.564
332.92
333.376
333.548
333.489
333.55
333.388
333.222
332.783
332.44
332.011
331.265
330.713
330.056
329.601
323.1
323.538
324.098
324.588
325.093
325.323
325.626
325.96
326.063
326.046
326.093
326.007
325.841
325.474
325.213
324.919
324.312
323.935
323.379
323.01
316.419
316.793
317.248
317.57
317.969
318.071
318.334
318.553
318.572
318.606
318.629
318.608
318.479
318.19
318.009
317.805
317.376
317.136
316.706
316.463
309.822
310.099
310.402
310.553
310.802
310.858
310.973
311.166
311.166
311.171
311.169
311.2
311.129
310.897
310.813
310.706
310.433
310.312
310.031
309.888
303.294
303.377
303.494
303.533
303.602
303.661
303.667
303.767
303.756
303.745
303.745
303.76
303.731
303.667
303.613
303.589
303.483
303.474
303.36
303.29
349.951
350.814
352.235
353.261
354.13
354.782
355.497
356.015
356.381
356.396
356.368
356.313
355.964
355.528
354.53
353.874
353.008
351.691
350.645
349.472
343.349
344.023
345.244
346.143
346.885
347.49
348.092
348.508
348.841
348.889
348.88
348.809
348.486
348.119
347.275
346.63
345.924
344.835
343.842
342.89
336.733
337.218
338.272
339.005
339.652
340.187
340.666
341.002
341.347
341.376
341.38
341.282
341.06
340.701
340.019
339.422
338.865
337.971
337.031
336.308
330.088
330.464
331.305
331.882
332.446
332.855
333.218
333.51
333.84
333.838
333.854
333.785
333.638
333.307
332.733
332.241
331.806
331.086
330.27
329.689
323.435
323.715
324.356
324.789
325.232
325.575
325.805
326.014
326.377
326.322
326.322
326.354
326.166
325.898
325.429
325.114
324.732
324.173
323.513
323.163
316.761
316.95
317.358
317.711
318.044
318.29
318.445
318.559
318.836
318.831
318.794
318.862
318.704
318.52
318.145
317.948
317.683
317.241
316.782
316.581
310.086
310.196
310.409
310.65
310.85
310.997
311.098
311.175
311.3
311.309
311.263
311.339
311.231
311.13
310.905
310.768
310.632
310.367
310.046
309.97
303.383
303.421
303.481
303.569
303.642
303.674
303.725
303.75
303.812
303.794
303.776
303.802
303.76
303.731
303.652
303.628
303.573
303.479
303.375
303.345
350.352
351.224
352.619
353.885
354.63
355.272
356.047
356.455
356.637
356.964
357.013
356.817
356.495
355.929
355.072
354.12
353.342
352.079
351.048
349.939
343.701
344.431
345.609
346.673
347.395
347.898
348.561
348.954
349.06
349.298
349.416
349.267
348.958
348.485
347.735
346.914
346.249
345.084
344.249
343.315
336.991
337.646
338.597
339.487
340.132
340.541
341.077
341.401
341.484
341.732
341.781
341.67
341.391
341.01
340.335
339.7
339.149
338.143
337.425
336.665
330.299
330.829
331.602
332.288
332.843
333.191
333.632
333.823
333.912
334.149
334.201
334.085
333.867
333.531
333.006
332.499
332.066
331.234
330.602
329.994
323.564
323.964
324.554
325.114
325.547
325.843
326.176
326.283
326.347
326.537
326.587
326.491
326.294
326.079
325.677
325.319
324.952
324.3
323.791
323.324
316.808
317.092
317.528
317.935
318.252
318.452
318.694
318.772
318.838
318.986
318.989
318.926
318.769
318.589
318.339
318.102
317.833
317.35
316.994
316.677
310.124
310.24
310.574
310.783
310.983
311.08
311.24
311.254
311.346
311.412
311.369
311.34
311.263
311.138
311.006
310.857
310.706
310.389
310.21
310.02
303.399
303.444
303.544
303.621
303.694
303.701
303.768
303.768
303.814
303.83
303.798
303.808
303.77
303.712
303.674
303.64
303.571
303.486
303.436
303.361
350.681
351.517
353.058
354.032
354.943
355.507
356.355
356.703
356.982
357.411
357.52
357.068
356.618
356.044
355.438
354.827
353.813
352.539
351.246
350.449
343.974
344.621
345.972
346.814
347.591
348.091
348.826
349.132
349.367
349.741
349.851
349.388
349.057
348.544
348.058
347.545
346.631
345.537
344.423
343.806
337.227
337.739
338.877
339.629
340.232
340.673
341.344
341.579
341.784
342.074
342.187
341.75
341.563
341.069
340.66
340.221
339.462
338.545
337.571
337.088
330.47
330.896
331.79
332.434
332.876
333.27
333.825
334.004
334.188
334.455
334.509
334.16
334.006
333.621
333.271
332.828
332.319
331.55
330.755
330.334
323.66
324.009
324.744
325.258
325.542
325.888
326.339
326.432
326.59
326.795
326.824
326.619
326.468
326.134
325.886
325.539
325.179
324.535
323.919
323.566
316.842
317.158
317.691
318.101
318.258
318.504
318.843
318.844
318.982
319.144
319.141
319.062
318.953
318.646
318.493
318.227
318.015
317.491
317.131
316.847
310.12
310.284
310.629
310.883
310.971
311.11
311.322
311.263
311.404
311.491
311.455
311.474
311.381
311.213
311.1
310.943
310.84
310.451
310.289
310.144
303.394
303.443
303.558
303.647
303.681
303.717
303.792
303.775
303.851
303.854
303.831
303.85
303.806
303.768
303.707
303.651
303.616
303.478
303.432
303.403
350.833
351.815
353.179
354.356
355.313
355.853
356.551
357.114
357.476
357.567
357.837
357.637
357.102
356.478
355.908
355.057
354.088
352.854
351.53
350.495
344.109
344.904
346.082
347.102
347.892
348.388
348.943
349.496
349.785
349.887
350.145
349.969
349.514
348.957
348.428
347.683
346.87
345.796
344.637
343.779
337.398
337.989
338.984
339.869
340.479
340.944
341.39
341.814
342.131
342.213
342.477
342.295
341.928
341.417
340.966
340.315
339.628
338.745
337.753
337.055
330.638
331.116
331.914
332.645
333.154
333.436
333.853
334.182
334.506
334.543
334.742
334.584
334.33
333.908
333.495
332.975
332.409
331.654
330.884
330.326
323.86
324.205
324.834
325.449
325.849
326.028
326.318
326.566
326.869
326.89
327.047
326.938
326.745
326.376
326.047
325.647
325.204
324.599
324.029
323.595
317.036
317.245
317.75
318.162
318.484
318.642
318.833
318.982
319.204
319.199
319.325
319.258
319.141
318.821
318.589
318.338
318.02
317.575
317.163
316.899
310.234
310.355
310.622
310.927
311.116
311.229
311.323
311.389
311.5
311.478
311.594
311.559
311.503
311.316
311.155
310.998
310.824
310.536
310.309
310.174
303.423
303.479
303.552
303.669
303.727
303.769
303.808
303.844
303.855
303.855
303.866
303.864
303.839
303.766
303.744
303.679
303.628
303.524
303.439
303.413
351.093
351.995
353.271
354.528
355.449
356.35
357.063
357.444
357.738
357.816
357.95
357.732
357.266
356.637
356.108
355.054
354.156
352.966
351.781
350.678
344.298
345.089
346.147
347.286
348.054
348.841
349.448
349.772
349.987
350.104
350.239
350.055
349.634
349.04
348.607
347.703
346.955
345.899
344.873
343.974
337.497
338.202
339.046
340.019
340.669
341.34
341.832
342.083
342.27
342.427
342.495
342.38
341.998
341.406
341.095
340.387
339.718
338.868
337.949
337.246
330.73
331.298
331.956
332.77
333.285
333.829
334.201
334.39
334.545
334.712
334.773
334.698
334.347
333.83
333.615
333.087
332.506
331.829
331.042
330.475
323.97
324.346
324.826
325.514
325.842
326.349
326.6
326.73
326.867
326.981
327.049
327.041
326.73
326.308
326.116
325.77
325.271
324.796
324.135
323.693
317.137
317.389
317.723
318.246
318.475
318.839
319
319.125
319.192
319.248
319.326
319.348
319.106
318.793
318.65
318.421
318.045
317.793
317.233
316.93
310.279
310.436
310.609
310.964
311.093
311.299
311.403
311.481
311.535
311.555
311.628
311.614
311.504
311.299
311.157
311.06
310.854
310.706
310.367
310.148
303.443
303.488
303.548
303.68
303.717
303.793
303.828
303.833
303.886
303.882
303.891
303.896
303.862
303.767
303.73
303.71
303.642
303.587
303.477
303.394
351.258
352.301
353.446
354.666
355.493
356.64
357.188
357.502
357.893
357.878
357.867
358.035
357.572
356.681
356.188
355.352
354.436
353.205
351.77
350.467
344.479
345.32
346.328
347.398
348.12
349.116
349.589
349.824
350.165
350.106
350.13
350.286
349.879
349.112
348.671
347.937
347.167
346.146
344.854
343.806
337.688
338.278
339.201
340.124
340.706
341.598
341.943
342.145
342.464
342.401
342.42
342.546
342.196
341.539
341.165
340.514
339.915
339.091
337.964
337.117
330.885
331.289
332.083
332.84
333.316
334.033
334.336
334.473
334.736
334.651
334.728
334.803
334.563
334.007
333.638
333.098
332.642
331.995
331.057
330.425
324.063
324.339
324.945
325.549
325.938
326.509
326.709
326.812
327.059
326.941
327.012
327.091
326.869
326.426
326.084
325.726
325.378
324.884
324.166
323.741
317.211
317.372
317.812
318.264
318.519
318.934
319.068
319.142
319.353
319.262
319.277
319.396
319.195
318.907
318.604
318.38
318.119
317.769
317.288
316.991
310.332
310.417
310.699
310.944
311.137
311.358
311.446
311.453
311.597
311.585
311.571
311.669
311.545
311.347
311.16
311.043
310.86
310.677
310.38
310.226
303.451
303.478
303.584
303.656
303.742
303.814
303.844
303.827
303.865
303.894
303.882
303.917
303.853
303.807
303.717
303.709
303.637
303.581
303.476
303.451
351.391
352.479
353.585
354.561
355.641
356.554
357.212
357.687
357.959
358.184
357.931
357.921
357.668
356.8
356.235
355.267
354.347
353.26
351.765
350.678
344.588
345.478
346.416
347.307
348.251
349.049
349.578
350.032
350.264
350.458
350.262
350.225
349.981
349.238
348.685
347.904
347.121
346.133
344.812
343.957
337.8
338.457
339.289
340.04
340.86
341.534
341.979
342.359
342.575
342.754
342.556
342.484
342.297
341.667
341.187
340.537
339.927
339.073
337.909
337.239
330.949
331.455
332.141
332.752
333.448
333.991
334.373
334.685
334.87
334.989
334.825
334.767
334.634
334.047
333.673
333.171
332.702
332.007
331.015
330.461
324.056
324.47
325.029
325.455
326.039
326.465
326.755
327.027
327.149
327.242
327.141
327.029
326.903
326.47
326.187
325.812
325.5
324.884
324.141
323.683
317.199
317.481
317.904
318.182
318.6
318.936
319.145
319.338
319.385
319.493
319.441
319.31
319.178
318.895
318.729
318.442
318.22
317.771
317.285
316.949
310.315
310.49
310.734
310.908
311.169
311.376
311.516
311.63
311.642
311.712
311.694
311.6
311.503
311.326
311.222
311.103
310.929
310.697
310.402
310.23
303.469
303.534
303.604
303.655
303.739
303.826
303.869
303.888
303.896
303.906
303.923
303.895
303.864
303.791
303.762
303.734
303.66
303.602
303.486
303.449
351.574
352.469
353.68
354.519
355.532
356.681
357.136
357.728
357.971
357.939
358.109
357.741
357.39
357.007
356.369
355.32
354.409
353.027
351.758
350.777
344.747
345.47
346.548
347.24
348.142
349.124
349.47
350.002
350.259
350.229
350.378
350.062
349.742
349.398
348.849
347.947
347.181
345.959
344.858
344.088
337.929
338.463
339.334
339.976
340.75
341.567
341.866
342.309
342.575
342.525
342.645
342.404
342.079
341.788
341.314
340.595
339.982
338.915
337.947
337.341
331.055
331.479
332.174
332.727
333.407
334.034
334.271
334.635
334.881
334.784
334.877
334.741
334.414
334.217
333.803
333.212
332.753
331.858
331.053
330.592
324.177
324.459
325.033
325.425
326.019
326.492
326.697
326.953
327.137
327.089
327.086
327.034
326.788
326.609
326.266
325.838
325.489
324.8
324.155
323.81
317.261
317.42
317.877
318.198
318.606
318.941
319.092
319.277
319.358
319.339
319.304
319.308
319.116
319.001
318.753
318.465
318.237
317.711
317.245
317.019
310.386
310.434
310.722
310.936
311.194
311.374
311.484
311.604
311.627
311.633
311.591
311.568
311.509
311.424
311.234
311.097
310.958
310.625
310.355
310.199
303.491
303.507
303.589
303.662
303.743
303.817
303.85
303.909
303.873
303.909
303.896
303.878
303.863
303.828
303.766
303.731
303.661
303.563
303.473
303.408
)
;

boundaryField
{
    hotSide
    {
        type            fixedGradient;
        gradient        nonuniform List<scalar> 
400
(
415.571
427.898
439.844
451.357
462.383
472.872
482.773
492.039
500.623
508.484
515.579
521.874
527.335
531.933
535.643
538.444
540.32
541.262
541.261
540.318
426.954
439.634
451.924
463.77
475.117
485.912
496.105
505.645
514.486
522.584
529.896
536.386
542.018
546.764
550.598
553.497
555.447
556.435
556.455
555.506
437.243
450.243
462.845
474.991
486.628
497.702
508.158
517.947
527.02
535.332
542.841
549.507
555.296
560.177
564.123
567.112
569.128
570.16
570.199
569.244
446.377
459.66
472.537
484.951
496.846
508.165
518.856
528.866
538.145
546.648
554.331
561.154
567.082
572.082
576.129
579.198
581.274
582.344
582.4
581.442
454.3
467.829
480.945
493.59
505.708
517.24
528.134
538.334
547.793
556.461
564.295
571.254
577.302
582.406
586.539
589.678
591.806
592.909
592.981
592.02
460.968
474.703
488.019
500.858
513.162
524.873
535.936
546.297
555.905
564.711
572.672
579.744
585.893
591.084
595.29
598.487
600.658
601.789
601.873
600.909
466.346
480.244
493.72
506.715
519.168
531.021
542.219
552.708
562.435
571.352
579.413
586.576
592.805
598.065
602.328
605.572
607.776
608.929
609.023
608.056
470.404
484.424
498.019
511.128
523.691
535.65
546.949
557.532
567.347
576.345
584.48
591.71
597.997
603.308
607.614
610.89
613.119
614.288
614.388
613.418
473.122
487.221
500.892
514.075
526.709
538.737
550.099
560.742
570.613
579.663
587.845
595.118
601.442
606.784
611.116
614.413
616.656
617.834
617.936
616.963
474.487
488.621
502.327
515.542
528.208
540.264
551.655
562.324
572.219
581.291
589.492
596.782
603.121
608.476
612.817
616.121
618.369
619.548
619.649
618.672
474.493
488.619
502.315
515.522
528.179
540.227
551.609
562.269
572.156
581.219
589.413
596.695
603.026
608.374
612.708
616.006
618.248
619.422
619.519
618.537
473.141
487.215
500.86
514.017
526.625
538.626
549.963
560.58
570.426
579.451
587.609
594.858
601.16
606.482
610.793
614.071
616.298
617.459
617.547
616.56
470.439
484.418
497.97
511.036
523.556
535.472
546.727
557.268
567.041
575.998
584.094
591.286
597.536
602.812
607.084
610.33
612.53
613.672
613.748
612.757
466.402
480.243
493.66
506.595
518.988
530.783
541.922
552.351
562.021
570.881
578.887
585.998
592.176
597.388
601.605
604.806
606.97
608.087
608.147
607.15
461.053
474.714
487.956
500.721
512.949
524.585
535.573
545.86
555.395
564.13
572.022
579.028
585.112
590.242
594.39
597.533
599.653
600.738
600.78
599.777
454.419
467.861
480.889
493.445
505.473
516.916
527.72
537.832
547.204
555.787
563.538
570.417
576.388
581.42
585.483
588.557
590.624
591.671
591.692
590.685
446.54
459.723
472.5
484.811
496.603
507.819
518.407
528.316
537.495
545.9
553.488
560.219
566.059
570.975
574.941
577.935
579.941
580.946
580.944
579.932
437.459
450.348
462.837
474.87
486.392
497.35
507.692
517.368
526.329
534.532
541.934
548.498
554.187
558.973
562.83
565.735
567.672
568.63
568.603
567.589
427.232
439.791
451.959
463.68
474.902
485.572
495.64
505.056
513.775
521.753
528.949
535.326
540.851
545.493
549.228
552.034
553.897
554.805
554.752
553.736
415.919
428.117
439.932
451.312
462.205
472.559
482.327
491.46
499.914
507.646
514.617
520.791
526.135
530.621
534.224
536.925
538.708
539.563
539.483
538.468
)
;
    }
    coldSide
    {
        type            mixed;
        refValue        uniform 300;
        refGradient     uniform 0;
        valueFraction   uniform 0.991591;
        source          uniform 0;
        value           nonuniform List<scalar> 
400
(
300.023
300.023
300.024
300.024
300.025
300.025
300.026
300.026
300.027
300.027
300.028
300.028
300.028
300.029
300.029
300.029
300.029
300.029
300.029
300.029
300.023
300.024
300.024
300.025
300.025
300.026
300.027
300.027
300.027
300.028
300.028
300.028
300.029
300.029
300.029