/*--------------------------------*- C++ -*----------------------------------*\
| =========                 |                                                 |
| \\      /  F ield         | OpenFOAM: The Open Source CFD Toolbox           |
|  \\    /   O peration     | Version:  2212                                  |
|   \\  /    A nd           | Website:  www.openfoam.com                      |
|    \\/     M anipulation  |                                                 |
\*---------------------------------------------------------------------------*/
FoamFile
{
    version     2.0;
    format      ascii;
    arch        "LSB;label=32;scalar=64";
    class       volScalarField;
    location    "0";
    object      T;
}
// * * * * * * * * * * * * * * * * * * * * * * * * * * * * * * * * * * * * * //

dimensions      [0 0 0 1 0 0 0];

internalField   nonuniform List<scalar> 
3200
(
320.127
319.718
319.285
319.095
319.293
319.542
319.795
320.379
320.506
320.535
320.38
320.38
320.047
319.786
319.476
319.081
318.875
318.925
319.118
319.578
317.448
317.092
316.706
316.553
316.719
316.923
317.136
317.642
317.758
317.771
317.608
317.593
317.31
317.077
316.787
316.457
316.278
316.297
316.447
316.837
314.756
314.458
314.121
314.031
314.132
314.304
314.482
314.886
315.015
314.998
314.866
314.852
314.627
314.396
314.126
313.876
313.693
313.713
313.816
314.159
312.082
311.815
311.556
311.487
311.566
311.701
311.842
312.187
312.289
312.256
312.128
312.123
311.948
311.734
311.501
311.317
311.149
311.167
311.246
311.518
309.393
309.192
309.005
308.934
309.006
309.098
309.206
309.501
309.561
309.516
309.42
309.397
309.294
309.094
308.914
308.799
308.633
308.652
308.718
308.927
306.728
306.578
306.425
306.394
306.436
306.483
306.582
306.796
306.842
306.799
306.733
306.695
306.659
306.484
306.367
306.289
306.138
306.169
306.221
306.35
304.053
303.953
303.865
303.841
303.865
303.891
303.965
304.081
304.125
304.075
304.041
304.007
304.01
303.887
303.815
303.786
303.674
303.703
303.738
303.815
301.366
301.321
301.298
301.293
301.286
301.294
301.32
301.367
301.38
301.374
301.354
301.337
301.35
301.298
301.269
301.265
301.233
301.237
301.262
301.275
320.175
319.644
319.32
319.136
319.444
319.639
319.976
320.263
320.577
320.742
320.747
320.603
320.317
320.054
319.555
319.275
319.104
319.012
319.168
319.755
317.481
317.01
316.745
316.583
316.849
316.996
317.292
317.553
317.81
317.902
317.905
317.797
317.519
317.289
316.847
316.625
316.448
316.367
316.507
316.993
314.792
314.398
314.16
314.026
314.24
314.358
314.608
314.839
315.058
315.115
315.108
315.012
314.796
314.571
314.175
313.995
313.845
313.767
313.906
314.291
312.094
311.771
311.581
311.452
311.65
311.721
311.94
312.137
312.307
312.337
312.326
312.273
312.08
311.865
311.577
311.401
311.279
311.219
311.341
311.619
309.406
309.14
308.982
308.893
309.049
309.099
309.265
309.442
309.555
309.579
309.576
309.544
309.368
309.2
309.003
308.859
308.764
308.701
308.791
308.992
306.708
306.53
306.408
306.36
306.449
306.504
306.607
306.739
306.816
306.837
306.841
306.82
306.689
306.57
306.438
306.351
306.257
306.194
306.237
306.4
304.032
303.902
303.846
303.815
303.88
303.915
303.968
304.038
304.095
304.114
304.111
304.102
304.007
303.945
303.874
303.817
303.779
303.71
303.74
303.826
301.347
301.312
301.288
301.285
301.298
301.314
301.338
301.336
301.373
301.373
301.386
301.376
301.331
301.315
301.299
301.28
301.27
301.251
301.249
301.28
320.263
319.902
319.478
319.357
319.503
319.917
320.269
320.543
320.957
321.046
321.093
320.917
320.725
320.421
319.846
319.531
319.275
319.041
319.405
319.773
317.562
317.236
316.881
316.781
316.886
317.231
317.531
317.771
318.116
318.184
318.21
318.061
317.911
317.625
317.087
316.823
316.616
316.398
316.704
316.983
314.874
314.571
314.284
314.22
314.292
314.574
314.821
315.016
315.311
315.337
315.369
315.238
315.119
314.841
314.411
314.17
314.002
313.822
314.034
314.251
312.197
311.918
311.666
311.62
311.711
311.901
312.113
312.258
312.523
312.524
312.548
312.44
312.342
312.089
311.751
311.571
311.429
311.27
311.425
311.568
309.509
309.263
309.097
309.028
309.108
309.229
309.423
309.53
309.72
309.723
309.736
309.662
309.599
309.347
309.107
308.969
308.86
308.756
308.874
308.956
306.803
306.618
306.518
306.442
306.507
306.579
306.747
306.801
306.955
306.947
306.937
306.895
306.872
306.659
306.485
306.407
306.311
306.244
306.324
306.391
304.083
303.956
303.92
303.86
303.889
303.949
304.051
304.064
304.182
304.161
304.15
304.144
304.122
304.009
303.892
303.842
303.786
303.76
303.81
303.831
301.364
301.318
301.318
301.298
301.301
301.325
301.346
301.365
301.408
301.4
301.386
301.392
301.377
301.345
301.301
301.288
301.272
301.273
301.284
301.279
320.456
320.044
319.779
319.713
319.829
320.156
320.509
320.93
321.248
321.463
321.527
321.408
321.111
320.661
320.352
319.922
319.506
319.411
319.582
319.972
317.724
317.366
317.165
317.089
317.189
317.463
317.756
318.107
318.372
318.559
318.603
318.478
318.203
317.82
317.543
317.188
316.816
316.727
316.864
317.185
314.984
314.72
314.548
314.45
314.527
314.766
315.018
315.308
315.52
315.669
315.712
315.58
315.35
315.023
314.76
314.467
314.193
314.104
314.193
314.464
312.272
312.054
311.925
311.809
311.885
312.079
312.281
312.516
312.691
312.786
312.848
312.701
312.539
312.252
312.03
311.802
311.586
311.514
311.571
311.781
309.553
309.399
309.286
309.181
309.238
309.38
309.536
309.759
309.869
309.933
309.984
309.866
309.725
309.513
309.333
309.157
309.019
308.94
308.982
309.122
306.815
306.707
306.656
306.552
306.599
306.709
306.808
306.969
307.066
307.099
307.118
307.052
306.938
306.798
306.664
306.529
306.464
306.376
306.416
306.5
304.093
304.031
304.01
303.945
303.961
304.025
304.086
304.187
304.248
304.272
304.262
304.242
304.177
304.074
304.011
303.909
303.883
303.834
303.869
303.903
301.371
301.353
301.343
301.332
301.341
301.339
301.37
301.407
301.422
301.438
301.42
301.42
301.403
301.369
301.344
301.308
301.295
301.278
301.294
301.298
320.787
320.459
320.088
320.076
320.209
320.676
320.85
321.341
321.601
322.056
322.04
322.033
321.61
321.067
320.743
320.205
319.938
319.823
319.989
320.268
317.994
317.738
317.432
317.394
317.512
317.92
318.059
318.464
318.676
319.091
319.058
319.016
318.65
318.185
317.902
317.431
317.175
317.077
317.216
317.449
315.214
315.014
314.755
314.71
314.825
315.147
315.293
315.597
315.8
316.147
316.108
316.034
315.708
315.346
315.058
314.654
314.44
314.366
314.478
314.696
312.45
312.277
312.082
312.027
312.131
312.362
312.512
312.756
312.917
313.201
313.157
313.08
312.813
312.512
312.248
311.938
311.784
311.702
311.807
311.989
309.679
309.555
309.411
309.355
309.451
309.609
309.722
309.913
310.045
310.266
310.228
310.152
309.952
309.716
309.484
309.268
309.154
309.055
309.151
309.28
306.92
306.816
306.726
306.692
306.771
306.849
306.937
307.089
307.179
307.328
307.318
307.22
307.096
306.92
306.758
306.6
306.531
306.455
306.535
306.61
304.164
304.101
304.03
304.009
304.073
304.122
304.158
304.273
304.324
304.403
304.386
304.326
304.264
304.156
304.055
303.961
303.908
303.886
303.921
303.978
301.393
301.369
301.347
301.354
301.373
301.388
301.381
301.437
301.458
301.476
301.463
301.441
301.429
301.39
301.36
301.329
301.316
301.306
301.316
301.344
321.354
320.902
320.505
320.441
320.666
321.051
321.325
321.846
322.258
322.613
322.58
322.472
322.12
321.651
321.2
320.715
320.532
320.239
320.402
320.703
318.494
318.144
317.749
317.714
317.892
318.225
318.445
318.907
319.237
319.542
319.511
319.415
319.094
318.689
318.292
317.866
317.726
317.44
317.58
317.821
315.637
315.362
315.012
314.987
315.152
315.393
315.6
315.96
316.259
316.515
316.455
316.39
316.087
315.777
315.417
315.048
314.937
314.671
314.819
315.012
312.773
312.576
312.291
312.268
312.408
312.554
312.752
313.057
313.287
313.497
313.42
313.397
313.107
312.886
312.587
312.247
312.157
311.966
312.081
312.246
309.931
309.802
309.57
309.54
309.69
309.754
309.909
310.144
310.342
310.488
310.393
310.407
310.166
309.996
309.769
309.493
309.419
309.287
309.387
309.504
307.106
307.02
306.841
306.819
306.956
306.963
307.059
307.245
307.386
307.476
307.408
307.421
307.237
307.131
306.971
306.773
306.713
306.622
306.706
306.78
304.268
304.208
304.099
304.118
304.192
304.173
304.226
304.367
304.419
304.481
304.442
304.468
304.333
304.263
304.183
304.057
304.005
303.979
304.026
304.049
301.436
301.416
301.37
301.389
301.402
301.402
301.405
301.468
301.485
301.497
301.481
301.501
301.441
301.417
301.414
301.36
301.343
301.332
301.359
301.355
321.62
321.201
320.96
320.895
321.069
321.556
321.921
322.312
322.717
322.954
323.184
323.01
322.722
322.365
321.7
321.223
320.873
320.589
320.797
321.097
318.714
318.365
318.142
318.092
318.236
318.69
318.994
319.333
319.619
319.854
320.026
319.925
319.61
319.288
318.711
318.305
317.999
317.754
317.914
318.175
315.835
315.547
315.331
315.312
315.431
315.818
316.06
316.344
316.555
316.766
316.907
316.832
316.521
316.258
315.799
315.429
315.161
314.969
315.086
315.303
312.97
312.721
312.527
312.52
312.656
312.934
313.115
313.366
313.517
313.697
313.807
313.755
313.471
313.249
312.922
312.566
312.362
312.224
312.302
312.462
310.104
309.919
309.759
309.747
309.869
310.06
310.179
310.39
310.492
310.644
310.729
310.687
310.456
310.288
310.032
309.741
309.609
309.476
309.526
309.665
307.215
307.092
306.981
306.96
307.07
307.188
307.245
307.41
307.487
307.594
307.665
307.624
307.472
307.356
307.159
306.958
306.846
306.748
306.787
306.872
304.331
304.266
304.172
304.166
304.236
304.303
304.345
304.456
304.499
304.556
304.608
304.578
304.488
304.433
304.297
304.165
304.088
304.04
304.056
304.112
301.449
301.427
301.394
301.397
301.418
301.434
301.463
301.506
301.513
301.531
301.539
301.54
301.501
301.487
301.439
301.4
301.357
301.36
301.366
301.374
322.135
321.697
321.478
321.437
321.614
322.061
322.479
322.844
323.229
323.572
323.698
323.586
323.289
322.793
322.362
321.748
321.422
321.236
321.388
321.602
319.164
318.821
318.616
318.572
318.71
319.092
319.437
319.773
320.083
320.397
320.487
320.372
320.125
319.654
319.296
318.752
318.47
318.322
318.434
318.596
316.175
315.933
315.742
315.702
315.836
316.13
316.426
316.7
316.936
317.217
317.307
317.184
316.984
316.595
316.271
315.804
315.558
315.427
315.527
315.649
313.207
313.049
312.889
312.836
312.952
313.171
313.444
313.654
313.826
314.084
314.162
314.037
313.863
313.538
313.259
312.885
312.665
312.583
312.663
312.745
310.253
310.144
310.038
309.974
310.064
310.223
310.466
310.608
310.743
310.953
311.012
310.906
310.769
310.506
310.289
310.003
309.807
309.76
309.812
309.877
307.312
307.252
307.159
307.117
307.199
307.282
307.468
307.567
307.665
307.811
307.872
307.787
307.68
307.5
307.337
307.126
307.002
306.942
307.006
307.051
304.394
304.353
304.279
304.255
304.327
304.374
304.49
304.52
304.597
304.702
304.733
304.663
304.611
304.49
304.418
304.251
304.202
304.162
304.2
304.238
301.482
301.461
301.435
301.43
301.462
301.472
301.511
301.509
301.533
301.577
301.595
301.563
301.539
301.495
301.488
301.418
301.408
301.39
301.401
301.416
322.667
322.334
322.082
322.079
322.189
322.533
323.011
323.302
323.686
324.01
324.153
323.972
323.785
323.272
322.858
322.258
321.953
321.796
321.851
322.045
319.624
319.357
319.133
319.128
319.215
319.512
319.908
320.168
320.483
320.738
320.861
320.681
320.531
320.055
319.719
319.187
318.919
318.779
318.825
318.963
316.572
316.374
316.185
316.188
316.268
316.495
316.822
317.021
317.297
317.514
317.612
317.44
317.325
316.898
316.647
316.135
315.927
315.817
315.864
315.959
313.545
313.394
313.223
313.236
313.319
313.483
313.75
313.908
314.116
314.307
314.395
314.238
314.136
313.788
313.585
313.122
312.998
312.895
312.938
313.003
310.528
310.419
310.282
310.303
310.342
310.487
310.662
310.812
310.974
311.117
311.175
311.052
310.983
310.707
310.519
310.173
310.1
310.009
310.035
310.074
307.513
307.442
307.328
307.358
307.382
307.48
307.624
307.711
307.833
307.939
307.978
307.893
307.827
307.651
307.479
307.281
307.203
307.127
307.181
307.189
304.52
304.492
304.386
304.409
304.416
304.493
304.581
304.636
304.691
304.756
304.787
304.73
304.712
304.582
304.488
304.37
304.335
304.267
304.315
304.318
301.519
301.514
301.461
301.486
301.485
301.514
301.533
301.557
301.562
301.597
301.602
301.589
301.588
301.526
301.507
301.457
301.454
301.426
301.451
301.442
323.34
322.979
322.778
322.613
322.788
323.071
323.45
323.763
324.144
324.409
324.625
324.528
324.18
323.785
323.338
322.97
322.424
322.317
322.35
322.47
320.21
319.905
319.725
319.587
319.734
319.964
320.29
320.536
320.869
321.074
321.25
321.166
320.892
320.519
320.136
319.814
319.328
319.223
319.246
319.318
317.088
316.843
316.677
316.562
316.7
316.849
317.154
317.369
317.63
317.765
317.927
317.872
317.601
317.293
316.969
316.696
316.271
316.181
316.2
316.224
313.973
313.763
313.659
313.565
313.656
313.744
314.033
314.186
314.414
314.484
314.636
314.603
314.361
314.113
313.83
313.605
313.26
313.162
313.196
313.208
310.855
310.708
310.626
310.55
310.613
310.693
310.91
311.025
311.211
311.243
311.388
311.353
311.139
310.956
310.716
310.571
310.277
310.199
310.246
310.239
307.748
307.649
307.59
307.531
307.579
307.652
307.792
307.862
308.017
308.02
308.159
308.113
307.93
307.827
307.64
307.552
307.329
307.259
307.298
307.284
304.637
304.592
304.575
304.516
304.551
304.605
304.699
304.723
304.804
304.806
304.914
304.868
304.741
304.68
304.587
304.539
304.392
304.354
304.37
304.361
301.55
301.543
301.537
301.516
301.534
301.542
301.579
301.579
301.618
301.606
301.655
301.627
301.587
301.559
301.529
301.523
301.481
301.457
301.458
301.461
324.023
323.547
323.243
323.205
323.397
323.63
323.942
324.319
324.58
324.807
325.167
325.123
324.617
324.276
323.837
323.504
323.055
322.747
322.876
323.11
320.811
320.387
320.137
320.105
320.273
320.444
320.712
321.036
321.242
321.437
321.712
321.686
321.204
320.964
320.575
320.264
319.88
319.591
319.676
319.869
317.599
317.241
317.042
317.009
317.133
317.277
317.503
317.767
317.921
318.079
318.289
318.279
317.85
317.671
317.364
317.068
316.748
316.507
316.557
316.703
314.4
314.106
313.942
313.907
314.006
314.132
314.321
314.533
314.63
314.768
314.907
314.929
314.569
314.388
314.181
313.902
313.653
313.449
313.481
313.616
311.189
310.965
310.842
310.792
310.881
310.976
311.12
311.3
311.341
311.472
311.565
311.619
311.302
311.153
311.011
310.791
310.581
310.427
310.443
310.546
307.99
307.832
307.757
307.71
307.756
307.848
307.944
308.06
308.09
308.205
308.23
308.296
308.073
307.967
307.85
307.715
307.547
307.417
307.409
307.505
304.787
304.692
304.665
304.645
304.659
304.707
304.765
304.842
304.869
304.924
304.948
304.971
304.852
304.782
304.701
304.638
304.53
304.436
304.434
304.518
301.606
301.567
301.565
301.555
301.562
301.575
301.589
301.615
301.632
301.645
301.659
301.676
301.631
301.599
301.572
301.55
301.522
301.473
301.489
301.525
324.614
324.157
323.997
323.868
323.987
324.233
324.53
324.836
325.177
325.313
325.559
325.486
325.033
324.758
324.281
324.043
323.621
323.397
323.554
323.742
321.314
320.938
320.792
320.666
320.744
320.975
321.203
321.479
321.756
321.88
322.1
322.015
321.614
321.37
320.977
320.756
320.369
320.158
320.295
320.431
318.013
317.714
317.61
317.476
317.517
317.727
317.922
318.138
318.372
318.457
318.659
318.579
318.217
318.006
317.688
317.48
317.135
316.952
317.081
317.172
314.715
314.492
314.415
314.307
314.326
314.482
314.626
314.848
314.997
315.068
315.223
315.164
314.872
314.681
314.407
314.243
313.955
313.795
313.924
313.99
311.424
311.274
311.208
311.147
311.141
311.243
311.336
311.556
311.669
311.69
311.808
311.782
311.547
311.38
311.162
311.047
310.861
310.699
310.804
310.833
308.147
308.051
308.011
307.97
307.957
308.036
308.091
308.239
308.337
308.355
308.408
308.413
308.242
308.119
307.968
307.876
307.756
307.633
307.703
307.723
304.882
304.835
304.806
304.781
304.778
304.828
304.865
304.942
305.014
305.015
305.04
305.065
304.932
304.861
304.78
304.722
304.664
304.582
304.618
304.641
301.631
301.628
301.606
301.602
301.602
301.62
301.634
301.657
301.674
301.681
301.687
301.694
301.662
301.621
301.6
301.58
301.554
301.532
301.542
301.563
325.038
324.731
324.564
324.55
324.58
324.899
324.876
325.252
325.606
325.878
325.969
325.866
325.506
325.192
324.734
324.521
324.104
324.016
324.218
324.422
321.67
321.402
321.262
321.269
321.26
321.569
321.518
321.838
322.137
322.354
322.439
322.35
322.012
321.75
321.349
321.156
320.786
320.7
320.869
321.033
318.287
318.082
317.986
317.963
317.954
318.228
318.171
318.468
318.698
318.864
318.918
318.868
318.568
318.34
317.982
317.836
317.521
317.442
317.571
317.694
314.928
314.785
314.713
314.684
314.676
314.904
314.839
315.12
315.279
315.41
315.422
315.424
315.167
314.978
314.683
314.543
314.301
314.221
314.301
314.428
311.599
311.48
311.457
311.425
311.411
311.584
311.523
311.764
311.871
311.965
311.97
311.982
311.787
311.632
311.383
311.3
311.1
311.046
311.076
311.173
308.278
308.213
308.186
308.178
308.147
308.269
308.24
308.419
308.479
308.536
308.549
308.566
308.424
308.307
308.127
308.067
307.919
307.882
307.88
307.957
304.969
304.932
304.908
304.91
304.881
304.965
304.977
305.054
305.089
305.115
305.142
305.152
305.031
305
304.892
304.848
304.76
304.74
304.722
304.774
301.658
301.646
301.655
301.642
301.628
301.676
301.671
301.692
301.696
301.715
301.719
301.729
301.686
301.688
301.64
301.614
301.591
301.585
301.581
301.593
325.741
325.319
325.149
325.042
325.078
325.37
325.436
325.819
326.074
326.203
326.293
326.198
325.966
325.652
325.227
325.012
324.73
324.55
324.726
325.079
322.287
321.896
321.77
321.679
321.707
321.96
321.986
322.348
322.533
322.641
322.701
322.63
322.405
322.145
321.742
321.584
321.312
321.154
321.281
321.63
318.851
318.486
318.398
318.319
318.341
318.55
318.585
318.893
319.014
319.126
319.14
319.089
318.887
318.68
318.305
318.194
317.945
317.806
317.91
318.244
315.417
315.1
315.025
314.981
314.994
315.17
315.159
315.466
315.543
315.631
315.616
315.575
315.41
315.221
314.92
314.841
314.651
314.517
314.603
314.889
311.979
311.732
311.674
311.637
311.661
311.782
311.732
312.031
312.087
312.151
312.102
312.094
311.97
311.797
311.576
311.514
311.385
311.26
311.32
311.549
308.566
308.368
308.33
308.314
308.324
308.418
308.356
308.589
308.61
308.672
308.636
308.635
308.546
308.42
308.275
308.194
308.143
308.038
308.062
308.24
305.154
305.017
305.002
304.991
304.99
305.058
305.018
305.157
305.164
305.196
305.18
305.203
305.144
305.061
304.969
304.905
304.876
304.817
304.843
304.934
301.734
301.68
301.674
301.674
301.672
301.7
301.679
301.725
301.728
301.731
301.732
301.746
301.72
301.698
301.668
301.65
301.633
301.621
301.624
301.648
326.283
326.017
325.754
325.535
325.687
325.914
325.99
326.25
326.571
326.676
326.621
326.588
326.314
326.043
325.739
325.411
325.132
325.213
325.27
325.667
322.739
322.496
322.285
322.085
322.241
322.449
322.501
322.712
322.966
323.042
322.988
322.97
322.725
322.474
322.211
321.907
321.671
321.75
321.78
322.108
319.211
319.008
318.863
318.664
318.789
318.986
319.022
319.184
319.391
319.423
319.404
319.401
319.186
318.956
318.71
318.46
318.289
318.338
318.358
318.63
315.682
315.531
315.433
315.243
315.343
315.52
315.537
315.681
315.83
315.85
315.839
315.855
315.679
315.457
315.252
315.052
314.934
314.947
314.973
315.193
312.167
312.063
311.992
311.847
311.928
312.074
312.092
312.195
312.296
312.305
312.298
312.325
312.196
311.994
311.843
311.668
311.574
311.59
311.598
311.795
308.676
308.591
308.547
308.439
308.518
308.643
308.641
308.707
308.788
308.762
308.772
308.794
308.706
308.546
308.445
308.342
308.273
308.251
308.278
308.427
305.204
305.144
305.132
305.066
305.118
305.187
305.204
305.221
305.283
305.267
305.27
305.277
305.233
305.124
305.06
305.009
304.964
304.934
304.964
305.066
301.743
301.72
301.716
301.699
301.711
301.74
301.748
301.746
301.758
301.771
301.765
301.77
301.751
301.709
301.693
301.677
301.655
301.646
301.66
301.696
327.003
326.609
326.394
326.193
326.285
326.416
326.587
326.658
326.924
327.048
327.039
326.947
326.718
326.543
326.198
325.968
325.69
325.738
325.713
326.065
323.342
323.022
322.841
322.657
322.737
322.867
323.008
323.076
323.275
323.387
323.351
323.29
323.075
322.901
322.596
322.4
322.145
322.172
322.165
322.453
319.71
319.459
319.29
319.137
319.21
319.317
319.465
319.495
319.634
319.769
319.693
319.653
319.46
319.293
319.03
318.885
318.649
318.653
318.667
318.92
316.109
315.885
315.767
315.626
315.706
315.773
315.948
315.935
316.028
316.15
316.069
316.037
315.894
315.738
315.517
315.409
315.19
315.191
315.209
315.418
312.524
312.356
312.261
312.14
312.234
312.249
312.428
312.401
312.425
312.531
312.481
312.47
312.341
312.215
312.036
311.967
311.774
311.778
311.8
311.938
308.947
308.823
308.758
308.657
308.751
308.747
308.912
308.856
308.876
308.934
308.908
308.906
308.804
308.693
308.576
308.542
308.405
308.404
308.416
308.512
305.36
305.299
305.249
305.184
305.26
305.266
305.37
305.32
305.331
305.356
305.34
305.356
305.279
305.216
305.14
305.114
305.046
305.058
305.025
305.108
301.792
301.771
301.771
301.748
301.768
301.772
301.8
301.795
301.779
301.794
301.788
301.801
301.767
301.746
301.71
301.715
301.694
301.692
301.674
301.711
327.599
327.157
326.969
326.843
326.924
326.952
327.01
327.158
327.381
327.469
327.387
327.293
327.137
326.877
326.682
326.509
326.2
326.295
326.404
326.65
323.871
323.478
323.344
323.23
323.274
323.309
323.343
323.47
323.657
323.73
323.649
323.574
323.422
323.187
323.042
322.839
322.58
322.667
322.746
322.967
320.141
319.826
319.72
319.618
319.647
319.674
319.721
319.802
319.976
320.048
319.942
319.898
319.746
319.516
319.422
319.242
319.024
319.082
319.134
319.343
316.435
316.215
316.096
316.016
316.038
316.067
316.127
316.155
316.326
316.39
316.274
316.236
316.101
315.894
315.833
315.68
315.505
315.561
315.582
315.749
312.746
312.62
312.485
312.418
312.441
312.485
312.547
312.556
312.708
312.739
312.651
312.619
312.479
312.32
312.271
312.162
312.026
312.061
312.083
312.203
309.104
309.024
308.907
308.855
308.876
308.894
308.954
308.966
309.045
309.07
309.047
309.003
308.893
308.796
308.754
308.674
308.582
308.617
308.637
308.717
305.478
305.412
305.342
305.304
305.32
305.337
305.384
305.394
305.424
305.425
305.425
305.405
305.331
305.271
305.253
305.198
305.156
305.176
305.204
305.236
301.837
301.817
301.791
301.776
301.781
301.793
301.799
301.805
301.815
301.809
301.825
301.823
301.775
301.775
301.764
301.741
301.738
301.738
301.752
301.758
328.211
327.794
327.655
327.517
327.382
327.541
327.536
327.701
327.754
327.81
327.684
327.726
327.638
327.386
327.046
326.813
326.811
326.839
326.968
327.234
324.405
324.032
323.919
323.802
323.676
323.813
323.809
323.955
323.977
324.055
323.922
323.953
323.857
323.604
323.325
323.125
323.124
323.122
323.232
323.462
320.615
320.3
320.209
320.092
320.002
320.1
320.12
320.215
320.233
320.306
320.187
320.237
320.105
319.879
319.642
319.488
319.481
319.475
319.566
319.767
316.824
316.582
316.496
316.404
316.337
316.449
316.449
316.501
316.539
316.599
316.48
316.519
316.372
316.22
316.022
315.884
315.874
315.862
315.972
316.109
313.042
312.895
312.792
312.716
312.674
312.771
312.763
312.816
312.86
312.895
312.807
312.839
312.7
312.583
312.439
312.308
312.311
312.288
312.4
312.485
309.304
309.208
309.117
309.057
309.043
309.106
309.108
309.156
309.186
309.196
309.139
309.161
309.045
308.986
308.859
308.782
308.792
308.762
308.852
308.919
305.586
305.529
305.476
305.421
305.414
305.46
305.469
305.487
305.512
305.518
305.472
305.504
305.426
305.396
305.298
305.254
305.269
305.257
305.303
305.333
301.873
301.846
301.849
301.817
301.812
301.815
301.828
301.85
301.849
301.85
301.829
301.847
301.824
301.819
301.774
301.756
301.76
301.767
301.779
301.785
328.724
328.36
328.226
328.101
327.873
327.97
328.033
328.071
328.21
328.261
328.207
328.171
327.865
327.732
327.534
327.348
327.238
327.434
327.555
327.785
324.801
324.505
324.428
324.29
324.11
324.173
324.233
324.272
324.363
324.433
324.372
324.338
324.042
323.935
323.755
323.589
323.46
323.628
323.74
323.943
320.922
320.661
320.648
320.507
320.383
320.405
320.47
320.493
320.536
320.635
320.568
320.528
320.267
320.174
320.035
319.897
319.767
319.896
319.974
320.192
317.091
316.867
316.88
316.743
316.683
316.647
316.727
316.751
316.756
316.854
316.798
316.757
316.535
316.446
316.345
316.231
316.121
316.219
316.269
316.467
313.274
313.1
313.105
313.009
312.975
312.913
312.993
313.025
313.011
313.088
313.047
313.026
312.832
312.754
312.674
312.61
312.511
312.568
312.62
312.781
309.461
309.347
309.352
309.266
309.261
309.213
309.282
309.295
309.28
309.326
309.297
309.299
309.151
309.093
309.02
308.99
308.92
308.961
309.023
309.119
305.68
305.601
305.607
305.557
305.56
305.525
305.569
305.573
305.562
305.593
305.566
305.572
305.483
305.478
305.417
305.396
305.345
305.38
305.408
305.482
301.896
301.872
301.878
301.852
301.862
301.847
301.863
301.877
301.856
301.866
301.87
301.87
301.834
301.842
301.809
301.816
301.788
301.803
301.802
301.839
329.126
328.872
328.669
328.37
328.252
328.286
328.3
328.519
328.501
328.535
328.579
328.383
328.106
328.164
327.992
327.752
327.723
327.726
327.964
328.24
325.126
324.93
324.768
324.541
324.39
324.424
324.423
324.629
324.62
324.631
324.689
324.487
324.242
324.277
324.131
323.906
323.872
323.882
324.065
324.306
321.161
321.021
320.884
320.706
320.584
320.583
320.577
320.78
320.77
320.783
320.837
320.641
320.431
320.447
320.336
320.125
320.091
320.111
320.243
320.452
317.266
317.159
317.033
316.91
316.805
316.786
316.786
316.965
316.938
316.932
316.984
316.822
316.675
316.646
316.599
316.389
316.374
316.395
316.483
316.668
313.406
313.325
313.209
313.114
313.041
313.036
313.042
313.168
313.154
313.116
313.171
313.048
312.941
312.894
312.886
312.699
312.695
312.72
312.779
312.916
309.533
309.489
309.428
309.351
309.304
309.292
309.313
309.411
309.388
309.343
309.388
309.311
309.219
309.179
309.181
309.062
309.053
309.083
309.125
309.192
305.712
305.703
305.647
305.612
305.603
305.575
305.573
305.66
305.638
305.618
305.622
305.585
305.53
305.516
305.513
305.443
305.423
305.46
305.466
305.512
301.911
301.904
301.881
301.877
301.884
301.863
301.867
301.906
301.888
301.874
301.878
301.865
301.852
301.843
301.841
301.818
301.825
301.827
301.831
301.836
)
;

boundaryField
{
    hotSide
    {
        type            fixedGradient;
        gradient        nonuniform List<scalar> 
400
(
216.93
216.742
217.844
220.202
223.686
228.11
233.275
239
245.134
251.563
258.202
264.993
271.899
278.903
286.003
293.21
300.543
308.026
315.679
323.511
209.262
209.184
210.485
213.124
216.942
221.719
227.226
233.262
239.665
246.316
253.129
260.047
267.037
274.085
281.196
288.388
295.688
303.13
310.741
318.536
205.236
205.398
206.92
209.755
213.746
218.674
224.308
230.448
236.929
243.63
250.463
257.372
264.326
271.314
278.344
285.438
292.627
299.949
307.434
315.101
204.624
205.147
206.917
209.886
213.917
218.822
224.397
230.455
236.839
243.428
250.134
256.901
263.699
270.518
277.37
284.277
291.272
298.391
305.665
313.112
206.526
207.482
209.541
212.651
216.698
221.529
226.971
232.858
239.044
245.415
251.885
258.399
264.931
271.475
278.046
284.669
291.378
298.208
305.188
312.339
209.916
211.336
213.731
217.043
221.172
225.983
231.327
237.053
243.027
249.14
255.313
261.496
267.673
273.846
280.038
286.282
292.616
299.075
305.692
312.489
213.945
215.836
218.609
222.201
226.51
231.408
236.752
242.394
248.203
254.072
259.927
265.733
271.487
277.211
282.942
288.728
294.615
300.645
306.852
313.261
217.959
220.302
223.477
227.41
231.993
237.093
242.554
248.219
253.942
259.611
265.159
270.565
275.853
281.073
286.291
291.571
296.974
302.549
308.334
314.355
221.435
224.178
227.736
232.029
236.942
242.327
248.007
253.797
259.521
265.051
270.319
275.329
280.143
284.85
289.549
294.329
299.264
304.411
309.808
315.48
223.952
226.99
230.851
235.454
240.677
246.356
252.293
258.263
264.053
269.504
274.549
279.218
283.616
287.878
292.136
296.502
301.059
305.867
310.965
316.376
225.211
228.384
232.398
237.171
242.579
248.45
254.566
260.677
266.539
271.967
276.891
281.361
285.514
289.516
293.522
297.654
302.002
306.628
311.57
316.848
225.079
228.19
232.159
236.903
242.296
248.163
254.283
260.406
266.284
271.735
276.684
281.181
285.359
289.382
293.404
297.55
301.911
306.55
311.508
316.805
223.636
226.494
230.226
234.75
239.939
245.62
251.583
257.598
263.445
268.963
274.077
278.813
283.269
287.576
291.869
296.263
300.846
305.686
310.825
316.291
221.188
223.64
227.001
231.189
236.076
241.497
247.254
253.143
258.975
264.609
269.97
275.056
279.924
284.663
289.378
294.166
299.113
304.284
309.729
315.477
218.244
220.198
223.125
226.95
231.544
236.74
242.347
248.174
254.05
259.845
265.481
270.934
276.229
281.423
286.592
291.817
297.176
302.737
308.549
314.647
215.513
216.929
219.422
222.922
227.292
232.352
237.901
243.746
249.72
255.696
261.593
267.373
273.041
278.632
284.205
289.828
295.575
301.514
307.698
314.162
213.918
214.808
216.901
220.132
224.347
229.339
234.886
240.782
246.859
252.99
259.092
265.122
271.074
276.97
282.856
288.796
294.862
301.124
307.639
314.441
214.558
214.992
216.731
219.714
223.771
228.67
234.17
240.058
246.164
252.363
258.574
264.751
270.881
276.98
283.085
289.255
295.56
302.072
308.85
315.928
218.406
218.51
219.936
222.63
226.424
231.088
236.387
242.112
248.099
254.228
260.419
266.624
272.826
279.033
285.276
291.604
298.08
304.773
311.736
318.998
225.764
225.681
226.832
229.173
232.568
236.823
241.733
247.114
252.816
258.725
264.762
270.877
277.049
283.277
289.584
296.006
302.594
309.4
316.466
323.813
)
;
    }
    coldSide
    {
        type            mixed;
        refValue        uniform 300;
        refGradient     uniform 0;
        valueFraction   uniform 0.991591;
        source          uniform 0;
        value           nonuniform List<scalar> 
400
(
300.011
300.011
300.011
300.012
300.012
300.012
300.012
300.012
300.013
300.013
300.014
300.014
300.014
300.015
300.015
300.015
300.015
300.016
300.016
300.016
300.011
300.011
300.011
300.011
300.012
300.012
300.012
300.012
300.013
300.013
300.013
300.014
300.014
300.014
300.014
300.015
300.015
300.016
300.016
300.016
300.011