/*--------------------------------*- C++ -*----------------------------------*\
| =========                 |                                                 |
| \\      /  F ield         | OpenFOAM: The Open Source CFD Toolbox           |
|  \\    /   O peration     | Version:  2212                                  |
|   \\  /    A nd           | Website:  www.openfoam.com                      |
|    \\/     M anipulation  |                                                 |
\*---------------------------------------------------------------------------*/
FoamFile
{
    version     2.0;
    format      ascii;
    arch        "LSB;label=32;scalar=64";
    class       volScalarField;
    location    "0";
    object      T;
}
// * * * * * * * * * * * * * * * * * * * * * * * * * * * * * * * * * * * * * //

dimensions      [0 0 0 1 0 0 0];

internalField   nonuniform List<scalar> 
3200
(
349.707
348.248
347.335
347.018
347.18
347.877
348.603
349.212
349.724
349.978
350.127
349.739
348.917
348
346.862
345.728
345.097
344.944
345.412
346.519
343.14
341.921
341.128
340.835
341.006
341.593
342.232
342.741
343.178
343.409
343.547
343.186
342.489
341.694
340.735
339.747
339.2
339.07
339.482
340.399
336.562
335.559
334.852
334.617
334.786
335.264
335.806
336.233
336.621
336.798
336.919
336.602
336.031
335.333
334.562
333.725
333.263
333.149
333.512
334.258
329.959
329.145
328.561
328.345
328.519
328.911
329.346
329.693
330.018
330.177
330.244
329.982
329.53
328.958
328.341
327.66
327.286
327.198
327.483
328.076
323.348
322.696
322.264
322.076
322.217
322.541
322.857
323.121
323.374
323.501
323.541
323.344
322.996
322.568
322.095
321.569
321.267
321.189
321.425
321.885
316.698
316.222
315.957
315.798
315.894
316.116
316.358
316.545
316.713
316.786
316.84
316.701
316.428
316.133
315.82
315.433
315.239
315.161
315.343
315.653
310.042
309.755
309.602
309.505
309.549
309.674
309.829
309.949
310.045
310.073
310.121
310.033
309.866
309.689
309.522
309.265
309.182
309.128
309.226
309.404
303.368
303.28
303.222
303.19
303.203
303.243
303.294
303.338
303.372
303.38
303.399
303.364
303.314
303.246
303.195
303.118
303.078
303.058
303.091
303.145
350.074
348.58
347.594
347.333
347.525
348.249
349.133
349.807
350.396
350.736
350.834
350.281
349.538
348.645
347.438
346.2
345.44
345.221
345.618
346.897
343.463
342.205
341.37
341.137
341.265
341.903
342.629
343.221
343.737
344.064
344.142
343.631
342.98
342.238
341.198
340.129
339.497
339.307
339.639
340.717
336.832
335.777
335.103
334.877
334.958
335.534
336.098
336.625
337.041
337.352
337.391
336.987
336.415
335.807
334.911
334.052
333.479
333.353
333.637
334.526
330.161
329.31
328.777
328.579
328.666
329.128
329.561
330.011
330.348
330.58
330.611
330.311
329.821
329.34
328.602
327.925
327.435
327.364
327.608
328.301
323.483
322.83
322.424
322.246
322.321
322.67
323.047
323.369
323.631
323.807
323.829
323.617
323.218
322.846
322.295
321.761
321.377
321.332
321.546
322.046
316.786
316.317
316.046
315.894
315.962
316.189
316.475
316.691
316.892
317.014
317.029
316.878
316.599
316.353
315.956
315.559
315.296
315.254
315.425
315.775
310.093
309.788
309.657
309.555
309.577
309.713
309.896
310.037
310.15
310.219
310.233
310.156
309.972
309.818
309.592
309.348
309.206
309.162
309.254
309.482
303.381
303.276
303.239
303.201
303.201
303.251
303.315
303.369
303.408
303.417
303.434
303.406
303.35
303.29
303.22
303.132
303.089
303.064
303.097
303.181
350.442
349.203
348.17
347.969
348.376
349.052
349.93
350.653
351.451
351.883
351.845
351.447
350.61
349.647
348.332
347.085
346.143
345.939
346.433
347.368
343.804
342.736
341.838
341.671
342.012
342.597
343.341
343.963
344.638
345.034
344.973
344.633
343.908
343.121
341.981
340.901
340.085
339.921
340.347
341.127
337.134
336.257
335.485
335.32
335.619
336.098
336.711
337.248
337.818
338.132
338.091
337.803
337.185
336.565
335.592
334.668
333.977
333.861
334.21
334.855
330.416
329.714
329.089
328.925
329.168
329.569
330.053
330.519
330.964
331.219
331.176
330.953
330.457
329.97
329.187
328.402
327.853
327.774
328.072
328.571
323.681
323.142
322.651
322.533
322.699
323.015
323.403
323.775
324.087
324.302
324.251
324.072
323.718
323.346
322.753
322.128
321.681
321.669
321.89
322.267
316.936
316.546
316.202
316.116
316.236
316.449
316.73
317.016
317.234
317.365
317.333
317.19
316.951
316.698
316.278
315.833
315.502
315.51
315.667
315.923
310.185
309.931
309.74
309.698
309.765
309.89
310.057
310.243
310.351
310.424
310.424
310.332
310.176
310.035
309.79
309.525
309.32
309.326
309.427
309.58
303.423
303.328
303.278
303.254
303.268
303.321
303.369
303.447
303.462
303.489
303.507
303.463
303.423
303.372
303.279
303.181
303.135
303.139
303.158
303.203
351.233
350.035
349.259
348.914
349.364
350.092
351.055
351.927
352.679
353.141
353.125
352.738
351.922
350.795
349.469
348.226
347.243
347.026
347.354
348.236
344.44
343.459
342.778
342.483
342.866
343.491
344.297
345.067
345.693
346.071
346.073
345.74
345.048
344.073
342.955
341.874
341.046
340.871
341.158
341.897
337.633
336.844
336.258
335.992
336.36
336.862
337.534
338.192
338.685
339.013
338.992
338.738
338.172
337.333
336.41
335.502
334.812
334.681
334.918
335.516
330.84
330.196
329.704
329.476
329.794
330.193
330.76
331.295
331.678
331.93
331.929
331.704
331.276
330.558
329.832
329.1
328.537
328.45
328.643
329.106
324.018
323.523
323.129
322.971
323.193
323.522
323.936
324.377
324.662
324.85
324.85
324.684
324.348
323.777
323.252
322.67
322.252
322.179
322.319
322.653
317.17
316.822
316.558
316.433
316.589
316.82
317.104
317.438
317.627
317.766
317.757
317.635
317.424
317.012
316.648
316.215
315.924
315.881
315.965
316.189
310.317
310.105
309.969
309.883
309.984
310.089
310.265
310.493
310.578
310.673
310.661
310.582
310.453
310.228
310.011
309.743
309.573
309.548
309.577
309.719
303.464
303.391
303.35
303.309
303.344
303.368
303.437
303.519
303.537
303.583
303.572
303.545
303.501
303.429
303.363
303.267
303.215
303.209
303.197
303.254
352.318
351.172
350.401
350.125
350.604
351.35
352.288
353.273
354.128
354.638
354.678
354.305
353.465
352.161
350.804
349.529
348.586
348.189
348.506
349.32
345.396
344.454
343.784
343.557
343.943
344.589
345.35
346.231
346.943
347.398
347.405
347.094
346.394
345.259
344.1
343.021
342.202
341.86
342.151
342.826
338.438
337.698
337.13
336.922
337.24
337.779
338.386
339.174
339.762
340.135
340.146
339.882
339.279
338.32
337.359
336.477
335.777
335.476
335.745
336.303
331.473
330.9
330.446
330.259
330.521
330.946
331.422
332.104
332.555
332.874
332.892
332.656
332.15
331.375
330.578
329.879
329.319
329.062
329.288
329.766
324.491
324.073
323.744
323.568
323.772
324.075
324.45
325.003
325.33
325.617
325.617
325.419
325.01
324.441
323.798
323.267
322.837
322.628
322.802
323.204
317.506
317.239
316.997
316.844
317.018
317.208
317.494
317.896
318.101
318.321
318.304
318.186
317.89
317.474
317.011
316.638
316.323
316.177
316.303
316.604
310.519
310.356
310.219
310.12
310.227
310.33
310.529
310.763
310.881
310.997
311
310.925
310.739
310.509
310.209
310.001
309.814
309.724
309.796
309.985
303.525
303.474
303.431
303.387
303.429
303.461
303.532
303.612
303.648
303.691
303.688
303.665
303.607
303.529
303.428
303.351
303.287
303.252
303.293
303.363
353.78
352.494
351.787
351.607
351.938
352.773
353.673
354.706
355.683
356.277
356.382
355.947
354.978
353.678
352.216
350.948
350.104
349.738
349.861
350.695
346.667
345.571
344.983
344.811
345.083
345.79
346.558
347.459
348.308
348.794
348.894
348.527
347.691
346.552
345.307
344.214
343.527
343.202
343.292
344.024
339.513
338.618
338.146
337.982
338.194
338.802
339.406
340.185
340.921
341.31
341.385
341.104
340.376
339.404
338.358
337.457
336.915
336.635
336.707
337.319
332.335
331.652
331.275
331.103
331.279
331.798
332.245
332.903
333.516
333.821
333.879
333.667
333.065
332.259
331.42
330.686
330.263
330.039
330.095
330.58
325.137
324.664
324.378
324.224
324.365
324.786
325.107
325.6
326.102
326.328
326.378
326.211
325.739
325.089
324.459
323.897
323.581
323.418
323.428
323.829
317.97
317.651
317.431
317.298
317.431
317.739
317.944
318.312
318.658
318.798
318.852
318.75
318.419
317.933
317.499
317.112
316.874
316.754
316.742
317.041
310.796
310.625
310.468
310.394
310.474
310.647
310.774
311.008
311.204
311.293
311.322
311.262
311.067
310.776
310.52
310.296
310.137
310.081
310.062
310.251
303.617
303.576
303.503
303.48
303.512
303.572
303.601
303.69
303.754
303.791
303.794
303.775
303.704
303.615
303.533
303.454
303.405
303.388
303.373
303.43
355.253
353.998
353.228
353.208
353.433
354.222
355.23
356.199
357.302
357.916
358.007
357.487
356.655
355.39
353.861
352.779
351.769
351.413
351.615
352.233
347.938
346.856
346.224
346.183
346.351
347.037
347.931
348.733
349.695
350.217
350.289
349.844
349.117
348.046
346.738
345.815
344.974
344.651
344.813
345.339
340.605
339.717
339.178
339.134
339.274
339.845
340.596
341.256
342.087
342.513
342.564
342.187
341.581
340.694
339.592
338.819
338.136
337.852
337.986
338.419
333.26
332.548
332.1
332.046
332.174
332.636
333.263
333.787
334.451
334.815
334.838
334.511
334.034
333.33
332.431
331.788
331.259
331.027
331.133
331.489
325.891
325.331
324.993
324.939
325.068
325.401
325.887
326.297
326.795
327.082
327.1
326.848
326.465
325.953
325.236
324.746
324.364
324.168
324.256
324.514
318.52
318.105
317.883
317.832
317.943
318.147
318.495
318.78
319.147
319.362
319.364
319.174
318.903
318.539
318.048
317.68
317.43
317.276
317.35
317.533
311.127
310.898
310.745
310.718
310.782
310.894
311.11
311.279
311.483
311.625
311.626
311.519
311.342
311.138
310.844
310.64
310.481
310.361
310.408
310.526
303.729
303.652
303.605
303.599
303.612
303.659
303.727
303.767
303.846
303.892
303.884
303.866
303.806
303.744
303.633
303.558
303.522
303.463
303.487
303.525
356.783
355.739
354.985
354.79
355.126
355.814
356.87
357.744
358.837
359.466
359.614
359.21
358.297
357.074
355.742
354.517
353.478
353.074
353.267
353.908
349.27
348.381
347.75
347.549
347.844
348.408
349.33
350.065
351.024
351.525
351.665
351.31
350.54
349.511
348.359
347.323
346.421
346.094
346.262
346.783
341.734
341.009
340.466
340.282
340.532
341.002
341.782
342.388
343.167
343.596
343.706
343.419
342.77
341.941
340.957
340.086
339.346
339.07
339.23
339.653
334.164
333.611
333.143
332.971
333.197
333.568
334.214
334.715
335.317
335.676
335.764
335.522
335.008
334.365
333.569
332.836
332.254
332.009
332.145
332.503
326.615
326.155
325.809
325.658
325.836
326.119
326.639
327.009
327.483
327.763
327.825
327.631
327.25
326.764
326.144
325.578
325.117
324.919
325.028
325.31
319.043
318.687
318.443
318.342
318.477
318.665
319.034
319.303
319.632
319.85
319.885
319.727
319.465
319.124
318.687
318.281
317.963
317.792
317.898
318.093
311.449
311.234
311.079
311.016
311.094
311.225
311.446
311.586
311.781
311.921
311.941
311.833
311.657
311.493
311.211
311.001
310.798
310.676
310.75
310.858
303.824
303.772
303.708
303.682
303.708
303.765
303.838
303.882
303.949
303.994
304.002
303.961
303.905
303.859
303.757
303.691
303.623
303.572
303.597
303.641
358.517
357.54
356.678
356.503
356.836
357.539
358.458
359.354
360.352
361.084
361.301
360.89
360.061
358.849
357.506
356.233
355.215
354.876
355.105
355.675
350.766
349.924
349.207
349.023
349.323
349.915
350.697
351.45
352.343
352.949
353.133
352.76
352.064
351.017
349.893
348.801
347.9
347.623
347.851
348.305
342.991
342.275
341.704
341.538
341.779
342.272
342.917
343.529
344.303
344.798
344.955
344.636
344.039
343.181
342.253
341.347
340.566
340.353
340.539
340.907
335.205
334.623
334.155
334.013
334.229
334.606
335.15
335.618
336.263
336.645
336.78
336.478
336.027
335.354
334.629
333.863
333.214
333.053
333.226
333.469
327.418
326.952
326.593
326.478
326.653
326.927
327.368
327.701
328.212
328.496
328.633
328.342
328.026
327.531
326.983
326.37
325.859
325.743
325.871
326.049
319.602
319.277
319.015
318.934
319.064
319.243
319.566
319.792
320.16
320.356
320.464
320.222
320.015
319.687
319.301
318.857
318.492
318.416
318.495
318.614
311.78
311.585
311.425
311.379
311.454
311.56
311.765
311.89
312.128
312.236
312.292
312.138
312.007
311.827
311.611
311.358
311.109
311.071
311.103
311.183
303.939
303.88
303.827
303.816
303.837
303.878
303.952
303.997
304.061
304.105
304.124
304.076
304.035
303.969
303.898
303.817
303.725
303.721
303.717
303.753
360.217
359.323
358.577
358.345
358.647
359.284
360.142
360.994
361.962
362.624
362.934
362.632
361.715
360.448
359.178
357.99
356.977
356.741
356.92
357.486
352.225
351.485
350.834
350.623
350.868
351.398
352.164
352.866
353.694
354.236
354.545
354.28
353.477
352.409
351.327
350.336
349.425
349.259
349.415
349.887
344.237
343.623
343.065
342.865
343.068
343.516
344.127
344.745
345.437
345.896
346.136
345.922
345.243
344.342
343.462
342.652
341.856
341.724
341.859
342.27
336.226
335.735
335.272
335.103
335.263
335.613
336.11
336.608
337.187
337.553
337.741
337.565
336.991
336.277
335.581
334.94
334.271
334.166
334.27
334.624
328.21
327.842
327.461
327.332
327.44
327.724
328.098
328.477
328.935
329.218
329.377
329.2
328.768
328.223
327.684
327.203
326.682
326.6
326.692
326.948
320.169
319.928
319.649
319.544
319.611
319.816
320.097
320.34
320.682
320.884
321.001
320.843
320.541
320.159
319.804
319.459
319.08
319.015
319.088
319.238
312.105
311.979
311.819
311.745
311.797
311.923
312.097
312.209
312.425
312.545
312.622
312.516
312.332
312.107
311.913
311.702
311.466
311.417
311.471
311.551
304.054
304.024
303.972
303.921
303.965
304
304.059
304.094
304.167
304.201
304.225
304.192
304.129
304.057
303.994
303.926
303.845
303.831
303.849
303.88
362.084
361.139
360.525
360.24
360.456
360.939
361.768
362.588
363.543
364.103
364.544
364.19
363.273
362.019
360.844
359.751
358.884
358.662
358.798
359.305
353.861
353.054
352.507
352.257
352.437
352.854
353.547
354.25
355.089
355.542
355.937
355.643
354.858
353.775
352.768
351.833
351.104
350.912
351.024
351.455
345.607
344.968
344.466
344.269
344.38
344.755
345.31
345.899
346.621
346.997
347.314
347.077
346.409
345.502
344.681
343.914
343.296
343.144
343.218
343.575
337.321
336.834
336.412
336.288
336.315
336.629
337.064
337.564
338.157
338.452
338.685
338.534
337.957
337.229
336.578
335.959
335.467
335.346
335.414
335.698
329.041
328.679
328.362
328.273
328.261
328.505
328.856
329.227
329.68
329.914
330.078
329.982
329.509
328.98
328.459
327.992
327.62
327.529
327.59
327.814
320.752
320.514
320.289
320.216
320.205
320.386
320.612
320.891
321.224
321.394
321.483
321.416
321.079
320.746
320.335
319.997
319.742
319.674
319.734
319.907
312.46
312.337
312.197
312.157
312.132
312.243
312.387
312.55
312.755
312.855
312.908
312.86
312.663
312.489
312.215
312.004
311.852
311.811
311.859
311.978
304.169
304.13
304.094
304.082
304.063
304.109
304.154
304.203
304.282
304.303
304.327
304.311
304.241
304.189
304.095
304.026
303.967
303.956
303.983
304.026
363.842
362.955
362.324
362.196
362.272
362.702
363.432
364.171
365.001
365.662
365.876
365.659
364.792
363.624
362.554
361.51
360.773
360.496
360.652
361.094
355.364
354.608
354.078
353.978
354.02
354.373
355.016
355.625
356.355
356.916
357.091
356.926
356.179
355.163
354.251
353.362
352.734
352.494
352.651
352.993
346.889
346.257
345.792
345.733
345.754
346.04
346.585
347.086
347.711
348.159
348.315
348.176
347.527
346.685
345.957
345.195
344.653
344.462
344.614
344.883
338.393
337.875
337.488
337.458
337.467
337.708
338.125
338.538
339.068
339.391
339.544
339.446
338.859
338.216
337.647
337.029
336.552
336.415
336.553
336.761
329.897
329.482
329.163
329.123
329.169
329.344
329.669
329.99
330.396
330.632
330.767
330.709
330.198
329.744
329.313
328.827
328.45
328.346
328.459
328.605
321.38
321.074
320.843
320.837
320.837
320.953
321.204
321.431
321.717
321.878
321.973
321.971
321.565
321.268
320.957
320.628
320.369
320.262
320.337
320.442
312.847
312.657
312.534
312.535
312.503
312.585
312.737
312.875
313.038
313.145
313.202
313.214
312.945
312.788
312.585
312.393
312.261
312.174
312.209
312.269
304.309
304.236
304.205
304.198
304.187
304.212
304.262
304.318
304.375
304.405
304.431
304.43
304.345
304.289
304.205
304.153
304.12
304.078
304.097
304.113
365.81
364.995
364.3
364.068
364.062
364.491
365.025
365.83
366.506
367.024
367.167
367.038
366.208
365.183
364.29
363.277
362.477
362.157
362.493
362.986
357.089
356.407
355.793
355.588
355.572
355.933
356.347
357.062
357.651
358.089
358.229
358.108
357.381
356.505
355.749
354.887
354.177
353.92
354.216
354.639
348.345
347.774
347.255
347.064
347.07
347.348
347.67
348.274
348.812
349.152
349.3
349.181
348.548
347.85
347.186
346.482
345.877
345.646
345.904
346.289
339.577
339.109
338.696
338.541
338.537
338.775
338.985
339.49
339.956
340.207
340.376
340.263
339.724
339.172
338.65
338.073
337.564
337.361
337.603
337.911
330.779
330.448
330.152
329.997
329.982
330.182
330.326
330.726
331.081
331.268
331.432
331.312
330.899
330.496
330.091
329.634
329.236
329.094
329.274
329.501
321.99
321.76
321.558
321.464
321.434
321.57
321.685
321.96
322.203
322.351
322.487
322.376
322.075
321.808
321.532
321.17
320.912
320.803
320.94
321.08
313.213
313.06
312.95
312.918
312.883
312.958
313.013
313.178
313.343
313.432
313.519
313.457
313.238
313.092
312.941
312.712
312.578
312.489
312.584
312.66
304.437
304.372
304.343
304.34
304.326
304.344
304.356
304.411
304.476
304.506
304.535
304.516
304.439
304.39
304.337
304.271
304.215
304.189
304.214
304.247
367.613
366.792
366.308
366
365.919
366.126
366.608
367.271
367.917
368.375
368.564
368.296
367.639
366.648
365.861
364.961
364.284
364.124
364.316
364.822
358.644
357.96
357.523
357.262
357.169
357.358
357.742
358.312
358.878
359.265
359.434
359.21
358.649
357.792
357.118
356.354
355.789
355.641
355.795
356.236
349.649
349.107
348.721
348.485
348.411
348.581
348.863
349.361
349.823
350.149
350.291
350.109
349.634
348.933
348.367
347.73
347.272
347.122
347.235
347.625
340.643
340.212
339.915
339.701
339.64
339.784
339.993
340.42
340.756
341.043
341.141
341.014
340.597
340.062
339.613
339.083
338.719
338.572
338.664
339.003
331.648
331.299
331.081
330.901
330.85
330.987
331.118
331.464
331.696
331.922
332.009
331.916
331.572
331.184
330.841
330.418
330.13
330.016
330.095
330.359
322.616
322.371
322.223
322.106
322.038
322.159
322.229
322.483
322.632
322.809
322.859
322.791
322.542
322.299
322.051
321.734
321.536
321.44
321.519
321.686
313.579
313.44
313.349
313.278
313.224
313.32
313.343
313.509
313.604
313.724
313.733
313.68
313.528
313.411
313.25
313.04
312.932
312.886
312.928
313.035
304.545
304.51
304.474
304.448
304.431
304.466
304.47
304.514
304.562
304.611
304.599
304.588
304.528
304.499
304.439
304.369
304.341
304.312
304.339
304.36
369.64
368.71
368.137
367.621
367.657
367.869
368.294
368.788
369.235
369.59
369.79
369.478
369.126
368.138
367.459
366.646
366.233
365.997
366.097
366.591
360.39
359.6
359.125
358.64
358.675
358.862
359.207
359.648
360.026
360.314
360.498
360.23
359.938
359.095
358.521
357.823
357.458
357.28
357.361
357.76
351.115
350.485
350.082
349.654
349.656
349.839
350.119
350.514
350.816
351.053
351.2
350.985
350.743
350.047
349.548
348.97
348.642
348.505
348.573
348.92
341.848
341.357
341.009
340.657
340.654
340.801
341.001
341.394
341.598
341.784
341.901
341.732
341.519
340.99
340.562
340.105
339.824
339.692
339.759
340.046
332.574
332.168
331.924
331.653
331.646
331.751
331.889
332.243
332.348
332.515
332.617
332.475
332.288
331.919
331.585
331.243
330.996
330.878
330.952
331.161
323.28
322.984
322.82
322.636
322.596
322.662
322.805
323.076
323.105
323.243
323.311
323.218
323.102
322.84
322.61
322.347
322.168
322.054
322.123
322.274
313.987
313.811
313.703
313.604
313.565
313.601
313.701
313.892
313.882
313.952
314
313.962
313.899
313.737
313.609
313.422
313.323
313.24
313.283
313.401
304.692
304.636
304.588
304.563
304.551
304.562
304.592
304.664
304.653
304.678
304.695
304.684
304.668
304.614
304.565
304.496
304.47
304.439
304.448
304.496
371.44
370.741
370.067
369.488
369.39
369.473
369.901
370.274
370.658
370.935
371.021
370.634
370.31
369.447
368.973
368.233
367.937
367.806
368.037
368.363
361.934
361.373
360.778
360.274
360.192
360.247
360.616
360.934
361.266
361.486
361.593
361.229
360.974
360.223
359.834
359.195
358.929
358.845
359.018
359.296
352.408
351.977
351.489
351.032
350.964
351.005
351.292
351.57
351.86
352.016
352.148
351.807
351.617
350.996
350.666
350.149
349.9
349.851
350.012
350.24
342.863
342.57
342.167
341.789
341.708
341.767
341.961
342.195
342.46
342.559
342.698
342.421
342.25
341.757
341.487
341.061
340.851
340.841
340.973
341.15
333.338
333.133
332.812
332.562
332.45
332.516
332.62
332.823
333.032
333.101
333.221
332.999
332.879
332.536
332.292
331.984
331.786
331.795
331.899
332.026
323.826
323.696
323.448
323.282
323.194
323.26
323.293
323.459
323.607
323.627
323.748
323.585
323.501
323.283
323.091
322.88
322.722
322.738
322.802
322.906
314.333
314.244
314.094
313.989
313.93
313.97
313.982
314.085
314.185
314.19
314.266
314.165
314.126
313.994
313.871
313.744
313.663
313.654
313.696
313.762
304.806
304.784
304.73
304.689
304.676
304.694
304.684
304.711
304.75
304.75
304.778
304.746
304.734
304.691
304.653
304.607
304.591
304.583
304.591
304.62
373.247
372.558
371.926
371.402
371.154
371.275
371.453
371.754
372.109
372.285
372.354
371.996
371.551
370.94
370.344
369.851
369.475
369.557
369.877
370.364
363.493
362.953
362.39
361.927
361.713
361.81
361.975
362.208
362.536
362.663
362.72
362.399
362.021
361.525
361.012
360.574
360.255
360.335
360.634
361.031
353.745
353.315
352.831
352.432
352.237
352.327
352.481
352.651
352.931
353.03
353.085
352.799
352.482
352.115
351.663
351.278
351.027
351.07
351.361
351.662
344.005
343.668
343.249
342.926
342.756
342.82
342.974
343.124
343.319
343.423
343.451
343.19
342.953
342.696
342.324
341.982
341.781
341.793
342.065
342.295
334.244
334.006
333.655
333.421
333.255
333.301
333.458
333.58
333.687
333.792
333.812
333.621
333.435
333.243
332.941
332.666
332.521
332.514
332.75
332.921
324.469
324.317
324.044
323.905
323.753
323.816
323.904
324.033
324.056
324.138
324.148
324.035
323.913
323.749
323.529
323.351
323.251
323.228
323.403
323.533
314.7
314.618
314.458
314.364
314.267
314.318
314.365
314.451
314.452
314.491
314.484
314.442
314.379
314.252
314.126
314.031
313.978
313.95
314.069
314.123
304.925
304.895
304.854
304.823
304.776
304.823
304.814
304.848
304.84
304.862
304.852
304.845
304.825
304.784
304.73
304.697
304.703
304.69
304.718
304.722
375.248
374.366
373.675
373.115
372.883
372.846
373.003
373.307
373.359
373.498
373.487
373.242
372.972
372.327
371.86
371.46
371.185
371.205
371.596
372.172
365.241
364.498
363.87
363.391
363.194
363.147
363.305
363.55
363.604
363.736
363.703
363.469
363.252
362.7
362.286
361.969
361.75
361.756
362.099
362.587
355.226
354.617
354.042
353.675
353.478
353.442
353.586
353.784
353.851
353.947
353.908
353.706
353.509
353.059
352.72
352.454
352.286
352.291
352.587
352.977
345.218
344.726
344.228
343.958
343.76
343.737
343.855
344.003
344.088
344.156
344.125
343.94
343.768
343.418
343.164
342.928
342.782
342.799
343.062
343.348
335.204
334.81
334.431
334.225
334.054
334.035
334.126
334.222
334.309
334.358
334.329
334.167
334.034
333.782
333.595
333.4
333.296
333.291
333.511
333.723
325.175
324.877
324.594
324.468
324.318
324.317
324.39
324.434
324.55
324.553
324.549
324.415
324.331
324.133
324.01
323.862
323.793
323.788
323.944
324.088
315.133
314.952
314.778
314.709
314.603
314.604
314.651
314.671
314.755
314.743
314.747
314.665
314.625
314.474
314.418
314.327
314.292
314.286
314.39
314.461
305.071
305.022
304.949
304.939
304.892
304.904
304.912
304.903
304.953
304.929
304.951
304.918
304.905
304.852
304.838
304.805
304.79
304.789
304.823
304.843
377.105
376.139
375.174
374.635
374.402
374.297
374.318
374.494
374.616
374.686
374.653
374.466
374.144
373.76
373.234
372.887
372.711
372.922
373.215
373.814
366.842
365.992
365.15
364.693
364.503
364.374
364.396
364.527
364.665
364.727
364.695
364.501
364.244
363.933
363.479
363.173
363.048
363.23
363.486
363.972
356.561
355.817
355.126
354.74
354.602
354.459
354.474
354.586
354.723
354.762
354.736
354.538
354.33
354.094
353.714
353.45
353.372
353.507
353.767
354.131
346.264
345.661
345.108
344.776
344.7
344.551
344.547
344.641
344.79
344.814
344.791
344.593
344.443
344.27
343.946
343.714
343.692
343.801
344.041
344.298
335.983
335.527
335.1
334.821
334.779
334.668
334.668
334.718
334.833
334.869
334.849
334.691
334.564
334.442
334.19
333.99
333.991
334.091
334.295
334.456
325.703
325.396
325.071
324.882
324.853
324.795
324.793
324.814
324.885
324.9
324.901
324.801
324.705
324.609
324.423
324.28
324.275
324.363
324.508
324.614
315.423
315.247
315.052
314.956
314.933
314.894
314.912
314.921
314.942
314.941
314.94
314.903
314.854
314.778
314.658
314.566
314.564
314.655
314.721
314.776
305.162
305.112
305.046
305.017
305.006
305.002
304.993
305.008
305.007
305.011
305.009
304.995
304.981
304.952
304.918
304.882
304.873
304.912
304.943
304.956
378.304
377.448
376.402
375.81
375.558
375.51
375.352
375.467
375.54
375.609
375.466
375.408
374.953
374.547
374.273
373.965
373.9
374.017
374.509
375.067
367.821
367.073
366.161
365.662
365.435
365.383
365.243
365.332
365.433
365.489
365.344
365.309
364.891
364.572
364.339
364.075
364.014
364.119
364.562
365.053
357.359
356.713
355.944
355.528
355.329
355.285
355.16
355.25
355.336
355.392
355.256
355.215
354.867
354.598
354.419
354.202
354.151
354.231
354.647
355.045
346.909
346.378
345.758
345.404
345.232
345.216
345.097
345.186
345.269
345.282
345.189
345.129
344.88
344.664
344.522
344.342
344.299
344.353
344.723
345.055
336.487
336.067
335.578
335.314
335.17
335.161
335.11
335.127
335.203
335.192
335.126
335.077
334.921
334.746
334.63
334.471
334.441
334.483
334.799
335.04
326.068
325.766
325.424
325.231
325.131
325.138
325.116
325.103
325.13
325.108
325.083
325.05
324.959
324.84
324.724
324.627
324.612
324.637
324.86
325.016
315.646
315.482
315.27
315.142
315.091
315.101
315.091
315.077
315.077
315.059
315.054
315.046
314.977
314.925
314.842
314.792
314.778
314.78
314.921
315.009
305.253
305.195
305.127
305.07
305.065
305.065
305.06
305.069
305.061
305.039
305.049
305.043
305.018
305.004
304.972
304.958
304.951
304.937
304.991
305.038
)
;

boundaryField
{
    hotSide
    {
        type            fixedGradient;
        gradient        nonuniform List<scalar> 
400
(
524.31
526.573
532.154
540.963
552.661
566.765
582.757
600.165
618.597
637.745
657.379
677.333
697.493
717.786
738.173
758.644
779.206
799.879
820.683
841.633
503.904
506.511
512.671
522.269
534.898
549.985
566.937
585.23
604.441
624.251
644.426
664.804
685.278
705.787
726.305
746.834
767.401
788.041
808.789
829.672
492.507
495.781
502.561
512.724
525.858
541.395
558.74
577.366
596.843
616.845
637.136
657.554
677.994
698.402
718.763
739.09
759.419
779.796
800.267
820.865
489.522
493.764
501.226
511.779
525.068
540.6
557.845
576.311
595.585
615.342
635.343
655.422
675.48
695.468
715.376
735.228
755.067
774.946
794.915
815.015
492.642
498.027
506.268
517.225
530.599
545.984
562.928
580.993
599.793
619.016
638.426
657.863
677.236
696.506
715.678
734.787
753.886
773.036
792.294
811.707
499.241
505.842
514.977
526.49
540.11
555.484
572.213
589.9
608.184
626.765
645.423
664.015
682.468
700.772
718.957
737.083
755.22
773.441
791.814
810.393
507.146
514.975
525.109
537.372
551.494
567.132
583.901
601.411
619.303
637.283
655.146
672.778
690.151
707.3
724.303
741.258
758.265
775.417
792.791
810.45
514.678
523.687
534.877
548.05
562.919
579.12
596.242
613.858
631.575
649.083
666.188
682.821
699.02
714.899
730.603
746.286
762.086
778.118
794.47
811.206
520.502
530.549
542.749
556.886
572.65
589.641
607.388
625.388
643.172
660.381
676.824
692.491
707.519
722.123
736.542
750.99
765.643
780.636
796.06
811.978
523.54
534.353
547.356
562.328
578.941
596.757
615.237
633.784
651.822
668.915
684.866
699.733
713.769
727.304
740.664
754.121
767.878
782.078
796.813
812.138
523.029
534.188
547.604
563.055
580.203
598.587
617.621
636.632
654.961
672.105
687.856
702.322
715.838
728.812
741.627
754.584
767.903
781.727
796.148
811.215
518.643
529.636
542.951
558.367
575.539
593.996
613.143
632.3
650.802
668.142
684.102
698.784
712.509
725.68
738.674
751.796
765.266
779.235
793.795
808.999
510.621
520.941
533.658
548.547
565.262
583.334
602.192
621.207
639.782
657.459
674.018
689.493
704.113
718.192
732.052
745.966
760.15
774.756
789.888
805.608
499.797
509.043
520.809
534.874
550.891
568.4
586.861
605.708
624.415
642.579
659.972
676.554
692.438
707.829
722.965
738.072
753.345
768.937
784.961
801.488
487.569
495.487
506.138
519.315
534.664
551.717
569.941
588.799
607.806
626.585
644.895
662.639
679.841
696.615
713.123
729.542
746.043
762.772
779.843
797.338
475.898
482.374
491.902
504.289
519.155
535.987
554.218
573.296
592.742
612.183
631.365
650.156
668.529
686.534
704.283
721.913
739.576
757.41
775.532
794.022
467.375
472.429
480.913
492.648
507.198
523.972
542.333
561.692
581.559
601.559
621.436
641.04
660.315
679.28
698.011
716.622
735.25
754.031
773.082
792.48
465.118
468.926
476.47
487.58
501.77
518.372
536.691
556.113
576.141
596.407
616.658
636.739
656.579
676.175
695.582
714.894
734.237
753.743
773.524
793.653
471.887
474.793
481.485
491.812
505.295
521.27
539.051
558.038
577.75
597.828
618.025
638.18
658.212
678.101
697.878
717.618
737.428
757.421
777.698
798.319
488.531
490.917
496.834
506.16
518.501
533.298
549.955
567.936
586.796
606.196
625.891
645.717
665.576
685.429
705.287
725.195
745.229
765.473
786.002
806.856
)
;
    }
    coldSide
    {
        type            mixed;
        refValue        uniform 300;
        refGradient     uniform 0;
        valueFraction   uniform 0.991591;
        source          uniform 0;
        value           nonuniform List<scalar> 
400
(
300.028
300.028
300.029
300.029
300.03
300.03
300.031
300.032
300.033
300.034
300.035
300.036
300.037
300.038
300.039
300.04
300.041
300.043
300.043
300.044
300.028
300.028
300.028
300.029
300.029
300.03
300.031
300.032
300.033
300.034
300.035
300.036
300.037
300.038
300.039
300.04
300.041