/*--------------------------------*- C++ -*----------------------------------*\
| =========                 |                                                 |
| \\      /  F ield         | OpenFOAM: The Open Source CFD Toolbox           |
|  \\    /   O peration     | Version:  2212                                  |
|   \\  /    A nd           | Website:  www.openfoam.com                      |
|    \\/     M anipulation  |                                                 |
\*---------------------------------------------------------------------------*/
FoamFile
{
    version     2.0;
    format      ascii;
    arch        "LSB;label=32;scalar=64";
    class       volScalarField;
    location    "0";
    object      T;
}
// * * * * * * * * * * * * * * * * * * * * * * * * * * * * * * * * * * * * * //

dimensions      [0 0 0 1 0 0 0];

internalField   nonuniform List<scalar> 
3200
(
332.055
332.989
333.371
333.997
334.671
335.331
335.508
335.75
335.945
335.834
335.803
335.923
335.578
335.044
334.775
334.169
333.846
332.921
332.313
331.555
327.774
328.598
328.94
329.496
330.041
330.646
330.783
331.016
331.184
331.072
331.045
331.14
330.845
330.405
330.237
329.669
329.418
328.597
328.07
327.388
323.535
324.213
324.495
324.95
325.414
325.93
326.067
326.235
326.432
326.264
326.289
326.334
326.08
325.749
325.622
325.134
324.956
324.264
323.801
323.175
319.223
319.815
320.044
320.406
320.822
321.19
321.331
321.469
321.705
321.43
321.501
321.564
321.333
321.088
320.961
320.577
320.433
319.889
319.511
318.917
314.979
315.437
315.612
315.854
316.169
316.459
316.579
316.672
316.952
316.649
316.746
316.776
316.59
316.409
316.276
316.002
315.916
315.433
315.195
314.725
310.704
311.017
311.163
311.34
311.545
311.726
311.813
311.886
312.109
311.886
311.997
311.981
311.825
311.71
311.637
311.435
311.382
311.024
310.855
310.536
306.446
306.596
306.673
306.849
306.907
307.028
307.078
307.13
307.298
307.143
307.198
307.193
307.078
307.044
306.957
306.882
306.845
306.593
306.504
306.297
302.154
302.211
302.234
302.305
302.322
302.361
302.377
302.406
302.457
302.395
302.406
302.427
302.362
302.345
302.324
302.279
302.309
302.205
302.173
302.114
332.983
333.762
334.519
334.879
335.475
336.012
336.378
336.821
336.782
336.933
336.793
336.795
336.368
335.962
335.697
335.143
334.842
333.798
333.146
332.398
328.549
329.236
329.839
330.165
330.695
331.121
331.509
331.89
331.857
331.988
331.895
331.865
331.513
331.115
330.915
330.457
330.208
329.275
328.744
328.092
324.124
324.74
325.177
325.458
325.915
326.26
326.673
326.976
327
327.012
327.003
326.936
326.643
326.292
326.175
325.767
325.596
324.761
324.339
323.775
319.756
320.273
320.548
320.761
321.125
321.395
321.798
322.072
322.114
322.052
322.111
322.013
321.778
321.481
321.38
321.088
321.027
320.287
319.913
319.429
315.35
315.777
315.946
316.117
316.387
316.578
316.959
317.187
317.235
317.112
317.165
317.086
316.891
316.68
316.606
316.412
316.387
315.772
315.462
315.105
310.963
311.254
311.414
311.499
311.679
311.826
312.133
312.299
312.336
312.219
312.22
312.161
312.084
311.88
311.827
311.742
311.717
311.281
311.048
310.781
306.6
306.757
306.851
306.87
307.018
307.122
307.263
307.382
307.409
307.336
307.311
307.307
307.243
307.152
307.081
307.047
307.074
306.799
306.653
306.479
302.232
302.283
302.306
302.315
302.335
302.397
302.428
302.471
302.497
302.446
302.453
302.438
302.434
302.396
302.38
302.343
302.38
302.275
302.249
302.192
334.199
334.759
335.501
336.317
336.606
337.271
337.661
337.852
338.024
338.159
338.075
337.987
337.764
337.257
336.973
336.605
335.953
335.025
334.536
333.47
329.616
330.053
330.688
331.4
331.6
332.25
332.585
332.751
332.901
332.989
332.984
332.892
332.651
332.207
332.012
331.689
331.135
330.348
329.951
329.022
325.026
325.418
325.927
326.497
326.664
327.24
327.521
327.648
327.799
327.834
327.923
327.83
327.576
327.231
327.051
326.764
326.325
325.655
325.376
324.576
320.477
320.827
321.194
321.639
321.784
322.215
322.44
322.573
322.734
322.755
322.818
322.761
322.514
322.264
322.125
321.871
321.497
320.96
320.767
320.078
315.946
316.19
316.484
316.818
316.91
317.252
317.391
317.527
317.636
317.707
317.733
317.709
317.504
317.288
317.219
316.972
316.676
316.257
316.179
315.609
311.415
311.562
311.804
311.976
312.046
312.32
312.407
312.533
312.586
312.63
312.694
312.661
312.484
312.297
312.301
312.126
311.89
311.595
311.566
311.151
306.873
306.952
307.103
307.208
307.236
307.409
307.465
307.557
307.547
307.568
307.621
307.617
307.487
307.378
307.413
307.266
307.115
306.978
306.939
306.706
302.294
302.338
302.4
302.415
302.432
302.49
302.508
302.532
302.529
302.529
302.522
302.567
302.523
302.459
302.475
302.422
302.381
302.352
302.322
302.264
335.262
336.145
336.742
337.646
338.116
338.596
339.071
339.465
339.572
339.683
339.562
339.548
339.081
338.779
338.329
337.841
337.074
336.139
335.488
334.923
330.501
331.276
331.773
332.588
332.921
333.395
333.753
334.14
334.209
334.353
334.257
334.24
333.847
333.525
333.138
332.705
332.073
331.328
330.775
330.31
325.769
326.429
326.778
327.521
327.794
328.228
328.446
328.825
328.857
329.048
328.962
328.912
328.627
328.288
327.988
327.678
327.131
326.498
326.03
325.67
321.056
321.573
321.852
322.494
322.717
323.054
323.176
323.569
323.538
323.718
323.708
323.629
323.409
323.114
322.86
322.662
322.19
321.674
321.28
321.006
316.362
316.742
316.993
317.519
317.653
317.903
317.997
318.318
318.241
318.42
318.418
318.357
318.184
317.971
317.73
317.619
317.209
316.868
316.516
316.368
311.688
311.942
312.181
312.521
312.592
312.763
312.854
313.133
313.015
313.137
313.15
313.155
312.968
312.831
312.684
312.561
312.296
312.047
311.84
311.675
307.001
307.16
307.347
307.521
307.563
307.656
307.724
307.884
307.814
307.885
307.885
307.922
307.783
307.681
307.606
307.496
307.34
307.214
307.125
307.001
302.346
302.386
302.479
302.541
302.549
302.573
302.597
302.649
302.626
302.638
302.639
302.659
302.592
302.559
302.546
302.513
302.46
302.411
302.396
302.345
336.462
337.347
338.079
338.9
339.518
340.127
340.39
340.927
340.887
341.127
341.173
340.941
340.584
340.323
339.79
339.452
338.592
337.626
337.136
336.216
331.547
332.309
332.946
333.658
334.152
334.692
334.922
335.403
335.336
335.559
335.598
335.418
335.15
334.855
334.476
334.094
333.371
332.555
332.2
331.352
326.644
327.292
327.832
328.437
328.788
329.272
329.494
329.907
329.859
330.016
330.055
329.915
329.699
329.406
329.167
328.797
328.2
327.479
327.218
326.491
321.797
322.299
322.714
323.269
323.49
323.925
324.106
324.454
324.368
324.542
324.552
324.459
324.283
324.025
323.794
323.558
323.082
322.426
322.266
321.634
316.958
317.335
317.667
318.056
318.224
318.634
318.75
319.009
318.946
319.08
319.06
319.018
318.891
318.689
318.461
318.271
317.941
317.416
317.362
316.849
312.117
312.393
312.575
312.844
312.968
313.276
313.417
313.55
313.528
313.614
313.605
313.602
313.516
313.389
313.15
313.059
312.843
312.449
312.437
312.089
307.26
307.433
307.561
307.708
307.757
307.943
308.044
308.115
308.121
308.158
308.172
308.197
308.138
308.048
307.884
307.857
307.729
307.465
307.492
307.311
302.415
302.491
302.544
302.562
302.598
302.653
302.676
302.729
302.735
302.734
302.736
302.75
302.724
302.686
302.644
302.637
302.611
302.509
302.506
302.438
337.833
338.585
339.428
340.167
340.849
341.38
341.768
342.193
342.415
342.404
342.553
342.466
342.102
341.52
341.289
340.608
339.888
339.056
338.354
337.288
332.772
333.369
334.098
334.712
335.372
335.761
336.097
336.486
336.664
336.663
336.834
336.752
336.419
335.952
335.712
335.109
334.527
333.832
333.235
332.349
327.665
328.195
328.815
329.351
329.848
330.13
330.485
330.813
330.963
330.957
331.129
331.037
330.723
330.386
330.124
329.645
329.185
328.63
328.112
327.389
322.562
323.025
323.539
324.01
324.366
324.591
324.927
325.18
325.267
325.299
325.405
325.342
325.08
324.822
324.584
324.214
323.857
323.399
322.997
322.414
317.501
317.874
318.274
318.69
318.884
319.1
319.384
319.557
319.652
319.653
319.735
319.676
319.487
319.321
319.122
318.853
318.588
318.165
317.903
317.435
312.512
312.783
313.031
313.366
313.438
313.659
313.838
313.938
314.008
314.008
314.089
314.044
313.94
313.814
313.7
313.503
313.295
312.94
312.807
312.419
307.551
307.678
307.806
308.03
308.075
308.2
308.335
308.385
308.402
308.394
308.468
308.4
308.373
308.32
308.259
308.121
307.98
307.743
307.674
307.436
302.534
302.574
302.608
302.674
302.725
302.747
302.803
302.813
302.812
302.798
302.835
302.812
302.799
302.766
302.796
302.713
302.669
302.589
302.566
302.475
338.993
339.745
340.581
341.165
342.072
342.756
343.129
343.373
343.604
343.918
343.944
343.737
343.48
342.927
342.493
342.057
341.19
340.277
339.69
338.749
333.738
334.356
335.074
335.556
336.362
336.941
337.292
337.472
337.747
337.941
337.991
337.806
337.617
337.19
336.753
336.324
335.666
334.822
334.355
333.576
328.491
329.045
329.565
330.056
330.684
331.214
331.457
331.633
331.902
332.021
332.069
331.909
331.76
331.4
331.077
330.653
330.142
329.402
329.049
328.41
323.281
323.754
324.141
324.562
325.061
325.496
325.685
325.828
326.044
326.122
326.195
326.081
325.956
325.698
325.403
325.039
324.636
324.015
323.741
323.265
318.085
318.497
318.735
319.106
319.47
319.775
319.972
320.097
320.236
320.282
320.342
320.283
320.181
319.98
319.772
319.404
319.155
318.662
318.409
318.105
312.914
313.245
313.34
313.639
313.957
314.119
314.268
314.354
314.454
314.473
314.554
314.471
314.429
314.256
314.146
313.834
313.693
313.296
313.127
312.922
307.757
307.972
308.021
308.191
308.414
308.483
308.543
308.642
308.636
308.707
308.754
308.662
308.696
308.559
308.506
308.296
308.196
307.981
307.849
307.763
302.584
302.676
302.684
302.756
302.841
302.844
302.858
302.878
302.882
302.925
302.934
302.898
302.905
302.862
302.842
302.758
302.751
302.679
302.627
302.604
340.184
341.034
341.695
342.624
343.253
344.034
344.507
344.766
345.087
345.294
345.136
344.956
344.827
344.4
343.979
343.244
342.349
341.378
340.792
339.962
334.822
335.473
336.063
336.834
337.354
338.106
338.488
338.717
338.99
339.158
339.026
338.907
338.747
338.384
338.083
337.43
336.605
335.792
335.362
334.665
329.451
329.946
330.444
331.101
331.508
332.164
332.489
332.69
332.913
333.081
332.991
332.889
332.716
332.427
332.229
331.635
330.887
330.228
329.916
329.34
324.072
324.461
324.836
325.382
325.775
326.255
326.561
326.698
326.875
327.002
326.924
326.863
326.722
326.5
326.349
325.849
325.252
324.699
324.472
324.018
318.744
318.984
319.301
319.752
320.076
320.412
320.672
320.711
320.882
320.967
320.921
320.881
320.747
320.574
320.458
320.07
319.615
319.205
319.061
318.69
313.39
313.539
313.794
314.155
314.368
314.569
314.701
314.757
314.901
314.944
314.947
314.905
314.792
314.65
314.642
314.345
314.059
313.703
313.613
313.318
308.035
308.123
308.288
308.519
308.628
308.737
308.82
308.871
308.943
308.967
308.934
308.935
308.86
308.793
308.845
308.62
308.45
308.198
308.146
307.966
302.688
302.716
302.758
302.85
302.903
302.937
302.973
302.996
302.972
303.001
302.986
303.001
302.969
302.948
302.97
302.887
302.836
302.75
302.743
302.671
341.366
342.145
342.921
343.826
344.588
345.263
345.696
346.089
346.501
346.571
346.48
346.537
346.134
345.746
344.954
344.361
343.446
342.58
341.749
340.893
335.794
336.448
337.11
337.879
338.558
339.123
339.488
339.857
340.236
340.262
340.196
340.278
339.915
339.578
338.915
338.386
337.618
336.867
336.148
335.471
330.251
330.761
331.346
331.951
332.545
333.004
333.327
333.639
334.019
333.976
333.943
334.034
333.697
333.444
332.915
332.428
331.806
331.173
330.519
330.031
324.72
325.134
325.591
326.019
326.516
326.934
327.251
327.452
327.81
327.779
327.739
327.798
327.52
327.335
326.908
326.522
326.02
325.442
324.96
324.583
319.202
319.529
319.871
320.164
320.582
320.907
321.209
321.318
321.593
321.556
321.594
321.588
321.372
321.218
320.941
320.63
320.27
319.782
319.436
319.146
313.721
313.924
314.172
314.345
314.679
314.936
315.137
315.219
315.41
315.447
315.454
315.423
315.256
315.161
314.966
314.737
314.542
314.108
313.864
313.651
308.257
308.367
308.475
308.61
308.818
308.96
309.074
309.15
309.246
309.274
309.241
309.256
309.132
309.092
308.971
308.851
308.767
308.458
308.301
308.181
302.775
302.799
302.82
302.883
302.949
302.993
303.026
303.061
303.096
303.098
303.091
303.092
303.066
303.058
302.984
302.98
302.938
302.829
302.766
302.737
342.272
343.108
344.023
344.967
345.704
346.585
346.94
347.201
347.708
347.738
347.727
347.726
347.573
347.048
346.298
345.693
344.696
343.733
342.821
342.166
336.565
337.275
338.061
338.876
339.477
340.295
340.598
340.785
341.3
341.291
341.246
341.284
341.162
340.743
340.063
339.521
338.697
337.846
337.058
336.577
330.935
331.497
332.115
332.787
333.341
334.018
334.273
334.458
334.893
334.867
334.864
334.904
334.772
334.451
333.855
333.384
332.689
331.927
331.283
330.991
325.275
325.732
326.25
326.765
327.2
327.737
327.98
328.153
328.522
328.46
328.519
328.508
328.4
328.187
327.68
327.314
326.75
326.069
325.581
325.336
319.67
319.976
320.449
320.765
321.125
321.515
321.726
321.856
322.148
322.13
322.138
322.151
322.052
321.925
321.55
321.212
320.815
320.251
319.884
319.693
314.013
314.263
314.587
314.805
315.062
315.356
315.502
315.587
315.814
315.805
315.78
315.831
315.779
315.656
315.386
315.122
314.878
314.419
314.228
314.083
308.377
308.552
308.733
308.908
309.039
309.185
309.276
309.341
309.514
309.477
309.473
309.507
309.474
309.422
309.246
309.041
308.925
308.659
308.585
308.462
302.797
302.855
302.923
302.992
303.032
303.077
303.088
303.14
303.204
303.189
303.189
303.175
303.168
303.169
303.095
303.018
303.001
302.933
302.871
302.842
343.149
344.055
345.051
345.905
346.681
347.733
348.109
348.417
348.834
348.949
348.806
348.697
348.69
348.105
347.555
346.904
345.964
345.031
343.905
343.346
337.341
338.084
338.989
339.652
340.365
341.312
341.612
341.874
342.259
342.319
342.248
342.133
342.124
341.647
341.127
340.607
339.74
338.939
338.001
337.559
331.593
332.151
332.949
333.456
334.104
334.904
335.151
335.37
335.704
335.729
335.687
335.608
335.573
335.197
334.759
334.286
333.573
332.852
332.091
331.763
325.873
326.251
326.981
327.32
327.865
328.518
328.743
328.895
329.133
329.189
329.189
329.056
329.066
328.781
328.464
327.982
327.46
326.817
326.21
325.968
320.135
320.393
321.019
321.201
321.62
322.163
322.354
322.393
322.611
322.662
322.73
322.57
322.607
322.367
322.164
321.701
321.365
320.857
320.355
320.183
314.374
314.596
315.046
315.096
315.408
315.858
315.952
315.941
316.087
316.172
316.216
316.112
316.205
315.994
315.853
315.473
315.276
314.876
314.549
314.417
308.632
308.756
309.039
309.053
309.218
309.517
309.597
309.551
309.652
309.688
309.759
309.691
309.743
309.602
309.535
309.269
309.165
308.928
308.724
308.646
302.876
302.934
303.025
303.023
303.074
303.189
303.215
303.208
303.247
303.241
303.273
303.231
303.264
303.205
303.183
303.105
303.054
302.989
302.918
302.892
344.108
344.973
346.011
347.085
347.872
348.834
349.206
349.616
349.869
350.074
350.015
349.797
349.758
349.162
348.713
348.028
346.862
346.005
345.151
344.474
338.194
338.9
339.767
340.713
341.385
342.269
342.53
342.929
343.135
343.304
343.293
343.096
343.051
342.573
342.165
341.589
340.534
339.787
339.069
338.54
332.265
332.861
333.589
334.395
334.938
335.71
335.913
336.252
336.417
336.572
336.581
336.443
336.353
335.969
335.665
335.199
334.256
333.625
333.002
332.593
326.35
326.831
327.449
328.095
328.541
329.199
329.336
329.628
329.748
329.846
329.896
329.771
329.675
329.37
329.187
328.808
328.017
327.446
326.97
326.689
320.483
320.884
321.325
321.814
322.184
322.664
322.796
323.033
323.123
323.175
323.232
323.145
323.005
322.805
322.722
322.383
321.768
321.32
320.949
320.789
314.617
314.925
315.235
315.569
315.827
316.182
316.293
316.465
316.505
316.491
316.564
316.508
316.41
316.251
316.231
315.983
315.508
315.246
314.964
314.824
308.772
308.944
309.168
309.379
309.512
309.722
309.785
309.891
309.907
309.922
309.902
309.876
309.851
309.76
309.742
309.608
309.322
309.154
308.969
308.901
302.945
302.991
303.077
303.15
303.174
303.25
303.268
303.334
303.294
303.312
303.317
303.314
303.311
303.272
303.276
303.215
303.143
303.076
302.999
302.982
345.07
345.92
346.986
347.769
348.798
349.733
350.116
350.6
350.946
351.078
351.143
350.786
350.605
350.164
349.66
348.825
348.13
347.144
345.987
345.382
339.023
339.71
340.618
341.279
342.204
343.004
343.363
343.743
344.046
344.144
344.226
343.98
343.762
343.377
342.966
342.281
341.638
340.776
339.831
339.327
332.994
333.482
334.275
334.874
335.697
336.356
336.652
336.921
337.196
337.269
337.342
337.141
336.993
336.624
336.322
335.782
335.119
334.433
333.699
333.297
327.007
327.311
327.986
328.529
329.213
329.713
329.952
330.179
330.37
330.423
330.537
330.319
330.218
329.911
329.698
329.263
328.697
328.11
327.542
327.26
320.991
321.203
321.728
322.216
322.746
323.115
323.272
323.422
323.626
323.641
323.691
323.542
323.451
323.23
323.09
322.763
322.306
321.855
321.453
321.259
314.997
315.143
315.507
315.893
316.25
316.526
316.634
316.707
316.867
316.875
316.877
316.838
316.723
316.56
316.536
316.274
315.913
315.571
315.352
315.204
309.005
309.111
309.288
309.565
309.787
309.948
309.971
310.017
310.124
310.098
310.064
310.087
310.018
309.917
309.93
309.791
309.533
309.332
309.199
309.131
303.018
303.057
303.118
303.196
303.286
303.337
303.338
303.343
303.403
303.366
303.378
303.396
303.343
303.342
303.32
303.278
303.209
303.106
303.07
303.076
345.705
346.53
347.586
348.623
349.575
350.481
350.98
351.512
351.924
352.023
351.999
351.794
351.444
351.25
350.535
349.845
349.006
347.812
346.745
346.209
339.523
340.259
341.156
342.029
342.859
343.671
344.1
344.583
344.915
344.924
344.978
344.774
344.488
344.346
343.731
343.141
342.433
341.396
340.454
340.034
333.428
333.991
334.754
335.513
336.203
336.911
337.222
337.646
337.914
337.925
337.961
337.841
337.559
337.485
336.988
336.502
335.877
335.022
334.187
333.878
327.333
327.772
328.383
329.029
329.581
330.194
330.377
330.744
330.952
330.943
330.965
330.93
330.709
330.607
330.235
329.901
329.337
328.64
327.917
327.717
321.245
321.59
322.012
322.514
322.987
323.47
323.595
323.892
324.07
324.025
324.048
324.05
323.89
323.775
323.459
323.272
322.823
322.263
321.689
321.532
315.18
315.392
315.696
316.041
316.427
316.786
316.857
317.066
317.169
317.159
317.113
317.153
317.072
316.98
316.754
316.6
316.327
315.877
315.468
315.378
309.114
309.238
309.428
309.57
309.887
310.091
310.131
310.225
310.252
310.274
310.249
310.301
310.217
310.201
310.055
309.977
309.792
309.526
309.281
309.244
303.061
303.099
303.136
303.195
303.324
303.382
303.414
303.443
303.432
303.417
303.416
303.431
303.448
303.419
303.361
303.333
303.272
303.195
303.095
303.104
346.448
347.46
348.385
349.416
350.409
351.11
351.764
352.313
352.515
352.956
352.816
352.454
352.289
352.053
351.205
350.727
349.793
348.765
347.461
346.771
340.191
341.054
341.829
342.69
343.579
344.204
344.791
345.25
345.425
345.786
345.675
345.365
345.257
345.066
344.304
343.878
343.094
342.235
341.116
340.493
333.907
334.641
335.275
336.025
336.811
337.313
337.827
338.177
338.375
338.66
338.554
338.308
338.258
338.089
337.446
337.074
336.433
335.691
334.787
334.239
327.672
328.277
328.808
329.382
330.097
330.47
330.88
331.223
331.343
331.575
331.454
331.309
331.243
331.123
330.566
330.339
329.792
329.17
328.443
328.035
321.483
321.944
322.415
322.825
323.415
323.702
324.012
324.263
324.346
324.557
324.424
324.322
324.289
324.12
323.758
323.593
323.205
322.649
322.122
321.845
315.394
315.684
316.053
316.295
316.747
316.959
317.149
317.368
317.326
317.503
317.389
317.369
317.384
317.183
317.029
316.855
316.568
316.176
315.805
315.616
309.262
309.428
309.667
309.779
310.054
310.205
310.312
310.422
310.383
310.486
310.417
310.422
310.477
310.311
310.241
310.112
309.94
309.724
309.497
309.404
303.099
303.167
303.237
303.281
303.349
303.415
303.452
303.493
303.489
303.509
303.506
303.499
303.51
303.46
303.449
303.365
303.339
303.25
303.188
303.148
346.876
348.052
348.864
350.02
350.968
351.626
352.336
353.057
353.274
353.532
353.478
353.148
353.092
352.739
352.125
351.442
350.523
349.523
348.35
347.534
340.551
341.567
342.198
343.244
343.997
344.666
345.266
345.918
346.067
346.283
346.298
345.94
345.935
345.683
345.086
344.552
343.707
342.92
341.873
341.171
334.248
335.134
335.6
336.524
337.149
337.7
338.207
338.8
338.906
339.101
339.138
338.816
338.8
338.608
338.125
337.645
336.911
336.298
335.438
334.835
327.978
328.729
329.05
329.835
330.334
330.82
331.166
331.667
331.725
331.936
331.992
331.724
331.676
331.524
331.195
330.774
330.097
329.696
328.961
328.517
321.693
322.343
322.552
323.14
323.584
323.966
324.219
324.585
324.611
324.786
324.868
324.659
324.646
324.486
324.246
323.974
323.358
323.114
322.537
322.214
315.478
315.99
316.09
316.455
316.842
317.124
317.288
317.544
317.564
317.668
317.761
317.573
317.605
317.467
317.329
317.131
316.656
316.492
316.112
315.893
309.277
309.597
309.646
309.872
310.118
310.268
310.396
310.528
310.522
310.585
310.647
310.53
310.579
310.501
310.417
310.302
309.998
309.916
309.667
309.575
303.101
303.215
303.259
303.299
303.388
303.428
303.513
303.546
303.522
303.533
303.565
303.54
303.556
303.506
303.503
303.463
303.367
303.332
303.242
303.211
347.619
348.558
349.309
350.766
351.494
352.239
353.026
353.624
353.981
354.249
354.143
353.94
353.662
353.307
352.65
351.97
350.967
350.048
348.905
347.865
341.231
342.027
342.642
343.866
344.539
345.163
345.845
346.4
346.674
346.915
346.801
346.645
346.412
346.097
345.582
344.973
344.076
343.278
342.354
341.503
334.843
335.536
336.015
336.981
337.625
338.138
338.714
339.18
339.402
339.616
339.523
339.353
339.206
338.911
338.539
338.032
337.223
336.597
335.818
335.107
328.511
329.045
329.439
330.151
330.766
331.172
331.66
332.024
332.179
332.349
332.287
332.137
332.049
331.767
331.526
331.081
330.418
329.935
329.293
328.73
322.117
322.6
322.89
323.397
323.866
324.224
324.618
324.877
325.002
325.117
325.063
324.986
324.948
324.676
324.508
324.196
323.651
323.271
322.762
322.341
315.751
316.138
316.35
316.686
316.964
317.285
317.571
317.746
317.876
317.93
317.838
317.839
317.874
317.625
317.466
317.326
316.903
316.626
316.256
315.996
309.434
309.671
309.803
309.995
310.156
310.365
310.526
310.649
310.771
310.743
310.697
310.711
310.764
310.595
310.449
310.416
310.168
310.002
309.777
309.615
303.17
303.246
303.268
303.341
303.396
303.487
303.534
303.574
303.606
303.591
303.589
303.6
303.621
303.542
303.502
303.478
303.413
303.346
303.286
303.222
347.849
349.01
349.875
351.042
352.09
352.827
353.557
353.987
354.553
354.821
354.607
354.387
354.276
353.767
353.19
352.515
351.516
350.622
349.488
348.62
341.392
342.414
343.093
344.116
345.04
345.677
346.282
346.663
347.186
347.463
347.207
347.052
346.931
346.518
346.034
345.453
344.572
343.81
342.804
342.127
334.943
335.789
336.352
337.226
338.026
338.572
339.067
339.382
339.856
340.126
339.854
339.736
339.659
339.341
338.904
338.406
337.667
337.053
336.199
335.625
328.519
329.214
329.655
330.371
331.078
331.503
331.944
332.168
332.555
332.748
332.544
332.461
332.382
332.155
331.802
331.393
330.792
330.314
329.629
329.158
322.178
322.709
323.03
323.585
324.173
324.478
324.867
325.011
325.305
325.45
325.284
325.185
325.112
324.996
324.7
324.43
323.894
323.575
323.029
322.665
315.814
316.207
316.42
316.879
317.221
317.511
317.777
317.844
318.108
318.192
318.044
317.942
317.902
317.837
317.646
317.486
317.042
316.831
316.471
316.192
309.487
309.719
309.849
310.169
310.331
310.539
310.67
310.723
310.89
310.937
310.799
310.768
310.742
310.693
310.622
310.51
310.236
310.119
309.888
309.735
303.179
303.243
303.301
303.402
303.449
303.538
303.575
303.614
303.647
303.66
303.6
303.605
303.603
303.588
303.558
303.537
303.434
303.381
303.33
303.27
348.26
349.18
350.466
351.367
352.528
353.197
353.874
354.383
354.808
355.172
355.042
354.824
354.548
354.021
353.494
352.902
351.991
350.947
349.943
349.021
341.738
342.503
343.613
344.377
345.414
346.024
346.592
346.986
347.418
347.747
347.602
347.413
347.221
346.727
346.306
345.735
345.009
344.088
343.235
342.498
335.199
335.901
336.822
337.439
338.366
338.884
339.34
339.653
340.105
340.355
340.192
340.048
339.863
339.464
339.118
338.551
338.091
337.274
336.547
335.97
328.737
329.292
330.035
330.521
331.358
331.777
332.208
332.409
332.76
332.958
332.873
332.717
332.554
332.255
331.949
331.496
331.177
330.477
329.893
329.45
322.283
322.723
323.342
323.682
324.389
324.674
325.036
325.184
325.494
325.608
325.565
325.451
325.282
325.084
324.864
324.522
324.196
323.708
323.286
322.915
315.857
316.178
316.667
316.906
317.454
317.629
317.867
317.954
318.205
318.313
318.253
318.125
318.049
317.913
317.722
317.554
317.26
316.926
316.693
316.406
309.493
309.709
310.035
310.167
310.48
310.625
310.707
310.782
310.934
311.022
310.962
310.874
310.812
310.754
310.628
310.577
310.383
310.176
310.037
309.85
303.197
303.264
303.376
303.397
303.513
303.557
303.581
303.617
303.659
303.691
303.663
303.632
303.644
303.603
303.557
303.56
303.485
303.419
303.373
303.29
348.403
349.389
350.644
351.431
352.656
353.456
354.121
354.57
354.999
355.315
355.328
355.124
354.972
354.214
353.579
353.059
352.335
351.082
350.02
349.123
341.91
342.635
343.793
344.466
345.505
346.181
346.747
347.182
347.597
347.8
347.845
347.665
347.572
346.884
346.323
345.876
345.333
344.225
343.305
342.611
335.399
335.972
336.935
337.558
338.411
339
339.479
339.856
340.285
340.376
340.395
340.244
340.206
339.564
339.127
338.735
338.29
337.351
336.587
336.147
328.936
329.397
330.156
330.68
331.363
331.836
332.279
332.557
332.959
332.981
333.029
332.868
332.866
332.314
331.911
331.617
331.28
330.555
329.95
329.624
322.504
322.879
323.43
323.836
324.371
324.725
325.091
325.291
325.662
325.648
325.698
325.542
325.517
325.113
324.762
324.531
324.269
323.806
323.351
323.05
316.048
316.316
316.769
317.04
317.395
317.613
317.91
318.021
318.34
318.329
318.367
318.247
318.194
317.938
317.669
317.503
317.302
317.044
316.682
316.426
309.597
309.784
310.056
310.245
310.417
310.572
310.695
310.77
311.011
310.983
311.015
310.919
310.876
310.756
310.609
310.496
310.376
310.257
310.006
309.831
303.22
303.27
303.36
303.426
303.491
303.561
303.572
303.611
303.692
303.683
303.697
303.664
303.665
303.585
303.556
303.522
303.49
303.447
303.357
303.282
)
;

boundaryField
{
    hotSide
    {
        type            fixedGradient;
        gradient        nonuniform List<scalar> 
400
(
340.912
355.223
369.348
383.225
396.789
409.977
422.726
434.973
446.658
457.72
468.104
477.755
486.624
494.664
501.832
508.09
513.407
517.755
521.11
523.457
349.354
364.118
378.695
393.021
407.029
420.654
433.83
446.493
458.579
470.028
480.781
490.783
499.98
508.325
515.774
522.288
527.832
532.378
535.903
538.389
356.847
372.028
387.021
401.761
416.179
430.208
443.78
456.828
469.288
481.097
492.194
502.522
512.027
520.659
528.372
535.126
540.887
545.622
549.31
551.931
363.35
378.908
394.28
409.396
424.186
438.583
452.516
465.916
478.719
490.857
502.271
512.899
522.688
531.585
539.544
546.523
552.485
557.4
561.242
563.993
368.832
384.725
400.432
415.883
431.007
445.732
459.988
473.705
486.815
499.251
510.95
521.85
531.897
541.035
549.218
556.403
562.552
567.632
571.619
574.493
373.267
389.451
405.45
421.193
436.606
451.618
466.157
480.152
493.532
506.23
518.181
529.323
539.598
548.953
557.337
564.707
571.024
576.256
580.376
583.363
376.641
393.068
409.312
425.3
440.959
456.214
470.993
485.224
498.835
511.757
523.925
535.275
545.749
555.29
563.85
571.383
577.85
583.217
587.457
590.549
378.944
395.565
412.006
428.191
444.047
459.5
474.474
488.898
502.698
515.805
528.152
539.676
550.315
560.014
568.722
576.394
582.988
588.473
592.818
596.003
380.172
396.938
413.524
429.857
445.862
461.464
476.588
491.159
505.105
518.356
530.843
542.502
553.272
563.097
571.925
579.71
586.41
591.992
596.427
599.694
380.33
397.187
413.868
430.298
446.402
462.104
477.328
492.001
506.048
519.399
531.986
543.742
554.608
564.526
573.444
581.314
588.097
593.756
598.264
601.598
379.425
396.321
413.044
429.519
445.67
461.422
476.698
491.424
505.527
518.935
531.579
543.394
554.318
564.295
573.271
581.199
588.039
593.755
598.317
601.704
377.47
394.352
411.064
427.531
443.678
459.429
474.707
489.439
503.55
516.97
529.629
541.462
552.407
562.407
571.41
579.368
586.239
591.989
596.587
600.012
374.482
391.297
407.945
424.352
440.443
456.141
471.372
486.06
500.133
513.519
526.15
537.961
548.889
558.878
567.874
575.832
582.709
588.47
593.085
596.532
370.485
387.179
403.71
420.004
435.987
451.582
466.714
481.311
495.299
508.607
521.167
532.914
543.787
553.729
562.687
570.615
577.471
583.22
587.833
591.287
365.503
382.025
398.387
414.516
430.338
445.78
460.765
475.222
489.079
502.264
514.71
526.353
537.133
546.992
555.88
563.749
570.558
576.272
580.863
584.308
359.568
375.866
392.007
407.921
423.533
438.771
453.561
467.832
481.51
494.529
506.819
518.319
528.969
538.711
547.496
555.277
562.013
567.67
572.22
575.639
352.715
368.738
384.609
400.258
415.612
430.598
445.146
459.184
472.641
485.45
497.544
508.862
519.345
528.937
537.587
545.252
551.89
557.468
561.957
565.336
344.982
360.684
376.237
391.573
406.621
421.31
435.571
449.331
462.524
475.083
486.942
498.041
508.321
517.73
526.217
533.738
540.254
545.732
550.143
553.466
336.416
351.75
366.94
381.918
396.616
410.964
424.893
438.335
451.223
463.492
475.079
485.923
495.969
505.164
513.459
520.811
527.181
532.538
536.853
540.106
327.066
341.99
356.773
371.351
385.657
399.622
413.18
426.264
438.809
450.752
462.031
472.588
482.368
491.319
499.396
506.554
512.758
517.975
522.178
525.348
)
;
    }
    coldSide
    {
        type            mixed;
        refValue        uniform 300;
        refGradient     uniform 0;
        valueFraction   uniform 0.991591;
        source          uniform 0;
        value           nonuniform List<scalar> 
400
(
300.018
300.019
300.019
300.02
300.02
300.021
300.022
300.023
300.023
300.024
300.024
300.025
300.025
300.026
300.026
300.026
300.027
300.027
300.027
300.027
300.019
300.019
300.02
300.02
300.021
300.022
300.023
300.023
300.024
300.024
300.025
300.025
300.026
300.026
300.027