/*--------------------------------*- C++ -*----------------------------------*\
| =========                 |                                                 |
| \\      /  F ield         | OpenFOAM: The Open Source CFD Toolbox           |
|  \\    /   O peration     | Version:  2212                                  |
|   \\  /    A nd           | Website:  www.openfoam.com                      |
|    \\/     M anipulation  |                                                 |
\*---------------------------------------------------------------------------*/
FoamFile
{
    version     2.0;
    format      ascii;
    arch        "LSB;label=32;scalar=64";
    class       volScalarField;
    location    "0";
    object      relativeErrorField;
}
// * * * * * * * * * * * * * * * * * * * * * * * * * * * * * * * * * * * * * //

dimensions      [0 0 0 1 0 0 0];

internalField   nonuniform List<scalar> 
3200
(
0.0121418
0.0106921
0.00922843
0.00787194
0.00701378
0.00639737
0.00635951
0.00642156
0.00641238
0.00662381
0.00697846
0.00750225
0.00797722
0.0087338
0.0095585
0.0107099
0.0121405
0.0139336
0.015693
0.0178063
0.0103685
0.00898948
0.00779374
0.00652691
0.00568421
0.00531994
0.00516251
0.00505329
0.00520322
0.00546331
0.00561383
0.00597722
0.00676198
0.00713593
0.00785695
0.00901704
0.0103427
0.0116524
0.0133345
0.0151211
0.00858718
0.00744865
0.00621119
0.00541061
0.00445145
0.00425493
0.00408743
0.00419128
0.00425277
0.00429368
0.00470343
0.00483067
0.00546466
0.00590312
0.00660893
0.00733291
0.00833728
0.00986353
0.0112822
0.0126245
0.00707643
0.00599285
0.00492372
0.00417724
0.00367242
0.0031323
0.00298298
0.00307506
0.00313977
0.00344867
0.00374753
0.0040675
0.00401018
0.0045741
0.00532563
0.00580672
0.00673563
0.00781006
0.0093077
0.0102243
0.00557714
0.00452211
0.00383539
0.00299615
0.00280854
0.00248326
0.00245368
0.00220264
0.00225678
0.00243273
0.00252569
0.00302705
0.00306976
0.00342977
0.00384856
0.00455189
0.00497162
0.00629316
0.0072747
0.00787317
0.00384458
0.00315285
0.00284474
0.00236118
0.00189785
0.0016773
0.00176189
0.00161612
0.00184815
0.00175795
0.00180773
0.00194991
0.00215682
0.00255602
0.00278419
0.00325837
0.00375946
0.00437381
0.00484402
0.00561898
0.00244661
0.00200112
0.00175981
0.0013382
0.00104185
0.00111635
0.000984906
0.0009435
0.0010099
0.00109532
0.000941732
0.00125783
0.00134276
0.00153154
0.00176085
0.00206591
0.00218758
0.00276521
0.00306801
0.00347051
0.00099026
0.000719553
0.000471873
0.000629234
0.000333339
0.000509162
0.000195593
0.000309771
0.000306384
0.000420364
0.000515524
0.000384763
0.000549998
0.000575217
0.000790343
0.000643421
0.000920298
0.00090869
0.000931228
0.0013481
0.00959647
0.00826867
0.00652413
0.00521369
0.00419828
0.00366718
0.00331198
0.00312325
0.00334692
0.00364139
0.00418522
0.00430732
0.00500875
0.00575988
0.0066302
0.00777885
0.00933127
0.0112704
0.0133874
0.014985
0.0083091
0.0068307
0.0055742
0.00439628
0.00350479
0.00283446
0.00244488
0.00248337
0.00274654
0.00285772
0.00314568
0.00335793
0.0038997
0.00460441
0.00535126
0.00662138
0.00785203
0.00940389
0.0112851
0.0129981
0.00688682
0.00576322
0.00459343
0.0033686
0.00279045
0.00208654
0.00206663
0.00178716
0.00213771
0.00224779
0.00248745
0.00280417
0.0032233
0.00368751
0.00458263
0.00545199
0.0066537
0.00799414
0.00943856
0.0107218
0.005749
0.00466433
0.00339713
0.00300376
0.00196106
0.00174231
0.00144076
0.00143305
0.00139014
0.00192206
0.00200288
0.00227009
0.00249857
0.00288299
0.0032305
0.00424675
0.00533728
0.00637843
0.00749934
0.00883684
0.00439456
0.00371367
0.0026262
0.00202332
0.00163955
0.00148486
0.00124061
0.00113749
0.00118832
0.00128879
0.00132334
0.00161884
0.0019689
0.00225141
0.00273099
0.00324818
0.00403291
0.00492499
0.00604181
0.00703656
0.00302269
0.00245237
0.00225932
0.00158749
0.00113623
0.000781394
0.000718886
0.000675615
0.000849539
0.000739638
0.000947213
0.00108059
0.0013108
0.00147372
0.00153054
0.00247742
0.0030186
0.00347218
0.00431058
0.00484481
0.00177447
0.00170484
0.001126
0.000871704
0.000789299
0.000557738
0.000330291
0.000288989
0.000447771
0.000365558
0.000576842
0.000568407
0.000790758
0.00108404
0.00108711
0.00159613
0.00156754
0.0020913
0.00278444
0.00303784
0.000525471
0.000530374
0.000456584
0.00014926
0.000323431
0.000281672
0.000204991
0.000307677
0.000306453
0.000156057
0.00012578
0.000232525
0.000417345
0.000480995
2.23049e-05
0.000488703
0.00072894
0.000820133
0.000747204
0.000924409
0.00703942
0.0051681
0.00328228
0.00173964
0.000771175
4.53977e-05
0.00019192
0.000348422
0.000484741
7.23405e-05
0.000115887
0.000686629
0.00128759
0.00213349
0.00305524
0.00439214
0.00589966
0.00785463
0.00975837
0.0117732
0.00573152
0.00422603
0.00260268
0.00152181
0.0004217
0.000272075
0.000469023
0.00050836
0.000713914
0.000294781
0.000280786
0.00036853
0.000758273
0.00151075
0.00253479
0.00340157
0.00483353
0.00668928
0.00835576
0.0100356
0.00496815
0.00370549
0.00221533
0.000962493
7.88071e-05
0.000359752
0.000777632
0.000737402
0.000590677
0.000538246
0.000119762
5.80738e-05
0.00037556
0.000997613
0.00180506
0.00295262
0.00374869
0.00547169
0.00701069
0.00871078
0.00385299
0.00293936
0.00176413
0.000706908
0.00010018
0.000333286
0.000612435
0.000559742
0.000626155
0.000451244
0.000504261
2.18655e-05
0.000276069
0.000990603
0.0015934
0.00224426
0.00301306
0.00441614
0.00565787
0.0069745
0.00311591
0.00219755
0.00115632
0.000385571
6.14208e-05
0.000414783
0.000457532
0.00056275
0.000692192
0.000551145
0.000216631
0.000186684
0.000159507
0.000382903
0.00100555
0.00133771
0.002455
0.00320706
0.00430671
0.00555449
0.00208984
0.00146009
0.00100471
0.000299716
1.97169e-05
0.000258408
0.000593354
0.000619464
0.00060643
0.000407934
0.000469819
9.17097e-05
5.31246e-05
0.000290607
0.00069192
0.00124649
0.00173079
0.00235934
0.00310022
0.00363044
0.00113891
0.00110545
0.000563403
0.000240723
6.55039e-06
0.000213776
0.000309423
0.000256955
0.000480885
0.000352559
0.000402557
0.000172603
3.79783e-06
0.000222573
0.000457665
0.000708337
0.00101459
0.00142938
0.00178915
0.00247768
0.00037916
0.000295993
0.000148655
0.000165528
9.25722e-05
0.000203847
0.00022915
0.000135873
6.24479e-05
0.000178816
0.000148754
0.000267165
5.93528e-06
0.000293636
0.000275503
0.000373342
0.000312009
0.000534559
0.000700599
0.000845957
0.00404647
0.00231932
0.000267499
0.00118768
0.00239212
0.0033188
0.00371341
0.00395435
0.00397437
0.0039183
0.00341305
0.00301169
0.00215535
0.00148612
0.000472888
0.00102256
0.00256136
0.00467399
0.00700534
0.009014
0.00332742
0.00188327
0.000111391
0.00131435
0.00236125
0.00320431
0.00354629
0.00364085
0.00361892
0.00365678
0.00329279
0.00280869
0.00234002
0.00164586
0.000848441
0.000558454
0.00185915
0.00388846
0.00562726
0.00761877
0.00275056
0.00126252
2.65903e-05
0.00123512
0.00207121
0.00299566
0.00338225
0.0033721
0.00328479
0.00315188
0.00309603
0.0024687
0.00215039
0.00146631
0.000721542
0.000373167
0.00151945
0.00327929
0.00494727
0.00635812
0.00212238
0.00108674
0.000183537
0.00137351
0.00191432
0.0022538
0.00282725
0.00290792
0.00278253
0.00295667
0.00267629
0.00229196
0.00198458
0.00142886
0.000837095
5.52847e-05
0.00121064
0.00239097
0.00390943
0.00517835
0.00178519
0.000817952
0.00011269
0.000997035
0.00148046
0.00216206
0.00212574
0.00242524
0.00214765
0.00231379
0.00233138
0.00179209
0.00173274
0.00113574
0.000571083
0.000139147
0.000750604
0.00184481
0.0031582
0.00390301
0.00113596
0.000651374
0.000314141
0.000744394
0.00103778
0.00147479
0.00167821
0.00173852
0.00189204
0.00188581
0.00164757
0.00156694
0.00116306
0.000969421
0.00038693
3.49836e-05
0.000520747
0.00134319
0.00203366
0.00289423
0.00087949
0.000455865
0.000199645
0.000416377
0.000863181
0.000772094
0.00114393
0.00109341
0.000998754
0.00101495
0.000988361
0.000864494
0.000741449
0.000429716
0.000308098
0.000140466
0.000477694
0.000810514
0.00117827
0.00197342
0.000140463
8.71237e-05
0.0001043
0.000312177
0.000308559
0.000477734
0.000437176
0.000458884
0.00037759
0.000422308
0.000386774
0.00020946
0.000233807
0.000276628
2.68309e-05
0.00026393
0.000195701
0.000237353
0.00056018
0.000498593
0.00183111
6.33647e-05
0.00244123
0.00393398
0.00517583
0.00612483
0.00685394
0.00712077
0.00727155
0.00697398
0.00674596
0.00606087
0.00574504
0.00453957
0.00359133
0.00202993
0.000167988
0.00200842
0.00442183
0.00688619
0.00153942
0.000312775
0.00205084
0.00367127
0.00473484
0.00574
0.00621235
0.00634471
0.00663159
0.00667404
0.00622087
0.00567546
0.00514924
0.00426532
0.00355129
0.00202868
0.000483878
0.00159278
0.00344996
0.00555079
0.00123271
0.000214728
0.00202936
0.00292771
0.00430957
0.00518002
0.00537699
0.005685
0.00557391
0.00572841
0.00540206
0.00504813
0.00464682
0.00406949
0.00307406
0.0019881
0.000635131
0.000907534
0.00275935
0.00446347
0.000813464
0.000190958
0.00180445
0.00276423
0.0034065
0.00411321
0.00482495
0.00487445
0.00500359
0.00489909
0.00458669
0.00434731
0.00407309
0.00337344
0.00290282
0.00173718
0.000772043
0.000883933
0.00239552
0.00373038
0.000322919
0.000166552
0.00146454
0.00210138
0.00297929
0.00344586
0.00371323
0.00407626
0.00405924
0.00412755
0.00397205
0.00353753
0.00317239
0.00269415
0.00232523
0.00136566
0.000266312
0.000636374
0.00187202
0.00278463
0.000179156
0.000403071
0.000994248
0.00160912
0.00214583
0.00232193
0.00268734
0.00299113
0.00287127
0.00283016
0.0027546
0.00278759
0.00253259
0.00203445
0.00182278
0.000899805
0.000593994
0.000432524
0.0010987
0.00193395
7.71736e-05
0.000154133
0.000599191
0.00105641
0.00127503
0.00152795
0.00175009
0.00190999
0.00174648
0.00185574
0.00194102
0.00136031
0.00150746
0.0013381
0.00113615
0.000533057
0.000332755
3.63485e-05
0.0009296
0.000949856
0.00020065
5.64638e-05
0.000344155
0.00027817
0.000427786
0.000562766
0.000673519
0.000635264
0.00055358
0.000705049
0.000559718
0.000603523
0.000343297
0.000547367
0.000304506
9.41927e-05
0.000108851
4.71833e-05
2.93014e-05
0.000402031
0.0002741
0.00165644
0.00412992
0.00584726
0.00726517
0.00852043
0.0090553
0.00973108
0.009791
0.00966497
0.00920586
0.00894653
0.00812898
0.00729539
0.00583032
0.00435325
0.00240972
0.000219751
0.00231191
0.00480603
0.000165347
0.00170348
0.00363313
0.0054977
0.00678784
0.00782036
0.00828489
0.00871177
0.00899986
0.00876335
0.00858109
0.00789359
0.00738721
0.00674455
0.00555354
0.00397309
0.00241344
0.00023061
0.00199862
0.00396408
7.02552e-05
0.00160777
0.00327319
0.0047338
0.00579912
0.0065542
0.00719626
0.00760752
0.00771802
0.00774151
0.00756059
0.00724609
0.00652188
0.00577902
0.00500383
0.00377319
0.00218533
0.000598008
0.00150998
0.00314419
9.93194e-05
0.00169624
0.00288219
0.00407859
0.00509051
0.00571648
0.00601684
0.00646122
0.00662084
0.00641406
0.00624675
0.00611904
0.00557571
0.00511449
0.00412542
0.00315318
0.00188691
0.000431107
0.00120708
0.00237686
4.387e-05
0.00143361
0.0022594
0.00309606
0.00397569
0.0046732
0.00490569
0.00520079
0.00533505
0.0053297
0.00514415
0.00482665
0.00446866
0.00402805
0.00340089
0.00283517
0.00175226
0.000340314
0.000739433
0.00188311
5.32934e-05
0.000874866
0.00169833
0.00257425
0.00303159
0.00326293
0.00361614
0.00407836
0.00380877
0.00369191
0.00366783
0.00373262
0.00320517
0.00277428
0.00266415
0.00191023
0.00106591
0.000305898
0.000687984
0.00127317
1.62165e-05
0.000682966
0.00118019
0.00139441
0.00190133
0.00230356
0.00225802
0.00251119
0.00248188
0.00249005
0.00227352
0.0021746
0.0021253
0.00204902
0.00147055
0.00116414
0.000789485
0.000210774
0.000283158
0.000952185
0.000199546
0.000207998
0.000275856
0.000638613
0.000639989
0.000768003
0.000910367
0.000843548
0.000916457
0.000879346
0.000867701
0.000675574
0.00090532
0.000680705
0.000523747
0.000336241
0.000284518
0.000217066
0.000146805
0.000305719
0.000721006
0.00283934
0.00525526
0.00737095
0.00896125
0.0100031
0.0109864
0.0115005
0.0116576
0.0114745
0.0111537
0.0109334
0.0100715
0.00921444
0.00772604
0.0061279
0.0040261
0.0017633
0.00116666
0.0036986
0.000922439
0.00274713
0.00474871
0.0066427
0.00808312
0.00922362
0.00989982
0.0102622
0.0104711
0.0106008
0.010274
0.00978046
0.00918439
0.00828156
0.00706476
0.00562974
0.00391668
0.00156719
0.000829985
0.00301637
0.000780626
0.00239637
0.00425195
0.00589195
0.0070747
0.00795084
0.00862726
0.00912271
0.00929023
0.00922133
0.00913053
0.00856942
0.00814624
0.00722613
0.0062524
0.0048695
0.00364874
0.00150608
0.000459023
0.00218044
0.000972225
0.0020307
0.00358449
0.00491724
0.00582977
0.00678702
0.00731341
0.00763113
0.00779878
0.00768761
0.00762436
0.0071053
0.00691481
0.00627854
0.00545108
0.00419464
0.00288218
0.00137502
0.000422299
0.001858
0.000599971
0.00173206
0.002693
0.00388925
0.00469773
0.00523714
0.00563982
0.00606575
0.006423
0.00628024
0.00604515
0.00554636
0.00544109
0.00489053
0.0043482
0.00328681
0.00226713
0.00137771
0.000128751
0.00133648
0.000549574
0.0011629
0.00199809
0.00306858
0.00356248
0.00386654
0.00423993
0.00457836
0.00463973
0.00442169
0.00462318
0.00428805
0.00401451
0.0035903
0.00309144
0.00257979
0.0018095
0.000664519
4.44597e-05
0.000852108
0.000397081
0.000876897
0.00127559
0.00177532
0.00195754
0.00252237
0.00279967
0.00271398
0.00293287
0.00271498
0.00271335
0.00266824
0.00260072
0.00228704
0.00187145
0.00151852
0.00107588
0.000431269
0.000148935
0.000659588
0.000195836
0.000327816
0.000613893
0.00058407
0.000573689
0.00080843
0.000860434
0.000986285
0.000985446
0.000686461
0.00105359
0.00095834
0.000920234
0.000592741
0.000882805
0.000555471
0.000414405
0.000319514
0.000113108
4.75429e-05
0.00079162
0.00317862
0.00575763
0.00794021
0.00946514
0.0109445
0.0119495
0.0126048
0.0126316
0.0128871
0.0126839
0.0122659
0.01155
0.0101064
0.00879264
0.00721053
0.0046151
0.00242161
0.000507731
0.00330608
0.00111081
0.00283537
0.00527334
0.00696258
0.00862735
0.00987759
0.0109067
0.0114365
0.0114982
0.0115333
0.0113663
0.0109619
0.0102434
0.00920947
0.00806032
0.00631378
0.00452169
0.00215744
0.000281304
0.00239305
0.000765039
0.00267359
0.00469031
0.00622143
0.00768843
0.00857563
0.00949543
0.00998313
0.0101476
0.0101586
0.00987712
0.00959045
0.00875581
0.00813596
0.00698598
0.00584696
0.00399976
0.00191676
1.0985e-05
0.00218199
0.000829398
0.00228639
0.00370792
0.00528772
0.00638432
0.0074319
0.00791193
0.00855173
0.00866888
0.0085377
0.00837129
0.00810117
0.0075977
0.00667461
0.0059939
0.00469468
0.00349071
0.00190886
0.000153106
0.00151138
0.000795142
0.00199329
0.0034249
0.00426356
0.00533389
0.00598584
0.00642152
0.00662907
0.00689673
0.00678716
0.0069138
0.00659627
0.00629157
0.00570681
0.0045653
0.00374867
0.00277139
0.00163247
0.000148775
0.001043
0.000679457
0.00138213
0.00210304
0.00300929
0.0038704
0.00439211
0.00458944
0.00492478
0.00508384
0.00496183
0.00514227
0.00479093
0.00459603
0.00409919
0.00361436
0.00293979
0.00221556
0.00112194
1.46254e-05
0.000626527
0.000544599
0.0012672
0.00153365
0.00169992
0.00224185
0.00266306
0.00297567
0.003208
0.00298061
0.00304172
0.00305436
0.00296473
0.00261798
0.00247487
0.00243909
0.00196252
0.00108257
0.000543081
8.43429e-05
0.000580534
0.000243174
0.000311663
0.000291721
0.000658041
0.000866815
0.00111039
0.00115283
0.00102149
0.00122358
0.00114967
0.00102187
0.00108567
0.000993233
0.000921918
0.000750264
0.000635764
0.000516337
0.000405162
0.000106633
0.000425733
0.000316158
0.00290146
0.00537566
0.00773623
0.00961226
0.011318
0.012225
0.0131075
0.0133043
0.0134337
0.0132495
0.012652
0.011689
0.0105129
0.00894071
0.00736503
0.00487983
0.00200928
0.00070741
0.00350582
0.000265381
0.00257807
0.00500645
0.0071034
0.00861976
0.0101367
0.0110411
0.0118231
0.0118756
0.0120851
0.0117534
0.0112196
0.010843
0.00935329
0.00825937
0.00646022
0.00445076
0.00201424
0.00041521
0.00276286
0.000602473
0.00219641
0.00435232
0.0060082
0.00752874
0.00894034
0.0095082
0.0102657
0.0104233
0.0104
0.0103277
0.00981089
0.00953835
0.00836027
0.00743967
0.00573841
0.00394803
0.00204311
0.00034727
0.00205126
0.000545158
0.00211441
0.00387141
0.00518434
0.00645148
0.00751264
0.00826966
0.00872427
0.0088567
0.00888279
0.00874238
0.00847629
0.00783095
0.00716571
0.00616999
0.00510525
0.0034546
0.00186453
0.000107253
0.00164887
0.000466987
0.0016283
0.0028585
0.00417402
0.00518961
0.00598721
0.0065765
0.00700915
0.00705245
0.00707408
0.0070588
0.00692742
0.00647074
0.00565225
0.00491267
0.0039339
0.00284252
0.00161042
3.16497e-05
0.00141747
0.0003789
0.00116457
0.00240509
0.00314452
0.00373236
0.00420573
0.00478905
0.00495085
0.0052911
0.00515322
0.00524488
0.00499216
0.00476836
0.00426558
0.00360172
0.0028747
0.00220477
0.00102298
0.000163653
0.00083577
0.000239163
0.000633508
0.00129688
0.00162326
0.00238644
0.0027781
0.00287695
0.00314731
0.00333238
0.003232
0.00332821
0.00316801
0.0030128
0.002635
0.00226161
0.00176057
0.0014096
0.00082577
0.000252971
0.000551
0.000174844
0.000280674
0.000365775
0.000769196
0.000776056
0.000936205
0.00108559
0.00109096
0.00114816
0.00129506
0.00123015
0.000745914
0.000974244
0.000809431
0.000812809
0.000616965
0.000316046
0.000154842
0.00010451
4.26444e-05
0.00106425
0.00163665
0.00442722
0.00704851
0.00890438
0.0104884
0.0118807
0.012491
0.0130309
0.0132373
0.0129709
0.0122458
0.0114263
0.0101808
0.00865729
0.0066994
0.00418994
0.00134622
0.00162135
0.00469431
0.000734458
0.00140491
0.00399039
0.00607677
0.00770205
0.00956879
0.0106061
0.0111341
0.0116459
0.0118844
0.0116833
0.0111568
0.0102807
0.00912966
0.00775404
0.00610817
0.00374176
0.00140243
0.00115069
0.00358712
0.000468016
0.00147334
0.00353452
0.00536526
0.00720151
0.00832088
0.00917047
0.00989703
0.0102327
0.0103255
0.0101962
0.00965843
0.0090251
0.00802155
0.00682202
0.00538164
0.00352672
0.00143917
0.000786305
0.00279158
0.000239729
0.00125864
0.00300703
0.00463258
0.00597244
0.0070991
0.00791476
0.00813485
0.00862629
0.00869759
0.0086593
0.00839845
0.00760893
0.00706103
0.00588874
0.00438973
0.00312649
0.00131876
0.000623104
0.00243421
0.000206371
0.00106813
0.00252717
0.00364572
0.00483663
0.00569671
0.00644726
0.00655441
0.00700204
0.00698036
0.00688441
0.00655503
0.00604142
0.00560774
0.00464667
0.00355879
0.00239614
0.00104893
0.000367168
0.00154377
2.98622e-05
0.00065111
0.00202976
0.00296169
0.00338617
0.00391824
0.00472343
0.00492361
0.00532977
0.00504655
0.00513804
0.00489892
0.00445247
0.00421487
0.00348415
0.00273495
0.0017866
0.000994676
0.000373832
0.00136363
2.08816e-05
0.000457798
0.000965681
0.00161078
0.00228007
0.00267757
0.00284365
0.00284564
0.00324241
0.00303022
0.00300622
0.00307251
0.00273143
0.00261924
0.00220575
0.00150682
0.00123696
0.000370617
0.000276821
0.00076313
1.61019e-05
0.000194874
0.000374983
0.000703492
0.000497468
0.000739477
0.00082208
0.00125952
0.00119818
0.00111835
0.00115267
0.000958564
0.000992137
0.000766572
0.000587187
0.000555446
0.00051137
9.66109e-05
0.000137382
0.000339226
0.00323892
0.000559638
0.00262499
0.0050792
0.00751394
0.00902879
0.0105672
0.011402
0.0118449
0.0119173
0.0118574
0.0114927
0.0103413
0.00890505
0.00730414
0.00526539
0.00264541
7.29505e-05
0.00318655
0.00629562
0.00241772
0.000248165
0.00238044
0.00471939
0.00666031
0.00803966
0.00937649
0.0105665
0.0107446
0.011038
0.0106981
0.0100453
0.00919165
0.00815975
0.00680207
0.00464311
0.00246552
0.00011748
0.00297809
0.00542257
0.00197893
2.64862e-05
0.00223645
0.00413388
0.00589233
0.00722682
0.00831376
0.00897618
0.00937476
0.00934425
0.00949178
0.00878187
0.00837385
0.0069822
0.00593474
0.00430092
0.00237522
0.000259103
0.00236978
0.00434966
0.00162247
4.29207e-05
0.00192802
0.00376668
0.00511254
0.00581815
0.00716185
0.00770881
0.0078463
0.00797289
0.00779918
0.00750418
0.00707553
0.00605643
0.00511482
0.00368857
0.00210051
0.000201152
0.00179
0.00360137
0.00124139
1.08079e-06
0.00158378
0.00293209
0.00416179
0.00499332
0.00574157
0.00623543
0.00646715
0.00657455
0.00642665
0.00616879
0.00570469
0.00499819
0.00395238
0.00296625
0.0017729
0.000259004
0.00120824
0.00281611
0.000941398
0.000105412
0.00113381
0.00233438
0.00300455
0.0037119
0.00411495
0.00440427
0.00472608
0.00460565
0.00454923
0.00456658
0.00404729
0.00352263
0.00296597
0.00243894
0.00137246
0.000281484
0.000964201
0.00189857
0.000554358
5.04065e-05
0.000322432
0.00127736
0.00184474
0.00215101
0.00253318
0.00283197
0.00281906
0.00298038
0.00288162
0.00270813
0.00259795
0.0022458
0.00208366
0.00128937
0.000614061
0.000446487
0.000478561
0.000973172
0.000128845
8.4829e-05
0.000357349
0.000387197
0.000607257
0.000735869
0.000792032
0.000836419
0.0010211
0.000876975
0.000932016
0.000963846
0.00092687
0.000781372
0.000701232
0.000562441
8.19703e-05
5.45962e-05
0.000354166
0.000193796
0.00590793
0.00286908
4.84362e-05
0.00275582
0.0051189
0.00681774
0.00834347
0.0094382
0.0099278
0.010104
0.0100407
0.00947006
0.00839953
0.00689058
0.00538514
0.00295234
0.000348998
0.00257982
0.0057411
0.00881115
0.00495824
0.00262037
6.89174e-05
0.0023131
0.00454155
0.00609652
0.00755894
0.00845564
0.00923776
0.00898815
0.00881676
0.00864721
0.00754643
0.00639275
0.00480675
0.00303527
0.000675752
0.00198789
0.00508765
0.00749628
0.00426673
0.00221066
0.000203643
0.00225143
0.00395658
0.00552355
0.00654542
0.00752651
0.00792602
0.00794541
0.00772606
0.00767029
0.00703861
0.00575762
0.00443893
0.00281053
0.000767842
0.0015226
0.00403566
0.00628251
0.00325022
0.00175796
0.00021888
0.00179138
0.0033811
0.00485684
0.00575363
0.00623772
0.00678307
0.00694498
0.00666806
0.00638669
0.00577178
0.00479497
0.0036197
0.00227089
0.000592881
0.00133846
0.00328602
0.00481754
0.00270704
0.00139169
0.00023895
0.00151078
0.00287706
0.00390477
0.00463246
0.00496937
0.00527527
0.00544219
0.00522578
0.00498331
0.00477336
0.00409333
0.00311053
0.00191443
0.000438184
0.00113621
0.00255969
0.00403456
0.00177467
0.000835158
3.15239e-05
0.00112324
0.00216424
0.00285921
0.00328473
0.00378768
0.0039492
0.00402179
0.00389233
0.00359405
0.00342035
0.00297555
0.00219838
0.00132854
0.000519597
0.000704887
0.00161423
0.00295367
0.00128337
0.000809047
0.000294882
0.000734945
0.00125965
0.00166834
0.00193921
0.00223743
0.00249514
0.00242926
0.0023078
0.0022106
0.00218035
0.00173988
0.00124241
0.000958965
0.000480445
0.000416209
0.00110894
0.00167979
0.00062486
0.000275284
9.62864e-05
0.00037087
0.000503614
0.000752065
0.000466328
0.000838022
0.000857706
0.000720253
0.000865496
0.000809611
0.000726787
0.000708532
0.000498537
0.000303271
0.000157135
9.63252e-05
0.00041951
0.000466802
0.00965726
0.00650791
0.00348293
0.000555743
0.00192825
0.00393403
0.00552039
0.00639612
0.00683265
0.00722897
0.00729442
0.00659628
0.00552264
0.00420798
0.00240425
0.000189163
0.00269528
0.00564596
0.00907249
0.0123448
0.00823049
0.00580137
0.00282829
0.000353786
0.00194629
0.00360653
0.00508512
0.00581954
0.00632908
0.0067754
0.00651026
0.0059604
0.00489046
0.00384311
0.00245211
0.000302869
0.00212276
0.00485811
0.00776264
0.0106235
0.00699471
0.00496258
0.00229678
0.000227054
0.00148684
0.00304697
0.0044726
0.00526079
0.00571946
0.00599967
0.00583026
0.0052481
0.00447737
0.0033671
0.00217459
0.000543652
0.00158826
0.00414289
0.0064743
0.00880198
0.0057814
0.00403764
0.00209627
2.08644e-05
0.00137139
0.00266377
0.00382727
0.00441632
0.00486
0.0050437
0.00500486
0.00432858
0.00391728
0.00299185
0.0018832
0.00037218
0.001404
0.00333818
0.00551169
0.00733279
0.00439994
0.0031695
0.00157016
0.000180078
0.00119597
0.00229506
0.00314875
0.00359896
0.00408167
0.00429672
0.00395057
0.00390109
0.00341105
0.00261601
0.00151222
0.000193312
0.00110626
0.00254221
0.00423261
0.0057946
0.0032766
0.00231819
0.00115423
5.35702e-05
0.000801094
0.00176484
0.00217243
0.0026194
0.00307123
0.00301225
0.0028327
0.0026508
0.00236843
0.00191581
0.00125417
0.000140141
0.000705553
0.00183591
0.00313776
0.00404803
0.00183835
0.00128937
0.000709716
0.000123112
0.000648756
0.00106369
0.00143428
0.00164158
0.00172884
0.00193176
0.00180627
0.00183256
0.0014061
0.0011742
0.000777833
2.50554e-05
0.000570135
0.00127535
0.00177663
0.00249658
0.00070641
0.00046649
0.000303909
0.000121726
0.000260413
0.000478008
0.00071892
0.000701415
0.000584867
0.000433613
0.000761458
0.000556455
0.000489337
0.000343963
0.000223149
0.000263453
0.000204426
0.000593237
0.000613454
0.000823314
0.0139675
0.0108508
0.00767912
0.00472852
0.00204359
5.47401e-05
0.00153805
0.00265873
0.0036028
0.00364219
0.00359528
0.00303443
0.00176386
0.000373779
0.0015124
0.00374253
0.00654896
0.0096082
0.0130967
0.016243
0.0122333
0.00955571
0.00672077
0.00399708
0.00180287
0.000382675
0.0016289
0.00247708
0.00322979
0.00332424
0.00335361
0.00269493
0.00182262
0.000761273
0.0011487
0.00300398
0.00562186
0.00845023
0.0111562
0.0141407
0.0103339
0.00822208
0.00567624
0.00339643
0.0013885
0.00034438
0.00152553
0.00231523
0.00302419
0.00306557
0.00294886
0.00259443
0.00177725
0.000709595
0.000772418
0.00275062
0.00468251
0.00712799
0.00972198
0.0118354
0.00855188
0.00680219
0.00461166
0.00280788
0.00119623
0.000456859
0.00142208
0.00215817
0.00256203
0.00250549
0.00269542
0.00234433
0.0017793
0.000536019
0.000484144
0.00183697
0.00383259
0.00595241
0.0078987
0.00959513
0.0066008
0.00523654
0.00384804
0.00208365
0.000920452
0.000194355
0.00116634
0.00162265
0.00209809
0.00223661
0.00225948
0.00196063
0.00140317
0.000614465
0.000190298
0.00175081
0.0030143
0.00451777
0.00639347
0.00788865
0.00473452
0.0038215
0.00279534
0.00161163
0.000353707
3.13081e-05
0.000785674
0.00120769
0.00169357
0.00162958
0.00169443
0.001262
0.00108402
0.000592269
0.000174996
0.00114745
0.00224351
0.0033008
0.00461051
0.00582218
0.00324044
0.00229638
0.0016647
0.000862928
0.000344324
0.00035636
0.000571742
0.000588239
0.00104643
0.00111177
0.00105835
0.000794794
0.000535477
0.000533273
8.02427e-05
0.000877354
0.00128647
0.00220907
0.00298749
0.00347969
0.00128055
0.000969438
0.000618587
0.000323322
0.000291506
1.98362e-05
0.000222321
0.000365565
0.000325501
0.00027124
0.000427765
0.000282426
0.000253116
0.000196805
8.30536e-05
0.000332569
0.000419538
0.00081838
0.00101891
0.00114587
0.0191201
0.015934
0.0125047
0.00950964
0.00671561
0.0045377
0.00311202
0.0015722
0.000918028
0.000767125
0.000867946
0.00145554
0.00236753
0.00398644
0.00575842
0.00818655
0.0110209
0.0141272
0.017923
0.0212756
0.0165068
0.0139267
0.0111206
0.00808773
0.00601967
0.00386687
0.00263431
0.00150513
0.000685469
0.000459421
0.000653622
0.00104612
0.00190478
0.00330374
0.00498095
0.00693269
0.00958484
0.0125743
0.0156338
0.0184888
0.0141694
0.0121685
0.00938817
0.00719089
0.0050852
0.0033627
0.0021657
0.00105608
0.000615808
0.000422878
0.000434337
0.000884872
0.00152681
0.00272082
0.00423378
0.00590452
0.00807455
0.0107944
0.0132983
0.0157491
0.0118154
0.0100335
0.00781699
0.00588098
0.00430012
0.00261848
0.00163009
0.000899983
0.00045315
0.000133565
0.000234352
0.000758315
0.00112291
0.00227491
0.00333616
0.004982
0.00690227
0.00897925
0.0109065
0.0130048
0.00924755
0.00791153
0.00639669
0.00458056
0.00329932
0.00214533
0.00120698
0.000741011
0.000229348
0.000178901
5.6959e-05
0.00033429
0.00101883
0.00172779
0.0026877
0.00381778
0.00543239
0.00683848
0.00891192
0.0105061
0.0069012
0.00575109
0.00458525
0.00358389
0.0023645
0.00167791
0.00110008
0.000522024
0.000249542
8.18446e-05
8.18498e-05
6.51009e-05
0.000596152
0.00152285
0.0018666
0.00274496
0.00396523
0.00521693
0.0065815
0.00754876
0.00422711
0.00357377
0.00272235
0.00200948
0.00161059
0.00095605
0.000614989
0.00032746
4.26785e-05
8.83767e-05
0.000117744
0.000209937
0.000391756
0.000800078
0.00115459
0.00168655
0.00235312
0.00311261
0.00394528
0.00441635
0.00140777
0.00152682
0.000942588
0.000473519
0.00054098
0.000227806
0.000117028
8.91867e-05
5.38703e-05
1.22919e-05
0.00018906
0.000144248
0.000270618
0.000273964
0.000466573
0.000695259
0.000880143
0.00111352
0.00145921
0.00157006
0.0248293
0.0215001
0.0181959
0.0150849
0.0120653
0.0101281
0.00812306
0.00718777
0.00610768
0.00595625
0.0058938
0.00647618
0.00758616
0.00907568
0.0109831
0.0134535
0.01632
0.0196985
0.0233916
0.02667
0.0216998
0.0188306
0.015955
0.0132826
0.0107822
0.00908322
0.00718623
0.00610737
0.00526697
0.00501308
0.0052628
0.00566578
0.00644665
0.00796663
0.00973587
0.0117503
0.0142307
0.0173299
0.0204855
0.02322
0.0188972
0.016513
0.0139734
0.0113527
0.00915939
0.00756053
0.00609331
0.00517986
0.00454685
0.00423067
0.00434551
0.00472793
0.00552514
0.00676849
0.00821164
0.0101482
0.0123467
0.0149286
0.0177697
0.019968
0.0157777
0.0137357
0.0115823
0.00942058
0.00791211
0.00627857
0.00517013
0.00423978
0.00371935
0.00347975
0.00372382
0.00402724
0.00467347
0.00555041
0.00670142
0.00845266
0.0104235
0.0124299
0.0148759
0.0168298
0.0123137
0.0109713
0.0092167
0.00771405
0.00621947
0.00490811
0.00418221
0.00354525
0.00295365
0.0028194
0.00283729
0.00292374
0.00372806
0.00455255
0.00551529
0.00675444
0.00817283
0.00983041
0.0118279
0.0133097
0.00919685
0.00801356
0.00673487
0.00550005
0.00454931
0.00380296
0.00286695
0.00213341
0.00205883
0.00174284
0.00203138
0.0021833
0.00266819
0.00326312
0.00403542
0.00483509
0.00611168
0.00721051
0.00864663
0.00953924
0.00562763
0.00498866
0.00429461
0.00323555
0.00282348
0.00216091
0.00180145
0.00158233
0.0011671
0.00123273
0.00128082
0.00136875
0.00144687
0.00193293
0.00237527
0.00302533
0.00363342
0.00424884
0.00535912
0.00600461
0.00183614
0.00178923
0.00141831
0.00120084
0.00116731
0.000681348
0.000612252
0.000460592
0.000411529
0.000517689
0.000547028
0.000468689
0.000820675
0.000723215
0.000952516
0.000807174
0.00139506
0.00161083
0.0017674
0.00202158
0.0311609
0.0280923
0.0244512
0.0210178
0.0185562
0.0159597
0.0141205
0.0128961
0.0121787
0.0117503
0.0120572
0.0124116
0.0134888
0.0150178
0.0171003
0.0195104
0.0223146
0.0257383
0.0293604
0.0326782
0.0275002
0.0247614
0.0217259
0.0188848
0.0162442
0.0141226
0.0124116
0.0113294
0.0106963
0.0103203
0.0104221
0.0110583
0.0117765
0.0130434
0.0149165
0.0170691
0.0198934
0.0228339
0.0258942
0.0287522
0.0238062
0.0212158
0.0187373
0.016232
0.0140372
0.0122406
0.0108261
0.00964823
0.00932214
0.0086805
0.00882213
0.00936429
0.0101015
0.0112304
0.0128884
0.0148107
0.0169181
0.0196193
0.0223219
0.0248337
0.0200254
0.018098
0.0156217
0.013465
0.0116064
0.010217
0.00896314
0.00794503
0.00753176
0.00734885
0.00753482
0.00779568
0.00843092
0.00942138
0.0107345