/*--------------------------------*- C++ -*----------------------------------*\
| =========                 |                                                 |
| \\      /  F ield         | OpenFOAM: The Open Source CFD Toolbox           |
|  \\    /   O peration     | Version:  2212                                  |
|   \\  /    A nd           | Website:  www.openfoam.com                      |
|    \\/     M anipulation  |                                                 |
\*---------------------------------------------------------------------------*/
FoamFile
{
    version     2.0;
    format      ascii;
    arch        "LSB;label=32;scalar=64";
    class       volScalarField;
    location    "./ITHACAoutput/true/10.5";
    object      error;
}
// * * * * * * * * * * * * * * * * * * * * * * * * * * * * * * * * * * * * * //

dimensions      [0 0 0 1 0 0 0];

internalField   nonuniform List<scalar> 
3200
(
6.13565
6.56641
4.24964
4.90041
5.63554
5.31574
3.4176
5.77924
5.87799
9.36806
8.23908
5.7824
7.33653
5.07994
6.65687
4.92321
5.44916
5.28589
4.07246
5.8892
2.99157
1.6599
3.00732
6.29533
1.96892
2.83125
4.70278
5.69096
7.60879
8.14138
5.89365
6.82601
7.20639
8.02317
5.08014
5.70519
6.14206
2.53145
4.72651
2.29637
4.41868
3.44555
2.07223
4.1248
3.21793
3.83581
4.70806
3.40895
7.1441
4.52135
2.62367
4.65992
4.46988
3.7851
5.42332
3.80587
3.17763
3.00559
2.38303
2.92117
2.62316
2.73129
2.05541
2.31338
2.1988
1.72057
2.01092
4.38525
5.84824
4.94303
4.38459
5.02917
3.61508
3.33443
6.57055
4.61719
1.56733
2.78893
1.28321
-0.167652
4.05551
2.09143
1.49188
-1.38183
3.45461
0.824116
1.13178
2.62362
2.87799
4.04133
1.15894
4.47923
3.06583
2.99555
5.14739
4.71281
4.69832
2.22923
1.46349
1.24177
2.25937
0.664985
2.0196
3.79962
3.35297
3.14337
-0.179388
2.30491
1.98389
3.72635
0.765396
3.30449
3.29708
1.2193
2.75968
3.13718
3.79434
2.64093
4.85527
0.612006
1.99633
2.30128
2.27968
2.82155
0.882245
3.10159
0.8766
-0.442766
1.8399
1.47155
1.43779
0.900313
0.858637
1.23103
0.798197
-0.921856
1.42064
-1.07759
2.59802
1.64885
1.67773
-0.295079
-0.494196
1.10446
0.856361
0.0489143
0.391307
1.86801
0.760323
-0.045042
1.05147
2.34619
1.63626
-0.097641
0.266748
-0.305931
0.390759
-1.58682
1.16815
1.28469
4.04207
3.67597
5.16715
5.94485
4.50879
7.24114
4.63314
5.46125
6.41006
7.3318
5.55618
4.36075
3.7468
4.23471
6.33003
5.44716
3.82026
3.4961
4.41874
4.15518
3.62101
-0.136044
2.54194
0.42084
2.61977
0.183348
2.46698
0.392512
5.85631
-0.00538313
0.149138
6.39127
-0.111958
4.88057
0.141929
3.59853
0.348495
3.90822
0.0782463
4.67028
3.29718
3.97498
-0.165851
0.516636
2.92787
4.53156
2.59035
4.59865
2.66681
5.92247
6.38507
3.03062
4.61819
3.97552
4.32328
1.13016
1.91458
1.72989
2.81511
3.3147
0.959579
1.79099
5.03103
-0.46112
-0.146695
1.73913
4.54329
1.53833
3.29981
3.37662
1.15969
1.33122
5.15959
1.51762
4.81751
3.63224
0.710341
2.24905
2.25275
2.56287
2.21367
2.94497
3.06001
1.37575
2.12814
2.0846
2.31294
2.54672
1.63717
2.04097
2.08262
2.31643
0.57672
0.219397
0.0572521
2.42971
2.35793
-0.314224
1.95797
0.0332702
0.138114
1.64827
0.58084
4.49637
2.96041
2.66864
1.34066
4.25135
0.432088
-0.520171
2.41632
-0.107776
2.37542
0.0750093
3.67868
0.140515
0.981482
1.11131
-0.402878
3.58983
-0.244716
0.930307
0.714188
-0.203085
1.05019
3.82241
0.59299
-0.365399
0.644363
1.69069
0.772762
1.22811
2.50865
-2.03742
-0.0602116
0.388305
0.619623
1.67988
-1.43355
3.69258
-0.0891591
1.15067
-0.113255
-1.20852
0.962547
2.61478
-0.872144
1.47304
1.25189
3.65466
0.605218
-1.21043
0.402701
0.136933
0.82301
-0.736841
2.36549
1.45941
0.529388
0.254375
2.42123
2.33721
1.26709
4.73399
4.6238
2.00699
5.36784
3.69842
5.38126
6.71051
4.10912
5.52641
6.70414
2.47591
3.30121
2.93493
3.42782
3.68982
4.51463
0.0673219
3.15669
2.66572
2.23399
4.06403
2.97723
3.53851
3.53263
2.81206
1.57007
3.56276
4.06021
4.00129
3.58753
3.39643
1.96192
2.22288
2.36707
3.00987
1.1398
1.33689
1.54084
1.6905
2.30922
2.16397
1.71753
2.16565
4.57007
4.11143
2.32672
4.74664
2.44612
2.37965
1.98696
3.36076
5.43892
1.143
1.46599
3.96262
2.8371
-1.31401
-0.671003
2.28515
2.61476
1.32447
2.91899
1.13808
3.99567
0.926298
0.916349
3.10478
0.976762
3.55728
2.67462
4.47381
-0.159999
2.501
-0.150592
2.21906
1.44785
2.8133
2.59417
1.38585
0.0260105
-1.51463
1.1284
3.50312
3.35479
1.5378
1.13109
2.45237
1.90171
-0.000567053
1.40941
1.78496
3.25874
3.30121
2.65503
-0.393287
3.11016
1.36295
-1.01087
0.198558
1.68548
0.167138
-0.516863
1.9227
1.73683
2.70804
2.05222
2.59552
2.12484
3.55992
-0.671248
1.17091
2.28105
2.25967
1.86638
1.69078
-0.916511
1.5103
1.44933
2.0758
0.715142
-0.485149
-0.586479
2.02093
-0.395136
0.596331
1.20931
-0.349079
1.76276
2.06334
-1.05054
1.46527
2.94012
0.368904
0.35573
-0.572585
0.347023
-0.420826
0.0602312
0.683508
1.74025
0.00822629
1.24358
-0.412709
-0.404375
1.11948
-0.591909
-3.04262
0.227528
0.0670234
-0.649341
-0.100681
2.36905
0.309878
1.58909
1.21425
0.931394
0.646705
-1.31944
0.697659
3.1236
-1.65443
1.96999
5.44289
-0.916311
1.44492
3.33349
2.91798
2.79964
3.46603
-0.0811225
1.69867
1.75124
2.54141
3.92954
1.89403
4.8844
0.40934
3.08166
0.1643
-0.228835
-0.605022
2.54084
-0.492702
0.00511553
-0.164358
1.60405
0.280339
0.517416
2.72591
-0.244321
2.84349
-0.202465
1.06079
0.283457
2.29624
0.489466
3.2994
0.20887
2.29045
-0.216208
1.74076
1.59361
2.96266
2.90561
2.07357
4.41056
3.53116
2.80412
1.84009
0.965762
3.85201
3.50645
3.17149
2.48187
2.57441
0.58353
1.98868
1.40193
2.36642
-0.217783
-0.559694
0.154081
3.78005
-1.07799
3.55195
0.617177
2.14943
2.66758
2.59722
2.73415
1.11881
2.09266
-0.566077
2.70616
1.48436
1.60354
-0.407388
-1.39073
1.19841
0.410979
2.92014
1.28654
1.13257
0.782983
-0.0954201
0.0370381
0.503677
0.514152
3.25224
-0.214005
3.68836
2.89152
1.88226
0.916608
1.91024
0.66978
1.24132
0.0079177
-0.234406
0.610914
-1.18179
0.936576
-0.146745
-0.856782
-0.598245
-0.74379
0.459432
-0.457505
1.76711
1.06955
1.75008
-0.4015
-0.62328
1.57562
-0.867865
2.85358
1.11263
0.0793602
0.96845
0.0352268
0.755993
-0.703419
1.87983
-0.1582
-0.537697
-0.968707
0.79546
3.18096
0.267136
-0.54847
1.90516
1.03941
-0.327727
0.637745
1.76735
1.21108
1.87591
0.422371
-0.127648
0.673096
0.0963126
0.689545
2.24336
0.260813
-0.267516
0.350676
0.939333
0.0231778
-2.76378
-0.111114
-0.517317
-0.558955
-0.170661
-0.158449
-0.503057
1.48596
-0.0473953
0.756443
1.00937
1.21953
2.35722
0.179717
1.49301
-0.135763
3.224
2.53626
0.146164
0.686034
3.11418
1.10104
0.792329
1.19424
0.874585
3.03914
-1.97157
-0.742127
0.966482
0.969425
-0.866818
0.917245
0.886515
1.04939
0.419003
0.492808
2.14654
3.07878
1.37515
2.77406
1.68683
2.00539
4.60235
0.0721552
0.133555
1.15598
-0.859165
0.379912
-2.26106
3.39833
1.62105
-0.653177
2.05245
-0.709511
0.415716
0.784894
0.397388
0.827918
1.42744
0.374594
2.82636
1.12375
2.23248
3.11171
0.00145867
2.36669
-0.0652856
3.17224
0.0522133
-0.934481
0.672433
0.615761
1.18155
0.570798
3.66434
0.828548
4.19658
0.436267
2.66135
-1.89647
-1.41223
-0.341313
1.06808
2.19137
-0.591262
3.00423
0.518175
0.15375
1.6283
-0.20114
-0.123158
1.43394
-0.192707
0.570145
0.387052
-1.5
-0.228965
0.398617
0.280181
-0.491006
1.09982
-0.758805
3.8551
3.34012
-1.58791
-1.93478
0.270909
-1.04436
0.871821
1.2313
0.670234
-0.170885
1.51517
1.47698
1.77318
-1.03997
1.37534
-1.30509
-1.52299
0.694479
1.42517
1.82749
0.181787
-0.013144
1.45144
2.62211
1.31534
-1.23454
-1.0584
1.22873
0.242167
0.702566
-0.386145
0.170333
1.27168
2.31205
1.5101
1.63434
2.49032
0.975189
-0.199673
-2.47089
-0.161359
-0.799692
0.400186
-0.341292
0.283124
0.0409389
-0.118625
0.515463
-3.25616
-0.892731
1.81337
-0.798734
-2.64008
-1.06013
-2.40401
0.46698
1.15084
0.450689
2.67416
2.47358
-1.2213
-0.174763
0.83787
-0.763906
0.218678
0.983807
1.73512
0.700975
-0.421251
-0.26895
0.850339
1.59708
-1.39479
0.990918
1.18163
-0.672037
3.94559
0.642383
2.00203
-1.84858
1.64339
-0.688849
0.287575
-0.792988
0.0552971
0.486258
-1.34769
-0.0735464
0.257309
1.48322
-0.330228
-0.280524
0.263014
-1.32034
0.327798
-0.518212
-0.296589
-0.117576
1.35486
-0.373701
-0.257407
-1.16047
-1.0562
0.0347847
-0.313327
-0.0516357
-0.69912
0.0333691
1.11635
2.49996
-0.759609
2.50942
0.628449
0.49258
0.331351
0.0830391
0.749951
-0.778814
0.493442
1.07569
-1.64352
1.22158
-1.96137
-0.191264
-0.226279
1.13147
-0.527419
0.203647
0.320836
1.05577
-1.24664
1.41951
0.551404
0.0611947
-0.589007
1.32072
0.0380837
-0.0990551
-0.236285
0.0947593
1.81875
0.956518
-1.82701
-0.418325
1.77591
1.18275
-0.838815
-1.84003
0.399301
-0.944453
-1.21739
-0.411898
-2.286
1.21851
-0.22406
0.449411
0.396236
-2.58149
1.43421
-0.857344
-0.519556
1.3515
0.344229
-0.441365
-1.05112
-0.112857
-0.537064
-1.17811
2.12906
1.5409
2.06189
0.949692
1.30137
-0.29694
-0.939338
2.8396
1.15977
-0.956313
1.25721
-1.011
0.438152
-1.95145
-2.29255
0.372109
0.191362
-0.940417
-1.59648
1.13693
0.615537
-0.575959
-1.18235
-0.747767
-0.279247
0.935923
-0.154315
0.159734
-0.716962
-1.22374
-0.506892
0.425759
1.58373
-0.532783
0.792443
-0.75307
1.22696
0.407103
-0.568666
0.437672
-1.4718
0.549758
-0.751292
-1.23723
1.61642
0.706654
0.191158
0.760722
1.4346
-0.162626
-0.331592
1.61255
0.484877
0.655866
-2.63915
1.72403
-0.885246
-0.212418
0.529166
2.31489
-1.01274
-1.65937
0.372038
2.16587
0.480003
-0.0814829
0.0719614
1.78513
2.71835
-2.2269
-1.12286
-2.28701
0.338769
0.16306
0.153275
-0.265785
-2.20261
0.0331956
-0.919374
-0.0972098
-1.55824
0.0241791
0.66916
-0.594577
-2.41499
1.01224
-1.22487
-0.209579
0.725194
0.363719
-0.298946
-1.55387
-2.42315
-0.887458
0.4576
1.25675
0.061862
-0.244574
-0.96017
-0.191126
0.342
0.0820084
-1.05394
-0.207181
-1.04888
0.20264
-0.594291
-0.8934
-2.53896
-2.71799
-0.067113
-2.05105
3.44663
0.850349
0.972135
-2.30116
-0.253757
-1.94368
-0.0275613
-1.34755
-0.258395
0.139819
0.0765377
0.572394
2.52865
0.64041
-0.859514
-0.31825
-3.12928
-2.80397
-0.731432
-0.299707
-0.111273
0.436061
-0.977711
0.660002
0.105517
0.0746946
-1.37481
2.01685
-0.508901
-2.3184
-2.56809
-0.86502
-3.34835
-0.0964469
1.11506
-1.88171
-1.45715
0.204313
-0.377074
-0.725233
1.12939
-0.189513
-1.26611
-0.578377
-2.27078
-0.697353
-0.284017
0.0952623
-2.23451
-0.298944
0.343621
0.256795
-0.0339022
0.625161
-1.07729
-0.981653
-0.741701
0.303797
-0.815074
1.11366
-0.479942
-0.10708
-1.28578
0.395869
-1.3654
0.611797
1.9715
1.28627
-0.00278925
-1.78684
0.0331618
0.873254
-0.900949
0.0275064
0.697096
-0.525566
-1.2192
-1.59661
-0.408731
0.345559
-1.90732
1.15971
0.512411
-1.09525
1.23835
0.380731
0.213379
1.41094
-1.07252
0.705943
-0.596993
-0.444917
-1.59886
-0.353248
-1.73923
1.45763
0.635312
1.07478
0.818048
2.0045
-0.310132
-1.81164
0.859977
-3.01404
-0.416326
-1.55291
-0.984814
-1.90984
0.109305
-0.235114
-2.58177
-0.88813
-0.413167
-0.4399
-1.61991
0.131005
-0.0749724
-2.17582
0.781293
-2.42273
-4.36406
-1.44438
-1.53572
-0.440307
-0.601999
-1.41675
-0.565274
1.59246
-0.696825
-0.938228
1.36807
-2.73681
-0.515839
-3.70382
0.777598
-0.748517
-0.32023
-0.548642
-4.20388
0.367624
0.30107
0.204277
-1.15891
-0.310438
-0.31383
0.225168
-1.07403
-0.0580145
0.873537
2.21184
-0.519754
-1.62593
-0.409012
0.907258
-2.50269
-1.02922
0.64927
-0.714551
-1.77543
-3.79866
-0.669291
-0.103733
0.18914
-0.676995
-1.96473
-1.26309
-1.30894
-1.98143
0.431847
-0.708871
0.405224
-0.648857
0.160845
-2.10246
-1.33444
-0.918811
-0.886763
-1.31677
-1.32924
-2.11376
-1.26982
-0.470449
-0.834277
-0.645145
-1.5597
-0.920264
1.06115
0.529655
1.43352
-2.25247
-0.330014
-1.99598
-1.19284
-0.559394
-1.29244
-0.686426
-0.901835
1.39494
-0.469032
-1.34365
-1.37242
-0.48891
-1.00942
-1.22708
-0.218992
-0.435348
-3.19515
0.834679
2.03943
0.213246
-0.541209
0.142066
-1.75712
-1.38716
0.428456
-2.09901
0.658313
0.460826
1.02847
1.12194
-0.0203217
-2.19136
-0.843615
-0.308863
0.639825
-0.57792
-1.9916
0.0723494
-0.940317
-1.46342
0.91544
-1.00353
2.02718
1.36409
0.311268
0.668525
-0.124652
0.32233
-1.53559
-1.52727
0.309075
-3.05035
-0.105254
-1.19681
-0.497023
1.69753
-0.233007
-1.58409
-1.38757
-2.33059
-0.0653024
1.92893
-0.540774
0.751422
-1.24583
0.912171
-1.16224
0.255841
-0.795614
-2.74658
-1.42867
-0.822465
-0.493612
0.623027
-0.859169
-0.480174
-0.112538
-0.328803
0.459377
0.0323076
1.00484
-3.95478
-2.98495
-0.910945
-3.65022
-3.2022
-0.939448
-0.939862
-3.52556
0.810837
-1.22618
-1.55537
-3.46684
-1.93161
-4.19414
-1.16922
-0.854601
-2.00925
-4.03974
-1.74939
-0.340093
-2.80935
-3.11295
0.189727
-1.22045
-2.07772
-0.871632
-2.22754
-1.80374
0.176622
-3.47571
-0.976825
-2.77676
-0.524659
-0.544475
-2.01237
-1.0752
-0.856253
-0.710478
-3.2238
-0.471231
-1.24293
-3.68794
1.81791
-3.15203
-1.37987
-0.759618
-1.89388
-1.52212
-1.80247
-4.14211
-0.906028
-3.79729
-1.25733
-1.5133
0.237727
1.36429
-0.627479
-0.958375
-0.549778
-0.0534654
-0.563309
0.245463
-1.54812
-2.08517
-1.10371
-0.868201
-2.09478
-4.61218
-0.473597
-0.873451
-2.87646
-0.230266
-0.942414
-1.58744
-0.935126
-1.73375
-1.1222
-0.483294
0.90822
-0.4845
-1.01028
-1.50633
-2.61188
-0.442409
-1.01934
-1.36089
0.3771
-0.621123
-2.25697
-0.598241
-2.34618
0.533217
0.109129
0.580925
-0.0323155
-2.98932
2.40925
0.728664
0.246794
-0.190954
-1.43817
-0.403048
-1.01532
-2.61341
-1.16324
-1.07832
-0.83326
-0.281168
-0.227202
0.0167774
-0.243127
-1.65543
-0.164837
-0.328551
-0.858771
0.0734898
0.0140659
0.931107
-0.248514
-1.78244
-1.64239
0.980961
-0.497507
0.283556
-2.42542
-0.166237
-2.68799
-1.25578
0.217859
-0.331044
1.61572
-0.464572
2.64874
-0.139257
1.7009
-2.04734
1.91247
1.18604
2.41855
0.545127
-0.612864
1.67759
-1.03396
1.81439
0.31595
-0.709363
-4.27786
1.71114
0.253215
-0.781845
2.57802
0.138782
-0.75436
1.33523
-0.329854
0.982423
-0.737809
-1.0027
0.463222
-2.22371
-2.84457
-2.85336
-2.76208
-3.40295
-1.86671
-1.10126
-2.55324
-2.2354
-2.62607
-2.01091
-2.18152
-2.78758
-2.71585
-3.53162
-1.1478
-0.152158
-0.939949
1.05251
-1.73162
0.378922
-1.96029
0.347639
-2.43457
-0.563456
-3.05983
-0.237896
-0.3781
-1.32994
-0.456662
-2.55155
-0.184139
-2.67916
-0.190915
-0.840414
0.142943
-0.350759
-0.810252
-0.461233
0.201222
-1.33825
-0.0728214
-1.66056
-2.32447
-0.199041
-1.27204
-4.52367
-4.29142
0.670555
-2.96662
-4.61115
0.151919
-1.17705
-0.979738
-2.20435
-0.757387
-1.01012
-2.39813
-3.53691
0.395432
-0.781202
-2.34443
0.0560412
-3.6526
-4.17723
-0.174296
-1.02025
0.297957
-1.42519
0.328871
-2.05816
0.788047
-0.541877
-2.43245
-0.702171
-1.13815
-0.857492
-1.48063
-1.57711
-1.62438
-0.173621
-2.21946
-1.74173
-1.90376
-2.61924
-0.734148
-1.85612
-0.303978
-1.16394
0.598883
0.264449
-1.99723
-1.73665
1.04672
-1.81143
-0.54135
-0.895425
-1.04789
-1.73563
-1.80041
-2.75739
1.28324
1.15528
-2.78879
-0.631733
-1.47179
-1.53921
-1.70081
-0.397048
-1.11956
-2.5001
-2.23171
-0.712761
-1.60211
-1.69766
-0.851475
-0.315767
-0.993668
-0.369611
-1.22511
0.159964
0.955141
3.52719
-0.867044
-0.89611
-1.22104
-0.323925
-1.50134
-0.765723
0.391891
0.0504407
-1.38083
0.470155
-0.209844
0.713188
-2.22801
0.45411
1.20092
2.13169
0.834548
-1.15772
-1.2913
-1.26819
-0.470183
2.49559
1.73496
-0.644145
1.03578
1.2567
-0.585291
2.25337
1.98737
0.857631
0.85558
0.172342
-0.0171757
-1.08742
0.189944
-1.96007
-1.6209
-1.28628
-1.64567
-1.76554
-1.33553
-2.50246
-2.37685
-3.0114
-2.15479
-4.02412
-1.78811
-3.23313
-1.50285
-2.69176
-3.83971
-3.88739
-3.42272
-1.7317
-1.24241
-0.819449
-1.30824
0.867789
-5.07041
0.0112319
-3.65896
0.162318
-1.09136
-0.252926
-1.02858
-3.44725
0.218153
-2.20153
-0.811891
-2.96231
-0.0854781
-2.52882
-0.396935
-0.015435
-0.713145
0.784476
-0.834051
0.942303
0.0191209
-1.56061
-2.15502
-0.322371
-2.3313
-1.61982
-0.427812
-2.38381
-3.9163
-1.83667
-2.76266
-3.41271
-2.99461
-2.96847
-2.69119
0.813888
-0.816787
-0.677468
-1.03447
-0.0695082
-4.21638
-3.53363
-2.05611
0.0526916
-4.06157
-2.79999
-1.72234
-3.45194
-1.02366
-2.16841
0.553751
-3.67653
0.868487
0.226498
-0.503993
-0.407933
-0.751356
0.638428
-1.13185
0.568167
-2.71332
-0.434254
-2.57851
-0.576991
-0.686934
-2.02103
-0.181789
-1.1028
-3.08368
-1.44989
0.907691
-0.637594
-0.450769
-1.58293
-0.752568
-1.72112
-0.951997
-2.25284
-1.06693
-0.14611
-3.82526
1.13103
0.755803
-1.82979
-2.2963
1.58999
-2.65289
1.40007
-0.678989
-1.13789
0.390337
-0.631084
0.128463
-1.16205
-0.735179
-2.11739
-0.889622
-1.44904
-0.904152
0.793263
0.143875
-0.971327
-1.94791
0.26821
0.0418746
-1.0992
0.216698
1.29115
-1.40183
-3.0123
0.152364
-1.06756
-3.53355
0.831318
0.159109
1.58801
-0.146928
-4.07932
0.467905
0.368049
0.156583
-1.18373
-1.23473
-0.819276
-0.0253435
0.302506
1.63019
-1.35043
-1.30296
-1.256
-0.0837334
1.30206
-0.394832
-1.71809
-0.576061
-1.34076
-2.51827
-1.35236
-0.0961982
-3.32311
-3.44653
-1.49458
-1.12938
-2.77253
-3.5122
-1.96781
-5.04684
-2.07978
-1.8846
-1.36693
-3.2174
-2.76603
-1.1381
-4.30641
-4.47026
-0.478257
0.073902
0.912913
-0.531621
-2.89448
-0.823936
-0.847163
-3.39406
-2.37955
-2.18393
-2.79775
-3.58067
-2.30265
-1.60178
-4.17865
-1.66831
-0.414861
-1.61441
-2.56949
-1.11506
-0.286685
-2.58258
0.767688
-1.98253
-1.12133
-0.790247
-1.00778
-3.45882
0.128212
-4.11117
-1.74865
-2.58698
-1.10633
-4.19648
-2.6171
-1.16389
0.159212
-2.85146
-2.29317
-0.6598
-3.22482
-1.72335
-1.80593
-0.859351
-2.22733
-2.37932
-2.03692
-1.6622
-4.56525
-2.85125
-1.10058
-0.962468
-3.84373
-0.0437836
-2.44878
-1.58974
-0.800639
-3.99887
-1.39144
0.690471
-1.82648
-0.21322
-0.0223225
0.321245
-2.05482
-2.18629
0.498061
-1.62281
-4.26398
-1.89378
-1.45594
-0.606275
0.140725
-2.11641
-1.60734
-1.58682
-2.09623
-0.226003
-0.719009
-1.36266
-3.70838
-1.78945
-1.69915
-2.23455
1.25917
-1.19922
0.486272
-1.89335
-2.90014
-1.94729
-4.13763
-0.413665
-1.06739
-0.263945
-2.53123
-1.88424
-0.546308
-1.88561
-2.17104
-0.477806
-1.61958
-0.989763
-0.360068
-0.217842
-0.308353
-0.973728
1.11451
-1.0497
-1.53504
2.87387
0.310993
-0.936779
-2.44569
-2.07394
-3.06791
0.170761
-1.0154
-1.54329
0.440477
-2.23614
-1.09087
-0.427566
-0.247728
-0.7276
0.606336
1.60336
0.245383
0.0206455
-0.462769
-4.12405
1.33994
-2.04156
0.0372031
-1.40084
-0.14142
0.601087
-2.31928
-1.95019
-1.52619
-1.93286
1.18121
-1.54591
-0.575307
-1.22706
-2.81838
-1.40579
-1.29349
-2.01332
-1.54109
-2.08531
1.01666
-2.86353
-3.93649
-4.62814
-4.19004
-3.0784
-1.76546
-2.67613
-3.70697
-1.95534
-1.40208
1.98202
-0.808361
-0.664859
-0.666568
-1.59281
-0.116984
-2.91688
0.0198035
-2.62783
-0.54447
-0.120227
-1.37422
-0.473988
-3.65513
0.41577
-3.82379
-0.584411
-1.52435
0.0540319
0.26298
-0.602559
-0.500379
-2.58917
-1.68867
-5.66259
-3.5564
-1.35919
-3.67278
-2.17843
-1.20057
-1.60565
-2.70423
-1.09641
-2.27823
-2.0549
-0.900334
-2.49404
-2.51755
1.33305
0.707514
-0.764307
-2.13475
-2.65151
-2.7831
-2.94313
-1.597
-2.27104
-3.09489
-4.90932
-2.78949
-0.0993955
-2.52754
-0.685467
-1.79082
2.16856
-0.966159
-1.65018
-1.06212
0.844591
-2.8068
-0.00311325
-0.698681
-4.21238
-1.39089
-1.66213
-1.29316
-1.25949
-0.0386212
-1.89823
-1.33296
-1.71268
-1.17261
-0.498129
-0.784566
0.422699
-0.301305
-0.927714
-1.55118
-1.20325
-0.883919
0.130439
-0.412465
-1.83185
-1.38442
-1.52395
-1.25629
-0.940741
-3.21252
-1.32045
-1.39127
-2.29385
-0.808721
-1.67446
0.789912
0.755112
-1.58024
0.330554
-0.696481
-1.74358
-2.94826
-0.0189071
-3.00489
-1.16383
-0.380169
-0.35243
-2.30836
-0.526589
-2.79092
1.05317
-0.346664
0.221772
-1.60436
-2.01328
-1.227
-1.75027
0.0895651
-0.629428
-1.19619
0.620898
-0.81864
1.5394
2.42864
-0.316499
1.22944
-0.253107
0.128473
0.556105
-1.77885
0.777463
-1.96466
-1.58485
0.422758
1.53899
-2.49007
-0.367057
-1.89212
-1.42386
0.0220023
-0.0572511
0.0991697
0.588593
0.0774153
-2.47334
-0.159578
-2.51668
-3.58303
-1.95504
-4.33184
-3.94295
-3.60125
-1.59877
-1.46433
-2.04821
-1.21681
-3.04304
-2.7489
-0.69207
-2.12073
-1.15918
-3.19314
1.13435
1.65942
-1.66102
-3.11063
-0.929838
-1.09664
-3.23094
-4.73569
-3.01401
-4.02132
-3.56645
-0.899381
-3.52617
-4.1496
-6.619
-1.81323
-3.22257
-1.85393
0.0493644
1.51699
0.464427
-0.135733
-2.38241
-0.915711
-2.39495
-1.66137
-3.57431
-4.95524
-3.46478
-2.32164
-3.65085
-0.50808
-2.78822
-1.85787
-1.72795
-0.145414
-0.56162
-0.589774
1.93831
2.31379
-0.247326
-1.68511
0.633853
-0.0173628
-0.696878
-0.930075
-1.39706
-1.2596
-3.15299
-5.07562
-1.0054
-1.36444
-4.1655
-0.277184
-1.20968
-1.02967
-2.0063
-0.681708
0.641744
-1.63354
0.686226
-1.7957
-1.43696
-2.06444
-1.9097
-1.32806
-0.514587
-3.03259
-3.55686
-3.41015
-3.37868
-0.349823
-0.56718
0.584348
-1.89784
-1.8464
-1.38641
0.738988
0.740456
2.226
-0.817547
-0.861623
0.979816
-1.28158
-0.492982
-0.0862506
-2.18114
-3.0388
-1.2382
-2.79274
-0.442712
-2.37387
-0.319061
-1.03273
-1.23955
-2.77154
0.442896
0.99988
2.7172
1.44826
1.5651
-0.443103
-1.73733
0.128509
-1.40993
0.235708
-0.871389
-0.487359
-0.282436
-0.605136
-0.25801
0.875922
-2.75715
1.03218
-2.46552
-2.27131
-1.0934
-1.74226
-1.24736
0.162544
1.12906
-1.60231
-0.782843
0.16033
-1.04336
1.67
0.920027
1.592
0.474071
-0.438978
-1.30899
-0.278929
0.807446
1.18561
1.08438
-0.543721
0.879754
0.616525
0.463124
1.18435
-0.734361
-0.790363
-3.99591
-2.10585
-1.09867
-2.39102
-2.9468
-4.29527
-2.94028
-4.83294
-3.86894
-2.32558
-3.21958
-4.59623
-2.26721
-3.90572
-2.57224
-0.299988
-1.64941
-0.183321
0.759465
-0.0147246
-1.14197
0.316068
-0.0374514
0.439565
-1.83376
-0.100938
-2.79273
-0.717159
-0.427036
-2.76254
-0.804628
-2.69909
-0.187924
-1.88068
-0.184183
-0.483523
-0.141085
0.730234
1.72588
1.72133
-1.66883
-2.88966
-0.536009
-2.67252
-1.35976
-1.59047
1.03205
-2.38335
-1.83225
-2.44638
-1.2941
-0.734876
-3.25652
-1.40682
-2.23451
0.744636
-0.311517
-0.225698
0.0678137
-0.930355
0.320452
0.547443
-1.10672
-2.12129
-2.5276
-2.03578
-3.98847
-2.42979
-0.131036
-2.37286
-2.51507
-3.5697
0.149229
1.45138
-2.07056
0.871322
-1.35692
-1.45677
1.60534
1.34458
1.24425
-1.33222
0.00832522
-0.113195
-1.44713
-3.15977
-3.77126
0.48643
-2.23776
-1.4713
-3.35355
-2.10367
-0.00152964
0.24302
-1.74695
0.869875
-0.346836
0.500371
-0.160103
0.0391659
0.761952
-1.36078
-2.86147
-1.51522
-3.01806
-0.861305
-2.97211
-0.313055
-1.86528
-1.74051
-3.65444
-2.58452
-0.720017
0.609616
-3.07629
-1.44146
0.113585
-0.795254
-1.13751
1.24882
-1.30016
-0.131754
1.58685
4.21261
-1.32344
0.229812
0.257471
0.507597
0.297025
1.53477
-0.575285
-0.00576368
-0.931958
-2.20084
-0.348523
-1.47283
1.36292
2.0868
-0.437258
2.20108
-1.24419
0.374661
0.445199
-0.963321
-1.64941
0.570139
2.51214
-0.395393
0.350249
-0.143219
1.51226
-1.21321
-0.15273
1.26229
-1.88916
-0.91139
1.9128
-0.852081
0.0133868
0.478866
0.119641
-0.155014
1.11343
-2.1789
-2.84157
-2.91985
0.144954
-4.325
-1.13753
-4.11933
-3.29631
-2.7325
-2.39609
-2.38191
-2.77253
0.0900811
-1.50596
0.0732749
2.38538
3.81828
-0.810069
-1.61223
0.207535
-0.97834
-3.24356
-3.32504
-1.7893
-1.98439
-2.15693
0.454714
-1.8974
-1.98674
-1.54449
-1.16982
-1.21702
0.116907
-0.988903
0.136382
-0.510609
-0.118122
0.324542
-2.1708
-0.0229795
-0.611922
-1.71823
-2.31069
-2.0837
-1.86532
0.43259
-1.57057
-2.17887
-1.82469
-2.47404
0.784927
-1.8722
0.787928
-2.59576
2.01788
2.40442
-0.146979
1.41771
-0.729983
0.436803
-2.13656
-0.620863
-0.0968676
-3.2693
-1.51602
-1.31811
-1.1475
-1.01474
0.0827954
-0.689654
-2.07109
0.863072
0.289161
-1.09675
0.0957375
1.91421
-0.394477
-0.945397
0.737392
-2.02448
-1.97918
-3.92709
-0.885176
-1.23971
-0.0424877
-1.33599
-3.10207
1.29947
-1.42322
-1.7759
-3.1683
-0.289372
2.10873
0.391535
-0.59068
-1.39357
0.95218
-1.42811
-0.45432
-0.382767
0.506018
0.494087
-0.633692
-2.06921
-1.19655
-1.04353
-1.35078
-2.79162
-2.9755
-1.75684
-0.881537
-1.3371
1.30288
-0.793023
1.37026
0.832215
-0.58109
0.655638
-1.56106
1.7948
-1.94373
-2.76869
-0.75384
0.921133
-0.336625
0.623995
-2.3833
-2.0121
0.810911
1.66654
-0.170512
-0.340904
-0.290479
1.39106
-1.05443
0.842817
0.972468
0.477878
2.69474
-1.58841
-0.758897
-1.49147
1.49449
-0.252878
-1.46901
1.70649
-0.812955
0.807426
2.06813
1.02266
-0.165317
-1.17498
-0.020667
-2.35861
0.912477
2.21334
2.8573
-1.33136
-1.08338
-0.982566
-2.83746
0.151969
-1.94742
-0.288661
-0.537505
-0.545535
-0.665195
-2.2671
-0.914458
-1.45074
1.42209
-0.971123
0.275567
1.20607
1.90325
2.47661
1.43339
2.5024
-0.158599
1.41622
-0.158701
-0.0982124
-0.319586
-1.72238
-0.0768814
0.072021
-0.457651
0.182269
0.626026
0.600241
2.03699
-0.533796
-1.06813
-0.225123
4.98058
0.989796
1.89369
1.48679
2.44608
0.21266
-0.692107
-0.0666562
-1.51215
-0.601175
0.702187
0.253056
-1.56429
-2.19918
-2.825
-1.82903
-1.686
-0.996954
-0.851766
2.18653
0.731673
1.4174
1.33186
1.20866
2.98413
-0.884557
-2.48309
-0.733489
1.72791
-2.13792
-0.113881
-0.667414
-0.54119
0.525942
0.22418
0.680604
1.51914
-0.455675
0.288933
1.9827
0.849509
3.51667
-0.83861
0.706355
-1.10973
-1.37818
-0.719307
-0.558473
0.823765
-2.23958
-0.184238
0.635189
-0.0426271
-1.1005
-0.168727
-1.45484
-2.64994
-1.28022
1.30417
3.48282
1.13298
1.55827
1.18794
1.26476
-0.51236
2.2242
-1.32729
0.103989
-0.0981097
-0.720068
0.699914
-1.28403
-1.0578
-1.22212
-0.879239
0.615066
-0.995209
1.55585
0.0879827
1.42767
-0.72751
0.652634
-1.46709
1.26504
1.2625
0.0710861
1.5566
-0.708341
-0.551683
-1.59293
1.33507
-0.915063
-2.06235
1.42483
-0.282568
1.57444
-1.43156
-1.75611
0.581623
-2.01505
-0.098099
-0.800097
-1.82569
2.07191
0.365043
-0.821711
-1.60046
-0.609334
0.477581
-1.08586
-0.0390207
0.630905
1.4034
0.539011
-0.855324
0.118813
-1.04689
2.94162
-0.741012
1.66145
0.8351
2.7904
2.84827
-0.00507094
2.28675
1.62209
0.0919718
-1.27818
-0.113663
-1.29913
0.353138
0.0662162
-0.256313
0.792109
3.74926
-1.26766
-2.80903
1.18519
3.66841
1.60912
3.37879
3.12545
2.69128
3.11465
-0.0620069
1.45311
2.01566
1.5974
-0.767928
-3.15767
0.817445
-1.9899
-0.473056
-0.634642
-0.0186619
-1.17147
0.948655
0.576541
2.56189
2.77655
4.32921
1.68698
2.69681
1.4355
0.63111
2.74266
-0.767465
-1.30747
-1.33176
-0.80531
-0.0931821
0.12498
-0.9129
0.124706
-0.118987
-0.240954
3.76508
1.88289
0.00668011
1.02191
1.45252
1.04028
0.478851
0.836738
-0.127595
1.02572
0.766673
-0.744905
1.21345
-0.533094
3.31811
0.661932
-0.261278
1.95501
-0.63793
0.0926741
0.335205
0.703795
0.607739
2.87712
0.106661
3.7784
2.79529
0.723897
0.284577
2.7041
1.3846
0.388684
-0.25283
1.24869
-1.44122
-0.0170176
0.454657
-0.499032
0.689744
2.03237
-0.11547
0.150626
0.864381
0.0393139
-1.43363
0.347474
1.21764
1.05454
1.65129
0.74861
0.840917
-1.47923
1.21326
-0.142253
1.47985
-0.626054
-0.702508
-1.14557
-1.23886
-0.545204
2.09665
-1.12886
-0.0280904
2.59346
1.49948
1.75078
-1.08782
0.255145
0.851396
1.00507
-2.72358
-1.5193
-0.815215
0.512896
-0.758114
0.037078
2.08895
-0.560532
-0.582192
0.809235
-0.132625
0.154945
2.39052
1.23096
0.458048
0.680093
-0.549005
0.34087
-2.54866
-0.840817
-1.28674
2.28126
-0.985925
-0.310231
0.547631
0.0876784
0.711771
-0.147528
-1.16145
0.976449
-0.642768
-1.00788
0.158813
-0.878113
0.593677
5.74782
4.96251
1.00589
4.30275
0.68652
4.25382
0.848786
0.942008
1.08278
-0.983488
1.06401
2.1264
4.32896
2.43747
2.76587
4.42956
1.88137
3.29751
3.65343
5.17015
6.04638
2.09734
3.8116
-0.335197
2.31476
-0.130233
-1.8243
-0.130352
-1.38355
-0.0178879
-0.179858
-0.176496
-0.259304
0.83197
0.279846
2.86781
0.729644
1.43135
0.147165
4.43845
2.34016
1.64597
2.07729
1.15831
1.74004
3.47024
2.38991
0.797543
0.500406
-1.27931
-1.25085
-1.40846
0.374527
1.43533
0.882769
1.10391
1.92166
0.392887
1.45804
2.67068
2.71499
3.50656
0.806619
-0.198343
2.67605
2.80188
-0.143897
0.183445
-1.27069
0.364897
1.44288
0.206497
0.146727
-2.73668
-0.880145
3.03491
2.11109
0.364754
2.17297
3.18732
4.03635
0.223366
1.53101
1.75728
-0.203696
0.767176
0.480907
1.67217
-1.33859
-0.192463
-1.19721
0.620533
-0.888187
1.32694
-0.649808
-2.4239
2.88341
-1.20723
0.36259
2.17016
3.59819
-2.61335
1.45531
0.253393
0.735904
0.281439
-0.279753
0.984913
0.831863
-0.73759
-0.345999
0.324883
1.6708
0.772823
-0.145074
-1.20887
1.28462
1.30365
0.525766
0.040163
1.56912
-0.705673
0.862413
2.08618
1.83308
2.09116
-1.32033
1.27699
-0.636326
1.50803
1.00109
-0.727443
2.69342
1.10486
0.442583
-0.0470809
1.98739
0.48339
2.50978
1.11812
1.50336
-2.07223
-1.84228
0.900598
-0.223669
-1.2566
0.146407
-2.41978
-1.60786
1.01581
0.214586
-0.530264
1.55329
1.81782
1.06683
-1.15036
-0.900358
0.184839
0.38406
0.130493
6.88921
4.33433
3.17291
3.80089
2.0497
3.47122
1.5233
3.33483
2.14819
0.739253
0.553358
1.26288
0.0150646
0.792077
0.908527
4.74606
2.16519
4.79693
3.84977
5.02881
7.03292
5.22919
0.732827
4.85802
2.53215
1.80555
2.16982
2.36639
1.85804
0.909853
-0.0185984
-0.78606
-0.449067
0.660765
1.20444
0.379723
2.67769
3.76775
2.96
3.25977
3.7484
5.79062
0.614978
2.88117
-0.0132427
1.5878
3.41299
0.569856
0.303622
0.472869
-0.692853
1.71415
2.91256
-0.352684
2.90128
2.25456
1.23346
1.64325
4.2024
4.88993
5.06938
3.25163
2.8254
1.10743
0.726069
0.76229
1.63402
0.687837
-0.200053
-0.609523
1.21482
0.564363
-0.713161
0.599022
1.37943
0.0896496
1.75726
1.5747
3.55536
1.75956
4.00674
2.48442
0.370688
0.123169
0.91069
2.8802
0.175212
0.966474
0.933397
-1.00428
-1.07997
-0.744196
0.570093
-0.484366
-0.781302
2.85683
1.33147
2.22902
0.0526336
2.65951
3.04815
-0.50257
1.82668
0.0531835
0.361284
1.5293
1.28566
2.69535
1.00054
1.64196
-0.138406
-0.400089
1.14319
1.46298
0.972036
1.53773
1.50241
1.79923
4.5386
2.84851
1.28683
0.200879
0.161237
0.816836
0.819116
-0.329218
1.5617
-1.67466
1.2879
-0.708963
-0.369019
-0.196615
-1.29225
1.17091
-0.0872435
1.06668
-0.106883
0.255158
0.610749
-1.5473
2.16487
-0.643566
2.13772
-1.40697
-2.06815
1.7968
-0.581073
-0.911411
-1.14485
-0.268146
2.47814
0.179301
0.599063
1.95677
1.06945
1.65654
0.673534
-0.315358
0.96741
0.255014
)
;

boundaryField
{
    hotSide
    {
        type            calculated;
        value           nonuniform List<scalar> 
400
(
6.05018
3.95437
2.32911
-1.41816
0.649023
0.582786
2.18395
-2.05544
-0.490884
-0.918121
-0.0102691
-2.73998
-1.79064
0.319385
-1.02947
-0.308988
1.86238
2.40953
5.33578
6.44475
6.50301
3.61018
2.26666
0.620007
0.922371
-0.519777
-1.12488
-0.0184146
0.314187
-1.16712
-2.14541
-1.56021
-0.807171
-0.179892
-1.07448
0.166606
2.51563
2.47593
4.55829
3.89703
4.21013
5.12505
1.21981
3.06864
1.15445
-0.346446
-1.75148
-0.34389
-0.0950623
0.315451
-1.79074
-0.289685
-1.44567
-2.71845
-4.26884
-0.182365
-1.66366
-0.368857