/*--------------------------------*- C++ -*----------------------------------*\
| =========                 |                                                 |
| \\      /  F ield         | OpenFOAM: The Open Source CFD Toolbox           |
|  \\    /   O peration     | Version:  2212                                  |
|   \\  /    A nd           | Website:  www.openfoam.com                      |
|    \\/     M anipulation  |                                                 |
\*---------------------------------------------------------------------------*/
FoamFile
{
    version     2.0;
    format      ascii;
    arch        "LSB;label=32;scalar=64";
    class       volScalarField;
    location    "0";
    object      T;
}
// * * * * * * * * * * * * * * * * * * * * * * * * * * * * * * * * * * * * * //

dimensions      [0 0 0 1 0 0 0];

internalField   nonuniform List<scalar> 
3200
(
350.974
349.383
348.284
347.908
347.988
348.641
349.351
349.884
350.404
350.717
350.733
350.266
349.548
348.639
347.578
346.672
346.103
346.016
346.456
347.619
344.218
342.88
341.949
341.621
341.672
342.251
342.851
343.335
343.773
344.062
344.096
343.69
343.086
342.329
341.443
340.669
340.185
340.113
340.514
341.474
337.436
336.339
335.567
335.279
335.333
335.823
336.351
336.72
337.105
337.381
337.41
337.054
336.586
335.948
335.211
334.56
334.174
334.137
334.461
335.25
330.661
329.765
329.131
328.898
328.967
329.347
329.792
330.091
330.422
330.649
330.668
330.379
330.022
329.514
328.916
328.395
328.078
328.064
328.299
328.946
323.897
323.19
322.691
322.52
322.56
322.87
323.215
323.441
323.683
323.887
323.881
323.667
323.405
323.014
322.557
322.157
321.909
321.931
322.076
322.584
317.116
316.583
316.258
316.115
316.129
316.358
316.596
316.782
316.92
317.098
317.092
316.933
316.756
316.483
316.141
315.881
315.681
315.725
315.811
316.177
310.293
309.953
309.782
309.677
309.693
309.825
309.983
310.09
310.159
310.298
310.284
310.191
310.071
309.902
309.703
309.566
309.435
309.475
309.529
309.743
303.448
303.342
303.279
303.25
303.249
303.294
303.343
303.39
303.4
303.448
303.45
303.416
303.377
303.314
303.245
303.213
303.165
303.19
303.211
303.26
351.237
349.774
348.687
348.258
348.466
349.061
349.729
350.467
351.016
351.374
351.501
350.971
350.102
349.293
348.282
347.287
346.428
346.245
346.805
347.919
344.454
343.216
342.294
341.929
342.086
342.62
343.176
343.796
344.29
344.628
344.749
344.293
343.526
342.86
342.02
341.219
340.462
340.325
340.797
341.754
337.638
336.622
335.875
335.547
335.657
336.124
336.61
337.13
337.529
337.831
337.936
337.554
336.91
336.377
335.692
335.027
334.373
334.317
334.688
335.493
330.803
330.021
329.39
329.126
329.205
329.601
329.995
330.416
330.749
331.011
331.097
330.765
330.254
329.849
329.286
328.766
328.225
328.191
328.484
329.165
323.972
323.409
322.888
322.684
322.734
323.055
323.34
323.687
323.971
324.151
324.202
323.976
323.583
323.264
322.846
322.429
322.022
322.019
322.219
322.757
317.134
316.759
316.374
316.212
316.228
316.464
316.687
316.926
317.156
317.274
317.305
317.17
316.856
316.641
316.349
316.063
315.789
315.762
315.92
316.292
310.289
310.065
309.849
309.752
309.728
309.878
310.024
310.163
310.321
310.39
310.402
310.339
310.123
310.003
309.834
309.672
309.503
309.479
309.58
309.786
303.443
303.37
303.313
303.275
303.256
303.316
303.362
303.41
303.463
303.49
303.478
303.472
303.383
303.355
303.297
303.253
303.181
303.18
303.212
303.287
351.689
350.278
349.227
348.929
349.119
349.793
350.63
351.319
352.027
352.443
352.582
352.038
351.154
350.343
349.173
347.964
347.139
346.861
347.446
348.492
344.846
343.674
342.773
342.473
342.628
343.234
343.953
344.549
345.12
345.49
345.654
345.17
344.424
343.746
342.778
341.746
341.059
340.855
341.345
342.225
337.991
337.021
336.263
335.994
336.101
336.644
337.24
337.765
338.213
338.549
338.715
338.259
337.669
337.09
336.318
335.446
334.893
334.743
335.148
335.886
331.135
330.318
329.707
329.491
329.567
330.024
330.49
330.947
331.303
331.601
331.717
331.314
330.88
330.401
329.804
329.119
328.638
328.539
328.863
329.455
324.254
323.6
323.134
322.959
323.018
323.379
323.725
324.115
324.381
324.618
324.68
324.365
324.05
323.672
323.211
322.72
322.319
322.285
322.528
322.979
317.344
316.88
316.553
316.411
316.448
316.748
316.962
317.249
317.445
317.604
317.64
317.423
317.211
316.934
316.618
316.251
315.972
315.971
316.117
316.45
310.424
310.136
309.946
309.842
309.873
310.066
310.216
310.363
310.488
310.589
310.609
310.463
310.336
310.152
309.983
309.757
309.587
309.602
309.69
309.876
303.49
303.393
303.339
303.299
303.317
303.378
303.433
303.467
303.521
303.555
303.557
303.489
303.464
303.39
303.347
303.264
303.208
303.217
303.258
303.312
352.52
351.151
350.137
349.854
350.167
350.898
351.636
352.531
353.144
353.655
353.706
353.342
352.477
351.422
350.223
349.019
348.247
347.945
348.373
349.238
345.556
344.397
343.522
343.286
343.548
344.176
344.816
345.558
346.083
346.549
346.604
346.292
345.563
344.693
343.67
342.649
342.014
341.758
342.137
342.84
338.564
337.639
336.888
336.682
336.885
337.428
337.951
338.596
339.013
339.427
339.489
339.229
338.629
337.909
337.06
336.221
335.692
335.463
335.804
336.372
331.57
330.841
330.233
330.045
330.195
330.645
331.067
331.628
331.923
332.288
332.371
332.139
331.641
331.077
330.395
329.73
329.297
329.117
329.409
329.853
324.575
324.016
323.567
323.394
323.502
323.86
324.186
324.654
324.842
325.122
325.216
325.024
324.637
324.214
323.673
323.195
322.839
322.724
322.947
323.268
317.581
317.192
316.875
316.708
316.807
317.054
317.272
317.645
317.742
317.961
318.025
317.898
317.594
317.32
316.934
316.611
316.347
316.292
316.425
316.657
310.566
310.351
310.136
310.032
310.105
310.242
310.352
310.617
310.649
310.784
310.821
310.746
310.573
310.401
310.195
309.986
309.834
309.798
309.864
309.999
303.544
303.47
303.394
303.367
303.388
303.417
303.474
303.565
303.56
303.61
303.622
303.596
303.543
303.488
303.411
303.35
303.3
303.286
303.302
303.34
353.456
352.352
351.491
351.146
351.427
352.218
352.992
353.893
354.668
355.06
355.125
354.929
353.951
352.726
351.488
350.232
349.342
349.053
349.377
350.359
346.32
345.446
344.702
344.39
344.616
345.294
345.974
346.739
347.421
347.76
347.826
347.672
346.829
345.811
344.779
343.661
342.964
342.69
343.001
343.831
339.196
338.52
337.881
337.614
337.785
338.354
338.934
339.591
340.123
340.437
340.521
340.387
339.673
338.833
338.01
337.043
336.484
336.261
336.533
337.231
332.067
331.551
331.037
330.808
330.942
331.403
331.877
332.446
332.842
333.119
333.194
333.073
332.5
331.856
331.17
330.351
329.928
329.745
330.018
330.559
324.957
324.581
324.178
323.986
324.087
324.423
324.82
325.277
325.532
325.798
325.839
325.741
325.317
324.844
324.284
323.636
323.322
323.192
323.435
323.84
317.843
317.578
317.291
317.141
317.216
317.465
317.747
318.088
318.239
318.47
318.492
318.396
318.098
317.797
317.375
316.897
316.681
316.618
316.78
317.075
310.71
310.584
310.415
310.287
310.355
310.479
310.654
310.891
310.943
311.093
311.112
311.048
310.871
310.711
310.456
310.154
310.027
310.004
310.086
310.266
303.599
303.549
303.501
303.45
303.473
303.513
303.566
303.662
303.66
303.721
303.72
303.703
303.641
303.594
303.51
303.405
303.362
303.36
303.372
303.443
354.674
353.643
352.752
352.515
352.77
353.443
354.326
355.17
356.034
356.649
356.752
356.451
355.558
354.254
352.988
351.707
350.832
350.571
350.906
351.656
347.386
346.529
345.76
345.568
345.774
346.345
347.098
347.823
348.58
349.098
349.219
348.965
348.22
347.11
346.062
344.93
344.224
344.012
344.305
344.906
340.097
339.393
338.782
338.6
338.755
339.231
339.883
340.493
341.109
341.55
341.663
341.451
340.848
339.94
339.08
338.104
337.547
337.365
337.637
338.086
332.813
332.267
331.767
331.616
331.732
332.101
332.64
333.161
333.643
334.027
334.092
333.928
333.44
332.737
332.05
331.244
330.824
330.665
330.89
331.226
325.535
325.111
324.733
324.611
324.713
324.956
325.391
325.819
326.183
326.496
326.526
326.389
326.035
325.493
325.013
324.36
324.054
323.915
324.077
324.323
318.256
317.966
317.682
317.608
317.683
317.823
318.149
318.463
318.705
318.952
318.952
318.834
318.609
318.228
317.912
317.466
317.245
317.122
317.229
317.403
310.968
310.811
310.622
310.589
310.64
310.711
310.9
311.103
311.237
311.392
311.391
311.288
311.181
310.959
310.772
310.515
310.383
310.295
310.347
310.467
303.679
303.63
303.546
303.546
303.574
303.596
303.648
303.721
303.768
303.824
303.833
303.782
303.749
303.671
303.607
303.52
303.481
303.454
303.472
303.511
356.324
355.11
354.235
353.927
354.239
354.89
355.872
356.818
357.662
358.245
358.427
358.002
357.235
355.901
354.582
353.325
352.558
352.174
352.466
353.194
348.808
347.809
347.028
346.764
347.048
347.583
348.441
349.256
349.974
350.482
350.645
350.298
349.664
348.515
347.418
346.34
345.702
345.395
345.641
346.255
341.293
340.501
339.789
339.599
339.835
340.267
341.02
341.715
342.275
342.727
342.897
342.566
342.067
341.123
340.211
339.309
338.782
338.539
338.754
339.259
333.785
333.195
332.581
332.431
332.629
332.968
333.604
334.173
334.598
334.958
335.13
334.852
334.446
333.692
332.957
332.234
331.809
331.617
331.793
332.19
326.297
325.854
325.347
325.245
325.396
325.674
326.148
326.595
326.926
327.201
327.322
327.113
326.805
326.241
325.647
325.135
324.798
324.659
324.78
325.057
318.821
318.501
318.122
318.054
318.148
318.346
318.69
319.011
319.246
319.436
319.512
319.373
319.151
318.797
318.343
317.984
317.754
317.657
317.726
317.903
311.305
311.125
310.895
310.846
310.908
311.027
311.247
311.417
311.57
311.689
311.727
311.634
311.496
311.302
311.021
310.818
310.684
310.61
310.658
310.762
303.781
303.733
303.655
303.629
303.65
303.702
303.771
303.82
303.881
303.931
303.929
303.896
303.851
303.789
303.704
303.632
303.583
303.56
303.579
303.601
357.857
356.779
356.006
355.671
355.913
356.516
357.424
358.433
359.239
359.866
360.094
359.812
358.864
357.658
356.343
355.085
354.242
354.022
354.191
354.897
350.115
349.219
348.55
348.289
348.48
348.979
349.786
350.629
351.31
351.866
352.072
351.851
351.04
350.033
348.931
347.834
347.143
346.979
347.13
347.714
342.406
341.662
341.091
340.908
341.042
341.443
342.13
342.845
343.402
343.883
344.051
343.866
343.227
342.376
341.463
340.551
339.975
339.878
339.988
340.495
334.703
334.085
333.631
333.501
333.586
333.889
334.482
335.05
335.498
335.918
336.066
335.875
335.4
334.702
333.965
333.24
332.758
332.706
332.783
333.222
327.005
326.51
326.15
326.08
326.171
326.346
326.84
327.266
327.591
327.942
328.075
327.901
327.564
327.017
326.467
325.917
325.499
325.486
325.536
325.914
319.309
318.956
318.695
318.636
318.735
318.812
319.171
319.47
319.699
319.966
320.062
319.947
319.713
319.332
318.932
318.544
318.241
318.23
318.267
318.551
311.599
311.398
311.237
311.204
311.259
311.286
311.504
311.681
311.825
311.982
312.058
311.994
311.838
311.619
311.386
311.145
310.966
310.963
310.989
311.165
303.883
303.825
303.773
303.751
303.77
303.773
303.87
303.919
303.957
304.007
304.038
304.016
303.982
303.898
303.812
303.733
303.68
303.674
303.682
303.745
359.467
358.525
357.862
357.55
357.659
358.253
359.075
359.922
360.801
361.553
361.795
361.402
360.532
359.304
358.058
356.91
356.041
355.799
355.912
356.596
351.54
350.722
350.153
349.907
349.984
350.482
351.207
351.91
352.685
353.339
353.539
353.194
352.474
351.427
350.386
349.441
348.693
348.488
348.608
349.166
343.628
342.944
342.432
342.259
342.31
342.736
343.343
343.925
344.589
345.15
345.293
344.994
344.402
343.552
342.683
341.933
341.327
341.155
341.245
341.688
335.715
335.153
334.71
334.605
334.629
335.012
335.497
335.96
336.493
336.95
337.058
336.821
336.33
335.662
334.932
334.375
333.903
333.726
333.849
334.19
327.81
327.333
326.97
326.918
326.946
327.253
327.644
327.999
328.373
328.741
328.827
328.633
328.252
327.769
327.183
326.785
326.414
326.262
326.386
326.635
319.883
319.547
319.277
319.251
319.275
319.493
319.772
320.005
320.278
320.524
320.606
320.468
320.189
319.849
319.421
319.153
318.897
318.778
318.872
319.05
311.936
311.743
311.578
311.566
311.591
311.71
311.889
312.018
312.169
312.322
312.395
312.302
312.139
311.929
311.666
311.506
311.362
311.294
311.356
311.458
304.006
303.951
303.885
303.876
303.896
303.928
303.996
304.018
304.083
304.122
304.163
304.124
304.067
303.994
303.909
303.857
303.818
303.79
303.814
303.835
361.346
360.402
359.684
359.299
359.45
359.893
360.803
361.595
362.42
363.132
363.235
362.974
362.165
360.833
359.743
358.647
357.861
357.549
357.851
358.459
353.143
352.329
351.724
351.403
351.522
351.894
352.687
353.382
354.09
354.67
354.762
354.575
353.887
352.761
351.826
350.91
350.242
350.019
350.278
350.791
344.961
344.301
343.757
343.518
343.604
343.906
344.598
345.174
345.741
346.229
346.305
346.173
345.63
344.672
343.883
343.142
342.574
342.418
342.639
343.069
336.803
336.27
335.804
335.612
335.681
335.939
336.523
336.967
337.406
337.792
337.873
337.803
337.357
336.57
335.925
335.357
334.877
334.764
334.949
335.315
328.624
328.221
327.838
327.703
327.736
327.975
328.447
328.761
329.102
329.368
329.462
329.42
329.075
328.477
327.971
327.562
327.173
327.073
327.225
327.513
320.445
320.165
319.909
319.788
319.829
319.996
320.334
320.55
320.79
320.964
321.068
321.035
320.785
320.377
319.996
319.709
319.436
319.355
319.489
319.661
312.284
312.114
311.958
311.89
311.916
312
312.225
312.342
312.483
312.593
312.662
312.631
312.487
312.241
312.013
311.856
311.677
311.642
311.723
311.81
304.126
304.059
304.007
303.987
303.994
304.015
304.105
304.132
304.179
304.22
304.249
304.232
304.187
304.1
304.034
303.978
303.924
303.903
303.931
303.961
363.183
362.164
361.495
361.033
361.239
361.635
362.511
363.218
363.964
364.65
364.837
364.618
363.688
362.342
361.345
360.39
359.705
359.482
359.833
360.326
354.747
353.884
353.289
352.881
353.074
353.409
354.174
354.754
355.381
355.967
356.158
355.979
355.202
354.036
353.195
352.415
351.819
351.651
351.971
352.415
346.327
345.616
345.093
344.756
344.905
345.199
345.864
346.34
346.831
347.324
347.519
347.346
346.736
345.733
345.025
344.411
343.922
343.781
344.063
344.455
337.908
337.333
336.896
336.61
336.732
336.993
337.544
337.927
338.293
338.714
338.874
338.747
338.253
337.443
336.849
336.393
335.982
335.87
336.125
336.45
329.507
329.055
328.709
328.49
328.543
328.774
329.207
329.508
329.79
330.115
330.248
330.156
329.765
329.124
328.673
328.323
328
327.933
328.164
328.388
321.091
320.773
320.509
320.328
320.36
320.546
320.865
321.079
321.292
321.505
321.611
321.54
321.262
320.801
320.484
320.245
320.016
320
320.166
320.298
312.677
312.495
312.317
312.199
312.244
312.337
312.54
312.657
312.788
312.93
312.968
312.935
312.774
312.494
312.294
312.169
312.03
312.04
312.111
312.195
304.251
304.193
304.122
304.088
304.112
304.136
304.21
304.235
304.286
304.337
304.344
304.336
304.29
304.187
304.12
304.078
304.037
304.054
304.061
304.102
365.068
364.074
363.382
362.974
363.102
363.36
364.054
364.897
365.558
366.129
366.199
365.973
365.304
364.226
363.142
362.205
361.472
361.403
361.645
362.148
356.376
355.518
354.916
354.568
354.679
354.875
355.488
356.233
356.774
357.257
357.335
357.139
356.606
355.687
354.756
353.972
353.363
353.324
353.559
353.955
347.719
346.994
346.454
346.181
346.266
346.402
346.963
347.575
348.009
348.412
348.49
348.33
347.923
347.134
346.372
345.731
345.216
345.197
345.424
345.741
339.046
338.476
338.003
337.812
337.856
337.972
338.413
338.913
339.258
339.568
339.671
339.561
339.212
338.576
337.972
337.455
337.058
337.006
337.24
337.475
330.383
329.944
329.542
329.449
329.447
329.546
329.858
330.253
330.524
330.754
330.869
330.778
330.527
330.009
329.549
329.154
328.845
328.789
329.015
329.183
321.723
321.408
321.129
321.048
321.043
321.106
321.317
321.607
321.81
321.956
322.059
322.005
321.833
321.453
321.144
320.852
320.63
320.583
320.75
320.846
313.053
312.856
312.707
312.634
312.633
312.676
312.805
312.961
313.106
313.191
313.254
313.235
313.128
312.901
312.705
312.552
312.397
312.365
312.458
312.522
304.386
304.302
304.257
304.235
304.23
304.251
304.285
304.341
304.399
304.417
304.437
304.443
304.404
304.326
304.272
304.209
304.145
304.142
304.171
304.192
367.003
366.052
365.308
364.942
364.777
365.105
365.758
366.467
367.04
367.667
367.639
367.23
366.605
365.772
364.888
363.974
363.311
363.27
363.571
364.101
358.047
357.23
356.579
356.25
356.111
356.389
356.94
357.56
358.036
358.583
358.567
358.252
357.717
357.01
356.28
355.494
354.931
354.946
355.239
355.66
349.103
348.411
347.852
347.591
347.46
347.69
348.163
348.681
349.075
349.52
349.523
349.287
348.857
348.247
347.647
347.008
346.522
346.564
346.836
347.172
340.168
339.605
339.144
338.951
338.829
339.004
339.409
339.824
340.135
340.457
340.47
340.318
339.996
339.486
339.013
338.517
338.104
338.135
338.37
338.644
331.258
330.803
330.464
330.303
330.21
330.344
330.649
330.983
331.225
331.451
331.464
331.357
331.125
330.717
330.367
329.997
329.666
329.68
329.885
330.077
322.353
322.022
321.786
321.666
321.596
321.675
321.911
322.133
322.308
322.47
322.471
322.392
322.255
321.942
321.702
321.446
321.211
321.198
321.376
321.512
313.426
313.244
313.093
313.013
312.98
313.023
313.16
313.284
313.379
313.495
313.498
313.448
313.373
313.188
313.047
312.88
312.771
312.728
312.847
312.92
304.511
304.442
304.394
304.362
304.346
304.369
304.411
304.449
304.48
304.528
304.522
304.506
304.487
304.426
304.372
304.316
304.281
304.257
304.301
304.338
368.885
367.935
367.225
366.907
366.682
366.915
367.455
367.958
368.348
368.873
368.95
368.638
368.028
367.318
366.446
365.707
365.19
365.104
365.501
366
359.664
358.827
358.231
358.006
357.761
357.93
358.431
358.875
359.19
359.642
359.709
359.448
358.932
358.354
357.627
357.023
356.57
356.51
356.868
357.296
350.452
349.733
349.285
349.087
348.846
348.974
349.433
349.812
350.059
350.451
350.477
350.295
349.842
349.389
348.797
348.3
347.929
347.886
348.175
348.553
341.268
340.68
340.342
340.178
339.938
340.04
340.452
340.764
340.958
341.261
341.29
341.15
340.767
340.437
339.932
339.544
339.258
339.225
339.481
339.777
332.088
331.641
331.4
331.25
331.058
331.136
331.484
331.717
331.835
332.085
332.112
331.993
331.714
331.492
331.073
330.788
330.583
330.55
330.717
330.978
322.912
322.6
322.464
322.334
322.197
322.261
322.493
322.682
322.748
322.909
322.948
322.867
322.653
322.51
322.2
322.005
321.876
321.845
321.942
322.16
313.743
313.568
313.514
313.429
313.328
313.37
313.502
313.643
313.651
313.775
313.796
313.739
313.609
313.525
313.344
313.21
313.149
313.118
313.178
313.319
304.602
304.542
304.531
304.51
304.464
304.483
304.524
304.573
304.572
304.613
304.635
304.611
304.569
304.532
304.463
304.429
304.413
304.401
304.413
304.451
370.795
369.95
369.189
368.688
368.607
368.69
369.102
369.603
369.866
370.235
370.26
370.005
369.542
368.779
368.009
367.354
367.036
366.955
367.238
367.874
361.31
360.596
359.931
359.494
359.427
359.464
359.83
360.283
360.515
360.834
360.867
360.657
360.272
359.632
358.98
358.425
358.171
358.097
358.347
358.915
351.841
351.226
350.697
350.337
350.243
350.291
350.591
350.978
351.196
351.445
351.475
351.308
350.991
350.481
349.94
349.481
349.283
349.231
349.395
349.896
342.383
341.884
341.476
341.199
341.083
341.11
341.386
341.683
341.877
342.083
342.104
341.983
341.738
341.308
340.872
340.509
340.366
340.34
340.433
340.852
332.965
332.568
332.245
332.057
331.954
331.973
332.201
332.404
332.563
332.722
332.741
332.651
332.47
332.141
331.807
331.533
331.425
331.434
331.461
331.805
323.54
323.246
323.032
322.906
322.828
322.864
323.009
323.152
323.265
323.389
323.384
323.344
323.188
322.955
322.738
322.55
322.464
322.474
322.487
322.742
314.139
313.957
313.821
313.743
313.71
313.726
313.815
313.9
313.957
314.069
314.019
314.024
313.919
313.775
313.658
313.537
313.492
313.497
313.494
313.679
304.746
304.679
304.632
304.603
304.601
304.601
304.635
304.663
304.671
304.718
304.684
304.697
304.666
304.622
304.569
304.534
304.527
304.532
304.527
304.598
372.678
371.819
371.099
370.467
370.293
370.273
370.596
370.977
371.35
371.617
371.534
371.307
370.917
370.315
369.698
369.158
368.785
368.804
369.093
369.634
362.918
362.212
361.578
360.998
360.877
360.868
361.142
361.46
361.799
362.025
361.945
361.771
361.451
360.951
360.437
359.984
359.701
359.714
359.958
360.411
353.211
352.626
352.09
351.585
351.481
351.478
351.695
351.979
352.274
352.458
352.395
352.259
352.002
351.597
351.156
350.798
350.588
350.588
350.795
351.17
343.518
343.023
342.623
342.184
342.102
342.083
342.286
342.518
342.772
342.883
342.872
342.77
342.55
342.198
341.868
341.579
341.433
341.438
341.611
341.904
333.853
333.453
333.161
332.808
332.743
332.706
332.886
333.061
333.257
333.335
333.351
333.283
333.106
332.812
332.585
332.383
332.233
332.253
332.408
332.613
324.197
323.885
323.704
323.444
323.388
323.351
323.505
323.623
323.737
323.79
323.833
323.788
323.662
323.423
323.306
323.154
323.038
323.052
323.18
323.324
314.537
314.341
314.25
314.091
314.046
314.016
314.114
314.188
314.235
314.264
314.311
314.291
314.208
314.045
314.014
313.925
313.839
313.867
313.919
313.997
304.874
304.813
304.782
304.727
304.706
304.692
304.726
304.757
304.771
304.79
304.792
304.803
304.769
304.698
304.702
304.667
304.64
304.654
304.673
304.702
374.619
373.666
372.91
372.284
372.09
372.032
372.193
372.496
372.827
372.896
372.953
372.605
372.17
371.713
371.179
370.765
370.483
370.574
370.923
371.566
364.599
363.8
363.148
362.555
362.445
362.363
362.512
362.753
363.074
363.15
363.183
362.901
362.544
362.141
361.712
361.361
361.129
361.225
361.546
362.063
354.605
353.964
353.4
352.864
352.804
352.71
352.85
353.027
353.342
353.425
353.468
353.221
352.916
352.58
352.213
351.947
351.775
351.848
352.129
352.545
344.638
344.148
343.687
343.197
343.162
343.082
343.199
343.339
343.638
343.722
343.743
343.536
343.291
343.021
342.724
342.512
342.41
342.457
342.679
343.012
334.716
334.361
333.981
333.561
333.545
333.479
333.591
333.677
333.936
334.03
334.001
333.865
333.691
333.485
333.252
333.071
333.026
333.029
333.211
333.478
324.828
324.583
324.279
323.968
323.956
323.9
323.981
324.051
324.258
324.311
324.285
324.198
324.084
323.929
323.765
323.623
323.626
323.634
323.75
323.94
314.924
314.775
314.586
314.394
314.377
314.353
314.393
314.439
314.573
314.598
314.588
314.528
314.471
314.365
314.269
314.195
314.199
314.204
314.283
314.407
305
304.946
304.895
304.82
304.818
304.808
304.822
304.833
304.9
304.895
304.885
304.865
304.862
304.818
304.782
304.769
304.765
304.756
304.801
304.836
376.511
375.558
374.695
374.156
373.76
373.764
373.777
374.033
374.162
374.316
374.189
373.957
373.631
373.035
372.704
372.295
372.127
372.232
372.765
373.334
366.237
365.405
364.692
364.181
363.857
363.849
363.875
364.093
364.216
364.342
364.262
364.054
363.784
363.281
363
362.669
362.547
362.65
363.097
363.587
356.013
355.304
354.716
354.233
353.993
353.981
353.986
354.201
354.311
354.4
354.352
354.181
353.947
353.536
353.302
353.043
352.939
353.053
353.42
353.841
345.826
345.238
344.76
344.348
344.141
344.12
344.118
344.307
344.437
344.47
344.448
344.321
344.127
343.794
343.625
343.405
343.346
343.432
343.738
344.094
335.621
335.183
334.803
334.464
334.303
334.297
334.299
334.438
334.559
334.588
334.567
334.477
334.295
334.085
333.947
333.745
333.735
333.796
334.013
334.318
325.434
325.13
324.863
324.611
324.493
324.484
324.499
324.587
324.685
324.72
324.688
324.639
324.485
324.374
324.253
324.115
324.127
324.161
324.288
324.525
315.271
315.097
314.92
314.788
314.686
314.682
314.704
314.753
314.825
314.839
314.825
314.79
314.673
314.643
314.554
314.487
314.492
314.524
314.596
314.738
305.12
305.053
304.998
304.958
304.913
304.907
304.936
304.939
304.971
304.981
304.966
304.961
304.917
304.908
304.882
304.854
304.859
304.87
304.9
304.944
378.4
377.352
376.442
375.828
375.385
375.316
375.207
375.296
375.402
375.572
375.391
375.341
375.019
374.421
374.13
373.792
373.733
373.927
374.397
374.986
367.837
366.941
366.153
365.609
365.215
365.174
365.076
365.172
365.253
365.426
365.254
365.235
364.976
364.445
364.21
363.918
363.928
364.082
364.479
364.997
357.334
356.558
355.915
355.451
355.112
355.067
354.994
355.091
355.171
355.285
355.143
355.162
354.949
354.499
354.332
354.076
354.124
354.225
354.577
354.98
346.88
346.226
345.717
345.346
345.043
344.996
344.949
345.054
345.119
345.204
345.062
345.118
344.93
344.568
344.463
344.256
344.298
344.373
344.677
344.969
336.444
335.933
335.531
335.273
335.013
334.979
334.955
335.045
335.089
335.122
335.03
335.1
334.927
334.666
334.601
334.427
334.485
334.545
334.763
334.971
326.013
325.682
325.359
325.188
324.99
324.968
324.969
325.069
325.076
325.087
325.031
325.093
324.962
324.76
324.741
324.604
324.647
324.693
324.842
324.961
315.603
315.429
315.224
315.121
315
314.994
314.999
315.063
315.067
315.086
315.049
315.059
314.998
314.866
314.852
314.785
314.806
314.83
314.925
314.979
305.232
305.187
305.1
305.059
305.022
305.036
305.039
305.043
305.049
305.054
305.046
305.043
305.02
304.99
304.979
304.953
304.965
304.969
305.002
305.027
379.636
378.635
377.743
377.063
376.708
376.315
376.216
376.339
376.369
376.543
376.327
376.378
375.943
375.581
375.236
375.009
374.941
375.147
375.59
376.385
368.859
368.031
367.232
366.62
366.351
365.993
365.896
366.018
366.038
366.232
366.039
366.118
365.733
365.41
365.126
364.933
364.899
365.093
365.488
366.153
358.151
357.512
356.784
356.261
356.046
355.729
355.631
355.751
355.787
355.95
355.807
355.894
355.557
355.292
355.077
354.897
354.895
355.047
355.399
355.929
347.492
347.031
346.397
345.949
345.792
345.525
345.441
345.53
345.603
345.721
345.64
345.69
345.416
345.193
345.053
344.883
344.885
345.015
345.331
345.729
336.888
336.56
336.069
335.68
335.571
335.37
335.316
335.377
335.463
335.52
335.493
335.518
335.298
335.125
335.028
334.875
334.908
334.987
335.251
335.545
326.324
326.124
325.759
325.462
325.389
325.226
325.206
325.264
325.341
325.351
325.359
325.378
325.196
325.076
324.999
324.877
324.926
324.992
325.171
325.378
315.792
315.68
315.465
315.275
315.244
315.121
315.13
315.162
315.228
315.22
315.236
315.231
315.132
315.053
314.982
314.933
314.981
315.008
315.117
315.239
305.277
305.259
305.185
305.124
305.113
305.05
305.073
305.089
305.116
305.095
305.104
305.1
305.08
305.051
305.004
305
305.029
305.027
305.069
305.102
)
;

boundaryField
{
    hotSide
    {
        type            fixedGradient;
        gradient        nonuniform List<scalar> 
400
(
538.765
541.484
547.597
557.012
569.387
584.231
601.018
619.266
638.576
658.635
679.204
700.111
721.233
742.489
763.83
785.233
806.692
828.215
849.813
871.497
516.972
520.035
526.732
536.949
550.271
566.118
583.887
603.045
623.162
643.912
665.053
686.417
707.888
729.396
750.904
772.403
793.902
815.425
836.994
858.633
504.259
507.988
515.308
526.091
539.923
556.225
574.395
593.895
614.29
635.246
656.519
677.939
699.395
720.822
742.194
763.51
784.794
806.076
827.392
848.772
500.025
504.721
512.719
523.886
537.865
554.155
572.219
591.556
611.746
632.456
653.439
674.524
695.6
716.61
737.534
758.382
779.185
799.983
820.819
841.73
501.938
507.773
516.541
528.101
542.151
558.278
576.026
594.948
614.651
634.817
655.201
675.636
696.021
716.308
736.491
756.596
776.664
796.745
816.89
837.143
507.343
514.387
524.038
536.139
550.418
566.516
584.03
602.556
621.727
641.237
660.857
680.434
699.891
719.204
738.397
757.518
776.628
795.793
815.074
834.522
514.051
522.312
532.95
545.785
560.548
576.892
594.428
612.759
631.523
650.417
669.23
687.84
706.209
724.364
742.373
760.326
778.315
796.426
814.731
833.287
520.376
529.804
541.483
555.214
570.707
587.598
605.471
623.894
642.471
660.884
678.932
696.539
713.734
730.62
747.336
764.027
780.822
797.831
815.136
832.798
524.983
535.435
548.109
562.79
579.165
596.833
615.32
634.118
652.756
670.867
688.254
704.899
720.929
736.551
751.993
767.463
783.13
799.119
815.521
832.392
526.8
538.003
551.468
566.972
584.187
602.673
621.889
641.233
660.126
678.126
695.029
710.886
725.938
740.507
754.909
769.406
784.197
799.417
815.154
831.459
525.07
536.606
550.474
566.451
584.2
603.255
623.027
642.843
662.038
680.103
696.823
712.298
726.85
740.88
754.758
768.779
783.154
798.022
813.468
829.539
519.48
530.837
544.598
560.54
578.318
597.457
617.358
637.339
656.728
675.012
691.966
707.681
722.467
736.718
750.8
765.01
779.56
794.594
810.202
826.431
510.279
520.952
534.112
549.534
566.869
585.644
605.284
625.153
644.647
663.3
680.883
697.422
713.131
728.318
743.292
758.319
773.605
789.299
805.499
822.263
498.318
507.906
520.115
534.725
551.385
569.628
588.908
608.648
628.315
647.495
665.951
683.631
700.637
717.166
733.443
749.688
766.088
782.788
799.896
817.482
485.023
493.27
504.367
518.105
534.125
551.95
571.037
590.836
610.85
630.691
650.105
668.985
687.345
705.288
722.966
740.549
758.198
776.053
794.224
812.788
472.399
479.19
489.166
502.133
517.703
535.35
554.492
574.561
595.062
615.609
635.937
655.903
675.466
694.671
713.616
732.434
751.263
770.239
789.47
809.034
463.111
468.462
477.396
489.729
505.017
522.647
541.963
562.356
583.32
604.464
625.519
646.327
666.819
687.006
706.955
726.77
746.579
766.511
786.676
807.148
460.373
464.465
472.457
484.179
499.127
516.612
535.914
556.396
577.543
598.973
620.419
641.717
662.785
683.613
704.245
724.768
745.297
765.954
786.848
808.045
467.041
470.223
477.358
488.294
502.533
519.389
538.152
558.195
579.022
600.258
621.642
643.005
664.256
685.366
706.359
727.3
748.285
769.42
790.799
812.479
483.978
486.643
492.994
502.909
515.978
531.623
549.227
568.229
588.169
608.693
629.543
650.545
671.592
692.637
713.681
734.762
755.946
777.31
798.921
820.82
)
;
    }
    coldSide
    {
        type            mixed;
        refValue        uniform 300;
        refGradient     uniform 0;
        valueFraction   uniform 0.991591;
        source          uniform 0;
        value           nonuniform List<scalar> 
400
(
300.029
300.029
300.029
300.03
300.03
300.031
300.032
300.033
300.034
300.035
300.036
300.037
300.038
300.039
300.04
300.041
300.042
300.043
300.044
300.044
300.028
300.028
300.029
300.029
300.03
300.031
300.031
300.032
300.033
300.034
300.035
300.036
300.037
300.038
300.039
300.04
300.042
300.042
300.044
300.044
300.028
300.028