/*--------------------------------*- C++ -*----------------------------------*\
| =========                 |                                                 |
| \\      /  F ield         | OpenFOAM: The Open Source CFD Toolbox           |
|  \\    /   O peration     | Version:  2212                                  |
|   \\  /    A nd           | Website:  www.openfoam.com                      |
|    \\/     M anipulation  |                                                 |
\*---------------------------------------------------------------------------*/
FoamFile
{
    version     2.0;
    format      ascii;
    arch        "LSB;label=32;scalar=64";
    class       volScalarField;
    location    "0";
    object      T;
}
// * * * * * * * * * * * * * * * * * * * * * * * * * * * * * * * * * * * * * //

dimensions      [0 0 0 1 0 0 0];

internalField   nonuniform List<scalar> 
3200
(
335.03
335.259
335.757
336.639
337.483
337.719
337.783
337.937
338.139
337.982
337.797
337.715
337.428
337.026
336.73
335.824
335.164
334.796
333.978
333.319
330.609
330.755
331.214
331.982
332.759
332.934
333.013
333.107
333.301
333.171
332.977
332.856
332.676
332.352
332.12
331.325
330.718
330.426
329.738
329.113
326.046
326.146
326.612
327.214
327.924
328.071
328.137
328.209
328.348
328.246
328.069
327.947
327.818
327.547
327.387
326.706
326.179
325.957
325.351
324.778
321.412
321.453
321.947
322.384
322.956
323.118
323.138
323.195
323.305
323.249
323.104
322.966
322.907
322.688
322.579
321.987
321.546
321.357
320.868
320.345
316.681
316.745
317.194
317.476
317.951
318.065
318.046
318.126
318.208
318.21
318.091
317.928
317.915
317.742
317.72
317.16
316.835
316.72
316.292
315.883
311.957
311.989
312.377
312.476
312.902
312.904
312.948
312.993
313.045
313.093
312.965
312.794
312.862
312.729
312.753
312.312
312.074
311.99
311.695
311.363
307.188
307.222
307.436
307.468
307.767
307.768
307.805
307.819
307.839
307.941
307.794
307.688
307.796
307.667
307.721
307.395
307.273
307.232
307.051
306.832
302.411
302.406
302.49
302.505
302.597
302.601
302.619
302.638
302.603
302.672
302.613
302.568
302.64
302.575
302.61
302.469
302.448
302.427
302.368
302.28
335.951
336.396
337.046
337.605
338.093
338.556
338.903
339.273
339.228
339.095
338.869
338.825
338.459
338.172
337.593
337.084
336.328
335.62
335.099
334.259
331.374
331.746
332.318
332.774
333.231
333.58
333.924
334.208
334.22
334.115
333.923
333.881
333.56
333.288
332.85
332.319
331.719
331.083
330.669
329.981
326.694
326.982
327.452
327.894
328.26
328.588
328.86
329.048
329.048
329.049
328.903
328.833
328.587
328.322
328.005
327.492
327.041
326.496
326.189
325.546
321.922
322.162
322.576
322.959
323.19
323.459
323.676
323.815
323.824
323.886
323.8
323.688
323.492
323.276
323.077
322.625
322.295
321.819
321.556
321.031
317.112
317.291
317.596
317.952
318.091
318.293
318.457
318.619
318.564
318.664
318.648
318.49
318.323
318.159
318.058
317.657
317.436
317.017
316.878
316.407
312.256
312.369
312.572
312.881
312.964
313.092
313.245
313.332
313.248
313.372
313.395
313.247
313.127
313.017
312.97
312.678
312.492
312.17
312.109
311.752
307.366
307.443
307.521
307.76
307.788
307.865
307.978
308.013
307.947
308.062
308.074
307.984
307.893
307.827
307.833
307.618
307.525
307.332
307.314
307.056
302.484
302.492
302.519
302.613
302.612
302.635
302.67
302.681
302.676
302.698
302.715
302.696
302.649
302.634
302.627
302.565
302.509
302.453
302.454
302.367
337.15
337.535
338.293
338.889
339.57
339.922
340.315
340.584
340.846
340.594
340.516
340.082
340.084
339.666
339.117
338.367
337.677
337.012
336.268
335.702
332.353
332.643
333.339
333.849
334.456
334.763
335.096
335.352
335.59
335.379
335.284
334.926
334.928
334.607
334.146
333.476
332.866
332.266
331.636
331.211
327.457
327.74
328.368
328.745
329.283
329.528
329.83
330.027
330.192
330.077
329.986
329.67
329.665
329.449
329.116
328.476
327.964
327.448
326.896
326.601
322.532
322.811
323.309
323.615
324.015
324.256
324.483
324.681
324.798
324.746
324.647
324.324
324.351
324.193
323.963
323.426
322.971
322.559
322.099
321.905
317.6
317.834
318.18
318.428
318.709
318.922
319.087
319.272
319.352
319.328
319.242
318.966
318.992
318.881
318.732
318.314
317.986
317.58
317.238
317.127
312.631
312.792
312.973
313.204
313.387
313.594
313.677
313.785
313.854
313.89
313.776
313.597
313.638
313.551
313.424
313.137
312.927
312.611
312.377
312.317
307.605
307.723
307.78
307.958
308.025
308.175
308.256
308.246
308.316
308.358
308.286
308.198
308.198
308.179
308.072
307.886
307.801
307.609
307.473
307.436
302.539
302.607
302.62
302.666
302.701
302.767
302.798
302.752
302.805
302.797
302.781
302.739
302.738
302.746
302.709
302.644
302.632
302.535
302.504
302.484
338.366
339.161
339.801
340.444
341.129
341.306
341.932
341.92
342.32
342.157
342.062
341.851
341.717
341.149
340.607
339.977
339.167
338.514
337.651
336.961
333.394
334.105
334.646
335.163
335.813
335.919
336.506
336.506
336.87
336.772
336.644
336.497
336.292
335.882
335.407
334.871
334.168
333.54
332.836
332.276
328.378
329.015
329.442
329.843
330.419
330.479
330.995
330.968
331.341
331.314
331.138
331.064
330.807
330.479
330.137
329.644
329.076
328.519
327.913
327.5
323.319
323.847
324.16
324.508
324.975
325.002
325.456
325.443
325.756
325.708
325.555
325.557
325.284
325.043
324.787
324.353
323.96
323.434
322.961
322.634
318.155
318.618
318.829
319.137
319.469
319.492
319.848
319.886
320.121
320.013
319.933
319.951
319.699
319.556
319.341
319.02
318.723
318.235
317.944
317.717
312.962
313.344
313.476
313.713
313.953
313.965
314.245
314.273
314.452
314.315
314.27
314.272
314.086
314.02
313.828
313.653
313.452
313.048
312.881
312.731
307.776
308.011
308.123
308.252
308.389
308.361
308.593
308.604
308.743
308.613
308.59
308.591
308.456
308.472
308.313
308.219
308.074
307.845
307.758
307.677
302.597
302.702
302.71
302.776
302.82
302.818
302.887
302.878
302.947
302.893
302.873
302.897
302.832
302.85
302.762
302.75
302.703
302.619
302.615
302.576
339.755
340.558
341.314
341.804
342.628
343.013
343.444
343.713
343.735
343.784
343.722
343.524
343.198
342.627
342.482
341.623
340.774
339.936
339.258
338.217
334.659
335.283
335.937
336.412
337.087
337.425
337.857
338.054
338.102
338.139
338.062
337.881
337.598
337.126
337.025
336.28
335.501
334.775
334.18
333.348
329.492
329.981
330.47
330.931
331.496
331.752
332.14
332.346
332.371
332.408
332.36
332.181
331.948
331.558
331.526
330.86
330.151
329.536
329.031
328.372
324.207
324.632
324.975
325.377
325.822
326.015
326.392
326.503
326.576
326.607
326.605
326.435
326.246
325.908
325.901
325.402
324.768
324.241
323.839
323.315
318.92
319.212
319.495
319.827
320.128
320.262
320.578
320.646
320.782
320.744
320.754
320.604
320.467
320.216
320.246
319.878
319.317
318.92
318.602
318.178
313.547
313.743
313.968
314.232
314.433
314.514
314.739
314.802
314.919
314.846
314.841
314.752
314.677
314.439
314.495
314.279
313.851
313.551
313.31
313.072
308.173
308.282
308.403
308.58
308.71
308.719
308.878
308.913
308.972
308.927
308.89
308.884
308.862
308.654
308.685
308.607
308.333
308.152
308.007
307.892
302.725
302.776
302.811
302.889
302.918
302.913
302.978
302.982
303.024
303.022
302.958
302.964
302.984
302.887
302.909
302.917
302.819
302.736
302.684
302.649
341.121
341.856
342.783
343.426
343.989
344.602
344.921
345.198
345.343
345.536
345.163
345.096
344.61
344.163
343.797
343.084
342.401
341.387
340.733
339.845
335.834
336.402
337.219
337.783
338.276
338.779
339.105
339.374
339.438
339.637
339.29
339.277
338.824
338.438
338.179
337.547
336.949
336.113
335.48
334.79
330.474
330.925
331.612
332.082
332.482
332.883
333.214
333.472
333.509
333.63
333.339
333.344
332.954
332.671
332.473
331.884
331.39
330.743
330.144
329.6
324.983
325.383
325.978
326.348
326.613
326.957
327.284
327.483
327.521
327.604
327.35
327.348
327.041
326.83
326.682
326.197
325.793
325.266
324.765
324.322
319.451
319.829
320.276
320.548
320.712
321.04
321.29
321.441
321.508
321.539
321.329
321.282
321.114
320.937
320.809
320.467
320.128
319.748
319.306
319.006
313.913
314.179
314.518
314.727
314.82
315.066
315.25
315.362
315.433
315.472
315.285
315.236
315.132
315.055
314.904
314.645
314.421
314.132
313.817
313.617
308.389
308.513
308.708
308.869
308.879
309.087
309.168
309.255
309.278
309.328
309.201
309.154
309.064
309.05
308.964
308.796
308.67
308.493
308.296
308.18
302.838
302.842
302.922
302.983
302.972
303.052
303.083
303.088
303.125
303.145
303.079
303.077
303.03
303.012
303.014
302.942
302.927
302.861
302.781
302.741
342.666
343.476
343.973
344.793
345.461
346.032
346.512
346.796
347.016
346.95
346.604
346.475
346.18
345.856
345.14
344.643
343.807
343.148
342.055
341.025
337.125
337.808
338.289
338.962
339.572
340.094
340.459
340.757
340.883
340.832
340.535
340.447
340.21
339.942
339.305
338.859
338.168
337.542
336.654
335.768
331.517
332.078
332.524
333.079
333.586
334.025
334.35
334.611
334.716
334.689
334.403
334.348
334.167
333.914
333.378
333.011
332.444
331.851
331.208
330.448
325.846
326.319
326.7
327.13
327.57
327.938
328.203
328.419
328.525
328.465
328.239
328.234
328.046
327.808
327.386
327.08
326.678
326.117
325.648
325.021
320.158
320.517
320.839
321.116
321.507
321.773
321.965
322.127
322.319
322.124
322.031
322.037
321.888
321.68
321.344
321.155
320.805
320.377
320.035
319.535
314.42
314.721
314.903
315.106
315.415
315.535
315.708
315.842
316.007
315.79
315.787
315.745
315.704
315.512
315.293
315.194
314.891
314.566
314.346
314.023
308.68
308.852
308.958
309.112
309.244
309.318
309.436
309.526
309.654
309.449
309.482
309.452
309.46
309.328
309.202
309.167
308.955
308.722
308.651
308.452
302.921
302.98
302.999
303.065
303.103
303.113
303.138
303.209
303.242
303.155
303.17
303.176
303.179
303.152
303.094
303.063
302.999
302.929
302.905
302.827
343.845
344.556
345.274
346.296
347.039
347.613
348.043
348.435
348.496
348.517
348.384
348.215
347.727
347.247
346.756
346.02
345.18
344.543
343.512
342.579
338.124
338.718
339.356
340.258
340.865
341.395
341.822
342.105
342.193
342.204
342.113
341.967
341.509
341.08
340.703
340.095
339.366
338.818
337.906
337.132
332.36
332.836
333.415
334.176
334.66
335.138
335.506
335.745
335.823
335.806
335.736
335.633
335.225
334.895
334.596
334.073
333.449
333.044
332.214
331.601
326.573
326.915
327.407
328.069
328.446
328.828
329.12
329.347
329.416
329.393
329.303
329.256
328.895
328.648
328.443
328.013
327.486
327.095
326.431
325.977
320.731
320.988
321.357
321.919
322.18
322.455
322.705
322.865
322.968
322.923
322.829
322.805
322.519
322.325
322.173
321.86
321.437
321.151
320.623
320.23
314.846
315.01
315.27
315.718
315.912
316.059
316.288
316.354
316.437
316.4
316.346
316.326
316.135
315.986
315.858
315.645
315.326
315.154
314.802
314.46
308.985
309.023
309.173
309.497
309.58
309.653
309.8
309.83
309.867
309.882
309.862
309.798
309.687
309.636
309.528
309.401
309.199
309.127
308.892
308.701
303.018
303.03
303.07
303.187
303.22
303.223
303.266
303.3
303.295
303.335
303.301
303.262
303.26
303.245
303.187
303.131
303.088
303.076
302.982
302.918
345.063
345.811
346.752
347.816
348.262
348.833
349.374
349.833
350.105
350.148
349.92
349.847
349.217
348.681
348.275
347.504
346.625
345.714
344.957
343.767
339.22
339.857
340.656
341.6
342.008
342.459
342.958
343.361
343.591
343.633
343.44
343.397
342.862
342.361
342.022
341.374
340.567
339.822
339.172
338.169
333.317
333.825
334.494
335.292
335.662
335.995
336.429
336.845
336.997
337.031
336.92
336.898
336.459
335.986
335.672
335.179
334.455
333.815
333.283
332.474
327.359
327.712
328.247
328.934
329.247
329.498
329.898
330.253
330.382
330.376
330.339
330.349
329.948
329.538
329.257
328.906
328.29
327.731
327.331
326.702
321.315
321.523
321.971
322.54
322.817
322.995
323.294
323.599
323.679
323.692
323.688
323.688
323.359
323.006
322.806
322.541
322.081
321.615
321.333
320.834
315.252
315.33
315.687
316.127
316.341
316.454
316.644
316.85
316.938
316.979
316.952
316.976
316.75
316.439
316.314
316.144
315.814
315.47
315.332
314.93
309.179
309.204
309.412
309.72
309.817
309.914
310.016
310.123
310.205
310.188
310.186
310.209
310.085
309.898
309.816
309.705
309.52
309.286
309.247
308.996
303.094
303.075
303.169
303.254
303.288
303.303
303.367
303.408
303.449
303.437
303.425
303.416
303.395
303.325
303.291
303.266
303.205
303.113
303.12
303.034
346.187
347.125
347.914
349.16
349.689
350.3
350.555
351.089
351.407
351.496
351.392
351.25
350.876
350.246
349.8
348.866
348.098
347.242
346.285
345.091
340.206
340.971
341.666
342.75
343.234
343.709
343.955
344.476
344.704
344.8
344.761
344.555
344.313
343.705
343.342
342.56
341.854
341.164
340.278
339.308
334.112
334.718
335.336
336.277
336.726
337.055
337.261
337.775
337.954
338.064
338.037
337.799
337.677
337.118
336.814
336.148
335.561
334.944
334.195
333.436
327.977
328.443
328.969
329.759
330.159
330.363
330.551
331.009
331.1
331.215
331.197
331.019
330.944
330.45
330.175
329.665
329.164
328.661
328.096
327.491
321.79
322.116
322.592
323.215
323.546
323.642
323.79
324.193
324.259
324.311
324.35
324.204
324.1
323.718
323.506
323.095
322.729
322.342
321.936
321.485
315.623
315.799
316.146
316.621
316.841
316.947
316.949
317.305
317.409
317.357
317.447
317.314
317.233
316.971
316.825
316.498
316.297
315.963
315.733
315.415
309.387
309.489
309.722
309.982
310.077
310.23
310.175
310.409
310.488
310.408
310.491
310.403
310.379
310.201
310.116
309.901
309.797
309.548
309.474
309.284
303.163
303.199
303.261
303.347
303.356
303.416
303.43
303.483
303.53
303.477
303.52
303.494
303.482
303.414
303.375
303.313
303.289
303.187
303.173
303.123
347.363
348.172
349.166
350.188
350.934
351.405
352.013
352.449
352.698
352.68
352.579
352.588
352.137
351.442
351.138
350.241
349.493
348.439
347.308
346.291
341.212
341.898
342.767
343.649
344.283
344.673
345.231
345.62
345.828
345.825
345.766
345.757
345.373
344.79
344.513
343.724
343.15
342.206
341.218
340.382
335.025
335.58
336.259
337.05
337.604
337.919
338.376
338.719
338.912
338.92
338.88
338.843
338.534
338.031
337.806
337.14
336.698
335.847
335.04
334.358
328.797
329.184
329.762
330.356
330.845
331.107
331.463
331.786
331.925
331.96
331.919
331.858
331.673
331.24
331.02
330.486
330.127
329.449
328.757
328.189
322.497
322.743
323.173
323.629
324.027
324.252
324.508
324.813
324.884
324.908
324.885
324.851
324.731
324.386
324.203
323.738
323.496
322.944
322.405
321.997
316.129
316.249
316.554
316.896
317.148
317.323
317.473
317.772
317.834
317.8
317.806
317.807
317.713
317.485
317.324
316.961
316.807
316.414
316.037
315.751
309.723
309.761
309.934
310.16
310.271
310.395
310.474
310.686
310.736
310.703
310.682
310.727
310.653
310.54
310.428
310.181
310.116
309.89
309.662
309.476
303.259
303.28
303.302
303.408
303.441
303.469
303.507
303.581
303.605
303.587
303.576
303.623
303.581
303.541
303.501
303.396
303.395
303.315
303.245
303.199
348.44
349.307
350.207
351.293
352.039
352.766
353.333
353.676
354.02
353.946
353.933
353.992
353.297
352.826
352.325
351.647
350.658
349.434
348.458
347.478
342.151
342.815
343.638
344.59
345.254
345.887
346.398
346.72
346.968
346.951
346.935
346.956
346.407
345.968
345.557
344.927
344.096
343.038
342.196
341.39
335.798
336.29
336.974
337.834
338.391
338.925
339.363
339.702
339.875
339.89
339.852
339.864
339.366
339.043
338.693
338.141
337.462
336.543
335.829
335.198
329.361
329.781
330.243
330.99
331.483
331.939
332.273
332.631
332.727
332.772
332.686
332.676
332.249
332.021
331.75
331.3
330.758
329.995
329.406
328.944
322.898
323.199
323.506
324.088
324.535
324.868
325.14
325.476
325.529
325.547
325.467
325.447
325.127
324.977
324.742
324.381
323.985
323.396
322.915
322.605
316.375
316.6
316.803
317.186
317.566
317.777
317.977
318.268
318.271
318.28
318.226
318.221
317.963
317.884
317.694
317.442
317.151
316.773
316.407
316.223
309.818
309.984
310.083
310.33
310.58
310.688
310.824
310.983
310.985
310.994
310.926
310.95
310.769
310.778
310.623
310.511
310.327
310.112
309.857
309.788
303.282
303.352
303.394
303.465
303.553
303.596
303.638
303.679
303.694
303.706
303.658
303.691
303.593
303.65
303.564
303.512
303.47
303.412
303.299
303.274
349.513
350.364
351.491
352.349
353.266
353.643
354.451
354.85
354.91
355.019
354.922
355.041
354.365
353.958
353.244
352.8
351.784
350.511
349.514
348.554
343.093
343.753
344.735
345.522
346.315
346.63
347.371
347.713
347.773
347.897
347.778
347.87
347.283
346.955
346.368
345.895
345.073
343.989
343.096
342.292
336.578
337.104
337.892
338.622
339.303
339.529
340.184
340.519
340.567
340.689
340.566
340.612
340.171
339.911
339.386
338.979
338.272
337.377
336.614
335.956
330.023
330.396
331.047
331.7
332.197
332.373
332.941
333.256
333.265
333.41
333.255
333.308
332.985
332.785
332.335
331.993
331.386
330.689
330.054
329.525
323.363
323.678
324.147
324.742
325.088
325.181
325.711
325.929
325.901
326.018
325.893
325.981
325.734
325.56
325.229
324.936
324.51
323.951
323.434
323.064
316.722
316.965
317.298
317.711
317.975
318.02
318.394
318.569
318.563
318.554
318.526
318.619
318.401
318.277
318.073
317.829
317.544
317.149
316.793
316.535
310.071
310.184
310.447
310.653
310.808
310.846
311.057
311.161
311.167
311.136
311.115
311.228
311.068
310.995
310.896
310.73
310.554
310.326
310.075
309.931
303.345
303.409
303.521
303.57
303.621
303.635
303.716
303.737
303.767
303.754
303.713
303.786
303.737
303.699
303.652
303.579
303.542
303.472
303.351
303.325
350.482
351.436
352.398
353.334
354.304
354.797
355.485
355.94
355.994
356.125
356.192
356.142
355.797
355.097
354.401
353.711
353.007
351.736
350.61
349.399
343.89
344.757
345.555
346.35
347.236
347.628
348.204
348.678
348.687
348.812
348.897
348.833
348.541
347.931
347.312
346.732
346.171
344.967
344.039
343.08
337.226
337.987
338.656
339.297
340.103
340.423
340.893
341.298
341.316
341.465
341.511
341.489
341.189
340.718
340.142
339.678
339.204
338.23
337.413
336.663
330.516
331.154
331.718
332.225
332.891
333.151
333.52
333.869
333.898
334.048
334.072
334.029
333.819
333.414
332.896
332.569
332.168
331.404
330.727
330.178
323.775
324.294
324.73
325.1
325.599
325.836
326.108
326.396
326.437
326.572
326.598
326.508
326.381
326.032
325.623
325.399
325.084
324.483
323.986
323.564
317.016
317.397
317.757
317.959
318.31
318.494
318.649
318.887
318.956
319.022
319.051
318.98
318.908
318.613
318.277
318.168
317.944
317.549
317.204
316.89
310.203
310.438
310.711
310.833
311.033
311.099
311.208
311.356
311.396
311.415
311.437
311.416
311.395
311.173
310.984
310.943
310.79
310.573
310.366
310.181
303.397
303.503
303.571
303.622
303.698
303.725
303.76
303.828
303.83
303.815
303.85
303.808
303.838
303.751
303.677
303.676
303.605
303.559
303.489
303.406
350.995
352.216
353.26
354.028
355.244
355.756
356.424
356.669
356.93
357.251
357.288
356.951
356.653
356.214
355.276
354.529
353.877
352.683
351.424
350.183
344.344
345.407
346.318
346.983
347.998
348.461
349.087
349.286
349.512
349.793
349.844
349.56
349.241
348.847
348.134
347.482
346.888
345.852
344.751
343.715
337.635
338.549
339.349
339.876
340.724
341.11
341.628
341.839
342.002
342.289
342.343
342.086
341.775
341.45
340.883
340.325
339.847
338.918
337.999
337.145
330.9
331.633
332.278
332.709
333.384
333.71
334.13
334.316
334.469
334.726
334.764
334.574
334.34
334.069
333.547
333.131
332.776
331.961
331.229
330.576
324.11
324.66
325.182
325.477
326.027
326.284
326.584
326.748
326.868
327.081
327.092
327.007
326.819
326.557
326.148
325.829
325.615
324.951
324.345
323.879
317.321
317.66
318.029
318.214
318.683
318.818
319.01
319.172
319.225
319.359
319.342
319.358
319.207
319.025
318.731
318.454
318.357
317.865
317.428
317.076
310.444
310.617
310.839
310.946
311.265
311.301
311.428
311.539
311.568
311.632
311.635
311.641
311.544
311.434
311.285
311.098
311.066
310.742
310.466
310.243
303.524
303.557
303.638
303.67
303.795
303.771
303.84
303.892
303.892
303.899
303.895
303.906
303.878
303.826
303.776
303.741
303.687
303.598
303.505
303.443
351.76
352.892
354.039
354.92
355.996
356.669
357.25
357.566
357.837
358.176
358.331
357.969
357.473
357.035
356.18
355.562
354.707
353.394
352.091
351.089
345.058
345.997
346.964
347.772
348.696
349.288
349.783
350.056
350.305
350.569
350.768
350.442
349.995
349.662
348.873
348.374
347.63
346.477
345.298
344.485
338.279
339.043
339.828
340.581
341.365
341.848
342.246
342.461
342.707
342.893
343.08
342.858
342.428
342.244
341.508
341.111
340.413
339.469
338.457
337.772
331.437
332.067
332.67
333.273
333.94
334.331
334.658
334.784
335.03
335.151
335.341
335.176
334.811
334.705
334.084
333.772
333.212
332.381
331.551
330.989
324.498
325.003
325.451
325.883
326.451
326.745
327.024
327.083
327.257
327.359
327.554
327.423
327.142
327.083
326.588
326.32
325.936
325.273
324.583
324.163
317.533
317.911
318.195
318.524
318.937
319.127
319.299
319.329
319.459
319.591
319.698
319.606
319.437
319.397
319.051
318.845
318.606
318.1
317.577
317.329
310.563
310.76
310.935
311.113
311.36
311.486
311.572
311.604
311.656
311.763
311.841
311.797
311.669
311.678
311.448
311.35
311.235
310.889
310.57
310.445
303.544
303.608
303.663
303.712
303.802
303.844
303.881
303.896
303.909
303.94
303.979
303.97
303.916
303.923
303.839
303.806
303.768
303.642
303.529
303.514
352.377
353.4
354.679
355.629
356.578
357.315
357.906
358.406
358.554
358.731
358.936
358.582
358.333
357.804
357.091
356.285
355.24
354.02
352.716
351.525
345.534
346.423
347.523
348.365
349.203
349.823
350.376
350.748
350.909
351.097
351.245
350.966
350.753
350.323
349.677
348.996
348.099
347.043
345.852
344.86
338.679
339.375
340.371
341.041
341.764
342.279
342.744
343.04
343.178
343.376
343.486
343.289
343.088
342.766
342.157
341.599
340.886
339.934
338.933
338.131
331.745
332.271
333.12
333.682
334.218
334.694
335.063
335.326
335.408
335.641
335.666
335.533
335.363
335.118
334.578
334.123
333.573
332.793
331.958
331.329
324.766
325.164
325.838
326.261
326.652
327.075
327.338
327.551
327.621
327.816
327.793
327.701
327.522
327.358
326.957
326.608
326.215
325.574
324.913
324.462
317.724
317.977
318.524
318.795
319.072
319.432
319.592
319.732
319.8
319.919
319.885
319.827
319.684
319.591
319.295
319.054
318.775
318.286
317.833
317.518
310.652
310.778
311.194
311.312
311.468
311.697
311.784
311.886
311.945
311.936
311.934
311.906
311.807
311.792
311.581
311.438
311.309
310.989
310.684
310.55
303.573
303.598
303.763
303.799
303.856
303.914
303.944
303.99
304.001
303.993
303.978
303.997
303.985
303.947
303.879
303.839
303.799
303.691
303.575
303.53
352.655
354.067
355.221
356.253
357.137
357.974
358.507
359.332
359.102
359.238
359.467
359.106
358.623
358.411
357.694
356.63
355.744
354.508
353.237
352.108
345.796
346.995
348.037
348.89
349.671
350.425
350.86
351.596
351.393
351.517
351.735
351.362
350.984
350.772
350.17
349.3
348.523
347.44
346.312
345.33
338.868
339.907
340.749
341.464
342.16
342.817
343.121
343.748
343.612
343.688
343.926
343.56
343.3
343.096
342.613
341.795
341.243
340.292
339.329
338.476
331.897
332.75
333.432
334.023
334.579
335.126
335.382
335.814
335.79
335.852
336.081
335.701
335.578
335.342
334.996
334.279
333.874
333.073
332.247
331.596
324.848
325.467
326.026
326.521
326.969
327.356
327.55
327.879
327.944
328.017
328.142
327.817
327.76
327.524
327.301
326.745
326.457
325.806
325.131
324.66
317.793
318.173
318.63
318.997
319.304
319.582
319.691
319.957
320.001
320.037
320.142
319.919
319.835
319.703
319.567
319.151
318.977
318.448
317.938
317.661
310.707
310.889
311.216
311.393
311.624
311.744
311.822
311.986
312.009
312.046
312.109
311.998
311.903
311.837
311.748
311.516
311.424
311.048
310.781
310.624
303.6
303.638
303.772
303.806
303.903
303.945
303.947
304.019
304.012
304.051
304.065
304.046
303.994
303.961
303.929
303.848
303.854
303.705
303.617
303.548
353.191
354.261
355.469
356.411
357.489
358.409
359.159
359.708
359.703
359.863
360.26
359.825
359.251
358.888
358.206
357.226
356.341
355.306
353.774
352.924
346.254
347.168
348.225
349.03
349.964
350.765
351.451
351.933
351.903
352.055
352.428
352.026
351.524
351.243
350.645
349.828
349.007
348.112
346.756
346.138
339.227
340.039
340.901
341.636
342.42
343.06
343.698
344.075
344.045
344.157
344.504
344.171
343.733
343.543
342.995
342.313
341.576
340.816
339.674
339.183
332.155
332.817
333.57
334.146
334.788
335.302
335.869
336.158
336.142
336.214
336.556
336.266
335.875
335.745
335.294
334.711
334.092
333.469
332.513
332.156
325.069
325.522
326.219
326.562
327.122
327.515
327.99
328.207
328.187
328.246
328.522
328.264
327.969
327.895
327.524
327.083
326.553
326.07
325.315
325.059
317.964
318.244
318.748
318.964
319.394
319.679
320.058
320.172
320.169
320.236
320.423
320.192
319.992
319.998
319.709
319.351
318.999
318.622
318.08
317.932
310.795
310.948
311.277
311.38
311.635
311.846
312.073
312.113
312.109
312.194
312.288
312.137
312.017
311.994
311.826
311.647
311.456
311.164
310.871
310.789
303.63
303.679
303.791
303.819
303.896
303.976
304.036
304.064
304.073
304.102
304.111
304.061
304.017
304.019
303.963
303.904
303.863
303.749
303.648
303.606
353.256
354.496
355.749
356.785
357.919
358.743
359.539
360.056
360.037
360.015
360.456
359.809
359.624
359.135
358.419
357.569
356.611
355.402
354.091
353.209
346.303
347.355
348.4
349.344
350.324
351.049
351.733
352.204
352.147
352.163
352.564
352.008
351.798
351.382
350.809
350.025
349.245
348.199
347.017
346.311
339.29
340.136
341.037
341.823
342.675
343.288
343.857
344.291
344.251
344.259
344.672
344.13
343.94
343.584
343.121
342.446
341.737
340.936
339.909
339.359
332.195
332.917
333.679
334.272
334.929
335.442
335.939
336.317
336.313
336.314
336.696
336.189
336.005
335.721
335.375
334.821
334.18
333.605
332.732
332.307
325.091
325.646
326.267
326.732
327.128
327.602
327.99
328.306
328.31
328.262
328.611
328.212
328.017
327.817
327.614
327.119
326.652
326.2
325.497
325.182
317.93
318.347
318.797
319.105
319.365
319.732
320.043
320.237
320.252
320.195
320.527
320.178
320.026
319.889
319.76
319.4
319.065
318.732
318.231
318.013
310.754
311.027
311.304
311.461
311.611
311.849
312.067
312.161
312.19
312.105
312.367
312.114
312.045
311.926
311.893
311.696
311.481
311.265
310.919
310.817
303.606
303.718
303.792
303.835
303.901
303.967
304.035
304.069
304.086
304.057
304.16
304.047
304.035
303.981
304.009
303.919
303.855
303.788
303.658
303.633
)
;

boundaryField
{
    hotSide
    {
        type            fixedGradient;
        gradient        nonuniform List<scalar> 
400
(
344.976
360.627
376.137
391.436
406.455
421.122
435.368
449.123
462.319
474.888
486.766
497.892
508.209
517.66
526.198
533.777
540.357
545.904
550.39
553.793
352.266
368.386
384.367
400.137
415.625
430.757
445.46
459.665
473.298
486.292
498.58
510.098
520.787
530.589
539.455
547.336
554.191
559.986
564.69
568.281
358.582
375.13
391.542
407.743
423.661
439.22
454.345
468.963
483.001
496.388
509.056
520.938
531.974
542.104
551.276
559.441
566.557
572.586
577.499
581.27
363.904
380.837
397.636
414.226
430.532
446.476
461.983
476.977
491.383
505.129
518.143
530.358
541.712
552.143
561.598
570.027
577.385
583.634
588.742
592.685
368.223
385.493
402.633
419.566
436.215
452.502
468.348
483.676
498.41
512.476
525.8
538.315
549.955
560.659
570.371
579.039
586.618
593.069
598.36
602.463
371.535
389.095
406.527
423.755
440.699
457.281
473.421
489.039
504.059
518.403
532
544.778
556.67
567.615
577.554
586.436
594.214
600.847
606.303
610.553
373.846
391.643
409.317
426.79
443.98
460.808
477.193
493.055
508.315
522.896
536.723
549.725
561.833
572.985
583.121
592.188
600.139
606.933
612.535
616.917
375.165
393.148
411.011
428.675
446.06
463.083
479.664
495.721
511.175
525.947
539.961
553.145
565.431
576.753
587.053
596.275
604.373
611.303
617.031
621.529
375.508
393.622
411.62
429.423
446.948
464.114
480.839
497.041
512.64
527.555
541.712
555.036
567.458
578.913
589.341
598.687
606.902
613.944
619.776
624.371
374.893
393.083
411.161
429.046
446.658
463.914
480.73
497.025
512.718
527.729
541.981
555.401
567.918
579.467
589.987
599.423
607.725
614.851
620.765
625.436
373.339
391.55
409.652
427.565
445.208
462.498
479.352
495.688
511.424
526.481
540.781
554.251
566.82
578.422
588.997
598.488
606.847
614.03
620
624.728
370.87
389.045
407.115
425.001
442.619
459.889
476.726
493.049
508.777
523.829
538.129
551.603
564.18
575.795
586.386
595.898
604.281
611.492
617.493
622.257
367.508
385.592
403.575
421.376
438.914
456.108
472.875
489.132
504.799
519.797
534.049
547.48
560.022
571.607
582.176
591.673
600.048
607.257
613.265
618.042
363.278
381.216
399.055
416.717
434.12
451.183
467.825
483.964
499.519
514.412
528.567
541.91
554.372
565.887
576.395
585.841
594.175
601.355
607.343
612.111
358.205
375.942
393.583
411.051
428.264
445.143
461.607
477.575
492.967
507.707
521.717
534.926
547.265
558.669
569.078
578.438
586.699
593.819
599.763
604.499
352.314
369.798
387.188
404.408
421.378
438.021
454.254
470.001
485.18
499.717
513.537
526.568
538.741
549.994
560.267
569.506
577.663
584.696
590.569
595.253
345.634
362.812
379.9
396.82
413.497
429.851
445.805
461.28
476.199
490.487
504.07
516.879
528.846
539.909
550.01
559.095
567.117
574.035
579.814
584.425
338.194
355.017
371.752
388.324
404.657
420.674
436.299
451.456
466.068
480.062
493.367
505.913
517.634
528.471
538.364
547.263
555.122
561.899
567.56
572.078
330.025
346.447
362.783
378.958
394.901
410.535
425.786
440.579
454.841
468.499
481.483
493.727
505.166
515.741
525.395
534.078
541.745
548.357
553.879
558.286
321.164
337.14
353.032
368.767
384.275
399.483
414.317
428.705
442.575
455.857
468.484
480.389
491.511
501.791
511.175
519.615
527.065
533.489
538.852
543.13
)
;
    }
    coldSide
    {
        type            mixed;
        refValue        uniform 300;
        refGradient     uniform 0;
        valueFraction   uniform 0.991591;
        source          uniform 0;
        value           nonuniform List<scalar> 
400
(
300.02
300.021
300.021
300.022
300.023
300.024
300.025
300.025
300.026
300.027
300.027
300.028
300.028
300.029
300.03
300.03
300.03
300.03
300.031
300.03
300.02
300.021
300.022
300.023
300.023
300.024
300.025
300.025
300.026
300.027
300.028
300.028
300.029
300.029
300.03
300.03