/*--------------------------------*- C++ -*----------------------------------*\
| =========                 |                                                 |
| \\      /  F ield         | OpenFOAM: The Open Source CFD Toolbox           |
|  \\    /   O peration     | Version:  2212                                  |
|   \\  /    A nd           | Website:  www.openfoam.com                      |
|    \\/     M anipulation  |                                                 |
\*---------------------------------------------------------------------------*/
FoamFile
{
    version     2.0;
    format      ascii;
    arch        "LSB;label=32;scalar=64";
    class       volScalarField;
    location    "0";
    object      T;
}
// * * * * * * * * * * * * * * * * * * * * * * * * * * * * * * * * * * * * * //

dimensions      [0 0 0 1 0 0 0];

internalField   nonuniform List<scalar> 
3200
(
327.461
326.68
326.023
325.973
326.027
326.513
327.094
327.382
327.809
328.107
328.22
327.976
327.689
326.907
326.316
325.709
325.199
325.178
325.468
326.253
323.993
323.356
322.785
322.744
322.757
323.192
323.707
323.935
324.334
324.59
324.72
324.512
324.275
323.596
323.085
322.597
322.15
322.156
322.4
323.068
320.455
319.916
319.465
319.421
319.388
319.788
320.208
320.409
320.742
320.968
321.104
320.938
320.738
320.156
319.722
319.37
318.96
318.982
319.188
319.726
316.842
316.413
316.051
316.028
315.955
316.297
316.627
316.796
317.074
317.256
317.399
317.266
317.119
316.613
316.289
316.025
315.667
315.711
315.856
316.303
313.172
312.836
312.544
312.552
312.46
312.742
313.001
313.13
313.346
313.474
313.615
313.519
313.4
312.999
312.76
312.574
312.267
312.341
312.456
312.809
309.47
309.214
308.999
309.01
308.929
309.139
309.311
309.4
309.58
309.645
309.763
309.697
309.625
309.345
309.171
309.04
308.832
308.878
308.959
309.222
305.706
305.558
305.416
305.428
305.374
305.512
305.598
305.66
305.772
305.801
305.892
305.836
305.805
305.631
305.526
305.453
305.328
305.37
305.393
305.568
301.912
301.872
301.814
301.815
301.795
301.853
301.873
301.901
301.938
301.942
301.99
301.96
301.939
301.892
301.852
301.832
301.781
301.813
301.816
301.868
327.834
327.014
326.394
326.391
326.501
326.932
327.425
327.868
328.311
328.579
328.68
328.482
328.04
327.399
326.634
326.02
325.567
325.437
325.798
326.529
324.328
323.639
323.101
323.095
323.179
323.563
323.975
324.38
324.752
324.991
325.064
324.916
324.551
324.025
323.356
322.816
322.47
322.373
322.694
323.308
320.741
320.16
319.729
319.703
319.755
320.108
320.443
320.804
321.106
321.312
321.373
321.258
320.956
320.542
319.953
319.507
319.223
319.166
319.454
319.955
317.061
316.591
316.275
316.231
316.248
316.559
316.825
317.135
317.39
317.563
317.623
317.517
317.281
316.944
316.455
316.095
315.898
315.864
316.072
316.483
313.374
312.969
312.744
312.694
312.719
312.96
313.145
313.402
313.609
313.734
313.776
313.708
313.531
313.271
312.882
312.631
312.475
312.471
312.593
312.924
309.588
309.332
309.146
309.09
309.141
309.291
309.439
309.602
309.772
309.833
309.885
309.842
309.73
309.522
309.233
309.069
308.977
308.985
309.046
309.288
305.781
305.638
305.499
305.451
305.501
305.588
305.681
305.796
305.879
305.925
305.949
305.924
305.865
305.742
305.547
305.456
305.405
305.432
305.441
305.6
301.947
301.901
301.841
301.825
301.842
301.869
301.91
301.958
301.977
301.986
301.988
301.985
301.964
301.938
301.859
301.839
301.813
301.82
301.827
301.877
328.242
327.368
327.015
326.961
327.137
327.549
328.182
328.63
329.013
329.344
329.226
329.186
328.745
328.078
327.337
326.671
326.2
326.025
326.332
326.85
324.723
323.924
323.654
323.605
323.712
324.095
324.638
325.033
325.367
325.66
325.55
325.532
325.176
324.613
323.959
323.406
323.03
322.886
323.16
323.593
321.093
320.394
320.177
320.171
320.189
320.567
321.01
321.346
321.635
321.873
321.78
321.771
321.493
321.036
320.479
320.021
319.704
319.608
319.837
320.196
317.368
316.814
316.616
316.63
316.601
316.948
317.297
317.571
317.786
317.99
317.946
317.928
317.735
317.375
316.904
316.529
316.275
316.22
316.408
316.68
313.586
313.139
312.988
313.006
312.976
313.255
313.493
313.731
313.901
314.072
314.023
314.026
313.88
313.601
313.256
312.95
312.768
312.703
312.879
313.066
309.747
309.43
309.315
309.336
309.318
309.495
309.665
309.836
309.983
310.108
310.053
310.066
309.952
309.756
309.534
309.299
309.189
309.136
309.259
309.368
305.874
305.683
305.588
305.612
305.615
305.719
305.809
305.917
306.031
306.101
306.053
306.077
305.984
305.878
305.748
305.605
305.549
305.502
305.583
305.646
301.966
301.908
301.88
301.881
301.888
301.907
301.948
301.991
302.028
302.053
302.038
302.037
302.007
301.969
301.934
301.881
301.882
301.854
301.871
301.9
328.892
328.071
327.622
327.691
327.776
328.387
328.889
329.461
329.858
330.26
330.177
330.224
329.651
329.013
328.277
327.438
326.905
326.81
327.036
327.329
325.256
324.545
324.147
324.226
324.268
324.802
325.223
325.731
326.089
326.452
326.373
326.438
325.956
325.399
324.793
324.053
323.639
323.562
323.756
324.006
321.524
320.933
320.582
320.664
320.675
321.145
321.481
321.942
322.231
322.557
322.464
322.533
322.133
321.664
321.186
320.554
320.252
320.179
320.367
320.543
317.691
317.229
316.936
317.019
317.018
317.399
317.696
318.064
318.307
318.571
318.483
318.536
318.238
317.84
317.497
316.973
316.732
316.683
316.842
316.967
313.782
313.447
313.225
313.303
313.312
313.603
313.824
314.132
314.312
314.515
314.433
314.5
314.25
313.93
313.722
313.296
313.133
313.066
313.212
313.321
309.866
309.627
309.485
309.563
309.557
309.755
309.924
310.147
310.246
310.399
310.344
310.414
310.215
309.974
309.876
309.548
309.451
309.386
309.502
309.571
305.941
305.796
305.717
305.767
305.747
305.869
305.983
306.113
306.16
306.268
306.217
306.276
306.151
305.992
305.961
305.763
305.717
305.652
305.741
305.78
301.999
301.947
301.916
301.936
301.932
301.963
302.018
302.044
302.063
302.102
302.081
302.111
302.065
302.005
302.001
301.937
301.91
301.89
301.934
301.938
329.762
328.956
328.459
328.595
328.804
329.342
329.817
330.506
330.868
331.344
331.316
331.242
330.63
330.081
329.289
328.417
327.89
327.728
327.891
328.214
325.981
325.329
324.886
325.015
325.173
325.633
326.064
326.68
326.96
327.387
327.357
327.31
326.799
326.341
325.665
324.939
324.48
324.366
324.492
324.767
322.115
321.644
321.237
321.344
321.458
321.843
322.211
322.746
322.988
323.324
323.316
323.274
322.861
322.502
321.891
321.331
320.945
320.87
320.959
321.182
318.174
317.852
317.498
317.588
317.667
317.959
318.275
318.717
318.92
319.19
319.148
319.145
318.852
318.557
318.04
317.612
317.279
317.259
317.317
317.489
314.19
313.952
313.666
313.772
313.812
314.027
314.281
314.619
314.785
315.017
314.971
314.977
314.75
314.516
314.131
313.796
313.551
313.554
313.589
313.711
310.165
310.004
309.799
309.89
309.919
310.058
310.24
310.5
310.578
310.776
310.725
310.753
310.585
310.399
310.146
309.916
309.762
309.749
309.792
309.858
306.109
306.03
305.882
305.955
305.986
306.064
306.165
306.32
306.348
306.501
306.465
306.485
306.374
306.276
306.117
306.001
305.884
305.865
305.916
305.944
302.046
302.024
301.967
302
301.999
302.031
302.066
302.116
302.125
302.191
302.171
302.173
302.132
302.112
302.043
302.017
301.997
301.973
301.984
302.001
330.762
329.963
329.494
329.593
329.807
330.325
330.838
331.529
331.952
332.375
332.398
332.429
331.759
331.21
330.244
329.498
328.958
328.813
328.849
329.357
326.863
326.205
325.79
325.872
326.039
326.472
326.932
327.547
327.896
328.281
328.306
328.33
327.772
327.305
326.476
325.859
325.426
325.287
325.344
325.787
322.885
322.359
321.99
322.051
322.2
322.536
322.964
323.481
323.795
324.122
324.103
324.142
323.684
323.291
322.619
322.076
321.754
321.651
321.706
322.061
318.852
318.424
318.139
318.15
318.292
318.566
318.906
319.341
319.615
319.848
319.827
319.876
319.485
319.198
318.661
318.207
317.965
317.885
317.935
318.21
314.746
314.412
314.192
314.198
314.323
314.523
314.797
315.131
315.333
315.525
315.507
315.543
315.234
315.012
314.615
314.255
314.053
314.035
314.042
314.254
310.594
310.357
310.166
310.192
310.292
310.43
310.625
310.865
310.975
311.136
311.113
311.154
310.912
310.759
310.516
310.25
310.083
310.112
310.091
310.241
306.373
306.246
306.132
306.145
306.213
306.283
306.389
306.539
306.618
306.704
306.684
306.715
306.559
306.493
306.354
306.174
306.069
306.12
306.081
306.172
302.15
302.103
302.059
302.066
302.092
302.106
302.145
302.193
302.22
302.243
302.247
302.248
302.202
302.176
302.142
302.077
302.029
302.057
302.036
302.075
331.89
331.291
330.793
330.766
330.984
331.499
332.094
332.748
333.338
333.465
333.699
333.474
332.971
332.172
331.467
330.617
330.156
329.828
330
330.431
327.841
327.34
326.914
326.895
327.07
327.521
328.026
328.595
329.116
329.236
329.436
329.236
328.816
328.149
327.558
326.827
326.46
326.168
326.328
326.712
323.722
323.31
322.938
322.938
323.086
323.446
323.865
324.37
324.797
324.92
325.064
324.916
324.543
324.02
323.538
322.926
322.629
322.344
322.523
322.836
319.535
319.21
318.841
318.878
318.991
319.303
319.653
320.04
320.407
320.498
320.611
320.513
320.181
319.791
319.393
318.91
318.68
318.439
318.608
318.839
315.275
315.034
314.717
314.76
314.836
315.104
315.371
315.652
315.944
316.022
316.105
316.033
315.76
315.499
315.187
314.805
314.645
314.442
314.584
314.75
310.928
310.79
310.551
310.595
310.644
310.834
311.01
311.207
311.439
311.495
311.542
311.505
311.277
311.109
310.904
310.639
310.524
310.385
310.485
310.596
306.566
306.483
306.334
306.374
306.401
306.519
306.625
306.755
306.877
306.905
306.966
306.916
306.782
306.703
306.573
306.426
306.346
306.275
306.313
306.391
302.204
302.175
302.128
302.139
302.156
302.188
302.236
302.277
302.313
302.314
302.338
302.327
302.264
302.258
302.212
302.157
302.118
302.11
302.113
302.146
333.113
332.476
331.959
331.913
332.162
332.694
333.257
333.858
334.507
334.829
334.993
334.624
334.231
333.452
332.598
331.788
331.301
331.002
331.162
331.568
328.904
328.374
327.944
327.848
328.063
328.548
329.029
329.569
330.142
330.428
330.547
330.25
329.915
329.241
328.559
327.859
327.469
327.201
327.358
327.688
324.613
324.181
323.812
323.687
323.896
324.318
324.715
325.187
325.682
325.923
325.986
325.768
325.455
324.904
324.392
323.782
323.467
323.263
323.397
323.68
320.228
319.899
319.607
319.463
319.638
320.036
320.333
320.713
321.129
321.316
321.336
321.211
320.942
320.515
320.089
319.587
319.344
319.209
319.317
319.568
315.79
315.549
315.327
315.204
315.37
315.677
315.895
316.196
316.506
316.636
316.666
316.58
316.342
316.023
315.71
315.297
315.143
315.074
315.146
315.326
311.317
311.149
310.966
310.909
311.038
311.25
311.403
311.63
311.831
311.908
311.952
311.892
311.704
311.488
311.284
310.97
310.861
310.828
310.857
311
306.811
306.712
306.584
306.566
306.644
306.774
306.869
307.009
307.122
307.158
307.183
307.168
307.033
306.907
306.814
306.599
306.541
306.539
306.534
306.615
302.289
302.243
302.206
302.213
302.221
302.283
302.306
302.358
302.393
302.399
302.406
302.413
302.349
302.309
302.295
302.22
302.185
302.193
302.191
302.225
334.372
333.813
333.446
333.141
333.286
333.957
334.423
335.004
335.652
336.013
336.193
335.825
335.32
334.623
333.84
333.137
332.49
332.392
332.447
332.723
330.001
329.531
329.223
328.936
329.048
329.648
330.062
330.545
331.113
331.427
331.571
331.266
330.872
330.277
329.612
329.033
328.47
328.431
328.492
328.732
325.543
325.148
324.907
324.644
324.747
325.248
325.626
326.001
326.491
326.767
326.865
326.641
326.314
325.811
325.251
324.78
324.325
324.309
324.365
324.574
321.011
320.673
320.49
320.281
320.371
320.764
321.091
321.389
321.781
322.006
322.109
321.945
321.658
321.252
320.794
320.418
320.042
320.068
320.113
320.27
316.41
316.128
315.997
315.858
315.926
316.227
316.482
316.716
317.016
317.18
317.291
317.165
316.928
316.586
316.266
315.97
315.689
315.738
315.745
315.87
311.75
311.547
311.477
311.371
311.402
311.632
311.798
311.996
312.191
312.325
312.392
312.315
312.142
311.883
311.685
311.447
311.269
311.32
311.301
311.403
307.057
306.937
306.903
306.829
306.838
306.998
307.101
307.23
307.34
307.419
307.473
307.411
307.311
307.143
307.053
306.89
306.783
306.84
306.807
306.875
302.368
302.335
302.329
302.296
302.285
302.349
302.386
302.431
302.458
302.492
302.515
302.493
302.461
302.391
302.363
302.321
302.274
302.293
302.279
302.315
335.693
335.087
334.898
334.576
334.629
335.197
335.598
336.267
336.874
337.155
337.396
337.07
336.567
335.911
335.059
334.376
333.798
333.717
333.729
333.922
331.154
330.627
330.509
330.185
330.233
330.729
331.068
331.66
332.172
332.419
332.642
332.38
331.968
331.416
330.705
330.107
329.622
329.588
329.586
329.729
326.505
326.07
325.986
325.722
325.743
326.149
326.447
326.932
327.39
327.56
327.781
327.582
327.257
326.798
326.208
325.693
325.302
325.305
325.29
325.401
321.759
321.449
321.378
321.166
321.194
321.495
321.757
322.143
322.53
322.658
322.854
322.681
322.445
322.079
321.605
321.168
320.858
320.884
320.859
320.961
316.978
316.75
316.686
316.526
316.571
316.781
316.989
317.275
317.588
317.7
317.872
317.736
317.533
317.254
316.904
316.575
316.326
316.36
316.33
316.413
312.158
311.994
311.957
311.851
311.875
312.032
312.195
312.385
312.601
312.686
312.817
312.717
312.562
312.388
312.14
311.918
311.714
311.753
311.744
311.794
307.316
307.212
307.206
307.141
307.147
307.241
307.352
307.456
307.582
307.64
307.703
307.672
307.548
307.459
307.3
307.185
307.061
307.082
307.086
307.121
302.452
302.419
302.43
302.396
302.389
302.435
302.462
302.51
302.547
302.564
302.594
302.592
302.535
302.498
302.443
302.407
302.378
302.394
302.373
302.386
337.11
336.52
336.265
335.92
336.024
336.466
336.891
337.476
337.98
338.205
338.396
338.236
337.745
337.141
336.362
335.573
335.113
334.985
335.009
335.185
332.392
331.919
331.679
331.38
331.454
331.834
332.194
332.7
333.142
333.335
333.53
333.38
332.987
332.511
331.821
331.139
330.78
330.69
330.699
330.849
327.598
327.205
326.984
326.728
326.78
327.132
327.407
327.845
328.183
328.381
328.549
328.423
328.099
327.74
327.143
326.589
326.299
326.242
326.234
326.353
322.72
322.411
322.164
321.995
322.026
322.323
322.537
322.888
323.147
323.347
323.491
323.366
323.116
322.872
322.35
321.895
321.682
321.643
321.64
321.745
317.754
317.521
317.291
317.186
317.197
317.434
317.608
317.861
318.048
318.244
318.365
318.244
318.061
317.885
317.485
317.122
316.975
316.948
316.933
317.021
312.751
312.568
312.365
312.315
312.319
312.499
312.627
312.791
312.946
313.093
313.161
313.082
312.957
312.828
312.538
312.291
312.178
312.167
312.156
312.209
307.668
307.566
307.441
307.405
307.4
307.518
307.595
307.694
307.791
307.88
307.919
307.878
307.806
307.717
307.546
307.406
307.339
307.366
307.319
307.353
302.569
302.548
302.507
302.488
302.476
302.529
302.541
302.585
302.615
302.65
302.647
302.659
302.617
302.586
302.525
302.489
302.467
302.47
302.447
302.477
338.584
338.01
337.623
337.486
337.454
337.789
338.156
338.514
339.075
339.308
339.42
339.266
338.845
338.328
337.56
336.9
336.332
336.184
336.255
336.503
333.698
333.188
332.841
332.744
332.678
332.985
333.315
333.608
334.107
334.289
334.407
334.297
333.943
333.543
332.867
332.289
331.833
331.732
331.769
332.013
328.697
328.269
327.964
327.901
327.808
328.088
328.369
328.62
329.013
329.178
329.308
329.2
328.913
328.609
328.036
327.562
327.191
327.113
327.136
327.351
323.607
323.272
323.011
322.952
322.855
323.112
323.33
323.555
323.86
323.992
324.126
323.998
323.795
323.567
323.093
322.698
322.436
322.359
322.372
322.554
318.452
318.187
317.957
317.931
317.874
318.061
318.229
318.415
318.632
318.731
318.856
318.739
318.573
318.446
318.062
317.755
317.581
317.494
317.513
317.668
313.238
313.021
312.86
312.85
312.823
312.944
313.084
313.209
313.37
313.44
313.532
313.451
313.314
313.232
312.964
312.735
312.622
312.564
312.565
312.685
307.97
307.84
307.734
307.729
307.722
307.799
307.863
307.958
308.06
308.088
308.148
308.086
308.004
307.97
307.817
307.675
307.611
307.573
307.576
307.634
302.667
302.637
302.59
302.582
302.591
302.62
302.639
302.669
302.712
302.708
302.738
302.712
302.678
302.671
302.626
302.583
302.544
302.549
302.544
302.571
339.942
339.399
338.948
338.836
338.762
338.997
339.298
339.549
340.069
340.376
340.45
340.209
339.94
339.189
338.764
338.248
337.706
337.486
337.489
337.822
334.859
334.384
334.007
333.914
333.843
334.028
334.296
334.502
334.977
335.243
335.308
335.115
334.909
334.282
333.909
333.506
333.036
332.867
332.858
333.165
329.696
329.249
328.977
328.896
328.837
328.978
329.195
329.383
329.769
330.014
330.068
329.918
329.74
329.247
328.93
328.59
328.228
328.085
328.065
328.33
324.441
324.044
323.826
323.795
323.706
323.83
324.017
324.175
324.488
324.689
324.752
324.593
324.475
324.115
323.839
323.55
323.262
323.143
323.157
323.361
319.093
318.776
318.621
318.606
318.519
318.603
318.741
318.909
319.137
319.279
319.364
319.209
319.137
318.889
318.644
318.419
318.205
318.114
318.136
318.298
313.689
313.451
313.353
313.331
313.271
313.325
313.431
313.569
313.731
313.812
313.904
313.762
313.725
313.559
313.367
313.223
313.06
313.009
313.027
313.154
308.241
308.091
308.029
308.021
307.993
308.024
308.077
308.184
308.282
308.317
308.381
308.295
308.248
308.171
308.053
307.966
307.86
307.836
307.851
307.953
302.764
302.714
302.683
302.688
302.687
302.693
302.711
302.742
302.78
302.788
302.813
302.786
302.76
302.746
302.704
302.67
302.641
302.63
302.629
302.674
341.275
340.747
340.414
340.209
340.065
340.337
340.442
340.719
341.112
341.412
341.452
341.19
340.833
340.261
339.902
339.324
338.99
338.812
338.837
339.068
335.999
335.571
335.283
335.101
334.967
335.208
335.311
335.533
335.889
336.183
336.213
335.982
335.7
335.212
334.911
334.427
334.131
333.998
334.026
334.241
330.655
330.309
330.042
329.905
329.77
329.985
330.069
330.228
330.553
330.828
330.853
330.641
330.442
330.02
329.783
329.385
329.134
329.041
329.059
329.257
325.23
324.94
324.712
324.609
324.464
324.665
324.73
324.821
325.139
325.371
325.391
325.236
325.037
324.71
324.548
324.202
323.998
323.93
323.985
324.12
319.705
319.493
319.3
319.217
319.085
319.244
319.344
319.391
319.631
319.828
319.853
319.74
319.569
319.327
319.225
318.92
318.774
318.724
318.78
318.867
314.116
313.969
313.835
313.794
313.67
313.768
313.866
313.902
314.054
314.211
314.238
314.152
314.019
313.873
313.814
313.576
313.487
313.426
313.484
313.539
308.494
308.401
308.316
308.301
308.233
308.27
308.347
308.377
308.437
308.556
308.571
308.513
308.438
308.363
308.314
308.187
308.136
308.081
308.121
308.161
302.851
302.812
302.785
302.781
302.766
302.779
302.789
302.819
302.825
302.869
302.883
302.859
302.835
302.814
302.79
302.74
302.728
302.707
302.732
302.743
342.66
342.116
341.834
341.549
341.424
341.563
341.645
341.907
342.219
342.408
342.371
342.189
341.749
341.203
340.858
340.373
340.125
340.073
340.197
340.394
337.231
336.782
336.512
336.269
336.158
336.303
336.359
336.571
336.851
337.047
337.005
336.884
336.484
336.024
335.748
335.341
335.138
335.125
335.233
335.406
331.715
331.337
331.097
330.874
330.775
330.917
330.958
331.131
331.379
331.559
331.508
331.434
331.098
330.724
330.512
330.176
330.002
330.021
330.105
330.233
326.08
325.804
325.58
325.38
325.322
325.444
325.445
325.608
325.812
325.997
325.92
325.894
325.596
325.294
325.137
324.872
324.743
324.741
324.836
324.913
320.372
320.191
319.983
319.808
319.783
319.879
319.853
320.023
320.16
320.344
320.262
320.252
320.021
319.774
319.669
319.482
319.363
319.352
319.441
319.484
314.593
314.492
314.337
314.197
314.191
314.268
314.22
314.35
314.451
314.605
314.525
314.517
314.347
314.183
314.116
313.997
313.904
313.89
313.949
313.978
308.785
308.745
308.632
308.551
308.549
308.6
308.569
308.635
308.695
308.807
308.736
308.746
308.633
308.541
308.513
308.444
308.377
308.372
308.389
308.419
302.947
302.932
302.896
302.861
302.87
302.896
302.881
302.896
302.924
302.962
302.936
302.941
302.903
302.876
302.857
302.828
302.816
302.815
302.819
302.836
344.085
343.603
343.179
342.878
342.742
342.686
342.869
343.059
343.301
343.347
343.324
343.061
342.757
342.34
342.003
341.553
341.389
341.264
341.527
341.761
338.491
338.074
337.721
337.437
337.319
337.259
337.444
337.601
337.793
337.86
337.867
337.636
337.339
337.019
336.745
336.369
336.241
336.141
336.402
336.618
332.788
332.432
332.136
331.874
331.782
331.736
331.874
332.026
332.195
332.239
332.279
332.075
331.803
331.538
331.353
331.043
330.961
330.877
331.111
331.292
326.994
326.709
326.455
326.241
326.143
326.098
326.219
326.36
326.482
326.523
326.566
326.414
326.153
325.93
325.84
325.584
325.502
325.462
325.678
325.797
321.125
320.889
320.664
320.52
320.404
320.414
320.481
320.605
320.683
320.755
320.758
320.639
320.458
320.255
320.22
320.005
319.931
319.935
320.102
320.193
315.173
314.987
314.824
314.729
314.628
314.65
314.694
314.749
314.797
314.906
314.887
314.801
314.666
314.538
314.505
314.352
314.287
314.33
314.415
314.455
309.129
309.04
308.928
308.886
308.813
308.824
308.847
308.879
308.897
308.991
308.96
308.912
308.828
308.746
308.747
308.667
308.619
308.629
308.664
308.695
303.068
303.034
302.986
302.977
302.963
302.964
302.966
302.988
302.986
303.014
302.998
302.993
302.961
302.935
302.931
302.923
302.892
302.897
302.906
302.917
345.399
344.918
344.395
344.283
344.012
343.909
344.019
344.273
344.327
344.18
344.196
343.87
343.775
343.333
342.914
342.654
342.537
342.513
342.789
342.999
339.625
339.202
338.77
338.66
338.408
338.339
338.426
338.662
338.696
338.592
338.617
338.34
338.272
337.882
337.538
337.327
337.257
337.251
337.503
337.689
333.735
333.377
333.035
332.907
332.704
332.655
332.727
332.944
332.935
332.881
332.893
332.698
332.631
332.318
332.029
331.835
331.799
331.794
332.045
332.18
327.763
327.447
327.183
327.073
326.898
326.863
326.945
327.154
327.072
327.051
327.065
326.935
326.876
326.603
326.404
326.21
326.21
326.22
326.433
326.507
321.703
321.425
321.239
321.134
321.022
320.999
321.077
321.26
321.147
321.144
321.164
321.057
321.012
320.8
320.646
320.502
320.506
320.539
320.671
320.739
315.562
315.345
315.234
315.134
315.073
315.065
315.119
315.273
315.162
315.171
315.182
315.094
315.078
314.911
314.811
314.708
314.694
314.757
314.849
314.89
309.38
309.232
309.166
309.104
309.075
309.093
309.12
309.204
309.134
309.136
309.15
309.1
309.095
308.972
308.918
308.85
308.837
308.898
308.939
308.966
303.142
303.097
303.075
303.048
303.045
303.066
303.06
303.096
303.07
303.067
303.073
303.068
303.059
303.01
302.996
302.977
302.972
302.996
303.009
303.008
346.617
346.142
345.736
345.418
345.248
345.082
345.186
345.236
345.279
345.142
345.183
344.887
344.683
344.458
344.014
343.731
343.688
343.721
343.878
344.177
340.676
340.265
339.923
339.667
339.49
339.357
339.45
339.501
339.514
339.431
339.472
339.222
339.046
338.883
338.49
338.258
338.244
338.287
338.434
338.704
334.607
334.291
333.996
333.775
333.634
333.53
333.611
333.645
333.631
333.568
333.608
333.433
333.276
333.172
332.854
332.647
332.636
332.699
332.804
333.019
328.445
328.219
327.986
327.766
327.7
327.605
327.654
327.697
327.655
327.625
327.658
327.521
327.384
327.327
327.085
326.903
326.907
326.945
327.042
327.193
322.198
322.046
321.867
321.674
321.655
321.564
321.608
321.648
321.586
321.591
321.643
321.497
321.369
321.389
321.213
321.056
321.063
321.065
321.177
321.264
315.897
315.822
315.673
315.531
315.53
315.465
315.5
315.524
315.467
315.481
315.526
315.398
315.335
315.356
315.213
315.112
315.105
315.14
315.214
315.266
309.583
309.498
309.446
309.34
309.339
309.291
309.329
309.354
309.318
309.321
309.356
309.246
309.243
309.263
309.164
309.1
309.097
309.139
309.161
309.201
303.222
303.184
303.173
303.13
303.133
303.117
303.127
303.142
303.114
303.139
303.147
303.1
303.111
303.109
303.073
303.047
303.048
303.068
303.064
303.083
347.735
347.254
346.875
346.492
346.207
346.153
346.208
346.095
346.174
346.097
345.943
345.833
345.605
345.302
345.024
344.736
344.585
344.799
344.868
345.254
341.633
341.239
340.893
340.561
340.331
340.272
340.339
340.25
340.315
340.258
340.11
340.025
339.837
339.604
339.382
339.118
339.017
339.229
339.301
339.632
335.427
335.116
334.814
334.529
334.347
334.264
334.34
334.276
334.334
334.312
334.161
334.108
333.947
333.742
333.583
333.356
333.335
333.495
333.543
333.838
329.122
328.895
328.596
328.371
328.252
328.171
328.236
328.197
328.224
328.25
328.111
328.073
327.927
327.755
327.651
327.471
327.488
327.586
327.632
327.897
322.729
322.584
322.315
322.145
322.07
322.007
322.048
322.036
322.025
322.085
321.995
321.94
321.82
321.702
321.635
321.477
321.531
321.574
321.599
321.833
316.278
316.184
315.976
315.875
315.827
315.793
315.793
315.785
315.777
315.825
315.794
315.727
315.661
315.58
315.537
315.416
315.443
315.483
315.496
315.664
309.793
309.72
309.608
309.566
309.54
309.511
309.501
309.491
309.473
309.524
309.514
309.478
309.426
309.386
309.364
309.297
309.303
309.333
309.321
309.42
303.288
303.259
303.223
303.222
303.202
303.198
303.184
303.18
303.183
303.205
303.19
303.197
303.167
303.147
303.151
303.113
303.131
303.133
303.121
303.162
348.625
348.115
347.674
347.206
347.088
346.915
346.905
346.806
346.879
346.803
346.683
346.351
346.193
345.991
345.704
345.617
345.294
345.631
345.794
346.094
342.369
341.942
341.559
341.133
341.083
340.907
340.921
340.816
340.899
340.823
340.749
340.449
340.316
340.19
339.936
339.837
339.617
339.928
340.089
340.335
336.031
335.663
335.321
334.959
334.96
334.798
334.83
334.718
334.806
334.765
334.694
334.456
334.317
334.236
334.035
333.957
333.792
334.067
334.197
334.429
329.615
329.286
329.007
328.698
328.743
328.607
328.638
328.53
328.609
328.599
328.539
328.37
328.219
328.184
328.012
327.949
327.826
328.058
328.177
328.367
323.116
322.845
322.631
322.389
322.457
322.361
322.37
322.279
322.346
322.347
322.308
322.173
322.062
322.042
321.9
321.828
321.779
321.939
322.045
322.207
316.557
316.349
316.194
316.012
316.101
316.038
316.042
315.967
316.03
316.024
315.991
315.899
315.837
315.806
315.709
315.633
315.625
315.727
315.851
315.953
309.96
309.834
309.733
309.613
309.683
309.659
309.652
309.591
309.66
309.66
309.633
309.575
309.539
309.517
309.463
309.407
309.396
309.468
309.549
309.607
303.344
303.302
303.262
303.215
303.248
303.242
303.249
303.219
303.261
303.247
303.226
303.211
303.205
303.195
303.171
303.153
303.15
303.189
303.207
303.221
)
;

boundaryField
{
    hotSide
    {
        type            fixedGradient;
        gradient        nonuniform List<scalar> 
400
(
270.175
273.293
278.47
285.648
294.615
305.07
316.686
329.165
342.257
355.762
369.526
383.43
397.382
411.312
425.16
438.88
452.43
465.781
478.913
491.825
258.303
261.633
267.169
274.84
284.392
295.467
307.693
320.741
334.341
348.288
362.426
376.637
390.835
404.955
418.945
432.762
446.371
459.742
472.861
485.731
251.786
255.512
261.415
269.418
279.266
290.604
303.059
316.301
330.057
344.116
358.321
372.554
386.731
400.79
414.685
428.38
441.847
455.066
468.027
480.74
250.263
254.554
260.843
269.048
278.95
290.242
302.592
315.692
329.278
343.141
357.12
371.097
384.988
398.735
412.299
425.654
438.781
451.673
464.332
476.772
252.313
257.263
263.979
272.374
282.266
293.4
305.495
318.275
331.496
344.955
358.493
371.994
385.381
398.603
411.632
424.456
437.072
449.486
461.711
473.769
256.327
261.966
269.165
277.829
287.791
298.833
310.706
323.162
335.972
348.942
361.923
374.809
387.536
400.072
412.41
424.555
436.525
448.34
460.027
471.611
260.985
267.31
275.047
284.086
294.263
305.368
317.164
329.407
341.872
354.371
366.764
378.965
390.937
402.68
414.215
425.579
436.811
447.95
459.03
470.083
265.283
272.259
280.561
290.066
300.601
311.946
323.849
336.047
348.298
360.405
372.238
383.739
394.911
405.803
416.48
427.016
437.475
447.913
458.372
468.885
268.434
275.974
284.811
294.815
305.798
317.519
329.694
342.018
354.206
366.033
377.373
388.206
398.594
408.648
418.489
428.23
437.961
447.75
457.644
467.675
269.813
277.756
287.008
297.437
308.846
320.972
333.492
346.048
358.293
369.96
380.922
391.199
400.922
410.272
419.424
428.524
437.681
446.97
456.439
466.116
268.982
277.082
286.524
297.176
308.834
321.224
333.994
346.746
359.083
370.703
381.471
391.439
400.788
409.745
418.519
427.276
436.134
445.171
454.434
463.949
265.762
273.72
283.056
293.635
305.252
317.626
330.402
343.176
355.551
367.221
378.05
388.082
397.496
406.513
415.343
424.153
433.064
442.156
451.479
461.06
260.3
267.824
276.766
286.992
298.295
310.396
322.954
335.595
347.961
359.777
370.904
381.352
391.241
400.746
410.042
419.28
428.577
438.016
447.652
457.518
253.096
259.952
268.298
278.002
288.858
300.589
312.876
325.378
337.782
349.843
361.418
372.474
383.066
393.303
403.314
413.221
423.13
433.122
443.258
453.578
244.976
251.017
258.675
267.824
278.254
289.686
301.801
314.277
326.825
339.214
351.294
363
374.335
385.355
396.145
406.798
417.404
428.041
438.771
449.637
237.103
242.263
249.227
257.882
267.999
279.272
291.362
303.94
316.717
329.466
342.031
354.325
366.323
378.044
389.542
400.887
412.157
423.424
434.749
446.175
231.009
235.299
241.619
249.859
259.762
270.972
283.111
295.826
308.822
321.872
334.818
347.565
360.07
372.334
384.391
396.297
408.117
419.923
431.772
443.707
228.545
232.069
237.802
245.644
255.303
266.382
278.465
291.185
304.244
317.419
330.555
343.552
356.361
368.972
381.405
393.702
405.925
418.136
430.393
442.735
231.348
234.308
239.506
246.852
256.059
266.732
278.462
290.889
303.723
316.749
329.814
342.818
355.704
368.452
381.07
393.589
406.058
418.531
431.057
443.668
239.924
242.544
247.25
253.968
262.463
272.4
283.424
295.213
307.5
320.081
332.804
345.567
358.304
370.986
383.606
396.183
408.746
421.335
433.985
446.717
)
;
    }
    coldSide
    {
        type            mixed;
        refValue        uniform 300;
        refGradient     uniform 0;
        valueFraction   uniform 0.991591;
        source          uniform 0;
        value           nonuniform List<scalar> 
400
(
300.016
300.016
300.017
300.017
300.017
300.018
300.019
300.019
300.02
300.021
300.022
300.022
300.023
300.024
300.025
300.026
300.026
300.027
300.028
300.028
300.016
300.016
300.016
300.016
300.017
300.018
300.018
300.019
300.02
300.02
300.021
300.022
300.023
300.024
300.025
300.026