/*--------------------------------*- C++ -*----------------------------------*\
| =========                 |                                                 |
| \\      /  F ield         | OpenFOAM: The Open Source CFD Toolbox           |
|  \\    /   O peration     | Version:  2212                                  |
|   \\  /    A nd           | Website:  www.openfoam.com                      |
|    \\/     M anipulation  |                                                 |
\*---------------------------------------------------------------------------*/
FoamFile
{
    version     2.0;
    format      ascii;
    arch        "LSB;label=32;scalar=64";
    class       volScalarField;
    location    "0";
    object      T;
}
// * * * * * * * * * * * * * * * * * * * * * * * * * * * * * * * * * * * * * //

dimensions      [0 0 0 1 0 0 0];

internalField   nonuniform List<scalar> 
3200
(
347.65
346.728
346.117
346.245
346.642
347.452
348.327
349.175
349.805
350.279
350.602
350.498
349.817
349.104
348.332
347.584
346.951
346.713
347.215
348.01
341.235
340.483
339.958
340.065
340.417
341.134
341.904
342.606
343.142
343.563
343.858
343.762
343.163
342.519
341.86
341.23
340.651
340.471
340.878
341.545
334.852
334.236
333.819
333.915
334.213
334.81
335.452
336.044
336.5
336.868
337.108
337.04
336.517
335.96
335.391
334.882
334.36
334.227
334.567
335.106
328.518
328.012
327.678
327.76
327.991
328.489
328.997
329.484
329.878
330.173
330.363
330.336
329.899
329.412
328.945
328.538
328.106
327.984
328.281
328.673
322.186
321.77
321.516
321.601
321.778
322.17
322.546
322.905
323.253
323.498
323.614
323.604
323.295
322.883
322.513
322.184
321.861
321.741
321.972
322.278
315.86
315.548
315.359
315.444
315.578
315.854
316.092
316.352
316.618
316.795
316.844
316.872
316.649
316.354
316.089
315.838
315.612
315.516
315.691
315.903
309.527
309.316
309.222
309.274
309.366
309.536
309.656
309.817
309.98
310.084
310.125
310.138
309.984
309.826
309.649
309.514
309.376
309.3
309.426
309.548
303.196
303.119
303.098
303.121
303.14
303.196
303.232
303.283
303.34
303.372
303.397
303.397
303.345
303.293
303.232
303.186
303.143
303.114
303.16
303.198
347.631
346.737
346.145
346.295
346.75
347.541
348.527
349.395
350.167
350.653
350.916
350.876
350.314
349.509
348.509
347.774
347.024
346.707
347.173
347.975
341.242
340.508
339.985
340.123
340.524
341.186
342.054
342.772
343.459
343.847
344.117
344.076
343.584
342.862
342.019
341.379
340.736
340.44
340.876
341.513
334.865
334.278
333.814
333.965
334.315
334.863
335.59
336.17
336.765
337.065
337.32
337.285
336.882
336.243
335.518
335.007
334.449
334.182
334.593
335.094
328.507
328.062
327.664
327.835
328.095
328.543
329.121
329.577
330.073
330.313
330.535
330.472
330.166
329.647
329.042
328.654
328.186
327.949
328.306
328.689
322.178
321.836
321.524
321.67
321.876
322.216
322.655
323.004
323.381
323.582
323.746
323.668
323.489
323.075
322.575
322.295
321.918
321.727
322.034
322.313
315.823
315.612
315.393
315.501
315.643
315.881
316.186
316.432
316.702
316.852
316.979
316.906
316.79
316.496
316.129
315.925
315.665
315.502
315.755
315.926
309.501
309.405
309.257
309.33
309.399
309.562
309.706
309.847
310.032
310.119
310.21
310.163
310.083
309.918
309.699
309.561
309.401
309.319
309.452
309.551
303.173
303.151
303.112
303.137
303.145
303.214
303.256
303.3
303.358
303.383
303.426
303.409
303.39
303.318
303.248
303.201
303.149
303.134
303.167
303.199
347.58
346.696
346.32
346.404
347.031
347.819
348.824
349.841
350.757
351.18
351.534
351.461
350.967
350.017
348.991
348.119
347.383
347.006
347.416
348.069
341.184
340.464
340.145
340.23
340.757
341.425
342.312
343.16
343.97
344.314
344.624
344.591
344.167
343.32
342.426
341.691
341.058
340.716
341.069
341.626
334.814
334.249
333.982
334.055
334.482
335.05
335.795
336.509
337.189
337.463
337.734
337.717
337.376
336.631
335.883
335.252
334.758
334.431
334.748
335.197
328.454
328.052
327.837
327.863
328.218
328.68
329.3
329.871
330.427
330.621
330.867
330.826
330.583
329.953
329.345
328.82
328.441
328.157
328.435
328.793
322.136
321.861
321.669
321.677
321.94
322.312
322.804
323.213
323.668
323.792
324.007
323.962
323.812
323.303
322.824
322.4
322.13
321.893
322.128
322.382
315.814
315.648
315.49
315.501
315.677
315.964
316.312
316.58
316.9
316.978
317.172
317.12
317.025
316.627
316.305
315.999
315.824
315.646
315.802
315.993
309.504
309.421
309.313
309.322
309.423
309.604
309.804
309.957
310.15
310.174
310.317
310.276
310.219
309.985
309.795
309.604
309.499
309.411
309.479
309.609
303.183
303.168
303.121
303.118
303.166
303.211
303.282
303.334
303.402
303.407
303.441
303.436
303.418
303.351
303.296
303.23
303.182
303.162
303.171
303.222
347.8
346.988
346.619
346.775
347.461
348.278
349.323
350.447
351.363
351.925
352.323
352.209
351.687
350.726
349.622
348.524
347.846
347.493
347.705
348.243
341.378
340.729
340.418
340.564
341.154
341.839
342.728
343.669
344.48
344.953
345.28
345.217
344.756
343.915
342.988
342.024
341.469
341.153
341.341
341.756
334.975
334.48
334.209
334.336
334.826
335.39
336.141
336.929
337.615
338.004
338.267
338.229
337.853
337.126
336.366
335.556
335.108
334.831
334.979
335.305
328.609
328.227
327.985
328.08
328.507
328.944
329.568
330.209
330.766
331.083
331.267
331.242
330.959
330.36
329.758
329.085
328.725
328.476
328.613
328.877
322.265
321.944
321.787
321.857
322.167
322.502
323.004
323.503
323.926
324.173
324.3
324.288
324.079
323.598
323.149
322.618
322.334
322.145
322.231
322.461
315.925
315.677
315.564
315.631
315.84
316.057
316.449
316.799
317.096
317.271
317.383
317.357
317.2
316.867
316.548
316.166
315.994
315.813
315.882
316.068
309.577
309.409
309.337
309.401
309.507
309.64
309.86
310.088
310.284
310.372
310.458
310.426
310.329
310.146
309.958
309.717
309.617
309.494
309.537
309.649
303.217
303.157
303.125
303.154
303.188
303.223
303.292
303.38
303.452
303.479
303.515
303.492
303.46
303.401
303.341
303.259
303.219
303.181
303.199
303.231
348.36
347.481
347.05
347.265
348.016
348.911
350.039
351.175
352.145
353.027
353.288
353.106
352.4
351.517
350.352
349.267
348.428
347.983
348.191
348.743
341.874
341.147
340.787
340.929
341.621
342.375
343.349
344.334
345.144
345.931
346.151
346.002
345.365
344.65
343.598
342.68
341.983
341.584
341.748
342.172
335.42
334.824
334.52
334.607
335.217
335.824
336.661
337.508
338.202
338.853
339.019
338.907
338.363
337.777
336.87
336.103
335.528
335.192
335.313
335.636
328.975
328.505
328.234
328.288
328.807
329.281
329.989
330.679
331.256
331.758
331.894
331.803
331.369
330.911
330.205
329.502
329.081
328.812
328.883
329.132
322.528
322.189
321.974
321.998
322.412
322.763
323.309
323.88
324.345
324.682
324.765
324.727
324.413
324.06
323.519
322.928
322.617
322.405
322.457
322.649
316.098
315.882
315.721
315.715
316.038
316.254
316.638
317.073
317.399
317.616
317.67
317.667
317.485
317.193
316.82
316.379
316.151
316.021
316.034
316.183
309.673
309.547
309.436
309.434
309.658
309.751
310
310.249
310.432
310.576
310.612
310.596
310.499
310.339
310.118
309.842
309.71
309.62
309.634
309.721
303.234
303.197
303.164
303.166
303.244
303.265
303.345
303.435
303.493
303.538
303.549
303.541
303.516
303.477
303.396
303.305
303.254
303.233
303.234
303.265
348.882
348.147
347.765
347.983
348.567
349.675
350.713
351.939
352.999
353.907
354.232
354.124
353.322
352.341
351.161
350.152
349.197
348.727
348.858
349.391
342.339
341.733
341.407
341.58
342.097
343.051
343.933
344.985
345.889
346.696
346.955
346.882
346.176
345.321
344.316
343.444
342.632
342.224
342.305
342.745
335.805
335.321
335.034
335.168
335.636
336.412
337.151
338.039
338.827
339.476
339.69
339.634
339.043
338.321
337.496
336.75
336.086
335.727
335.766
336.147
329.287
328.918
328.666
328.746
329.18
329.772
330.365
331.103
331.786
332.255
332.452
332.385
331.921
331.335
330.679
330.08
329.518
329.252
329.238
329.556
322.774
322.501
322.332
322.362
322.72
323.153
323.614
324.16
324.748
325.103
325.229
325.176
324.804
324.378
323.853
323.371
322.971
322.781
322.724
322.98
316.251
316.076
315.966
315.983
316.244
316.527
316.873
317.237
317.711
317.927
318.015
317.981
317.726
317.413
317.047
316.68
316.417
316.291
316.224
316.41
309.762
309.655
309.602
309.622
309.762
309.918
310.129
310.337
310.661
310.751
310.81
310.815
310.655
310.448
310.252
310.01
309.877
309.8
309.746
309.846
303.283
303.236
303.221
303.234
303.28
303.32
303.393
303.461
303.572
303.593
303.624
303.627
303.572
303.501
303.444
303.351
303.325
303.294
303.268
303.299
349.7
349.013
348.588
348.811
349.34
350.437
351.544
352.787
353.966
354.852
355.231
355.123
354.317
353.22
352.005
350.928
350.016
349.574
349.709
350.154
343.038
342.473
342.11
342.311
342.752
343.7
344.643
345.729
346.749
347.508
347.8
347.746
347.029
346.078
345.03
344.122
343.336
342.949
343.074
343.392
336.395
335.951
335.615
335.792
336.187
336.961
337.767
338.689
339.562
340.181
340.374
340.358
339.764
338.981
338.052
337.332
336.683
336.351
336.44
336.678
329.762
329.459
329.149
329.279
329.596
330.219
330.9
331.651
332.368
332.847
333.001
332.988
332.522
331.895
331.08
330.556
330.009
329.749
329.819
329.998
323.145
322.926
322.699
322.796
323.021
323.492
324.041
324.622
325.162
325.548
325.669
325.634
325.268
324.819
324.157
323.779
323.344
323.14
323.209
323.327
316.548
316.384
316.226
316.3
316.442
316.752
317.176
317.597
317.965
318.256
318.338
318.297
318.057
317.725
317.248
316.996
316.69
316.526
316.606
316.667
309.933
309.846
309.747
309.782
309.869
310.046
310.316
310.563
310.791
310.952
310.999
310.984
310.844
310.648
310.361
310.209
310.046
309.932
309.985
310.013
303.333
303.306
303.268
303.282
303.308
303.363
303.457
303.542
303.608
303.665
303.684
303.687
303.63
303.574
303.478
303.423
303.377
303.341
303.353
303.359
350.586
349.864
349.509
349.677
350.187
351.095
352.318
353.631
354.878
355.866
356.14
356.051
355.303
354.124
352.985
351.85
350.98
350.552
350.584
351.015
343.789
343.228
342.886
343.051
343.481
344.28
345.317
346.46
347.517
348.394
348.586
348.524
347.918
346.852
345.859
344.917
344.173
343.766
343.835
344.159
337.043
336.589
336.274
336.465
336.805
337.466
338.349
339.304
340.186
340.934
341.081
341.019
340.529
339.622
338.75
338.013
337.376
337.013
337.09
337.332
330.313
329.936
329.681
329.864
330.125
330.649
331.366
332.145
332.875
333.483
333.594
333.522
333.132
332.417
331.682
331.113
330.582
330.263
330.372
330.517
323.573
323.287
323.114
323.247
323.442
323.824
324.388
324.989
325.553
326.042
326.14
326.055
325.75
325.209
324.618
324.179
323.807
323.534
323.636
323.704
316.837
316.625
316.511
316.632
316.738
317.023
317.424
317.872
318.253
318.598
318.685
318.595
318.379
317.996
317.582
317.263
317.013
316.82
316.887
316.913
310.097
309.979
309.925
309.991
310.05
310.228
310.459
310.73
310.971
311.148
311.223
311.164
311.034
310.807
310.538
310.363
310.214
310.114
310.164
310.141
303.377
303.333
303.327
303.345
303.367
303.434
303.513
303.593
303.675
303.734
303.761
303.738
303.702
303.625
303.533
303.468
303.418
303.388
303.398
303.386
351.521
350.736
350.425
350.692
351.219
351.99
353.192
354.49
355.759
356.781
357.153
356.897
356.292
355.032
353.828
352.759
351.903
351.407
351.545
351.774
344.64
343.994
343.701
343.95
344.377
345.043
346.048
347.194
348.289
349.17
349.462
349.264
348.745
347.643
346.631
345.701
344.959
344.502
344.659
344.814
337.761
337.24
336.945
337.182
337.536
338.101
338.91
339.91
340.824
341.594
341.798
341.631
341.212
340.28
339.45
338.658
338.017
337.639
337.775
337.877
330.898
330.46
330.239
330.421
330.693
331.166
331.805
332.65
333.378
334.013
334.19
334.042
333.701
332.934
332.257
331.624
331.103
330.767
330.898
330.961
324.042
323.672
323.522
323.669
323.891
324.229
324.72
325.392
325.971
326.448
326.593
326.481
326.206
325.597
325.092
324.601
324.2
323.922
324.015
324.072
317.194
316.905
316.815
316.894
317.051
317.298
317.673
318.142
318.56
318.896
319.006
318.935
318.707
318.269
317.925
317.572
317.274
317.08
317.141
317.188
310.334
310.157
310.106
310.156
310.245
310.374
310.62
310.898
311.156
311.355
311.412
311.371
311.224
310.956
310.76
310.544
310.383
310.248
310.291
310.3
303.47
303.411
303.386
303.418
303.441
303.466
303.562
303.645
303.743
303.808
303.816
303.81
303.767
303.664
303.603
303.535
303.492
303.433
303.447
303.455
352.301
351.597
351.437
351.485
352.108
352.902
354.057
355.348
356.633
357.578
358.054
357.747
357.061
355.876
354.746
353.652
352.703
352.271
352.353
352.693
345.301
344.705
344.6
344.594
345.142
345.816
346.818
347.952
349.039
349.865
350.274
349.999
349.389
348.378
347.429
346.485
345.656
345.296
345.347
345.607
338.315
337.817
337.721
337.742
338.173
338.747
339.597
340.565
341.473
342.168
342.504
342.274
341.754
340.915
340.113
339.337
338.614
338.315
338.38
338.565
331.343
330.939
330.852
330.895
331.219
331.683
332.386
333.201
333.928
334.481
334.751
334.554
334.134
333.464
332.811
332.173
331.612
331.337
331.395
331.535
324.371
324.064
323.997
324.063
324.275
324.642
325.18
325.819
326.391
326.797
327.013
326.869
326.532
326.013
325.526
325.018
324.596
324.338
324.415
324.517
317.417
317.204
317.134
317.204
317.343
317.597
317.985
318.447
318.887
319.146
319.29
319.197
318.947
318.553
318.25
317.862
317.58
317.371
317.436
317.513
310.45
310.353
310.285
310.344
310.416
310.561
310.809
311.072
311.343
311.483
311.591
311.532
311.367
311.115
310.957
310.71
310.572
310.43
310.46
310.522
303.498
303.478
303.445
303.466
303.483
303.542
303.627
303.713
303.803
303.851
303.882
303.869
303.804
303.723
303.674
303.592
303.555
303.497
303.508
303.528
353.246
352.685
352.381
352.508
352.917
353.857
354.925
356.115
357.374
358.201
358.779
358.48
357.77
356.693
355.49
354.542
353.685
353.211
353.248
353.653
346.101
345.648
345.417
345.497
345.855
346.647
347.572
348.6
349.707
350.407
350.906
350.649
350.022
349.09
348.046
347.249
346.503
346.076
346.127
346.433
338.966
338.632
338.419
338.488
338.806
339.437
340.236
341.124
342.059
342.622
343.039
342.834
342.284
341.504
340.636
339.966
339.337
338.963
339.01
339.26
331.854
331.618
331.436
331.498
331.773
332.262
332.921
333.64
334.431
334.855
335.179
335.025
334.554
333.939
333.226
332.675
332.164
331.859
331.913
332.117
324.774
324.604
324.475
324.529
324.709
325.094
325.61
326.185
326.797
327.101
327.369
327.221
326.861
326.403
325.827
325.404
325.002
324.768
324.836
324.972
317.707
317.592
317.505
317.56
317.669
317.948
318.291
318.717
319.148
319.363
319.549
319.434
319.187
318.863
318.437
318.149
317.87
317.694
317.757
317.839
310.629
310.574
310.539
310.567
310.613
310.772
310.969
311.237
311.508
311.637
311.74
311.66
311.515
311.338
311.063
310.904
310.745
310.62
310.66
310.713
303.575
303.537
303.544
303.544
303.555
303.611
303.666
303.76
303.863
303.892
303.928
303.914
303.853
303.792
303.707
303.657
303.596
303.551
303.574
303.58
354.26
353.745
353.284
353.474
353.975
354.689
355.675
356.841
358
358.818
359.199
359.059
358.416
357.359
356.255
355.386
354.495
354.138
354.233
354.569
346.984
346.553
346.162
346.345
346.758
347.396
348.218
349.241
350.239
350.926
351.256
351.151
350.601
349.656
348.728
347.987
347.206
346.898
346.963
347.23
339.706
339.357
339.069
339.229
339.557
340.091
340.781
341.635
342.503
343.067
343.351
343.254
342.775
341.984
341.195
340.569
339.931
339.655
339.72
339.902
332.45
332.177
331.968
332.119
332.364
332.783
333.341
334.032
334.762
335.236
335.476
335.395
334.977
334.335
333.695
333.178
332.682
332.422
332.478
332.617
325.228
325.037
324.885
325.002
325.179
325.489
325.915
326.457
327.041
327.432
327.617
327.528
327.186
326.719
326.181
325.791
325.444
325.215
325.246
325.338
318.013
317.906
317.81
317.872
317.986
318.208
318.515
318.886
319.314
319.622
319.756
319.662
319.429
319.1
318.709
318.42
318.205
318.023
318.047
318.107
310.826
310.762
310.712
310.732
310.807
310.931
311.109
311.343
311.603
311.79
311.875
311.79
311.672
311.471
311.238
311.051
310.94
310.83
310.839
310.885
303.633
303.609
303.591
303.604
303.618
303.659
303.717
303.799
303.891
303.947
303.977
303.952
303.91
303.844
303.767
303.696
303.661
303.64
303.636
303.655
355.427
354.739
354.292
354.427
354.732
355.557
356.552
357.677
358.609
359.421
359.739
359.666
358.96
358.001
357.049
356.103
355.409
355.106
354.977
355.517
348.003
347.444
347.039
347.154
347.415
348.137
348.982
350.006
350.766
351.474
351.738
351.667
351.068
350.227
349.426
348.604
347.972
347.723
347.599
348.048
340.601
340.141
339.776
339.908
340.124
340.716
341.443
342.302
342.941
343.549
343.777
343.699
343.187
342.461
341.809
341.118
340.559
340.367
340.253
340.604
333.193
332.844
332.529
332.671
332.849
333.306
333.935
334.61
335.133
335.625
335.817
335.732
335.305
334.733
334.188
333.631
333.167
333.015
332.922
333.175
325.811
325.56
325.307
325.422
325.581
325.883
326.44
326.914
327.326
327.687
327.858
327.788
327.45
326.997
326.571
326.168
325.795
325.679
325.604
325.784
318.429
318.268
318.096
318.149
318.292
318.482
318.92
319.233
319.522
319.791
319.908
319.825
319.596
319.273
318.971
318.719
318.424
318.346
318.277
318.408
311.073
310.976
310.876
310.882
310.982
311.088
311.378
311.55
311.728
311.9
311.956
311.901
311.758
311.561
311.395
311.261
311.058
311.029
310.991
311.055
303.721
303.682
303.635
303.646
303.683
303.711
303.812
303.868
303.92
303.982
304.011
303.993
303.943
303.872
303.824
303.773
303.705
303.702
303.678
303.711
356.361
355.783
355.393
355.434
355.711
356.543
357.329
358.34
359.184
359.89
360.181
360.107
359.475
358.607
357.64
356.866
356.224
355.983
356.024
356.408
348.809
348.336
348.028
348.068
348.287
348.973
349.671
350.563
351.278
351.89
352.128
352.065
351.475
350.774
349.907
349.25
348.684
348.495
348.522
348.837
341.283
340.896
340.647
340.691
340.872
341.428
342.026
342.806
343.395
343.885
344.096
344.046
343.52
342.956
342.218
341.652
341.163
341.009
341.043
341.295
333.762
333.465
333.241
333.303
333.467
333.883
334.382
335.039
335.526
335.871
336.075
336.046
335.585
335.137
334.545
334.083
333.676
333.551
333.564
333.749
326.26
326.041
325.843
325.89
326.045
326.35
326.739
327.276
327.627
327.864
328.059
328.049
327.687
327.328
326.87
326.502
326.188
326.109
326.104
326.249
318.78
318.613
318.464
318.468
318.619
318.822
319.093
319.468
319.752
319.916
320.035
320.07
319.79
319.523
319.185
318.933
318.707
318.666
318.641
318.756
311.273
311.176
311.08
311.071
311.187
311.304
311.466
311.68
311.854
311.973
312.039
312.055
311.893
311.723
311.522
311.374
311.234
311.238
311.193
311.263
303.786
303.746
303.708
303.711
303.742
303.788
303.835
303.916
303.959
304.019
304.039
304.034
304.002
303.93
303.867
303.809
303.766
303.771
303.756
303.769
357.322
356.76
356.466
356.529
356.737
357.275
358.169
358.995
359.818
360.401
360.734
360.642
360.036
359.329
358.334
357.574
357.036
356.853
356.97
357.381
349.645
349.187
348.919
348.999
349.154
349.595
350.393
351.121
351.821
352.319
352.607
352.551
351.977
351.401
350.501
349.896
349.438
349.238
349.349
349.687
342.007
341.622
341.387
341.457
341.589
341.941
342.606
343.248
343.838
344.238
344.502
344.452
343.939
343.485
342.68
342.217
341.839
341.658
341.734
341.991
334.365
334.073
333.884
333.932
334.031
334.301
334.819
335.374
335.874
336.183
336.397
336.361
335.935
335.58
334.894
334.569
334.235
334.083
334.121
334.311
326.733
326.522
326.366
326.388
326.477
326.67
327.073
327.503
327.907
328.142
328.304
328.272
327.939
327.69
327.109
326.916
326.634
326.49
326.512
326.659
319.093
318.953
318.84
318.847
318.934
319.063
319.339
319.649
319.934
320.108
320.211
320.183
319.962
319.785
319.353
319.234
319.036
318.918
318.911
319.038
311.446
311.395
311.314
311.32
311.389
311.453
311.616
311.802
311.967
312.084
312.132
312.106
312.004
311.873
311.618
311.548
311.426
311.365
311.349
311.43
303.83
303.824
303.783
303.788
303.822
303.846
303.896
303.953
304.015
304.053
304.065
304.053
304.018
303.977
303.895
303.865
303.823
303.812
303.795
303.832
358.527
357.872
357.454
357.439
357.741
358.101
358.877
359.635
360.202
360.807
361.142
361.013
360.604
359.855
359.059
358.427
357.974
357.718
357.852
358.432
350.679
350.144
349.793
349.763
350.028
350.323
351.005
351.657
352.156
352.691
352.966
352.878
352.506
351.852
351.155
350.624
350.241
350.024
350.116
350.593
342.864
342.429
342.123
342.095
342.316
342.566
343.156
343.682
344.149
344.572
344.778
344.746
344.412
343.874
343.264
342.824
342.493
342.326
342.397
342.777
335.054
334.739
334.463
334.433
334.613
334.819
335.309
335.719
336.155
336.473
336.605
336.606
336.331
335.895
335.402
335.039
334.752
334.646
334.661
334.981
327.281
327.016
326.844
326.778
326.925
327.069
327.451
327.765
328.133
328.371
328.465
328.468
328.268
327.926
327.54
327.26
327.022
326.958
326.94
327.191
319.505
319.306
319.192
319.132
319.243
319.337
319.623
319.832
320.11
320.282
320.332
320.329
320.192
319.946
319.676
319.484
319.293
319.259
319.249
319.412
311.709
311.59
311.534
311.5
311.57
311.617
311.78
311.913
312.082
312.195
312.193
312.218
312.117
311.97
311.814
311.706
311.591
311.561
311.561
311.65
303.923
303.882
303.867
303.845
303.879
303.89
303.945
303.994
304.053
304.09
304.083
304.102
304.05
304.008
303.972
303.917
303.879
303.875
303.886
303.915
359.619
359.002
358.488
358.413
358.623
359.127
359.643
360.218
360.879
361.289
361.575
361.42
361.103
360.425
359.704
359.111
358.719
358.706
358.977
359.411
351.619
351.14
350.665
350.619
350.797
351.231
351.679
352.172
352.74
353.08
353.335
353.21
352.945
352.35
351.741
351.224
350.867
350.863
351.095
351.46
343.657
343.288
342.862
342.853
342.982
343.331
343.717
344.148
344.625
344.915
345.134
345.012
344.796
344.276
343.766
343.331
343.043
343.026
343.201
343.527
335.715
335.433
335.083
335.09
335.185
335.448
335.748
336.121
336.507
336.753
336.922
336.836
336.655
336.219
335.809
335.457
335.22
335.184
335.33
335.603
327.777
327.58
327.287
327.298
327.394
327.587
327.807
328.093
328.391
328.612
328.697
328.639
328.515
328.17
327.835
327.579
327.389
327.351
327.484
327.681
319.842
319.713
319.5
319.519
319.576
319.722
319.857
320.092
320.275
320.438
320.496
320.452
320.388
320.126
319.89
319.739
319.588
319.522
319.645
319.778
311.913
311.847
311.726
311.727
311.754
311.855
311.926
312.086
312.18
312.267
312.314
312.27
312.253
312.08
311.928
311.88
311.759
311.73
311.799
311.877
303.995
303.977
303.923
303.938
303.944
303.971
303.99
304.052
304.088
304.107
304.137
304.108
304.105
304.043
304.001
303.984
303.944
303.935
303.948
303.972
360.813
360.147
359.645
359.513
359.526
360.166
360.568
361.002
361.666
361.836
362.108
361.995
361.62
361.052
360.447
359.858
359.669
359.547
359.93
360.394
352.635
352.118
351.642
351.577
351.564
352.128
352.478
352.843
353.413
353.565
353.814
353.71
353.368
352.856
352.35
351.843
351.684
351.577
351.902
352.297
344.484
344.101
343.682
343.615
343.601
344.086
344.375
344.715
345.164
345.314
345.534
345.446
345.146
344.683
344.299
343.834
343.723
343.609
343.895
344.224
336.372
336.083
335.713
335.668
335.664
336.074
336.294
336.593
336.94
337.056
337.261
337.156
336.934
336.562
336.237
335.851
335.758
335.68
335.911
336.147
328.272
328.066
327.762
327.743
327.753
328.066
328.225
328.455
328.735
328.816
329
328.883
328.733
328.435
328.19
327.86
327.797
327.746
327.935
328.084
320.187
320.053
319.83
319.827
319.835
320.059
320.167
320.339
320.54
320.587
320.736
320.655
320.542
320.319
320.141
319.889
319.835
319.834
319.952
320.051
312.113
312.06
311.909
311.895
311.906
312.046
312.1
312.221
312.339
312.374
312.481
312.389
312.341
312.188
312.09
311.933
311.904
311.905
311.979
312.036
304.051
304.03
303.986
303.978
303.994
304.032
304.049
304.1
304.136
304.145
304.185
304.149
304.136
304.084
304.042
303.997
303.987
303.989
304.02
304.037
361.758
361.143
360.669
360.499
360.523
360.962
361.496
361.884
362.288
362.497
362.615
362.519
362.185
361.651
361.21
360.791
360.444
360.476
360.846
361.383
353.466
352.945
352.558
352.382
352.395
352.807
353.282
353.618
353.966
354.121
354.222
354.138
353.85
353.385
353.001
352.644
352.343
352.358
352.678
353.131
345.213
344.782
344.466
344.306
344.309
344.665
345.047
345.363
345.65
345.766
345.867
345.787
345.522
345.136
344.818
344.512
344.259
344.266
344.55
344.902
336.979
336.619
336.381
336.234
336.243
336.543
336.84
337.112
337.339
337.445
337.514
337.436
337.196
336.925
336.652
336.393
336.172
336.204
336.4
336.719
328.742
328.5
328.288
328.182
328.195
328.424
328.629
328.85
329.025
329.133
329.19
329.102
328.891
328.718
328.512
328.267
328.103
328.151
328.303
328.564
320.508
320.36
320.197
320.148
320.162
320.318
320.438
320.594
320.729
320.835
320.859
320.808
320.611
320.506
320.363
320.173
320.059
320.114
320.231
320.405
312.304
312.216
312.123
312.094
312.111
312.202
312.281
312.386
312.444
312.536
312.532
312.505
312.361
312.315
312.222
312.097
312.036
312.077
312.156
312.251
304.114
304.092
304.064
304.047
304.052
304.089
304.108
304.153
304.172
304.204
304.196
304.2
304.138
304.129
304.087
304.056
304.038
304.051
304.076
304.096
362.556
361.975
361.537
361.334
361.311
361.641
362.089
362.412
362.791
363.043
362.896
362.83
362.536
362.252
361.861
361.265
361.091
361.221
361.613
362.034
354.094
353.645
353.267
353.09
353.065
353.379
353.768
354.051
354.339
354.553
354.426
354.395
354.141
353.88
353.546
353.018
352.874
352.96
353.271
353.628
345.689
345.358
345.032
344.849
344.866
345.141
345.471
345.711
345.935
346.139
346.014
345.996
345.753
345.525
345.251
344.79
344.687
344.736
344.987
345.306
337.342
337.101
336.823
336.661
336.692
336.934
337.191
337.403
337.556
337.74
337.653
337.607
337.398
337.213
336.979
336.604
336.546
336.549
336.742
337.005
329.035
328.831
328.653
328.494
328.512
328.7
328.94
329.08
329.205
329.348
329.304
329.239
329.042
328.932
328.745
328.458
328.403
328.396
328.542
328.746
320.712
320.582
320.499
320.355
320.366
320.478
320.669
320.762
320.867
320.985
320.976
320.885
320.711
320.641
320.549
320.339
320.293
320.288
320.375
320.525
312.432
312.37
312.313
312.221
312.222
312.278
312.409
312.466
312.516
312.615
312.617
312.55
312.42
312.366
312.343
312.219
312.181
312.179
312.209
312.332
304.16
304.145
304.129
304.096
304.086
304.112
304.165
304.175
304.194
304.231
304.231
304.21
304.165
304.141
304.143
304.09
304.083
304.081
304.086
304.138
)
;

boundaryField
{
    hotSide
    {
        type            fixedGradient;
        gradient        nonuniform List<scalar> 
400
(
515.804
513.349
513.386
515.842
520.455
526.85
534.629
543.433
552.972
563.025
573.442
584.131
595.052
606.212
617.661
629.484
641.794
654.706
668.313
682.654
501.126
498.953
499.443
502.503
507.812
514.926
523.384
532.786
542.815
553.243
563.914
574.74
585.688
596.779
608.076
619.688
631.755
644.422
657.81
671.972
493.986
492.39
493.411
496.947
502.673
510.143
518.897
528.527
538.713
549.22
559.891
570.639
581.438
592.315
603.345
614.646
626.366
638.661
651.657
665.418
493.885
493.142
494.789
498.716
504.638
512.168
520.89
530.427
540.467
550.778
561.204
571.658
582.12
592.622
603.246
614.112
625.362
637.141
649.568
662.709
498.961
499.251
501.644
506.02
512.136
519.666
528.254
537.561
547.296
557.235
567.229
577.198
587.129
597.066
607.098
617.346
627.947
639.032
650.713
663.059
507.08
508.494
511.764
516.751
523.231
530.914
539.479
548.614
558.044
567.555
577.007
586.336
595.551
604.717
613.941
623.356
633.102
643.311
654.09
665.516
516.43
519.004
523.263
529.047
536.127
544.215
552.99
562.137
571.375
580.49
589.354
597.93
606.263
614.462
622.671
631.054
639.768
648.955
658.728
669.167
525.56
529.267
534.573
541.299
549.193
557.942
567.192
576.586
585.804
594.61
602.883
610.626
617.947
625.024
632.066
639.283
646.863
654.963
663.703
673.168
533.265
537.982
544.288
551.99
560.812
570.4
580.341
590.197
599.571
608.176
615.89
622.773
629.025
634.923
640.76
646.802
653.273
660.344
668.139
676.739
538.543
544.011
551.112
559.642
569.311
579.725
590.406
600.819
610.463
618.973
626.223
632.337
637.627
642.482
647.279
652.338
657.908
664.169
671.242
679.204
540.656
546.477
553.982
562.971
573.142
584.082
595.263
606.084
615.96
624.463
631.457
637.117
641.836
646.078
650.279
654.788
659.868
665.702
672.41
680.063
539.273
544.952
552.353
561.274
571.409
582.338
593.528
604.375
614.292
622.852
629.914
635.647
640.435
644.741
648.997
653.557
658.69
664.582
671.359
679.095
534.58
539.635
546.439
554.788
564.377
574.794
585.538
596.06
605.848
614.529
621.964
628.265
633.727
638.731
643.659
648.841
654.541
660.956
668.219
676.415
527.303
531.356
537.215
544.681
553.451
563.132
573.265
583.372
593.024
601.909
609.888
617.003
623.444
629.49
635.446
641.602
648.211
655.473
663.535
672.49
518.644
521.47
526.227
532.728
540.674
549.679
559.309
569.13
578.766
587.939
596.504
604.451
611.89
619.013
626.06
633.281
640.916
649.165
658.186
668.079
510.239
511.754
515.409
521.032
528.314
536.849
546.191
555.916
565.663
575.169
584.279
592.952
601.247
609.3
617.307
625.491
634.083
643.295
653.293
664.179
504.172
504.416
507.061
511.951
518.746
526.989
536.198
545.93
555.826
565.626
575.172
584.404
593.353
602.124
610.881
619.837
629.225
639.271
650.155
661.98
502.872
502.017
503.781
508.02
514.363
522.306
531.332
540.987
550.912
560.853
570.655
580.249
589.648
598.935
608.255
617.808
627.828
638.552
650.173
662.788
508.473
506.821
507.827
511.366
517.078
524.467
533.029
542.325
552.013
561.846
571.673
581.42
591.086
600.735
610.492
620.537
631.085
642.361
654.546
667.727
521.675
519.558
519.921
522.668
527.501
534.01
541.759
550.361
559.503
568.956
578.572
588.271
598.04
607.923
618.021
628.478
639.472
651.183
663.755
677.255
)
;
    }
    coldSide
    {
        type            mixed;
        refValue        uniform 300;
        refGradient     uniform 0;
        valueFraction   uniform 0.991591;
        source          uniform 0;
        value           nonuniform List<scalar> 
400
(
300.027
300.027
300.027
300.027
300.027
300.028
300.028
300.028
300.029
300.029
300.03
300.031
300.031
300.032
300.032
300.033
300.034
300.034
300.035
300.035
300.026
300.026
300.027
300.027
300.027
300.027
300.028
300.028
300.029
300.029
300.03
300.03
300.031
300.032
300.032