/*--------------------------------*- C++ -*----------------------------------*\
| =========                 |                                                 |
| \\      /  F ield         | OpenFOAM: The Open Source CFD Toolbox           |
|  \\    /   O peration     | Version:  2212                                  |
|   \\  /    A nd           | Website:  www.openfoam.com                      |
|    \\/     M anipulation  |                                                 |
\*---------------------------------------------------------------------------*/
FoamFile
{
    version     2.0;
    format      ascii;
    arch        "LSB;label=32;scalar=64";
    class       volScalarField;
    location    "./ITHACAoutput/true/18.8";
    object      error;
}
// * * * * * * * * * * * * * * * * * * * * * * * * * * * * * * * * * * * * * //

dimensions      [0 0 0 1 0 0 0];

internalField   nonuniform List<scalar> 
3200
(
-0.692611
-0.0277123
0.51592
0.804195
0.904636
0.84621
0.718624
0.592523
0.430884
0.457956
0.323503
0.417101
0.438753
0.607614
0.803312
0.913736
0.895043
0.752299
0.356211
-0.233288
-0.40793
-0.0179342
0.563668
0.74038
0.849271
0.74091
0.649802
0.547786
0.324042
0.304531
0.176104
0.227349
0.307551
0.453909
0.585462
0.705639
0.722511
0.571367
0.342961
-0.233847
-0.288692
0.175386
0.50647
0.593176
0.799747
0.698629
0.565713
0.433209
0.296188
0.164636
0.128003
0.170423
0.260853
0.344887
0.42043
0.542326
0.550925
0.343476
0.10708
-0.232975
-0.174418
0.109104
0.370077
0.662106
0.56276
0.490516
0.401844
0.360032
0.24902
0.118405
0.0873805
0.127112
0.197634
0.136436
0.364115
0.359196
0.452483
0.342893
0.0820618
-0.21727
-0.122481
0.135774
0.413024
0.524103
0.479946
0.524499
0.316942
0.246704
0.207703
0.0647085
0.166955
0.0602663
0.149094
0.180793
0.268704
0.224251
0.313283
0.245463
0.0234322
-0.16939
-0.0261996
0.114021
0.350129
0.333218
0.301464
0.352682
0.247429
0.200047
0.183742
0.0659945
-0.014942
0.0258996
0.128015
0.0775929
0.20978
0.209739
0.200726
0.0853789
-0.00459354
-0.215074
0.0115038
0.114501
0.190939
0.210956
0.233861
0.17472
0.0977926
0.166332
0.0461834
0.0373013
-0.016678
-0.00494617
0.0175446
0.0504772
0.121834
0.17933
0.138127
0.0361916
-0.0557382
0.00919675
-0.0326301
0.0149472
-0.0387576
0.0922674
0.0693056
0.0676031
0.0124683
0.0443237
0.0299423
0.0111973
0.00195754
-0.0224471
0.0150986
0.0626777
0.036691
-0.00117026
-0.0156875
0.0488997
-0.0768323
-0.0694289
-0.71985
-0.0490798
0.357671
0.640117
0.760063
0.685261
0.578514
0.443592
0.313091
0.200233
0.112495
0.153889
0.237354
0.492834
0.723249
0.800967
0.85414
0.662634
0.27156
-0.183528
-0.531122
0.0460395
0.405384
0.631469
0.714242
0.642154
0.440406
0.343448
0.160916
0.0606229
-0.0251349
0.0880469
0.186123
0.324314
0.446928
0.614099
0.596586
0.46359
0.198108
-0.277507
-0.337266
0.123442
0.415488
0.609574
0.599071
0.584641
0.376828
0.36232
0.124494
0.096927
-0.0580366
0.0313209
0.0277363
0.242233
0.267155
0.441207
0.510364
0.364389
0.0691535
-0.247308
-0.240874
0.110802
0.341786
0.455309
0.565708
0.509393
0.369439
0.220903
0.114279
0.0757944
-0.0508181
0.0431913
0.0623532
0.100302
0.180553
0.397701
0.36196
0.263167
-0.00857979
-0.225648
-0.128363
0.111958
0.336446
0.44613
0.457136
0.365122
0.251608
0.149926
0.0758559
0.0421263
-0.0238718
-0.033872
0.00811957
0.0484511
0.168211
0.300262
0.274124
0.235091
-0.0122149
-0.260635
-0.126333
0.0808043
0.318167
0.336006
0.298928
0.267395
0.171547
0.0824767
0.0736403
-0.018165
0.0103713
-0.0305675
-0.0539179
0.069723
0.080964
0.167579
0.176068
0.0401178
0.00527388
-0.145638
-0.0624122
0.0301016
0.0993863
0.164277
0.25591
0.094756
0.1588
0.181306
0.00818263
-0.028833
-0.0104596
-0.0247797
0.000344429
-0.0133998
0.0152455
0.0732696
0.159006
0.0670264
-0.0114507
-0.044334
-0.0558047
-0.0046083
0.0629782
0.045101
0.111579
0.0349651
0.0225454
0.0438919
0.00776714
0.0576465
0.0655025
-0.00397693
-0.0261549
0.0619297
0.0432558
0.0573618
-0.0344877
-0.020809
-0.00504386
-0.14787
-0.873355
-0.222628
0.245678
0.533996
0.609668
0.380277
0.33776
0.0886978
-0.0537667
-0.194431
-0.166885
-0.150491
-0.110379
0.113069
0.396818
0.583191
0.639439
0.58371
0.14697
-0.341925
-0.601733
-0.150102
0.323801
0.558004
0.553647
0.42106
0.32949
0.0982438
-0.118701
-0.220118
-0.227273
-0.27559
-0.0862008
0.00838883
0.210658
0.428463
0.448784
0.450749
0.0661517
-0.354785
-0.458974
-0.0348418
0.30047
0.481689
0.433912
0.361
0.23004
0.0973022
-0.0431769
-0.215305
-0.1493
-0.237038
-0.153467
-0.0431074
0.0805164
0.306484
0.397875
0.181945
-0.0564357
-0.345376
-0.320607
0.00388345
0.278852
0.393434
0.409361
0.312337
0.235588
0.0529082
-0.0585701
-0.0996688
-0.235278
-0.209715
-0.113224
-0.0724415
0.0554817
0.189923
0.20215
0.194136
-0.0673758
-0.314994
-0.200666
0.0622576
0.269838
0.279818
0.355796
0.352739
0.166213
0.0183372
-0.0349887
-0.138285
-0.269231
-0.209821
-0.151511
-0.0708777
0.0302132
0.0940833
0.198731
0.0978753
-0.108968
-0.23319
-0.152389
0.0871984
0.147804
0.190343
0.227496
0.19146
0.0405219
0.0184909
-0.0192279
-0.111622
-0.132987
-0.145467
-0.0554272
-0.0591672
0.0641138
0.0345549
0.132675
0.0707424
0.0237658
-0.253094
-0.0298345
0.0103082
0.0473661
0.154495
0.14577
0.0908635
0.0549029
0.015676
-0.0051896
-0.000670151
-0.084486
-0.0777231
-0.0414844
-0.00610069
0.0357602
0.0688499
0.10842
0.0210591
-0.0517179
-0.122454
0.046667
0.0162488
0.0237986
0.0479021
0.0113344
0.0565298
0.033112
0.0146539
0.0103855
0.0410613
-0.0241975
0.0560953
-0.00787709
0.0134702
0.0185556
-0.0250543
-0.0382482
0.0502472
-0.0407321
0.0200837
-0.907349
-0.425519
0.0641065
0.337132
0.365522
0.269185
0.0336831
-0.173014
-0.418664
-0.585978
-0.60419
-0.548296
-0.467753
-0.192754
0.0360331
0.237778
0.479088
0.271607
0.0120929
-0.525274
-0.746862
-0.214529
0.0863101
0.321799
0.32083
0.233112
0.0521959
-0.255919
-0.412931
-0.518933
-0.717178
-0.614976
-0.455705
-0.274603
-0.0963369
0.147538
0.201652
0.154098
-0.108367
-0.496467
-0.539057
-0.145356
0.157153
0.277639
0.32778
0.165974
-0.0423852
-0.117291
-0.254786
-0.492164
-0.599484
-0.443358
-0.475713
-0.253005
-0.147231
0.0772075
0.160195
0.0695608
-0.138658
-0.478078
-0.369411
0.00629891
0.187023
0.231444
0.349318
0.173748
0.0723022
-0.173141
-0.354923
-0.414621
-0.518137
-0.563205
-0.43838
-0.302383
-0.159352
-0.032876
0.0763108
0.0330754
-0.187158
-0.413749
-0.280913
-0.00596093
0.110102
0.303197
0.239766
0.145377
0.00113136
-0.122999
-0.27904
-0.323861
-0.396648
-0.305057
-0.286488
-0.205712
-0.013147
-0.0123474
0.0364459
-0.0145361
-0.149618
-0.314936
-0.186026
0.0272301
0.10922
0.155429
0.169353
0.125042
-0.00955877
-0.0700468
-0.213441
-0.255224
-0.23098
-0.214778
-0.270947
-0.177515
-0.0787672
-0.044545
0.0668636
-0.0394339
-0.140015
-0.227528
-0.0313834
-0.004942
0.0498697
0.212321
0.128645
0.0669957
-0.055626
-0.0220917
-0.106531
-0.112379
-0.155333
-0.249955
-0.155143
-0.139521
-0.0663102
-0.044202
0.0393107
-0.0514232
-0.0828139
-0.187212
-0.0351049
-0.0211679
0.111138
0.00707451
0.0207515
0.0434361
0.0920138
0.0190494
-0.0260353
-0.0935445
-0.0784261
-0.081339
-0.0813697
0.0885231
-0.0337371
-0.0406491
0.0113212
-0.07157
-0.0301598
-0.0673525
-1.13522
-0.551432
-0.107427
0.046896
0.158985
-0.00571755
-0.208153
-0.518003
-0.795575
-0.96028
-1.0501
-1.05353
-0.948919
-0.617538
-0.360408
0.00160476
0.0922236
0.0734907
-0.25341
-0.670592
-0.896852
-0.421332
-0.099974
0.09556
0.00957194
-0.079215
-0.225803
-0.448912
-0.72446
-0.879635
-0.984706
-0.944909
-0.791286
-0.548054
-0.366273
-0.128542
0.0417172
-0.0248453
-0.319586
-0.708588
-0.6108
-0.280097
-0.00458353
0.117296
0.144299
-0.0538127
-0.265932
-0.395938
-0.611944
-0.765866
-0.894091
-0.889558
-0.734319
-0.542066
-0.345082
-0.209036
-0.1138
-0.133693
-0.281196
-0.658608
-0.532124
-0.212898
0.0712418
0.111325
0.105386
0.050532
-0.141988
-0.404951
-0.497847
-0.703907
-0.716751
-0.755148
-0.650642
-0.506631
-0.365811
-0.225198
0.0160411
-0.149972
-0.273954
-0.603574
-0.353255
-0.151874
0.0556321
0.0888227
0.0823393
0.0665908
-0.112098
-0.293789
-0.42702
-0.573139
-0.663973
-0.579991
-0.612107
-0.386101
-0.287868
-0.172037
-0.0904286
-0.0799377
-0.309334
-0.458784
-0.278974
-0.0609375
0.0102225
0.0895607
0.0971438
-0.0137199
-0.055182
-0.232447
-0.335112
-0.470562
-0.379176
-0.355085
-0.350586
-0.328851
-0.228398
-0.13241
-0.156364
-0.147474
-0.227907
-0.253862
-0.0456782
0.04015
0.00756044
0.0229992
0.0690923
0.0471547
-0.0361326
-0.102204
-0.179416
-0.263886
-0.261727
-0.298237
-0.207744
-0.155115
-0.153963
-0.114042
-0.0221981
-0.0496172
-0.0761685
-0.129227
-0.00698964
-0.105558
0.0089097
0.0189595
0.040796
0.10034
-0.0839171
-0.103768
-0.048539
-0.0996101
-0.116616
-0.104475
-0.118041
-0.0527051
-0.0706525
0.0100077
-0.0874024
-0.0441043
0.0412557
-0.0730839
-1.31407
-0.786928
-0.461145
-0.186434
-0.238426
-0.328211
-0.519926
-0.845902
-1.19084
-1.42733
-1.50424
-1.43
-1.22649
-1.07329
-0.614705
-0.297073
-0.153475
-0.239732
-0.468334
-0.901213
-1.10085
-0.647715
-0.233996
-0.148179
-0.111932
-0.300134
-0.450291
-0.793105
-1.09943
-1.25056
-1.45086
-1.37646
-1.14566
-0.844211
-0.658864
-0.386866
-0.298987
-0.31485
-0.602866
-0.86302
-0.874643
-0.436723
-0.18263
-0.0641322
-0.0969126
-0.259831
-0.487609
-0.634021
-0.854556
-1.04322
-1.22774
-1.16749
-1.06931
-0.811271
-0.590543
-0.405977
-0.23544
-0.305322
-0.549864
-0.753485
-0.643877
-0.340512
-0.114187
-0.0197107
-0.0889124
-0.249063
-0.3931
-0.547831
-0.794467
-0.955222
-1.00887
-0.960989
-0.934175
-0.745724
-0.529302
-0.450774
-0.23931
-0.281854
-0.529608
-0.680761
-0.42603
-0.241946
-0.0240125
0.039154
-0.00587342
-0.201506
-0.188646
-0.503074
-0.642995
-0.753276
-0.838549
-0.831916
-0.719828
-0.564701
-0.393342
-0.317768
-0.275015
-0.287611
-0.408833
-0.443281
-0.308862
-0.160907
-0.0613547
-0.05154
-0.0149989
-0.131387
-0.200055
-0.385834
-0.410325
-0.519944
-0.59228
-0.559196
-0.502471
-0.39882
-0.336049
-0.239662
-0.187132
-0.195553
-0.291486
-0.418093
-0.200068
-0.0322122
-0.038987
-0.0121808
-0.051554
-0.071372
-0.145033
-0.186619
-0.264108
-0.367295
-0.392978
-0.244067
-0.277792
-0.24747
-0.144032
-0.0747323
-0.121685
-0.08853
-0.183382
-0.177346
-0.00561733
-0.00810664
-0.00437491
-0.00086499
0.101236
-0.0497475
-0.0140209
-0.063416
-0.1139
-0.0872067
-0.165757
-0.140472
-0.0788803
-0.00926368
-0.0375802
-0.0601894
-0.0634132
-0.0557626
-0.0302558
-0.0775988
-1.57903
-1.08946
-0.652378
-0.574854
-0.540109
-0.64291
-0.843743
-1.31021
-1.46852
-1.76789
-1.92301
-1.81844
-1.64235
-1.27332
-0.890232
-0.616307
-0.438556
-0.485174
-0.74054
-1.13937
-1.20205
-0.845822
-0.557956
-0.350984
-0.380094
-0.548607
-0.798192
-1.05301
-1.34336
-1.63808
-1.62366
-1.69013
-1.46281
-1.11443
-0.949514
-0.715724
-0.535236
-0.558836
-0.784034
-1.04948
-0.989117
-0.680822
-0.325934
-0.279261
-0.35821
-0.555946
-0.601787
-0.903835
-1.13975
-1.32147
-1.45573
-1.40695
-1.3334
-1.07602
-0.80825
-0.627757
-0.428396
-0.515062
-0.595922
-0.982908
-0.744604
-0.444324
-0.290928
-0.245982
-0.193203
-0.337713
-0.535971
-0.712884
-1.00699
-1.1509
-1.24457
-1.20943
-1.07365
-0.975465
-0.756189
-0.52726
-0.468498
-0.455744
-0.659111
-0.807565
-0.505776
-0.375049
-0.123563
-0.150203
-0.146086
-0.302593
-0.493534
-0.650345
-0.793956
-0.847888
-0.951543
-0.977001
-0.881044
-0.763519
-0.602248
-0.48873
-0.314019
-0.389134
-0.418495
-0.60001
-0.37747
-0.263217
0.00138523
-0.0822191
-0.132321
-0.189881
-0.278032
-0.398555
-0.510207
-0.66897
-0.695848
-0.692285
-0.655608
-0.528457
-0.432801
-0.277265
-0.217187
-0.314034
-0.331526
-0.477703
-0.265429
-0.0952331
-0.0373353
0.0406261
-0.108603
-0.109342
-0.123158
-0.237769
-0.286037
-0.345216
-0.453218
-0.443937
-0.369743
-0.266485
-0.334419
-0.248355
-0.217315
-0.159862
-0.189889
-0.321009
-0.0920147
-0.0105681
-0.0998222
-0.0373314
-0.0123126
0.0623414
-0.0538449
-0.0282937
-0.185899
-0.184196
-0.152203
-0.15049
-0.220561
-0.127845
-0.145368
-0.0970782
-0.055029
0.0147604
-0.0345767
-0.124637
-1.73619
-1.25071
-0.847161
-0.671616
-0.766904
-0.871814
-1.12258
-1.45395
-1.85528
-2.0973
-2.18368
-2.1313
-1.85658
-1.52284
-1.27284
-0.886986
-0.700611
-0.669148
-1.03933
-1.3158
-1.38404
-1.16291
-0.745723
-0.504971
-0.639847
-0.757774
-1.08654
-1.27883
-1.69346
-1.86281
-1.95965
-1.99091
-1.71626
-1.47064
-1.18741
-0.858511
-0.726616
-0.846784
-0.893287
-1.20131
-1.06144
-0.923388
-0.566913
-0.447361
-0.426042
-0.657391
-0.895009
-1.14714
-1.36065
-1.63354
-1.75543
-1.71108
-1.54544
-1.32516
-0.98029
-0.792473
-0.784382
-0.699219
-0.844718
-1.12462
-0.875787
-0.582593
-0.397517
-0.399485
-0.406467
-0.507369
-0.702789
-0.877533
-1.14043
-1.38409
-1.46104
-1.47783
-1.22393
-1.10635
-0.847236
-0.767644
-0.531538
-0.594762
-0.700718
-0.916279
-0.654714
-0.565769
-0.332809
-0.301547
-0.28994
-0.35155
-0.616257
-0.765709
-0.882978
-0.999402
-1.13724
-1.22275
-1.08692
-0.864505
-0.759989
-0.57781
-0.472836
-0.502586
-0.561779
-0.788097
-0.490709
-0.347212
-0.256586
-0.169507
-0.177318
-0.26789
-0.357961
-0.433321
-0.641848
-0.767259
-0.807149
-0.914857
-0.692602
-0.668154
-0.573749
-0.443058
-0.371188
-0.407331
-0.491038
-0.686144
-0.254293
-0.213611
-0.0824981
-0.184615
-0.0740656
-0.177979
-0.19399
-0.37291
-0.374913
-0.44388
-0.519336
-0.469235
-0.496619
-0.423519
-0.334814
-0.285051
-0.30633
-0.289834
-0.251658
-0.277451
-0.108504
-0.0815718
-0.0436686
-0.0752386
-0.0338796
-0.124463
-0.0677933
-0.0806371
-0.153768
-0.194085
-0.138396
-0.151699
-0.167009
-0.140248
-0.0608744
-0.145607
-0.129154
-0.0620851
-0.0494992
-0.141839
-1.92891
-1.56317
-1.14564
-0.961314
-0.950506
-1.14306
-1.38792
-1.78502
-2.08369
-2.33322
-2.4166
-2.38093
-2.20669
-1.80039
-1.4353
-1.10556
-0.931635
-0.991106
-1.15974
-1.52935
-1.59615
-1.20217
-0.929698
-0.789852
-0.828035
-0.893966
-1.18697
-1.48127
-1.72824
-2.13578
-2.18697
-2.16614
-2.00572
-1.65159
-1.32835
-1.04109
-0.945416
-0.890484
-1.13917
-1.32408
-1.28867
-0.96503
-0.761666
-0.623441
-0.756984
-0.87066
-1.06186
-1.29817
-1.57195
-1.73435
-1.95101
-1.95443
-1.7489
-1.49593
-1.19634
-0.972502
-0.880147
-0.834488
-1.01877
-1.2806
-1.06349
-0.755875
-0.590433
-0.483231
-0.537475
-0.759836
-0.923399
-1.07927
-1.29568
-1.4339
-1.63588
-1.56352
-1.48092
-1.30115
-1.15573
-0.794692
-0.714547
-0.804417
-0.892277
-1.02291
-0.71237
-0.612232
-0.368048
-0.35962
-0.46767
-0.51998
-0.674903
-0.784036
-0.989334
-1.17161
-1.28275
-1.22112
-1.18563
-1.06466
-0.88615
-0.692043
-0.58288
-0.549944
-0.721056
-0.800299
-0.501335
-0.334323
-0.325431
-0.300924
-0.292786
-0.334749
-0.419568
-0.59522
-0.761006
-0.847851
-0.909116
-0.870566
-0.879554
-0.747522
-0.539801
-0.51199
-0.4446
-0.503594
-0.51315
-0.553481
-0.306824
-0.240069
-0.166263
-0.121238
-0.229506
-0.286765
-0.354687
-0.379955
-0.413691
-0.570502
-0.588475
-0.492583
-0.599656
-0.540303
-0.369927
-0.309405
-0.20805
-0.26982
-0.237148
-0.368719
-0.0849659
-0.0672973
0.0269735
-0.0593998
-0.0722848
-0.0530605
-0.0927856
-0.0543567
-0.139006
-0.187453
-0.212432
-0.184337
-0.173902
-0.0858192
-0.0745601
-0.146863
-0.0733763
-0.102879
-0.062915
-0.138695
-2.03506
-1.59938
-1.26493
-1.11802
-1.05175
-1.22419
-1.55136
-1.90833
-2.14601
-2.47778
-2.54863
-2.61414
-2.30728
-2.01518
-1.64518
-1.32703
-1.14017
-1.0888
-1.3385
-1.63977
-1.70719
-1.29845
-1.03656
-0.91922
-0.98713
-1.11481
-1.41597
-1.65248
-1.94966
-2.19457
-2.3242
-2.23569
-2.0887
-1.77893
-1.41164
-1.24357
-1.08214
-0.947358
-1.20281
-1.36739
-1.36641
-1.12047
-0.77317
-0.772594
-0.845195
-0.988603
-1.06943
-1.3703
-1.64376
-1.9223
-1.96565
-1.98323
-1.83949
-1.55736
-1.38179
-1.19108
-1.00859
-0.969235
-1.13901
-1.24795
-1.11854
-0.942721
-0.67106
-0.551415
-0.583977
-0.733945
-0.963324
-1.16298
-1.33149
-1.58824
-1.67048
-1.66539
-1.60092
-1.31102
-1.19396
-0.949665
-0.846349
-0.861832
-0.90794
-1.03664
-0.847725
-0.679701
-0.519342
-0.466568
-0.482869
-0.56561
-0.740421
-0.8879
-1.13325
-1.28353
-1.31004
-1.28273
-1.2873
-1.07055
-0.915078
-0.741922
-0.668245
-0.627483
-0.807767
-0.871547
-0.485877
-0.388513
-0.402679
-0.355753
-0.308739
-0.422348
-0.50576
-0.60997
-0.750674
-0.923163
-0.98971
-0.889932
-0.96278
-0.807881
-0.680543
-0.561482
-0.489938
-0.481501
-0.620028
-0.619154
-0.308407
-0.263274
-0.292413
-0.227179
-0.157493
-0.283799
-0.242087
-0.408741
-0.467681
-0.481972
-0.582231
-0.607521
-0.54806
-0.478823
-0.419543
-0.289898
-0.341938
-0.364071
-0.353209
-0.351662
-0.129832
-0.0524361
-0.0330879
-0.145193
-0.0728807
-0.032123
-0.213629
-0.146489
-0.224772
-0.204149
-0.237993
-0.252099
-0.129579
-0.128797
-0.117184
-0.110536
-0.0842625
-0.107061
-0.090239
-0.222904
-2.13457
-1.75834
-1.45389
-1.26705
-1.22671
-1.3035
-1.59411
-1.85545
-2.2061
-2.50142
-2.61529
-2.58708
-2.33804
-1.97993
-1.68927
-1.32338
-1.23429
-1.22018
-1.38813
-1.65158
-1.76695
-1.49059
-1.15454
-0.972244
-1.01667
-1.16743
-1.39314
-1.65574
-1.99344
-2.21174
-2.37383
-2.27282
-2.10782
-1.90753
-1.5341
-1.32219
-1.11057
-1.09466
-1.29547
-1.60206
-1.43513
-1.21266
-0.962355
-0.877883
-0.932546
-0.944252
-1.19258
-1.56969
-1.66007
-2.01551
-2.03575
-1.96992
-1.95536
-1.64294
-1.35445
-1.20669
-1.07229
-1.12715
-1.24635
-1.33616
-1.1073
-0.928351
-0.809323
-0.681727
-0.694945
-0.828048
-0.990227
-1.28485
-1.39753
-1.69431
-1.68788
-1.69579
-1.61448
-1.34332
-1.19101
-1.01099
-0.91599
-0.890656
-0.987203
-1.0753
-0.78657
-0.724012
-0.593664
-0.55073
-0.59258
-0.582446
-0.745392
-0.979868
-1.13016
-1.24894
-1.39536
-1.30049
-1.23091
-1.0795
-0.913706
-0.829977
-0.693421
-0.668257
-0.759867
-0.940518
-0.566574
-0.501137
-0.383913
-0.444991
-0.40053
-0.489221
-0.537842
-0.669337
-0.805804
-0.934837
-0.964988
-0.92961
-0.975834
-0.765549
-0.718907
-0.582205
-0.552218
-0.525308
-0.553274
-0.644811
-0.316392
-0.323742
-0.249336
-0.309474
-0.245182
-0.338462
-0.30663
-0.452157
-0.474872
-0.595326
-0.504034
-0.524665
-0.521848
-0.517542
-0.413266
-0.303019
-0.308286
-0.298169
-0.351557
-0.359688
-0.111863
-0.113708
-0.0554873
-0.1062
-0.0935819
-0.107527
-0.112512
-0.0639225
-0.130798
-0.113971
-0.175356
-0.164929
-0.174553
-0.14171
-0.159801
-0.0976023
-0.0539821
-0.113232
-0.0941202
-0.118625
-2.17026
-1.75738
-1.50029
-1.27805
-1.26234
-1.29791
-1.62195
-1.87449
-2.13077
-2.44571
-2.42532
-2.48909
-2.31147
-1.95396
-1.65912
-1.40834
-1.1397
-1.15931
-1.34833
-1.62388
-1.79414
-1.48714
-1.18524
-1.02982
-1.05758
-1.18569
-1.36225
-1.69887
-1.97073
-2.17539
-2.31057
-2.30493
-1.99028
-1.82586
-1.53024
-1.32468
-1.09149
-1.10619
-1.30134
-1.45451
-1.45558
-1.19369
-1.03685
-0.813052
-0.854993
-1.04026
-1.2125
-1.46032
-1.69928
-1.86632
-1.94304
-1.90713
-1.80044
-1.55549
-1.31135
-1.20521
-1.04292
-0.992515
-1.1462
-1.36166
-1.16223
-0.932801
-0.807786
-0.710409
-0.720206
-0.826471
-0.977417
-1.09884
-1.36926
-1.59469
-1.63864
-1.64612
-1.51079
-1.39226
-1.1028
-1.01461
-0.935517
-0.864028
-0.922039
-1.12693
-0.908844
-0.669594
-0.624991
-0.596584
-0.576863
-0.645613
-0.820541
-0.996372
-1.13098
-1.23426
-1.36028
-1.30265
-1.27755
-1.07302
-0.900935
-0.816705
-0.772733
-0.748613
-0.774765
-0.904007
-0.583018
-0.484976
-0.430534
-0.391419
-0.395954
-0.487612
-0.546479
-0.699758
-0.790962
-0.97448
-0.940025
-0.866822
-0.861309
-0.780256
-0.724163
-0.536233
-0.458891
-0.64384
-0.554502
-0.688062
-0.355173
-0.3233
-0.228228
-0.307189
-0.243957
-0.300611
-0.248515
-0.388879
-0.516616
-0.56965
-0.62145
-0.574937
-0.500548
-0.476401
-0.464659
-0.299233
-0.296397
-0.295521
-0.353523
-0.432127
-0.0739502
-0.164217
-0.162381
-0.075522
-0.0581979
-0.044654
-0.124503
-0.145616
-0.163944
-0.240825
-0.202379
-0.219698
-0.150417
-0.142742
-0.125825
-0.124345
-0.118428
-0.0609357
-0.10816
-0.0854181
-2.07163
-1.76989
-1.33594
-1.30898
-1.1834
-1.40074
-1.60794
-1.79777
-2.0584
-2.26197
-2.36112
-2.24839
-2.09182
-1.77079
-1.58064
-1.20286
-1.13663
-1.08321
-1.26124
-1.53725
-1.80552
-1.52699
-1.27426
-1.04763
-1.07049
-1.1776
-1.44247
-1.54796
-1.84528
-1.94156
-2.09269
-2.02663
-1.89258
-1.7434
-1.44761
-1.1423
-1.08352
-1.08326
-1.18615
-1.42301
-1.42574
-1.08467
-0.992378
-0.874203
-0.877663
-1.03977
-1.13271
-1.34071
-1.54492
-1.70684
-1.89055
-1.82681
-1.66372
-1.47441
-1.34607
-1.07777
-0.979543
-0.967155
-1.15789
-1.28818
-1.15736
-0.9945
-0.783296
-0.764986
-0.734915
-0.798896
-0.921448
-1.10198
-1.33063
-1.47441
-1.6244
-1.51535
-1.40737
-1.24415
-1.09774
-0.963071
-0.854026
-0.920677
-0.855321
-1.01502
-0.896584
-0.781576
-0.602615
-0.513999
-0.605709
-0.613241
-0.81657
-0.869928
-1.10762
-1.15817
-1.20491
-1.22687
-1.16369
-1.01726
-0.960924
-0.766398
-0.696341
-0.671621
-0.709707
-0.822356
-0.604191
-0.545373
-0.462431
-0.397127
-0.438537
-0.472804
-0.524301
-0.641461
-0.778594
-0.797887
-0.896459
-0.890722
-0.778951
-0.756013
-0.635341
-0.617685
-0.552732
-0.496046
-0.576616
-0.586628
-0.347093
-0.322468
-0.251345
-0.273199
-0.230868
-0.27408
-0.336753
-0.425406
-0.45111
-0.503949
-0.524499
-0.546451
-0.53454
-0.501774
-0.401333
-0.348781
-0.344748
-0.322444
-0.424064
-0.334312
-0.0768039
-0.113311
-0.111055
-0.0638524
-0.054247
-0.0798158
-0.17564
-0.163812
-0.0969947
-0.150583
-0.143884
-0.200362
-0.217099
-0.121895
-0.162356
-0.157903
-0.0791453
-0.0452937
-0.16358
-0.162573
-2.00842
-1.62958
-1.28576
-1.22943
-1.09911
-1.1269
-1.43492
-1.59175
-1.73596
-2.03793
-2.14044
-2.04354
-1.83816
-1.57935
-1.31953
-1.07961
-0.941242
-0.946356
-1.14912
-1.48029
-1.64272
-1.34996
-1.12787
-1.01929
-0.971007
-1.10313
-1.17131
-1.47053
-1.65036
-1.8257
-1.89966
-1.85513
-1.62953
-1.43206
-1.26488
-1.09818
-0.962202
-0.92589
-1.08128
-1.27504
-1.45341
-1.0772
-0.897838
-0.809812
-0.838028
-0.866536
-1.01744
-1.22237
-1.40313
-1.53573
-1.66193
-1.6149
-1.52784
-1.3797
-1.0556
-0.912776
-0.896836
-0.837879
-0.946902
-1.21453
-1.14483
-0.920207
-0.7692
-0.755164
-0.712689
-0.739688
-0.831262
-0.937639
-1.13148
-1.36411
-1.37962
-1.3242
-1.24628
-1.13091
-1.0035
-0.925638
-0.753633
-0.744908
-0.855149
-0.989072
-0.821652
-0.667892
-0.573382
-0.601875
-0.571855
-0.657668
-0.663565
-0.797729
-0.919039
-1.02503
-1.21518
-1.07633
-1.01262
-0.908012
-0.827917
-0.660375
-0.651829
-0.627625
-0.701574
-0.807441
-0.500958
-0.435403
-0.365622
-0.390706
-0.312422
-0.437537
-0.403132
-0.586787
-0.64011
-0.804507
-0.756295
-0.807224
-0.712293
-0.708266
-0.545956
-0.413933
-0.543357
-0.519793
-0.479769
-0.642918
-0.349878
-0.262979
-0.253634
-0.184757
-0.240897
-0.264546
-0.265452
-0.359432
-0.36323
-0.523612
-0.504546
-0.526006
-0.457831
-0.448667
-0.37959
-0.291064
-0.239139
-0.265868
-0.333573
-0.370351
-0.0608681
-0.0977861
-0.0928663
-0.107628
-0.131944
-0.0497445
-0.073681
-0.113225
-0.208096
-0.227107
-0.147243
-0.246275
-0.0870196
-0.147347
-0.0736981
-0.0763363
-0.086829
-0.0763951
-0.0491337
-0.0916291
-1.83132
-1.47819
-1.18169
-0.904903
-0.919668
-1.02252
-1.17117
-1.29114
-1.5119
-1.62422
-1.71186
-1.6419
-1.52181
-1.26758
-1.08856
-0.798872
-0.715011
-0.775188
-0.916992
-1.10825
-1.53698
-1.246
-1.01442
-0.858357
-0.788815
-0.872106
-1.00644
-1.18517
-1.28769
-1.5271
-1.47105
-1.57375
-1.41305
-1.20967
-1.0171
-0.794592
-0.82535
-0.844524
-0.875045
-1.07274
-1.2137
-1.03764
-0.876536
-0.736319
-0.736479
-0.827903
-0.872973
-1.00089
-1.12323
-1.36359
-1.36096
-1.39733
-1.22191
-1.10168
-0.927077
-0.839786
-0.617753
-0.727766
-0.841593
-1.04472
-1.00377
-0.797699
-0.653396
-0.527081
-0.497312
-0.636438
-0.710336
-0.817587
-0.938674
-1.07226
-1.21918
-1.16809
-1.06149
-0.974007
-0.818616
-0.64828
-0.6822
-0.591462
-0.727304
-0.906301
-0.788014
-0.617626
-0.479434
-0.47586
-0.404099
-0.441824
-0.468597
-0.648855
-0.814558
-0.800487
-0.937669
-0.91555
-0.936709
-0.793848
-0.663874
-0.565415
-0.527019
-0.616266
-0.648329
-0.730401
-0.574248
-0.482891
-0.358898
-0.356681
-0.2836
-0.426071
-0.433593
-0.493221
-0.56733
-0.668554
-0.677266
-0.605162
-0.609587
-0.530485
-0.450281
-0.363443
-0.429049
-0.417026
-0.481935
-0.510613
-0.383395
-0.226395
-0.211781
-0.114082
-0.154762
-0.268705
-0.313372
-0.318155
-0.363209
-0.380574
-0.429201
-0.369843
-0.362521
-0.286616
-0.273678
-0.266937
-0.231847
-0.252833
-0.252682
-0.319912
-0.074278
-0.0314707
-0.048121
-0.0760907
-0.169719
-0.065811
-0.0762509
0.0179138
-0.144533
-0.0869847
-0.117191
-0.133778
-0.163781
-0.169351
-0.0830734
-0.106157
-0.0810577
-0.0795784
-0.0967857
-0.0997881
-1.52959
-1.20369
-0.966569
-0.731057
-0.554702
-0.619277
-0.760099
-0.962055
-1.06592
-1.30602
-1.29302
-1.23773
-1.11724
-0.913389
-0.676565
-0.571555
-0.461545
-0.458579
-0.598801
-0.864831
-1.34822
-1.07362
-0.751625
-0.641364
-0.572112
-0.691757
-0.69461
-0.938255
-1.04996
-1.19003
-1.22492
-1.19596
-1.03992
-0.864559
-0.692981
-0.61343
-0.488536
-0.507221
-0.653184
-0.876853
-1.087
-0.795673
-0.615342
-0.485891
-0.532128
-0.600696
-0.59803
-0.743504
-0.918736
-1.05397
-1.07492
-1.14164
-0.964458
-0.757767
-0.673084
-0.46239
-0.502468
-0.524678
-0.654483
-0.820711
-0.943674
-0.618561
-0.54813
-0.363124
-0.373184
-0.428991
-0.506505
-0.694438
-0.745125
-0.876927
-0.85799
-0.967556
-0.804217
-0.675582
-0.595036
-0.427017
-0.410453
-0.429956
-0.581621
-0.690748
-0.639133
-0.571014
-0.391169
-0.337176
-0.308914
-0.405557
-0.418941
-0.530734
-0.631836
-0.741647
-0.781437
-0.735761
-0.691989
-0.569765
-0.519263
-0.43973
-0.436168
-0.369706
-0.438835
-0.510274
-0.497239
-0.414997
-0.285935
-0.239623
-0.258335
-0.300567
-0.337934
-0.363757
-0.449185
-0.475108
-0.433908
-0.445284
-0.449679
-0.371126
-0.371973
-0.340246
-0.294063
-0.326342
-0.340799
-0.454836
-0.321957
-0.242649
-0.16623
-0.0805161
-0.163877
-0.160783
-0.200482
-0.226846
-0.32812
-0.319932
-0.340833
-0.32565
-0.257296
-0.269225
-0.260774
-0.19261
-0.241365
-0.281912
-0.20279
-0.308636
-0.0804441
-0.0908751
-0.0189542
-0.0752251
-0.0157019
-0.0469396
0.0176252
-0.135142
-0.12797
-0.127234
-0.134832
-0.160542
-0.119588
-0.146693
-0.065487
-0.00453735
-0.178817
-0.0723743
-0.0711619
-0.118602
-1.32724
-0.967689
-0.575693
-0.399075
-0.342106
-0.334753
-0.427806
-0.597678
-0.632096
-0.754642
-0.802642
-0.734613
-0.650094
-0.427585
-0.269111
-0.121342
-0.0855004
-0.151131
-0.298264
-0.532533
-1.00821
-0.794918
-0.596001
-0.327317
-0.357517
-0.323049
-0.378778
-0.598684
-0.616571
-0.699403
-0.69268
-0.775826
-0.64224
-0.466848
-0.371703
-0.210317
-0.0965301
-0.217497
-0.383554
-0.484429
-0.910989
-0.615235
-0.516486
-0.305923
-0.284459
-0.254928
-0.364366
-0.47927
-0.65914
-0.691935
-0.682212
-0.698114
-0.56185
-0.463724
-0.40845
-0.275256
-0.256698
-0.272515
-0.345259
-0.475195
-0.695018
-0.451724
-0.289438
-0.246443
-0.233223
-0.274216
-0.306047
-0.392672
-0.536673
-0.566416
-0.593638
-0.54016
-0.50105
-0.477294
-0.327719
-0.265047
-0.25104
-0.325988
-0.44172
-0.484681
-0.503559
-0.432636
-0.25465
-0.278388
-0.250595
-0.221394
-0.220317
-0.297598
-0.434103
-0.451967
-0.48228
-0.50221
-0.458615
-0.449949
-0.333008
-0.296069
-0.190478
-0.201578
-0.336182
-0.398782
-0.339193
-0.328189
-0.143371
-0.0400928
-0.115949
-0.120975
-0.222721
-0.257716
-0.311691
-0.291999
-0.384198
-0.376057
-0.31362
-0.298608
-0.229017
-0.183484
-0.163838
-0.179296
-0.167283
-0.340858
-0.270167
-0.190442
-0.0932304
-0.0606856
-0.126511
-0.140865
-0.0981158
-0.170844
-0.179703
-0.194045
-0.208071
-0.14037
-0.212118
-0.187348
-0.21167
-0.0949756
-0.0556384
-0.167678
-0.0668538
-0.132752
-0.0646269
-0.0508251
-0.0151393
0.0554357
-0.0268529
0.00798514
-0.0363016
-0.1036
-0.0716994
-0.120962
-0.0709173
-0.120015
-0.11272
-0.104665
-0.0326191
-0.0320257
-0.0753831
-0.00532451
-0.043872
-0.0374246
-0.933422
-0.566299
-0.248505
-0.147994
-0.00670162
0.0500504
0.0208068
-0.0846479
-0.207425
-0.141508
-0.227954
-0.243258
-0.0851326
0.0182793
0.160396
0.335297
0.285506
0.278223
0.0838964
-0.113645
-0.82337
-0.53618
-0.22279
-0.00986513
0.0742195
-0.0144544
-0.0535852
-0.127787
-0.230386
-0.172367
-0.309247
-0.253193
-0.184458
-0.08455
0.0765791
0.176878
0.177883
0.123275
-0.00230249
-0.271432
-0.524131
-0.402561
-0.201695
-0.0471619
0.00480013
-0.0373866
-0.0284797
-0.0912255
-0.271213
-0.328328
-0.370267
-0.264607
-0.167211
-0.144949
-0.0104571
0.0340777
0.0879314
0.0340692
-0.136713
-0.25461
-0.442961
-0.331881
-0.0734645
-0.00256267
-0.0639822
-0.00375814
-0.0468216
-0.136915
-0.187914
-0.239575
-0.23317
-0.320878
-0.238221
-0.189621
0.0126417
0.00608282
-0.00380701
-0.121527
-0.200831
-0.292634
-0.432242
-0.226823
-0.12888
-0.0333074
0.0260758
-0.135156
-0.0203044
-0.139556
-0.15113
-0.229451
-0.250697
-0.298724
-0.178477
-0.13142
-0.11781
-0.0207
-0.0180582
-0.0698211
-0.132575
-0.252163
-0.257077
-0.098328
-0.0314604
-0.021103
-0.0432711
-0.123588
-0.0342879
-0.0918275
-0.172837
-0.146324
-0.166003
-0.214239
-0.197199
-0.163285
-0.00159791
-0.0196989
0.00576577
-0.121525
-0.133701
-0.154387
-0.1385
-0.0856924
-0.10086
-0.0419228
0.0483828
-0.044006
-0.0490757
-0.0396527
-0.0909534
-0.124974
-0.157677
-0.0702814
-0.108546
-0.0739886
-0.0959717
-0.0220849
-0.0289442
-0.0368211
-0.0663262
-0.0704777
-0.0918645
-0.0629415
-0.0305831
-0.0641832
-0.00286579
-0.0276875
-0.0257163
-0.0589936
-0.0167051
-0.106197
-0.0143704
-0.0981957
-0.0573823
-0.0568537
-0.0414606
0.0190864
0.0345399
0.0277496
-0.0599156
-0.00387741
-0.567665
-0.25643
0.069244
0.308371
0.365771
0.426097
0.370494
0.403489
0.322596
0.246584
0.376969
0.32448
0.416161
0.534551
0.671459
0.698347
0.764709
0.647519
0.582485
0.244447
-0.439406
-0.123169
0.0792483
0.22966
0.418876
0.353081
0.359782
0.272291
0.181114
0.159422
0.192841
0.169749
0.308921
0.310824
0.484626
0.525592
0.520018
0.489556
0.347397
0.11928
-0.348044
-0.0826119
0.101203
0.258503
0.226666
0.278374
0.22591
0.173748
0.108132
0.0830803
0.0749144
0.136113
0.161719
0.176386
0.325391
0.390835
0.379615
0.316156
0.193713
-0.0159903
-0.31628
-0.137061
0.105991
0.132707
0.23189
0.225612
0.128961
0.100044
0.0537897
0.028222
-0.00734071
-0.000763943
0.023556
0.137361
0.235345
0.203001
0.266634
0.165445
0.0984594
-0.049695
-0.172753
-0.114969
0.0505724
0.082392
0.100365
0.165687
0.129719
0.0618655
0.0216011
-0.00443107
-0.0141545
0.0186563
0.0598225
0.0531719
0.0943414
0.201689
0.153954
0.108511
0.0338447
-0.0996107
-0.137933
-0.0688136
0.0624443
0.0790275
0.117332
0.157772
0.0239265
-0.00196725
0.00321465
-0.00850371
-0.131887