/*--------------------------------*- C++ -*----------------------------------*\
| =========                 |                                                 |
| \\      /  F ield         | OpenFOAM: The Open Source CFD Toolbox           |
|  \\    /   O peration     | Version:  2212                                  |
|   \\  /    A nd           | Website:  www.openfoam.com                      |
|    \\/     M anipulation  |                                                 |
\*---------------------------------------------------------------------------*/
FoamFile
{
    version     2.0;
    format      ascii;
    arch        "LSB;label=32;scalar=64";
    class       volScalarField;
    location    "0";
    object      stateMean;
}
// * * * * * * * * * * * * * * * * * * * * * * * * * * * * * * * * * * * * * //

dimensions      [0 0 0 1 0 0 0];

internalField   nonuniform List<scalar> 
3200
(
317.561
317.087
316.787
316.764
316.937
317.264
317.639
317.974
318.289
318.342
318.476
318.303
318.128
317.75
317.307
316.928
316.673
316.551
316.703
317.101
315.07
314.841
314.47
314.523
314.651
314.991
315.297
315.58
315.935
316.024
316.153
316.032
315.82
315.493
315.147
314.794
314.54
314.463
314.48
314.896
312.728
312.398
312.244
312.351
312.344
312.641
312.955
313.241
313.489
313.679
313.716
313.615
313.413
313.176
312.92
312.602
312.393
312.407
312.466
312.672
310.374
310.199
310.083
309.949
310.212
310.444
310.681
310.848
311.049
311.228
311.259
311.171
311.01
310.947
310.571
310.416
310.159
310.11
310.226
310.417
308.072
307.896
307.731
307.744
307.915
307.995
308.317
308.484
308.593
308.774
308.672
308.741
308.582
308.453
308.25
308.171
307.955
307.899
308.009
308.119
305.714
305.633
305.477
305.582
305.705
305.742
305.93
306.046
306.112
306.256
306.337
306.27
306.118
306.099
305.885
305.796
305.714
305.742
305.752
305.903
303.408
303.34
303.312
303.345
303.376
303.489
303.615
303.588
303.738
303.763
303.817
303.789
303.736
303.663
303.542
303.431
303.418
303.467
303.511
303.411
301.18
301.144
301.214
301.1
301.142
301.161
301.233
301.215
301.239
301.263
301.272
301.291
301.244
301.182
301.192
301.212
301.208
301.126
301.236
301.216
317.648
317.167
317.001
316.983
317.133
317.474
317.825
318.167
318.448
318.64
318.728
318.607
318.374
317.911
317.436
317.092
316.769
316.696
316.846
317.112
315.245
314.829
314.678
314.68
314.831
315.133
315.547
315.822
316.134
316.303
316.389
316.207
315.979
315.663
315.328
314.931
314.714
314.619
314.677
314.992
312.82
312.493
312.377
312.374
312.583
312.791
313.178
313.344
313.691
313.776
313.931
313.784
313.678
313.313
313.109
312.741
312.474
312.428
312.547
312.73
310.478
310.233
310.145
310.189
310.24
310.456
310.742
311.013
311.209
311.295
311.422
311.28
311.172
311.011
310.784
310.408
310.282
310.224
310.353
310.463
308.106
307.948
307.835
307.847
307.962
308.177
308.404
308.601
308.745
308.816
308.882
308.855
308.743
308.608
308.374
308.119
308.019
307.936
308.072
308.239
305.835
305.686
305.528
305.597
305.724
305.844
306.02
306.178
306.236
306.354
306.326
306.341
306.314
306.122
306.03
305.855
305.757
305.806
305.762
305.855
303.494
303.437
303.415
303.403
303.365
303.579
303.563
303.582
303.785
303.838
303.819
303.818
303.763
303.735
303.659
303.548
303.408
303.447
303.478
303.476
301.207
301.168
301.116
301.151
301.102
301.197
301.225
301.218
301.264
301.219
301.211
301.276
301.288
301.186
301.189
301.157
301.23
301.2
301.168
301.299
317.922
317.459
317.227
317.198
317.387
317.877
318.158
318.609
318.898
319.116
319.089
318.994
318.808
318.383
317.86
317.414
317.093
316.889
317.089
317.391
315.421
315.127
314.858
314.847
315.081
315.439
315.738
316.143
316.487
316.654
316.661
316.644
316.327
316.059
315.649
315.207
314.956
314.731
314.911
315.174
313.031
312.738
312.576
312.582
312.825
313.088
313.393
313.673
313.92
314.149
314.083
314.114
313.923
313.666
313.368
312.953
312.666
312.694
312.759
312.917
310.631
310.411
310.277
310.317
310.46
310.712
310.931
311.234
311.433
311.52
311.655
311.584
311.4
311.239
310.969
310.679
310.508
310.362
310.482
310.625
308.236
308.054
307.955
308.065
308.112
308.236
308.534
308.775
308.896
309.034
309.165
309.071
308.945
308.771
308.559
308.374
308.146
308.127
308.225
308.268
305.901
305.72
305.737
305.78
305.831
305.953
306.183
306.272
306.357
306.476
306.497
306.483
306.345
306.283
306.08
306.023
305.837
305.814
305.783
306.002
303.487
303.481
303.49
303.435
303.496
303.602
303.686
303.765
303.815
303.826
303.909
303.888
303.822
303.747
303.657
303.573
303.481
303.516
303.543
303.579
301.112
301.155
301.162
301.155
301.21
301.182
301.221
301.253
301.268
301.242
301.307
301.222
301.276
301.241
301.22
301.246
301.241
301.136
301.212
301.139
318.138
317.839
317.581
317.559
317.788
318.136
318.602
319.004
319.391
319.632
319.65
319.52
319.299
318.829
318.369
317.916
317.417
317.373
317.401
317.756
315.724
315.346
315.245
315.227
315.45
315.756
316.137
316.613
316.892
317.062
317.26
317.094
316.813
316.464
316.085
315.623
315.347
315.177
315.239
315.473
313.245
312.979
312.845
312.908
313.046
313.392
313.769
313.986
314.227
314.518
314.625
314.415
314.345
313.98
313.705
313.297
313.026
312.932
312.973
313.184
310.789
310.517
310.473
310.579
310.615
310.94
311.18
311.541
311.807
311.911
312.014
312.015
311.806
311.554
311.273
310.997
310.734
310.627
310.71
310.834
308.401
308.205
308.196
308.119
308.302
308.514
308.765
308.979
309.2
309.28
309.353
309.226
309.142
308.972
308.672
308.554
308.386
308.321
308.349
308.435
305.997
305.84
305.833
305.871
305.942
306.07
306.281
306.405
306.595
306.661
306.637
306.597
306.606
306.449
306.274
306.156
305.959
305.981
306.007
306.039
303.524
303.532
303.522
303.41
303.545
303.657
303.826
303.83
303.943
303.963
304.006
304.086
303.963
303.91
303.79
303.718
303.583
303.623
303.61
303.68
301.207
301.204
301.087
301.208
301.211
301.206
301.172
301.258
301.312
301.385
301.369
301.367
301.358
301.175
301.283
301.273
301.204
301.27
301.213
301.239
318.61
318.202
317.982
318.071
318.206
318.612
319.035
319.53
319.943
320.177
320.267
320.201
319.961
319.445
318.966
318.363
318.026
317.802
317.904
318.146
316.086
315.759
315.631
315.645
315.945
316.243
316.581
316.964
317.355
317.572
317.677
317.576
317.306
316.903
316.53
316.084
315.699
315.556
315.658
315.898
313.496
313.289
313.177
313.232
313.386
313.761
314.134
314.399
314.713
314.919
315.047
314.991
314.737
314.41
314.052
313.739
313.463
313.306
313.29
313.544
311.099
310.879
310.728
310.833
310.987
311.185
311.51
311.883
312.056
312.304
312.317
312.313
312.129
311.875
311.602
311.317
310.928
310.949
310.94
311.171
308.588
308.463
308.358
308.438
308.56
308.687
308.968
309.236
309.431
309.61
309.701
309.584
309.554
309.242
309.042
308.814
308.617
308.494
308.62
308.694
306.171
306.008
306.01
306.01
306.086
306.277
306.391
306.629
306.776
306.936
306.844
306.796
306.748
306.665
306.491
306.315
306.256
306.167
306.175
306.146
303.589
303.535
303.611
303.644
303.648
303.718
303.845
303.947
304.051
304.15
304.148
304.17
304.053
303.964
303.919
303.831
303.689
303.669
303.651
303.672
301.195
301.305
301.205
301.211
301.205
301.162
301.361
301.393
301.347
301.403
301.42
301.402
301.407
301.33
301.333
301.236
301.317
301.258
301.158
301.261
319.095
318.738
318.627
318.583
318.871
319.19
319.591
320.092
320.563
320.866
320.943
320.802
320.472
320.144
319.477
318.93
318.55
318.406
318.419
318.682
316.555
316.246
316.018
316.132
316.3
316.686
317.017
317.511
317.927
318.136
318.336
318.204
317.864
317.411
317.045
316.575
316.283
316.099
316.201
316.317
313.986
313.667
313.569
313.619
313.825
314.156
314.536
314.81
315.123
315.36
315.545
315.435
315.245
314.859
314.487
314.134
313.79
313.691
313.78
313.864
311.395
311.188
311.088
311.133
311.343
311.64
311.909
312.168
312.49
312.69
312.744
312.657
312.554
312.262
311.92
311.705
311.352
311.256
311.377
311.432
308.804
308.694
308.575
308.62
308.774
309.077
309.161
309.556
309.754
309.895
309.981
309.943
309.773
309.537
309.268
309.086
308.934
308.839
308.861
308.821
306.304
306.208
306.179
306.247
306.288
306.48
306.618
306.862
306.928
307.06
307.132
307.077
306.978
306.817
306.685
306.513
306.382
306.314
306.338
306.413
303.804
303.668
303.717
303.736
303.823
303.888
304.003
304.08
304.182
304.298
304.324
304.162
304.171
304.105
303.961
303.846
303.846
303.767
303.819
303.781
301.215
301.227
301.237
301.25
301.164
301.33
301.308
301.368
301.428
301.405
301.484
301.454
301.384
301.303
301.318
301.325
301.312
301.289
301.249
301.287
319.729
319.401
319.169
319.312
319.5
319.818
320.215
320.844
321.121
321.482
321.637
321.47
321.176
320.644
320.065
319.576
319.176
319.002
319.053
319.289
316.977
316.758
316.647
316.63
316.852
317.208
317.626
318.023
318.414
318.763
318.749
318.761
318.433
317.942
317.609
317.188
316.814
316.648
316.696
316.824
314.371
314.177
313.971
314.085
314.327
314.683
314.872
315.293
315.615
315.842
315.977
315.882
315.722
315.346
314.935
314.597
314.234
314.16
314.092
314.365
311.719
311.509
311.478
311.564
311.645
311.919
312.234
312.508
312.873
313.053
313.147
313.075
312.869
312.673
312.337
311.979
311.786
311.643
311.724
311.782
309.058
308.997
308.84
308.969
309.068
309.326
309.608
309.84
310.038
310.121
310.225
310.221
310.071
309.878
309.625
309.411
309.133
309.105
309.04
309.152
306.496
306.432
306.235
306.391
306.515
306.645
306.798
306.973
307.123
307.303
307.33
307.305
307.23
307.048
306.888
306.66
306.526
306.55
306.501
306.597
303.944
303.804
303.786
303.752
303.946
303.989
304.042
304.19
304.261
304.332
304.44
304.419
304.322
304.185
304.214
304.085
304.01
303.909
303.899
304
301.326
301.255
301.357
301.309
301.299
301.239
301.368
301.353
301.519
301.521
301.489
301.483
301.546
301.442
301.446
301.384
301.327
301.242
301.279
301.359
320.319
319.988
319.778
319.81
320.114
320.42
320.853
321.336
321.846
322.144
322.231
322.122
321.739
321.253
320.821
320.234
319.839
319.6
319.776
319.899
317.535
317.444
317.194
317.133
317.449
317.741
318.228
318.551
319.059
319.278
319.375
319.357
318.988
318.612
318.17
317.668
317.355
317.295
317.174
317.352
314.762
314.732
314.517
314.549
314.681
315.059
315.43
315.793
316.086
316.401
316.522
316.436
316.191
315.86
315.382
315.047
314.886
314.649
314.654
314.826
312.111
311.905
311.835
311.96
312.092
312.314
312.619
312.884
313.211
313.489
313.566
313.549
313.23
313.022
312.654
312.454
312.093
312.032
312.023
312.151
309.41
309.388
309.244
309.31
309.395
309.551
309.899
310.12
310.287
310.43
310.568
310.627
310.441
310.148
309.959
309.683
309.481
309.414
309.384
309.543
306.756
306.659
306.633
306.615
306.691
306.849
307
307.125
307.37
307.514
307.554
307.643
307.385
307.31
307.155
306.957
306.816
306.783
306.803
306.951
304.02
304.009
303.915
304.059
303.99
304.134
304.186
304.396
304.419
304.499
304.574
304.513
304.52
304.416
304.291
304.201
304.18
304.123
304.047
304.043
301.372
301.355
301.329
301.374
301.347
301.451
301.407
301.43
301.51
301.554
301.498
301.508
301.516
301.479
301.388
301.459
301.428
301.347
301.322
301.405
321.009
320.789
320.554
320.563
320.748
321.127
321.54
322.076
322.475
322.776
322.86
322.772
322.498
321.952
321.419
320.903
320.534
320.399
320.386
320.609
318.179
317.908
317.794
317.822
318.028
318.256
318.694
319.109
319.442
319.895
319.946
319.88
319.634
319.159
318.69
318.241
317.977
317.754
317.845
317.907
315.356
315.134
315.064
315.067
315.344
315.594
315.909
316.246
316.593
316.793
317.01
316.975
316.697
316.343
315.919
315.56
315.324
315.136
315.188
315.348
312.598
312.373
312.316
312.325
312.495
312.83
313.094
313.333
313.61
313.779
313.981
313.878
313.735
313.472
313.226
312.753
312.557
312.53
312.509
312.558
309.701
309.664
309.504
309.586
309.785
309.924
310.157
310.331
310.582
310.79
310.901
310.814
310.733
310.547
310.29
310.009
309.809
309.686
309.773
309.789
306.933
306.811
306.862
306.902
306.959
307.063
307.204
307.425
307.624
307.729
307.79
307.734
307.71
307.532
307.268
307.178
307.046
307.041
306.99
306.985
304.174
304.134
304.095
304.089
304.237
304.331
304.433
304.486
304.54
304.707
304.724
304.619
304.706
304.618
304.414
304.316
304.176
304.199
304.131
304.236
301.382
301.373
301.291
301.39
301.416
301.409
301.461
301.431
301.522
301.574
301.599
301.567
301.551
301.454
301.431
301.491
301.404
301.421
301.369
301.436
321.679
321.38
321.216
321.25
321.364
321.708
322.189
322.673
323.002
323.382
323.453
323.47
323.072
322.653
322.129
321.639
321.272
321.04
321.119
321.284
318.779
318.486
318.372
318.411
318.635
318.912
319.346
319.692
320.069
320.355
320.484
320.355
320.129
319.709
319.209
318.892
318.574
318.282
318.391
318.439
315.848
315.698
315.475
315.607
315.812
316.081
316.274
316.668
317.009
317.321
317.365
317.348
317.137
316.762
316.474
316.158
315.843
315.671
315.717
315.73
312.994
312.895
312.724
312.713
312.854
313.107
313.428
313.704
313.927
314.212
314.294
314.261
314.142
313.776
313.567
313.22
313.008
312.915
312.86
312.912
310.102
309.993
309.911
309.943
310.043
310.206
310.452
310.659
310.946
311.119
311.145
311.096
311.058
310.783
310.555
310.302
310.144
310.019
310.121
310.126
307.108
307.053
307.122
307.136
307.149
307.319
307.454
307.6
307.772
307.959
308.026
307.911
307.953
307.756
307.578
307.401
307.27
307.201
307.284
307.241
304.289
304.269
304.331
304.302
304.269
304.43
304.419
304.611
304.688
304.712
304.812
304.828
304.75
304.656
304.566
304.402
304.417
304.403
304.359
304.333
301.465
301.395
301.388
301.512
301.452
301.422
301.615
301.555
301.64
301.622
301.656
301.667
301.539
301.53
301.507
301.49
301.451
301.462
301.433
301.558
322.409
322.16
322.015
321.995
322.121
322.355
322.786
323.163
323.596
323.934
324.048
323.977
323.646
323.172
322.741
322.217
321.962
321.781
321.79
321.926
319.386
319.219
319.02
318.981
319.171
319.457
319.805
320.168
320.576
320.832
320.994
320.856
320.62
320.32
319.824
319.476
319.12
318.96
319.023
319.221
316.381
316.248
316.113
316.151
316.328
316.455
316.807
317.268
317.419
317.806
317.826
317.729
317.653
317.257
316.865
316.602
316.345
316.278
316.281
316.282
313.362
313.255
313.231
313.204
313.316
313.544
313.79
314.154
314.317
314.638
314.632
314.615
314.483
314.143
313.907
313.632
313.438
313.313
313.314
313.33
310.337
310.33
310.273
310.307
310.427
310.49
310.718
311.007
311.195
311.334
311.48
311.365
311.258
311.052
310.822
310.664
310.449
310.347
310.366
310.491
307.4
307.374
307.309
307.425
307.437
307.577
307.673
307.842
308.007
308.15
308.18
308.131
308.149
307.901
307.807
307.618
307.532
307.45
307.426
307.478
304.424
304.456
304.412
304.505
304.474
304.599
304.596
304.764
304.804
304.932
304.841
304.854
304.834
304.807
304.674
304.532
304.504
304.461
304.484
304.468
301.49
301.499
301.451
301.513
301.512
301.537
301.551
301.51
301.583
301.568
301.629
301.617
301.621
301.58
301.589
301.516
301.461
301.509
301.479
301.497
323.141
322.847
322.737
322.67
322.806
322.986
323.437
323.794
324.125
324.478
324.457
324.483
324.231
323.769
323.347
322.952
322.532
322.396
322.438
322.595
320.019
319.812
319.638
319.616
319.776
320.029
320.315
320.743
321.079
321.316
321.452
321.413
321.034
320.779
320.373
320.043
319.677
319.559
319.626
319.68
316.915
316.736
316.687
316.576
316.729
317.02
317.286
317.61
317.903
318.098
318.175
318.111
317.95
317.628
317.291
317.079
316.806
316.643
316.688
316.821
313.838
313.676
313.638
313.633
313.734
313.926
314.154
314.338
314.653
314.902
314.946
314.93
314.75
314.569
314.203
314.029
313.859
313.694
313.665
313.803
310.787
310.599
310.622
310.666
310.717
310.853
311.088
311.311
311.481
311.602
311.728
311.653
311.593
311.34
311.108
310.957
310.842
310.746
310.704
310.782
307.651
307.589
307.584
307.595
307.651
307.791
307.891
308.08
308.196
308.391
308.357
308.272
308.241
308.125
308.027
307.791
307.663
307.797
307.659
307.756
304.604
304.594
304.528
304.638
304.605
304.691
304.664
304.825
304.968
305.029
305.08
305.026
304.937
304.891
304.855
304.66
304.627
304.596
304.625
304.681
301.499
301.596
301.604
301.528
301.52
301.517
301.606
301.634
301.657
301.736
301.697
301.713
301.638
301.624
301.598
301.586
301.57
301.503
301.54
301.51
323.808
323.616
323.318
323.433
323.446
323.795
324.117
324.401
324.728
324.966
325.065
324.918
324.695
324.28
323.975
323.466
323.261
323.065
323.107
323.273
320.695
320.509
320.374
320.27
320.413
320.634
320.998
321.186
321.54
321.667
321.818
321.722
321.531
321.299
320.904
320.485
320.306
320.183
320.168
320.312
317.448
317.184
317.19
317.176
317.282
317.54
317.718
317.995
318.247
318.435
318.619
318.529
318.318
318.059
317.846
317.482
317.282
317.165
317.257
317.31
314.294
314.194
314.063
314.13
314.184
314.326
314.517
314.755
315.023
315.187
315.337
315.207
315.06
314.84
314.625
314.412
314.219
314.201
314.054
314.152
311.134
311.067
310.95
310.928
311.085
311.153
311.41
311.507
311.776
311.842
311.889
311.895
311.801
311.61
311.501
311.245
311.11
311.019
310.995
311.059
307.929
307.904
307.865
307.847
307.936
308.013
308.103
308.251
308.411
308.442
308.54
308.523
308.389
308.335
308.175
308.115
308.003
307.899
307.936
307.912
304.75
304.746
304.701
304.752
304.738
304.807
304.893
305
305.039
305.099
305.119
305.134
305.11
305.058
304.934
304.856
304.824
304.772
304.848
304.737
301.554
301.596
301.603
301.566
301.565
301.6
301.704
301.698
301.636
301.692
301.685
301.739
301.751
301.65
301.682
301.669
301.581
301.537
301.647
301.64
324.576
324.3
324.081
324.154
324.151
324.297
324.709
324.951
325.154
325.487
325.589
325.462
325.197
324.853
324.49
324.132
323.866
323.741
323.819
324.048
321.254
321.048
320.934
320.937
320.999
321.234
321.392
321.765
321.996
322.198
322.272
322.201
321.924
321.653
321.396
321.126
320.88
320.732
320.779
320.886
318.087
317.783
317.695
317.702
317.823
317.939
318.165
318.432
318.657
318.812
318.938
318.869
318.738
318.528
318.128
317.898
317.789
317.635
317.653
317.849
314.784
314.617
314.54
314.604
314.638
314.736
314.889
315.047
315.276
315.527
315.543
315.469
315.355
315.189
315
314.851
314.603
314.516
314.552
314.628
311.45
311.34
311.303
311.392
311.422
311.563
311.617
311.791
311.94
312.06
312.25
312.097
312.006
311.861
311.733
311.51
311.442
311.358
311.374
311.435
308.105
308.071
308.043
308.111
308.074
308.24
308.24
308.452
308.525
308.7
308.651
308.692
308.577
308.545
308.348
308.176
308.263
308.197
308.116
308.247
304.921
304.853
304.869
304.826
304.907
304.955
304.976
305.087
305.103
305.27
305.251
305.266
305.186
305.16
305.07
304.957
304.88
304.881
304.924
304.941
301.594
301.637
301.641
301.664
301.697
301.623
301.654
301.698
301.797
301.818
301.738
301.835
301.672
301.727
301.647
301.641
301.643
301.624
301.588
301.625
325.298
325.039
324.858
324.699
324.83
325.039
325.281
325.477
325.751
325.89
325.978
325.881
325.708
325.378
325.105
324.709
324.509
324.451
324.478
324.575
321.928
321.717
321.584
321.531
321.562
321.738
321.953
322.197
322.346
322.609
322.553
322.632
322.425
322.157
321.883
321.568
321.498
321.415
321.346
321.464
318.509
318.399
318.322
318.268
318.352
318.523
318.636
318.82
318.981
319.242
319.239
319.255
319.041
318.865
318.622
318.456
318.15
318.173
318.203
318.34
315.184
315.032
314.955
314.9
314.939
315.142
315.272
315.426
315.579
315.728
315.875
315.808
315.669
315.536
315.325
315.09
315.055
314.893
314.961
315.086
311.837
311.708
311.622
311.674
311.656
311.744
311.815
312.03
312.221
312.219
312.357
312.322
312.318
312.14
311.966
311.817
311.725
311.759
311.738
311.779
308.48
308.418
308.331
308.369
308.334
308.512
308.551
308.636
308.727
308.838
308.846
308.765
308.753
308.647
308.536
308.413
308.441
308.389
308.417
308.417
305.136
304.996
305.005
304.93
304.994
305.13
305.193
305.213
305.268
305.292
305.34
305.275
305.258
305.167
305.135
305.106
305.048
305.046
305.023
305.073
301.668
301.631
301.655
301.691
301.793
301.696
301.712
301.623
301.79
301.734
301.764
301.779
301.805
301.805
301.713
301.729
301.696
301.687
301.697
301.694
325.957
325.718
325.586
325.458
325.387
325.547
325.772
326.042
326.193
326.458
326.445
326.365
326.197
325.925
325.605
325.404
325.189
325.078
325.113
325.292
322.572
322.372
322.141
322.123
322.145
322.349
322.425
322.726
322.879
323.04
323.075
323.025
322.828
322.595
322.35
322.186
321.971
321.896
321.951
322.101
319.088
318.857
318.753
318.703
318.826
318.966
319.024
319.22
319.43
319.583
319.604
319.653
319.44
319.184
319.038
318.756
318.719
318.663
318.715
318.822
315.702
315.426
315.417
315.297
315.37
315.484
315.612
315.84
315.919
316.066
316.047
316.142
315.95
315.781
315.65
315.424
315.344
315.299
315.389
315.449
312.138
312.107
311.976
311.972
311.993
312.135
312.188
312.331
312.454
312.576
312.615
312.558
312.492
312.339
312.248
312.124
312.071
311.955
311.975
312.009
308.724
308.669
308.574
308.564
308.617
308.692
308.757
308.806
308.907
308.941
308.9
308.903
308.892
308.79
308.763
308.699
308.618
308.614
308.595
308.682
305.268
305.205
305.148
305.085
305.189
305.205
305.261
305.302
305.412
305.409
305.43
305.41
305.332
305.33
305.305
305.218
305.245
305.264
305.165
305.255
301.739
301.755
301.69
301.753
301.701
301.739
301.679
301.837
301.833
301.834
301.842
301.866
301.822
301.844
301.757
301.69
301.857
301.743
301.735
301.778
326.766
326.487
326.191
326.113
326.151
326.231
326.399
326.63
326.706
326.851
326.899
326.809
326.682
326.399
326.165
325.93
325.8
325.766
325.817
325.972
323.108
322.963
322.847
322.663
322.777
322.817
322.939
323.211
323.266
323.367
323.361
323.425
323.254
323.027
322.866
322.629
322.433
322.468
322.552
322.584
319.652
319.412
319.383
319.245
319.293
319.328
319.492
319.652
319.863
319.912
319.902
319.902
319.735
319.592
319.481
319.284
319.196
319.14
319.142
319.216
316.058
315.86
315.754
315.77
315.814
315.908
315.985
316.108
316.278
316.32
316.348
316.281
316.216
316.156
315.962
315.846
315.775
315.791
315.85
315.848
312.473
312.437
312.303
312.372
312.389
312.4
312.435
312.541
312.697
312.725
312.755
312.765
312.702
312.665
312.512
312.434
312.284
312.25
312.34
312.368
308.902
308.915
308.762
308.692
308.8
308.834
308.961
309.016
309.084
309.072
309.164
309.148
309.072
309.037
308.942
308.867
308.816
308.798
308.754
308.904
305.417
305.352
305.274
305.262
305.347
305.378
305.35
305.436
305.453
305.471
305.485
305.413
305.477
305.439
305.449
305.315
305.257
305.349
305.229
305.28
301.791
301.782
301.752
301.689
301.777
301.748
301.797
301.869
301.84
301.891
301.841
301.888
301.878
301.866
301.789
301.782
301.819
301.742
301.775
301.763
327.409
327.115
326.886
326.875
326.82
326.842
326.939
327.099
327.259
327.213
327.299
327.295
327.099
326.942
326.732
326.478
326.441
326.359
326.465
326.59
323.816
323.591
323.355
323.219
323.21
323.366
323.465
323.586
323.721
323.68
323.817
323.744
323.642
323.496
323.275
323.107
323.031
323.009
323.057
323.264
320.016
319.947
319.81
319.721
319.732
319.832
319.873
319.976
320.184
320.255
320.297
320.178
320.052
319.99
319.805
319.703
319.586
319.574
319.681
319.747
316.418
316.348
316.142
316.126
316.239
316.226
316.31
316.433
316.507
316.57
316.563
316.64
316.534
316.453
316.209
316.169
316.127
316.191
316.217
316.268
312.875
312.702
312.645
312.591
312.572
312.77
312.687
312.833
312.861
312.949
312.971
313.009
312.871
312.798
312.753
312.619
312.576
312.586
312.608
312.695
309.158
309.021
308.983
309.003
309.054
309.162
309.094
309.171
309.264
309.244
309.264
309.305
309.276
309.223
309.04
309.031
308.976
309.074
309.057
309.055
305.488
305.449
305.482
305.441
305.368
305.476
305.495
305.497
305.555
305.593
305.626
305.534
305.566
305.52
305.528
305.438
305.428
305.418
305.429
305.42
301.886
301.861
301.835
301.874
301.819
301.849
301.852
301.889
301.849
301.94
301.848
301.93
301.887
301.883
301.862
301.797
301.775
301.776
301.858
301.798
328.037
327.792
327.549
327.392
327.413
327.425
327.543
327.559
327.673
327.766
327.636
327.672
327.546
327.378
327.18
327.081
326.935
326.97
326.954
327.225
324.277
324.019
323.887
323.808
323.687
323.815
323.862
323.993
324.114
324.151
324.117
324.125
323.956
323.911
323.683
323.58
323.518
323.476
323.549
323.719
320.544
320.326
320.202
320.105
320.195
320.196
320.294
320.382
320.473
320.511
320.519
320.445
320.394
320.344
320.149
320.031
319.984
319.987
320.049
320.212
316.858
316.718
316.523
316.546
316.495
316.544
316.679
316.737
316.804
316.841
316.876
316.859
316.813
316.671
316.535
316.524
316.412
316.464
316.483
316.592
313.053
313.025
312.896
312.904
312.923
312.891
312.956
313.047
313.103
313.138
313.148
313.106
313.049
313.033
312.963
312.821
312.832
312.838
312.876
312.98
309.348
309.3
309.196
309.207
309.195
309.178
309.333
309.376
309.382
309.4
309.523
309.349
309.35
309.305
309.261
309.188
309.184
309.24
309.222
309.222
305.602
305.507
305.577
305.504
305.576
305.497
305.615
305.583
305.616
305.65
305.721
305.618
305.682
305.634
305.586
305.564
305.508
305.497
305.633
305.554
301.841
301.822
301.789
301.915
301.877
301.882
301.804
301.869
301.803
301.957
301.845
301.949
301.847
301.893
301.906
301.809
301.851
301.915
301.825
301.859
328.501
328.219
327.932
327.865
327.766
327.821
327.787
327.889
327.994
328.063
328.099
328.002
327.871
327.718
327.539
327.402
327.287
327.372
327.58
327.691
324.671
324.421
324.289
324.1
324.181
324.106
324.221
324.289
324.439
324.444
324.436
324.465
324.28
324.22
323.966
323.998
323.853
323.852
323.935
324.162
320.837
320.679
320.446
320.423
320.435
320.373
320.533
320.611
320.749
320.741
320.799
320.713
320.644
320.618
320.402
320.326
320.315
320.303
320.333
320.468
317.074
316.919
316.788
316.773
316.712
316.793
316.81
316.939
316.974
317.007
317.033
317.027
316.934
316.918
316.789
316.645
316.645
316.67
316.786
316.835
313.225
313.193
313.077
313.036
312.993
313.015
313.125
313.131
313.246
313.297
313.261
313.358
313.188
313.13
313.137
313.026
312.943
312.979
313.045
313.043
309.461
309.476
309.388
309.309
309.324
309.335
309.338
309.489
309.475
309.551
309.557
309.45
309.518
309.368
309.424
309.312
309.327
309.29
309.411
309.415
305.633
305.639
305.658
305.601
305.614
305.631
305.649
305.735
305.654
305.719
305.762
305.744
305.7
305.608
305.671
305.654
305.597
305.668
305.671
305.683
301.918
301.917
301.898
301.821
301.829
301.857
301.871
301.852
301.958
301.909
301.934
301.938
301.917
301.881
301.93
301.904
301.873
301.919
301.856
301.883
)
;

boundaryField
{
    hotSide
    {
        type            fixedGradient;
        gradient        nonuniform List<scalar> 
400
(
321.511
322.87
325.591
329.677
335.133
341.965
350.181
359.788
370.794
383.208
397.037
412.289
428.971
447.088
466.647
487.651
510.105
534.011
559.372
586.191
323.738
325.08
327.767
331.802
337.194
343.949
352.078
361.591
372.498
384.81
398.537
413.687
430.268
448.289
467.755
488.672
511.043
534.872
560.161
586.913
326.149
327.47
330.116
334.091
339.406
346.071
354.099
363.503
374.296
386.491
400.101
415.136
431.606
449.52
468.885
489.706
511.988
535.735
560.948
587.63
328.704
330
332.597
336.503
341.73
348.292
356.205
365.485
376.15
388.215
401.695
416.604
432.954
450.753
470.009
490.73
512.919
536.579
561.714
588.325
331.33
332.599
335.142
338.97
344.099
350.546
358.332
367.477
378.003
389.928
403.271
418.047
434.27
451.949
471.095
491.712
513.807
537.382
562.439
588.978
333.918
335.158
337.643
341.389
346.414
352.74
360.392
369.397
379.779
391.562
404.765
419.407
435.503
453.065
472.101
492.618
514.622
538.114
563.096
589.569
336.321
337.531
339.959
343.622
348.544
354.751
362.274
371.142
381.385
393.031
406.101
420.618
436.595
454.047
472.983
493.409
515.33
538.747
563.663
590.076
338.36
339.543
341.92
345.509
350.339
356.44
363.847
372.595
382.718
394.244
407.2
421.608
437.485
454.844
473.695
494.045
515.897
539.253
564.114
590.478
339.852
341.015
343.352
346.885
351.645
357.665
364.985
373.643
383.675
395.113
407.984
422.312
438.116
455.407
474.197
494.491
516.294
539.606
564.428
590.758
340.643
341.795
344.11
347.613
352.334
358.311
365.584
374.193
384.176
395.567
408.393
422.679
438.443
455.699
474.456
494.722
516.498
539.788
564.589
590.901
340.643
341.795
344.11
347.613
352.334
358.311
365.584
374.193
384.176
395.567
408.393
422.679
438.443
455.699
474.456
494.722
516.498
539.788
564.589
590.901
339.852
341.015
343.352
346.885
351.645
357.665
364.985
373.643
383.675
395.113
407.984
422.312
438.116
455.407
474.197
494.491
516.294
539.606
564.428
590.758
338.36
339.543
341.92
345.509
350.339
356.44
363.847
372.595
382.718
394.244
407.2
421.608
437.485
454.844
473.695
494.045
515.897
539.253
564.114
590.478
336.321
337.531
339.959
343.622
348.544
354.751
362.274
371.142
381.385
393.031
406.101
420.618
436.595
454.047
472.983
493.409
515.33
538.747
563.663
590.076
333.918
335.158
337.643
341.389
346.414
352.74
360.392
369.397
379.779
391.562
404.765
419.407
435.503
453.065
472.101
492.618
514.622
538.114
563.096
589.569
331.33
332.599
335.142
338.97
344.099
350.546
358.332
367.477
378.003
389.928
403.271
418.047
434.27
451.949
471.095
491.712
513.807
537.382
562.439
588.978
328.704
330
332.597
336.503
341.73
348.292
356.205
365.485
376.15
388.215
401.695
416.604
432.954
450.753
470.009
490.73
512.919
536.579
561.714
588.325
326.149
327.47
330.116
334.091
339.406
346.071
354.099
363.503
374.296
386.491
400.101
415.136
431.606
449.52
468.885
489.706
511.988
535.735
560.948
587.63
323.738
325.08
327.767
331.802
337.194
343.949
352.078
361.591
372.498
384.81
398.537
413.687
430.268
448.289
467.755
488.672
511.043
534.872
560.161
586.913
321.511
322.87
325.591
329.677
335.133
341.965
350.181
359.788
370.794
383.208
397.037
412.289
428.971
447.088
466.647
487.651
510.105
534.011
559.372
586.191
)
;
    }
    coldSide
    {
        type            mixed;
        refValue        uniform 300;
        refGradient     uniform 0;
        valueFraction   uniform 0.991591;
        source          uniform 0;
        value           nonuniform List<scalar> 
400
(
300.01
300.01
300.009
300.01
300.01
300.01
300.011
300.012
300.012
300.012
300.013
300.013
300.013
300.013
300.014
300.015
300.015
300.016
300.015
300.016
300.01
300.01
300.01
300.01
300.011
300.01
300.011
300.011
300.012
300.012
300.013
300.013
300.013
300.014
300.014
300.015
300.015