/*--------------------------------*- C++ -*----------------------------------*\
| =========                 |                                                 |
| \\      /  F ield         | OpenFOAM: The Open Source CFD Toolbox           |
|  \\    /   O peration     | Version:  2212                                  |
|   \\  /    A nd           | Website:  www.openfoam.com                      |
|    \\/     M anipulation  |                                                 |
\*---------------------------------------------------------------------------*/
FoamFile
{
    version     2.0;
    format      ascii;
    arch        "LSB;label=32;scalar=64";
    class       volScalarField;
    location    "./ITHACAoutput/true/20";
    object      error;
}
// * * * * * * * * * * * * * * * * * * * * * * * * * * * * * * * * * * * * * //

dimensions      [0 0 0 1 0 0 0];

internalField   nonuniform List<scalar> 
3200
(
-1.17524
0.101352
1.22618
1.92492
2.41243
2.82586
2.95593
2.98726
3.11018
3.14777
3.25612
3.28884
3.28976
3.37925
3.38404
3.3628
2.90311
2.40622
1.34344
0.21565
-0.699247
0.305069
1.29816
1.89507
2.34589
2.57956
2.78191
2.81458
2.90688
2.90793
2.92808
2.95194
3.04816
3.13807
3.1414
3.03949
2.72827
2.21537
1.38837
0.301586
-0.366062
0.459504
1.28381
1.82324
2.11445
2.41078
2.42766
2.5735
2.48267
2.54315
2.54915
2.55967
2.56696
2.72535
2.602
2.63963
2.4358
1.94304
1.21005
0.560634
-0.134538
0.523187
1.08141
1.69452
1.87855
2.00147
2.10528
2.17633
2.1629
2.10481
2.081
2.18306
2.20492
2.27204
2.24771
2.20302
1.96725
1.51991
1.08236
0.416499
0.0500795
0.492783
0.975045
1.28575
1.5183
1.64855
1.62946
1.66368
1.67885
1.64987
1.69707
1.70877
1.73153
1.79048
1.77641
1.70554
1.47129
1.38936
0.841511
0.372553
0.0454275
0.418414
0.715879
0.933272
1.03038
1.16471
1.24748
1.23655
1.29988
1.32088
1.22458
1.31271
1.32393
1.18897
1.31242
1.28402
1.17266
0.951644
0.68606
0.295651
-0.0105862
0.235076
0.473667
0.576824
0.744737
0.706211
0.706784
0.742455
0.708095
0.795642
0.853364
0.739785
0.720714
0.748462
0.752372
0.837211
0.707892
0.626491
0.404795
0.192282
0.00545263
0.0949516
0.112885
0.186075
0.200365
0.317009
0.209279
0.164556
0.253592
0.268339
0.247115
0.170613
0.313679
0.313565
0.206921
0.261186
0.180427
0.169401
0.173218
0.160913
-1.11969
0.150967
1.22487
1.98294
2.49434
2.80177
2.90902
2.93188
3.0364
3.07777
3.07631
3.08279
3.16949
3.23643
3.35006
3.27139
2.94996
2.36388
1.40123
0.228943
-0.564119
0.348447
1.35355
2.00398
2.46772
2.63428
2.74329
2.73847
2.74122
2.77849
2.81775
2.77508
2.87326
2.9215
2.96513
2.92072
2.7291
2.13177
1.33952
0.387258
-0.282429
0.516757
1.22928
1.83763
2.21552
2.31254
2.46323
2.45173
2.5211
2.4869
2.45511
2.51952
2.53072
2.64149
2.64736
2.53804
2.36036
1.89213
1.26045
0.547509
-0.0496547
0.468083
1.11821
1.55049
1.88092
1.9732
1.99633
2.08492
2.09493
2.13057
2.14627
2.0919
2.20269
2.19716
2.19549
2.23876
1.96066
1.55358
1.14479
0.415413
0.0402982
0.535883
0.917967
1.29723
1.50441
1.63602
1.6677
1.70392
1.69258
1.68598
1.67777
1.69048
1.71651
1.78159
1.78068
1.66872
1.70184
1.39793
0.825171
0.424186
0.105297
0.43352
0.682009
1.00143
1.06286
1.177
1.27829
1.19765
1.22142
1.21375
1.1988
1.20841
1.28942
1.22009
1.2206
1.22158
1.15763
0.871505
0.629943
0.35451
0.0731293
0.325677
0.410476
0.649559
0.706463
0.69612
0.722299
0.805786
0.759728
0.680825
0.692498
0.69843
0.761324
0.800646
0.72341
0.781509
0.653843
0.64438
0.39396
0.20063
0.00332079
0.00857691
0.117401
0.232448
0.20572
0.240896
0.239881
0.234814
0.266235
0.190726
0.211787
0.27973
0.343465
0.27612
0.287075
0.190671
0.25822
0.143276
0.187887
0.0554827
-1.06667
0.254826
1.26305
2.11172
2.49008
2.83714
2.81494
2.90844
2.85837
2.95479
2.85965
2.85462
3.02398
3.1459
3.17999
3.20047
2.80324
2.29898
1.35608
0.263639
-0.501627
0.472467
1.28612
1.9528
2.36853
2.50384
2.71106
2.6374
2.68291
2.66765
2.66405
2.63682
2.7994
2.8691
2.91936
2.85924
2.60005
2.18535
1.29733
0.355014
-0.320341
0.526898
1.25059
1.91259
2.11384
2.30773
2.30364
2.33141
2.41428
2.503
2.31649
2.30903
2.45738
2.54371
2.53125
2.49215
2.29684
1.94619
1.20205
0.504085
-0.0734472
0.577116
1.16594
1.53972
1.89442
2.0057
1.99815
2.04771
2.06485
1.98292
1.99313
1.99059
2.0832
2.07861
2.11466
2.1544
1.8837
1.59927
1.05704
0.488865
0.0117882
0.522786
0.939044
1.30751
1.47583
1.55852
1.61723
1.62179
1.64233
1.62531
1.51471
1.61836
1.60977
1.64937
1.71538
1.57972
1.49414
1.23362
0.804677
0.382621
0.0260912
0.396187
0.656781
0.955627
1.00958
1.13172
1.17974
1.17782
1.16845
1.12196
1.17591
1.2245
1.18591
1.22896
1.21398
1.15855
1.09303
0.902716
0.688532
0.326703
0.0185429
0.300583
0.445438
0.584185
0.655402
0.734903
0.693652
0.657425
0.709664
0.776156
0.711743
0.705685
0.649513
0.827546
0.709893
0.811124
0.636035
0.630528
0.394657
0.197726
-0.00189475
0.0752799
0.175565
0.134868
0.177808
0.257143
0.203612
0.213898
0.276462
0.233343
0.19374
0.266534
0.281041
0.21211
0.224163
0.255835
0.178895
0.212533
0.104681
0.108438
-1.08414
0.100444
1.25003
1.99353
2.45136
2.64519
2.72348
2.71528
2.70611
2.63712
2.66279
2.69225
2.80468
2.96684
3.07981
3.06353
2.71571
2.18845
1.24875
0.0817727
-0.562282
0.405781
1.2934
1.95109
2.26535
2.45927
2.51683
2.60055
2.52296
2.5053
2.48152
2.52198
2.584
2.73689
2.7676
2.7853
2.52064
2.03912
1.25555
0.344848
-0.297994
0.527363
1.25355
1.79049
2.03204
2.21842
2.31288
2.30995
2.27299
2.19363
2.2093
2.23873
2.30845
2.34522
2.48603
2.37896
2.1664
1.79433
1.12929
0.451961
-0.017105
0.502911
1.14784
1.59526
1.78153
1.85416
1.96017
1.95175
1.96836
1.9085
1.88811
1.889
1.89676
1.97028
1.96753
1.9938
1.88242
1.53471
1.03812
0.452223
-0.0200477
0.500624
1.00905
1.24943
1.44213
1.57858
1.56566
1.52825
1.54676
1.49831
1.52372
1.53189
1.47668
1.59503
1.6018
1.66844
1.46892
1.19476
0.737066
0.36764
0.00690086
0.372702
0.665158
0.91183
0.990155
1.11599
1.10977
1.1473
1.0784
1.09868
1.09904
1.06781
1.08478
1.22273
1.10922
1.19422
1.09153
0.837772
0.509636
0.26716
0.0500514
0.259546
0.384047
0.64662
0.607807
0.639857
0.720848
0.767534
0.702908
0.635724
0.604885
0.680668
0.616563
0.691818
0.661659
0.723555
0.595781
0.516375
0.333915
0.161588
0.0686215
0.0575072
0.174604
0.243877
0.148401
0.269785
0.266313
0.179294
0.231739
0.140098
0.185115
0.27057
0.203831
0.292671
0.192831
0.199644
0.196971
0.190689
0.165627
0.0862465
-0.985349
0.0659219
1.22795
1.93306
2.36108
2.59951
2.57056
2.6329
2.51587
2.53185
2.41278
2.52179
2.64857
2.78286
2.79962
2.80107
2.55887
2.01395
1.07748
-0.0482175
-0.545811
0.364389
1.30582
1.83528
2.20487
2.37343
2.46856
2.45091
2.38057
2.35295
2.32143
2.35042
2.39943
2.50029
2.61793
2.54693
2.37397
1.86975
1.07968
0.220259
-0.252811
0.509845
1.1667
1.69358
2.00624
2.19589
2.26705
2.14254
2.16798
2.12101
2.12252
2.08306
2.18363
2.25131
2.3219
2.34086
2.08844
1.75244
1.01136
0.346085
-0.0318059
0.516086
1.12931
1.50376
1.74494
1.91155
1.89779
1.83722
1.81379
1.70673
1.78661
1.6928
1.76724
1.90076
1.94293
1.89493
1.73876
1.40484
0.883446
0.379249
0.0390593
0.429079
1.02969
1.17101
1.37493
1.55536
1.55889
1.46792
1.47277
1.4484
1.34519
1.3904
1.44815
1.52021
1.52926
1.4713
1.36728
1.16292
0.812664
0.328033
0.114564
0.437428
0.688082
0.96461
0.999051
1.01695
1.10013
1.11367
1.043
1.0297
0.996229
1.01788
1.05829
1.05656
1.0332
1.14075
1.01995
0.840259
0.621305
0.307536
0.0915348
0.213914
0.472503
0.673218
0.620369
0.687004
0.638468
0.67433
0.710364
0.61892
0.580994
0.685748
0.618182
0.579771
0.671934
0.680053
0.553187
0.570693
0.325324
0.0756474
0.0412754
0.059161
0.0895774
0.20339
0.210824
0.236923
0.232281
0.167313
0.280516
0.222739
0.204431
0.26822
0.32775
0.236831
0.233826
0.241976
0.143571
0.171655
0.0958638
0.100334
-1.05268
0.030381
1.08743
1.86711
2.20854
2.47449
2.50393
2.51281
2.37884
2.35612
2.27586
2.29387
2.43212
2.4731
2.71481
2.57535
2.37127
1.84757
0.868167
-0.0812619
-0.56606
0.286867
1.17561
1.7953
2.16494
2.38715
2.33212
2.35448
2.2226
2.24645
2.11834
2.1723
2.30468
2.33054
2.40694
2.40687
2.10968
1.68299
0.829266
0.0942957
-0.305649
0.500538
1.13537
1.76625
1.9941
2.14367
2.1621
2.09128
2.05285
1.9653
1.89725
1.95265
2.04993
2.07107
2.15981
2.08685
1.91127
1.47413
1.00522
0.300098
-0.0996587
0.425532
1.11528
1.47989
1.73627
1.88168
1.88953
1.79914
1.71554
1.70504
1.62571
1.6091
1.7867
1.76361
1.73494
1.74604
1.60683
1.31436
0.860872
0.2554
0.00222916
0.485839
0.934169
1.28342
1.43288
1.46551
1.51469
1.37798
1.425
1.32434
1.28202
1.31703
1.35052
1.46008
1.43525
1.39432
1.34801
1.00556
0.692549
0.302665
0.0695541
0.370248
0.640147
0.948143
1.01275
1.13129
1.14073
1.12962
0.996372
1.08671
1.00452
1.004
1.05978
0.992638
1.09342
0.977857
0.889726
0.739054
0.505138
0.24033
0.0365387
0.298342
0.425279
0.590346
0.601781
0.669417
0.61908
0.705347
0.659608
0.56413
0.593412
0.599048
0.652835
0.671835
0.719986
0.605862
0.553432
0.471784
0.301787
0.139397
0.0777557
0.0250504
0.184902
0.215757
0.187141
0.225765
0.282106
0.273169
0.212143
0.233945
0.205805
0.148192
0.239753
0.209291
0.123544
0.156495
0.220364
0.116322
0.126185
0.0644343
-1.04332
0.0788079
1.02531
1.70985
2.21345
2.39275
2.48385
2.37605
2.26534
2.16719
2.11547
2.14626
2.30331
2.36807
2.47201
2.45145
2.15575
1.68277
0.718874
-0.233711
-0.639432
0.299063
1.12669
1.69359
2.09465
2.3304
2.33113
2.26053
2.22689
2.01386
2.02065
2.05613
2.1127
2.219
2.23565
2.28038
2.01018
1.55644
0.829534
-0.0504909
-0.242353
0.366872
1.10419
1.64364
1.9696
2.08346
2.14944
2.06054
1.94737
1.82512
1.73506
1.77909
1.96195
1.9928
2.00404
1.92786
1.7807
1.48883
0.865189
0.185343
-0.0765626
0.5016
1.07201
1.45154
1.65895
1.79261
1.79995
1.706
1.66984
1.5363
1.50571
1.50941
1.59094
1.65115
1.70674
1.67627
1.50678
1.20906
0.750029
0.201512
0.085288
0.462493
0.98946
1.23122
1.36502
1.49082
1.4706
1.37045
1.33065
1.28159
1.23537
1.18533
1.24506
1.36094
1.38044
1.37608
1.14234
0.964726
0.610497
0.126309
0.0575726
0.400463
0.633445
0.838098
1.02156
1.09223
1.10252
1.1231
1.03615
0.95557
0.896103
0.932226
1.00035
0.995395
1.00381
0.992284
0.94873
0.765182
0.433511
0.190832
0.0639399
0.22026
0.448106
0.652015
0.613537
0.675631
0.589484
0.701277
0.61653
0.558665
0.554338
0.522063
0.635384
0.552335
0.632386
0.572147
0.468205
0.552425
0.347044
0.164631
0.0694379
0.0507922
0.17409
0.275019
0.253651
0.274482
0.188419
0.231494
0.245675
0.202326
0.217176
0.200205
0.142505
0.144561
0.192966
0.175353
0.147286
0.199187
0.0846864
0.0380011
-0.990809
-0.0302096
1.04378
1.69188
2.16668
2.37265
2.51502
2.29778
2.28144
2.11311
2.07739
2.01142
2.24761
2.30646
2.3345
2.27664
1.96585
1.34768
0.543439
-0.330404
-0.579303
0.278155
1.14337
1.75528
2.10915
2.32993
2.28185
2.19734
2.15659
2.08724
1.94983
1.97649
2.07818
2.11859
2.19449
2.1083
1.89351
1.42273
0.700284
-0.0358532
-0.288265
0.454797
1.16238
1.64968
1.91483
2.08076
2.12479
2.06159
1.95274
1.80621
1.74398
1.77498
1.8595
1.90529
1.93638
1.87025
1.73897
1.33459
0.671522
0.125336
0.0020134
0.528767
0.926754
1.51653
1.68735
1.81679
1.82287
1.77895
1.59881
1.54959
1.53813
1.48305
1.59935
1.68788
1.58261
1.60996
1.4342
1.12001
0.634222
0.11757
0.0669627
0.414282
0.954108
1.19611
1.30396
1.45802
1.47943
1.39262
1.32097
1.30331
1.1877
1.267
1.25838
1.25543
1.21997
1.27074
1.15649
0.894925
0.597576
0.216362
0.0396875
0.414399
0.622841
0.811827
0.987994
1.07312
1.07526
1.01881
0.985142
0.86018
0.827541
0.839399
0.866724
0.911851
0.972552
0.973245
0.850064
0.703446
0.375329
0.170172
0.0434063
0.211724
0.372503
0.536333
0.640549
0.641791
0.64977
0.665254
0.524579
0.551922
0.538411
0.567003
0.48885
0.59718
0.599012
0.550016
0.513825
0.419614
0.252652
0.0943215
0.038167
0.0756517
0.119112
0.221511
0.231549
0.200484
0.216542
0.222812
0.21059
0.131808
0.224704
0.218785
0.193485
0.146716
0.151819
0.168623
0.175449
0.159752
0.174894
0.0190505
-1.00348
0.110387
1.04399
1.76985
2.21037
2.40848
2.39322
2.43293
2.24269
2.10593
1.92408
2.14581
2.1528
2.16802
2.30747
2.15838
1.89533
1.3163
0.504284
-0.453585
-0.536727
0.378748
1.13536
1.75332
2.09708
2.37739
2.36877
2.32033
2.19102
2.01336
1.95946
1.93425
2.01951
2.0418
2.15246
1.96867
1.70913
1.26647
0.6477
-0.151582
-0.135698
0.567907
1.16148
1.67136
1.98523
2.09813
2.14863
2.10025
1.86947
1.75402
1.79227
1.81099
1.89118
1.92617
1.88264
1.92358
1.59862
1.27699
0.605094
0.0322283
-0.0537135
0.516653
1.02056
1.47465
1.65917
1.74538
1.82402
1.74823
1.71537
1.54241
1.50399
1.4271
1.53393
1.50382
1.59939
1.57885
1.46005
1.0123
0.582119
0.150898
0.14059
0.47667
0.866989
1.12067
1.31757
1.41302
1.48029
1.36037
1.35003
1.29039
1.21312
1.22242
1.2421
1.34315
1.26079
1.23987
1.10965
0.90108
0.484264
0.130555
0.184712
0.339099
0.665673
0.886077
0.924242
1.16772
1.15882
1.01428
1.00699
0.960322
0.93741
0.947242
0.922063
0.932138
0.96086
0.900156
0.826713
0.604386
0.343745
0.13928
0.109224
0.19578
0.422178
0.554666
0.547571
0.68985
0.595087
0.68511
0.665731
0.571489
0.568528
0.43318
0.634668
0.601714
0.519495
0.590275
0.450645
0.392731
0.207581
0.119623
0.0491254
0.0463762
0.179638
0.153612
0.212115
0.273253
0.294007
0.244288
0.202623
0.194083
0.15878
0.135634
0.263348
0.220824
0.217569
0.151798
0.201746
0.18295
0.141384
0.0663161
-0.841949
0.202336
1.13886
1.79902
2.24
2.42782
2.59558
2.54133
2.37939
2.25076
2.10923
2.06853
2.21051
2.29823
2.27973
2.2226
1.83316
1.28853
0.518013
-0.436684
-0.369683
0.429405
1.19654
1.85929
2.22525
2.28351
2.41133
2.33447
2.19993
2.09016
2.03969
1.96628
2.0007
2.10945
2.16349
2.07856
1.76378
1.24205
0.597218
-0.166493
-0.0956905
0.507982
1.2982
1.8102
1.99359
2.13442
2.18442
2.1987
2.03197
1.95223
1.91899
1.83158
1.9077
1.9104
1.93236
1.8114
1.64184
1.22942
0.568003
0.0152186
0.143009
0.650004
1.14994
1.48651
1.71484
1.8843
1.83498
1.82839
1.68564
1.67764
1.50326
1.50475
1.59629
1.58837
1.63064
1.59483
1.35664
1.0192
0.564201
0.126028
0.141594
0.58375
1.01824
1.25533
1.46275
1.5125
1.52751
1.56457
1.39526
1.37417
1.35262
1.25342
1.33318
1.28762
1.34401
1.28699
1.10244
0.856196
0.522439
0.164562
0.209283
0.418864
0.694211
0.964514
1.09586
1.12969
1.12399
1.01414
1.04534
1.00181
0.942778
0.90049
0.921707
0.938307
0.943236
0.928083
0.811817
0.576811
0.409164
0.153234
0.186119
0.304748
0.44206
0.575277
0.659872
0.649719
0.632405
0.711999
0.554668
0.664474
0.530618
0.56356
0.571858
0.653487
0.578962
0.481719
0.528251
0.339902
0.266158
0.061733
0.017498
0.16968
0.102912
0.154675
0.236489
0.181086
0.21977
0.277062
0.165411
0.178103
0.0820969
0.281038
0.176236
0.207446
0.178911
0.228531
0.223393
0.0791981
0.120535
-0.0668747
-0.613855
0.391985
1.323
1.94079
2.46928
2.65316
2.80423
2.66364
2.62063
2.53646
2.3623
2.36637
2.32124
2.43234
2.3967
2.25833
1.91461
1.35114
0.502789
-0.308504
-0.218865
0.629602
1.36435
1.87632
2.3375
2.59686
2.6199
2.51847
2.46963
2.32885
2.22224
2.13529
2.19728
2.2463
2.21749
2.17115
1.81193
1.26076
0.67557
0.00185085
0.0973921
0.687888
1.34556
1.85724
2.14843
2.33988
2.39523
2.31606
2.22193
2.0317
1.96369
2.01082
1.97753
2.01435
2.03212
1.84893
1.69363
1.27124
0.701956
0.151093
0.22834
0.769221
1.15955
1.55768
1.86023
1.96323
1.99112
1.95869
1.91569
1.80912
1.72617
1.60823
1.63897
1.80072
1.76806
1.64763
1.40067
1.06255
0.656138
0.208833
0.345071
0.67415
0.959965
1.32186
1.50636
1.60161
1.66188
1.63729
1.44539
1.41491
1.35619
1.32872
1.34238
1.32049
1.28355
1.28454
1.22961
0.918487
0.540501
0.257009
0.183874
0.548825
0.753176
1.03532
1.18912
1.14643
1.10218
1.13887
1.0959
1.03115
0.950856
0.924509
0.998763
0.948676
0.952965
0.979899
0.799517
0.642928
0.41502
0.139127
0.175571
0.35458
0.369088
0.59986
0.680857
0.654973
0.738251
0.691366
0.639013
0.660854
0.525187
0.603523
0.576763
0.644934
0.617155
0.600413
0.570885
0.418147
0.262509
0.166227
0.0752882
0.227059
0.120013
0.175302
0.190234
0.323192
0.256886
0.244161
0.182095
0.183532
0.265583
0.229345
0.199119
0.137901
0.163243
0.200161
0.189118
0.118069
0.13028
0.0427487
-0.134506
0.635459
1.5402
2.22489
2.70903
2.94988
3.06428
3.10245
2.94105
2.76871
2.68582
2.64399
2.59731
2.65323
2.55071
2.425
2.09577
1.44902
0.646732
-0.146436
0.0466274
0.851832
1.64356
2.2429
2.59988
2.82196
2.8391
2.8445
2.72211
2.60595
2.52929
2.46981
2.42311
2.46649
2.43204
2.28323
1.92705
1.43274
0.813887
0.0329722
0.253779
0.89178
1.5638
1.99105
2.35015
2.52044
2.55586
2.50409
2.42615
2.36073
2.23294
2.19841
2.20066
2.15603
2.17178
2.03166
1.76037
1.34612
0.86432
0.292319
0.362752
0.902771
1.42356
1.75237
2.10422
2.17461
2.21645
2.18818
2.05383
1.92187
1.96099
1.95402
1.92249
1.83846
1.9282
1.7581
1.52661
1.13768
0.734883
0.351243
0.410975
0.705953
1.24332
1.45193
1.71672
1.72183
1.77892
1.74544
1.68205
1.61833
1.56076
1.53134
1.38175
1.54624
1.50079
1.42404
1.28768
1.0023
0.626144
0.307608
0.36191
0.578833
0.894518
1.09112
1.2201
1.3048
1.34874
1.19264
1.20928
1.21491
1.10765
1.10612
1.12317
1.11802
1.10685
1.02066
0.906715
0.756692
0.5005
0.321368
0.239173
0.338016
0.572729
0.682135
0.767208
0.773944
0.779333
0.680554
0.697046
0.727801
0.781416
0.688896
0.685125
0.714547
0.609759
0.603447
0.513889
0.482129
0.331056
0.13659
0.093096
0.205487
0.122855
0.157293
0.290398
0.32641
0.278342
0.238484
0.243834
0.22466
0.223169
0.140083
0.300449
0.196226
0.246958
0.17889
0.165221
0.165112
0.0769953
0.0428849
0.124301
1.01376
1.82673
2.64568
3.07264
3.36872
3.45474
3.51606
3.37883
3.18919
3.1189
3.08581
3.06744
3.01043
2.9177
2.69685
2.31992
1.73137
1.02174
0.0861319
0.480771
1.2187
1.99564
2.49835
2.92588
3.15811
3.19106
3.19864
3.14439
2.98829
2.9067
2.83868
2.86705
2.74004
2.66358
2.58422
2.18318
1.68639
1.02164
0.346604
0.571973
1.26086
1.90962
2.3061
2.62736
2.91159
2.80472
2.79078
2.79366
2.60696
2.62432
2.52886
2.56163
2.44148
2.45052
2.30512
2.00389
1.5939
1.0433
0.508156
0.651222
1.2063
1.69721
1.98528
2.27401
2.37131
2.43574
2.41959
2.23901
2.23444
2.17841
2.10518
1.99161
2.1392
2.03996
1.95151
1.80126
1.44311
0.921682
0.516343
0.645952
0.929941
1.33638
1.58495
1.885
1.90361
1.92607
1.95271
1.8689
1.80478
1.75632
1.71802
1.65782
1.66855
1.63092
1.57615
1.37007
1.10521
0.815038
0.430466
0.515541
0.834085
0.998477
1.27651
1.33534
1.38993
1.43003
1.37878
1.36965
1.26712
1.23068
1.26234
1.16492
1.21087
1.19405
1.11279
1.00258
0.798473
0.587774
0.34842
0.321118
0.494303
0.632242
0.675741
0.802543
0.850588
0.857867
0.854451
0.86199
0.825245
0.755039
0.752242
0.710433
0.7593
0.731239
0.661693
0.676421
0.58774
0.419919
0.244501
0.109355
0.167976
0.183091
0.269741
0.358199
0.372572
0.300785
0.287288
0.343407
0.209034
0.269075
0.273923
0.227997
0.221487
0.261264
0.232854
0.161757
0.135202
0.112662
0.166589
0.592745
1.56587
2.33956
3.10876
3.53325
3.88322
4.00873
4.00349
3.92095
3.79581
3.64727
3.60365
3.56504
3.54627
3.37149
3.13988
2.73533
2.16579
1.30933
0.478759
0.883106
1.64988
2.35646
2.96203
3.3557
3.59212
3.63369
3.69018
3.54838
3.54653
3.3358
3.31423
3.31492
3.20771
3.12012
2.89741
2.49532
2.03059
1.41462
0.657059
0.946012
1.53162
2.13981
2.68277
2.93519
3.19799
3.21021
3.2281
3.11809
3.07466
3.00862
2.91158
2.86709
2.83814
2.72549
2.53542
2.36563
1.85339
1.25269
0.868943
0.906663
1.43218
1.90396
2.26033
2.54922
2.7203
2.74753
2.70756
2.67396
2.65931
2.54713
2.49528
2.40247
2.3747
2.27478
2.18589
1.95582
1.56844
1.19523
0.73976
0.77868
1.23429
1.55063
1.83279
2.02903
2.23448
2.21012
2.24939
2.17821
2.05928
2.02261
1.96735
1.96925
1.94019
1.86773
1.77474
1.51883
1.37798
0.939094
0.664565
0.688701
0.851505
1.13689
1.37698
1.4186
1.55464
1.49732
1.54326
1.605
1.47696
1.43861
1.44923
1.38687
1.38082
1.38363
1.33121
1.14625
0.910815
0.700853
0.515578
0.389069
0.530338
0.630793
0.87522
0.833977
0.992373
0.99902
0.953715
0.933604
0.982989
0.912255
0.871847
0.848674
0.83838
0.760602
0.724439
0.675799
0.648837
0.413881
0.324028
0.089869
0.223982
0.235966
0.248191
0.334947
0.269171
0.303532
0.366523
0.251287
0.2674
0.308538
0.295433
0.288498
0.255736
0.268475
0.245363
0.28184
0.231553
0.200748
0.104258
1.28823
2.15656
2.94221
3.6421
4.23224
4.44266
4.53328
4.6125
4.57295
4.45728
4.41184
4.28551
4.20882
4.08913
3.91274
3.70557
3.13922
2.58872
1.85292
0.990903
1.38753
2.08554
2.82949
3.42065
3.76447
4.03201
4.16849
4.15882
4.18701
4.04593
3.94693
3.87637
3.80662
3.70406
3.6161
3.34564
3.00295
2.47429
1.85691
1.16143
1.46329
2.00333
2.52006
3.13454
3.35496
3.58276
3.73651
3.7126
3.65614
3.61322
3.52032
3.44526
3.36945
3.25635
3.15168
2.95659
2.69494
2.20389
1.6723
1.07157
1.46936
1.8053
2.34131
2.65929
2.87859
3.11243
3.09284
3.12757
2.99363
3.04318
2.91857
2.83917
2.83973
2.76182
2.73842
2.49248
2.26252
1.90803
1.47038
1.02133
1.153
1.42471
1.86039
2.13435
2.29916
2.47449
2.48297
2.47819
2.41964
2.35417
2.35145
2.22418
2.22131
2.25083
2.14946
1.97451
1.754
1.59405
1.20027
0.882052
0.845251
1.15245
1.35869
1.51055
1.70121
1.76261
1.78848
1.80255
1.73999
1.73111
1.75082
1.77469
1.70105
1.52212
1.54289
1.49036
1.3346
1.1836
0.964182
0.654646
0.599796
0.655202
0.921051
1.00184
1.00667
1.0553
1.06538
1.08505
1.15351
1.00119
1.10885
1.09248
0.959312
0.88522
0.918974
0.899708
0.823365
0.724772
0.509581
0.455355
0.20959
0.18027
0.28205
0.296213
0.382778
0.400149
0.345554
0.345374
0.326845
0.402331
0.323983
0.305341
0.369254
0.28972
0.34868
0.276176
0.199535
0.245552
0.193489
0.135807
1.92432
2.79265
3.65511
4.29685
4.80467
5.15123
5.25625
5.39031
5.34823
5.231
5.14734
5.15034
4.93999
4.87539
4.63893
4.30734
3.83704
3.14917
2.33414
1.60986
2.05531
2.68928
3.40583
4.04775
4.42857
4.70346
4.80171
4.83829
4.75763
4.74519
4.6311
4.57768
4.51167
4.36639
4.22676
3.83179
3.4926
3.04237
2.27886
1.68645
1.99326
2.52697
3.10247
3.45918
3.91193
4.10743
4.20403
4.24652
4.26567
4.15499
4.00323
4.0207
3.9726
3.83324
3.65185
3.51275
3.07179
2.72494
2.14831
1.60906
1.78536
2.20267
2.71366
3.07735
3.25801
3.50397
3.53315
3.57277
3.47651
3.44791
3.47367
3.39409
3.28611
3.18181
2.9942
2.96251
2.65775
2.3599
1.86513
1.42175
1.40394
1.75141
2.18392
2.45106
2.71229
2.73755
2.82902
2.78161
2.78001
2.78752
2.67933
2.69055
2.64566
2.51509
2.35894
2.33245
2.12165
1.85565
1.5315
1.17605
1.13917
1.27576
1.54992
1.78722
1.90355
1.98909
1.98411
2.04856
2.01738
2.01652
1.91691
1.93899
1.85592
1.86912
1.76945
1.61024
1.52478
1.38552
1.09144
0.853552
0.679662
0.809102
0.951278
1.01765
1.13462
1.26021
1.22806
1.20464
1.18967
1.17413
1.24032
1.2171
1.18629
1.15528
1.01232
1.04363
0.916239
0.714594
0.583244
0.624703
0.24784
0.274569
0.316873
0.317886
0.454806
0.346036
0.444348
0.488595
0.407073
0.416888
0.458864
0.341691
0.414015
0.361585
0.347656
0.377511
0.37082
0.331214
0.267193
0.189627
2.75411
3.55164
4.40239
5.07683
5.57065
5.90246
6.08805
6.13352
6.16318
6.06722
5.93572
5.89645
5.69095
5.66444
5.33917
5.01844
4.5908
3.8474
3.18264
2.26507
2.71561
3.3731
4.09063
4.64454
5.02562
5.36638
5.50468
5.53985
5.48354
5.48129
5.43609
5.27748
5.24063
5.08634
4.82297
4.60686
4.18854
3.60859
2.98362
2.26168
2.56349
3.13691
3.61674
4.15222
4.37936
4.65245
4.85889
4.8206
4.80566
4.7841
4.69653
4.59758
4.60316
4.38805
4.21597
3.91232
3.58023
3.10753
2.73268
2.07214
2.23326
2.63756
3.17058
3.45698
3.78468
3.96304
4.03091
3.97414
3.94948
3.97852
3.96128
3.87037
3.72589
3.71955
3.58408
3.29308
3.09454
2.60125
2.32901
1.89687
1.78939
2.23225
2.51175
2.8305
3.02222
3.12652
3.23147
3.26217
3.23115
3.26164
3.02014
3.00559
2.97871
2.89027
2.82107
2.58054
2.44446
2.17703
1.799
1.50228
1.41566
1.5579
1.89577
1.96708
2.2376
2.27655
2.27194
2.2916
2.34664
2.35273
2.26225
2.22314
2.03816
2.06623
2.05059
1.88215
1.77497
1.60385
1.32041
1.05355
0.8502
0.988328
1.11413
1.19654
1.33691
1.40483
1.35378
1.38469
1.45043
1.37367
1.33884
1.41357
1.35573
1.30322
1.18662
1.19458
1.0741
0.997574
0.790502
0.742561
0.343783
0.304505
0.362297
0.349655
0.482203
0.411807
0.513805
0.478777
0.502414
0.430272
0.485285
0.447823
0.433252
0.465352
0.395402
0.412686
0.369371
0.339997
0.243655
0.257015
3.57425
4.42531
5.28266
5.92281
6.365
6.76064
7.0091
7.10679
7.1047
6.95733
6.97076
6.79386
6.68904
6.38127
6.1774
5.84724
5.29906
4.75543
3.90461
3.10935
3.45079
4.13315
4.82401
5.27759
5.8559
6.00244
6.17459
6.34199
6.33273
6.17117
6.2348
6.08678
5.92017
5.76866
5.47801
5.22862
4.84401
4.29157
3.57562
2.97668
3.16789
3.69169
4.28073
4.73913
5.1474
5.32583
5.44922
5.47137
5.4264
5.40897
5.3122
5.28524
5.2145
5.00233
4.80496
4.55307
4.24191
3.75995
3.1922
2.68542
2.6617
3.16498
3.64971
3.97758
4.19279
4.48004
4.49543
4.54703
4.56713
4.48905
4.49074
4.41237
4.26619
4.18699
4.0092
3.7389
3.50285
3.11967
2.74374
2.25748
2.23993
2.52787
2.92569
3.09252
3.41497
3.42203
3.53684
3.64815
3.61877
3.49422
3.50719
3.50269
3.39569
3.36594
3.20225
2.95943
2.73172
2.62825
2.20562
1.88983
1.66205
1.90782
2.13731
2.24563
2.46265
2.51328
2.55596
2.66931
2.66956
2.56903
2.55465
2.50371
2.49487
2.44838
2.27383
2.13083
1.99497
1.87373
1.53571
1.3023
0.996887
1.13077
1.30125
1.32062
1.45697
1.54502
1.559
1.50966
1.57981
1.53007
1.54871
1.46383
1.48036
1.46748
1.33141
1.26279
1.30447
1.15018
0.958267
0.821563
0.325971
0.336111
0.479683
0.528765
0.550457
0.611533
0.452553
0.505427
0.552378
0.563429
0.49581
0.499652
0.606515
0.509581
0.554605
0.479992
0.403918
0.398312
0.365444
0.283322
4.38814
5.27929
5.99947
6.73806
7.27474
7.58513
7.81449
7.96359
7.96684
7.86584
7.88264
7.66551
7.57291
7.32604
7.09032
6.66364
6.06451
5.48187
4.80664
3.90965
4.20937
4.88132
5.59983
6.12209
6.5172
6.74964
6.95669
7.04124
7.05013
7.01182
6.89533
6.84403
6.70108
6.46059
6.28293
5.94864
5.55224
4.96948
4.38286
3.68714
3.77404
4.27968
4.87012
5.28816
5.61519
5.86816
5.98659
6.07213
6.18562
6.1011
6.07938
5.94242
5.85496
5.62749
5.47148
5.08738
4.69768
4.24925
3.7674
3.27814
3.22472
3.73262
4.05978
4.36991
4.80454
4.87845
5.04167
5.12387
5.03433
5.09601
4.92924
4.94986
4.84905
4.66663
4.44757
4.33013
3.98899
3.61188
3.16286
2.80527
2.58545
2.88206
3.21795
3.46109
3.78786
3.87741
3.91409
3.95807
4.02529
3.94089
3.96837
3.90441
3.79343
3.70905
3.57888
3.33298
3.15034
2.80026
2.53259
2.25892
1.96409
2.16531
2.4258
2.53848
2.70179
2.76732
2.8729
2.87018
2.91517
2.8895
2.82216
2.81184
2.74604
2.70623
2.52467
2.35481
2.3413
2.06427
1.86314
1.58737
1.20384
1.2296
1.44705
1.56934
1.63492
1.66617
1.7592
1.77276
1.70931
1.74575
1.657
1.66508
1.72866
1.64275
1.55238
1.46482
1.43973
1.33951
1.03204
1.01359
0.399638
0.379161
0.420675
0.528786
0.501155
0.533337
0.576885
0.573142
0.551178
0.571184
0.609632
0.594303
0.530354
0.579404
0.49857
0.511414
0.414076
0.376819
0.399334
0.43205
5.11946
5.91115
6.82327
7.39293
7.97257
8.27251
8.51742
8.65376
8.62285
8.53721
8.55919
8.43744
8.27452
8.07914
7.67621
7.30128
6.73735
6.13343
5.38478
4.65453
4.7422
5.34291
6.09917
6.63779
7.06079
7.36288
7.51355
7.64608
7.58812
7.60889
7.53024
7.42411
7.28233
7.17418
6.80942
6.53313
6.06699
5.47792
4.81349
4.23937
4.17897
4.71892
5.31866
5.85249
6.13586
6.29082
6.44036
6.54933
6.58049
6.51645
6.44378
6.38077
6.29485
6.08105
5.8495
5.52338
5.258
4.71857
4.23724
3.73786
3.56142
3.95707
4.42497
4.84111
5.10161
5.31616
5.40315
5.42821
5.38802
5.39076
5.36435
5.17818
5.18851
5.03146
4.8433
4.59506
4.28394
3.99159
3.61205
3.11985
2.91144
3.15339
3.49905
3.79656
4.06573
4.1987
4.18149
4.30137
4.23351
4.30065
4.13624
4.09477
4.08778
3.93794
3.83833
3.66655
3.39083
3.14155
2.79832
2.47721
2.04973
2.29216
2.58232
2.7038
2.88862
2.96678
3.09789
3.09474
3.0429
3.04793
2.9329
3.02039
2.89706
2.88753
2.8194
2.65052
2.49206
2.14839
2.10517
1.8473
1.27215
1.3955
1.6229
1.58289
1.72047
1.72346
1.86289
1.85328
1.8616
1.83317
1.81052
1.84292
1.73481
1.70603
1.72526
1.57929
1.46697
1.3205
1.23805
1.04295
0.394075
0.494763
0.572713
0.56047
0.626701
0.569836
0.567608
0.609392
0.57584
0.612796
0.669287
0.618087
0.611972
0.648397
0.523257
0.513266
0.493902
0.48353
0.367518
0.332705
)
;

boundaryField
{
    hotSide
    {
        type            calculated;
        value           nonuniform List<scalar> 
400
(
-1.17524
-1.11969
-1.06667
-1.08415
-0.985349
-1.05268
-1.04332
-0.990807
-1.00348
-0.841947
-0.613855
-0.134507
0.124302
0.592743
1.28824
1.92432
2.75412
3.57425
4.38814
5.11947
0.10135
0.150965
0.254827
0.100441
0.065924
0.0303801
0.0788063
-0.0302109
0.110385
0.202334
0.391987
0.635462
1.01376
1.56587
2.15656
2.79265
3.55164
4.42532
5.27928
5.91115
1.22618
1.22487
1.26305
1.25003
1.22795
1.08743
1.02531
1.04378
1.04399
1.13886
1.323
1.5402
1.82673
2.33956
2.94221
3.65511
4.40239
5.28266
5.99946
6.82327
1.92492
1.98294
2.11172
1.99352
1.93305
1.8671
1.70985
1.69188
1.76985
1.79902
1.94079
2.22489
2.64568
3.10877
3.6421
4.29685
5.07683
5.92281
6.73806
7.39294
2.41243
2.49434
2.49008
2.45136
2.36108
2.20854
2.21345
2.16667
2.21037
2.24
2.46928
2.70903
3.07264
3.53325
4.23224
4.80467
5.57065
6.36501
7.27475
7.97257
2.82586
2.80178
2.83714
2.64519
2.59951
2.47449
2.39274
2.37265
2.40848
2.42782
2.65316
2.94988
3.36872
3.88322
4.44266
5.15123
5.90247
6.76064
7.58513
8.27251
2.95593
2.90903
2.81494
2.72347
2.57056
2.50393
2.48385
2.51502
2.39321
2.59558
2.80423
3.06428
3.45474
4.00873
4.53328
5.25625
6.08805
7.00909
7.81449
8.51742
2.98726
2.93188
2.90844
2.71528
2.6329
2.51281
2.37605
2.29777
2.43293
2.54133
2.66364
3.10245
3.51606
4.00349
4.6125
5.39031
6.13352
7.10679
7.96359
8.65375
3.11018
3.0364
2.85836
2.70611
2.51587
2.37884
2.26534
2.28144
2.24269
2.37939
2.62063
2.94104
3.37883
3.92095
4.57295
5.34823
6.16318
7.1047
7.96684
8.62285
3.14777
3.07777
2.95479
2.63713
2.53185
2.35612
2.16719
2.11311
2.10593
2.25076
2.53646
2.76871
3.18919
3.79581
4.45728
5.231
6.06722
6.95733
7.86584
8.53721
3.25612
3.07631
2.85965
2.66279
2.41278
2.27586
2.11547
2.07739
1.92408
2.10923
2.3623
2.68583
3.11891
3.64727
4.41184
5.14734
5.93572
6.97076
7.88264
8.55919
3.28884
3.08279
2.85462
2.69225
2.52179
2.29387
2.14625
2.01142
2.14581
2.06853
2.36637
2.64399
3.08581
3.60365
4.28551
5.15034
5.89645
6.79386
7.66551
8.43744
3.28976
3.16949
3.02398
2.80468
2.64857
2.43212
2.30331
2.24761
2.1528
2.21051
2.32124
2.59731
3.06744
3.56504
4.20882
4.93999
5.69095
6.68904
7.57291
8.27451
3.37925
3.23644
3.1459
2.96683
2.78286
2.4731
2.36807
2.30646
2.16801
2.29823
2.43234
2.65323
3.01043
3.54627
4.08913
4.87539
5.66444
6.38126
7.32604
8.07914
3.38404
3.35006
3.17999
3.07981
2.79963
2.71481
2.47201
2.3345
2.30747
2.27973
2.3967
2.55071
2.9177
3.37149
3.91274
4.63892
5.33917
6.1774
7.09032
7.6762
3.3628
3.2714
3.20047
3.06353
2.80107