/*--------------------------------*- C++ -*----------------------------------*\
| =========                 |                                                 |
| \\      /  F ield         | OpenFOAM: The Open Source CFD Toolbox           |
|  \\    /   O peration     | Version:  2212                                  |
|   \\  /    A nd           | Website:  www.openfoam.com                      |
|    \\/     M anipulation  |                                                 |
\*---------------------------------------------------------------------------*/
FoamFile
{
    version     2.0;
    format      ascii;
    arch        "LSB;label=32;scalar=64";
    class       volScalarField;
    location    "0";
    object      relativeErrorField;
}
// * * * * * * * * * * * * * * * * * * * * * * * * * * * * * * * * * * * * * //

dimensions      [0 0 0 1 0 0 0];

internalField   nonuniform List<scalar> 
3200
(
0.00357835
0.000308437
0.00372907
0.00584992
0.00732607
0.00857537
0.0089641
0.009054
0.00942271
0.00953453
0.00986272
0.00996398
0.00997084
0.0102478
0.0102692
0.0102121
0.00882269
0.00731783
0.00408837
0.000656609
0.00215493
0.000939741
0.00399657
0.00583059
0.00721297
0.00792644
0.0085432
0.00863931
0.00891942
0.00892096
0.00898277
0.00905767
0.00935628
0.00963697
0.00965284
0.0093456
0.0083941
0.00682035
0.00427676
0.000929422
0.00114176
0.00143268
0.00400079
0.0056788
0.00658218
0.00750058
0.00754936
0.0079995
0.00771482
0.00790147
0.00792012
0.00795409
0.00797916
0.0084751
0.00809553
0.00821706
0.00758676
0.00605518
0.00377279
0.00174864
0.000424688
0.00165101
0.0034112
0.00534286
0.00592041
0.00630496
0.00662925
0.00685059
0.00680659
0.00662288
0.00654797
0.00687002
0.00694059
0.00715436
0.00708065
0.006943
0.00620279
0.00479442
0.0034156
0.00131474
0.00015999
0.00157393
0.00311327
0.00410391
0.00484443
0.00525815
0.0051956
0.00530324
0.00535054
0.00525762
0.00540805
0.00544589
0.00551954
0.00570899
0.00566599
0.00544186
0.00469611
0.00443617
0.00268776
0.0011902
0.000146883
0.00135265
0.00231376
0.00301563
0.00332856
0.00376151
0.0040279
0.00399182
0.00419567
0.00426311
0.00395231
0.00423705
0.0042739
0.00383896
0.00423857
0.00414791
0.00378917
0.00307577
0.0022179
0.000955942
3.46449e-05
0.000769242
0.00154977
0.001887
0.00243592
0.00230955
0.0023111
0.00242744
0.0023149
0.00260099
0.00278968
0.0024185
0.00235636
0.00244738
0.00246051
0.00273839
0.00231577
0.00204979
0.00132462
0.000629273
1.80633e-05
0.000314541
0.00037393
0.00061634
0.000663638
0.00104992
0.000693091
0.000544956
0.000839789
0.00088861
0.000818328
0.000564999
0.0010388
0.00103847
0.000685318
0.000865085
0.000597632
0.000561138
0.00057381
0.000533067
0.003408
0.000459264
0.00372381
0.00602418
0.00757228
0.00849949
0.00881905
0.00888342
0.00919636
0.00931968
0.00931526
0.00933686
0.00960334
0.00981163
0.0101628
0.00993125
0.00896199
0.00718657
0.00426274
0.000696832
0.00173795
0.00107303
0.00416586
0.00616385
0.00758538
0.00809227
0.00842228
0.0084034
0.00840889
0.00852161
0.00864203
0.00851276
0.00881705
0.00896942
0.00910863
0.00897783
0.00839418
0.00656098
0.00412499
0.00119307
0.000880673
0.00161076
0.00382989
0.00572218
0.00689512
0.00719321
0.00765816
0.00761923
0.00783244
0.00772496
0.00762622
0.00782755
0.00786472
0.00821237
0.0082347
0.00789887
0.00734989
0.00589502
0.00392889
0.00170725
0.000156708
0.00147681
0.00352654
0.00488771
0.00592665
0.00621467
0.00628496
0.00656161
0.00659146
0.00670272
0.0067521
0.00658194
0.00693225
0.00691722
0.00691479
0.00705419
0.00618071
0.00489961
0.00361182
0.00131103
0.000128719
0.0017113
0.00293054
0.00413989
0.00479934
0.00521738
0.0053167
0.00543069
0.00539349
0.00537192
0.00534574
0.00538681
0.00547081
0.00567979
0.00567873
0.00532353
0.00543112
0.00446279
0.00263512
0.00135492
0.00034042
0.00140131
0.00220403
0.00323548
0.00343309
0.00380079
0.00412691
0.00386583
0.00394198
0.00391695
0.00386869
0.00389999
0.00416204
0.00393902
0.00394158
0.00394576
0.00374015
0.00281642
0.00203623
0.00114611
0.000239309
0.00106564
0.00134293
0.00212479
0.00231057
0.00227639
0.00236167
0.00263433
0.00248354
0.00222551
0.00226367
0.00228316
0.00248897
0.00261783
0.00236563
0.00255602
0.0021388
0.00210817
0.00128907
0.000656545
1.10007e-05
2.84116e-05
0.000388882
0.000769923
0.000681356
0.000797822
0.000794423
0.000777608
0.000881636
0.000631581
0.000701323
0.000926326
0.00113742
0.000914436
0.000950763
0.000631512
0.000855285
0.00047459
0.000622389
0.000183796
0.00324428
0.000774665
0.00383718
0.00641101
0.00755429
0.00860118
0.0085284
0.00880689
0.00865185
0.00894185
0.00865395
0.00864052
0.00915675
0.00953108
0.00964058
0.00970943
0.00851044
0.00698438
0.00412245
0.00080186
0.00154446
0.00145405
0.0039559
0.00600284
0.00727623
0.00768722
0.00831871
0.00808888
0.00822561
0.00817732
0.00816631
0.0080843
0.00858573
0.00880365
0.00896292
0.00878372
0.00799248
0.00672179
0.00399262
0.00109305
0.000998358
0.00164151
0.00389424
0.00595259
0.00657539
0.00717478
0.0071586
0.00724198
0.00749717
0.00777149
0.00719239
0.00717036
0.00763328
0.00790463
0.0078697
0.0077522
0.0071485
0.00606032
0.00374489
0.00157101
0.000231695
0.00182002
0.00367553
0.00485172
0.00596677
0.00631452
0.00628823
0.00644205
0.00649438
0.00623588
0.006268
0.00626083
0.0065537
0.00654144
0.00665755
0.00678561
0.00593561
0.00504155
0.00333353
0.00154216
3.76405e-05
0.00166891
0.00299683
0.00417132
0.00470665
0.00496867
0.00515423
0.0051674
0.00523186
0.00517709
0.00482481
0.0051555
0.00512909
0.00525665
0.00546875
0.00503798
0.0047667
0.00393692
0.0025688
0.00122174
8.43305e-05
0.00128032
0.00212199
0.00308677
0.00326021
0.00365376
0.00380794
0.00380101
0.00377024
0.00361996
0.00379404
0.00395108
0.00382712
0.00396678
0.00391933
0.00374129
0.00353059
0.00291658
0.00222507
0.00105595
6.0671e-05
0.000983383
0.00145709
0.00191067
0.00214327
0.00240289
0.0022677
0.00214902
0.00231958
0.0025368
0.00232628
0.00230658
0.00212315
0.00270543
0.00232112
0.00265251
0.00208025
0.00206255
0.00129115
0.000646942
6.27638e-06
0.000249357
0.000581514
0.000446694
0.000588885
0.000851592
0.00067428
0.000708314
0.000915463
0.000772672
0.000641533
0.000882591
0.000930654
0.00070242
0.000742368
0.0008473
0.000592515
0.000703963
0.000346744
0.000359201
0.00329388
0.000305021
0.00379365
0.00604597
0.00742933
0.00801136
0.00824334
0.00821426
0.00818342
0.00797321
0.00805081
0.00814152
0.00848472
0.00897994
0.00932766
0.00928464
0.0082362
0.0066416
0.00379213
0.000248444
0.00172958
0.00124766
0.00397467
0.00599222
0.00695318
0.0075439
0.00771626
0.00796931
0.00772897
0.00767352
0.00760069
0.00772597
0.00791859
0.00839094
0.00848972
0.00854908
0.00774141
0.0062663
0.00386046
0.00106075
0.000927972
0.00164166
0.00390045
0.00556832
0.00631625
0.00689208
0.00718222
0.00717029
0.00705357
0.0068063
0.00685491
0.00694728
0.00716566
0.00728265
0.00772347
0.0073946
0.00673738
0.0055831
0.00351545
0.00140743
5.39236e-05
0.00158498
0.00361615
0.00502358
0.00560774
0.00583393
0.0061651
0.00613663
0.00618741
0.00599851
0.00593441
0.00593794
0.00596372
0.00619689
0.00619063
0.00627591
0.00592787
0.00483493
0.00327176
0.00142564
6.3981e-05
0.00159735
0.00321861
0.00398406
0.00459696
0.00503025
0.00498758
0.00486716
0.00492521
0.00477048
0.00485138
0.00487784
0.00470293
0.00508115
0.00510425
0.00531836
0.00468396
0.003811
0.00235177
0.0011733
2.22963e-05
0.00120399
0.00214828
0.00294427
0.00319639
0.00360175
0.00358088
0.00370131
0.00347856
0.00354374
0.00354489
0.00344439
0.00349961
0.00394537
0.00357989
0.00385514
0.00352452
0.00270577
0.00164635
0.000863179
0.000163727
0.000848938
0.001256
0.00211442
0.00198721
0.00209169
0.00235614
0.00250845
0.00229706
0.00207741
0.00197664
0.00222438
0.00201505
0.00226125
0.00216296
0.00236564
0.00194818
0.00168877
0.00109219
0.000528585
0.000227292
0.000190472
0.00057829
0.000807681
0.000491455
0.000893397
0.000881857
0.000593681
0.000767319
0.000463878
0.000612932
0.000895895
0.000674931
0.000969138
0.000638563
0.000661153
0.000652335
0.000631563
0.000548582
0.000285671
0.00298942
0.000199903
0.00372143
0.00585452
0.00714609
0.00786262
0.00777045
0.00795496
0.00759862
0.00764544
0.00728589
0.0076165
0.0080023
0.00841221
0.0084679
0.00847776
0.00774989
0.0061035
0.00326737
0.000146286
0.00167682
0.001119
0.00400793
0.00562979
0.00675957
0.00727223
0.00755981
0.00750245
0.00728487
0.00719912
0.0071027
0.00719259
0.00734486
0.00765697
0.00802138
0.00780826
0.00728226
0.00573881
0.00331559
0.00067667
0.000786432
0.00158546
0.00362646
0.00526158
0.00622983
0.00681542
0.00703316
0.00664443
0.0067215
0.00657494
0.00657962
0.00645822
0.00677184
0.00698434
0.00720654
0.0072689
0.00648832
0.00544709
0.003145
0.00107658
0.00010018
0.00162509
0.00355474
0.00473148
0.00548807
0.00600965
0.0059642
0.00577205
0.00569718
0.00536028
0.00561117
0.00531714
0.00555219
0.00597352
0.00610829
0.00595979
0.00547089
0.00442202
0.00278185
0.00119454
0.000124569
0.00136814
0.00328224
0.00373155
0.00437992
0.00495313
0.00496293
0.0046722
0.0046868
0.00460883
0.00428042
0.00442467
0.00460926
0.0048398
0.00487002
0.00468694
0.00435699
0.00370694
0.00259121
0.00104617
0.000369968
0.00141239
0.00222124
0.0031132
0.00322361
0.00328061
0.00354821
0.00359125
0.00336291
0.00331981
0.0032119
0.00328191
0.00341264
0.00340767
0.00333302
0.00368084
0.00329181
0.0027125
0.0020061
0.000993141
0.000299337
0.000699474
0.00154484
0.00220076
0.00202771
0.00224519
0.0020863
0.00220326
0.00232081
0.00202198
0.00189808
0.00224039
0.00201981
0.0018945
0.00219594
0.00222279
0.00180838
0.00186586
0.00106377
0.000247382
0.000136701
0.00019593
0.000296651
0.000673526
0.000698112
0.000784499
0.000769093
0.000553961
0.000928746
0.000737442
0.000676829
0.000888033
0.00108516
0.000784159
0.000774242
0.00080127
0.000475436
0.000568467
0.000317483
0.000332298
0.00318796
9.19645e-05
0.00328978
0.00564503
0.00667312
0.0074721
0.00755675
0.00757999
0.00717346
0.00710368
0.0068617
0.00691722
0.0073366
0.0074637
0.00819778
0.00778143
0.00716934
0.00558943
0.00262797
0.000246095
0.0017363
0.000879577
0.00360279
0.0054989
0.0066274
0.00730371
0.00713185
0.00719726
0.00679211
0.00686394
0.00647251
0.0066384
0.00704505
0.00712701
0.00736426
0.00736802
0.00646183
0.00515771
0.00254265
0.000289238
0.000949532
0.00155447
0.00352446
0.00548034
0.00618437
0.00664516
0.0066995
0.00647778
0.00635713
0.00608519
0.00587449
0.00604684
0.0063497
0.00641742
0.0066952
0.00647202
0.00593029
0.00457607
0.00312179
0.000932289
0.000313555
0.00133849
0.00350681
0.00465147
0.00545514
0.00590975
0.00593236
0.00564692
0.00538341
0.00534984
0.00510094
0.00504939
0.00560785
0.005537
0.0054489
0.00548584
0.00505045
0.00413279
0.00270783
0.000803561
7.10322e-06
0.0015478
0.00297528
0.00408636
0.00456083
0.00466329
0.00481847
0.00438256
0.00453137
0.00421091
0.00407636
0.00418803
0.00429523
0.00464473
0.004567
0.0044381
0.00429202
0.00320266
0.00220634
0.000964443
0.000224475
0.00119474
0.00206525
0.00305824
0.00326591
0.00364737
0.00367705
0.00364066
0.00321083
0.00350172
0.00323688
0.0032354
0.00341559
0.0031997
0.00352529
0.00315337
0.00286982
0.00238434
0.00163001
0.000775627
0.000119444
0.000975179
0.00138993
0.00192915
0.00196625
0.00218696
0.00202227
0.00230383
0.00215428
0.00184238
0.00193801
0.00195649
0.00213231
0.00219459
0.00235216
0.00197959
0.00180852
0.00154192
0.000986441
0.000455683
0.000257488
8.29517e-05
0.000612257
0.000714394
0.000619615
0.000747463
0.000933958
0.00090434
0.000702291
0.000774459
0.000681305
0.000490586
0.000793715
0.000692893
0.000409031
0.000518149
0.000729648
0.000385173
0.000417849
0.000213374
0.00315279
0.000238045
0.00309533
0.00515885
0.00667432
0.00721081
0.00748143
0.00715361
0.00681817
0.00652168
0.00636604
0.00645975
0.00693462
0.0071327
0.00744968
0.00739198
0.00650421
0.00508014
0.00217141
0.000706249
0.00195768
0.000915269
0.00344652
0.00517798
0.00640083
0.00711765
0.0071166
0.00689844
0.00679391
0.00614311
0.0061638
0.00627297
0.00644731
0.00677429
0.00682828
0.00696838
0.00614594
0.00476113
0.00253875
0.000154583
0.000751691
0.00113755
0.00342234
0.00509206
0.00609916
0.00644895
0.00665056
0.0063734
0.00602194
0.00564321
0.00536475
0.00550157
0.00606847
0.0061659
0.00620311
0.00596991
0.00551666
0.00461447
0.00268267
0.000574868
0.000240571
0.0015757
0.00336642
0.00455656
0.00520571
0.00562313
0.00564433
0.00534823
0.00523386
0.00481481
0.00471893
0.00473102
0.00498752
0.0051777
0.00535378
0.00526007
0.00472998
0.00379678
0.0023561
0.000633181
0.000271489
0.00147191
0.00314819
0.00391626
0.00434058
0.00473928
0.00467381
0.00435457
0.00422748
0.00407128
0.00392444
0.00376578
0.00395615
0.00432531
0.00438839
0.00437576
0.00363357
0.00306949
0.00194294
0.000402069
0.000185668
0.00129128
0.00204214
0.00270135
0.00329198
0.00351899
0.00355148
0.00361721
0.00333683
0.00307713
0.00288564
0.00300214
0.00322186
0.00320641
0.00323413
0.00319764
0.00305793
0.00246684
0.00139785
0.000615424
0.000208923
0.000719636
0.00146388
0.00212974
0.0020038
0.00220633
0.00192479
0.0022896
0.00201278
0.0018238
0.00180967
0.00170437
0.00207446
0.00180349
0.00206511
0.00186863
0.00152935
0.00180467
0.00113386
0.000537931
0.000229908
0.000168167
0.000576373
0.000910485
0.000839703
0.000908623
0.000623705
0.000766268
0.000813189
0.000669695
0.000718849
0.000662682
0.000471705
0.000478525
0.000638781
0.0005805
0.000487609
0.000659462
0.000280387
0.000125821
0.00298659
9.10229e-05
0.00314332
0.00509225
0.00651767
0.00713343
0.00755781
0.00690218
0.00685113
0.00634468
0.00623743
0.00604028
0.00675148
0.00693108
0.00701874
0.00684846
0.00591686
0.00405851
0.00163741
0.000995933
0.0017697
0.00084943
0.00349005
0.00535525
0.00643172
0.00710166
0.00695213
0.00669229
0.00656651
0.00635451
0.00593617
0.00601811
0.00632936
0.00645473
0.00668882
0.00642914
0.00577698
0.00434277
0.00213853
0.000109527
0.000892428
0.00140757
0.0035961
0.00510156
0.00591902
0.00642937
0.006563
0.00636587
0.00602845
0.00557545
0.00538334
0.00547966
0.00574183
0.005885
0.00598323
0.00578122
0.00537767
0.00412889
0.00207831
0.000388021
6.31666e-06
0.0016585
0.00290588
0.00475351
0.00528708
0.00569076
0.0057081
0.00556916
0.00500432
0.00484979
0.00481394
0.00464198
0.00500692
0.00528539
0.00495723
0.0050446
0.00449545
0.00351184
0.00198927
0.000368853
0.000212898
0.0013169
0.00303212
0.00380015
0.00414169
0.00462979
0.00469665
0.00442018
0.00419216
0.00413581
0.00376893
0.00402088
0.00399408
0.00398552
0.00387387
0.00403615
0.00367429
0.00284404
0.00189955
0.000687891
0.000127878
0.00133507
0.00200624
0.00261447
0.00318118
0.0034546
0.00346091
0.00327876
0.00317007
0.0027678
0.00266278
0.00270108
0.0027893
0.00293494
0.00313086
0.00313369
0.00273761
0.00226588
0.00120919
0.000548316
0.000141754
0.000691383
0.00121627
0.00175099
0.00209097
0.00209478
0.0021206
0.00217095
0.00171177
0.00180094
0.00175685
0.00185021
0.00159528
0.00194897
0.00195515
0.00179544
0.00167751
0.00137009
0.00082503
0.000308031
0.000126348
0.00025043
0.000394281
0.000733209
0.000766407
0.000663556
0.000716682
0.000737409
0.000696946
0.000436213
0.000743648
0.000724069
0.000640351
0.000485579
0.000502488
0.000558126
0.000580742
0.000528806
0.000578953
6.30646e-05
0.00301608
0.000331654
0.00313509
0.00531211
0.00663085
0.0072216
0.00717262
0.00728893
0.00671722
0.00630673
0.00576214
0.00642706
0.00644967
0.00649768
0.00691872
0.0064749
0.00568872
0.00395283
0.0015151
0.00136331
0.00163553
0.00115375
0.00345709
0.00533629
0.00637964
0.00722922
0.00720021
0.00705066
0.00665619
0.00611574
0.005952
0.00587613
0.00613657
0.00620633
0.00654525
0.00598898
0.00520179
0.00385629
0.00197303
0.000461907
0.000419205
0.00175392
0.00358579
0.00515792
0.00612415
0.00647002
0.0066235
0.00647256
0.00576018
0.00540392
0.00552177
0.00558001
0.00582824
0.00593772
0.0058055
0.00593398
0.00493345
0.00394239
0.00186876
9.95613e-05
0.000168219
0.00161768
0.00319448
0.00461435
0.00519007
0.00545805
0.00570239
0.00546416
0.00536059
0.00481966
0.00469961
0.00445973
0.00479439
0.00470133
0.00500151
0.00493881
0.00456869
0.00316863
0.00182265
0.000472579
0.00044637
0.00151314
0.00275153
0.00355571
0.00417939
0.00448104
0.00469333
0.00431234
0.00427903
0.00408973
0.0038448
0.00387456
0.00393744
0.00425854
0.00399829
0.0039329
0.00352073
0.00285972
0.00153725
0.000414507
0.000594571
0.00109139
0.00214211
0.00285083
0.00297307
0.00375562
0.00372641
0.00326117
0.00323742
0.00308725
0.00301359
0.00304535
0.00296467
0.00299746
0.00309032
0.00289559
0.00265983
0.00194489
0.00110635
0.000448329
0.000356482
0.000638932
0.00137764
0.00180978
0.00178642
0.00225036
0.00194104
0.0022345
0.00217117
0.00186376
0.00185411
0.00141274
0.00206999
0.00196266
0.00169465
0.00192574
0.00147038
0.00128155
0.000677447
0.000390425
0.000162591
0.000153488
0.000594514
0.00050836
0.000701942
0.000904229
0.000972877
0.000808334
0.000670452
0.000642189
0.000525378
0.000448796
0.000871401
0.000730713
0.000719964
0.000502339
0.000667655
0.000605474
0.000467927
0.000219487
0.0025224
0.000605961
0.00340914
0.0053827
0.00669894
0.00725732
0.00775562
0.00759095
0.00710554
0.00672057
0.00629797
0.00617723
0.00660279
0.00686714
0.00681463
0.00664689
0.00548486
0.00385716
0.00155136
0.00130826
0.00112333
0.0013044
0.00363326
0.00564332
0.00675125
0.00692524
0.00731026
0.00707515
0.006666
0.00633268
0.00617977
0.005958
0.00606359
0.00639506
0.00656125
0.0063062
0.00535342
0.00377147
0.00181417
0.000505911
0.000294901
0.0015651
0.00399842
0.00557337
0.00613577
0.00656698
0.00671872
0.00676092
0.00624709
0.00600138
0.0058992
0.00563101
0.00586611
0.0058759
0.00594527
0.00557502
0.00505499
0.00378659
0.00175003
4.6901e-05
0.000446985
0.0020312
0.00359246
0.00464253
0.005354
0.00588143
0.00572602
0.00570425
0.0052581
0.00523272
0.00468881
0.00469382
0.00498013
0.00495646
0.00508968
0.00497932
0.00423692
0.00318403
0.00176308
0.000393912
0.000448855
0.00185019
0.00322659
0.00397693
0.00463297
0.00478944
0.00483603
0.00495252
0.00441606
0.00434903
0.00428083
0.00396712
0.00422008
0.00407654
0.00425593
0.00407628
0.00349258
0.00271311
0.00165587
0.000521665
0.000672908
0.00134661
0.00223147
0.0030998
0.00352134
0.00362944
0.00361061
0.00325732
0.00335727
0.00321732
0.00302773
0.00289205
0.00296044
0.00301413
0.0030304
0.0029822
0.00260905
0.0018541
0.00131542
0.000492693
0.000607035
0.00099388
0.00144156
0.00187578
0.00215139
0.00211808
0.00206145
0.00232074
0.00180783
0.00216565
0.00172939
0.00183681
0.00186395
0.00213017
0.00188741
0.00157055
0.00172244
0.00110842
0.000868023
0.000201345
5.78999e-05
0.000561446
0.00034051
0.000511764
0.000782428
0.000599106
0.000727064
0.000916583
0.000547206
0.00058919
0.000271588
0.000929722
0.000583028
0.000686294
0.000591911
0.0007561
0.000739126
0.000262047
0.000398834
0.000221285
0.00183245
0.00116974
0.00394635
0.00578659
0.00735907
0.00790381
0.00835074
0.00792966
0.00779993
0.00754856
0.00703025
0.00704318
0.00691034
0.00724328
0.00713982
0.00673039
0.00570855
0.0040303
0.00150039
0.000920931
0.00066297
0.00190659
0.00413006
0.00567764
0.00707045
0.00785205
0.00791915
0.00761052
0.0074615
0.00703545
0.00671341
0.00645135
0.00663992
0.00678987
0.00670499
0.00656726
0.00548279
0.00381647
0.00204579
5.60648e-06
0.000299344
0.00211378
0.00413341
0.00570332
0.00659532
0.00718078
0.0073486
0.00710407
0.00681421
0.00623031
0.00602174
0.00616677
0.00606568
0.00618004
0.00623632
0.0056759
0.00520089
0.00390509
0.002157
0.0004644
0.00071212
0.00239848
0.00361462
0.00485434
0.00579563
0.00611491
0.00620033
0.0060982
0.00596351
0.00563134
0.00537314
0.00500639
0.00510277
0.00560744
0.00550701
0.00513324
0.00436504
0.00331225
0.00204588
0.000651283
0.00109199
0.00213304
0.00303675
0.00418063
0.00476312
0.00506325
0.00525282
0.00517433
0.00456739
0.00447083
0.00428527
0.0041987
0.00424232
0.00417377
0.00405776
0.00406175
0.00388888
0.00290554
0.00171016
0.000813313
0.000590468
0.00176223
0.00241803
0.0033233
0.00381637
0.00367884
0.00353636
0.00365368
0.00351556
0.00330769
0.00305014
0.00296575
0.00320419
0.00304384
0.00305801
0.00314491
0.00256639
0.00206408
0.00133259
0.000446776
0.000572195
0.00115552
0.00120269
0.00195448
0.00221818
0.00213366
0.00240475
0.00225188
0.00208126
0.00215234
0.00171048
0.00196567
0.0018786
0.00210078
0.00201046
0.0019561
0.00186007
0.00136255
0.000855475
0.000541744
0.000249059
0.000751116
0.00039699
0.000579862
0.000629236
0.00106899
0.00084965
0.000807546
0.000602257
0.000607003
0.000878373
0.00075853
0.00065857
0.000456108
0.00053994
0.000662071
0.000625563
0.000390561
0.000430969
0.000141416
0.000399938
0.00188887
0.00457639
0.00660811
0.00804282
0.00875454
0.00909102
0.00920173
0.00872132
0.00820944
0.00796368
0.00784043
0.00770351
0.00787153
0.0075699
0.00719956
0.00622461
0.00430545
0.00192238
0.000435408
0.000140754
0.00257073
0.00495839
0.00676409
0.00783789
0.00850456
0.00855371
0.00856791
0.00819785
0.00784732
0.00761647
0.00743802
0.00729863
0.00743108
0.00732945
0.00688327
0.00581157
0.00432236
0.00245622
9.95331e-05
0.000777725
0.0027323
0.0047899
0.0060967
0.00719407
0.00771314
0.00781955
0.00765957
0.00742009
0.00721945
0.00682864
0.00672356
0.00673143
0.00659627
0.00664615
0.00621913
0.00539033
0.00412315
0.00264817
0.000895832
0.00112857
0.00280811
0.004427
0.00544812
0.00654039
0.00675756
0.00688611
0.00679714
0.006379
0.00596879
0.00609028
0.00606899
0.00597182
0.00571177
0.00599184
0.00546459
0.00474625
0.00353796
0.00228589
0.00109276
0.00129806
0.00222943
0.00392572
0.00458345
0.00541828
0.0054334
0.0056126
0.00550621
0.00530574
0.00510449
0.00492291
0.00483036
0.00435892
0.00487849
0.00473588
0.00449453
0.00406495
0.0031647
0.00197739
0.000971578
0.00116059
0.00185603
0.00286789
0.00349768
0.0039106
0.00418149
0.00432178
0.00382122
0.00387425
0.00389215
0.00354854
0.00354376
0.00359862
0.00358249
0.00354711
0.00327136
0.00290657
0.00242601
0.00160486
0.00103058
0.000778826
0.00110062
0.00186472
0.00222073
0.00249747
0.00251919
0.00253654
0.00221491
0.00226848
0.00236853
0.00254301
0.00224196
0.00222979
0.00232568
0.00198477
0.00196439
0.001673
0.00156974
0.00107796
0.000444783
0.000307882
0.000679561
0.00040628
0.000520149
0.000960281
0.00107933
0.000920366
0.000788557
0.000806235
0.000742829
0.000737901
0.000463184
0.000993445
0.000648841
0.000816612
0.000591551
0.000546365
0.000546021
0.000254629
0.000141826
0.000368008
0.00300049
0.00540473
0.00782484
0.00908432
0.00995627
0.0102074
0.010386
0.00997892
0.00941801
0.00921044
0.00911352
0.00906085
0.00889465
0.00862328
0.00797327
0.00686139
0.0051226
0.00302408
0.000255003
0.00144586
0.00366416
0.00599827
0.0075068
0.00878855
0.00948327
0.00957965
0.00960034
0.00943606
0.00896691
0.00872208
0.00851865
0.0086051
0.00822569
0.00799829
0.00776232
0.0065598
0.00506875
0.0030717
0.00104237
0.00174724
0.00385081
0.00583065
0.00703922
0.00801764
0.0088827
0.0085547
0.00851061
0.00851825
0.00794844
0.00800137
0.00771082
0.0078118
0.00744679
0.00747605
0.00703431
0.00611674
0.00486664
0.00318637
0.0015523
0.00202067
0.00374239
0.00526419
0.00615626
0.00704997
0.00735004
0.0075483
0.00749708
0.00693683
0.00692225
0.00674868
0.00652218
0.006171
0.00662932
0.00632299
0.00605014
0.00558563
0.00447605
0.00285939
0.00160216
0.00203599
0.00293071
0.00421088
0.00499317
0.00593736
0.00599496
0.00606478
0.00614794
0.00588354
0.00568144
0.00552888
0.00540854
0.00521949
0.0052539
0.00513619
0.00496454
0.00431622
0.00348248
0.00256859
0.0013568
0.00165077
0.0026705
0.00319643
0.00408594
0.0042737
0.00444783
0.00457566
0.00441131
0.00438182
0.00405368
0.00393708
0.00403851
0.00372705
0.00387443
0.00382103
0.00356142
0.00320913
0.00255615
0.00188188
0.00111565
0.00104471
0.00160804
0.00205662
0.00219794
0.00261017
0.00276622
0.00278971
0.00277845
0.00280285
0.00268332
0.00245504
0.002446
0.00231014
0.00246918
0.00237808
0.00215207
0.00220015
0.00191186
0.00136606
0.000795446
0.000361538
0.000555338
0.000605293
0.000891729
0.00118412
0.00123161
0.00099428
0.000949645
0.00113513
0.000690961
0.000889426
0.000905457
0.000753656
0.000732153
0.000863655
0.000769763
0.000534749
0.000446974
0.000372464
0.000550762
0.00174674
0.00461321
0.00689031
0.0091526
0.0103989
0.0114254
0.0117914
0.0117735
0.0115289
0.0111601
0.0107234
0.0105959
0.0104841
0.0104312
0.00991973
0.00924115
0.00805318
0.00637852
0.00385739
0.00141084
0.00264507
0.00494057
0.0070544
0.00886459
0.0100398
0.0107442
0.010866
0.0110328
0.0106073
0.0106011
0.0099712
0.00990739
0.00991081
0.00959214
0.00933245
0.00866868
0.00746783
0.00607885
0.00423607
0.00196801
0.00287984
0.00466162
0.0065111
0.00816116
0.0089268
0.00972377
0.00975893
0.00981168
0.00947619
0.00934363
0.00914293
0.00884857
0.0087144
0.00862785
0.00828708
0.00771098
0.00719639
0.00563957
0.00381269
0.00264522
0.00280523
0.00443047
0.00588875
0.00698945
0.00788112
0.00840839
0.00849113
0.00836644
0.00826178
0.00821613
0.00786953
0.00770971
0.00742369
0.00733889
0.00703129
0.00675786
0.00604785
0.004851
0.00369746
0.00228883
0.00244881
0.00388114
0.00487508
0.00576119
0.006377
0.00702164
0.00694411
0.00706676
0.00684259
0.00646871
0.00635353
0.0061802
0.00618666
0.006096
0.00586916
0.0055778
0.00477429
0.00433229
0.00295292
0.00208994
0.00220164
0.00272185
0.00363366
0.00440048
0.00453294
0.00496707
0.00478348
0.00492984
0.00512679
0.00471766
0.00459517
0.00462923
0.00443026
0.00441131
0.00442068
0.00425368
0.00366313
0.00291109
0.00224029
0.0016482
0.00126452
0.00172357
0.00204989
0.002844
0.00270978
0.00322422
0.00324563
0.00309829
0.00303285
0.00319322
0.00296345
0.00283223
0.00275705
0.00272374
0.0024712
0.00235386
0.00219599
0.00210853
0.00134509
0.00105313
0.000297017
0.000740247
0.000779835
0.000820214
0.00110689
0.000889504
0.00100303
0.00121117
0.000830366
0.000883605
0.00101954
0.000976244
0.000953337
0.000845091
0.000887205
0.000810848
0.000931415
0.000765249
0.00066346
0.000344571
0.00377738
0.00632196
0.00862253
0.0106703
0.0123956
0.0130083
0.0132704
0.0134996
0.0133821
0.0130426
0.0129096
0.0125409
0.0123182
0.0119702
0.0114566
0.010853
0.00919706
0.00758657
0.00543184
0.00290554
0.00413783
0.00621811
0.00843401
0.0101933
0.011215
0.0120091
0.0124129
0.0123819
0.0124644
0.0120436
0.0117489
0.0115396
0.0113333
0.0110299
0.0107703
0.0099672
0.00894862
0.00737525
0.00553643
0.00346356
0.00443797
0.00607476
0.00763996
0.00950061
0.0101664
0.0108544
0.0113181
0.011244
0.0110719
0.0109413
0.01066
0.0104332
0.0102048
0.00986371
0.00954842
0.00895923
0.00816823
0.00668142
0.00507096
0.00324993
0.00453224
0.00556766
0.00721937
0.00819828
0.00887268
0.00959175
0.00952991
0.00963575
0.0092223
0.00937452
0.00899065
0.00874647
0.00874893
0.00850995
0.00843914
0.00768257
0.00697507
0.00588337
0.00453474
0.00315028
0.00361722
0.00446911
0.00583494
0.00669316
0.00720889
0.00775754
0.00778318
0.00776746
0.0075834
0.00737795
0.00736944
0.00697083
0.00696231
0.00705551
0.00673858
0.00619097
0.0055004
0.00499956
0.00376508
0.00276719
0.00269736
0.00367738
0.00433504
0.00481903
0.00542668
0.00562197
0.00570397
0.00574844
0.00554864
0.00552018
0.00558304
0.00565931
0.00542474
0.00485447
0.00492115
0.00475407
0.00425771
0.0037764
0.00307664
0.0020891
0.00194732
0.0021271
0.00298998
0.00325201
0.00326748
0.0034251
0.00345765
0.00352134
0.00374338
0.00324903
0.0035984
0.00354533
0.00311326
0.00287294
0.00298265
0.0029203
0.00267268
0.0023528
0.00165434
0.00147837
0.00069244
0.000595565
0.000931801
0.000978566
0.00126451
0.00132187
0.0011415
0.00114088
0.00107967
0.00132901
0.0010702
0.00100863
0.00121977
0.000957057
0.00115184
0.000912351
0.000659183
0.000811222
0.000639237
0.000448679
0.00561272
0.00814356
0.0106557
0.012523
0.0139993
0.0150053
0.0153079
0.0156956
0.0155711
0.0152289
0.0149853
0.014995
0.0143844
0.0141987
0.013513
0.0125502
0.0111829
0.00918071
0.00680653
0.00469553
0.00610098
0.00798132
0.0101055
0.0120072
0.0131337
0.0139458
0.0142345
0.0143407
0.0141001
0.0140624
0.0137243
0.0135668
0.0133726
0.012944
0.0125324
0.0113638
0.0103604
0.00902706
0.00676327
0.00500605
0.00602146
0.00763252
0.00936883
0.0104438
0.0118083
0.0123961
0.0126855
0.012812
0.0128686
0.0125341
0.0120763
0.0121296
0.0119856
0.0115667
0.0110212
0.0106034
0.00927422
0.00822877
0.00648879
0.00486084
0.00548899
0.00677107
0.00834045
0.00945657
0.01001
0.010764
0.0108522
0.0109727
0.0106762
0.0105879
0.0106671
0.0104231
0.0100922
0.009773
0.00919803
0.00910211
0.00816716
0.00725318
0.00573345
0.00437109
0.00439314
0.00547987
0.00683218
0.00766683
0.00848281
0.00856072
0.00884581
0.00869679
0.00869127
0.0087145
0.00837627
0.00841159
0.00827174
0.00786421
0.00737674
0.00729483
0.00663645
0.00580523
0.0047918
0.00368005
0.00362854
0.0040633
0.00493603
0.00569117
0.00606104
0.00633281
0.00631645
0.00652122
0.00642166
0.00641878
0.00610172
0.00617215
0.00590798
0.00595037
0.00563351
0.00512712
0.00485547
0.00441246
0.00347623
0.00271878
0.00220411
0.00262376
0.00308463
0.00329964
0.00367868
0.00408566
0.00398122
0.00390514
0.00385651
0.00380608
0.00402063
0.00394542
0.00384565
0.00374529
0.00328198
0.00338367
0.00297083
0.00231715
0.00189135
0.00202588
0.000818494
0.000906751
0.00104644
0.00104976
0.00150189
0.00114268
0.0014673
0.00161339
0.00134418
0.00137658
0.00151519
0.00112828
0.00136712
0.001194
0.00114803
0.00124664
0.00122457
0.0010938
0.000882394
0.000626245
0.00798854
0.0102997
0.0127637
0.0147154
0.0161428
0.0171005
0.0176348
0.0177638
0.0178477
0.0175688
0.0171881
0.0170753
0.016482
0.0164077
0.0154685
0.0145426
0.0133066
0.0111547
0.00922962
0.00657003
0.00802204
0.00996253
0.0120791
0.0137117
0.0148335
0.0158362
0.0162415
0.0163431
0.0161754
0.016168
0.0160346
0.0155676
0.0154603
0.0150072
0.0142326
0.0135975
0.0123655
0.0106557
0.00881219
0.00668109
0.00771212
0.00943583
0.0108771
0.0124851
0.0131656
0.0139843
0.0146026
0.0144859
0.0144397
0.0143744
0.0141112
0.0138145
0.0138324
0.0131876
0.0126723
0.0117616
0.0107652
0.00934571
0.0082199
0.00623391
0.00684261
0.00808035
0.00971179
0.0105874
0.0115892
0.0121336
0.0123399
0.0121649
0.0120886
0.0121771
0.0121243
0.0118465
0.011405
0.0113867
0.0109734
0.0100838
0.00947738
0.00796789
0.00713509
0.00581193
0.00558424
0.00696563
0.00783683
0.00883022
0.00942719
0.00975141
0.0100778
0.0101727