/*--------------------------------*- C++ -*----------------------------------*\
| =========                 |                                                 |
| \\      /  F ield         | OpenFOAM: The Open Source CFD Toolbox           |
|  \\    /   O peration     | Version:  2212                                  |
|   \\  /    A nd           | Website:  www.openfoam.com                      |
|    \\/     M anipulation  |                                                 |
\*---------------------------------------------------------------------------*/
FoamFile
{
    version     2.0;
    format      ascii;
    arch        "LSB;label=32;scalar=64";
    class       volScalarField;
    location    "0";
    object      stateMean;
}
// * * * * * * * * * * * * * * * * * * * * * * * * * * * * * * * * * * * * * //

dimensions      [0 0 0 1 0 0 0];

internalField   nonuniform List<scalar> 
3200
(
329.605
328.498
327.59
327.126
326.882
326.706
326.796
326.951
326.963
326.996
326.888
326.784
326.648
326.373
326.148
325.931
326.148
326.41
327.256
328.214
325.187
324.326
323.52
323.127
322.886
322.858
322.846
322.973
322.998
323.058
323.038
322.953
322.74
322.49
322.297
322.193
322.294
322.603
323.243
324.186
320.978
320.271
319.604
319.237
319.124
319.001
319.144
319.134
319.323
319.315
319.309
319.246
319.141
318.847
318.81
318.598
318.624
318.945
319.521
320.051
316.927
316.365
315.935
315.461
315.422
315.443
315.47
315.509
315.603
315.703
315.727
315.583
315.48
315.303
315.196
315.098
315.189
315.496
315.806
316.376
312.967
312.597
312.215
312.013
311.894
311.873
311.995
312.046
312.093
312.155
312.108
312.063
311.978
311.834
311.746
311.706
311.828
311.801
312.248
312.644
309.232
308.911
308.684
308.545
308.529
308.473
308.463
308.534
308.516
308.519
308.615
308.503
308.447
308.521
308.326
308.275
308.305
308.448
308.643
308.981
305.574
305.359
305.162
305.106
304.986
305.073
305.115
305.117
305.178
305.104
305.047
305.146
305.138
305.074
305.027
304.894
304.975
305.01
305.189
305.371
301.858
301.778
301.775
301.717
301.719
301.618
301.741
301.797
301.717
301.708
301.729
301.8
301.648
301.636
301.728
301.658
301.723
301.719
301.7
301.702
329.668
328.565
327.705
327.181
326.91
326.838
326.948
327.108
327.138
327.166
327.168
327.091
326.871
326.621
326.29
326.133
326.214
326.566
327.315
328.319
325.153
324.384
323.562
323.114
322.858
322.896
322.975
323.138
323.25
323.274
323.234
323.216
323.003
322.796
322.565
322.405
322.389
322.784
323.392
324.202
320.979
320.298
319.742
319.304
319.101
319.176
319.185
319.33
319.358
319.443
319.475
319.359
319.251
319.007
318.842
318.779
318.782
319.079
319.555
320.149
316.911
316.488
315.965
315.672
315.485
315.534
315.64
315.66
315.73
315.736
315.721
315.733
315.542
315.439
315.312
315.127
315.261
315.529
315.811
316.446
313.031
312.607
312.324
312.053
311.958
311.935
312.004
312.053
312.125
312.165
312.173
312.128
312.04
311.89
311.79
311.793
311.648
311.844
312.318
312.647
309.21
308.933
308.755
308.514
308.531
308.495
308.466
308.607
308.628
308.658
308.673
308.641
308.516
308.524
308.451
308.372
308.357
308.565
308.737
308.96
305.512
305.29
305.248
305.055
305.047
305.104
305.121
305.073
305.145
305.238
305.227
305.207
305.118
305.042
305.077
304.971
305.051
305.014
305.222
305.384
301.868
301.872
301.778
301.679
301.721
301.701
301.717
301.734
301.712
301.791
301.77
301.698
301.626
301.681
301.655
301.736
301.653
301.752
301.693
301.816
329.851
328.695
327.897
327.277
327.135
327.018
327.252
327.338
327.518
327.49
327.585
327.521
327.222
326.921
326.675
326.425
326.586
326.861
327.594
328.52
325.294
324.46
323.828
323.359
323.147
323.211
323.188
323.416
323.483
323.557
323.561
323.529
323.254
323.03
322.796
322.657
322.712
322.929
323.635
324.437
321.188
320.457
319.886
319.391
319.363
319.337
319.496
319.599
319.611
319.572
319.759
319.716
319.473
319.256
319.114
318.985
319.007
319.191
319.782
320.364
317.073
316.516
316.052
315.815
315.602
315.627
315.762
315.818
315.879
316.002
315.992
315.953
315.783
315.681
315.518
315.342
315.471
315.619
316.036
316.511
313.166
312.727
312.407
312.145
312.086
312.11
312.151
312.228
312.268
312.317
312.427
312.292
312.24
312.119
311.954
311.982
311.959
312.112
312.445
312.795
309.366
309.047
308.855
308.632
308.656
308.61
308.632
308.693
308.746
308.815
308.761
308.69
308.685
308.583
308.528
308.507
308.495
308.609
308.754
309.065
305.612
305.361
305.258
305.165
305.14
305.106
305.189
305.262
305.235
305.182
305.246
305.239
305.269
305.055
305.131
304.984
305.113
305.072
305.267
305.433
301.888
301.821
301.734
301.79
301.763
301.699
301.766
301.768
301.715
301.762
301.801
301.724
301.701
301.758
301.732
301.685
301.746
301.697
301.791
301.778
330.223
329.2
328.256
327.734
327.506
327.535
327.662
327.842
327.976
328.111
328.085
327.99
327.752
327.418
327.1
326.893
327.012
327.318
328.051
329.057
325.659
324.828
324.118
323.653
323.536
323.535
323.655
323.72
323.906
323.981
324.004
323.907
323.737
323.435
323.226
323.016
323.083
323.372
323.978
324.752
321.422
320.71
320.132
319.759
319.684
319.662
319.716
319.845
319.973
320.1
320.085
320.007
319.847
319.684
319.394
319.337
319.383
319.592
320.108
320.672
317.225
316.796
316.273
315.959
315.909
315.97
315.986
316.097
316.156
316.254
316.275
316.235
316.152
315.976
315.856
315.697
315.672
315.886
316.261
316.756
313.359
312.908
312.495
312.358
312.271
312.238
312.346
312.464
312.503
312.582
312.556
312.518
312.515
312.317
312.215
312.045
312.138
312.309
312.672
312.971
309.5
309.183
308.959
308.785
308.783
308.731
308.805
308.825
308.935
308.936
308.936
308.945
308.887
308.692
308.738
308.579
308.605
308.786
309.046
309.24
305.65
305.47
305.386
305.167
305.252
305.264
305.224
305.211
305.301
305.381
305.412
305.323
305.362
305.253
305.242
305.136
305.218
305.254
305.396
305.538
301.84
301.861
301.757
301.703
301.815
301.707
301.725
301.824
301.779
301.875
301.83
301.74
301.799
301.698
301.784
301.763
301.75
301.741
301.753
301.823
330.597
329.703
328.739
328.249
328.041
328.016
328.241
328.343
328.579
328.626
328.745
328.573
328.327
328.029
327.816
327.601
327.623
327.953
328.692
329.66
326.05
325.273
324.502
324.159
323.979
323.996
324.069
324.23
324.402
324.485
324.517
324.433
324.282
324.038
323.751
323.637
323.62
323.938
324.557
325.284
321.719
321.066
320.553
320.183
320.032
319.998
320.07
320.314
320.376
320.469
320.467
320.461
320.273
320.086
319.872
319.697
319.789
319.968
320.565
321.12
317.518
317.059
316.563
316.317
316.207
316.168
316.299
316.458
316.552
316.696
316.616
316.673
316.528
316.296
316.137
316.057
316.082
316.287
316.692
317.107
313.516
313.194
312.684
312.643
312.541
312.46
312.547
312.714
312.764
312.818
312.921
312.847
312.734
312.586
312.486
312.445
312.447
312.551
312.81
313.227
309.545
309.271
309.085
308.88
308.918
308.971
308.953
308.994
309.104
309.138
309.172
309.129
309.05
308.996
308.955
308.776
308.825
308.933
309.087
309.352
305.7
305.607
305.387
305.229
305.326
305.302
305.39
305.386
305.374
305.477
305.515
305.398
305.442
305.448
305.317
305.266
305.349
305.289
305.496
305.716
301.899
301.89
301.872
301.774
301.78
301.769
301.787
301.863
301.757
301.819
301.838
301.77
301.702
301.782
301.772
301.749
301.833
301.79
301.853
301.84
331.258
330.326
329.46
328.885
328.752
328.69
328.846
328.992
329.238
329.32
329.4
329.323
329.073
328.877
328.449
328.386
328.381
328.699
329.488
330.286
326.58
325.855
325.13
324.689
324.5
324.454
324.669
324.781
325.009
325.037
325.165
325.06
324.83
324.67
324.434
324.258
324.374
324.623
325.313
325.92
322.2
321.499
321.004
320.523
320.448
320.447
320.564
320.748
320.868
320.999
321.067
320.968
320.789
320.655
320.431
320.355
320.378
320.665
320.995
321.594
317.935
317.494
316.918
316.676
316.545
316.52
316.623
316.807
316.956
317.003
317.082
317.063
316.819
316.749
316.667
316.535
316.549
316.719
317.059
317.58
313.822
313.404
313.043
312.79
312.737
312.799
312.836
313.045
313.05
313.178
313.22
313.158
313.072
312.891
312.83
312.776
312.725
312.971
313.197
313.521
309.782
309.528
309.321
309.081
309.086
309.035
309.087
309.149
309.32
309.248
309.33
309.312
309.219
309.235
309.073
309.121
309.139
309.222
309.393
309.612
305.87
305.637
305.547
305.423
305.453
305.426
305.513
305.458
305.525
305.633
305.604
305.586
305.51
305.46
305.375
305.449
305.46
305.5
305.633
305.768
301.9
301.963
301.815
301.798
301.841
301.815
301.772
301.791
301.86
301.841
301.869
301.924
301.824
301.845
301.917
301.872
301.794
301.884
301.862
301.914
331.962
330.984
330.22
329.73
329.424
329.435
329.518
329.771
329.986
330.139
330.191
330.105
329.844
329.634
329.356
329.186
329.284
329.562
330.344
331.153
327.266
326.45
325.779
325.381
325.151
325.081
325.231
325.426
325.55
325.811
325.804
325.721
325.574
325.343
325.175
324.966
325.065
325.35
325.919
326.677
322.652
322.144
321.539
321.141
320.96
320.987
321.048
321.242
321.432
321.594
321.684
321.6
321.341
321.204
321.066
321.002
321.004
321.154
321.646
322.225
318.331
317.833
317.371
317.108
317.019
316.999
317.096
317.277
317.375
317.542
317.572
317.536
317.392
317.245
317.085
317.002
317.053
317.234
317.585
318.052
314.064
313.75
313.306
313.155
313.113
313.076
313.176
313.345
313.432
313.506
313.553
313.578
313.47
313.286
313.187
313.102
313.244
313.33
313.602
314.023
310.025
309.728
309.554
309.414
309.296
309.289
309.336
309.364
309.485
309.583
309.643
309.589
309.487
309.444
309.377
309.326
309.303
309.422
309.694
309.892
305.982
305.852
305.66
305.495
305.572
305.548
305.67
305.587
305.691
305.76
305.765
305.786
305.653
305.707
305.592
305.614
305.679
305.556
305.725
305.881
301.956
301.983
301.871
301.783
301.818
301.811
301.908
301.875
301.867
301.914
301.899
301.913
301.963
301.951
301.892
301.897
301.911
301.846
301.949
301.987
332.744
331.92
331.018
330.554
330.264
330.237
330.256
330.608
330.721
330.94
330.976
330.991
330.658
330.465
330.275
330.154
330.28
330.714
331.347
332.083
327.924
327.183
326.466
326.013
325.82
325.753
325.941
326.142
326.266
326.379
326.516
326.447
326.261
326.104
325.889
325.821
325.874
326.186
326.761
327.381
323.3
322.654
322.071
321.718
321.589
321.553
321.628
321.789
321.968
322.152
322.214
322.146
321.992
321.848
321.698
321.634
321.629
321.898
322.437
322.887
318.742
318.293
317.997
317.517
317.458
317.435
317.525
317.649
317.887
317.966
317.978
318.003
317.829
317.66
317.669
317.535
317.6
317.804
318.188
318.626
314.462
314.174
313.713
313.557
313.535
313.464
313.518
313.667
313.783
313.825
313.94
313.837
313.802
313.742
313.702
313.568
313.597
313.772
313.99
314.313
310.314
309.982
309.829
309.701
309.587
309.561
309.613
309.713
309.779
309.921
309.953
309.925
309.865
309.776
309.661
309.602
309.663
309.749
310.021
310.184
306.165
306.021
305.894
305.767
305.699
305.734
305.758
305.77
305.929
305.912
305.926
305.887
305.946
305.811
305.777
305.79
305.789
305.847
305.98
306.114
302.041
302.011
301.98
301.889
301.891
301.935
301.929
301.932
301.95
302.033
301.94
301.942
301.962
301.999
301.983
301.954
301.936
301.939
301.912
302.06
333.713
332.729
331.957
331.403
331.136
331.103
331.267
331.351
331.629
331.812
331.994
331.726
331.631
331.492
331.204
331.188
331.278
331.685
332.335
333.164
328.704
327.897
327.281
326.812
326.618
326.481
326.618
326.774
326.979
327.197
327.251
327.236
327.074
326.945
326.706
326.746
326.856
327.15
327.628
328.319
323.839
323.226
322.751
322.367
322.179
322.187
322.246
322.385
322.681
322.829
322.791
322.739
322.594
322.469
322.402
322.24
322.439
322.635
323.189
323.671
319.361
318.863
318.454
318.103
318.023
318.036
318.046
318.196
318.282
318.483
318.521
318.57
318.41
318.366
318.182
318.103
318.118
318.463
318.798
319.156
314.823
314.543
314.227
314.054
313.937
313.919
313.922
314.099
314.15
314.231
314.308
314.278
314.217
314.059
314.071
314.015
314.065
314.193
314.536
314.833
310.479
310.364
310.09
309.928
309.947
309.758
309.817
310.003
310.039
310.101
310.124
310.099
310.095
310.044
309.965
309.971
309.987
310.152
310.359
310.525
306.284
306.221
306.027
305.928
305.97
305.861
305.986
305.92
305.957
306.061
306.063
306.19
305.97
305.979
306.032
305.928
306.032
306.056
306.209
306.273
302.092
302.103
301.98
302.017
301.971
301.921
301.91
301.968
302.015
302.027
302.062
302.082
301.949
301.983
301.976
302.031
301.969
301.977
302.008
302.075
334.631
333.708
332.923
332.423
332.142
332.106
332.075
332.243
332.485
332.655
332.797
332.795
332.573
332.373
332.254
332.159
332.389
332.773
333.392
334.226
329.465
328.768
328.131
327.608
327.38
327.453
327.445
327.619
327.823
327.969
328.019
328.057
327.952
327.747
327.574
327.526
327.703
328.086
328.6
329.261
324.579
324.06
323.38
322.985
322.919
322.89
322.941
323.008
323.234
323.345
323.378
323.434
323.299
323.215
323.092
323.102
323.153
323.449
324
324.468
319.798
319.359
318.949
318.708
318.576
318.498
318.629
318.704
318.894
318.927
319.102
319.075
318.936
318.876
318.751
318.696
318.838
319.08
319.445
319.815
315.313
314.924
314.559
314.397
314.264
314.286
314.333
314.349
314.556
314.597
314.618
314.698
314.581
314.573
314.454
314.44
314.55
314.721
314.986
315.29
310.804
310.632
310.406
310.189
310.111
310.128
310.179
310.327
310.322
310.379
310.438
310.467
310.419
310.365
310.315
310.279
310.342
310.523
310.642
310.86
306.417
306.32
306.213
306.112
306.059
306.099
306.145
306.087
306.26
306.16
306.293
306.251
306.227
306.124
306.17
306.237
306.159
306.315
306.359
306.541
302.194
302.049
302.126
302.084
302.014
302.079
302.05
302
302.117
302.107
302.203
302.001
302.101
302.063
302.081
302.021
302.016
302.15
302.098
302.278
335.605
334.713
333.923
333.453
333.073
333.028
333.002
333.244
333.36
333.483
333.657
333.615
333.587
333.374
333.284
333.284
333.479
333.895
334.602
335.3
330.347
329.595
328.982
328.599
328.264
328.126
328.211
328.402
328.513
328.687
328.794
328.848
328.723
328.585
328.506
328.431
328.663
329.085
329.549
330.126
325.255
324.743
324.188
323.785
323.603
323.513
323.549
323.703
323.851
324.068
324.136
324.062
324.041
323.93
323.821
323.902
323.948
324.263
324.729
325.201
320.42
319.943
319.635
319.326
319.112
319.093
319.14
319.233
319.32
319.45
319.533
319.628
319.553
319.33
319.288
319.324
319.483
319.732
320.056
320.439
315.657
315.378
315.156
314.864
314.748
314.718
314.716
314.788
315.014
315.062
315.121
315.13
315.083
315.058
315.036
314.969
314.956
315.198
315.511
315.745
311.219
310.889
310.731
310.499
310.394
310.483
310.569
310.566
310.633
310.711
310.791
310.804
310.706
310.722
310.676
310.603
310.734
310.841
311.023
311.264
306.661
306.502
306.516
306.315
306.263
306.317
306.259
306.327
306.393
306.379
306.515
306.428
306.441
306.352
306.355
306.344
306.344
306.467
306.594
306.671
302.215
302.069
302.186
302.141
302.136
302.012
302.086
302.106
302.173
302.174
302.092
302.126
302.151
302.205
302.172
302.126
302.127
302.188
302.166
302.247
336.453
335.788
335.014
334.466
334.117
334.004
334.003
334.057
334.284
334.49
334.573
334.581
334.562
334.414
334.403
334.401
334.595
335.105
335.776
336.464
331.222
330.506
329.827
329.346
329.107
328.995
329.076
329.15
329.33
329.476
329.553
329.582
329.572
329.449
329.385
329.424
329.662
330.038
330.544
331.236
326.056
325.492
324.915
324.588
324.329
324.252
324.299
324.419
324.545
324.635
324.763
324.773
324.722
324.699
324.6
324.647
324.819
325.133
325.52
326.018
321.064
320.584
320.14
319.894
319.623
319.629
319.656
319.739
319.913
320.065
320.026
320.013
320.005
320.034
319.876
319.969
320.119
320.426
320.752
321.076
316.195
315.946
315.469
315.324
315.122
315.176
315.172
315.249
315.343
315.423
315.48
315.494
315.612
315.405
315.397
315.415
315.488
315.71
316.026
316.298
311.471
311.287
311.013
310.863
310.779
310.737
310.73
310.917
310.923
310.928
311.035
311.026
310.987
310.961
310.935
310.978
311.047
311.151
311.365
311.512
306.855
306.776
306.566
306.485
306.427
306.445
306.463
306.579
306.577
306.552
306.499
306.585
306.575
306.527
306.609
306.591
306.653
306.657
306.783
306.957
302.283
302.177
302.268
302.243
302.119
302.092
302.147
302.193
302.192
302.213
302.215
302.296
302.131
302.229
302.171
302.23
302.235
302.226
302.305
302.333
337.644
336.852
336.16
335.467
335.163
334.983
334.999
335.022
335.218
335.438
335.508
335.511
335.471
335.444
335.434
335.539
335.793
336.256
336.844
337.682
332.035
331.38
330.707
330.314
329.993
329.861
329.917
329.981
330.087
330.27
330.351
330.392
330.313
330.368
330.355
330.335
330.629
331.017
331.577
332.169
326.786
326.166
325.605
325.301
325.07
324.87
325.052
325.127
325.168
325.377
325.36
325.433
325.356
325.416
325.331
325.392
325.603
325.921
326.384
326.85
321.629
321.129
320.71
320.497
320.282
320.255
320.251
320.317
320.533
320.557
320.613
320.667
320.745
320.548
320.586
320.604
320.681
320.964
321.413
321.764
316.62
316.379
316.028
315.838
315.596
315.631
315.657
315.668
315.78
315.858
315.907
315.931
315.963
315.914
315.904
315.905
316.053
316.259
316.494
316.836
311.787
311.499
311.375
311.138
311.121
311.105
311.099
311.178
311.206
311.319
311.355
311.314
311.392
311.318
311.301
311.343
311.412
311.575
311.745
311.955
307.055
306.9
306.786
306.767
306.665
306.64
306.653
306.674
306.678
306.721
306.791
306.788
306.818
306.752
306.76
306.806
306.767
306.83
306.974
307.131
302.361
302.308
302.301
302.222
302.143
302.136
302.214
302.234
302.182
302.318
302.258
302.251
302.293
302.294
302.248
302.268
302.33
302.349
302.363
302.303
338.75
337.867
337.204
336.55
336.239
335.994
335.96
336.041
336.176
336.328
336.477
336.493
336.479
336.423
336.506
336.632
336.924
337.378
338.124
338.864
332.986
332.296
331.686
331.18
330.883
330.738
330.776
330.785
330.973
330.997
331.208
331.207
331.16
331.202
331.21
331.342
331.647
332.011
332.531
333.212
327.549
327.027
326.5
326.041
325.872
325.686
325.741
325.778
325.927
325.99
326.056
326.133
326.139
326.113
326.159
326.272
326.358
326.787
327.306
327.626
322.298
321.824
321.418
321.131
320.91
320.802
320.829
320.914
320.98
321.011
321.123
321.159
321.22
321.202
321.247
321.273
321.435
321.754
322.061
322.465
317.204
316.788
316.522
316.294
316.15
315.994
316.062
316.057
316.153
316.285
316.321
316.364
316.337
316.332
316.36
316.404
316.608
316.695
317.083
317.318
312.124
311.989
311.741
311.539
311.535
311.434
311.522
311.501
311.457
311.594
311.632
311.613
311.657
311.638
311.605
311.623
311.77
311.967
312.14
312.297
307.293
307.168
307.089
306.868
306.932
306.795
306.806
306.866
306.897
306.853
306.924
306.959
306.971
306.967
307.026
307.042
307.067
307.071
307.284
307.358
302.482
302.354
302.349
302.345
302.266
302.339
302.31
302.252
302.371
302.357
302.315
302.327
302.331
302.358
302.34
302.356
302.311
302.353
302.377
302.468
339.751
338.965
338.282
337.687
337.199
337.083
337.076
337.063
337.15
337.291
337.336
337.437
337.467
337.52
337.613
337.725
338.19
338.635
339.269
340.048
333.939
333.312
332.657
332.156
331.901
331.715
331.651
331.719
331.731
331.894
331.993
332.042
332.071
332.115
332.131
332.319
332.574
333.012
333.541
334.166
328.257
327.776
327.333
326.795
326.65
326.491
326.398
326.471
326.563
326.624
326.717
326.774
326.815
326.879
326.922
327.048
327.235
327.649
328.107
328.648
322.732
322.443
321.968
321.713
321.554
321.378
321.447
321.452
321.614
321.58
321.704
321.769
321.74
321.778
321.752
321.941
322.109
322.401
322.778
323.18
317.601
317.365
316.977
316.752
316.635
316.504
316.534
316.57
316.65
316.728
316.731
316.846
316.827
316.766
316.829
316.959
317.132
317.243
317.59
317.872
312.517
312.236
312.062
311.945
311.79
311.759
311.762
311.769
311.848
311.865
311.845
311.813
311.871
312.028
311.979
312.001
312.121
312.237
312.424
312.707
307.411
307.371
307.125
307.065
307.08
307.052
307.058
307.052
306.992
307.15
307.042
307.054
307.178
307.238
307.188
307.187
307.244
307.321
307.516
307.556
302.473
302.508
302.412
302.405
302.325
302.315
302.374
302.38
302.401
302.328
302.406
302.423
302.356
302.43
302.366
302.432
302.501
302.448
302.495
302.547
340.926
340.134
339.365
338.819
338.403
338.143
338.113
338.038
338.123
338.261
338.345
338.321
338.488
338.494
338.655
338.901
339.279
339.871
340.593
341.24
334.827
334.258
333.622
333.063
332.762
332.563
332.528
332.544
332.661
332.693
332.807
332.841
332.87
332.964
333.039
333.359
333.618
333.986
334.668
335.196
329.033
328.553
328.046
327.759
327.374
327.242
327.2
327.201
327.212
327.339
327.491
327.457
327.475
327.571
327.697
327.773
328.146
328.423
328.932
329.417
323.478
323.103
322.647
322.342
322.217
322.022
322.038
322.034
322.155
322.197
322.171
322.238
322.321
322.389
322.532
322.512
322.761
323.001
323.441
323.841
318.171
317.858
317.468
317.245
317.028
317.042
316.986
317.061
317.082
317.084
317.193
317.171
317.197
317.3
317.421
317.408
317.574
317.796
318.077
318.399
312.808
312.695
312.451
312.246
312.16
312.104
312.134
312.089
312.135
312.142
312.242
312.213
312.282
312.249
312.324
312.454
312.508
312.615
312.88
313.093
307.681
307.566
307.442
307.394
307.296
307.188
307.235
307.27
307.294
307.314
307.248
307.267
307.289
307.308
307.436
307.387
307.496
307.678
307.792
307.736
302.552
302.53
302.494
302.499
302.368
302.483
302.39
302.349
302.434
302.425
302.383
302.499
302.424
302.472
302.481
302.445
302.446
302.48
302.538
302.61
342.004
341.277
340.512
339.925
339.515
339.261
339.142
339.149
339.158
339.273
339.404
339.425
339.592
339.566
339.824
340.068
340.411
341.067
341.646
342.493
335.803
335.206
334.561
334.083
333.775
333.502
333.421
333.433
333.521
333.541
333.586
333.728
333.732
333.84
334.045
334.194
334.539
335.043
335.595
336.257
329.835
329.31
328.892
328.421
328.256
328.04
327.882
327.959
328.002
328.038
328.125
328.21
328.177
328.353
328.476
328.723
328.993
329.401
329.714
330.326
324.143
323.778
323.296
323.062
322.785
322.653
322.625
322.715
322.762
322.744
322.762
322.841
322.963
322.936
323.032
323.277
323.424
323.866
324.087
324.479
318.647
318.235
317.994
317.716
317.564
317.495
317.423
317.417
317.465
317.443
317.685
317.69
317.7
317.764
317.801
318.005
318.103
318.329
318.668
318.934
313.143
313.023
312.713
312.671
312.428
312.415
312.442
312.44
312.398
312.398
312.489
312.522
312.694
312.648
312.641
312.784
312.863
313.005
313.261
313.505
307.877
307.752
307.643
307.578
307.454
307.402
307.466
307.446
307.389
307.469
307.504
307.425
307.475
307.517
307.62
307.596
307.701
307.759
307.949
307.984
302.578
302.622
302.57
302.588
302.462
302.537
302.44
302.478
302.458
302.531
302.476
302.512
302.524
302.489
302.554
302.531
302.569
302.592
302.683
302.665
343.144
342.359
341.579
341.018
340.653
340.327
340.139
340.089
340.125
340.29
340.276
340.436
340.507
340.767
340.911
341.171
341.642
342.107
342.879
343.609
336.741
336.114
335.491
335.106
334.594
334.509
334.388
334.263
334.301
334.478
334.414
334.547
334.685
334.794
335.033
335.221
335.54
336.023
336.671
337.215
330.627
330.148
329.616
329.217
328.865
328.737
328.659
328.672
328.742
328.771
328.868
328.883
328.928
329.106
329.258
329.459
329.714
330.137
330.648
331.11
324.844
324.378
323.94
323.659
323.49
323.245
323.267
323.244
323.244
323.332
323.33
323.399
323.525
323.575
323.716
323.944
324.134
324.47
324.799
325.249
319.067
318.807
318.445
318.316
318.029
318.055
317.968
317.88
317.925
318.058
318.045
318.041
318.132
318.139
318.275
318.485
318.677
318.743
319.129
319.417
313.515
313.289
313.086
313.003
312.812
312.785
312.763
312.666
312.676
312.783
312.797
312.842
312.84
312.871
313.024
313.144
313.254
313.349
313.661
313.875
308.1
307.978
307.823
307.819
307.698
307.624
307.623
307.681
307.618
307.672
307.653
307.734
307.711
307.715
307.838
307.892
307.836
307.974
308.151
308.275
302.72
302.714
302.575
302.531
302.516
302.458
302.621
302.573
302.528
302.518
302.585
302.58
302.471
302.564
302.515
302.586
302.656
302.657
302.685
302.763
344.222
343.391
342.744
342.078
341.611
341.364
341.19
341.084
341.111
341.227
341.21
341.412
341.475
341.678
341.859
342.222
342.751
343.261
343.863
344.7
337.579
336.958
336.301
335.843
335.508
335.33
335.171
335.125
335.142
335.194
335.311
335.348
335.465
335.667
335.797
336.076
336.413
336.932
337.456
338.101
331.338
330.875
330.337
329.973
329.698
329.492
329.413
329.36
329.269
329.365
329.387
329.513
329.577
329.773
329.889
330.226
330.563
330.958
331.388
331.834
325.337
324.863
324.58
324.314
323.921
323.886
323.755
323.7
323.808
323.756
323.923
323.892
323.975
324.13
324.316
324.396
324.695
325.028
325.433
325.757
319.53
319.259
318.956
318.748
318.454
318.395
318.383
318.36
318.307
318.399
318.372
318.428
318.525
318.588
318.693
318.909
319.059
319.374
319.608
319.856
313.783
313.6
313.363
313.276
313.135
313.092
313.004
313.022
312.987
313.018
313.086
313.09
313.146
313.171
313.334
313.482
313.473
313.725
313.902
314.16
308.232
308.217
308.014
307.907
307.855
307.837
307.755
307.75
307.82
307.786
307.875
307.864
307.794
307.871
307.951
308.025
308.036
308.121
308.415
308.422
302.759
302.784
302.747
302.644
302.676
302.649
302.608
302.615
302.639
302.621
302.582
302.596
302.658
302.606
302.683
302.666
302.759
302.791
302.764
302.727
344.987
344.251
343.407
342.906
342.391
342.15
341.957
341.861
341.92
342.02
341.998
342.106
342.24
342.395
342.747
343.063
343.562
344.097
344.777
345.451
338.258
337.705
337.008
336.529
336.163
335.913
335.806
335.71
335.792
335.784
335.863
335.956
336.074
336.146
336.467
336.691
337.1
337.629
338.235
338.761
331.904
331.404
330.854
330.371
330.136
330.025
329.914
329.835
329.825
329.899
329.971
330.024
330.089
330.273
330.467
330.749
330.965
331.454
331.886
332.345
325.76
325.396
324.969
324.595
324.373
324.196
324.14
324.139
324.196
324.202
324.229
324.406
324.378
324.512
324.669
324.88
325.152
325.402
325.741
326.201
319.773
319.556
319.241
318.976
318.738
318.633
318.675
318.575
318.655
318.595
318.76
318.794
318.788
318.918
318.994
319.137
319.382
319.598
319.911
320.207
314.093
313.868
313.601
313.502
313.339
313.282
313.168
313.185
313.246
313.246
313.361
313.269
313.383
313.378
313.43
313.577
313.714
314.035
314.055
314.296
308.397
308.285
308.071
308.125
308.001
308.01
307.881
307.899
307.896
307.928
307.95
307.915
308.017
308.038
308.008
308.142
308.241
308.373
308.442
308.626
302.843
302.745
302.672
302.69
302.627
302.688
302.694
302.655
302.69
302.654
302.598
302.648
302.652
302.614
302.735
302.741
302.756
302.761
302.872
302.904
)
;

boundaryField
{
    hotSide
    {
        type            fixedGradient;
        gradient        nonuniform List<scalar> 
400
(
321.511
322.87
325.591
329.677
335.133
341.965
350.181
359.788
370.794
383.208
397.037
412.289
428.971
447.088
466.647
487.651
510.105
534.011
559.372
586.191
323.738
325.08
327.767
331.802
337.194
343.949
352.078
361.591
372.498
384.81
398.537
413.687
430.268
448.289
467.755
488.672
511.043
534.872
560.161
586.913
326.149
327.47
330.116
334.091
339.406
346.071
354.099
363.503
374.296
386.491
400.101
415.136
431.606
449.52
468.885
489.706
511.988
535.735
560.948
587.63
328.704
330
332.597
336.503
341.73
348.292
356.205
365.485
376.15
388.215
401.695
416.604
432.954
450.753
470.009
490.73
512.919
536.579
561.714
588.325
331.33
332.599
335.142
338.97
344.099
350.546
358.332
367.477
378.003
389.928
403.271
418.047
434.27
451.949
471.095
491.712
513.807
537.382
562.439
588.978
333.918
335.158
337.643
341.389
346.414
352.74
360.392
369.397
379.779
391.562
404.765
419.407
435.503
453.065
472.101
492.618
514.622
538.114
563.096
589.569
336.321
337.531
339.959
343.622
348.544
354.751
362.274
371.142
381.385
393.031
406.101
420.618
436.595
454.047
472.983
493.409
515.33
538.747
563.663
590.076
338.36
339.543
341.92
345.509
350.339
356.44
363.847
372.595
382.718
394.244
407.2
421.608
437.485
454.844
473.695
494.045
515.897
539.253
564.114
590.478
339.852
341.015
343.352
346.885
351.645
357.665
364.985
373.643
383.675
395.113
407.984
422.312
438.116
455.407
474.197
494.491
516.294
539.606
564.428
590.758
340.643
341.795
344.11
347.613
352.334
358.311
365.584
374.193
384.176
395.567
408.393
422.679
438.443
455.699
474.456
494.722
516.498
539.788
564.589
590.901
340.643
341.795
344.11
347.613
352.334
358.311
365.584
374.193
384.176
395.567
408.393
422.679
438.443
455.699
474.456
494.722
516.498
539.788
564.589
590.901
339.852
341.015
343.352
346.885
351.645
357.665
364.985
373.643
383.675
395.113
407.984
422.312
438.116
455.407
474.197
494.491
516.294
539.606
564.428
590.758
338.36
339.543
341.92
345.509
350.339
356.44
363.847
372.595
382.718
394.244
407.2
421.608
437.485
454.844
473.695
494.045
515.897
539.253
564.114
590.478
336.321
337.531
339.959
343.622
348.544
354.751
362.274
371.142
381.385
393.031
406.101
420.618
436.595
454.047
472.983
493.409
515.33
538.747
563.663
590.076
333.918
335.158
337.643
341.389
346.414
352.74
360.392
369.397
379.779
391.562
404.765
419.407
435.503
453.065
472.101
492.618
514.622
538.114
563.096
589.569
331.33
332.599
335.142
338.97
344.099
350.546
358.332
367.477
378.003
389.928
403.271
418.047
434.27
451.949
471.095
491.712
513.807
537.382
562.439
588.978
328.704
330
332.597
336.503
341.73
348.292
356.205
365.485
376.15
388.215
401.695
416.604
432.954
450.753
470.009
490.73
512.919
536.579
561.714
588.325
326.149
327.47
330.116
334.091
339.406
346.071
354.099
363.503
374.296
386.491
400.101
415.136
431.606
449.52
468.885
489.706
511.988
535.735
560.948
587.63
323.738
325.08
327.767
331.802
337.194
343.949
352.078
361.591
372.498
384.81
398.537
413.687
430.268
448.289
467.755
488.672
511.043
534.872
560.161
586.913
321.511
322.87
325.591
329.677
335.133
341.965
350.181
359.788
370.794
383.208
397.037
412.289
428.971
447.088
466.647
487.651
510.105
534.011
559.372
586.191
)
;
    }
    coldSide
    {
        type            mixed;
        refValue        uniform 300;
        refGradient     uniform 0;
        valueFraction   uniform 0.991591;
        source          uniform 0;
        value           nonuniform List<scalar> 
400
(
300.016
300.016
300.016
300.015
300.016
300.016
300.016
300.017
300.018
300.018
300.019
300.019
300.02
300.021
300.021
300.021
300.022
300.023
300.023
300.024
300.015
300.016
300.015
300.016
300.016
300.017
300.017
300.017
300.018
300.017
300.017
300.018
300.019