/*--------------------------------*- C++ -*----------------------------------*\
| =========                 |                                                 |
| \\      /  F ield         | OpenFOAM: The Open Source CFD Toolbox           |
|  \\    /   O peration     | Version:  2212                                  |
|   \\  /    A nd           | Website:  www.openfoam.com                      |
|    \\/     M anipulation  |                                                 |
\*---------------------------------------------------------------------------*/
FoamFile
{
    version     2.0;
    format      ascii;
    arch        "LSB;label=32;scalar=64";
    class       volScalarField;
    location    "0";
    object      relativeErrorField;
}
// * * * * * * * * * * * * * * * * * * * * * * * * * * * * * * * * * * * * * //

dimensions      [0 0 0 1 0 0 0];

internalField   nonuniform List<scalar> 
3200
(
0.00515841
0.00872115
0.011607
0.0137702
0.0148744
0.0153634
0.0153986
0.0154874
0.0150064
0.0144236
0.0141678
0.0140046
0.0136002
0.0132574
0.0132733
0.0127128
0.0115527
0.00962343
0.00652668
0.00297046
0.00465678
0.00750495
0.0101824
0.0122327
0.0131761
0.0134686
0.0133398
0.0132451
0.013182
0.0125738
0.0126081
0.0119888
0.0118661
0.0118104
0.0116099
0.0111143
0.0102277
0.0083668
0.00564327
0.0028477
0.00402034
0.00678984
0.00897759
0.0102902
0.0113058
0.0116105
0.0115233
0.0113905
0.0113699
0.011134
0.0107975
0.0106435
0.0101564
0.010182
0.00994369
0.00927957
0.00853897
0.00732126
0.00520812
0.00244686
0.00365154
0.00548442
0.00739238
0.00876728
0.00924106
0.00964822
0.00972435
0.00956133
0.00919738
0.00906539
0.00904648
0.00885231
0.00854884
0.00853282
0.00820644
0.00796522
0.00725883
0.00588009
0.00415114
0.00230232
0.0026595
0.00432155
0.00582779
0.00668115
0.00742298
0.00766406
0.00749619
0.00780426
0.00725586
0.00717303
0.00704208
0.00651895
0.00674384
0.00651459
0.00653991
0.00626829
0.00590978
0.00459265
0.00341692
0.00181689
0.00195498
0.00322697
0.00436525
0.00476431
0.00531032
0.00556744
0.00559694
0.00560936
0.00546265
0.00527624
0.0048471
0.00524568
0.00510445
0.0048886
0.0047493
0.00444027
0.00397113
0.00313278
0.0027438
0.0015833
0.00118745
0.00186229
0.00268019
0.00289891
0.00325403
0.00346893
0.00321865
0.00326556
0.0030866
0.00307592
0.0031324
0.00307279
0.00298217
0.00277611
0.00295247
0.00263152
0.00219443
0.00217769
0.00149127
0.000718536
0.000671164
0.000780923
0.000908052
0.000867737
0.00112445
0.00123448
0.00102592
0.00122707
0.000969005
0.00119858
0.00124955
0.00094275
0.0010275
0.00108871
0.00103949
0.00120481
0.00103428
0.000714736
0.000574296
5.44291e-05
0.00531456
0.0086761
0.0118571
0.0136648
0.0147353
0.0150693
0.0149249
0.0146108
0.0140516
0.0136499
0.0132922
0.0131626
0.013096
0.0128473
0.0124421
0.0121875
0.0109567
0.0093761
0.00630083
0.00317998
0.00449314
0.00755563
0.0100103
0.0119633
0.0126208
0.0134323
0.0132537
0.0127305
0.0125222
0.0121742
0.0119669
0.0115197
0.011532
0.0114505
0.0112458
0.0106005
0.00986582
0.00835267
0.00563874
0.00292415
0.00419304
0.00628379
0.0089301
0.0103886
0.0110148
0.0115025
0.011285
0.0111629
0.0107826
0.0105142
0.0102484
0.010135
0.010047
0.00994483
0.00955614
0.00935682
0.00846657
0.00726026
0.00482051
0.0027368
0.00336806
0.00559783
0.00725084
0.00847818
0.00896616
0.00931455
0.00963074
0.00891294
0.00902758
0.00875219
0.00857786
0.00805151
0.00805691
0.00799954
0.00800921
0.0077633
0.00697377
0.00606869
0.00435422
0.00217117
0.00282992
0.00414783
0.0056845
0.00678095
0.00722489
0.00756113
0.00746783
0.00746362
0.00706726
0.00687686
0.00671051
0.00651527
0.00642835
0.00646607
0.00644011
0.00610549
0.00541145
0.00458037
0.00307896
0.00162341
0.00200844
0.00334099
0.00421641
0.00471738
0.00552432
0.0053577
0.00553843
0.00523023
0.00519598
0.00490488
0.00495121
0.00461205
0.00463096
0.00464813
0.00465646
0.00431847
0.00417449
0.00327991
0.00226188
0.00113139
0.00125126
0.00183934
0.00244197
0.00298044
0.00332091
0.00342364
0.00293381
0.00325322
0.00314892
0.00320909
0.00305071
0.00297657
0.00298331
0.00278235
0.00271975
0.00291539
0.00243194
0.00211182
0.00130545
0.000944048
0.000278103
0.00088621
0.00104955
0.00110307
0.00104689
0.000807335
0.00102267
0.00116565
0.000806722
0.00104826
0.000926945
0.00123721
0.00104249
0.00104959
0.00110705
0.000905654
0.000775702
0.000860544
0.000513003
0.000337261
0.00490012
0.00818206
0.0114816
0.0133049
0.0141102
0.0144853
0.0140571
0.0138057
0.0130676
0.0128824
0.0122762
0.0121994
0.0120599
0.0120375
0.0119907
0.0114907
0.0104406
0.00887024
0.00624592
0.002797
0.00439614
0.00744291
0.0100323
0.0117183
0.0125048
0.0126849
0.012354
0.0121296
0.0117279
0.0111417
0.0109053
0.0108395
0.0106545
0.01066
0.0103822
0.0101054
0.00930941
0.00778997
0.00539873
0.00285691
0.00400147
0.00641775
0.00848442
0.0100835
0.0108516
0.0109025
0.0107875
0.0102712
0.0101087
0.00971501
0.00933698
0.00956614
0.00906925
0.00931491
0.00917914
0.00878905
0.00804817
0.00668834
0.00480361
0.0023444
0.00344298
0.00545789
0.00711812
0.00835551
0.00894004
0.00896697
0.0091288
0.00893395
0.00833269
0.00799133
0.00783525
0.0077998
0.00767358
0.00772274
0.00763737
0.00745062
0.00669721
0.00568244
0.00386605
0.00222047
0.00272778
0.00424457
0.00565472
0.00669194
0.00701017
0.00712794
0.00703404
0.00712118
0.00675693
0.00653656
0.0063297
0.00614743
0.00595991
0.00575479
0.00599074
0.00583411
0.00540443
0.00424478
0.00326864
0.00158164
0.00204232
0.00309769
0.00421167
0.00481659
0.00492476
0.00531825
0.0051861
0.00479874
0.00506157
0.00470427
0.00453381
0.00434792
0.00439795
0.00443125
0.00428313
0.00426401
0.00383618
0.003207
0.0023798
0.0014192
0.00136737
0.00178911
0.00243533
0.00274475
0.00313361
0.00319664
0.00319946
0.00303434
0.00298413
0.00299671
0.0029089
0.00285971
0.00304592
0.00270398
0.00274149
0.00261779
0.00224836
0.00198774
0.00114131
0.000754683
0.000173554
0.000654691
0.000685644
0.000895259
0.000939904
0.00109642
0.000995821
0.00117561
0.000948429
0.00123543
0.000668779
0.000848124
0.000924273
0.000954504
0.00101155
0.000866802
0.000739001
0.000784396
0.000306323
0.000310681
0.0047003
0.00789001
0.010903
0.0125995
0.013359
0.0136535
0.0132601
0.0129113
0.0121798
0.0111779
0.0108592
0.010784
0.0107216
0.0109629
0.0108508
0.0108014
0.0100154
0.00840007
0.00554161
0.00254657
0.00414102
0.00699569
0.0097184
0.0111033
0.0117427
0.0122536
0.0118505
0.011209
0.0108117
0.0102247
0.00998776
0.009863
0.00952021
0.00942207
0.00962816
0.00947732
0.0090043
0.00729924
0.00511399
0.00234171
0.00370827
0.00623287
0.00808619
0.00956712
0.0100379
0.0104954
0.0102809
0.00988945
0.00955771
0.0089806
0.00872954
0.00832605
0.00836343
0.00815727
0.00820369
0.00817166
0.00752831
0.00632765
0.00432085
0.00211546
0.00342044
0.00514764
0.00706524
0.00801549
0.00843796
0.00860986
0.00850032
0.00829124
0.00773797
0.00730931
0.00731807
0.00681964
0.00696086
0.00693952
0.00676355
0.00688681
0.00638202
0.00540002
0.00353208
0.00168553
0.00296103
0.00413756
0.00544154
0.00616983
0.00678182
0.00674811
0.00681655
0.00664036
0.00629423
0.00588662
0.00567749
0.00552906
0.00547827
0.00558806
0.00555364
0.00529698
0.00509009
0.00423573
0.00288832
0.00144481
0.00172324
0.00320024
0.00405593
0.00481057
0.00487667
0.00516866
0.00459984
0.0047644
0.00444985
0.00419249
0.00428445
0.00434777
0.00419831
0.00407797
0.00388941
0.00387835
0.00369106
0.0029558
0.00221373
0.00102424
0.00138326
0.00176634
0.00226186
0.0027178
0.00279358
0.00295826
0.00318082
0.00271334
0.00272044
0.0026676
0.00239291
0.0025702
0.00246127
0.00264127
0.00256553
0.00257982
0.00227733
0.00170605
0.00140194
0.000503277
0.000444047
0.000718796
0.000868378
0.00119962
0.000914899
0.00101476
0.00101046
0.00117877
0.000762493
0.000990134
0.000818919
0.000718139
0.000947471
0.000826039
0.000808403
0.000771601
0.000651203
0.000770098
0.000390467
0.000432365
0.0042266
0.00728548
0.0104763
0.0117365
0.0126295
0.0126668
0.0127574
0.0117157
0.0109551
0.0103074
0.00974401
0.009713
0.00953172
0.00984177
0.0100397
0.0100156
0.00921525
0.00784835
0.00493944
0.00181167
0.00376856
0.00659724
0.00904701
0.0103221
0.011298
0.0111872
0.0111339
0.0106973
0.00998132
0.00894542
0.00886142
0.00843544
0.00850513
0.00875025
0.00896441
0.00887346
0.0081452
0.00650487
0.0044728
0.00199322
0.00345089
0.00576252
0.00783091
0.0090564
0.00966582
0.00994551
0.00938677
0.00907049
0.0083897
0.00780332
0.0075636
0.00737831
0.00739496
0.00741368
0.0076722
0.00782112
0.00696132
0.0060119
0.00389961
0.00196784
0.00302851
0.00478752
0.00638925
0.00772031
0.00795271
0.00794946
0.00782361
0.0077014
0.00697418
0.00653216
0.00627299
0.00642331
0.00645719
0.00638683
0.00651763
0.00632411
0.00588379
0.00506823
0.00345323
0.001468
0.0022125
0.00390962
0.00508593
0.0057734
0.00662245
0.00639631
0.00639468
0.00612182
0.00560987
0.0053704
0.00523318
0.00501761
0.00499444
0.00480914
0.00503654
0.00534434
0.0046408
0.00379986
0.00266003
0.00130357
0.00187133
0.00292043
0.0036317
0.00424853
0.00452577
0.00455708
0.00451737
0.00434552
0.0042028
0.00366532
0.00375321
0.00360033
0.00373947
0.00374905
0.00373658
0.00363041
0.00309316
0.00288478
0.00214913
0.001272
0.00109495
0.00170167
0.00254224
0.00268215
0.0028383
0.00294923
0.00285708
0.00276739
0.00235868
0.00215359
0.0020559
0.00249135
0.00214859
0.00248644
0.00229368
0.00200456
0.00209587
0.00186799
0.00111868
0.000771954
0.000387229
0.000491074
0.000938978
0.000910646
0.00118978
0.00105022
0.00112821
0.00103079
0.000884941
0.000827988
0.000729427
0.000555521
0.000746758
0.000800292
0.00105775
0.000861176
0.000853357
0.000546386
0.000441107
0.000326954
0.00391213
0.00679889
0.00931644
0.011346
0.0118539
0.0117345
0.0114822
0.0109319
0.00970622
0.00891174
0.00859011
0.00856304
0.00831883
0.00873534
0.00870782
0.00895314
0.00832692
0.00685437
0.00433451
0.00165404
0.00338959
0.00585485
0.00830145
0.00991063
0.0105478
0.0107061
0.0104285
0.00940669
0.00892863
0.00802317
0.00773
0.00739874
0.00754364
0.00752713
0.00811528
0.00811563
0.00716745
0.0062741
0.00385173
0.00149368
0.00301168
0.00538365
0.00724756
0.00867398
0.00903321
0.00893108
0.00898134
0.00842224
0.00770133
0.00699851
0.0067321
0.00654247
0.00641866
0.00643691
0.00701013
0.00682171
0.00641747
0.00529881
0.00331198
0.00153418
0.00259514
0.00458204
0.00631706
0.00693683
0.0074578
0.0075776
0.00730096
0.00708318
0.00642433
0.00597098
0.00587375
0.00568753
0.00550552
0.00565951
0.00572202
0.00577538
0.00544489
0.00446632
0.0029472
0.00158781
0.00233799
0.00345629
0.00464031
0.0056364
0.00611188
0.0060389
0.00577486
0.00553862
0.00518677
0.00472417
0.00448229
0.00434753
0.00424109
0.00439168
0.00452631
0.00458564
0.00421458
0.00335285
0.00239309
0.00113511
0.00158022
0.00256448
0.00364461
0.00404817
0.00416374
0.00439844
0.00446096
0.0041611
0.0037666
0.00363207
0.0032683
0.00351457
0.00307162
0.00327957
0.00364002
0.00335051
0.00317892
0.00236749
0.00143675
0.000960566
0.00111236
0.00147205
0.00206468
0.00237631
0.0027699
0.00255847
0.00255682
0.00226236
0.00259884
0.00229132
0.00217392
0.00185897
0.0017867
0.00199466
0.00194538
0.00202863
0.00173002
0.00144167
0.00122854
0.000566534
0.000295083
0.000368836
0.00106975
0.000946558
0.000805381
0.000666342
0.000884643
0.000954402
0.000718859
0.000860158
0.000737269
0.000642529
0.000593703
0.000755319
0.000682844
0.000741433
0.000727361
0.000834505
0.000458126
0.000154987
0.0029455
0.00591849
0.00855637
0.0101921
0.0112259
0.0109711
0.0106014
0.00978269
0.00876217
0.00808742
0.00754235
0.00704027
0.00737062
0.00769856
0.00793087
0.00806949
0.007397
0.00621329
0.00366165
0.000804144
0.00287657
0.00537009
0.00781444
0.00898027
0.00975324
0.00998085
0.00925604
0.00876975
0.00786662
0.00730481
0.00676766
0.00650209
0.00663631
0.00686817
0.007109
0.00701927
0.00681361
0.00532038
0.0037325
0.00110658
0.00276728
0.00484987
0.00647407
0.00790448
0.00864155
0.00843864
0.00823429
0.00773617
0.00700144
0.00621782
0.00592675
0.00574446
0.00581903
0.00600776
0.00611388
0.00637539
0.00594445
0.00452162
0.003085
0.00128995
0.00246803
0.00388799
0.00563938
0.00652541
0.0073134
0.00713566
0.00684281
0.00673759
0.00595261
0.00532209
0.00507737
0.0048105
0.0047002
0.00508188
0.0054513
0.00533824
0.00483454
0.00382318
0.00271052
0.000904578
0.00208891
0.00342235
0.00426695
0.00527814
0.00584151
0.00576827
0.00552176
0.00500249
0.00494402
0.00432258
0.00408008
0.00371515
0.00386095
0.004177
0.00417704
0.00422002
0.00404934
0.00348701
0.00205367
0.000955787
0.00141772
0.00218138
0.0031414
0.00385893
0.00411105
0.00426231
0.00410925
0.0038694
0.00338114
0.00315119
0.00273928
0.00296717
0.00281872
0.00287101
0.00306494
0.00289599
0.00263749
0.00251718
0.00143244
0.000727016
0.00102765
0.00164217
0.00178248
0.00241859
0.00237768
0.00247131
0.00261335
0.00197338
0.00201642
0.0018472
0.00198059
0.00176263
0.00183438
0.0018073
0.00177677
0.00185675
0.00194267
0.00144108
0.000776465
0.000414014
0.000214791
0.000303393
0.000605809
0.000842568
0.00104286
0.00104854
0.000815597
0.000730568
0.000690259
0.000660174
0.000567431
0.00047505
0.000614348
0.000640856
0.000531215
0.000607338
0.000655497
0.000692635
0.000133876
0.000119625
0.00275821
0.00522118
0.00793688
0.00963134
0.0102639
0.0102104
0.0100855
0.00889331
0.00816876
0.00713072
0.00644005
0.00607405
0.00633566
0.0067397
0.00720625
0.0074829
0.00689843
0.00562288
0.00306249
0.000438394
0.00268746
0.00488635
0.00704122
0.00863432
0.00920831
0.00908581
0.0088831
0.0080575
0.00713917
0.00632534
0.00579194
0.00581234
0.00588302
0.00639855
0.0067268
0.00656241
0.00634404
0.00484113
0.0030956
0.000630517
0.00231516
0.00434017
0.00618561
0.00720223
0.00792488
0.00804077
0.00764617
0.00737166
0.0063762
0.00562177
0.00516481
0.00488927
0.00521898
0.00531461
0.00575859
0.0058027
0.00535174
0.0042428
0.00269126
0.000891533
0.00238489
0.00379231
0.00497459
0.00635753
0.00640211
0.00686334
0.00643093
0.00607829
0.00552609
0.00479568
0.00439719
0.00417438
0.00430428
0.00466607
0.00478471
0.00493728
0.00432986
0.00359353
0.00217498
0.000856466
0.00180345
0.00317151
0.00418542
0.00512163
0.00547606
0.00536034
0.00519311
0.00466106
0.00438491
0.00381493
0.00360823
0.00335892
0.00369904
0.0034979
0.00378305
0.00371503
0.00343472
0.00291218
0.00174054
0.000603924
0.00160497
0.00241946
0.00291229
0.00353959
0.00380998
0.00387456
0.0036547
0.00348628
0.00323268
0.0029072
0.00247144
0.0028155
0.00254888
0.00274782
0.00275335
0.00279872
0.00271117
0.00219178
0.00141727
0.000570083
0.000696366
0.00122529
0.00187716
0.0020812
0.00232027
0.00217043
0.0022962
0.00196099
0.00180196
0.00169231
0.00164561
0.00168115
0.00179472
0.00172268
0.00160307
0.00176627
0.00154542
0.00171987
0.00082485
0.000451472
0.000508277
0.000307656
0.000520421
0.000588355
0.000783088
0.000863274
0.000662246
0.000819068
0.000668537
0.000729843
0.000395583
0.000710251
0.000533104
0.000518293
0.000626526
0.000792927
0.000434059
0.00048971
0.000310623
0.000150978
0.00236573
0.00510437
0.00756665
0.00888341
0.00999749
0.00995175
0.00945745
0.00850107
0.00766663
0.00657183
0.00583467
0.00568202
0.00595559
0.00654119
0.00670449
0.00685156
0.00644621
0.00497526
0.0027912
0.000409502
0.00249939
0.00452552
0.00673541
0.00803001
0.00889109
0.00899414
0.00844373
0.00777271
0.00673988
0.00619335
0.00546705
0.0050989
0.00529957
0.00582844
0.00606161
0.00609371
0.00551784
0.0043563
0.00263079
0.000454973
0.00223755
0.00416633
0.00595201
0.0071886
0.00744986
0.00745515
0.007364
0.00668853
0.00594411
0.00524635
0.00470289
0.00445664
0.00487065
0.00506054
0.00529909
0.00537387
0.00483292
0.00404187
0.00251392
0.000681261
0.00204571
0.00349684
0.00503918
0.00583369
0.00636331
0.00637153
0.00616941
0.00581377
0.00509863
0.00466344
0.0040101
0.00384338
0.00435728
0.00427554
0.00443669
0.00459737
0.00424657
0.0032894
0.00197499
0.000638756
0.00157257
0.00263588
0.00418204
0.00456821
0.00518401
0.00504432
0.00502987
0.00466108
0.0037165
0.00365488
0.00310271
0.00318593
0.00293759
0.00355467
0.00348652
0.00352014
0.00331317
0.00277726
0.00169406
0.000799377
0.00136386
0.00219981
0.00291097
0.00357799
0.00359772
0.00382482
0.00341756
0.00341529
0.00304682
0.00265044
0.00223921
0.00230987
0.00227857
0.00277951
0.00239973
0.00268945
0.00215234
0.00197774
0.0012396
0.000892413
0.000661377
0.00127462
0.00163151
0.00217249
0.0023938
0.00227758
0.0020359
0.00210682
0.00200418
0.00158498
0.00140345
0.00132087
0.0013961
0.00137301
0.00162039
0.00176619
0.00163929
0.00124468
0.000821759
0.000179605
0.000113881
0.000553036
0.000521108
0.0007893
0.000855023
0.00068223
0.000529918
0.000620044
0.000647872
0.000547984
0.000343922
0.000523836
0.000562109
0.000437007
0.000409436
0.000617345
0.000450403
0.000307224
0.000386821
0.000123762
0.00242912
0.00484971
0.00726346
0.00877768
0.00949516
0.0097502
0.00910974
0.00819807
0.00751298
0.00648812
0.00560709
0.00536117
0.0057365
0.00615686
0.00633229
0.00653727
0.00591007
0.00458813
0.00265447
0.000177436
0.00246235
0.00422177
0.00666218
0.00787832
0.00850392
0.00874868
0.00823265
0.00737457
0.00675959
0.00582525
0.00517011
0.00520171
0.00520986
0.00580424
0.00572185
0.00584496
0.0053741
0.00428595
0.00234427
0.000633689
0.00202193
0.00398735
0.00580458
0.00675744
0.00737836
0.0075576
0.00736927
0.00655401
0.00586912
0.00523681
0.00464653
0.00456984
0.00451787
0.00509073
0.00523064
0.00500606
0.00468911
0.00388272
0.00225846
0.000812531
0.0018452
0.00354336
0.00462459
0.00568889
0.00616905
0.00629499
0.0062977
0.00558061
0.00493319
0.0042802
0.00426776
0.00377373
0.00400942
0.00392867
0.00435786
0.00448129
0.00407491
0.00315227
0.0019815
0.00101646
0.00154112
0.00254875
0.00407835
0.00470776
0.00499467
0.00518607
0.00489043
0.0044716
0.00399159
0.00350266
0.00318431
0.00308934
0.00310547
0.00323829
0.00355595
0.00346694
0.00314042
0.00247038
0.00180617
0.000595831
0.00134059
0.00210741
0.00292433
0.00322874
0.00361381
0.00398744
0.00341804
0.00330466
0.00298402
0.00273622
0.0025316
0.00216576
0.00232118
0.00253839
0.00241162
0.00260912
0.00252322
0.00218336
0.00135969
0.000504206
0.000745803
0.00117689
0.00191905
0.00197939
0.00234859
0.00224883
0.00206812
0.00213582
0.00168336
0.00170625
0.00124111
0.00141841
0.00150944
0.0018477
0.00161078
0.00141383
0.00140057
0.00108593
0.000685967
0.000147704
0.000220819
0.000602889
0.000818801
0.000581183
0.000830066
0.00078613
0.000821403
0.000844391
0.000745853
0.000438792
0.000403198
0.000491245
0.000290534
0.000601686
0.000550667
0.000208121
0.000461825
0.000702785
0.000187192
4.83902e-05
0.00241217
0.00513167
0.00706153
0.00878207
0.00950594
0.00969998
0.00926354
0.00828772
0.00743015
0.00644222
0.00569108
0.00572566
0.00587703
0.0064099
0.0066403
0.00669915
0.00618336
0.00465155
0.0028333
0.000554198
0.00271989
0.00445628
0.00638713
0.00771708
0.00842935
0.00838526
0.00819269
0.00743125
0.00671728
0.00596753
0.00534815
0.00523555
0.00538246
0.00583916
0.00608345
0.00591624
0.00552382
0.00426866
0.00263925
0.000687334
0.00242954
0.00425545
0.00561341
0.00684054
0.00738721
0.00760941
0.00723552
0.0066638
0.00598292
0.0054987
0.00491091
0.00463859
0.00475985
0.00534275
0.00527375
0.00524634
0.0051436
0.00398177
0.00265317
0.000804531
0.00216443
0.00350552
0.00451347
0.00567352
0.00633017
0.00651535
0.00617155
0.00573274
0.00518885
0.00470747
0.00421618
0.00393336
0.00379418
0.00432314
0.00454468
0.00436108
0.0041481
0.00336748
0.00209273
0.000754486
0.00163871
0.00279836
0.00391423
0.00453019
0.00491936
0.00513236
0.00516397
0.00439474
0.00421734
0.0034783
0.0030169
0.00339353
0.00324632
0.00333353
0.00379227
0.00388043
0.00350031
0.00260937
0.00169325
0.000833645
0.0011684
0.00220619
0.00281618
0.00341392
0.0036584
0.00363743
0.00340235
0.0033963
0.00290527
0.00251143
0.00247645
0.00248256
0.00260862
0.00257678
0.00265804
0.00265716
0.00253383
0.0021086
0.00120244
0.000518639
0.000911097
0.00132397
0.00181199
0.00185429
0.0021658
0.00211636
0.00209648
0.00210014
0.00186589
0.00193096
0.00126392
0.00155247
0.00180368
0.00152821
0.00164007
0.00173372
0.00160856
0.00138417
0.000760112
0.000324808
0.000385393
0.000345019
0.000582634
0.000487094
0.00106994
0.000672871
0.000736485
0.000691495
0.000631301
0.00064626
0.000358122
0.000394174
0.000521773
0.000699156
0.000690946
0.000273833
0.000520368
0.000659108
0.00034516
0.000184685
0.00270998
0.00497583
0.00752452
0.00873135
0.00976115
0.0100188
0.00947005
0.00898702
0.00785368
0.00700937
0.00661384
0.00634033
0.00647571
0.00657387
0.007189
0.00709967
0.00636576
0.00533129
0.00331198
0.00113946
0.00258711
0.00497876
0.00687318
0.00814236
0.0084998
0.00885307
0.00858962
0.00798803
0.00713699
0.0064296
0.00576634
0.00565708
0.00578832
0.00623767
0.00649495
0.00646312
0.00559687
0.00479069
0.0030651
0.00139514
0.00268573
0.00416554
0.00603702
0.00687951
0.00761843
0.00758359
0.00750701
0.00702631
0.00660084
0.00582843
0.00549354
0.00519634
0.00534495
0.00559727
0.0057506
0.00554921
0.00514554
0.00416524
0.00278711
0.00129637
0.00237673
0.00378163
0.0050688
0.00571716
0.00647009
0.00661981
0.00629615
0.00592782
0.00551828
0.00486877
0.00450121
0.00422313
0.00435334
0.00474516
0.00490407
0.00488539
0.00421858
0.00344654
0.00225858
0.00105675
0.00197982
0.00282936
0.00396539
0.00480314
0.00526989
0.00508642
0.00506926
0.00466345
0.00446528
0.00406082
0.00360351
0.00369
0.00361501
0.00368142
0.00383573
0.00375103
0.00366384
0.00305221
0.00196764
0.00105889
0.00149079
0.00211383
0.00298531
0.00358977
0.00360208
0.00374625
0.00359371
0.0033303
0.0032678
0.00276268
0.00248032
0.00296735
0.0026325
0.0028443
0.00294288
0.00299162
0.00279183
0.00207645
0.00156836
0.000863301
0.00116805
0.00149004
0.001472
0.00200844
0.00228091
0.00239572
0.00220662
0.00218997
0.00191567
0.00179577
0.0017525
0.00143009
0.00171034
0.0015312
0.00178677
0.00173805
0.00168861
0.0014933
0.00101568
0.000365349
0.000258462
0.000610827
0.000672969
0.000717496
0.00106768
0.000809765
0.000639823
0.000724986
0.000754607
0.000513417
0.000565684
0.000515435
0.00066184
0.000607127
0.000471987
0.00041783
0.000290143
0.000266201
0.000459897
0.00028373
0.00366866
0.00583443
0.00809917
0.00942819
0.0102688
0.0104341
0.0102177
0.00948495
0.00884324
0.00811967
0.00762152
0.00739088
0.00747251
0.00796167
0.00785511
0.00773586
0.00716936
0.00585383
0.00387852
0.00172704
0.00335156
0.00514575
0.00718222
0.00843548
0.00937419
0.00948531
0.00922098
0.00863983
0.00810916
0.00731012
0.00690784
0.00672481
0.00669418
0.0069777
0.00734209
0.0070911
0.00619346
0.00548705
0.00361994
0.00193306
0.00324455
0.00466781
0.00635028
0.00760918
0.00808491
0.00801805
0.00817572
0.00745286
0.00721421
0.00663941
0.00596859
0.00553528
0.00594598
0.00597009
0.00641214
0.00622154
0.00545167
0.00474487
0.00326951
0.00212742
0.00294074
0.00398546
0.00541368
0.00671919
0.006893
0.0070061
0.00632827
0.00636079
0.00593591
0.00570719
0.00520979
0.00491842
0.00512782
0.00533634
0.0053327
0.00523839
0.00464836
0.00421716
0.00288093
0.00161811
0.00207474
0.00344166
0.00424696
0.00483206
0.0053871
0.00556821
0.00573484
0.0052682
0.00467437
0.00433134
0.00414868
0.00411772
0.00436439
0.00391654
0.00429592
0.0041443
0.00403639
0.00324063
0.00241795
0.001385
0.00169098
0.00228021
0.00310944
0.00364219
0.00403585
0.00416432
0.00408956
0.00376592
0.00369996
0.00336015
0.00295602
0.0029198
0.00342909
0.00309586
0.00311741
0.0032826
0.00288093
0.00246403
0.00162678
0.00118681
0.0012147
0.00131922
0.00199284
0.00242905
0.00232447
0.00236836
0.00247987
0.0023249
0.00183412
0.0018869
0.00179321
0.00198832
0.00197282
0.00207299
0.00203678
0.00185181
0.00167128
0.00150786
0.00105171
0.000830253
0.000438101
0.000305977
0.000744834
0.000800388
0.000634999
0.00119921
0.000950535
0.00091009
0.000760914
0.000664087
0.000788369
0.000862824
0.000412838
0.00051052
0.000754797
0.000584261
0.000424058
0.000507324
0.000312603
0.000268577
0.0047935
0.00677695
0.0086945
0.0105304
0.0110714
0.0114946
0.0111569
0.01081
0.0102353
0.00933179
0.00906322
0.00886384
0.00886889
0.00865258
0.00917116
0.00872522
0.00824902
0.00688692
0.00503391
0.00300617
0.00441482
0.006403
0.00788611
0.00917936
0.0100373
0.0103053
0.0101682
0.00972701
0.00926636
0.00878787
0.00794623
0.00798638
0.00799687
0.00834211
0.00823259
0.00811555
0.00729284
0.00625306
0.00492727
0.00279695
0.0042181
0.00575607
0.00698376
0.00826452
0.00876741
0.00881604
0.00867737
0.00854741
0.00794682
0.00751084
0.00726474
0.00715986
0.00703351
0.00718113
0.00732243
0.0070561
0.00651276
0.0054929
0.00426529
0.00267524
0.00335109
0.00461706
0.00586053
0.00696332
0.00714314
0.00751346
0.00760133
0.00711348
0.00656416
0.00653685
0.00589135
0.00589565
0.005892
0.00618741
0.00627596
0.00610049
0.00562001
0.00490451
0.00386402
0.00235893
0.00291088
0.00383917
0.00468916
0.00554675
0.00602495
0.00624476
0.00588484
0.00571247
0.00538493
0.00523966
0.00496714
0.00498211
0.004817
0.00502644
0.00510516
0.00493863
0.00451929
0.00378745
0.00309511
0.00233323
0.00214021
0.00266271
0.00346958
0.00410264
0.0044027
0.00443976
0.00399755
0.00427318
0.00414638
0.00385637
0.00354179
0.00354989
0.00361825
0.00387189
0.00386667
0.00361975
0.00333979
0.00288538
0.00204797
0.00154871
0.00111314
0.00163483
0.00214401
0.0024207
0.00285185
0.00277762
0.0028193
0.00243302
0.00232135
0.00220056
0.00210804
0.00215355
0.00192507
0.0023744
0.00215301
0.00225097
0.0020593
0.00191368
0.00114043
0.000892003
0.00066649
0.000506443
0.000667652
0.000631028
0.000856966
0.000982732
0.00097409
0.000942811
0.000972402
0.000946125
0.000716589
0.000760133
0.000712225
0.000576965
0.000784541
0.000859566
0.000764975
0.000555105
0.000320678
0.000269216
0.00590832
0.00793117
0.0100277
0.0114753
0.0122011
0.0127075
0.0127533
0.0121182
0.0118457
0.0111956
0.0109942
0.0103878
0.0105406
0.0105589
0.0107229
0.0103513
0.00937388
0.00811772
0.00676264
0.00469789
0.00554401
0.00736835
0.00927807
0.0103497
0.0110388
0.011434
0.011216
0.0112009
0.0106209
0.0101068
0.0096367
0.0095285
0.00926931
0.0096286
0.00945416
0.00928668
0.00866931
0.00737455
0.00581991
0.00437202
0.00482619
0.00641587
0.0079613
0.00910156
0.00967367
0.0099569
0.0102501
0.00983044
0.00922221
0.008851
0.00866017
0.00843772
0.00836101
0.00839963
0.00854239
0.00831824
0.00758266
0.00676362
0.00533542
0.00393422
0.00424595
0.00556573
0.00675083
0.00751772
0.00818327
0.00836573
0.00849925
0.00813547
0.00775572
0.00739858
0.00723062
0.006997
0.00706572
0.00719694
0.00740831
0.00693186
0.00657898
0.00593155
0.00466581
0.00341893
0.00330686
0.0045725
0.00563808
0.00587013
0.00646022
0.00659467
0.00649045
0.00673732
0.00625775
0.00630655
0.00613927
0.00569687
0.00562952
0.00574023
0.00558496
0.0057105
0.00529216
0.00464814
0.00367128
0.00278053
0.00254923
0.00333418
0.00392663
0.00436394
0.00466316
0.00498942
0.00508829
0.00471722
0.00472505
0.00461715
0.0041695
0.00437807
0.00420267
0.00416383
0.00435837
0.00399454
0.00366224
0.00334397
0.00276595
0.00206334
0.00178478
0.00200232
0.00255121
0.00267221
0.00290131
0.0029008
0.00308047
0.00295408
0.00292564
0.0028311
0.00238352
0.00256491
0.00242406
0.00268758
0.00269706
0.00265857
0.00226831
0.0018824
0.00174548
0.0012173
0.000591659
0.000555432
0.000976175
0.00107113
0.000992366
0.00106619
0.00096985
0.00107365
0.000872437
0.000660836
0.00105496
0.000891534
0.000747249
0.00105734
0.000469293
0.000548426
0.000801439
0.000833552
0.000428059
0.000507888
0.00748582
0.00946924
0.0115629
0.0128439
0.0138905
0.0142742
0.0142367
0.0139897
0.0136373
0.0131721
0.012854
0.0125183
0.0125633
0.012446
0.0126142
0.0120834
0.0111354
0.0101528
0.00831272
0.00610126
0.00700159
0.00852586
0.0101208
0.0115106
0.0123491
0.0130747
0.0127873
0.0125688
0.0122759
0.0119637
0.0116221
0.0111011
0.0113029
0.0114683
0.0112638
0.0110138
0.0104229
0.00918154
0.00732499
0.0060425
0.00628988
0.00745863
0.00902977
0.010179
0.0110208
0.011229
0.0110257
0.0107471
0.0107393
0.0104589
0.0102373
0.00988818
0.0100845
0.00978372
0.00987447
0.00960303
0.00908406
0.00783808
0.00648142
0.00539114
0.00519606
0.0064002
0.00758928
0.00843463
0.00916012
0.0094787
0.00949104
0.00924795
0.00891774
0.00880368
0.00838857
0.0084608
0.00848708
0.00823825
0.00831891
0.00801864
0.00727928
0.00676979
0.00562495
0.00459807
0.00406066
0.00516213
0.00592898
0.00677336
0.00744921
0.00743707
0.00767698
0.00744772
0.00734524
0.00705284
0.00681213
0.00680115
0.00650561
0.00678052
0.00690129
0.00651366
0.00590411
0.0055264
0.0046256
0.00364306
0.00343204
0.00368361
0.00453496
0.00505361
0.00511127
0.00566904
0.00544927
0.00554898
0.00520582
0.0051556
0.00483249
0.0049351
0.0049534
0.00496846
0.00481916
0.00463205
0.00459797
0.00381243
0.00347063
0.00271906
0.00203499
0.00237348
0.00280177
0.00320001
0.00328911
0.00321581
0.00320724
0.00324752
0.0033091
0.00304821
0.00311808
0.00287312
0.00298972
0.00315442
0.00318268
0.00303768
0.00255103
0.00225994
0.00204158
0.00199401
0.000683944
0.000764839
0.000996676
0.00116956
0.00130475
0.00107296
0.000951068
0.00113304
0.00088848
0.000974183
0.000968773
0.000996671
0.00114287
0.0011437
0.000979052
0.00108219
0.00130659
0.00107572
0.000591602
0.000486651
0.00918226
0.0112185
0.012987
0.0147596
0.0155888
0.0162542
0.0165045
0.0160698
0.0161985
0.0154547
0.0151379
0.0148634
0.0149646
0.0147935
0.0147373
0.0142604
0.0133599
0.0119728
0.0102561
0.0082033
0.00835291
0.010412
0.0118763
0.0134807
0.0141856
0.0144105
0.0145864
0.0147034
0.0141395
0.0139624
0.0136914
0.0133878
0.0133535
0.0133656
0.0131159
0.012639
0.0118527
0.0107097
0.00928632
0.0075613
0.00736073
0.0090959
0.0101257
0.011482
0.012391
0.0126084
0.0126642
0.0125499
0.0123307
0.0119983
0.0118426
0.0117759
0.0115263
0.0115743
0.0113359
0.0110011
0.0103759
0.0093553
0.00811405
0.00686596
0.00641555
0.00758638
0.00864904
0.00968808
0.0104412
0.0104938
0.0107695
0.0107093
0.0105598
0.0101096
0.0101727
0.00993289
0.00976019
0.00988417
0.00970979
0.00938331
0.00885612
0.00810724
0.00689061
0.00564129
0.00522566
0.00590991
0.00676947
0.00783269
0.00818486
0.00830156
0.00856997
0.00821111
0.00812606
0.00802709
0.0081472
0.00781815
0.00779978
0.00761017
0.00775164
0.00746096
0.00696191
0.00641433
0.00562338
0.00493223
0.00386642
0.00443617
0.00513596
0.00560329
0.00607638
0.00638576
0.00610579
0.00619766