/*--------------------------------*- C++ -*----------------------------------*\
| =========                 |                                                 |
| \\      /  F ield         | OpenFOAM: The Open Source CFD Toolbox           |
|  \\    /   O peration     | Version:  2212                                  |
|   \\  /    A nd           | Website:  www.openfoam.com                      |
|    \\/     M anipulation  |                                                 |
\*---------------------------------------------------------------------------*/
FoamFile
{
    version     2.0;
    format      ascii;
    arch        "LSB;label=32;scalar=64";
    class       volScalarField;
    location    "./ITHACAoutput/true/8.7";
    object      error;
}
// * * * * * * * * * * * * * * * * * * * * * * * * * * * * * * * * * * * * * //

dimensions      [0 0 0 1 0 0 0];

internalField   nonuniform List<scalar> 
3200
(
1.68922
1.3995
1.16481
1.18044
1.22211
1.34969
1.59806
1.95104
2.05113
2.33009
2.45549
2.45279
2.41216
2.23879
2.23672
2.1506
2.30962
2.48873
2.83696
3.22455
1.30266
1.10075
0.900672
0.748889
0.896912
0.967044
1.20641
1.46759
1.63892
1.76672
1.94533
1.86391
1.8189
1.79472
1.76151
1.7259
1.83418
1.98516
2.26574
2.65677
1.00386
0.749417
0.621883
0.537202
0.649392
0.719333
0.834538
1.09606
1.26299
1.38465
1.52262
1.51321
1.44346
1.37383
1.29057
1.3799
1.44387
1.59569
1.85137
2.07804
0.750739
0.51546
0.420856
0.316901
0.387126
0.490883
0.605098
0.764034
0.951439
1.00997
1.08909
1.09879
1.05036
1.02263
0.885352
1.01585
1.08067
1.257
1.39341
1.61265
0.546391
0.371991
0.36123
0.220449
0.287151
0.299355
0.4086
0.572031
0.638123
0.683297
0.786719
0.828325
0.76459
0.714253
0.645827
0.737062
0.775108
0.928601
1.07383
1.2699
0.269865
0.233201
0.164171
0.132154
0.142292
0.192856
0.177788
0.322021
0.472449
0.533924
0.51721
0.528789
0.510036
0.476562
0.406619
0.520365
0.495052
0.638869
0.749961
0.885434
0.159155
0.191389
0.052822
0.0905668
0.0636054
0.121544
0.141673
0.200416
0.171805
0.339195
0.255336
0.276016
0.358058
0.281297
0.260056
0.323845
0.308489
0.404917
0.34003
0.606023
0.0485597
0.0121206
0.0328215
-0.00443798
0.0876035
-0.00994919
0.0178652
0.0832157
0.0858023
-0.00410213
0.092973
0.118499
0.118596
0.155696
0.0684287
0.0786031
0.0637287
0.143662
0.145158
0.219987
0.796303
0.548953
0.225717
0.20854
0.144168
0.293395
0.489902
0.784301
1.04749
1.18405
1.25183
1.35314
1.19012
1.20414
1.15561
1.1945
1.30099
1.58701
1.8765
2.28557
0.622599
0.306827
0.072307
-0.0527575
-0.059004
0.103687
0.332208
0.489855
0.756885
0.881197
1.06777
0.94986
0.929849
0.920354
0.822692
0.899399
1.01901
1.18652
1.55003
1.81943
0.431495
0.194846
-0.0419834
-0.121246
-0.0379713
-0.0322656
0.133107
0.350646
0.504695
0.640595
0.67243
0.71805
0.72927
0.693042
0.56773
0.575721
0.718479
0.858962
1.1883
1.45365
0.205753
0.0864954
0.00911574
-0.100945
-0.127879
-0.075518
0.0283257
0.122798
0.333282
0.402411
0.540429
0.572571
0.465263
0.481021
0.396465
0.44489
0.527301
0.680947
0.889412
1.10414
0.102726
0.0208312
-0.11537
-0.20363
-0.130031
-0.14123
-0.0271051
0.0702381
0.278375
0.31717
0.312362
0.349794
0.391055
0.293511
0.254193
0.35115
0.399911
0.48108
0.691661
0.835838
0.120514
-0.0902212
-0.053442
-0.0900398
-0.175807
-0.0441773
-0.0752358
0.076877
0.0947654
0.204804
0.239597
0.223494
0.215568
0.227552
0.253194
0.160697
0.216601
0.397362
0.507874
0.588362
0.0239867
0.0552814
0.0186836
-0.0781314
-0.0864056
-0.0503505
-0.0730097
-0.00744104
0.136793
0.140286
0.168067
0.149992
0.101468
0.101155
0.103353
0.0504889
0.125189
0.171988
0.333588
0.342009
-0.0302051
0.040637
-0.00731876
-0.0349257
-0.0851847
-0.0766241
-0.0509787
0.00702204
-0.0134013
0.016119
0.0336209
0.0432568
0.095815
0.00331467
0.0313637
0.0760647
0.00449722
0.0127023
0.0481313
0.0983429
-0.224631
-0.614233
-0.921419
-1.13581
-1.09822
-1.0353
-0.847371
-0.621477
-0.287599
-0.226811
-0.0970932
-0.138385
-0.12604
-0.224179
-0.216351
-0.139461
0.0412248
0.263485
0.725108
1.17792
-0.3059
-0.628875
-0.889665
-0.982701
-1.02617
-1.00182
-0.833712
-0.696302
-0.451386
-0.323399
-0.241505
-0.225243
-0.222912
-0.255497
-0.254582
-0.217364
-0.0467104
0.182286
0.585732
0.92339
-0.361449
-0.700485
-0.864085
-0.974892
-0.911509
-0.890668
-0.793885
-0.672491
-0.443735
-0.348105
-0.247863
-0.321213
-0.299857
-0.259815
-0.325568
-0.311983
-0.14306
0.0491869
0.386179
0.715777
-0.371122
-0.535715
-0.706523
-0.871134
-0.805958
-0.845031
-0.735636
-0.648143
-0.467301
-0.408193
-0.30327
-0.274517
-0.328194
-0.315489
-0.295978
-0.301464
-0.11812
0.0232566
0.262714
0.45821
-0.291459
-0.444485
-0.598649
-0.712562
-0.782254
-0.65639
-0.642128
-0.510931
-0.364511
-0.323187
-0.249798
-0.212741
-0.282606
-0.292687
-0.318932
-0.263441
-0.0873491
-0.0829215
0.200971
0.408305
-0.276358
-0.385098
-0.424021
-0.506132
-0.529869
-0.534364
-0.436427
-0.381493
-0.302382
-0.258734
-0.242356
-0.178706
-0.227934
-0.227437
-0.223419
-0.210406
-0.179464
-0.0424667
0.0927651
0.270187
-0.12537
-0.218364
-0.258352
-0.260815
-0.2325
-0.217351
-0.261387
-0.228542
-0.203744
-0.123371
-0.124234
-0.142907
-0.142616
-0.196253
-0.11839
-0.171867
-0.14332
-0.0803843
-0.0127324
0.146981
-0.0935225
-0.0930837
-0.118885
-0.0830849
-0.126567
-0.130536
-0.105806
-0.118704
-0.100207
-0.0836727
-0.0406152
-0.0713329
-0.0220745
0.00682737
-0.110966
-0.0198608
-0.0399264
0.0115771
-0.0352173
0.00600914
-1.24716
-1.68938
-2.00737
-2.23764
-2.33872
-2.38681
-2.22997
-2.03499
-1.72358
-1.69175
-1.65708
-1.49387
-1.50779
-1.50744
-1.47359
-1.43076
-1.15775
-0.810507
-0.400098
0.170444
-1.17151
-1.52704
-1.83076
-2.03657
-2.13428
-2.15193
-1.9861
-1.87437
-1.67686
-1.52347
-1.41688
-1.42615
-1.43417
-1.48331
-1.42705
-1.40915
-1.10244
-0.808919
-0.386402
-0.0505652
-1.11443
-1.36458
-1.63923
-1.85845
-1.92158
-1.8254
-1.72719
-1.60737
-1.56585
-1.38614
-1.30859
-1.28166
-1.24297
-1.29587
-1.22866
-1.18019
-0.979756
-0.740413
-0.47131
-0.0368366
-0.894859
-1.21972
-1.40571
-1.53336
-1.60317
-1.5645
-1.47493
-1.36648
-1.28245
-1.17488
-1.20148
-1.13645
-1.12251
-1.07697
-1.05963
-1.00701
-0.848254
-0.623006
-0.375084
-0.0938297
-0.806573
-0.944345
-1.11146
-1.15745
-1.25565
-1.2901
-1.22165
-1.12655
-1.01335
-1.00441
-0.910257
-0.857563
-0.929082
-0.856721
-0.884375
-0.827806
-0.713451
-0.546699
-0.336087
-0.0747554
-0.625929
-0.688283
-0.803956
-0.879995
-0.902779
-0.939575
-0.908852
-0.805858
-0.765239
-0.763976
-0.720674
-0.721143
-0.684872
-0.652876
-0.710465
-0.619733
-0.510782
-0.368554
-0.253022
-0.0877631
-0.367876
-0.432647
-0.497232
-0.659255
-0.559908
-0.579703
-0.522248
-0.522374
-0.448439
-0.386053
-0.432018
-0.42974
-0.437966
-0.443283
-0.381218
-0.382226
-0.278132
-0.201641
-0.194552
-0.0493311
-0.13618
-0.114801
-0.192101
-0.266157
-0.162549
-0.170926
-0.0721635
-0.181292
-0.165805
-0.12306
-0.119941
-0.137251
-0.165259
-0.10112
-0.126038
-0.128694
-0.137786
-0.10737
-0.0605116
-0.0232351
-2.18781
-2.65372
-3.11006
-3.36189
-3.51255
-3.50805
-3.41612
-3.27497
-3.11112
-3.0527
-2.92212
-2.95133
-2.77476
-2.85209
-2.77841
-2.51033
-2.22058
-1.84418
-1.36384
-0.849628
-1.94556
-2.31325
-2.77139
-2.99393
-3.11705
-3.09365
-3.02988
-2.89342
-2.70147
-2.67881
-2.66539
-2.5672
-2.52221
-2.55617
-2.48016
-2.26614
-2.04168
-1.77192
-1.25475
-0.81613
-1.82529
-2.11525
-2.38407
-2.61501
-2.70547
-2.73003
-2.66556
-2.57832
-2.44574
-2.37374
-2.37275
-2.22303
-2.28469
-2.18301
-2.16371
-2.0407
-1.76293
-1.53583
-1.11544
-0.729948
-1.47408
-1.71394
-1.99363
-2.15198
-2.32091
-2.24947
-2.23736
-2.19919
-2.02835
-2.0397
-1.95514
-1.87632
-1.90494
-1.87053
-1.78017
-1.67152
-1.54025
-1.33448
-0.973447
-0.663594
-1.1583
-1.37123
-1.55907
-1.66836
-1.84645
-1.80743
-1.76028
-1.78681
-1.603
-1.58573
-1.55865
-1.52069
-1.5046
-1.55429
-1.46977
-1.383
-1.2012
-1.04952
-0.794429
-0.560891
-0.868196
-0.981061
-1.17338
-1.25518
-1.32259
-1.28553
-1.25203
-1.31056
-1.22757
-1.14233
-1.18246
-1.13026
-1.15486
-1.09547
-0.985653
-1.01114
-0.908015
-0.737412
-0.53812
-0.332245
-0.513514
-0.625773
-0.715349
-0.739825
-0.802492
-0.798588
-0.746802
-0.766653
-0.710444
-0.694479
-0.638561
-0.674638
-0.702584
-0.615282
-0.675888
-0.560018
-0.585281
-0.465997
-0.373884
-0.243504
-0.217636
-0.24056
-0.277411
-0.269927
-0.273831
-0.234091
-0.346891
-0.249517
-0.232874
-0.248302
-0.195136
-0.29079
-0.252789
-0.258043
-0.15363
-0.1539
-0.185861
-0.136004
-0.123763
-0.0711069
-2.78072
-3.28578
-3.8988
-4.31032
-4.46495
-4.49598
-4.49497
-4.39462
-4.23634
-4.22303
-4.07699
-4.02181
-3.94692
-3.90375
-3.793
-3.57987
-3.17616
-2.74853
-2.2287
-1.58082
-2.60185
-3.04199
-3.37344
-3.76527
-3.9788
-4.00457
-3.9469
-3.8738
-3.80945
-3.78569
-3.6334
-3.53231
-3.4935
-3.4794
-3.34119
-3.17239
-2.85139
-2.50429
-1.96174
-1.50182
-2.2365
-2.60921
-3.00597
-3.24633
-3.44216
-3.45055
-3.48493
-3.40397
-3.29854
-3.20849
-3.13746
-3.15006
-3.10301
-3.13971
-2.8395
-2.76892
-2.42805
-2.2443
-1.73595
-1.35842
-1.88101
-2.28408
-2.49832
-2.69179
-2.8526
-2.8937
-2.79075
-2.83142
-2.73101
-2.73264
-2.66312
-2.69024
-2.61843
-2.53379
-2.49029
-2.35514
-2.08241
-1.842
-1.43337
-1.11088
-1.52553
-1.72529
-1.97429
-2.11253
-2.2016
-2.26726
-2.28302
-2.26683
-2.16875
-2.06542
-2.12451
-2.06957
-2.00953
-2.00627
-1.92541
-1.93034
-1.70237
-1.36169
-1.15511
-0.920548
-1.10997
-1.22323
-1.43544
-1.49569
-1.65484
-1.60597
-1.68421
-1.61407
-1.5478
-1.5302
-1.56196
-1.54457
-1.55236
-1.40838
-1.4375
-1.34782
-1.15545
-1.07144
-0.87039
-0.650384
-0.666918
-0.721795
-0.795472
-0.965898
-1.00274
-1.01532
-0.94362
-1.02112
-0.940114
-0.906699
-0.948756
-0.869238
-0.905636
-0.901227
-0.876384
-0.856428
-0.729682
-0.598925
-0.489861
-0.44318
-0.117396
-0.257479
-0.265472
-0.415757
-0.305658
-0.304494
-0.309521
-0.290586
-0.342269
-0.281535
-0.307684
-0.32936
-0.338449
-0.234174
-0.247376
-0.230965
-0.258431
-0.234641
-0.158989
-0.151961
-3.28579
-3.91355
-4.50845
-4.89829
-5.19179
-5.38091
-5.41321
-5.29402
-5.26994
-5.23386
-5.14029
-4.95567
-4.90584
-4.79469
-4.58011
-4.33245
-3.95185
-3.31616
-2.70929
-2.12363
-3.02319
-3.48461
-3.96371
-4.35197
-4.61208
-4.72056
-4.76402
-4.67701
-4.60738
-4.57338
-4.53377
-4.44237
-4.34175
-4.32233
-4.06852
-3.7921
-3.52224
-3.04086
-2.47966
-1.9557
-2.64303
-3.06395
-3.42743
-3.77153
-3.91582
-4.07427
-4.06964
-4.08423
-4.07486
-3.88978
-3.8912
-3.82179
-3.76022
-3.70917
-3.48735
-3.27956
-3.09621
-2.64472
-2.08247
-1.69494
-2.26691
-2.56737
-2.84055
-3.14493
-3.2848
-3.40825
-3.40613
-3.40126
-3.35247
-3.29675
-3.2733
-3.18935
-3.11902
-3.03832
-2.90811
-2.77878
-2.56613
-2.27904
-1.86833
-1.40308
-1.75733
-1.97807
-2.22986
-2.36329
-2.68025
-2.56854
-2.63182
-2.62454
-2.67628
-2.60006
-2.55004
-2.55772
-2.52059
-2.30645
-2.34006
-2.17836
-2.01996
-1.74083
-1.48713
-1.16827
-1.26631
-1.39561
-1.64435
-1.79054
-1.93659
-1.93589
-1.93423
-1.90467
-1.87339
-1.86425
-1.81493
-1.7854
-1.78915
-1.74431
-1.72228
-1.59472
-1.44737
-1.23708
-1.01408
-0.839356
-0.796047
-0.829107
-1.00766
-1.07108
-1.12198
-1.06847
-1.1846
-1.04774
-1.15813
-1.10077
-1.0663
-1.10802
-1.12453
-1.03499
-1.01027
-1.01086
-0.838186
-0.782393
-0.598823
-0.475229
-0.274341
-0.34516
-0.354761
-0.359455
-0.358587
-0.405631
-0.349208
-0.364064
-0.339938
-0.338499
-0.361788
-0.346467
-0.336815
-0.339901
-0.320139
-0.383509
-0.320259
-0.273251
-0.226629
-0.204241
-3.58255
-4.19322
-4.84003
-5.318
-5.7742
-5.93528
-6.06103
-6.08147
-6.02793
-5.88501
-5.8125
-5.72418
-5.61106
-5.44858
-5.28335
-4.92931
-4.44605
-3.8548
-3.16441
-2.43485
-3.23665
-3.69559
-4.26563
-4.72786
-4.99637
-5.19673
-5.35122
-5.36964
-5.31281
-5.22426
-5.19834
-5.07027
-4.98282
-4.85807
-4.61059
-4.36533
-3.92031
-3.43167
-2.86929
-2.19353
-2.75238
-3.19373
-3.72127
-4.06304
-4.38722
-4.43595
-4.5819
-4.64839
-4.57792
-4.45335
-4.46076
-4.44044
-4.28748
-4.17879
-4.02662
-3.64522
-3.40385
-2.95311
-2.4651
-1.91319
-2.29301
-2.69388
-3.10422
-3.33863
-3.60839
-3.73305
-3.86982
-3.83642
-3.79823
-3.77984
-3.62216
-3.62537
-3.57026
-3.46833
-3.25785
-3.14922
-2.85421
-2.48057
-2.0801
-1.57786
-1.83261
-2.15133
-2.44444
-2.67168
-2.81346
-2.94211
-2.97623
-3.04229
-2.98797
-3.00678
-2.88971
-2.90602
-2.71166
-2.72898
-2.62507
-2.37803
-2.21992
-1.89463
-1.56808
-1.32196
-1.28711
-1.4898
-1.73665
-1.89977
-2.14185
-2.07228
-2.1393
-2.19835
-2.17189
-2.11305
-2.0538
-2.04362
-2.02278
-1.93836
-1.87644
-1.79821
-1.62841
-1.4337
-1.1435
-1.03723
-0.808443
-0.944076
-1.04273
-1.15856
-1.24369
-1.19646
-1.28418
-1.31852
-1.27898
-1.28912
-1.27255
-1.26727
-1.12835
-1.2248
-1.13102
-1.12454
-0.988896
-0.914435
-0.672531
-0.544262
-0.277709
-0.336115
-0.36387
-0.361852
-0.387091
-0.429962
-0.465928
-0.413836
-0.365384
-0.486611
-0.446262
-0.433036
-0.407493
-0.368296
-0.386225
-0.421711
-0.322966
-0.233326
-0.209882
-0.144216
-3.62174
-4.2906
-4.99179
-5.577
-6.01528
-6.21165
-6.44072
-6.51468
-6.54042
-6.43148
-6.39264
-6.29826
-6.07808
-5.93585
-5.68547
-5.1973
-4.60267
-3.98726
-3.2835
-2.51965
-3.21076
-3.80941
-4.38113
-4.9849
-5.25588
-5.54529
-5.63097
-5.73391
-5.69494
-5.72677
-5.64078
-5.58903
-5.3967
-5.18769
-5.00422
-4.64931
-4.16772
-3.53133
-2.92329
-2.35807
-2.76068
-3.32552
-3.8244
-4.26319
-4.5644
-4.69226
-4.88501
-4.9491
-4.84622
-4.8595
-4.86012
-4.81636
-4.639
-4.48156
-4.25953
-3.97794
-3.5949
-3.10127
-2.58759
-1.97064
-2.32063
-2.69726
-3.17762
-3.50283
-3.757
-3.89296
-3.95692
-4.07538
-4.02038
-4.07018
-4.03712
-3.96228
-3.92536
-3.75866
-3.43767
-3.28787
-2.92912
-2.55017
-2.18527
-1.69894
-1.88728
-2.09679
-2.43751
-2.77962
-2.91647
-3.03136
-3.12999
-3.20318
-3.23182
-3.20818
-3.16935
-3.14121
-3.06664
-2.92259
-2.79162
-2.61693
-2.33358
-2.07373
-1.76424
-1.34621
-1.41936
-1.55284
-1.7301
-1.97631
-2.10926
-2.25488
-2.33586
-2.37683
-2.28505
-2.29282
-2.24426
-2.23571
-2.25815
-2.11014
-2.05446
-1.8368
-1.71224
-1.44564
-1.20581
-0.949183
-0.791556
-0.909214
-1.02542
-1.18321
-1.32693
-1.35079
-1.36778
-1.49856
-1.35874
-1.37333
-1.43786
-1.39656
-1.25185
-1.33197
-1.22574
-1.11534
-1.06412
-0.895477
-0.74334
-0.590444
-0.29707
-0.269193
-0.312534
-0.383943
-0.471556
-0.544669
-0.525082
-0.50709
-0.483299
-0.474263
-0.507641
-0.478142
-0.444619
-0.415951
-0.381099
-0.418364
-0.422548
-0.282912
-0.235301
-0.199733
-3.34035
-4.13386
-4.86149
-5.60998
-6.04684
-6.30104
-6.59295
-6.68909
-6.72902
-6.72549
-6.60517
-6.6123
-6.32565
-6.012
-5.7453
-5.31205
-4.65067
-3.99482
-3.15459
-2.31655
-3.03322
-3.65673
-4.34636
-4.9002
-5.32805
-5.68151
-5.84553
-5.8514
-5.92777
-6.02476
-5.91176
-5.76787
-5.63524
-5.35949
-5.04612
-4.65003
-4.15991
-3.58878
-2.77899
-2.10302
-2.71696
-3.19046
-3.7577
-4.20578
-4.58944
-4.84016
-4.97277
-5.07415
-5.13748
-5.13882
-5.04671
-4.94356
-4.77367
-4.70246
-4.42186
-4.04646
-3.58821
-3.03851
-2.47707
-1.84378
-2.18364
-2.73967
-3.13244
-3.48244
-3.78936
-3.9898
-4.19458
-4.19361
-4.29675
-4.26479
-4.18678
-4.09123
-4.03318
-3.88859
-3.60451
-3.32302
-3.04653
-2.51095
-2.03992
-1.6224
-1.72832
-2.06254
-2.43354
-2.71091
-2.91504
-3.20112
-3.33956
-3.35302
-3.32422
-3.38765
-3.33962
-3.29181
-3.16349
-2.96246
-2.8827
-2.62231
-2.34632
-1.91928
-1.58623
-1.29422
-1.32993
-1.49058
-1.76267
-1.90728
-2.15248
-2.34454
-2.39998
-2.38914
-2.32396
-2.36465
-2.3788
-2.32928
-2.33077
-2.14999
-2.08414
-1.8923
-1.7372
-1.46152
-1.16577
-0.933698
-0.697948
-0.858393
-1.08443
-1.13667
-1.25825
-1.37343
-1.36123
-1.46163
-1.42999
-1.38351
-1.46791
-1.42567
-1.35848
-1.28532
-1.25757
-1.16759
-1.02422
-0.88318
-0.710058
-0.548034
-0.263517
-0.334732
-0.33665
-0.345297
-0.490356
-0.456011
-0.535347
-0.513908
-0.505579
-0.474267
-0.525754
-0.453871
-0.404851
-0.442122
-0.327649
-0.401655
-0.274696
-0.270686
-0.228651
-0.181832
-2.96212
-3.6683
-4.57439
-5.26484
-5.7917
-6.24641
-6.474
-6.70043
-6.75241
-6.7897
-6.65902
-6.5043
-6.31297
-6.00427
-5.58622
-5.05344
-4.4483
-3.60045
-2.75661
-1.93002
-2.60767
-3.25827
-3.99912
-4.61197
-5.11889
-5.43239
-5.75974
-5.89107
-5.89544
-5.93799
-5.90068
-5.74321
-5.57742
-5.32467
-5.03764
-4.58313
-3.8709
-3.23464
-2.39981
-1.7101
-2.25062
-2.83971
-3.42227
-3.99235
-4.38885
-4.66599
-4.94836
-5.01771
-5.10639
-5.04962
-4.9903
-4.91251
-4.87013
-4.5174
-4.24299
-3.84137
-3.38893
-2.7682
-2.16929
-1.55518
-1.87993
-2.33965
-2.87633
-3.28563
-3.68348
-3.94199
-4.07231
-4.117
-4.18535
-4.28101
-4.16548
-4.08614
-3.98789
-3.79145
-3.46636
-3.27687
-2.77468
-2.35186
-1.79373
-1.32578
-1.48362
-1.90864
-2.26307
-2.67828
-2.91535
-3.09322
-3.11031
-3.2582
-3.35645
-3.31608
-3.30863
-3.21809
-3.05393
-2.99933
-2.79761
-2.49575
-2.18975
-1.84037
-1.44967
-1.10911
-1.06444
-1.36713
-1.60317
-1.90388
-2.06025
-2.16351
-2.30732
-2.35205
-2.41255
-2.33852
-2.35746
-2.32391
-2.33252
-2.17361
-1.98273
-1.80159
-1.62705
-1.29794
-1.08683
-0.763348
-0.693188
-0.844975
-1.00596
-1.10749
-1.21997
-1.26635
-1.38488
-1.4634
-1.41684
-1.4938
-1.41903
-1.38679
-1.38373
-1.30179
-1.21822
-1.10491
-1.0043
-0.821393
-0.750062
-0.460408
-0.191878
-0.320479
-0.433933
-0.365079
-0.356584
-0.441617
-0.442579
-0.484547
-0.501414
-0.419814
-0.511868
-0.4522
-0.468104
-0.459891
-0.405654
-0.295488
-0.303207
-0.267035
-0.258417
-0.2308
-2.12965
-2.98321
-3.88623
-4.65483
-5.22737
-5.76105
-6.07548
-6.32665
-6.35406
-6.44501
-6.34669
-6.23392
-6.01944
-5.67969
-5.25391
-4.63743
-3.88645
-3.0123
-2.05173
-1.16881
-1.84542
-2.69815
-3.43743
-4.18475
-4.72269
-5.12526
-5.35537
-5.54503
-5.65722
-5.67181
-5.65464
-5.49019
-5.25835
-5.01954
-4.63818
-4.08219
-3.45771
-2.66076
-1.8724
-1.13122
-1.70408
-2.29748
-2.96256
-3.54307
-3.99683
-4.42496
-4.62775
-4.79301
-4.89143
-4.9174
-4.88017
-4.73517
-4.60413
-4.32612
-3.98633
-3.53035
-3.03585
-2.38336
-1.60239
-0.994159
-1.4287
-1.94356
-2.44245
-2.97994
-3.37541
-3.62611
-3.81259
-4.00387
-3.97072
-4.00298
-4.0301
-3.90598
-3.78583
-3.56411
-3.33414
-2.99245
-2.52211
-1.98553
-1.40281
-0.890552
-1.15462
-1.56835
-1.96237
-2.35238
-2.62712
-2.95481
-2.94854
-3.12697
-3.19079
-3.15133
-3.13245
-3.00613
-2.97799
-2.78978
-2.66852
-2.27506
-2.00459
-1.57726
-1.09712
-0.737397
-0.832831
-1.15413
-1.47879
-1.70156
-1.94565
-2.12478
-2.096
-2.22699
-2.29899
-2.25583
-2.23366
-2.24743
-2.12805
-1.95367
-1.90676
-1.63577
-1.42656
-1.15175
-0.882164
-0.570624
-0.501165
-0.641588
-0.858581
-1.00618
-1.11891
-1.27555
-1.30662
-1.35757
-1.43799
-1.37848
-1.26768
-1.27879
-1.32533
-1.18476
-1.16492
-1.02442
-0.857695
-0.687418
-0.452482
-0.28059
-0.107782
-0.218211
-0.323818
-0.331011
-0.316502
-0.420408
-0.455938
-0.369095
-0.432714
-0.445192
-0.454696
-0.431183
-0.425996
-0.381434
-0.336664
-0.333807
-0.362234
-0.175195
-0.161255
-0.0957351
-1.04883
-2.00161
-2.9799
-3.81036
-4.4807
-4.99124
-5.44224
-5.65007
-5.81068
-5.84205
-5.74708
-5.64713
-5.46285
-5.01426
-4.54687
-3.9029
-3.04535
-2.16795
-1.18899
-0.296926
-1.07006
-1.79977
-2.61208
-3.29109
-3.94041
-4.49017
-4.79013
-4.98947
-5.16823
-5.13855
-5.07674
-4.939
-4.74559
-4.4496
-3.93998
-3.45426
-2.75484
-1.94311
-1.08359
-0.293814
-0.978528
-1.63574
-2.35001
-2.86347
-3.43758
-3.8149
-4.10405
-4.33434
-4.38363
-4.44674
-4.36337
-4.2884
-4.10746
-3.80641
-3.41943
-2.99399
-2.37934
-1.67315
-0.972347
-0.302324
-0.865848
-1.35811
-1.85957
-2.42065
-2.81044
-3.18685
-3.44457
-3.61021
-3.63172
-3.66821
-3.5841
-3.54036
-3.35592
-3.21904
-2.83636
-2.48845
-2.10771
-1.43393
-0.798516
-0.379645
-0.732085
-1.08003
-1.49303
-1.86916
-2.23287
-2.53311
-2.62543
-2.80819
-2.84895
-2.9237
-2.8953
-2.73065
-2.65103
-2.49466
-2.29966
-1.90591
-1.58559
-1.19735
-0.650082
-0.293506
-0.539471
-0.764977
-1.06005
-1.3489
-1.61575
-1.76997
-1.9437
-2.04328
-2.09145
-2.12835
-2.02431
-2.0223
-1.96779
-1.82241
-1.60666
-1.37741
-1.05879
-0.788211
-0.511228
-0.173521
-0.262756
-0.427372
-0.664903
-0.841983
-0.980145
-0.989751
-1.11691
-1.19086
-1.25924
-1.25257
-1.23853
-1.23136
-1.1258
-1.01442
-0.983693
-0.851394
-0.796362
-0.524614
-0.27359
-0.133978
-0.0826295
-0.120581
-0.225033
-0.299006
-0.322083
-0.322973
-0.426517
-0.43654
-0.418329
-0.4614
-0.388522
-0.349558
-0.373831
-0.353105
-0.291248
-0.288753
-0.259798
-0.164935
-0.102283
-0.029491
0.274076
-0.66838
-1.72596
-2.63579
-3.32349
-3.96496
-4.42294
-4.67545
-4.85451
-4.89638
-4.93314
-4.69292
-4.50564
-4.10855
-3.46952
-2.82704
-2.0431
-0.984355
0.0468596
1.08318
0.105796
-0.793704
-1.58408
-2.31765
-3.06391
-3.47721
-3.86669
-4.17443
-4.32204
-4.36768
-4.38993
-4.14074
-3.85976
-3.5643
-3.1254
-2.53829
-1.85179
-0.960937
-0.0655497
0.803502
0.0438816
-0.720398
-1.42622
-2.04731
-2.56268
-3.00681
-3.4073
-3.60426
-3.73645
-3.83545
-3.787
-3.65981
-3.36735
-3.12109
-2.68664
-2.23525
-1.5801
-0.861997
-0.0957685
0.623188
-0.0350849
-0.637084
-1.17309
-1.75417
-2.06288
-2.57555
-2.82368
-3.04472
-3.06969
-3.0993
-3.10713
-2.99764
-2.8643
-2.5595
-2.29398
-1.85993
-1.35127
-0.741546
-0.173913
0.468255
-0.0694154
-0.482439
-0.910318
-1.32713
-1.71405
-2.01549
-2.1185
-2.41368
-2.43683
-2.47248
-2.41435
-2.35179
-2.23661
-1.98687
-1.8413
-1.46366
-1.04552
-0.609463
-0.116173
0.286635
-0.102193
-0.361619
-0.730553
-0.969277
-1.25234
-1.48736
-1.64834
-1.7413
-1.79699
-1.79123
-1.74232
-1.71885
-1.72281
-1.42525
-1.3163
-1.02014
-0.798899
-0.433486
-0.0638677
0.207787
-0.0292403
-0.29539
-0.394503
-0.578837
-0.732223
-0.874736
-0.984754
-1.04799
-1.17004
-1.10556
-1.07805
-1.0436
-0.948342
-0.928003
-0.790259
-0.628075
-0.499802
-0.230817
-0.0952429
0.0797191
0.0145781
-0.134881
-0.181641
-0.162036
-0.301724
-0.290606
-0.307694
-0.329728
-0.278137
-0.412891
-0.316893
-0.341628
-0.335234
-0.36036
-0.269362
-0.206801
-0.140269
-0.0536508
-0.116693
0.0130079
1.82643
0.830105
-0.228574
-1.24588
-1.97066
-2.68606
-3.07254
-3.48195
-3.66976
-3.75931
-3.70838
-3.54649
-3.24504
-2.79181
-2.18387
-1.49312
-0.622525
0.409089
1.53177
2.5182
1.4903
0.741959
-0.27205
-1.05509
-1.81992
-2.33134
-2.75578
-3.11556
-3.27433
-3.36208
-3.26698
-3.13538
-2.83759
-2.53054
-1.97016
-1.3164
-0.581227
0.311673
1.25259
2.07156
1.2264
0.507366
-0.238849
-1.01716
-1.57794
-2.02758
-2.42494
-2.70206
-2.79372
-2.92007
-2.89604
-2.7245
-2.57484
-2.20177
-1.78562
-1.22802
-0.544172
0.180115
0.988699
1.65826
0.926749
0.32142
-0.347593
-0.844587
-1.31225
-1.71011
-1.98427
-2.25052
-2.37132
-2.38972
-2.38858
-2.26455
-2.08216
-1.80235
-1.51212
-1.04669
-0.491836
0.058199
0.797102
1.29978
0.675156
0.243191
-0.259531
-0.74814
-1.1339
-1.40796
-1.63522
-1.76421
-1.8505
-1.89344
-1.86484
-1.77404
-1.67433
-1.44058
-1.14701
-0.8668
-0.422887
0.0571758
0.570967
1.0123
0.524294
0.180413
-0.220974
-0.551511
-0.861593
-1.03334
-1.16768
-1.28486
-1.32911
-1.39194
-1.37387
-1.29012
-1.2432
-1.06449
-0.918704
-0.585485
-0.296725
0.058034
0.382288
0.669428
0.254213
0.0768658
-0.0958386
-0.335308
-0.48964
-0.592128
-0.697248
-0.813044
-0.825312
-0.810203
-0.826754
-0.819211
-0.752807
-0.596025
-0.528138
-0.37369
-0.201085
0.020052
0.260923
0.405687
0.102724
-0.00350893
-0.0240195
-0.0824877
-0.155301
-0.226972
-0.254736
-0.232254
-0.298097
-0.305435
-0.247675
-0.253276
-0.277231
-0.241343
-0.151313
-0.138762
-0.0879777
0.0331156
0.0720241
0.190415
3.72133
2.64493
1.46566
0.580948
-0.310142
-0.994375
-1.55364
-1.95043
-2.17611
-2.23691
-2.14668
-1.97283
-1.66656
-1.24262
-0.539008
0.185919
1.04423
2.14277
3.22306
4.31313
3.11556
2.18727
1.25638
0.386126
-0.29902
-0.954854
-1.39511
-1.73115
-1.94755
-2.07641
-1.94128
-1.81925
-1.4895
-1.10415
-0.616035
0.0388013
0.838354
1.7053
2.79164
3.67882
2.56318
1.79852
0.980794
0.292498
-0.276796
-0.893255
-1.2787
-1.53479
-1.67508
-1.80953
-1.76155
-1.57976
-1.33086
-1.05888
-0.556428
-0.0169458
0.668241
1.42772
2.29821
2.98814
2.05068
1.45355
0.755283
0.138678
-0.25801
-0.77634
-1.06324
-1.25313
-1.4584
-1.54073
-1.48652
-1.34726
-1.16749
-0.860755
-0.488201
-0.0675849
0.487206
1.13317
1.79835
2.40921
1.52073
1.10178
0.559498
0.125675
-0.284603
-0.635604
-0.836699
-1.04256
-1.13261
-1.23875
-1.17272
-1.10978
-0.925036
-0.773212
-0.452461
-0.109636
0.398209
0.773554
1.40473
1.84228
1.10933
0.849224
0.363873
0.114553
-0.229884
-0.460213
-0.667409
-0.716556
-0.844052
-0.89713
-0.868458
-0.774022
-0.660944
-0.571222
-0.309639
-0.102332
0.276399
0.533353
0.926293
1.27496
0.652378
0.502146
0.249063
0.0606434
-0.0899128
-0.313115
-0.421003
-0.457086
-0.576
-0.532935
-0.562185
-0.487114
-0.398094
-0.31266
-0.210657
-0.061917
0.0785785
0.41404
0.592834
0.768259
0.204652
0.199351
0.0788109
0.0588977
-0.0650331
-0.176801
-0.139033
-0.145061
-0.176796
-0.247176
-0.215378
-0.142282
-0.17649
-0.0809101
-0.0402697
-0.0209983
0.0152624
0.12168
0.203574
0.252761
5.8554
4.6679
3.6374
2.52016
1.66683
0.931302
0.343968
-0.0846695
-0.33603
-0.433691
-0.402021
-0.169114
0.138157
0.603287
1.27312
2.10529
2.99048
4.09085
5.28434
6.41651
4.9728
4.0978
3.06425
2.13468
1.35175
0.694122
0.239666
-0.163883
-0.369054
-0.498936
-0.422855
-0.226997
0.0418219
0.449037
0.98607
1.63944
2.4838
3.48331
4.54868
5.44863
4.08827
3.38243
2.54161
1.74222
1.08329
0.580651
0.156395
-0.172025
-0.383841
-0.445303
-0.42439
-0.224753
-0.0728291
0.288199
0.865392
1.43309
2.10876
2.88298
3.79008
4.55329
3.29009
2.71603
1.95519
1.44969
0.82704
0.394496
0.0525455
-0.162324
-0.334308
-0.365669
-0.363158
-0.311071
-0.0563525
0.236312
0.641005
1.08599
1.64809
2.3102
3.04396
3.6686
2.53012
2.0743
1.53971
1.02033
0.603725
0.294948
0.0667284
-0.14566
-0.295824
-0.287582
-0.343322
-0.280699
-0.104493
0.142136
0.428574
0.841023
1.24761
1.77091
2.34596
2.84945
1.87097
1.41998
1.07543
0.764409
0.445106
0.157874
-0.0637548
-0.149272
-0.242086
-0.295517
-0.336796
-0.199455
-0.104588
0.101546
0.302386
0.496997
0.892984
1.2411
1.68346
2.03148
1.1406
0.904701
0.615786
0.395645
0.30855
0.0995282
-0.0359059
-0.0706989
-0.256784
-0.115994
-0.162169
-0.149781
-0.0660916
0.00576186
0.175173
0.287569
0.537165
0.755848
0.979973
1.21148
0.420223
0.332826
0.150319
0.119124
0.123604
0.0887072
-0.0875335
-0.00758604
-0.0251142
-0.0470821
-0.0253207
-0.0782872
-0.0355336
0.00262537
0.0594711
0.144527
0.207759
0.229253
0.315978
0.356876
8.17214
6.98515
5.79496
4.80353
3.81295
3.10605
2.43102
2.05704
1.69181
1.63382
1.63015
1.80895
2.1933
2.6448
3.343
4.17073
5.20047
6.28183
7.53283
8.6927
6.97936
5.9591
4.99225
3.97399
3.20747
2.58081
1.96909
1.67337
1.39601
1.24921
1.2636
1.49787
1.77989
2.24301
2.76044
3.50936
4.35416
5.321
6.46008
7.41785
5.86082
5.02807
4.16004
3.38235
2.7209
2.11192
1.64124
1.29936
1.09594
0.983589
1.04211
1.19425
1.4322
1.8365
2.2706
2.81743
3.62843
4.41619
5.36954
6.19619
4.68223
3.99167
3.3151
2.7166
2.14924
1.6173
1.3009
1.06803
0.791404
0.678922
0.821325
0.895927
1.09413
1.41858
1.85514
2.36923
2.87829
3.63256
4.27692
5.00355
3.57241
3.04636
2.58168
2.0208
1.5573
1.23963
0.951768
0.76312
0.615189
0.547592
0.525563
0.700904
0.83374
1.03056
1.44763
1.77706
2.21923
2.8464
3.35438
3.86029
2.52899
2.24253
1.83355
1.43871
1.15364
0.895748
0.661469
0.481181
0.386072
0.375
0.426546
0.420977
0.527248
0.706347
0.98604
1.29004
1.57829
2.02443
2.37923
2.76132
1.59274
1.38289
1.08583
0.890963
0.745946
0.520054
0.462405
0.227165
0.290967
0.143188
0.181864
0.234998
0.34288
0.436154
0.637783
0.707322
0.894161
1.2078
1.40988
1.60395
0.431216
0.41807
0.372655
0.355668
0.236118
0.172803
0.135708
0.10226
0.0862139
0.0745729
-0.0288932
0.0569628
0.124608
0.169618
0.153278
0.274742
0.333652
0.426281
0.462038
0.488492
10.4348
9.30314
8.07532
7.02357
6.00873
5.19548
4.5534
4.12298
3.87809
3.71775
3.67629
3.88613
4.29498
4.78346
5.50868
6.33275
7.31043
8.46206
9.76709
10.9064
8.87695
7.99203
6.91794
5.98703
5.01558
4.39928
3.80136
3.49727
3.23962
3.04944
3.03302
3.22294
3.55515
4.04654
4.581
5.35355
6.16869
7.21343
8.34976
9.33472
7.42874
6.63527
5.69737
4.85072
4.16579
3.57059
3.11827
2.80354
2.57235
2.44724
2.42395
2.67681
2.96607
3.23394
3.87118
4.46723
5.12177
5.98499
6.93891
7.73024
6.03826
5.39442
4.62062
3.94266
3.3222
2.85557
2.44051
2.19989
2.06501
1.88432
1.97072
1.99809
2.3477
2.60803
3.00817
3.52574
4.17749
4.76963
5.64335
6.2972
4.5766
4.12658
3.54524
2.93687
2.6389
2.21932
1.91138
1.71331
1.55204
1.49416
1.42116
1.58018
1.71167
2.02411
2.29878
2.78416
3.2163
3.73547
4.25827
4.79584
3.21312
2.86691
2.52425
2.16809
1.84647
1.51765
1.26313
1.18877
1.05482
1.05006
1.02932
1.11634
1.15049
1.42536
1.61472
1.90216
2.27685
2.64436
3.06247
3.41631
1.96802
1.75715
1.56956
1.25731
1.07033
0.88078
0.767576
0.6843
0.570692
0.617911
0.56954
0.693773
0.820586
0.831372
0.92793
1.18453
1.39526
1.58427
1.79372
2.12504
0.644588
0.538639
0.473476
0.396904
0.297948
0.315657
0.228249
0.163809
0.225505
0.259106
0.195369
0.235014
0.235828
0.311132
0.378714
0.355903
0.54283
0.504141
0.607325
0.706026
12.3064
11.1773
9.93048
8.83636
7.80158
7.08064
6.36058
5.91813
5.50243
5.44786
5.42105
5.64695
5.9896
6.57941
7.20477
8.09429
9.17004
10.2525
11.5232
12.7456
10.3709
9.48037
8.43074
7.43766
6.56472
5.7812
5.20794
4.82443
4.55162
4.45756
4.5541
4.67662
5.03805
5.44971
5.98
6.81456
7.69867
8.73922
9.78666
10.8533
8.62436
7.85971
6.93545
6.13438
5.40012
4.7303
4.28178
3.91171
3.70977
3.60378
3.56528
3.73824
4.03081
4.3593
4.87997
5.64118
6.38583
7.21282
8.10183
8.94869
6.9613
6.34061
5.55606
4.87609
4.3043
3.77826
3.38214
3.13083
2.86273
2.86648
2.86185
2.98603
3.1339
3.50517
3.89929
4.50758
5.08153
5.78949
6.56326
7.1218
5.37659
4.84623
4.22521
3.67493
3.27576
2.86101
2.53175
2.33182
2.17221
2.18274
2.18017
2.24266
2.45707
2.68149
3.00072
3.45414
3.99815
4.40746
4.99627
5.51539
3.7488
3.40314
2.95813
2.6096
2.26255
2.05263
1.84322
1.6319
1.46504
1.40407
1.45543
1.60771
1.71259
1.80407
2.07908
2.35554
2.74206
3.107
3.55799
3.91397
2.23808
1.98369
1.78458
1.5765
1.33533
1.22254
1.09633
0.967613
0.876528
0.884819
0.872435
0.916038
1.06293
1.09445
1.29724
1.36696
1.62002
1.82942
2.16283
2.31133
0.806237
0.706714
0.558028
0.460483
0.437399
0.395114
0.419425
0.333805
0.291481
0.218315
0.28835
0.267309
0.302013
0.361225
0.400589
0.478543
0.514562
0.630529
0.680395
0.791954
)
;

boundaryField
{
    hotSide
    {
        type            calculated;
        value           nonuniform List<scalar> 
400
(
2.61738
1.72653
0.70973
-0.306528
-1.23871
-1.82088
-2.31284
-2.594
-2.61503
-2.31277