/*--------------------------------*- C++ -*----------------------------------*\
| =========                 |                                                 |
| \\      /  F ield         | OpenFOAM: The Open Source CFD Toolbox           |
|  \\    /   O peration     | Version:  2212                                  |
|   \\  /    A nd           | Website:  www.openfoam.com                      |
|    \\/     M anipulation  |                                                 |
\*---------------------------------------------------------------------------*/
FoamFile
{
    version     2.0;
    format      ascii;
    arch        "LSB;label=32;scalar=64";
    class       volScalarField;
    location    "0";
    object      stateMean;
}
// * * * * * * * * * * * * * * * * * * * * * * * * * * * * * * * * * * * * * //

dimensions      [0 0 0 1 0 0 0];

internalField   nonuniform List<scalar> 
3200
(
343.396
344.21
345.113
345.827
346.537
347.146
347.578
347.8
348.118
348.06
347.935
347.716
347.339
346.937
346.259
345.608
344.697
343.789
342.772
341.86
337.862
338.508
339.285
340.068
340.57
341.138
341.487
341.722
341.912
341.975
341.797
341.687
341.371
340.898
340.343
339.741
338.983
338.201
337.343
336.508
332.204
332.827
333.44
334.058
334.495
334.964
335.345
335.503
335.641
335.68
335.542
335.391
335.156
334.806
334.392
333.764
333.151
332.466
331.725
331.13
326.467
326.999
327.489
328.029
328.408
328.744
329.036
329.219
329.281
329.353
329.274
329.133
328.933
328.618
328.35
327.779
327.265
326.653
326.121
325.605
320.656
321.057
321.376
321.855
322.137
322.468
322.673
322.775
322.903
322.96
322.856
322.713
322.582
322.368
322.121
321.687
321.3
320.808
320.355
319.932
314.896
315.094
315.382
315.656
315.895
316.088
316.328
316.374
316.362
316.373
316.39
316.305
316.186
316.029
315.874
315.517
315.293
314.907
314.577
314.281
308.957
309.021
309.29
309.397
309.574
309.663
309.778
309.833
309.944
309.821
309.905
309.84
309.675
309.639
309.525
309.314
309.18
308.938
308.872
308.51
303.008
303.077
303.1
303.185
303.144
303.291
303.308
303.281
303.306
303.41
303.313
303.274
303.245
303.17
303.213
303.153
303.117
302.989
302.944
302.837
344.449
345.216
346.202
346.942
347.75
348.33
348.806
349.079
349.229
349.31
349.242
348.923
348.673
348.092
347.467
346.699
345.85
344.841
343.889
342.959
338.681
339.437
340.245
340.995
341.644
342.112
342.465
342.797
342.887
342.951
342.764
342.694
342.357
341.877
341.393
340.686
339.923
339.13
338.194
337.485
332.894
333.495
334.214
334.822
335.282
335.809
336.135
336.331
336.478
336.501
336.47
336.265
335.953
335.575
335.209
334.668
333.983
333.313
332.502
331.871
327.108
327.522
327.992
328.534
329.005
329.389
329.686
329.928
329.964
330.025
329.887
329.724
329.586
329.233
328.917
328.432
327.906
327.32
326.719
326.21
321.174
321.482
321.922
322.347
322.618
322.968
323.165
323.331
323.313
323.375
323.38
323.241
323.01
322.844
322.573
322.137
321.743
321.326
320.811
320.441
315.099
315.469
315.65
315.926
316.259
316.368
316.622
316.657
316.775
316.737
316.702
316.647
316.518
316.319
316.071
315.922
315.619
315.2
314.871
314.632
309.124
309.188
309.354
309.595
309.751
309.86
310.017
310.063
310.001
310.041
310.013
309.988
309.955
309.843
309.707
309.615
309.392
309.201
308.909
308.806
303.097
303.058
303.15
303.226
303.326
303.366
303.385
303.365
303.412
303.398
303.38
303.356
303.276
303.331
303.258
303.165
303.187
303.13
303.051
302.969
345.791
346.691
347.65
348.575
349.265
349.915
350.384
350.712
350.781
350.933
350.803
350.631
350.217
349.761
349.096
348.306
347.398
346.466
345.352
344.388
339.888
340.645
341.468
342.175
342.848
343.441
343.841
344.182
344.284
344.34
344.259
344.058
343.709
343.262
342.694
342.039
341.239
340.396
339.43
338.659
333.922
334.62
335.258
335.887
336.357
336.858
337.241
337.522
337.588
337.646
337.546
337.465
337.15
336.707
336.293
335.757
335.055
334.345
333.534
332.845
327.878
328.332
328.89
329.477
329.848
330.313
330.596
330.838
330.896
330.963
330.858
330.704
330.518
330.175
329.764
329.343
328.724
328.16
327.533
327.049
321.718
322.093
322.548
322.991
323.399
323.604
323.894
324.019
324.059
324.115
324.042
323.907
323.791
323.545
323.267
322.88
322.365
322.032
321.448
321.019
315.603
315.869
316.122
316.439
316.705
316.945
317.065
317.192
317.246
317.273
317.256
317.123
317.039
316.856
316.634
316.385
316.112
315.74
315.391
315.057
309.337
309.524
309.692
309.836
309.954
310.08
310.254
310.332
310.386
310.347
310.348
310.325
310.246
310.189
309.981
309.893
309.718
309.514
309.319
309.065
303.183
303.213
303.282
303.294
303.386
303.438
303.457
303.506
303.514
303.512
303.469
303.485
303.409
303.344
303.418
303.279
303.251
303.151
303.155
303.083
347.295
348.237
349.19
350.111
350.919
351.658
352.135
352.474
352.55
352.722
352.687
352.32
351.947
351.412
350.745
350.011
349.031
347.994
346.948
345.878
341.173
341.951
342.803
343.606
344.315
344.93
345.313
345.662
345.8
345.823
345.717
345.549
345.222
344.81
344.205
343.59
342.671
341.781
340.81
340.052
335.029
335.631
336.367
337.09
337.672
338.08
338.445
338.714
338.956
338.925
338.848
338.672
338.35
338.014
337.484
336.93
336.212
335.468
334.737
333.952
328.692
329.3
329.862
330.402
330.894
331.269
331.558
331.767
331.913
331.928
331.954
331.767
331.524
331.16
330.764
330.298
329.717
329.079
328.455
327.891
322.46
322.814
323.273
323.639
324.067
324.422
324.648
324.8
324.865
324.951
324.857
324.71
324.602
324.283
324.016
323.639
323.195
322.709
322.206
321.728
316.115
316.33
316.654
316.959
317.217
317.483
317.662
317.735
317.822
317.888
317.845
317.778
317.614
317.406
317.253
316.934
316.59
316.219
315.895
315.577
309.677
309.834
310.023
310.322
310.364
310.522
310.59
310.696
310.698
310.677
310.723
310.68
310.612
310.511
310.323
310.186
309.941
309.728
309.596
309.358
303.258
303.267
303.386
303.506
303.45
303.504
303.448
303.592
303.603
303.573
303.57
303.574
303.576
303.477
303.459
303.416
303.378
303.301
303.213
303.145
348.881
349.832
350.903
351.82
352.65
353.307
353.822
354.189
354.394
354.53
354.399
354.234
353.689
353.258
352.577
351.647
350.679
349.637
348.542
347.543
342.507
343.284
344.272
345.071
345.782
346.332
346.792
347.095
347.222
347.367
347.353
347.088
346.724
346.318
345.718
344.931
344.119
343.273
342.226
341.377
336.215
336.845
337.561
338.278
338.865
339.374
339.753
340.037
340.174
340.243
340.242
339.951
339.744
339.27
338.808
338.201
337.426
336.713
335.845
335.12
329.66
330.174
330.818
331.373
331.949
332.273
332.623
332.888
332.937
333.064
332.979
332.785
332.594
332.257
331.804
331.3
330.761
330.158
329.433
328.85
323.114
323.537
324.007
324.425
324.919
325.188
325.422
325.685
325.671
325.744
325.717
325.589
325.403
325.216
324.851
324.456
323.958
323.498
322.96
322.517
316.573
316.835
317.228
317.531
317.824
318.007
318.174
318.401
318.44
318.418
318.458
318.342
318.245
318.017
317.707
317.512
317.184
316.792
316.392
316.037
309.953
310.154
310.364
310.521
310.719
310.848
310.916
311.037
311.053
311.076
311.021
311.018
310.973
310.784
310.725
310.477
310.366
310.115
309.902
309.683
303.383
303.436
303.512
303.55
303.599
303.603
303.757
303.694
303.701
303.729
303.676
303.759
303.697
303.668
303.523
303.479
303.466
303.371
303.319
303.236
350.285
351.256
352.459
353.506
354.309
354.968
355.541
355.921
356.109
356.278
356.132
355.895
355.473
354.95
354.265
353.424
352.372
351.309
350.199
349.085
343.866
344.701
345.541
346.483
347.258
347.828
348.266
348.608
348.843
348.978
348.825
348.566
348.228
347.798
347.164
346.451
345.569
344.672
343.621
342.766
337.222
337.922
338.748
339.453
340.123
340.592
341.045
341.315
341.463
341.505
341.434
341.314
341.014
340.7
339.98
339.45
338.635
337.986
337.049
336.343
330.555
331.221
331.785
332.359
332.908
333.325
333.564
333.891
333.998
334.108
334.038
333.957
333.678
333.307
332.921
332.41
331.749
331.129
330.37
329.785
323.861
324.263
324.783
325.217
325.608
325.965
326.247
326.454
326.516
326.497
326.557
326.417
326.197
325.97
325.623
325.336
324.806
324.171
323.693
323.256
317.086
317.342
317.748
318.02
318.394
318.554
318.822
318.911
318.96
319.002
319.034
318.957
318.849
318.546
318.385
318.087
317.679
317.384
316.989
316.626
310.269
310.41
310.599
310.897
311.063
311.2
311.243
311.416
311.404
311.407
311.449
311.333
311.301
311.2
311.061
310.916
310.661
310.403
310.178
310.045
303.337
303.505
303.552
303.746
303.679
303.719
303.763
303.776
303.85
303.802
303.828
303.837
303.823
303.687
303.662
303.604
303.588
303.522
303.407
303.372
351.768
352.842
353.998
354.991
355.898
356.678
357.248
357.577
357.877
358.01
357.916
357.563
357.189
356.63
355.877
355.038
354.045
352.806
351.637
350.606
345.136
345.975
346.939
347.85
348.64
349.261
349.769
350.07
350.28
350.392
350.353
350.115
349.735
349.327
348.609
347.82
347.02
346.016
344.97
344.069
338.347
339.081
339.853
340.639
341.232
341.822
342.212
342.553
342.781
342.719
342.72
342.528
342.229
341.851
341.235
340.596
339.963
339.071
338.099
337.399
331.529
332.081
332.688
333.353
333.86
334.337
334.656
334.919
335.063
335.109
335.085
334.9
334.637
334.288
333.837
333.354
332.774
332.126
331.382
330.665
324.551
324.965
325.475
325.889
326.491
326.655
326.968
327.169
327.37
327.373
327.323
327.252
327.065
326.642
326.426
325.989
325.546
324.986
324.474
323.962
317.57
317.837
318.269
318.616
318.966
319.162
319.338
319.458
319.533
319.58
319.531
319.445
319.342
319.148
318.948
318.624
318.272
317.862
317.455
317.143
310.595
310.71
311
311.183
311.356
311.42
311.644
311.596
311.771
311.747
311.712
311.721
311.673
311.494
311.362
311.245
310.95
310.774
310.48
310.274
303.56
303.658
303.705
303.749
303.79
303.877
303.856
303.901
303.898
303.908
303.932
303.904
303.874
303.847
303.791
303.815
303.71
303.623
303.54
303.49
353.212
354.246
355.425
356.472
357.502
358.216
358.842
359.277
359.523
359.536
359.464
359.219
358.807
358.23
357.564
356.657
355.6
354.44
353.217
352.064
346.345
347.163
348.192
349.147
349.912
350.591
351.178
351.556
351.758
351.804
351.778
351.515
351.169
350.685
350.005
349.281
348.339
347.358
346.336
345.302
339.3
340.039
340.953
341.711
342.456
342.909
343.421
343.791
343.939
343.928
343.936
343.801
343.43
343.018
342.5
341.714
341.052
340.185
339.31
338.461
332.246
332.886
333.612
334.187
334.8
335.256
335.692
335.906
336.047
336.122
335.964
335.874
335.64
335.29
334.781
334.341
333.702
332.989
332.272
331.531
325.164
325.666
326.204
326.696
327.105
327.491
327.757
328.016
328.101
328.193
328.076
328.019
327.686
327.51
327.174
326.67
326.244
325.655
325.083
324.653
317.975
318.308
318.73
319.082
319.515
319.629
319.862
320.058
320.131
320.124
320.065
320.003
319.883
319.661
319.433
319.171
318.81
318.427
317.962
317.725
310.838
311.052
311.256
311.485
311.685
311.747
311.935
312.053
312.072
312.113
312.097
312.06
311.862
311.876
311.682
311.566
311.315
311.127
310.781
310.574
303.641
303.725
303.788
303.824
303.888
303.968
304.037
304.013
303.984
304.116
304.075
304.052
304.006
303.939
303.924
303.923
303.785
303.657
303.599
303.507
354.571
355.64
356.842
357.96
358.933
359.642
360.332
360.788
361.087
361.121
361.083
360.845
360.351
359.827
359.115
358.115
356.986
355.837
354.633
353.469
347.465
348.401
349.405
350.47
351.205
351.937
352.423
352.857
353.054
353.21
353.124
352.948
352.52
351.98
351.396
350.598
349.653
348.555
347.515
346.612
340.279
341.125
341.986
342.815
343.508
344.011
344.542
344.886
344.983
345.102
345.102
344.953
344.576
344.139
343.579
342.922
342.147
341.263
340.387
339.489
333.069
333.671
334.448
335.092
335.667
336.11
336.45
336.796
336.905
337.04
337.007
336.847
336.646
336.252
335.655
335.198
334.518
333.82
333.159
332.447
325.837
326.22
326.792
327.381
327.767
328.12
328.434
328.685
328.841
328.883
328.844
328.75
328.549
328.227
327.881
327.468
326.935
326.428
325.887
325.296
318.55
318.806
319.148
319.571
319.882
320.198
320.433
320.6
320.599
320.655
320.606
320.55
320.481
320.207
319.997
319.61
319.307
318.864
318.459
318.08
311.088
311.278
311.493
311.757
312.008
312.134
312.244
312.451
312.365
312.408
312.473
312.403
312.204
312.208
312.009
311.796
311.638
311.363
311.112
310.886
303.749
303.746
303.823
303.929
304.053
304.161
304.172
304.179
304.173
304.174
304.208
304.168
304.117
304.063
303.997
303.999
303.968
303.793
303.712
303.652
355.784
356.954
358.149
359.394
360.326
361.052
361.768
362.212
362.501
362.627
362.507
362.384
361.849
361.187
360.496
359.591
358.435
357.283
355.975
354.761
348.583
349.526
350.619
351.602
352.459
353.222
353.753
354.06
354.352
354.562
354.449
354.192
353.844
353.266
352.586
351.781
350.862
349.862
348.648
347.653
341.333
342.07
342.979
343.79
344.536
345.133
345.576
345.932
346.177
346.274
346.182
345.984
345.632
345.305
344.715
343.993
343.172
342.26
341.357
340.46
333.831
334.6
335.269
335.916
336.52
337.004
337.463
337.67
337.922
337.968
337.89
337.716
337.509
337.157
336.619
336.054
335.481
334.648
333.9
333.269
326.378
326.876
327.463
327.97
328.405
328.911
329.248
329.423
329.51
329.634
329.586
329.478
329.233
328.87
328.593
328.112
327.605
326.948
326.399
325.944
318.961
319.238
319.663
319.972
320.382
320.732
320.928
321.033
321.051
321.135
321.149
321.056
320.975
320.678
320.471
320.122
319.802
319.362
318.913
318.565
311.295
311.524
311.842
311.994
312.214
312.423
312.496
312.667
312.684
312.664
312.748
312.68
312.563
312.42
312.308
312.124
311.881
311.641
311.376
311.145
303.817
303.911
303.944
303.985
304.164
304.161
304.269
304.271
304.28
304.256
304.308
304.228
304.162
304.176
304.033
304.076
303.915
303.878
303.805
303.735
357.077
358.134
359.477
360.627
361.61
362.497
363.111
363.653
363.931
364.087
363.956
363.683
363.266
362.641
361.837
360.871
359.81
358.503
357.223
356.045
349.609
350.556
351.673
352.684
353.587
354.274
354.937
355.342
355.542
355.686
355.649
355.39
355.028
354.502
353.88
353.051
351.943
350.909
349.698
348.711
342.096
342.931
343.831
344.737
345.468
346.062
346.627
346.929
347.182
347.212
347.152
346.989
346.781
346.196
345.639
344.92
344.134
343.177
342.26
341.4
334.533
335.192
335.987
336.672
337.342
337.861
338.222
338.457
338.66
338.826
338.71
338.561
338.328
337.941
337.385
336.936
336.161
335.463
334.646
333.979
326.918
327.495
328.05
328.678
329.128
329.508
329.705
330.001
330.204
330.218
330.211
330.066
329.797
329.594
329.213
328.709
328.19
327.627
327.036
326.543
319.255
319.666
320.045
320.499
320.807
321.055
321.327
321.477
321.613
321.578
321.596
321.524
321.458
321.194
320.874
320.549
320.222
319.74
319.386
318.954
311.626
311.843
312.09
312.282
312.487
312.619
312.816
312.957
312.956
313.056
312.981
312.926
312.878
312.733
312.571
312.372
312.179
311.905
311.748
311.393
303.858
304.008
304.15
304.112
304.135
304.249
304.276
304.339
304.37
304.297
304.389
304.321
304.322
304.293
304.213
304.073
304.05
303.983
303.946
303.897
358.095
359.275
360.583
361.775
362.766
363.694
364.359
364.897
365.127
365.324
365.226
365.007
364.589
363.964
363.187
362.176
361.006
359.709
358.344
357.134
350.451
351.581
352.669
353.784
354.685
355.428
355.962
356.4
356.688
356.795
356.778
356.521
356.113
355.627
354.941
354.044
353.057
351.893
350.755
349.737
342.909
343.731
344.691
345.582
346.343
347.06
347.52
347.894
348.141
348.245
348.208
347.985
347.705
347.218
346.621
345.876
345.075
344.111
343.036
342.199
335.196
335.896
336.634
337.426
338.072
338.559
338.957
339.319
339.408
339.503
339.53
339.343
339.101
338.708
338.267
337.689
336.968
336.178
335.355
334.658
327.456
328.011
328.591
329.178
329.648
330.16
330.318
330.629
330.788
330.797
330.778
330.603
330.48
330.159
329.874
329.296
328.831
328.206
327.54
327.038
319.644
320.066
320.523
320.887
321.271
321.581
321.669
321.896
322.035
322.028
322.006
321.983
321.797
321.527
321.363
320.961
320.612
320.196
319.794
319.382
311.807
312.008
312.304
312.536
312.733
312.969
313.07
313.178
313.299
313.26
313.15
313.14
313.145
312.948
312.858
312.638
312.388
312.132
311.818
311.587
303.899
304.029
304.162
304.197
304.211
304.341
304.4
304.332
304.41
304.429
304.439
304.408
304.389
304.325
304.258
304.228
304.228
304.013
303.972
303.887
359.044
360.301
361.652
362.871
363.925
364.793
365.561
366.027
366.37
366.496
366.401
366.206
365.84
365.133
364.349
363.347
362.106
360.84
359.488
358.292
351.438
352.425
353.559
354.575
355.556
356.416
356.991
357.413
357.75
357.803
357.741
357.521
357.17
356.651
355.866
355.07
354.039
352.89
351.709
350.662
343.676
344.546
345.532
346.33
347.185
347.825
348.346
348.765
348.949
349.082
348.998
348.853
348.538
348.048
347.429
346.741
345.846
344.855
343.882
342.999
335.855
336.519
337.242
338.036
338.655
339.247
339.695
340.015
340.146
340.239
340.155
340.054
339.761
339.469
338.896
338.333
337.723
336.816
335.96
335.369
327.984
328.464
329.048
329.606
330.148
330.616
330.856
331.159
331.285
331.404
331.375
331.167
331.002
330.726
330.383
329.821
329.323
328.752
328.034
327.546
320.031
320.35
320.767
321.186
321.58
321.854
322.134
322.319
322.427
322.496
322.392
322.358
322.244
322.012
321.691
321.341
320.896
320.495
320.096
319.666
311.978
312.197
312.509
312.764
312.978
313.06
313.251
313.376
313.481
313.494
313.48
313.453
313.311
313.148
313.054
312.849
312.718
312.369
312.044
311.849
304.011
304.068
304.196
304.296
304.345
304.37
304.495
304.523
304.516
304.565
304.493
304.448
304.46
304.421
304.338
304.312
304.257
304.136
304.049
303.957
359.932
361.155
362.556
363.823
364.858
365.824
366.568
367.052
367.395
367.52
367.557
367.233
366.883
366.254
365.329
364.362
363.23
361.814
360.44
359.123
352.18
353.317
354.404
355.447
356.494
357.189
357.827
358.334
358.624
358.743
358.765
358.443
358.02
357.524
356.837
355.968
354.981
353.781
352.589
351.482
344.277
345.238
346.194
347.076
347.848
348.53
349.14
349.506
349.758
349.919
349.871
349.682
349.269
348.854
348.21
347.52
346.609
345.63
344.614
343.698
336.355
337.115
337.855
338.649
339.168
339.876
340.295
340.655
340.778
340.858
340.866
340.706
340.474
340.031
339.594
338.965
338.246
337.424
336.652
335.852
328.357
328.891
329.477
330.06
330.61
331.063
331.3
331.703
331.803
331.877
331.819
331.718
331.526
331.168
330.889
330.36
329.779
329.176
328.525
328.001
320.334
320.68
321.162
321.518
321.918
322.261
322.517
322.688
322.798
322.82
322.771
322.72
322.67
322.294
322.09
321.686
321.348
320.864
320.382
320.024
312.189
312.506
312.674
312.929
313.152
313.36
313.527
313.636
313.791
313.744
313.716
313.665
313.536
313.47
313.275
313.048
312.85
312.51
312.306
312.08
304.062
304.229
304.299
304.303
304.466
304.477
304.513
304.551
304.51
304.651
304.555
304.574
304.556
304.565
304.455
304.371
304.281
304.171
304.211
304.064
360.767
362.022
363.397
364.739
365.78
366.789
367.433
368.049
368.383
368.547
368.496
368.259
367.812
367.152
366.287
365.302
364.116
362.759
361.32
360.075
352.867
353.834
355.12
356.185
357.224
357.989
358.637
359.177
359.462
359.615
359.52
359.323
358.899
358.412
357.628
356.72
355.711
354.536
353.323
352.285
344.849
345.749
346.725
347.741
348.534
349.2
349.785
350.215
350.414
350.595
350.571
350.345
350.088
349.562
348.958
348.184
347.268
346.306
345.267
344.417
336.828
337.58
338.436
339.128
339.785
340.36
340.788
341.18
341.387
341.452
341.451
341.281
341.011
340.606
340.162
339.52
338.775
338.03
337.104
336.455
328.73
329.274
329.922
330.562
331.096
331.507
331.854
332.08
332.234
332.312
332.284
332.158
331.99
331.66
331.246
330.829
330.237
329.605
328.946
328.393
320.506
320.93
321.434
321.874
322.289
322.558
322.779
322.966
323.058
323.146
323.128
323.019
322.924
322.675
322.444
322.012
321.619
321.155
320.728
320.361
312.385
312.61
312.845
313.149
313.367
313.528
313.685
313.842
313.884
313.884
313.901
313.878
313.782
313.584
313.464
313.251
313.015
312.729
312.426
312.233
304.135
304.258
304.299
304.378
304.473
304.564
304.61
304.601
304.676
304.689
304.632
304.631
304.646
304.596
304.488
304.457
304.384
304.242
304.182
304.048
361.426
362.741
364.209
365.39
366.568
367.517
368.308
368.889
369.246
369.374
369.284
369.043
368.606
367.997
367.062
366.072
364.927
363.532
362.163
360.834
353.454
354.585
355.765
356.892
357.826
358.712
359.352
359.849
360.179
360.365
360.23
360.05
359.607
359.061
358.373
357.488
356.44
355.316
353.98
352.891
345.385
346.316
347.344
348.25
349.03
349.841
350.396
350.788
351.024
351.208
351.16
350.929
350.584
350.176
349.504
348.77
347.874
346.897
345.817
344.96
337.236
337.968
338.838
339.632
340.202
340.879
341.305
341.606
341.889
342.013
341.959
341.778
341.52
341.103
340.591
340.012
339.284
338.46
337.624
336.878
329.076
329.598
330.274
330.845
331.39
331.865
332.174
332.467
332.618
332.755
332.689
332.595
332.349
332.11
331.681
331.215
330.573
330.059
329.295
328.755
320.773
321.106
321.686
322.034
322.475
322.793
323.078
323.19
323.36
323.436
323.407
323.29
323.134
322.982
322.643
322.347
321.873
321.517
321.029
320.607
312.499
312.692
313.002
313.25
313.458
313.734
313.889
313.962
314.107
314.078
314.107
314.018
313.903
313.781
313.632
313.43
313.232
312.837
312.601
312.383
304.204
304.225
304.364
304.404
304.547
304.677
304.655
304.673
304.714
304.788
304.756
304.679
304.704
304.597
304.54
304.503
304.448
304.321
304.22
304.156
361.985
363.391
364.687
366.074
367.187
368.162
368.956
369.551
369.918
370.076
370.044
369.751
369.328
368.697
367.82
366.749
365.604
364.233
362.775
361.423
353.926
354.987
356.249
357.412
358.421
359.286
359.92
360.468
360.774
360.956
360.88
360.632
360.262
359.711
358.994
358.134
357.063
355.83
354.536
353.45
345.827
346.687
347.719
348.718
349.568
350.245
350.823
351.273
351.57
351.675
351.654
351.411
351.174
350.691
349.961
349.218
348.351
347.378
346.279
345.362
337.605
338.303
339.221
339.888
340.667
341.244
341.71
342.025
342.266
342.334
342.331
342.243
341.919
341.527
340.997
340.408
339.69
338.866
337.975
337.226
329.316
329.866
330.522
331.168
331.706
332.127
332.452
332.743
332.947
332.967
333.022
332.932
332.701
332.377
331.993
331.469
330.94
330.291
329.594
328.997
320.903
321.421
321.853
322.254
322.66
323.027
323.318
323.459
323.591
323.665
323.706
323.548
323.415
323.152
322.883
322.608
322.125
321.687
321.158
320.743
312.545
312.821
313.162
313.436
313.576
313.833
314.01
314.079
314.288
314.159
314.205
314.181
314.074
313.968
313.758
313.597
313.295
313.022
312.746
312.475
304.169
304.269
304.47
304.519
304.531
304.582
304.773
304.705
304.729
304.755
304.733
304.782
304.733
304.682
304.612
304.51
304.43
304.391
304.286
304.232
362.428
363.817
365.249
366.487
367.714
368.637
369.499
370.022
370.491
370.602
370.606
370.374
369.886
369.285
368.4
367.356
366.091
364.762
363.269
361.907
354.297
355.488
356.664
357.896
358.868
359.681
360.455
360.881
361.248
361.441
361.426
361.146
360.774
360.181
359.502
358.566
357.516
356.335
354.987
353.858
346.054
347.028
348.073
349.032
349.866
350.634
351.243
351.694
351.974
352.125
352.067
351.876
351.561
351.047
350.475
349.77
348.786
347.817
346.686
345.719
337.841
338.644
339.466
340.212
340.922
341.584
342.013
342.335
342.675
342.819
342.677
342.57
342.309
341.895
341.346
340.702
340.051
339.148
338.359
337.519
329.534
330.148
330.724
331.4
331.975
332.393
332.769
333.027
333.224
333.316
333.338
333.138
332.956
332.69
332.185
331.755
331.202
330.46
329.84
329.246
321.143
321.49
321.979
322.457
322.821
323.151
323.449
323.679
323.809
323.838
323.786
323.774
323.633
323.404
323.061
322.685
322.318
321.789
321.354
320.911
312.631
312.878
313.223
313.467
313.66
313.93
314.025
314.29
314.247
314.406
314.367
314.303
314.174
314.051
313.812
313.699
313.464
313.101
312.851
312.62
304.338
304.363
304.424
304.458
304.594
304.671
304.721
304.765
304.788
304.803
304.907
304.817
304.742
304.687
304.691
304.555
304.48
304.371
304.319
304.281
362.814
364.133
365.584
366.862
368.093
369.103
369.915
370.48
370.819
371.027
371.069
370.811
370.308
369.685
368.789
367.769
366.576
365.197
363.669
362.343
354.652
355.695
356.963
358.09
359.249
360.037
360.783
361.204
361.542
361.775
361.791
361.559
361.146
360.537
359.855
358.911
357.908
356.668
355.337
354.194
346.361
347.286
348.387
349.4
350.244
350.984
351.562
351.976
352.277
352.438
352.461
352.172
351.814
351.446
350.684
349.943
349.129
348.099
346.982
346.06
337.997
338.747
339.653
340.467
341.219
341.804
342.322
342.644
342.836
343.046
342.959
342.903
342.496
342.155
341.652
341.015
340.233
339.504
338.498
337.738
329.692
330.223
330.909
331.623
332.023
332.536
332.924
333.185
333.391
333.471
333.544
333.363
333.186
332.811
332.456
331.878
331.344
330.719
330.092
329.473
321.282
321.686
322.102
322.535
322.929
323.324
323.636
323.756
323.921
323.943
323.964
323.86
323.795
323.474
323.227
322.873
322.426
321.982
321.491
321.079
312.748
312.993
313.224
313.583
313.814
314.043
314.19
314.302
314.434
314.396
314.444
314.311
314.165
314.127
313.996
313.699
313.445
313.21
312.956
312.591
304.288
304.406
304.487
304.578
304.692
304.687
304.787
304.86
304.804
304.774
304.838
304.795
304.788
304.704
304.624
304.634
304.432
304.456
304.338
304.227
363.014
364.318
365.775
367.081
368.318
369.222
370.1
370.668
371.171
371.27
371.297
371.026
370.596
369.882
369.098
368.026
366.747
365.453
363.972
362.574
354.853
355.893
357.124
358.302
359.351
360.296
361.006
361.499
361.847
361.98
361.884
361.722
361.285
360.764
360.097
359.101
358.041
356.816
355.586
354.371
346.533
347.42
348.5
349.458
350.342
351.148
351.713
352.176
352.443
352.582
352.621
352.415
352.057
351.636
350.998
350.101
349.206
348.222
347.178
346.208
338.15
338.87
339.781
340.59
341.285
341.923
342.415
342.743
343.064
343.088
343.092
342.941
342.74
342.292
341.802
341.081
340.384
339.548
338.648
337.989
329.704
330.312
331.031
331.681
332.177
332.679
333.083
333.343
333.544
333.555
333.558
333.473
333.218
332.934
332.539
331.999
331.358
330.849
330.162
329.566
321.313
321.714
322.229
322.649
323.065
323.337
323.601
323.855
324.052
324.128
324.077
323.909
323.774
323.64
323.311
322.972
322.517
322.08
321.559
321.148
312.813
313.1
313.341
313.593
313.876
314.025
314.185
314.339
314.447
314.449
314.462
314.408
314.244
314.187
313.951
313.844
313.549
313.297
312.921
312.74
304.239
304.349
304.512
304.624
304.661
304.716
304.703
304.796
304.845
304.922
304.852
304.869
304.828
304.761
304.71
304.619
304.569
304.439
304.376
304.253
)
;

boundaryField
{
    hotSide
    {
        type            fixedGradient;
        gradient        nonuniform List<scalar> 
400
(
321.511
322.87
325.591
329.677
335.133
341.965
350.181
359.788
370.794
383.208
397.037
412.289
428.971
447.088
466.647
487.651
510.105
534.011
559.372
586.191
323.738
325.08
327.767
331.802
337.194
343.949
352.078
361.591
372.498
384.81
398.537
413.687
430.268
448.289
467.755
488.672
511.043
534.872
560.161
586.913
326.149
327.47
330.116
334.091
339.406
346.071
354.099
363.503
374.296
386.491
400.101
415.136
431.606
449.52
468.885
489.706
511.988
535.735
560.948
587.63
328.704
330
332.597
336.503
341.73
348.292
356.205
365.485
376.15
388.215
401.695
416.604
432.954
450.753
470.009
490.73
512.919
536.579
561.714
588.325
331.33
332.599
335.142
338.97
344.099
350.546
358.332
367.477
378.003
389.928
403.271
418.047
434.27
451.949
471.095
491.712
513.807
537.382
562.439
588.978
333.918
335.158
337.643
341.389
346.414
352.74
360.392
369.397
379.779
391.562
404.765
419.407
435.503
453.065
472.101
492.618
514.622
538.114
563.096
589.569
336.321
337.531
339.959
343.622
348.544
354.751
362.274
371.142
381.385
393.031
406.101
420.618
436.595
454.047
472.983
493.409
515.33
538.747
563.663
590.076
338.36
339.543
341.92
345.509
350.339
356.44
363.847
372.595
382.718
394.244
407.2
421.608
437.485
454.844
473.695
494.045
515.897
539.253
564.114
590.478
339.852
341.015
343.352
346.885
351.645
357.665
364.985
373.643
383.675
395.113
407.984
422.312
438.116
455.407
474.197
494.491
516.294
539.606
564.428
590.758
340.643
341.795
344.11
347.613
352.334
358.311
365.584
374.193
384.176
395.567
408.393
422.679
438.443
455.699
474.456
494.722
516.498
539.788
564.589
590.901
340.643
341.795
344.11
347.613
352.334
358.311
365.584
374.193
384.176
395.567
408.393
422.679
438.443
455.699
474.456
494.722
516.498
539.788
564.589
590.901
339.852
341.015
343.352
346.885
351.645
357.665
364.985
373.643
383.675
395.113
407.984
422.312
438.116
455.407
474.197
494.491
516.294
539.606
564.428
590.758
338.36
339.543
341.92
345.509
350.339
356.44
363.847
372.595
382.718
394.244
407.2
421.608
437.485
454.844
473.695
494.045
515.897
539.253
564.114
590.478
336.321
337.531
339.959
343.622
348.544
354.751
362.274
371.142
381.385
393.031
406.101
420.618
436.595
454.047
472.983
493.409
515.33
538.747
563.663
590.076
333.918
335.158
337.643
341.389
346.414
352.74
360.392
369.397
379.779
391.562
404.765
419.407
435.503
453.065
472.101
492.618
514.622
538.114
563.096
589.569
331.33
332.599
335.142
338.97
344.099
350.546
358.332
367.477
378.003
389.928
403.271
418.047
434.27
451.949
471.095
491.712
513.807
537.382
562.439
588.978
328.704
330
332.597
336.503
341.73
348.292
356.205
365.485
376.15
388.215
401.695
416.604
432.954
450.753
470.009
490.73
512.919
536.579
561.714
588.325
326.149
327.47
330.116
334.091
339.406
346.071
354.099
363.503
374.296
386.491
400.101
415.136
431.606
449.52
468.885
489.706
511.988
535.735
560.948
587.63
323.738
325.08
327.767
331.802
337.194
343.949
352.078
361.591
372.498
384.81
398.537
413.687
430.268
448.289
467.755
488.672
511.043
534.872
560.161
586.913
321.511
322.87
325.591
329.677
335.133
341.965
350.181
359.788
370.794
383.208
397.037
412.289
428.971
447.088
466.647
487.651
510.105
534.011
559.372
586.191
)
;
    }
    coldSide
    {
        type            mixed;
        refValue        uniform 300;
        refGradient     uniform 0;
        valueFraction   uniform 0.991591;
        source          uniform 0;
        value           nonuniform List<scalar> 
400
(
300.025
300.026
300.027
300.027
300.028
300.028
300.03
300.031
300.032
300.032
300.032
300.033
300.034
300.034
300.035
300.035
300.035
300.036
300.036
300.036
300.026
300.026
300.027
300.027
300.029
300.029
300.031
300.031
300.032
300.033
300.034
300.034
300.034
300.036
300.036
300.036
300.036
300.037