/*--------------------------------*- C++ -*----------------------------------*\
| =========                 |                                                 |
| \\      /  F ield         | OpenFOAM: The Open Source CFD Toolbox           |
|  \\    /   O peration     | Version:  2212                                  |
|   \\  /    A nd           | Website:  www.openfoam.com                      |
|    \\/     M anipulation  |                                                 |
\*---------------------------------------------------------------------------*/
FoamFile
{
    version     2.0;
    format      ascii;
    arch        "LSB;label=32;scalar=64";
    class       volScalarField;
    location    "./ITHACAoutput/true/16.1";
    object      error;
}
// * * * * * * * * * * * * * * * * * * * * * * * * * * * * * * * * * * * * * //

dimensions      [0 0 0 1 0 0 0];

internalField   nonuniform List<scalar> 
3200
(
3.07567
0.804883
4.27273
0.371854
1.13308
3.44684
2.0879
-1.56316
2.30169
0.713579
2.92903
4.11309
3.61867
7.08591
0.815196
6.7635
6.27428
4.28117
4.94871
5.46392
4.02217
-0.391533
2.76563
-2.05927
2.07944
5.06642
-1.32759
1.03157
2.39076
3.70016
-0.594091
-0.0863079
-3.06267
-2.3076
-0.212493
5.37751
2.9703
2.07017
6.02335
3.63772
2.64281
-0.0290797
4.14727
1.46969
4.23854
0.737914
2.55888
0.975134
-3.05653
0.995793
1.57572
-0.362278
-2.32195
3.16833
-3.02594
1.05726
0.860723
-0.678728
3.0936
3.68188
-1.18944
0.975496
-0.536387
-0.30982
2.71386
2.75957
-1.81446
1.72287
1.97817
2.70581
-0.93164
3.8483
-0.81737
-4.11755
-1.13433
2.85419
2.56634
2.94009
3.51093
0.832409
3.16686
2.73236
0.0853977
-2.59741
0.180297
-2.43893
0.950862
-0.69845
-1.29988
-1.93322
-0.0713834
5.69843
3.7125
0.356612
0.158471
-0.164731
4.98095
1.28023
3.34611
6.34209
-2.73913
-1.10819
1.79547
0.814636
1.98589
0.736977
3.6402
-1.76821
-3.00643
2.72554
-2.00637
1.67624
-0.413157
3.28472
3.2798
-0.365552
3.31824
-2.50244
-0.355208
-4.42695
4.82597
4.05327
0.876116
1.63194
4.75013
1.30802
-0.767389
0.540973
1.52285
3.28046
3.35056
1.56237
5.86984
-1.01517
1.25973
-1.28076
0.825756
-3.02971
-2.36626
-3.19606
-0.159459
-0.0148905
-1.14732
0.495157
0.665085
-3.14113
1.10606
-0.437206
-0.732585
-2.41255
2.18356
0.8528
3.86704
-5.88477
0.335016
-1.22345
-0.515717
4.59234
3.89545
0.390262
0.97393
0.377244
4.138
0.898251
4.22116
-3.58028
3.46731
0.123272
-0.575692
-2.55395
-1.40211
2.20251
4.12005
3.14994
1.55004
-0.159317
3.74463
3.92441
1.37794
7.52465
-0.690286
-3.13917
1.85916
-0.113102
3.44509
1.2731
-0.742959
-0.701472
0.0665009
0.149417
-0.304142
1.18433
-0.45835
2.64553
-0.496844
6.67962
0.011762
-3.98736
0.771517
6.26624
-1.30148
3.43544
3.59508
-5.05331
-1.61043
2.29793
0.272414
2.39945
0.258406
-1.22214
0.599171
-1.30495
6.82895
2.02267
0.76049
-3.2254
-2.11166
2.86404
2.98118
3.36993
2.89122
-0.9647
-1.9914
-0.257516
-1.26932
4.99482
-0.354379
1.69323
-0.238349
-0.142542
0.974326
-0.503513
1.8403
-3.50106
-1.7545
1.23328
3.63402
1.42212
3.11252
2.20387
0.701184
-3.25363
0.926222
0.99566
2.01521
-0.692678
-3.74914
3.73034
-0.4646
6.48082
-1.93248
1.10856
-6.41926
0.379562
2.70645
5.34819
1.54963
3.45631
4.70004
-2.45343
-1.01212
-0.973056
4.55774
-2.41979
-1.86038
0.709456
-1.77969
5.99775
0.981333
1.21706
1.06652
1.22291
2.41762
4.61208
0.2414
-1.77486
2.2617
3.07573
1.31226
0.786149
2.40291
-0.887794
-0.147462
-3.12799
4.40121
2.59773
0.850323
5.4761
1.25644
3.1578
-1.10226
1.40543
1.28177
-2.73278
1.69033
-1.38707
0.0753869
1.14583
0.960143
-0.073525
-1.81536
-1.1926
-5.34128
-2.32491
-1.5675
0.298447
0.682838
3.48894
-0.530141
-3.05894
-0.387715
-2.75833
1.36909
2.65374
-0.947417
-1.56678
-1.81671
-2.14913
-1.55621
1.31587
2.42311
3.00606
-0.858984
4.73176
-0.0137617
-0.567327
0.984614
-1.03506
-2.67262
0.474348
-0.3112
1.55193
-0.800102
0.401415
-3.29328
-0.510452
3.69247
3.11095
0.993913
5.677
0.355283
0.00974808
-1.96809
4.3055
-1.31964
0.3599
-0.907771
-3.25057
0.0304218
1.45262
-1.10781
-1.74285
-2.8557
4.29003
1.26254
4.35525
5.65546
1.11347
6.46257
4.0731
2.24515
-0.688496
-2.5583
-4.05013
1.17253
-2.79333
1.20591
0.0635729
1.10274
-1.48624
0.793928
2.41547
4.31681
0.987865
-1.02813
5.83263
1.29437
-1.13612
0.0631972
0.837399
-1.09157
2.58249
1.00385
-1.8546
-3.10432
1.97101
2.66608
1.75718
-3.38985
0.819371
1.02234
-1.87292
1.59061
5.92311
-0.3321
1.49663
0.820052
0.812054
2.93508
2.17944
1.98943
-0.853954
-0.708817
-0.599177
-1.61733
1.82718
-4.82753
2.34042
-2.18067
3.15751
-0.158217
-1.48772
-1.86834
2.65928
2.11404
2.3111
2.13087
-1.38029
1.15637
1.5817
2.3846
-1.35836
0.767948
-3.02847
-1.72669
-1.6549
-0.132363
-1.10642
-1.91428
-0.365818
1.89019
0.283211
1.26716
2.4049
-3.00229
-1.27125
2.22622
-1.52423
1.84553
1.81701
-3.88221
3.19109
-0.94706
-2.60338
3.44851
-3.86432
4.31178
-4.53536
-4.37765
1.1288
4.02453
1.83924
-1.08062
2.61472
-2.08775
5.41792
-0.265523
4.84971
-3.2394
3.74044
-3.1588
-5.87286
4.78271
1.63567
1.61478
3.11984
-0.178236
0.37056
6.17501
2.69244
-2.05235
-1.60052
-0.0842761
1.60405
-2.35316
-1.28534
-1.54437
1.01856
-0.587651
-2.04348
1.13735
0.984659
-0.484629
-2.71893
-5.34962
-1.78082
-0.697246
2.6685
-1.27389
-2.97556
-0.336813
-2.08753
-6.93607
-2.72849
3.70046
-4.57356
-1.90243
2.90173
3.7507
-1.25512
-2.13407
-0.311901
0.207938
-1.06912
-5.51416
-0.0595034
-1.26501
-0.564916
-3.94916
1.01796
-0.236877
-6.12857
-0.437989
-2.04338
0.712244
0.242774
0.580707
-4.22686
-0.634477
2.09937
-0.163464
1.71651
1.9297
0.0509143
0.776425
1.26627
0.87158
0.489657
0.945097
-3.06952
2.32776
-4.1434
-3.46027
1.4828
0.390894
-1.16792
-1.14652
-1.26357
0.224109
1.56709
-1.8466
6.27438
1.09989
4.53163
0.251282
2.24539
-1.04496
-1.30136
2.15597
-1.9849
4.46064
-0.397544
-1.13898
0.375626
-0.0127991
1.7091
-0.890005
1.90992
-1.07006
3.07055
-0.785407
-2.01165
0.979255
-1.26761
-2.08649
-2.63701
-0.168856
-2.46508
3.79175
-0.236201
-1.93878
-2.90012
3.614
-2.67635
-2.61466
-1.55121
0.199607
2.11451
4.28773
2.31154
0.422534
0.967265
1.14016
2.57399
1.79486
-1.05444
-0.591698
-3.10101
0.384037
-2.26231
2.50546
-2.11963
-1.08854
0.445055
-0.161298
1.08929
-0.529505
0.716118
-0.503931
-1.57649
-1.41885
1.24099
0.432054
-1.19896
-0.112996
0.186928
1.80224
0.675107
-1.19005
0.347159
1.37922
-1.03926
0.279422
-7.74927
-4.25615
-0.319913
2.03079
1.55185
1.1836
0.16605
0.672324
2.34709
1.4409
-2.473
-1.2735
-3.50999
1.85316
-0.53469
0.0935505
1.63379
-4.66364
-1.84497
-1.47864
-0.687483
1.45269
-2.17971
-0.269112
0.993965
-5.61494
0.279381
-1.2056
1.86592
-3.47669
-7.71634
-1.03007
-0.305107
-0.863081
-5.10737
-1.13332
-2.08758
-0.866679
0.312005
-2.55777
-1.58756
2.29011
1.35434
-0.179508
0.302384
-5.98457
0.632136
-1.91505
0.0927371
1.81451
-4.9403
-4.7357
-5.01629
-0.792374
0.676817
-3.07311
0.0570231
-2.80485
-0.459818
-3.54252
-1.24678
-1.40762
-0.430951
-2.82934
-1.37085
2.98656
1.95636
1.63981
-3.19704
3.14529
-5.08698
-4.90935
0.146498
-0.677746
-0.759211
-4.62305
-4.43227
-3.1121
-4.26071
0.467669
-4.86993
-0.712465
2.38824
1.84409
-0.762587
1.40991
5.85093
0.506594
-4.5453
1.40589
-3.92161
-2.79215
2.21274
-0.327037
-2.04205
-3.9331
-1.45011
2.02594
-4.04731
2.37893
-1.70797
-1.43332
2.72879
1.21801
1.78368
-4.39195
-1.21141
-2.27575
-0.424298
-2.19521
-2.52924
-0.596323
1.05774
0.735505
-2.25956
-2.70501
-2.16129
2.25856
-3.18893
3.50776
-0.228866
-0.392667
-1.1684
2.40386
-0.364642
2.00857
3.14995
3.64629
3.33347
0.382298
-1.223
-4.41242
4.19256
1.6817
-3.15137
-0.178439
2.91712
1.56412
-0.7792
-2.12669
-2.6104
-0.559621
2.79223
1.59685
0.14231
-1.07952
-1.0231
-2.05633
1.55633
3.39589
-1.01556
-2.74022
-0.0496851
3.38791
-2.86622
2.7359
0.964377
-0.639387
1.8716
0.593176
-3.22834
-3.12258
1.6164
1.5979
-0.291936
-1.45174
0.559832
3.48646
-0.559388
3.7678
1.77045
-2.01001
-0.843725
-0.555524
0.64602
-1.86281
0.848986
-0.462724
-0.352468
-3.2691
2.56483
0.255151
0.044735
1.50591
3.26863
4.43123
4.60152
-0.00426258
-1.90475
-2.48352
0.503696
1.50303
0.662002
-7.2229
-4.66979
-4.11713
0.12464
-6.45535
-3.24164
-4.52997
0.145383
-6.36125
-2.66362
0.708832
-0.862178
-0.407956
2.60938
1.25794
-2.13785
0.922063
-1.52299
0.261477
-0.510569
-7.05223
0.494044
-2.40384
0.661325
-0.568947
-3.39411
-0.287125
-3.18387
-0.116195
-1.16776
-0.337745
-2.65635
-1.37674
2.83497
-1.58512
-4.64486
-0.525309
-2.23534
-0.672251
-4.36574
-3.41166
-2.29529
-2.2519
-5.55284
-4.46735
-4.71193
-2.57823
-0.275591
-4.48817
-1.65535
-5.64411
-1.12526
0.677775
0.455022
-2.43067
1.0941
-2.96928
-4.76593
-3.84073
-1.71027
-1.01453
-6.64568
-5.12265
-3.39782
-3.28815
3.14497
-2.32355
1.12596
0.137842
-3.09677
-0.174472
1.89402
2.44342
3.17213
-0.730387
-5.04597
-0.74972
3.17557
-2.07972
0.15562
-6.61476
-3.22582
0.720029
2.59475
-4.29568
-1.73104
-0.209638
-1.69432
-0.49092
0.86021
-2.37979
0.0370746
-5.58491
-1.03945
-0.641061
1.22877
-1.43811
-0.98978
-2.13427
-6.5262
0.38996
0.800567
-3.28866
-2.76041
-0.546474
-4.83862
-1.83324
-5.15413
-1.51811
-3.03994
1.62654
-3.11112
1.41386
1.05874
1.63233
-0.551085
-1.40586
1.44551
0.579796
-0.79114
-0.871309
0.102513
-0.313416
0.324803
-5.74242
-1.02219
-0.635933
-4.05995
-2.14849
-0.330796
-2.37995
-0.901224
0.956277
-3.4447
-2.2367
-0.688814
6.07078
0.804452
-0.551292
0.0718172
2.22617
0.750802
-2.37243
-1.10954
2.97719
-2.14219
-2.42118
-0.121438
3.38437
0.779021
0.577713
-2.02082
-1.27798
5.15921
-3.28397
1.0911
-1.76511
-1.27024
-4.81287
-5.56098
-3.90766
-7.91561
-3.00102
-2.44754
-7.72576
-2.89602
-0.271263
-3.46567
0.670197
-4.77977
-2.58905
1.54005
-2.89576
-1.07375
-3.405
-5.28701
1.49784
-3.37223
-3.88271
-4.76719
-10.3165
-4.25766
-3.31729
-0.121951
-5.86122
-2.74921
-1.751
-6.15527
-7.22193
-1.84174
2.1494
-3.70673
-0.0316242
1.60696
-4.21167
-1.97963
-1.00611
2.5881
-3.94073
-3.59184
-2.61581
-3.14597
-3.7811
-5.96199
-2.8887
-2.24217
-3.91649
-3.99027
-2.07844
-0.31187
0.375156
0.447264
2.14982
-1.71574
1.90748
-4.34887
-3.65097
-1.25494
-2.88601
-6.94558
-0.810009
-2.49131
-1.60011
-4.92239
-5.18564
-1.90257
-4.09625
-0.897257
-5.3867
-0.886324
-4.26845
2.41459
1.81366
0.779066
-0.933664
-0.462081
-2.33149
-0.49862
-0.684514
-2.89429
-0.981455
-3.79803
-2.86098
-3.7765
-0.168279
-3.02435
-2.82242
-1.82911
-5.80446
5.0292
5.36075
-0.0785632
-0.735028
-1.00644
-2.02123
3.31382
-0.949091
-3.09797
-1.97669
0.066848
5.95059
2.26287
-1.90151
-1.58949
2.83461
-5.64741
-5.27441
-4.34477
-1.66715
0.966916
1.25828
-3.27209
-1.05924
-0.456169
-0.328415
0.788072
-0.292365
-1.70797
-2.31205
-0.792761
1.75063
-2.11487
-0.792865
0.574623
-0.365283
0.364544
-0.810823
-0.353029
-2.3066
0.296179
-3.59162
1.75347
0.375702
-2.43324
-0.995335
-4.611
-1.10034
0.378031
0.283837
0.923735
1.08881
-3.4102
-3.19898
-3.07372
-0.226655
1.43713
-4.67034
-3.41771
-0.569669
1.13385
-0.562783
1.24609
1.84168
1.39446
-0.773875
-2.17645
-3.07754
-2.28693
1.75154
-1.03513
-8.12505
-5.84013
-6.80469
-2.03526
-7.88255
-2.22825
-7.34171
-5.24761
-8.36627
-4.08502
-4.08657
-0.59178
-0.360991
1.78475
-3.68382
-4.42522
-7.03838
-1.76014
-3.0572
-0.2656
-5.27759
-1.09683
-8.94349
-0.20034
-1.14063
-5.42334
0.302655
-4.32047
-0.214038
-6.49508
0.567526
-1.66324
0.371589
-1.44894
-2.517
0.763959
-4.73494
2.51986
-1.75233
-1.57868
-1.55215
-2.9312
-5.1887
-3.3033
-6.89873
-4.687
-3.91264
-3.58973
-6.9912
-2.40086
0.503871
-1.21393
3.22465
6.74203
4.6741
-0.252587
-1.65551
2.01483
3.21746
-5.20257
-8.43328
-1.57899
-5.91208
-3.43745
-4.83759
0.0638805
-1.75113
-2.89721
-0.775053
-2.24142
-1.33865
-0.572001
1.43364
-0.563767
2.46912
0.159473
1.98648
-3.42123
-1.62124
-0.232169
-3.62153
0.637097
-2.43771
-5.94283
-5.32218
-0.50859
2.60437
-0.487954
1.52795
0.314548
-3.00156
6.78881
-0.276492
-2.75932
0.617701
2.94109
-2.80619
2.27158
1.28369
-7.46459
-3.00057
-0.505818
-3.37489
-1.76095
-2.04715
1.07749
-3.03719
-2.42978
1.95094
-0.277829
-1.40508
2.67463
1.13546
-0.284733
2.49629
3.24073
2.57807
-0.387567
3.50211
0.495221
-0.531798
5.64238
-0.224756
0.917371
0.0272536
-3.3155
-0.262267
0.819952
2.83355
2.10827
-2.72172
0.571484
0.0591373
4.29114
1.48643
1.16606
2.66712
-6.33859
-0.155366
-0.213467
-1.18576
-2.61184
-3.35027
-0.195894
1.03028
0.673427
3.51371
1.37906
1.30839
-0.134887
-1.11912
1.48488
-4.38777
4.17912
-2.15814
-1.24122
-4.63345
-8.95085
-4.83523
-2.9596
-5.47031
-7.43274
-5.93327
-7.8262
-5.7804
-5.55455
-6.69026
2.13448
-2.73496
-2.46278
-4.42651
-1.38123
3.45334
3.67266
2.30606
-3.39791
-3.02076
-4.72343
-8.27228
-5.70485
-4.63076
-4.78765
-6.00617
-8.49647
-7.90294
-2.3232
-5.32051
-5.31082
-1.15526
-2.58112
-4.12811
-5.38262
3.51889
3.01666
-2.19939
1.60562
-2.10876
-3.70685
-1.77378
-3.24993
-1.26369
1.20259
-3.17023
-2.33849
-4.68003
-0.2138
-4.47972
-2.21326
1.07471
-7.07225
-0.267541
-2.47453
-0.181531
-1.03333
-1.03989
2.70679
-3.26934
1.75004
-5.00284
3.1403
1.30985
-2.04008
-2.11676
-0.87656
-1.70711
-4.68265
-0.674884
-1.59496
-3.35995
-2.112
-2.63949
-2.26193
-1.53941
-3.40074
-4.07368
-2.59598
1.63577
-1.99036
-4.53244
2.39492
-0.695778
2.36431
-4.10343
-1.05178
-2.64274
-3.74018
1.04301
-0.385502
-6.59549
-2.29284
1.13463
-2.24086
4.56436
-2.52721
-0.179418
-1.64044
-2.58324
-2.14028
1.60458
-0.552394
-1.63239
-3.43885
-0.920435
-2.32238
2.55131
-2.48213
0.0919901
1.94831
-3.33708
0.309229
-4.7006
-0.64884
2.512
-6.10335
0.421332
1.9871
-5.59963
2.06082
1.52975
-2.01661
-0.0858753
-1.1763
-0.666737
-4.82906
-0.879828
-0.337972
0.466475
3.53734
2.31679
-0.277485
2.34535
1.99384
0.964987
0.371427
-1.08059
-2.85795
3.76627
5.15712
-0.291127
-1.02138
-3.90516
-0.115119
4.50339
0.0951035
-0.205123
-3.87288
3.87523
-0.633351
-0.671327
1.34293
-3.09654
3.6164
-1.94714
-0.182215
-2.06444
0.813044
-3.77235
-2.99284
-0.450749
-4.77337
-5.46507
-5.17281
1.07111
-2.62046
-7.75257
-2.65757
-5.84195
-1.09158
-3.17374
-1.73158
-3.95945
-4.05557
-3.51015
3.33693
-1.88689
-2.77023
-2.82719
-2.576
-2.63785
-0.800631
-5.40795
-0.309603
-5.5704
0.425716
-0.107785
-0.671491
0.495283
-4.03256
-0.981372
-0.191745
-0.110047
0.665884
-0.153816
1.63015
-0.275401
1.60445
-3.65128
-2.22011
-2.29692
-5.15106
0.865992
-3.56968
-4.11924
-7.91499
-4.6012
-2.08141
-0.398793
-5.13566
-4.50873
-5.17889
-6.26789
1.71113
1.93445
3.44893
-2.60826
-1.69603
-3.46269
2.25447
-1.35834
-4.56367
-5.42187
1.97518
-5.20971
-5.28901
-3.27089
-1.68399
-0.00950548
-3.48761
-4.59743
-4.66185
-1.52045
-3.38229
-3.63533
2.89158
2.45218
1.43311
3.08005
-0.112825
-2.61519
-1.4922
-0.739354
-0.685399
-0.589894
-7.6474
-1.15356
-5.52672
3.32238
-1.55844
0.597458
1.58698
-0.680809
2.07991
-1.37066
1.69665
4.98471
0.206717
-3.15163
0.650253
0.70675
-1.00361
1.21359
0.756953
1.9786
-2.92416
-1.36889
-2.28997
-2.37556
2.44879
-3.64392
0.641
-3.9376
-3.0965
0.373685
-1.08758
-2.08212
-2.86762
-0.41873
-2.39197
-1.19759
-2.85664
-2.56279
-2.32162
-0.350762
-3.36803
-1.7639
2.13962
0.907106
2.2472
-2.61141
-3.63587
6.40909
4.52702
4.05465
1.04371
1.22515
1.7382
-2.95785
3.25342
-0.883767
-2.96104
3.32828
-4.79447
-3.68785
2.98891
-1.51071
1.88022
1.53519
2.95866
-1.9946
-3.70832
1.47244
6.29843
-0.347729
1.91039
-2.66454
0.674731
-4.24679
-0.927882
-5.65662
-4.6187
-4.0354
-3.12531
-7.477
-0.501013
-6.36823
-4.93107
-7.84876
-1.79199
0.0815336
-4.24086
-0.723832
-1.09512
1.02657
6.03576
0.0528264
-2.84821
-3.95026
-2.50258
-6.74531
-0.0099644
-1.24995
0.476998
-3.12434
-0.843836
0.109486
-6.11285
0.156595
-4.12215
-0.736451
1.85169
-0.674441
-0.593021
-0.732805
0.862959
-1.59599
0.925879
-2.65073
0.52586
-1.68687
-2.5755
-1.14241
-3.35427
-3.94055
-4.25534
-3.03778
-5.67784
-3.3956
-4.8529
-4.1797
-1.59147
-1.17454
1.02512
-0.726489
1.51336
-3.07443
-5.45624
-4.63735
0.717078
1.16619
0.410232
-1.70331
-4.3153
-3.34952
-0.387066
-4.15491
-4.33932
-3.62041
-0.512568
-2.08689
-5.85285
-3.90076
-0.30624
-1.06922
3.92068
-1.15286
-0.997101
0.693887
-4.53254
-3.09883
-5.01764
-2.8408
0.719333
-2.16904
-4.09173
-0.75154
-2.87194
0.627925
-7.01251
3.40951
-0.859211
-2.73713
2.64679
1.48209
3.90823
-2.26117
3.71501
0.695246
2.78277
-5.94063
0.0914184
3.74323
-2.77988
-0.0566664
-3.52217
-1.39652
-3.72363
-4.20347
0.861446
0.711872
2.28912
0.308856
0.467302
1.9894
2.78885
3.60826
-1.60225
1.23628
-4.33656
0.471594
0.19674
-1.44021
1.70593
-2.04748
-7.36161
-1.37821
1.25182
-2.10419
-2.22336
0.905037
-4.01488
-3.21089
-0.779965
1.03621
-0.525999
-0.963706
3.7498
2.89166
0.750558
-1.50847
-0.329217
-3.82525
1.06224
1.14383
-3.7359
0.612632
-0.532068
-3.49175
-0.224485
0.213379
1.46293
-0.316474
3.13759
-3.25955
0.130849
3.78326
-0.482623
0.265744
-3.8133
-1.90842
-4.26587
-1.80074
-8.56154
-4.35372
-5.3134
-4.46633
-5.46691
-6.16454
-4.16647
-2.39239
-1.71889
-2.23595
-4.57441
2.97833
10.7648
3.07343
1.39337
2.68229
-0.838182
-1.19597
-0.346231
-5.19622
-7.12917
0.631195
-6.84538
-4.22214
-5.84305
-2.78296
-5.73089
-1.07996
-3.32786
2.68963
0.27545
3.07682
-0.573313
2.80592
-1.00767
0.543497
-2.00025
-1.91435
-3.6786
-8.56791
-3.13299
-3.47542
-0.892711
-5.60395
-4.64317
-2.39129
0.365765
-2.97685
-0.982404
-1.09232
-0.309276
0.410093
3.17342
1.58445
-0.132259
1.38294
-5.22116
-1.39376
-4.9546
-1.07015
-1.77296
-0.374843
-5.19103
-4.81466
-3.04393
-1.01429
-10.6063
3.55045
-1.75966
-2.6613
-1.31165
-3.03716
5.58851
0.73382
-0.556134
1.92812
-3.26223
-1.48848
-1.75118
-1.04516
-1.8184
-7.88563
-3.58026
-3.53969
-3.55327
-1.33695
-4.54647
-2.01023
-2.69756
2.57203
0.168648
1.77696
-2.00369
-1.68088
0.812802
3.39107
0.589075
-2.90971
-1.50292
-3.75125
1.31165
5.72431
-3.27528
-5.84761
0.189454
-3.0549
-1.30622
-3.48455
-2.44792
-1.50568
-0.168811
4.65832
3.84578
0.978614
0.134613
-2.43822
-6.08296
-0.235504
-2.95602
-1.97318
2.70288
-0.474044
1.93815
0.524294
1.61851
0.789638
-0.640242
-3.84379
-0.278442
-0.451542
-2.31374
-3.15853
1.58256
1.85884
0.94024
-2.81472
0.582532
-2.85694
1.14203
-0.277051
0.547942
-2.27322
-0.611188
1.18124
0.987963
-4.51425
1.46119
-4.92446
3.63747
-0.0665883
0.151398
-1.39499
3.30707
4.96355
-1.31321
-0.520258
2.243
1.57321
-3.27032
-4.65907
-3.52388
-2.29964
-8.05288
-6.36365
-2.67739
2.45079
-1.94226
-6.28153
0.329314
0.541344
1.42721
4.56198
7.70375
3.46739
-1.37926
2.3199
2.76177
-5.7542
0.380087
-3.74094
-0.224401
-7.98727
0.462328
-0.483383
-3.26502
0.0822238
-2.40261
0.413978
-0.775385
0.509014
1.78619
0.514578
-1.86249
2.56896
-1.1133
-1.14832
-2.02037
1.96224
-6.40332
-3.85235
-2.87496
-6.3689
4.33132
1.16638
-6.61727
-3.77736
0.95832
1.36851
-1.09028
1.34644
-1.18026
0.377097
3.41292
-1.94924
4.1073
2.87322
-2.71912
0.764055
2.14273
-4.54365
-0.046005
0.384583
-2.94988
-2.68075
-1.87898
-0.714982
-3.23828
-0.637605
-3.67977
2.10926
2.1827
-1.4638
1.89328
-0.495532
-0.187404
-0.39424
5.91053
-5.32571
4.52315
-6.14971
-5.76896
-2.46869
1.24594
-0.717025
1.02024
-0.377683
0.244858
-0.416077
4.66072
1.86605
-1.56379
3.58323
2.38642
-0.93673
7.14022
-2.04746
-2.61245
-4.53267
0.324619
-0.315962
0.568462
1.60476
-2.81938
-0.289798
0.344121
1.02832
2.28729
-0.16679
0.094161
5.71085
2.0751
5.06133
4.06151
1.42568
-1.42152
1.33007
-3.04981
0.186906
-0.370531
-3.05348
-0.940988
-1.18452
-3.10061
-3.44708
2.88672
3.40506
0.0678478
-1.56164
-0.589176
-0.549256
1.22468
-1.33525
2.3501
2.28415
-0.999411
1.10927
-1.61975
5.64652
-0.973021
2.36512
2.54288
1.32057
1.98058
-2.56525
0.853972
2.00138
-0.509757
-0.64875
0.335017
-1.05901
3.2216
3.19982
1.06201
3.58665
-1.34563
0.00320976
-1.00543
1.36088
-1.32608
-3.53804
1.06175
-0.829546
-0.0284791
1.11111
3.23052
-2.09859
-2.81721
-0.406228
3.15369
4.61051
4.23482
7.83197
0.38613
4.63254
0.633769
1.46843
-0.736391
-1.76015
-0.486333
-1.0698
-3.0337
-4.68224
-6.52123
0.275521
-0.851277
-2.7629
-4.03365
4.24585
-2.19966
1.11427
3.28247
8.40408
7.33315
3.66318
2.11016
3.58244
-2.8482
-3.02677
-3.66817
-3.22186
-1.08907
-0.920092
-0.611141
1.88752
-3.00123
-1.58807
-0.146598
1.68243
-3.44274
2.42866
2.52343
2.93252
3.50566
2.40923
1.77103
-2.82627
2.09042
5.90901
2.96124
-0.601703
-3.07119
-0.451123
2.73351
2.73867
-1.56815
-5.81429
-1.63785
-0.0898548
3.23441
3.91085
1.41071
4.38551
4.5877
0.455857
4.58912
-1.00543
1.54594
-5.375
-1.04701
-0.332187
-2.8411
-1.16664
-0.783401
2.10251
-1.3426
3.6946
-0.98781
1.32487
-4.13135
-1.58315
3.28782
1.35161
5.22286
-0.100233
-3.37922
0.0894087
0.0400861
-0.00515557
0.0491091
1.3313
-1.85565
-3.65095
-1.74895
-2.30477
-2.10549
-1.33079
-2.98877
-1.92113
2.9655
-0.290164
1.14726
-3.01264
-0.170293
-1.41953
4.42329
-0.264812
-0.560128
-0.957245
6.09962
2.7222
-1.81619
-2.43129
-1.24662
-3.15903
-1.23156
1.04135
-2.59544
-0.27652
3.13659
-0.159591
-5.14643
0.407849
2.09734
-0.721858
-0.900834
-3.91504
0.765183
2.05575
0.986493
-0.470936
0.236473
-0.911239
-3.75796
1.53565
0.345731
-2.08917
1.77004
-3.51724
-2.99569
-1.75157
2.3846
0.836519
-1.71451
8.12686
11.2672
-2.11193
3.68216
-0.361288
2.50868
0.901593
-2.0112
2.29796
5.36074
1.90359
-3.61811
-3.01113
3.14468
2.05615
2.45091
4.26572
2.76777
8.84028
8.52186
5.41997
-1.90194
0.351803
0.397742
3.16154
-0.106409
1.51477
0.761041
0.433186
0.149689
-0.0834153
0.168665
0.300618
-4.6203
0.927348
3.74499
0.473703
1.88175
0.180715
7.36893
4.89062
6.71234
-0.248077
3.77752
-0.491117
-1.58909
-2.27
-1.27217
-2.68282
-3.49779
-4.2964
0.406258
-5.72087
0.216775
-1.68957
4.34297
3.48927
2.09214
3.90442
6.04554
4.35881
-0.373836
-2.70281
-0.644402
2.51726
0.279967
1.31669
-1.6516
-1.58869
-3.64776
-0.680898
-1.36457
-0.46482
-1.80482
2.22469
4.88622
3.79465
3.78081
3.04349
2.7364
1.97961
1.20899
2.06963
1.08548
-2.67839
5.12697
2.20115
-0.993257
0.551299
-0.277817
-3.68729
-1.62626
1.97625
1.43482
-1.95002
3.80816
0.32822
1.845
4.69296
3.76397
-1.54225
1.11252
0.371063
1.67306
-1.69731
4.16107
2.89664
-6.2868
-2.3884
-0.11816
3.75214
-1.51106
-3.55854
-3.21339
-0.991969
-1.23917
-1.49463
-0.929333
2.2439
2.32232
3.41189
0.836359
2.88102
2.72384
-0.605725
0.482831
-4.19611
3.04212
0.576557
0.0811373
-2.70657
-3.31421
4.05462
3.04615
2.4752
2.92704
-1.80409
-2.61309
3.31452
-2.24956
-4.53897
-1.3883
-2.78188
3.28358
1.56043
1.98261
-3.48863
1.12068
0.623477
0.403837
-0.845355
-0.96234
-0.142954
-0.140911
-2.60492
4.71129
0.199925
0.339941
3.11351
-5.49109
8.82277
9.74534
8.45027
4.20211
5.50223
2.44342
2.0969
-0.230779
1.27019
0.940573
0.806486
0.0695751
-3.40691
-1.5758
4.87016
2.98258
4.95132
6.52986
11.0355
5.10356
10.2785
9.86236
9.1889
1.68374
2.93728
0.165759
-3.57547
-1.49799
6.87563
1.62801
3.61379
0.302019
0.901281
1.85359
1.74831
3.62358
3.40646
6.57142
8.61288
7.70306
6.68343
4.51321
1.58842
1.90569
2.53392
6.56843
3.78833
1.0972
1.86293
1.17263
2.68997
-0.913643
1.72952
-1.22374
0.24763
1.72666
6.7404
6.05653
5.9501
9.47864
3.07235
2.90912
4.50847
4.59538
3.64172
6.7044
-1.79825
-4.82992
1.50431
-3.52641
0.704331
2.89079
3.07371
0.0465031
-0.0732504
2.92793
4.39409
2.65124
4.56598
6.73929
6.32969
5.89723
4.26278
3.60569
7.1273
3.76763
7.65776
-1.92602
0.0087453
-2.08009
4.46411
-0.034646
3.69858
1.43106
-1.82342
0.155687
0.906238
-3.36826
3.05087
-0.592748
7.9196
0.446144
-0.91157
-2.53227
1.08366
1.27447
1.58169
0.854172
-1.43506
-0.647113
-0.213615
-0.256855
-0.739411
-2.1396
1.71731
1.82965
3.25737
4.47402
2.87336
-0.428559
4.75196
0.532723
0.667621
2.23685
4.61969
1.45293
-0.105642
0.90194
0.170181
2.3363
-2.4007
0.845085
1.53103
-5.15974
0.33094
2.66435
-1.46843
4.09578
3.23191
7.31137
0.857144
-0.871294
0.705488
2.4565
0.503388
2.06308
-1.81431
-2.10495
4.34216
-0.0460428
-3.1325
1.33216
-3.21532
-1.10352
0.615734
-0.736897
-0.420835
2.99103
1.56962
-0.278695
14.3297
8.2534
4.89076
4.87885
7.91087
8.07686
5.47596
1.28306
0.206356
0.898786
4.36327
1.6903
4.2887
5.20815
9.59542
2.1562
6.12294
9.29898
11.7026
11.5822
15.2264
1.23001
6.91353
1.94102
6.56399
1.01344
0.701449
0.350825
4.88916
0.486987
0.479279
4.74612
-0.133825
3.00217
0.976116
6.98279
-0.0570814
4.65416
0.474937
7.50636
7.70822
6.79989
2.07387
-1.13635
4.227
6.56103
3.67547
0.0267969
-0.601857
-5.48991
4.87616
4.20288
9.03046
1.12241
5.49264
6.1999
3.69585
9.9902
-0.0211439
9.86584
8.86032
6.42612
5.67488
4.10078
0.0183775
-0.657229
3.68701
-0.437743
-0.1195
3.12958
0.11562
1.59524
3.70506
2.33492
1.83881
0.508862
4.04785
3.32759
7.38431
5.81761
7.86854
4.76076
4.26004
2.3793
-0.837753
3.53244
-0.718512
4.05394
2.23551
0.739121
0.702091
-0.251378
0.990106
4.92095
1.27079
4.82205
1.78033
7.23408
1.4406
4.13075
0.517761
2.11166
5.82444
-1.3732
7.07169
1.52093
-0.501294
-0.897896
1.80234
0.754988
1.79174
1.53049
2.19556
-1.65586
1.56204
-0.557225
-0.137034
5.9447
4.7616
4.36678
2.68933
4.84907
3.38925
1.86175
1.35196
-2.82817
1.47247
-0.473673
1.09638
1.06048
2.268
-1.14436
-0.0210704
-3.57098
-0.976081
1.82938
5.6946
1.96332
1.60231
6.56499
2.29831
-2.89985
0.543452
1.73839
5.96502
1.47148
-4.43259
3.64973
1.21119
0.442086
-0.397771
1.87327
3.84159
3.90803
2.91657
2.12498
3.59671
5.9431
4.87576
1.35575
12.8464
10.5367
4.16067
11.0596
6.78413
7.51937
7.04429
5.03481
2.31605
7.91132
1.67702
5.58382
3.66048
5.78615
7.58932
8.68716
13.1885
8.60113
13.3625
16.294
9.34819
15.261
11.3784
13.9647
6.40836
9.79127
7.97964
3.82667
9.42188
5.80225
7.32777
4.45403
6.62077
5.07374
3.86849
7.60516
7.83856
8.69521
8.76498
15.6076
6.79042
5.82959
4.72798
7.60037
0.44191
8.60552
5.90267
6.79192
4.57259
6.51948
3.80542
5.342
5.16765
4.93581
11.2674
8.28753
3.37798
9.67838
6.39318
8.69415
13.2308
4.54443
0.298156
6.1996
-2.75071
4.20878
4.65704
4.71452
6.69316
2.40841
2.92066
3.60017
0.394045
3.00599
9.03141
0.690132
7.87585
5.89733
9.07468
7.82291
7.71068
2.19604
3.17528
1.92569
2.05882
5.10531
2.12297
7.39329
1.06545
6.19807
1.2099
1.02422
5.10728
4.0783
3.20324
2.98828
5.96625
3.52803
8.69726
5.78619
8.84594
2.01554
2.93726
1.10893
3.98437
2.49904
2.6342
0.730827
-0.714308
4.22146
8.85678
3.42367
-3.56298
-1.88766
3.44001
1.85134
3.71794
1.92646
-0.167436
6.85001
3.7037
2.48401
1.46618
0.36346
2.65393
5.0045
-3.29368
0.691443
3.42363
2.86631
5.72545
-0.254682
-0.845336
-0.189785
2.99147
7.09764
-2.64597
2.74175
2.42391
-0.593634
1.26291
-0.204912
-0.707671
2.42447
3.63082
-0.419221
-6.83914
1.81832
-2.34978
1.17365
-0.75279
-1.86977
-4.07314
1.01182
-0.137591
-1.99298
4.70498
6.13223
0.195191
-0.834435
15.5515
13.6035
9.07325
10.1918
6.33213
11.2535
13.1112
6.14607
6.93415
4.956
6.70051
9.84617
9.88602
7.3911
5.44993
10.7707
10.1532
9.12285
12.5613
16.4948
10.7101
-0.0715029
15.2386
0.252578
9.85584
0.341543
3.49701
0.0383351
9.83355
-0.743283
0.768564
6.55478
0.34299
8.86959
0.246433
13.4107
0.588652
11.6343
0.389257
18.4608
6.29359
8.59944
7.23404
12.2248
9.89057
9.12216
5.98509
4.05707
3.28979
8.67078
6.58401
4.35469
5.82943
8.18774
5.99887
8.92066
5.82869
7.0931
11.5133
10.9957
9.44806
16.4608
6.15502
5.06297
4.54818
7.82565
2.17362
2.61603
4.58046
3.32261
5.53788
9.44093
8.35896
5.13058
7.36509
6.58985
9.98733
7.31982
6.68639
5.39921
11.0611
1.17356
0.93199
3.13241
5.58247
6.05802
7.53555
6.37069
5.09623
3.99039
2.56446
4.98123
4.03853
2.06948
5.35309
4.70543
6.87621
8.29161
11.5302
9.06378
9.49978
4.52561
4.45671
8.56626
3.12091
-1.18268
2.36767
-1.32137
3.73425
1.42603
1.55419
-0.525409
3.15218
3.63849
7.25795
2.3496
2.97401
3.54274
3.86861
7.30109
-2.83243
7.07456
2.27376
1.9863
4.94797
-0.416526
1.42196
6.38302
-0.0532625
-2.13712
5.31253
0.497132
1.32657
3.48663
0.102931
2.78675
5.10759
2.00154
2.73572
7.20694
0.166105
-1.2801
-0.916974
-0.494188
2.07458
-1.64063
-1.00481
-0.949862
2.82916
0.384266
4.78635
-4.74083
-3.6474
-2.15689
-4.22147
4.1658
2.68028
-0.353262
2.55852
7.48844
17.6055
14.4667
14.624
10.6962
12.5936
10.7913
10.9942
8.56219
8.84792
13.7503
12.1151
14.958
9.87801
15.3786
11.5412
9.67553
16.0053
15.243
16.908
14.7731
11.0164
10.5854
14.664
8.06378
14.7649
7.74001
12.955
10.179
11.7483
10.7155
9.43294
8.3353
5.72136
14.7601
6.42025
8.28911
13.3901
12.6486
13.6668
17.8487
10.869
14.7444
7.5715
7.76614
10.2223
9.08063
9.47294
8.40762
4.77305
9.16252
11.2279
6.85254
7.59014
8.46744
8.8207
7.46659
10.5343
9.84263
11.6894
11.3763
11.336
11.6185
10.3543
5.68918
9.44532
1.84422
8.69062
4.84309
4.97528
6.93971
7.46077
8.41005
8.02684
5.85018
6.28734
7.36149
7.71264
5.96969
12.8179
10.0338
7.19754
8.46947
1.41352
5.99383
9.52313
3.67557
8.77743
4.05574
2.9853
7.10858
6.8528
1.51453
0.391117
0.500002
4.69
9.05334
6.80115
11.5999
9.59223
6.89431
7.74785
4.22261
5.71644
3.58193
5.10709
5.63692
5.91471
0.435995
7.96129
4.4523
1.01105
3.20698
4.07173
5.04172
-0.00964312
0.674371
6.16731
7.66001
2.08045
7.17666
3.43644
1.65821
3.71663
1.62502
5.24228
-0.027818
6.56275
4.78147
5.53286
1.64878
1.96456
3.91987
2.06302
2.79879
4.02365
4.28874
6.04096
4.19621
1.91902
4.9028
-2.73623
3.11636
4.25503
0.310879
5.91474
-1.27273
0.667018
-0.387137
2.33837
-0.610383
1.73358
-0.28751
3.09888
3.12522
1.82457
2.02957
-1.84678
1.52036
3.1565
-3.4113
)
;

boundaryField
{
    hotSide
    {
        type            calculated;
        value           nonuniform List<scalar> 
400
(
4.03833
1.94066
3.398
2.12447
-0.202135
1.01967
-2.23542
0.303458
-1.04784
-0.916949
-1.47562
5.01787
6.24813
4.9255
9.5243
10.2831
15.8573
14.4456
17.2267
19.361
1.77418
1.35057
3.98743
1.97812
2.87553
-0.874896
2.1453
-1.09374
-0.125834
1.96531
1.86812
0.756155
-0.0247616
-0.00319569
12.668
11.2087
9.78381
12.1385
15.281
16.2244
5.24921
5.11844
0.129388
0.515651
-2.46048
-1.44734
-0.704872
-1.98914
-3.51271
-2.61507
-3.04874
1.50884
0.772178
1.34931
-0.707819
9.91676
6.42399
5.76503
10.7531
16.3838
1.35596
1.88624
5.72752
-1.71146
-6.6932
1.5465
-0.203734
-1.19262
-7.82458
-1.83042
0.274922
-2.56582
3.53945
0.344345
5.08963
5.67165
6.41486
12.6665
11.874
12.4581
2.12501
5.21689
0.989595
-4.33479
0.000131763
2.55255
-3.74002
2.85179
-3.70343
0.716775
-4.44911
-0.65665
2.87358
2.71422
1.04941
6.97469
9.44953
8.39341
8.01646
14.3575
4.44649
-2.57691
0.443483
-0.758779
0.731989
1.71806
-4.48199
0.0708549
-1.82252
-3.60097
-3.40674
-3.01004
-1.96626
0.0305937
3.92238
3.91859
9.61794
9.13083
12.9398
12.5569
3.0947
4.47775
2.00233
0.331451
0.180368
-6.16084
-2.82305
-7.01386
-4.32843
-4.28829
-2.81946
-0.541302
-3.35176
-2.17845
2.31792
3.57443
7.01916
8.65764
14.7992
12.7613
-0.550269
1.13971
-0.0114943
3.70283
-4.05857
-3.6027
-6.82632
-4.72461
-6.28689
-3.99243
-1.90609
-7.29915
-2.21392
2.42372
-0.592742
1.24864