/*--------------------------------*- C++ -*----------------------------------*\
| =========                 |                                                 |
| \\      /  F ield         | OpenFOAM: The Open Source CFD Toolbox           |
|  \\    /   O peration     | Version:  2212                                  |
|   \\  /    A nd           | Website:  www.openfoam.com                      |
|    \\/     M anipulation  |                                                 |
\*---------------------------------------------------------------------------*/
FoamFile
{
    version     2.0;
    format      ascii;
    arch        "LSB;label=32;scalar=64";
    class       volScalarField;
    location    "0";
    object      relativeErrorField;
}
// * * * * * * * * * * * * * * * * * * * * * * * * * * * * * * * * * * * * * //

dimensions      [0 0 0 1 0 0 0];

internalField   nonuniform List<scalar> 
3200
(
0.00891257
0.00233067
0.012361
0.00107469
0.0032713
0.00994126
0.00601619
0.00450062
0.00662321
0.00205273
0.00842582
0.0118356
0.0104188
0.0204178
0.00235116
0.0195269
0.0181332
0.0123854
0.0143298
0.0158331
0.0118604
0.00115381
0.00814344
0.00605818
0.00611197
0.0148781
0.0038954
0.00302472
0.00700653
0.010841
0.00174062
0.00025294
0.00898019
0.00677094
0.000624008
0.0158058
0.00873837
0.00609565
0.0177503
0.0107267
0.00793302
8.72434e-05
0.0124338
0.00440288
0.0126878
0.00220719
0.00764852
0.00291294
0.00912658
0.00297268
0.00470392
0.00108174
0.00693617
0.00947017
0.00905098
0.00316482
0.00257854
0.00203487
0.00928125
0.011052
0.00363589
0.00298061
0.00163797
0.000945502
0.0082767
0.00841072
0.0055269
0.0052453
0.00602041
0.00823334
0.00283483
0.011712
0.0024885
0.0125422
0.00345724
0.00870466
0.0078319
0.00897819
0.0107276
0.0025445
0.00986171
0.00850581
0.00026572
0.00807797
0.000560433
0.00757731
0.00295278
0.00216809
0.00403387
0.00599838
0.000221487
0.0176837
0.0115241
0.00110741
0.000492341
0.000512048
0.0154908
0.00398353
0.0104164
0.0197495
0.00869278
0.00351604
0.00569474
0.00258286
0.00629401
0.0023349
0.011529
0.00559855
0.00951702
0.00862692
0.00635059
0.00530624
0.00130814
0.0104031
0.0103911
0.00115857
0.0105207
0.00793703
0.001127
0.0140492
0.0156142
0.0131123
0.00283364
0.00527705
0.0153565
0.00422767
0.00247978
0.00174782
0.0049195
0.0105967
0.0108232
0.00504718
0.0189648
0.00328047
0.00407161
0.0041405
0.00267016
0.00979904
0.00765481
0.0103407
0.000526192
4.91343e-05
0.00378553
0.00163363
0.00219409
0.0103617
0.00364831
0.00144202
0.00241616
0.00795673
0.00720149
0.00281265
0.0127546
0.0194107
0.00110512
0.00403611
0.00170146
0.0151523
0.0128538
0.00128781
0.00282067
0.00109178
0.0119648
0.00259466
0.0121806
0.010321
0.00998607
0.000354755
0.00165579
0.00734344
0.00403153
0.00633481
0.0118567
0.00907202
0.00446835
0.000459726
0.0108166
0.0113472
0.00398789
0.0217927
0.00203449
0.00924644
0.00547175
0.000332581
0.0101213
0.00373693
0.00217904
0.00205595
0.000194811
0.000437594
0.000890735
0.00346944
0.00134338
0.00775913
0.00145839
0.0196241
3.45867e-05
0.0117353
0.00227251
0.0184686
0.00390506
0.0103026
0.0107739
0.0151326
0.00481885
0.00687079
0.000813943
0.00716508
0.000771305
0.00364708
0.00178803
0.00389507
0.0203922
0.00604353
0.00227386
0.00965125
0.00632355
0.00858309
0.00894029
0.0101114
0.00883481
0.0029466
0.00607912
0.000785621
0.00386988
0.0152185
0.00107911
0.00515349
0.000725176
0.000433605
0.00296384
0.00153194
0.00560113
0.010661
0.00534571
0.00376
0.0110865
0.00434129
0.00950695
0.00673446
0.00218291
0.0101257
0.00288123
0.00309569
0.00626244
0.00215148
0.0116396
0.0115767
0.00144143
0.0201039
0.00599467
0.00343932
0.0199215
0.00117839
0.00840633
0.01662
0.00481807
0.0107516
0.0146272
0.00763798
0.00321139
0.00308669
0.0144531
0.00767064
0.00589513
0.00224729
0.00563546
0.0189868
0.00310593
0.0038516
0.00337518
0.00387051
0.00765335
0.0146044
0.000764663
0.00562414
0.00716951
0.00975347
0.00416269
0.00249439
0.00777358
0.00287164
0.000476883
0.0101135
0.0142268
0.00839524
0.00274747
0.0176907
0.00405844
0.0101994
0.0035602
0.00453972
0.00414079
0.00882987
0.00546274
0.00448368
0.000243743
0.00370554
0.00310566
0.000237858
0.00599019
0.00393507
0.0176227
0.00767009
0.00517093
0.000984452
0.00225223
0.0115071
0.00174841
0.0100882
0.00127866
0.00909698
0.00451548
0.00875295
0.00312513
0.00516853
0.00599348
0.00709072
0.00513481
0.00434203
0.00701009
0.00869043
0.00248106
0.0136537
3.96704e-05
0.00163381
0.00283296
0.00297584
0.00767968
0.00136263
0.000893963
0.00445942
0.00230033
0.00115497
0.0094841
0.00147146
0.0106548
0.00898558
0.00287337
0.0164236
0.00104613
2.86856e-05
0.00578691
0.0126489
0.00387347
0.00105548
0.00266012
0.00951902
8.90449e-05
0.00425074
0.00324174
0.00510133
0.0083627
0.0125714
0.00370266
0.0127837
0.0166149
0.00327402
0.0190173
0.0119932
0.00673094
0.00206305
0.0076606
0.0121188
0.00350577
0.00834565
0.00360044
0.000189699
0.00328916
0.00443202
0.00236753
0.00720465
0.0128811
0.00294943
0.00307175
0.0174392
0.00387301
0.00340201
0.000189368
0.00251051
0.00333324
0.00788262
0.00306237
0.00565419
0.00945824
0.00600156
0.00811339
0.00534488
0.0103074
0.00249098
0.00310803
0.00569492
0.00483823
0.0180251
0.00101122
0.00455995
0.00250012
0.00247726
0.00895884
0.00665517
0.00619005
0.00265617
0.00220376
0.00186197
0.0050234
0.0056724
0.0149802
0.00725971
0.00676234
0.00979013
0.000490566
0.00461347
0.00579536
0.00825191
0.00656296
0.00717823
0.00662178
0.00429142
0.00359683
0.00492142
0.00756312
0.00430721
0.0024343
0.00959644
0.00546945
0.00524015
0.000418983
0.00350129
0.00605662
0.00115729
0.00597975
0.000896053
0.00400998
0.00761251
0.00950659
0.00402678
0.00705431
0.00483162
0.00585198
0.00576291
0.0125561
0.0103193
0.003062
0.00841533
0.0111447
0.0124857
0.0139287
0.0146484
0.0141373
0.00364513
0.0129961
0.00593969
0.00349023
0.00844653
0.00674559
0.0175093
0.000858291
0.0156799
0.0104755
0.0120976
0.0104223
0.0193762
0.0157785
0.00539576
0.00532646
0.0102902
0.00058784
0.00122207
0.0203637
0.00887885
0.00676803
0.00527813
0.000277934
0.0052903
0.00776145
0.0042398
0.00509459
0.0033603
0.00193883
0.00674236
0.00328497
0.002842
0.00139755
0.0078333
0.0153974
0.00512073
0.00200318
0.00766098
0.00365528
0.00853559
0.00096617
0.0059899
0.0199127
0.00783893
0.0106407
0.0131637
0.00548094
0.00836788
0.0108256
0.00362512
0.00627462
0.000916515
0.000610553
0.00313654
0.0161634
0.000174274
0.00370212
0.0016522
0.0115447
0.00297509
0.000692296
0.0179158
0.00128098
0.00598007
0.00208602
0.000711633
0.00170366
0.012411
0.0018644
0.0061726
0.00048945
0.00513709
0.00577128
0.000152164
0.00231873
0.00377888
0.00259932
0.0014595
0.00281587
0.00914355
0.006934
0.0123451
0.0103139
0.00442218
0.00116654
0.00348791
0.00342653
0.00377905
0.000670703
0.00469224
0.00563294
0.0191318
0.00335192
0.013802
0.000764858
0.00683048
0.00317703
0.00395473
0.00654963
0.00602889
0.0135486
0.0012077
0.00346128
0.00114203
3.89348e-05
0.00520219
0.00271069
0.00582051
0.00326282
0.00936653
0.00244175
0.00625203
0.00304211
0.00393604
0.00647558
0.00818027
0.000523581
0.00764079
0.0117499
0.000731838
0.00600705
0.00898687
0.011202
0.00829867
0.00811094
0.0048143
0.000619797
0.00656884
0.0133258
0.00718637
0.00133932
0.00306527
0.00361202
0.00815159
0.00568216
0.00333698
0.00187195
0.00980805
0.00121442
0.00715323
0.00792206
0.0067028
0.00344289
0.00140802
0.000510458
0.00344845
0.00167689
0.00226867
0.00159696
0.00499706
0.00458724
0.00401165
0.0013964
0.00387422
0.000365046
0.000603762
0.00581995
0.00217977
0.00384193
0.0011207
0.00445238
0.00335513
0.000902191
0.0250247
0.013747
0.00103351
0.00656212
0.00501557
0.00382613
0.000536853
0.00221802
0.00774278
0.00475304
0.00815701
0.00420021
0.0115757
0.00611119
0.00176316
0.000308474
0.00538715
0.0153775
0.0060836
0.00487586
0.00226712
0.00479088
0.00718907
0.000887645
0.00327876
0.018523
0.000921689
0.00347449
0.00537391
0.0100045
0.0221843
0.00295866
0.000875564
0.00247473
0.0146343
0.00324568
0.00597699
0.00248141
0.000893543
0.00732884
0.00455203
0.00657191
0.00389006
0.000516082
0.000870141
0.0172358
0.00182179
0.00561982
0.000271985
0.00531775
0.0144668
0.0138563
0.0146656
0.00231488
0.00197608
0.00896847
0.000166376
0.00818369
0.00134192
0.010343
0.0036424
0.00411531
0.00126093
0.00828527
0.00401753
0.00875916
0.00574104
0.00490182
0.00955218
0.00939156
0.0151788
0.0146384
0.000436517
0.0020182
0.0022596
0.013754
0.0131838
0.00925697
0.012676
0.0013919
0.0145017
0.00212292
0.0071211
0.00550249
0.00227702
0.00421255
0.01749
0.00154319
0.0138405
0.00427867
0.0119281
0.00848768
0.00672249
0.000993049
0.00619796
0.0119338
0.0043992
0.00614608
0.0122804
0.00722046
0.00518625
0.00435456
0.00829508
0.00370474
0.00542844
0.0133735
0.0036902
0.00706731
0.00131724
0.00681222
0.00784518
0.00184881
0.00327788
0.00227834
0.00699689
0.00837416
0.00669003
0.0069911
0.00987225
0.010862
0.000708946
0.00121685
0.00362246
0.00745629
0.00113156
0.00623564
0.00978211
0.0115485
0.0105554
0.00121018
0.00387015
0.0139582
0.0132583
0.00531651
0.00996019
0.000563868
0.00921721
0.00494215
0.00246228
0.0067216
0.00825249
0.00176971
0.00883292
0.00505318
0.000450485
0.00341828
0.00324036
0.00664502
0.00502857
0.0109702
0.00328005
0.00884848
0.000160406
0.0109357
0.00925031
0.00882873
0.00311185
0.00206317
0.00603965
0.00191439
0.0104206
0.0100811
0.00521953
0.00516088
0.000943083
0.00469065
0.00180909
0.0115
0.00184504
0.0124267
0.00583874
0.00662831
0.00278212
0.00183168
0.00212995
0.00614153
0.00279897
0.00152552
0.00116206
0.0107783
0.00845677
0.000841341
0.00014752
0.00496632
0.0107803
0.0146156
0.015178
1.2251e-05
0.00547092
0.00712752
0.00144432
0.00430602
0.00189494
0.0206589
0.0133477
0.0117625
0.000356005
0.0184382
0.00926128
0.0129481
0.000415822
0.0182087
0.00763099
0.00203253
0.00247439
0.00117175
0.00749957
0.00368259
0.00625506
0.00269591
0.00444947
0.000763318
0.00148935
0.0205575
0.00143932
0.00700032
0.00192545
0.00165649
0.00988413
0.000836496
0.00928111
0.000338947
0.00340899
0.000986736
0.0077666
0.00402815
0.0082993
0.00472851
0.0138494
0.00156534
0.00665657
0.00200053
0.0129834
0.01014
0.00681858
0.00668731
0.0164867
0.0132638
0.0139927
0.00765911
0.000819103
0.0133475
0.0049261
0.0168074
0.0033531
0.0020209
0.00135735
0.0073915
0.00332581
0.00902133
0.014472
0.011656
0.00518757
0.00307574
0.0201394
0.0155192
0.0102922
0.00995998
0.00952779
0.00704139
0.00341356
0.000418102
0.00939821
0.000529793
0.00575444
0.00742743
0.00964623
0.00226508
0.0156439
0.00232341
0.00983692
0.00643943
0.000481639
0.0204644
0.00997663
0.00222633
0.00802198
0.0132806
0.00535239
0.000648356
0.00524179
0.00151938
0.00266347
0.00737184
0.000114896
0.0173148
0.00322354
0.00202833
0.00388702
0.0045479
0.0031291
0.00674512
0.0206188
0.00123168
0.00252798
0.0103829
0.00871433
0.00172516
0.0152764
0.00578887
0.0162792
0.0047963
0.00960739
0.00514216
0.00983865
0.00447251
0.00334989
0.00527162
0.0017795
0.00453882
0.00466592
0.00187113
0.0025527
0.00281087
0.000330662
0.00101084
0.0010475
0.0185195
0.00329678
0.00205124
0.0130975
0.00693234
0.00106755
0.00768217
0.00290959
0.00308789
0.0111247
0.00737615
0.00227146
0.020018
0.00265245
0.0018176
0.000236765
0.00733875
0.00247496
0.00782024
0.00365729
0.0098135
0.0070613
0.00798122
0.000400331
0.0111575
0.00256843
0.00190485
0.00666351
0.00421431
0.017014
0.00940753
0.00312374
0.00504951
0.00363084
0.0137456
0.0158694
0.0111431
0.0225585
0.00854878
0.00697051
0.0220027
0.00824966
0.000773066
0.00988273
0.00191254
0.013651
0.0074005
0.00440569
0.00829038
0.00307595
0.00993923
0.0154247
0.00436696
0.00982464
0.0113035
0.0138686
0.029993
0.0123716
0.00963545
0.000354149
0.0170211
0.0079854
0.00508795
0.0178952
0.0210099
0.00536176
0.00626206
0.010807
9.2263e-05
0.00469072
0.0125323
0.00588801
0.00299073
0.00768851
0.0116993
0.010657
0.00775681
0.00932459
0.0112034
0.0176622
0.00855769
0.00664353
0.0116084
0.0118326
0.00616676
0.000925886
0.00111448
0.00132952
0.0063942
0.00510538
0.00578845
0.0131923
0.0110699
0.00380304
0.00874127
0.0210263
0.002451
0.00753551
0.00483854
0.0148826
0.0156785
0.00575315
0.01239
0.002715
0.0163071
0.00268454
0.0129353
0.0073211
0.00550173
0.00236415
0.00289071
0.00143023
0.00721369
0.0015421
0.00211613
0.00894391
0.00303177
0.0117287
0.00883304
0.0116583
0.000519488
0.00933744
0.0087159
0.00565022
0.0179369
0.0155475
0.0165794
0.000243076
0.00227506
0.00311604
0.00638751
0.0104702
0.00299787
0.00978251
0.00623992
0.000210961
0.018774
0.00713773
0.00599689
0.00501246
0.00893895
0.0178106
0.016637
0.0137076
0.00526124
0.00305232
0.00397331
0.0103355
0.00334672
0.00144159
0.00105983
0.00254288
0.000943216
0.00550916
0.00745627
0.00255616
0.00564376
0.00681705
0.00255546
0.00185196
0.00117727
0.00117495
0.0026136
0.00113811
0.00743735
0.000955165
0.011585
0.00565699
0.00121228
0.00785233
0.00328158
0.0152016
0.0036274
0.00124615
0.000935581
0.00304462
0.0035885
0.0112388
0.0105424
0.0101294
0.000746938
0.00473611
0.0153918
0.0112641
0.00187762
0.00373738
0.00185517
0.00410788
0.00607165
0.00459749
0.00220845
0.00620748
0.00877115
0.00651283
0.00498423
0.00294337
0.0230879
0.0165858
0.0193173
0.0057765
0.0223724
0.00632561
0.0208502
0.0149115
0.0237894
0.0116245
0.0116379
0.0016866
0.00102959
0.00509325
0.0107169
0.0128673
0.0204527
0.00511127
0.00887167
0.000770235
0.0152957
0.00317731
0.0258983
0.000580029
0.00330239
0.0157048
0.000876731
0.0125217
0.000620705
0.018848
0.00164804
0.00483317
0.00108048
0.00421523
0.00746785
0.00226568
0.0140348
0.0074647
0.00518791
0.00467114
0.00459027
0.00866492
0.0153336
0.00976032
0.0203838
0.013851
0.0115662
0.0106162
0.0206862
0.00710796
0.00149264
0.00359822
0.00956338
0.0200033
0.0141496
0.000764376
0.00500758
0.00609149
0.00972259
0.0157138
0.0254607
0.0047654
0.0178381
0.0103702
0.0145941
0.000192742
0.00528492
0.0087469
0.00234096
0.00677317
0.00404716
0.00173019
0.00433845
0.00170665
0.00762987
0.000492656
0.00613456
0.0105612
0.00500273
0.000716146
0.0111671
0.00196395
0.00751307
0.018314
0.0164013
0.00156749
0.00802837
0.00150462
0.00471308
0.000970614
0.00926572
0.020965
0.000854162
0.00852662
0.00194932
0.00927956
0.00885161
0.00716323
0.00404685
0.0235257
0.00945436
0.00159343
0.01063
0.00554609
0.00644746
0.00339382
0.00956776
0.00765588
0.00614867
0.000875861
0.00443079
0.00843662
0.00358253
0.000898549
0.00804886
0.0104479
0.0083102
0.00124908
0.0112848
0.00159547
0.00171306
0.0181732
0.000723836
0.00295429
8.77672e-05
0.0106777
0.000844721
0.00264127
0.00912897
0.00679346
0.00877173
0.00184214
0.000190655
0.0138361
0.00489925
0.00384315
0.00878993
0.0208885
0.000511973
0.000703387
0.00390696
0.00860538
0.011038
0.000645392
0.00339436
0.00221871
0.0115768
0.00454386
0.00431122
0.000444489
0.00368803
0.00489368
0.0144614
0.0137743
0.00613205
0.00352483
0.0131492
0.0253832
0.013702
0.00838109
0.0154813
0.0210243
0.0167767
0.0221248
0.0163413
0.0157058
0.0189241
0.0060407
0.00774494
0.00697902
0.0125529
0.00391978
0.00980685
0.0104353
0.00668296
0.00984252
0.00874481
0.0136652
0.023917
0.0164839
0.013373
0.0138198
0.0173314
0.0245133
0.0228009
0.00670384
0.0153579
0.0153369
0.00333806
0.00746259
0.0119429
0.0155822
0.0101929
0.00874226
0.00650384
0.00474613
0.00623015
0.0109456
0.00523472
0.00958602
0.00372562
0.00354409
0.00934018
0.0068887
0.0137864
0.000629901
0.013202
0.00652514
0.00316997
0.0208714
0.000789994
0.0073108
0.000536594
0.00305567
0.00313927
0.00816867
0.00986218
0.0052767
0.0150775
0.00946001
0.0039443
0.00614119
0.00637054
0.00263775
0.00513705
0.0140927
0.00203158
0.00480283
0.0101217
0.00636512
0.00795853
0.00682326
0.00464572
0.0102662
0.0125604
0.00800215
0.00504057
0.00613101
0.0139564
0.00737191
0.00214103
0.00727349
0.0126213
0.00323474
0.00812772
0.011504
0.00320869
0.00118625
0.0203019
0.00706017
0.00349506
0.00690515
0.0140697
0.00779216
0.00056529
0.00516757
0.00813544
0.00673863
0.00505065
0.0017383
0.00513567
0.010817
0.00289485
0.00730355
0.00802351
0.00780653
0.000289356
0.00612961
0.0105013
0.000973343
0.0147998
0.0020434
0.00791307
0.0192297
0.00135717
0.00640001
0.0180324
0.00663535
0.00492462
0.00649092
0.00027637
0.00378522
0.00214531
0.0155374
0.00283083
0.00108747
0.00150107
0.0113841
0.00745712
0.000893288
0.00755146
0.00642074
0.00310801
0.00119642
0.00356038
0.00941619
0.0124082
0.0169895
0.000959028
0.00336445
0.012863
0.000379169
0.0148325
0.000313231
0.000675589
0.0127558
0.0127639
0.00208616
0.00221136
0.00442387
0.0102011
0.0119144
0.00641529
0.000600372
0.00583715
0.0022977
0.0106541
0.00844693
0.00127134
0.0134547
0.0153956
0.0145655
0.003015
0.00737488
0.0218184
0.00748064
0.0164497
0.0030751
0.00894583
0.00488391
0.0111751
0.011454
0.00991985
0.0094351
0.00544459
0.00798993
0.00814968
0.00742122
0.00759492
0.0023039
0.0155541
0.000890095
0.0160099
0.00122336
0.000309737
0.00192994
0.00142392
0.0115983
0.002824
0.000552075
0.000317036
0.00191948
0.000443639
0.00470376
0.000811352
0.00472507
0.0107478
0.00653173
0.00675426
0.0151398
0.00254418
0.0104835
0.0120944
0.0232359
0.0135076
0.00611117
0.00117119
0.0150879
0.0132518
0.0152289
0.0184406
0.00503684
0.00569692
0.0101608
0.00784933
0.00510251
0.0104134
0.00677699
0.00408144
0.013707
0.0162788
0.00592857
0.0156338
0.0158699
0.00981448
0.00505348
2.8531e-05
0.0104713
0.0138085
0.0140076
0.00457051
0.0101716
0.0109369
0.00870195
0.00754205
0.0044067
0.00946791
0.000346701
0.00803352
0.00458235
0.00226981
0.00210367
0.00181023
0.0234658
0.00353966
0.0169601
0.0101973
0.0047844
0.00183472
0.00487498
0.00209206
0.00639354
0.00421468
0.0052183
0.0156768
0.000650006
0.0099078
0.0020437
0.00222071
0.00315275
0.00381157
0.00237698
0.00621242
0.00918073
0.00429777
0.00719006
0.00745972
0.00769101
0.011447
0.00201412
0.0123756
0.00973449
0.00117502
0.00342041
0.00669932
0.00922576
0.00134695
0.0076932
0.00385119
0.00918497
0.0082391
0.00746296
0.00112746
0.0108254
0.00566948
0.0068774
0.00291593
0.00722452
0.0083965
0.0116921
0.0206133
0.0145623
0.0130447
0.0033582
0.00403517
0.00572472
0.00974115
0.010714
0.00291022
0.00975015
0.0109589
0.015786
0.0121421
0.00984073
0.00497388
0.00619055
0.0050547
0.00974189
0.00656782
0.0122114
0.00484896
0.0207427
0.00114524
0.00629207
0.00749319
0.00189657
0.0119301
0.00260502
0.0158712
0.0129515
0.0113101
0.00875563
0.0209406
0.00140295
0.0178325
0.0138103
0.0219885
0.00502243
0.000228633
0.0118989
0.00203215
0.00307642
0.00288554
0.0169737
0.0001517
0.00817578
0.0113333
0.00717606
0.0193314
2.85424e-05
0.00357876
0.0013652
0.00893963
0.00241413
0.000313229
0.0174906
0.000448183
0.0118022
0.00210952
0.00530677
0.00193393
0.00170138
0.00210351
0.00247813
0.00468243
0.00271547
0.00777078
0.00154087
0.00494054
0.00753982
0.0033431
0.00981264
0.0115251
0.0124443
0.00888364
0.0166062
0.00993355
0.0142013
0.0122362
0.00466111
0.00344163
0.00300521
0.00213069
0.00444001
0.00922018
0.0163586
0.0138983
0.00214826
0.00349236
0.00122806
0.00509729
0.0129104
0.0100191
0.00115767
0.0124269
0.0129797
0.0108314
0.0015339
0.00624726
0.0175274
0.0116861
0.00091781
0.00320567
0.0117581
0.00353603
0.00305761
0.00212718
0.0138906
0.00949381
0.0153679
0.00869846
0.00220211
0.00663911
0.0125232
0.00230016
0.00879058
0.00192228
0.0214721
0.0104426
0.00263235
0.00838832
0.00811398
0.00454483
0.0119872
0.00709699
0.0116581
0.0021813
0.0087288
0.01863
0.000286629
0.0117341
0.00871284
0.000177586
0.0110375
0.00437629
0.0116695
0.0131747
0.00270041
0.00223197
0.00717873
0.000968798
0.00146614
0.00624299
0.00875316
0.0115954
0.00514843
0.00397195
0.0139306
0.00151472
0.000631828
0.00462468
0.0054774
0.00657362
0.0236342
0.00442469
0.00401906
0.00675613
0.00713945
0.00290652
0.0128955
0.0103146
0.00250589
0.00332959
0.00169033
0.00317271
0.0123447
0.00951914
0.00247067
0.00496532
0.00108361
0.0125902
0.00349606
0.00376453
0.0122953
0.00201624
0.00175112
0.0114921
0.000738856
0.00070233
0.00481539
0.00104176
0.0103287
0.0107307
0.000430779
0.0105761
0.00134859
0.000742168
0.0106437
0.00532385
0.0118941
0.00501848
0.023851
0.0121255
0.0147962
0.0124374
0.0152258
0.0171734
0.0116115
0.00667044
0.00479512
0.00624101
0.0127754
0.00832233
0.0300931
0.0087795
0.00397877
0.00765565
0.0023911
0.00341007
0.000986752
0.014803
0.0203028
0.00179712
0.0194876
0.0120197
0.0166362
0.00792545
0.0163262
0.00307788
0.00948877
0.00767278
0.000786177
0.00878588
0.00163772
0.00819482
0.00294199
0.00158615
0.00583503
0.00558207
0.0107222
0.0249643
0.00912591
0.0101213
0.00259951
0.0163183
0.013522
0.00696544
0.00106573
0.00867672
0.0028646
0.00318645
0.000902596
0.00119731
0.00926811
0.00473367
0.00039503
0.00412913
0.0155836
0.00415847
0.0147777
0.00319089
0.0052852
0.00111721
0.0154704
0.0143487
0.00907237
0.0030236
0.0316251
0.0105897
0.00525015
0.00794316
0.00391629
0.00907136
0.0166961
0.00224393
0.00170024
0.00589316
0.0099679
0.00454682
0.00534784
0.003191
0.00555072
0.0240678
0.0109266
0.0108028
0.010845
0.00408108
0.0138809
0.00613894
0.00824016
0.00785896
0.000515459
0.00543263
0.00612705
0.00526396
0.00254505
0.010616
0.00184376
0.00910527
0.00470212
0.0117343
0.00410241
0.0179019
0.0102424
0.0182865
0.000592488
0.0095547
0.00408601
0.010902
0.00766022
0.00471266
0.000528475
0.0145861
0.0120437
0.00314054
0.000431956
0.007823
0.0195146
0.000755416
0.00948076
0.00632784
0.00866718
0.00152
0.00621436
0.00168107
0.00518967
0.00253209
0.00205321
0.0123281
0.000893148
0.00144858
0.00742361
0.0101353
0.00507869
0.0061168
0.0030939
0.00926159
0.00191669
0.00939969
0.00375727
0.00091146
0.0018026
0.00747819
0.0020106
0.00388586
0.00325009
0.0148508
0.00480711
0.0162014
0.0119677
0.000219093
0.000498161
0.00459026
0.0108824
0.0137863
0.00364599
0.00144373
0.00622118
0.00436122
0.00906163
0.0129043
0.00975683
0.00636565
0.0222884
0.0176131
0.00741129
0.00678566
0.00537952
0.0174053
0.00091292
0.00150147
0.00396052
0.0126659
0.0213972
0.00984834
0.00391612
0.00658399
0.00783446
0.0163159
0.00107728
0.010599
0.000635589
0.0226182
0.00130907
0.00136868
0.0092458
0.000232889
0.00680716
0.00117333
0.00219859
0.00144394
0.00506928
0.00146104
0.00528998
0.00746566
0.00323441
0.00333491
0.00586516
0.00569419
0.0185749
0.0111714
0.00833489
0.0184609
0.0125535
0.00338053
0.0191808
0.0109511
0.00277903
0.00396981
0.00316385
0.00390874
0.00342765
0.00109556
0.00991831
0.0057994
0.0122171
0.00854364
0.00808275
0.00227047
0.00636537
0.0134941
0.0001366
0.00114174
0.00875684
0.00795791
0.00557827
0.00212295
0.00961732
0.00189413
0.0109348
0.00626991
0.00649034
0.00435406
0.00563291
0.00151028
0.00057106
0.00120103
0.0180014
0.016216
0.013769
0.0187164
0.0175545
0.00751111
0.00379058
0.00218144
0.00310413
0.00114926
0.000745215
0.00126659
0.0141912
0.00568331
0.004764
0.0109188
0.0072733
0.00292644
0.0223036
0.00639442
0.00815736
0.0141505
0.00101325
0.000986068
0.00177386
0.00500713
0.00879651
0.000904176
0.00107371
0.00320883
0.00713829
0.000520608
0.000293961
0.0178321
0.00648073
0.0158099
0.0126886
0.00456842
0.00455472
0.00426124
0.0097697
0.000598659
0.00118668
0.00977827
0.00301313
0.00379273
0.00992757
0.0110369
0.009243
0.0109033
0.000217272
0.00500141
0.00188713
0.00175948
0.00392359
0.0042783
0.00753063
0.0075125
0.00328693
0.00364809
0.00532671
0.0185685
0.00319963
0.0077771
0.00836139
0.00434217
0.00651225
0.00843468
0.00280794
0.00658085
0.0016762
0.00213332
0.00110169
0.00348267
0.010595
0.0105238
0.00349291
0.00989283
0.00371019
8.84603e-06
0.00276965
0.00374709
0.0036497
0.00973394
0.0029202
0.00228108
7.8303e-05
0.00305498
0.00888326
0.00577193
0.00775077
0.00111804
0.00868345
0.0127005
0.011671
0.0215945
0.00106504
0.0130767
0.00178843
0.0041421
0.00207632
0.0049609
0.00137019
0.00301303
0.00854195
0.0131812
0.0183564
0.000775557
0.00239647
0.00777946
0.0113605
0.0119622
0.00619962
0.0031418
0.00925906
0.0237154
0.0207
0.0105888
0.006098
0.0103491
0.008225
0.00873759
0.0105857
0.00929506
0.00314124
0.0026534
0.00176229
0.00544284
0.00865507
0.00458049
0.000422934
0.00485521
0.0099384
0.00701346
0.00728975
0.00847447
0.0101335
0.00713589
0.00524443
0.00836684
0.00618659
0.0174825
0.00875879
0.00177929
0.00907998
0.00133357
0.00807994
0.00809518
0.00463561
0.01719
0.00484327
0.000265773
0.00956942
0.0115741
0.00417624
0.0129865
0.0135883
0.0013844
0.0139343
0.00305218
0.00469185
0.0163091
0.00317618
0.00100752
0.0086157
0.00353747
0.00237528
0.00637483
0.00407101
0.0112039
0.00299601
0.00401909
0.0125355
0.00480478
0.00998078
0.004104
0.0158614
0.000312317
0.010528
0.000278508
0.000124847
1.6054e-05
0.000152897
0.00414431
0.00577593
0.0113631
0.00544315
0.00717299
0.00655306
0.00414225
0.00930398
0.00598129
0.00923432
0.000903704
0.00357371
0.00938596
0.000530621
0.0045414
0.01415
0.000847038
0.00179145
0.00306123
0.0195044
0.00870387
0.00580661
0.00777276
0.00398532
0.0100991
0.00393725
0.00332932
0.00829854
0.000884209
0.0100307
0.000510419
0.0164616
0.0013047
0.00670986
0.00237285
0.00296109
0.0128685
0.00251501
0.00675659
0.00324219
0.00154772
0.000777144
0.00299464
0.0123498
0.00504662
0.00113619
0.00686582
0.0058172
0.0115597
0.00984588
0.00575708
0.00783803
0.00274968
0.00563583
0.0222497
0.0308369
0.0057777
0.0100692
0.000987564
0.00685472
0.0024627
0.00549208
0.00627398
0.0146346
0.00519674
0.00987829
0.00822266
0.00858968
0.00561824
0.00669943
0.0116649
0.00757188
0.0241947
0.0233311
0.0151988
0.0053319
0.000985884
0.0011142
0.00885324
0.000297876
0.0042391
0.00212927
0.00121178
0.000418698
0.000233323
0.000471818
0.000841082
0.0129299
0.00259597
0.0104871
0.001327
0.00527337
0.000506616
0.0206641
0.0140562
0.0192872
0.000712601
0.0108474
0.00140982
0.00456039
0.00651278
0.00364918
0.00769444
0.010031
0.0123213
0.00116516
0.0164101
0.00062194
0.00484872
0.0124671
0.0100196
0.00600968
0.0112189
0.0173756
0.0128486
0.00110174
0.0079634
0.00189811
0.00741272
0.000824229
0.00387552
0.00486043
0.00467472
0.0107329
0.00200342
0.00401526
0.0013679
0.00531228
0.00654952
0.0143887
0.0111773
0.0111396
0.00896953
0.00806614
0.00598894
0.00365699
0.00625895
0.00328199
0.00809647
0.0154952
0.00665135
0.00300097
0.0016655
0.000839255
0.0111389
0.004913
0.00597092
0.00433567
0.00589351
0.0115116
0.000992384
0.00557964
0.0141954
0.0113872
0.00479207
0.00345641
0.00115265
0.00519627
0.00527076
0.0129198
0.00899268
0.0195155
0.00741352
0.000366752
0.0116461
0.00469029
0.0110464
0.00997603
0.00307998
0.00384808
0.00464209
0.00288684
0.00697139
0.00721591
0.0108965
0.00267088
0.00919955
0.00869679
0.0019338
0.00154132
0.013394
0.00970981
0.00184017
0.000258956
0.00863823
0.0105778
0.0129415
0.0097233
0.00790145
0.00934466
0.00576017
0.008344
0.0105848
0.0071844
0.0149113
0.00456071
0.00913845
0.0107861
0.00512566
0.00651221
0.0114587
0.00368086
0.00204778
0.00132637
0.00277651
0.00316076
0.000469532
0.000462835
0.00855628
0.0154755
0.000656729
0.0011167
0.0102282
0.0180392
0.0239655
0.0264633
0.0229379
0.0114021
0.0149243
0.00662529
0.00568402
0.000625418
0.00344166
0.00254832
0.00218504
0.000188518
0.00923283
0.00427147
0.0132054
0.00809001
0.013435
0.0177251
0.0299667
0.0138629
0.0286226
0.0274563
0.025573
0.00468429
0.00816906
0.000460862
0.00993828
0.00416287
0.0191044
0.00452317
0.0100404
0.00083918
0.00250464
0.0051522
0.00486085
0.0100778
0.00947705
0.0182884
0.0239778
0.0214506
0.019093
0.0128902
0.00453539
0.00543969
0.00723088
0.0187389
0.0108051
0.00312888
0.0053118
0.00334331
0.00766944
0.00260509
0.00493205
0.00349036
0.000706456
0.00492725
0.0192401
0.0172932
0.0169941
0.0270782
0.00901054
0.00853023
0.0132167
0.0134681
0.0106706
0.0196401
0.00526684
0.014144
0.00440475
0.0103251
0.00206223
0.00846452
0.00900112
0.000136202
0.000214583
0.00857912
0.0128782
0.00777219
0.0133885
0.0197649
0.0190718
0.0177661
0.0128397
0.0108584
0.0214594
0.0113418
0.0230488
0.00579634
2.63166e-05
0.00625918
0.0134329
0.000104258
0.0111309
0.0043073
0.0054891
0.000468753
0.00272909
0.0101454
0.00919113
0.00178599
0.0245345
0.00138198
0.0028233
0.00784176
0.00335533
0.0039456
0.00489618
0.00264388
0.00444158
0.00200278
0.000661126
0.000794982
0.00228867
0.00662322
0.00531659
0.00566514
0.0100872
0.0138569
0.00890056
0.00132766
0.0151484
0.00169811
0.00212793
0.00712896
0.0147219
0.00462976
0.000336605
0.00287367
0.000542193
0.00744326
0.0076484
0.00269242
0.00487801
0.0164404
0.00105454
0.00849065
0.00467995
0.0130546
0.010302
0.0233073
0.00281408
0.00286047
0.00231606
0.00806426
0.00165248
0.00677232
0.00595557
0.00690946
0.0142529
0.000151131
0.0102821
0.00437272
0.0105542
0.00362237
0.00202122
0.00241902
0.00138153
0.00981932
0.00515309
0.00091498
0.0386055
0.0222292
0.013168
0.0131314
0.0212849
0.0217248
0.0147251
0.00344949
0.000554698
0.00241582
0.0117279
0.00454365
0.0115301
0.014005
0.0258094
0.00580144
0.0164798
0.0250368
0.0315191
0.0312037
0.0420932
0.00339953
0.019102
0.00536136
0.0181252
0.00279766
0.00193593
0.000968061
0.0134893
0.00134351
0.00132225
0.0130946
0.000369274
0.00828571
0.00269462
0.0192817
0.000157667
0.0128594
0.00131264
0.0207513
0.0218821
0.0192995
0.00588455
0.00322349
0.0119877
0.0186025
0.0104189
7.5949e-05
0.00170561
0.015557
0.0138178
0.0119106
0.0255946
0.0031817
0.0155733
0.0175827
0.010484
0.0283469
6.00107e-05
0.0280071
0.0258484
0.0187438
0.0165489
0.0119559
5.35683e-05
0.00191536
0.0107432
0.00127532
0.000348116
0.00911635
0.000336798
0.0046471
0.0107943
0.00680348
0.00535885
0.00148327
0.0118016
0.00970384
0.0215386
0.0169718
0.0236085
0.0142821
0.0127778
0.00713531
0.00251191
0.0105899
0.00215373
0.0121503
0.00669965
0.00221499
0.00210402
0.000753359
0.0029675
0.0147505
0.00380969
0.0144583
0.00533903
0.0216982
0.00432174
0.0123938
0.00159904
0.00652093
0.0179839
0.00423941
0.0218293
0.00469434
0.00154708
0.00277085
0.00556159
0.00232964
0.0055287
0.00472272
0.00677534
0.0051103
0.00482124
0.00172007
0.00042306
0.0183553
0.0147041
0.0134862
0.00855669
0.0154275
0.0107822
0.00592227
0.00430027
0.00899509
0.00468294
0.00150636
0.00348655
0.00337232
0.00721221
0.00363911
6.70075e-05
0.0113569
0.00310446
0.00581883
0.0181146
0.00624587
0.0050978
0.020888
0.00754058
0.00951398
0.00178294
0.00570307
0.0195687
0.00482719
0.0145408
0.0119725
0.00397311
0.00145018
0.00130481
0.00614494
0.0126018
0.01282
0.0095678
0.00697117
0.0117996
0.0194979
0.0159966