/*--------------------------------*- C++ -*----------------------------------*\
| =========                 |                                                 |
| \\      /  F ield         | OpenFOAM: The Open Source CFD Toolbox           |
|  \\    /   O peration     | Version:  2212                                  |
|   \\  /    A nd           | Website:  www.openfoam.com                      |
|    \\/     M anipulation  |                                                 |
\*---------------------------------------------------------------------------*/
FoamFile
{
    version     2.0;
    format      ascii;
    arch        "LSB;label=32;scalar=64";
    class       volScalarField;
    location    "./ITHACAoutput/true/11.4";
    object      error;
}
// * * * * * * * * * * * * * * * * * * * * * * * * * * * * * * * * * * * * * //

dimensions      [0 0 0 1 0 0 0];

internalField   nonuniform List<scalar> 
3200
(
-0.0125957
-0.596838
-0.813054
0.182547
2.80067
0.84578
1.8036
1.41487
2.4813
3.20524
1.94529
1.82912
0.996284
1.16376
0.781817
1.26242
0.975584
0.447611
-0.620885
-0.476937
-0.289252
-0.0490658
1.35612
1.52742
1.57493
1.43172
2.83783
2.24905
1.48865
2.43615
1.89854
1.41853
1.67658
1.76909
0.0798124
0.590352
0.028491
-0.0973745
-1.01159
-1.11471
-0.404232
-0.0404055
1.07335
0.964756
1.64429
1.03939
0.934941
1.49895
1.87644
0.419386
0.925224
2.42839
1.56421
0.273052
0.972988
1.53554
0.717115
-0.301326
-0.925359
-0.625214
-0.638534
0.0125209
0.866351
0.867525
1.08332
1.06262
1.50893
1.96599
1.64449
1.07576
1.74169
0.553024
1.15758
0.173814
-0.0637916
0.755845
1.16645
0.744802
-0.445021
-1.16021
-0.395066
0.285676
1.0989
1.11794
0.890545
0.750856
1.66145
0.5194
0.874724
0.752006
1.12098
-0.0580295
0.16378
-0.281987
0.445591
0.3715
0.793519
1.77289
-1.20878
-0.818801
-1.28645
-0.325334
-1.14443
-0.297258
1.22844
0.530412
0.330307
0.396914
0.492157
1.3721
-0.741886
0.441024
0.613817
0.507026
0.230541
0.940558
0.56372
-1.41985
0.733427
-1.30388
-0.336002
0.466917
-0.134216
2.10248
-0.456792
-0.0924429
0.529412
0.552247
0.66424
0.3168
1.18331
-0.172596
0.765747
-1.46743
-0.120448
1.59196
0.257311
0.100261
-0.576389
-0.196045
-0.75703
-0.186977
0.0789745
0.501051
-1.3415
0.484385
-0.0279856
-0.565066
0.840575
0.933799
-0.571555
-0.776622
1.20626
0.327005
-0.375739
1.28069
-0.974783
0.876314
0.448509
0.026521
-0.569825
0.749176
1.10007
0.929517
1.11124
1.05619
2.51316
2.50989
1.64991
1.53827
0.4524
2.22873
0.47147
1.80575
1.58865
0.0779972
0.965121
1.38169
0.176766
0.140029
-0.0608529
-0.278656
1.86296
0.312395
2.12746
0.0307557
1.58699
-0.27922
2.18781
0.572125
-0.18301
1.25258
0.146931
1.07932
0.0354187
1.57356
-0.046618
0.590411
0.0175846
-1.93329
-0.704271
-0.154237
1.34626
1.53406
1.78993
0.93967
1.09922
0.95584
0.473463
1.29223
1.11537
0.59189
1.39962
0.518766
0.378392
0.227767
0.483255
0.620269
-2.23813
-1.48381
-0.651832
-0.820862
1.36354
0.0908689
0.617267
1.59072
0.635669
1.55324
0.289024
0.670907
1.05283
1.29189
1.43235
1.00202
0.455199
0.360942
-0.718777
0.698629
-0.133195
-1.07642
-0.262438
1.57743
1.34552
0.647495
0.628322
0.612834
1.64578
1.65028
1.00209
1.21601
0.908805
0.620047
1.12804
-0.165359
0.302629
-0.346824
0.381394
-0.560586
-0.131249
0.167426
-0.701971
-0.563681
0.294198
0.651553
-0.128161
0.886781
1.14571
0.520495
0.312304
-1.0936
0.0919822
1.22727
1.61768
1.83742
-0.0628824
1.21485
-0.0949738
0.0860823
-0.021935
-0.513945
0.305451
0.441893
-0.513923
-0.00216883
-0.938573
-0.921588
0.315605
-0.302999
0.587138
1.72193
0.658269
-0.24069
-0.538468
0.609022
0.0147563
0.519076
0.377449
0.775455
-0.0695842
0.829687
-0.00944198
0.734519
-0.575862
0.133811
-0.0264308
0.797522
0.241368
-0.0519025
0.00429045
-1.25393
1.68578
-1.15223
1.13805
-0.356994
0.593649
1.24448
-0.484531
-0.245732
-1.00301
-0.455951
-0.554158
0.181624
1.40205
1.07738
2.0931
1.12557
1.16949
1.3164
2.06522
0.468283
0.55077
1.80269
0.763655
1.11814
1.29998
1.11878
0.473304
0.560535
-1.56841
-0.034755
-0.0391854
0.368874
0.77319
0.981386
0.23315
2.0594
1.74773
0.746887
2.65344
2.29212
0.559341
-0.713016
0.674457
0.78088
1.618
0.832261
0.967621
-0.543379
-0.26167
-1.83388
-0.0717884
-0.518891
1.12375
0.344597
0.469987
1.47008
2.21891
0.524376
1.93185
0.480242
1.06064
2.04117
1.54306
1.27677
0.970131
-0.139202
0.355335
0.946215
-1.33116
-1.35599
-0.438442
0.644791
0.297317
0.509885
0.0211004
1.33471
0.298608
1.32985
0.314225
-0.234561
-0.36716
-0.10095
1.87142
-0.198081
2.1364
0.523673
0.521527
1.34624
0.735147
-0.972404
0.462742
0.254494
0.72808
0.694405
0.045151
-1.05037
1.1382
0.228984
-0.346002
0.598538
0.943244
-0.362565
0.124084
-0.943145
-0.252465
-0.608771
1.46273
-0.132176
-1.29306
-0.272112
-0.445746
0.220197
0.0474936
0.80293
0.340059
0.352332
0.802112
-0.537814
0.198772
-0.0202967
-0.0857576
1.11476
-0.524329
1.92824
1.49124
-0.147461
-0.0396956
1.03705
-0.135529
-0.974124
0.573427
0.395495
-0.634399
0.412694
0.0166191
0.526233
1.10559
0.181917
0.418717
0.272951
-0.589973
-0.648153
0.609432
1.0829
0.851787
0.289395
1.32779
0.440886
-0.884954
0.215288
1.06981
-0.6113
-1.13322
-0.113658
0.80581
-0.288383
0.167084
-0.154749
-0.490559
0.14686
0.040576
-0.0297263
0.135051
-0.288866
0.966236
0.56669
-1.02595
-0.367726
-0.765279
-0.635526
-1.05225
-0.359142
1.70371
2.19762
0.926156
1.72368
1.80022
1.70229
1.10494
1.49971
0.0795076
0.597009
1.95401
-0.198303
2.07154
0.152159
1.53323
0.034349
-1.219
-1.25699
-1.57089
-0.0819412
0.486608
0.0394172
0.595101
0.0237533
0.595225
-0.0516951
0.371553
0.654969
0.143814
1.62112
0.183598
-0.80432
0.487183
-0.736558
-0.231551
0.133057
0.0278914
-1.10082
-0.637848
-0.515469
1.33965
1.47435
1.09569
1.19975
0.758149
-0.513013
0.340517
0.505801
0.247988
0.163854
-0.15913
0.883236
0.501456
1.55323
-0.107632
-0.238191
0.248996
-1.27733
-1.56539
-0.0917879
-0.0343771
0.214104
0.00841935
0.726911
1.10846
0.460004
1.12072
0.101389
0.652017
0.05621
0.809119
0.173982
-0.599824
1.18643
0.0416779
0.0808408
-0.698143
0.494788
0.0700627
-1.25741
0.428571
0.178305
0.955195
0.789366
2.09487
1.32435
1.01164
-1.29157
0.926606
-0.338514
0.661236
-0.265231
-0.489873
-0.935207
0.636813
-0.354044
-0.797144
-0.836425
-0.478631
0.5297
0.0303153
-0.0127109
0.474804
-0.648431
1.54011
1.02902
0.104823
-0.622375
2.00814
0.165718
-0.135415
0.175291
1.14615
-0.341588
0.360856
0.443361
-0.782924
-0.721212
-0.67689
-1.00504
0.388349
-0.651979
-0.13178
0.986602
1.08237
0.653763
0.306604
0.228842
-0.520633
-0.709707
-0.487326
-0.855598
-0.93427
0.552412
0.666972
-0.471141
-1.50809
0.722083
0.774925
0.229698
0.0627993
-0.871433
-0.101251
0.37795
0.342003
-0.531166
0.131342
1.16058
0.643609
0.727062
0.106598
0.806026
0.205411
0.443171
-0.479606
-0.225613
-0.156265
-0.491992
-1.16486
-0.0573043
1.39918
2.0575
1.34482
0.308227
0.811291
1.00036
0.249435
0.046013
-0.0879386
-0.191822
0.267219
1.31225
-0.137314
0.793218
0.542827
0.0997844
-0.269775
-1.92812
-0.852421
-0.89607
1.44422
0.633342
0.730909
0.913038
1.21287
0.672789
0.990109
0.0288722
0.575284
-0.320644
-0.30674
0.479571
1.12725
0.285404
0.95429
-0.491281
-0.207279
-1.54064
-0.651138
-0.148488
0.128747
0.72292
1.62264
-0.214756
0.429613
0.107936
-0.00939113
0.252847
-0.157288
0.912881
-0.329401
1.3823
-0.695331
0.183077
0.671591
0.000902213
-0.434239
-1.58896
-1.27909
-0.222129
-0.23473
-0.839558
0.820786
1.18122
1.62017
0.0409191
1.0832
1.27072
-1.41536
-1.36518
0.979852
-0.334062
0.569311
0.451873
-0.278594
0.183931
-0.000471479
-0.232893
0.685344
0.27467
0.425653
0.193327
0.5042
1.21404
0.059976
0.351834
1.19773
0.145766
0.568823
-0.390815
0.164756
0.400921
-0.785394
0.387412
-0.151013
0.167823
-0.82102
-0.441223
-0.69974
-0.322847
-0.102086
-0.89314
1.24782
-0.424544
0.410956
-0.267379
0.00140956
-0.293291
1.08019
0.609816
-0.272388
0.687445
-0.762353
0.371455
-0.433357
-0.973547
0.342636
0.666656
-0.294515
-0.00140046
-0.183982
0.876488
0.820044
-0.585375
-0.451339
0.158503
-0.181045
-0.934211
0.357975
0.905882
-0.640724
-0.730893
0.606473
0.3704
-0.289717
-0.854285
1.47251
0.0544664
0.394627
-1.35794
-0.996727
-0.12344
-0.523191
0.185009
0.642268
-0.36537
-0.459033
0.501334
-0.478116
-0.999689
0.502857
0.522607
-0.376038
-0.135569
-0.27969
0.285448
0.568511
-0.739513
-2.18774
-1.60321
0.521661
1.17494
1.25423
0.653381
0.06298
0.577074
0.741636
0.126441
-0.516504
-0.163306
-0.225942
-0.50158
-0.0670673
-0.501696
1.45341
-0.600066
-1.18104
-1.29682
-0.545545
-0.291941
0.343678
0.69736
1.15577
0.0747295
0.446036
-0.148376
-0.0990552
-0.0812838
-0.230647
-0.238585
-0.304313
-0.593926
-0.0121523
-0.801347
-0.208479
-0.940997
-0.273366
-0.465746
-1.33033
-1.47035
-1.58523
-0.562874
0.658525
0.285978
0.307111
-1.09503
0.872573
-1.06296
-0.727116
-0.729245
0.602674
0.56466
0.415693
-1.12092
0.00998305
-1.40019
0.159935
-1.63024
-0.306317
0.0735313
-0.906253
-0.538349
-0.399962
0.173779
0.438814
1.51372
0.203588
-0.12223
0.613341
-0.278569
-0.703992
-0.383191
-0.353833
-0.592768
-0.749441
-0.602595
-0.369581
-1.05697
-0.0663609
-0.795425
-0.899939
0.25011
0.756719
0.0136097
0.803961
-0.0311391
-0.60725
-0.0768964
0.308976
0.922235
0.683968
0.0268819
0.674248
-0.332109
0.0696185
-1.15461
-0.0294032
0.180777
0.556349
-0.310617
0.243169
0.44145
0.63855
-0.13294
-0.561385
0.0963545
0.569408
-1.01572
-0.654366
-0.761502
0.656679
0.411345
0.0194469
-0.487192
-0.860276
-0.162106
-0.656182
-1.63958
-0.107148
-0.248194
0.535105
-0.363393
-0.605478
-0.422574
0.763549
-0.32576
0.241505
0.172299
-0.028225
0.125813
0.899572
0.276578
-0.888455
0.765713
-0.161171
-1.32363
-0.396931
-0.166162
-0.195614
-0.0621238
-1.1696
1.21904
-0.500117
-0.267983
-0.585244
-0.0700525
0.64288
-0.199462
-0.355088
-0.209618
0.0520949
0.683769
-0.679313
0.343279
-0.882428
-0.378326
0.306295
-0.56296
-0.859302
-0.90935
0.467092
0.571865
0.59907
0.13748
1.2066
0.417455
-1.33702
0.493466
-0.573308
-0.310389
0.566091
0.326529
0.0236696
1.40101
0.557356
0.432543
-1.00226
-1.32184
-1.72964
-1.63805
-0.58584
1.02686
0.907457
0.31025
0.774131
0.124381
-0.213144
-0.0859092
-0.377717
-1.00052
-1.74196
-0.669816
-0.881703
0.310163
-1.07246
-0.899088
-1.09463
-0.808918
-1.66195
-1.71526
-0.351517
-0.45109
0.771455
1.63885
0.269964
0.638449
-0.257557
-0.147854
-1.7542
0.361543
-0.873033
-0.335735
-0.120162
-0.175993
-0.223788
-0.901942
-2.66669
-1.08715
-2.02271
-1.05803
-0.237853
0.63892
0.448293
-1.18975
0.738185
-2.18803
-1.80245
0.996676
-1.07894
-0.40636
0.0998813
-0.117177
-1.0911
0.0566399
0.350815
-1.24245
-1.3697
-0.960262
-0.267988
-0.448608
0.135209
-1.26814
0.0390812
-0.217197
-0.70413
0.63942
-1.04516
-0.33397
-0.782285
-0.902167
-0.111936
-1.38647
-0.372157
0.349667
-0.768983
-0.857558
-1.09874
-1.19593
-0.211403
-0.0891838
-0.230905
-0.430799
0.481686
0.0685047
0.464979
0.549562
-0.706273
-0.167057
0.168357
-0.828831
-0.52306
-1.15725
-0.610521
-0.391665
-0.86085
-0.773342
0.386413
-1.00557
0.323264
-0.178931
0.0355921
-0.653918
-1.96875
0.391148
0.515423
0.392561
-0.950673
0.0703286
-0.745189
0.174886
-1.78648
0.875462
0.707967
0.399262
-1.068
0.0172802
0.134478
-1.06146
-0.529048
-0.422848
0.575931
0.0837233
1.04944
0.392984
-1.03794
-0.622517
-0.627607
-0.68213
-1.0586
-0.854353
-0.289717
-0.24794
0.495159
-0.260352
-0.770758
-0.780253
0.217113
-0.383633
-0.818881
-1.50375
-0.54648
-0.325569
0.641709
0.932196
-1.34429
-1.6502
-0.584626
-0.582978
-2.54784
-1.29102
-1.29266
-0.755112
-0.671766
-0.233128
-0.840827
-1.30891
-1.403
-1.54762
-0.994637
-0.254689
-1.13165
0.020397
1.12168
0.019284
0.775328
-0.318087
-1.16114
0.450832
-0.320194
-0.876667
-0.169488
0.168797
-0.34506
-1.2707
0.0308219
-0.77035
-0.0382785
-1.30845
0.879805
-1.02817
-0.427175
1.72355
0.809287
-0.137008
-0.489281
0.640583
0.151443
-0.359328
-1.0504
-0.2002
-1.42971
0.150808
-0.0559698
0.389924
-0.802046
-0.310861
-2.22978
-1.09633
-0.313956
-0.637729
0.705478
-0.559602
0.705104
-0.0725823
-0.996915
-0.324389
0.522005
-0.371803
-0.860248
-0.778918
-0.118179
-0.973227
-0.528008
-1.22389
-1.31716
-1.42624
-1.66424
-0.950079
0.190226
0.0663582
-0.57516
-0.777268
0.44128
-0.921364
0.80615
0.232182
-0.430316
-1.04759
-0.253941
-1.24089
-0.933383
0.012439
-0.0340866
-0.431639
0.841467
-1.27168
-1.35118
-0.601331
-0.614439
-1.66603
0.17931
-0.215166
-0.0768996
-0.373726
-0.647364
0.937667
-0.342291
-0.422914
1.22776
-0.405004
-0.305381
-0.37793
0.725063
-0.554213
-1.1552
0.0966987
-0.650952
-0.521254
0.0480426
0.516896
-0.62998
-0.903577
0.0834423
-0.0402027
-0.0146101
-0.638669
-0.143123
-0.154346
-1.0846
-0.813204
0.0937816
-0.278051
-1.7462
-0.386442
-0.311607
-1.15239
-0.308219
0.500114
0.236848
0.242259
-0.633502
1.1421
0.0552918
1.33946
0.671089
0.995868
0.0133303
-0.406699
0.489185
-0.934911
0.608946
1.09782
-0.22255
1.59263
0.960807
0.522404
-0.148971
-0.699653
-2.28683
-0.41006
-0.0505408
-0.0886477
-0.0136725
0.726171
-0.90723
0.925302
-0.819795
-1.18889
-2.46337
-1.77619
-1.75792
0.0802424
-0.31566
0.399118
-1.77488
-0.560784
-0.729943
-2.76882
-0.140724
-0.518104
-2.02532
0.0321126
0.436048
-0.504726
-1.13004
-1.73302
-0.348879
-0.413491
-2.09191
-1.42199
-1.14456
-0.43261
-0.0545209
-1.21692
-0.713201
-0.298125
-1.63731
-2.28057
-2.20519
0.565925
-0.317602
-0.944225
-0.256605
0.659353
0.708294
-1.30211
-1.13103
-2.74257
-0.227154
-1.55916
-0.306617
-1.58379
-1.37958
-1.5582
-1.03622
-1.03774
-0.78754
-1.69131
-1.6948
-0.561333
0.191945
0.117551
0.229524
-0.472604
0.00108344
-0.817476
0.18798
-0.209831
-3.34142
-0.923534
0.0628955
0.187642
-0.721639
-0.749858
-0.910162
-0.394414
-1.16268
-1.29482
-0.446031
-1.25819
-1.13024
-1.01454
-0.246643
0.0434184
-0.672875
-0.719609
-0.064404
-0.506362
0.404882
-1.54588
-1.32431
-1.38367
0.30949
-1.29013
-1.16231
-1.53989
-1.65518
-0.770492
-0.31561
-0.47683
-0.807395
-0.256754
0.06631
-0.274772
0.768619
-0.897003
-1.50666
-0.717097
-0.082889
-0.20446
-1.94489
-1.19526
0.122999
0.107299
0.690551
-0.188164
-0.569839
-0.39045
-0.223059
-0.763889
0.329298
0.823677
-1.46686
-0.748936
-0.00239829
-1.0163
-0.673572
0.457709
-0.556534
0.51369
-0.194959
0.0774368
0.481403
0.221399
-0.232595
-0.991239
-0.946881
-0.868304
-0.0829697
0.435461
-1.03115
-0.0611853
0.221139
0.572579
-0.544616
-0.378076
-0.0137675
0.374043
-0.217513
0.391156
-1.36785
0.0605278
1.07657
-0.20871
-0.138964
-1.04879
-0.494987
-0.505244
-2.24058
-1.6681
-1.37264
2.16795
0.438685
-1.32856
-0.340568
0.215436
-2.75462
-2.89836
-0.921591
-2.85935
-1.13562
-1.11887
-0.977276
0.33701
-0.460415
-2.04572
-0.919317
-3.33845
-1.28009
-0.218002
-0.202188
0.0433051
0.362364
0.194644
-0.834374
0.0478566
-0.858429
0.0382363
0.0188268
-1.14608
-0.426827
-1.06258
0.159008
0.694362
0.216715
-0.982186
0.0921591
-0.7145
-0.88318
-1.90537
-1.6848
-0.00999979
0.581837
-0.684804
-0.495713
-0.671821
-0.751053
-1.4102
-2.45469
-1.17076
-0.260902
-0.899044
-0.703043
-1.25163
1.00015
-0.501741
-0.904674
-2.00623
-1.27498
-0.248566
-1.62083
0.0383492
-1.17453
-0.389546
-0.474103
-0.341561
-1.67327
-1.19145
-0.568858
-1.69818
-0.865425
-1.15695
-0.801346
0.845293
-0.949968
-1.10722
-0.700741
-1.56303
-0.894286
0.348388
0.206423
-0.946402
-0.362688
-0.0120587
0.080142
-1.28992
-0.102296
-0.450013
-0.130211
-1.52761
-1.8971
-0.752581
-0.161689
-1.03923
0.15273
-0.606827
-1.25259
-1.66743
-0.766379
-1.51554
-0.273744
1.6533
0.807375
-0.287352
-0.112824
-1.32577
-0.401095
0.447226
-1.56519
-0.63146
-0.443731
-0.425772
-0.101053
-0.186158
-0.915697
0.335167
0.0971491
-0.795507
-0.189053
0.765813
-0.840624
-1.12319
-0.125197
-0.608092
-0.172463
0.614119
-0.0538345
-0.88284
-0.857219
0.0383914
-0.102624
-0.649476
-0.120611
-0.0643939
-1.03008
-0.0471317
-0.614079
-0.76976
-0.723965
0.206816
0.161598
-1.22614
-0.802977
0.117377
-0.0842284
0.178439
-0.13867
-0.433302
-0.218975
0.398342
-0.810762
-0.121106
0.238205
0.525266
0.000906326
0.291052
1.48486
-0.329522
-1.8021
0.427261
-0.537122
-0.75122
0.0507588
-0.316332
-0.0768937
-0.140285
-0.740806
-2.22208
-2.31461
-2.11714
-0.563321
-1.41551
-0.867993
-0.56249
1.1359
-0.760305
-1.59597
-2.09561
-1.28479
-0.0942119
-0.77175
0.0623146
-0.376166
0.394834
-1.34014
0.415513
-0.835161
-0.0798346
-0.794466
-0.0189577
0.131676
-1.66203
0.225295
0.279837
0.10641
-0.297201
-0.209385
-0.402201
-1.80049
-0.639446
-0.134043
-0.29133
-1.14721
0.3233
0.0421789
-1.52907
-1.62094
-2.45205
-1.60784
-1.81383
-1.26093
-0.526085
-1.6964
-0.53695
-0.352589
-0.305871
-1.18041
-1.86896
-1.88407
-1.00695
-1.07467
-0.175241
-0.691815
0.216493
-1.62477
-0.824917
-0.937155
-0.185641
-0.657873
-1.72673
-0.693
-0.514806
-0.177436
-1.02766
-0.770621
-0.102787
-1.7826
-1.07686
-1.04147
0.558728
-1.59
-0.605777
0.272423
-0.258819
-1.54227
0.231017
-0.873924
-1.58304
-0.297683
-0.921236
0.807455
-0.125085
-0.338651
-0.349072
-1.21365
0.0989393
0.27812
-0.104413
-0.208374
-0.275911
0.256376
-0.218722
-0.0241434
1.29715
-0.867675
-0.506226
-0.444965
-0.563003
-1.63265
-0.760378
-0.794455
0.124447
-0.616685
0.506372
-0.845425
-0.863148
-0.876873
-0.423486
-1.08338
-1.39916
-1.84703
0.0590589
-1.46232
-0.859342
0.811699
0.7569
-1.21475
-0.93297
-0.804962
0.528492
0.411791
0.0976833
-1.10104
-0.577298
-0.565153
0.11328
-0.609008
0.327248
-0.482848
-1.44593
-0.148632
-0.318894
-0.969835
0.0720703
-0.479024
-0.0849467
-0.545567
0.0159468
0.419955
0.811557
-0.562953
-0.176196
-1.38203
-0.552192
-0.290731
-0.0116262
-1.0234
-0.938962
-2.27687
-0.977753
-1.98797
-0.426635
-0.0654536
0.124637
-0.952385
-0.915712
-2.05882
-2.26565
-1.34456
-0.989414
-2.1958
-1.25653
-1.13821
-1.10836
-0.709117
-1.13051
-1.18588
-1.24978
-1.34586
-1.3007
-0.588863
0.182807
-0.207765
-1.10522
-0.681689
-1.00815
-2.01986
-1.81215
-0.74357
-0.705258
-1.3388
-2.04083
-0.655319
-1.47494
-1.00816
-1.37995
-0.69523
-1.04132
-0.53469
-0.788107
-1.28813
-0.906962
-1.83336
-0.208456
-0.510731
-1.23834
-0.588685
-2.64012
-0.467543
-1.79433
-0.197832
-0.504782
-0.600945
0.23748
0.538504
-1.25443
-1.71663
-1.2588
0.0796696
1.13481
0.388365
-0.290409
0.407325
0.709305
-1.44958
0.168375
-1.51501
-0.676896
-0.840423
-1.23799
-0.999964
0.0916076
-0.212314
-0.300375
0.124262
-0.0705641
-0.408094
-0.808273
-1.09696
0.0433002
-1.96738
-0.848005
-0.700846
-0.103372
0.0326253
0.353643
0.456419
-0.406618
-0.0295605
-0.756982
-1.60205
0.064352
-1.11239
-0.191249
-0.181849
1.36541
-0.383256
-1.28299
-2.37741
-1.18563
0.162448
0.253918
0.246574
-0.953857
0.11099
-1.22133
-1.51727
-0.745909
-0.316871
-1.60108
0.176866
-0.00774819
0.262686
-0.342211
0.0156507
-0.989209
-1.00531
-1.79598
-0.282228
-0.49001
-0.971134
-0.628741
-1.21183
0.970514
-0.325577
-0.54239
-0.00366623
-0.240389
0.678517
-0.636665
-0.399804
-0.150326
0.671309
-0.924159
-0.999894
0.0839657
-0.31735
-0.406938
-0.144921
0.158244
-1.09481
-0.340405
0.171862
0.755524
0.249791
-0.71014
-0.0782497
-0.488745
0.598205
-0.811844
0.99289
0.384386
-0.751432
-0.887458
0.14379
0.975569
0.512049
0.155814
-0.967306
-1.43102
-0.35513
0.550972
0.74379
0.303501
-0.0776528
-0.319275
-0.939341
-0.952163
-0.703374
-2.30207
-3.09434
-1.63967
-0.370897
-0.80011
0.560909
0.518165
0.251415
-0.678008
-1.53283
-0.162776
-0.711325
0.168991
0.0269744
-0.04084
0.225375
0.160125
-0.1381
0.158212
0.0788531
-1.62545
-0.25964
0.219542
0.397911
0.0873124
-0.24099
-0.523718
0.0346366
-1.46211
-1.33916
-0.808532
-0.208424
-0.601865
0.102367
-0.222946
-1.36071
-0.223861
-0.420718
-0.402449
-0.209275
0.792406
-1.75673
1.26586
-0.410448
-0.0755298
0.447362
-0.747333
-1.79285
-2.36489
0.277707
-1.59962
-0.304586
1.01119
0.0106492
-0.335275
-0.706534
-0.406498
-0.296632
-1.65538
-0.20731
-1.10185
-0.686998
0.34143
-1.29001
-0.807796
-0.691783
-0.366395
-1.71982
-0.63052
-1.21918
-0.598312
-1.03024
-0.0759445
-0.192279
-0.338192
-0.857373
0.358886
-0.443186
-0.323293
-0.640481
-1.9565
-1.53329
-1.31297
-0.937403
-0.495916
-0.733222
-0.217558
-1.27104
0.337282
-0.307819
-0.379844
0.172004
0.283569
0.329361
0.611369
-0.105097
-0.448522
-1.33182
-0.512717
0.250977
-0.0623975
-0.997481
-0.786011
-0.545569
0.0323623
0.119831
-1.81585
0.23043
0.258321
-0.472167
0.088209
-0.582884
-1.01111
0.611095
1.62777
0.0297023
0.855746
0.244237
-0.292629
0.719019
0.710316
-0.513355
0.209474
-1.30756
-1.76969
-0.949022
0.143007
-1.11682
0.705473
-0.575906
-0.741088
-0.0504101
-0.555681
0.305863
-0.91687
0.0802344
1.0452
-0.318895
0.421855
-0.503407
-0.835252
0.382657
1.35038
0.162427
0.0626434
1.05152
0.343267
-0.0408569
-0.391934
-2.69345
-1.03199
-0.920793
-0.118845
0.925104
0.651883
1.0578
-0.193761
-1.34234
-1.79048
-0.82608
-1.95087
-2.08596
-0.701955
-0.826261
-0.138951
0.0202753
0.354699
0.620566
-1.98861
-0.739014
-0.654317
0.290315
1.65036
-0.460741
0.359064
-0.329685
0.778455
-0.592147
-1.71039
-1.55734
-1.48716
-1.54885
-1.02321
-0.155835
0.0631958
0.786949
0.199108
-0.382058
-2.45533
-1.10776
-1.92182
-0.67714
0.497375
0.474409
-1.22669
-0.355439
-0.297848
-1.08602
-0.131432
-1.40783
-1.02051
0.470557
-0.432087
-0.321412
-0.92458
0.104086
-0.143673
-0.968345
-0.260157
-1.32042
-0.831408
-0.522969
-0.9707
-0.571062
0.0741518
0.0660271
0.349915
-0.717559
0.0947884
-0.186775
-1.7146
-1.17836
-0.907949
-0.539456
-0.93253
-0.378433
-1.38896
-0.702709
0.169474
-0.218878
-1.07009
-1.31165
-0.828215
-0.376324
-0.204219
0.0626989
-0.109626
0.600717
0.349256
-1.4058
0.154118
-0.727738
-0.331077
-0.710549
-0.497666
-0.0763017
-0.0789134
-0.937341
-0.682257
-1.44646
-0.277558
-0.000849588
-0.554384
0.10067
0.379804
0.915683
-0.235308
-0.041277
-1.24275
0.100174
-1.82317
-0.618172
-0.0465425
0.388833
-1.60485
-0.395316
-0.573088
-1.09585
-1.80268
-0.703576
-0.229299
-0.20252
-0.789351
-0.535218
-0.0672871
-0.971404
-0.867993
-0.815742
-0.404217
0.207794
-0.469564
-1.25118
0.016408
-0.309658
-0.676864
-0.466147
-1.0345
-0.576426
-1.38582
0.134183
0.759361
-0.523211
-0.491222
0.440197
-0.112538
1.15958
-1.07213
0.0448666
-0.589963
0.286332
-0.562792
0.983737
-0.359965
0.488927
-0.511555
-0.321161
0.997857
0.486808
1.59104
-1.50723
0.570912
-0.579323
-0.14832
-0.114026
0.465936
0.279711
-1.19754
-0.3127
-0.150648
-0.205778
-0.449474
-0.118774
-0.333997
-0.913664
-0.598683
0.554637
-0.238096
3.84025e-05
-0.530232
-2.89478
-0.473
0.570662
0.0837026
0.591694
-0.107196
-0.262939
-0.117064
0.383369
0.0744129
-0.385897
-0.787308
-0.150662
-0.349665
-0.459899
0.0161367
-0.47823
0.0492054
0.0557472
-0.142416
-0.204557
-0.927419
-1.25557
0.207809
1.11919
-0.814805
-0.359931
-0.494067
-0.71098
-0.387463
-1.11587
0.185552
1.00215
-0.187581
0.0497769
0.10946
-0.348172
-0.414619
-1.35314
0.574825
-1.85985
-0.688473
-0.386783
-0.871173
0.731299
-0.458424
0.209802
0.473355
-0.148167
1.0538
-1.07187
0.138843
0.419479
0.697021
1.14702
0.450306
-1.81474
0.337282
-0.242586
-1.93282
0.0935371
-1.09608
0.0153248
-0.237181
1.97838
0.739608
-0.442552
-0.596039
-0.300181
0.162151
-0.307401
-1.65501
-0.517667
-0.803152
-0.529082
-0.870199
0.0334442
-0.868524
0.4978
-0.998313
-0.16711
-1.17914
-1.56893
0.890156
0.250923
-0.258521
0.0914468
1.00088
-1.66926
1.96508
0.0348019
-1.23508
-0.161955
-1.28505
0.0418241
-0.176152
-0.11585
-0.435709
0.0860494
-0.579475
-0.31778
-0.67663
-0.461687
-0.0639374
0.820509
1.08199
-0.37614
0.114782
1.12085
-1.30181
-0.647311
0.196866
-0.120565
0.395111
-0.736937
-1.76832
1.71694
0.541379
-0.559213
-0.26632
-0.226264
0.425068
0.226184
-0.547564
1.34445
-0.521706
0.757996
-0.769046
0.295193
-0.158879
0.0284324
-0.812602
-0.226913
0.148181
0.959836
-0.0102913
0.0667107
0.16743
0.278083
0.21014
-2.10741
0.07631
-1.31502
-0.00260533
-0.44394
-0.115042
-0.322157
-0.0821791
-0.113473
-0.78082
0.308726
-0.148413
0.685664
0.491577
0.252583
1.82614
0.45033
0.280112
-0.461912
-1.30645
-0.792812
-1.86345
-1.27721
-0.926637
0.362311
-0.231297
0.767102
-0.521837
-0.441782
1.03785
0.881798
-0.0693731
-0.353247
-1.0291
1.30159
-0.634057
1.11205
-0.594251
-0.0925126
-1.43281
-1.33167
-0.959269
-0.0383237
0.449063
-0.478533
-0.047174
-0.440704
0.634369
1.46038
0.69614
-0.0569305
-0.607261
0.237293
1.37054
0.650237
-1.13156
0.465667
-0.564614
-0.595339
-0.355668
-0.966257
-0.177844
-0.0121904
-0.566814
-0.238613
-1.25464
-0.959842
-0.460044
1.24156
0.86496
-0.999875
-0.3914
0.499559
-0.47679
0.145998
1.09113
0.917919
-0.87259
-0.411287
-0.0795252
-1.85451
0.422244
-0.839206
0.919905
-0.168681
-0.349629
-1.37855
0.109978
-0.56798
-0.299735
0.680975
-0.365341
0.864738
1.14988
-0.0207742
-0.51798
0.578874
-0.733795
0.136334
-0.558171
-1.4457
-0.102695
0.0816825
1.24339
-0.111637
-0.207256
0.266851
0.796666
-1.38268
-0.226481
0.656932
-1.15446
1.03549
-1.11593
-0.6072
-0.711256
0.669705
-0.383452
0.216629
0.0585155
-0.610447
1.43209
-0.907962
0.131196
0.459145
-1.11432
0.44458
0.898016
0.416771
0.399195
-0.885495
-1.49325
0.0287661
0.566421
-0.938208
-0.123925
-0.191499
-1.55059
-1.56111
-0.221198
-1.38544
-0.181708
-0.499902
0.173149
-0.46004
-0.970391
0.398479
0.508939
-0.468456
1.73881
-0.582579
0.630642
0.606637
-0.40119
-0.0884508
0.100453
-0.306704
-1.08138
0.783597
-1.04328
-0.348554
-0.357054
0.432785
-0.233902
0.0979009
0.562743
0.354011
1.02325
0.573022
0.568916
0.186632
0.750408
1.37736
-0.20374
0.870663
2.19454
1.02476
1.50923
0.418427
-0.447159
-1.60322
-0.178063
0.233702
0.285226
0.955948
0.0427537
1.65676
0.317124
0.93058
0.0676681
0.0263898
-0.146814
0.123419
0.567329
0.000938872
0.856849
0.202765
1.42029
-0.149524
-0.18262
0.606412
-0.0061739
-0.362167
-0.252106
1.11945
0.569744
0.846707
1.29766
0.597328
-0.90002
-0.30994
-0.0344057
-0.267638
-0.705029
-0.408095
0.44356
1.1892
-0.418118
-0.728207
0.245898
0.0947057
-1.67546
0.76094
-0.360938
1.47851
0.956309
0.779717
0.301107
-0.351055
1.13366
-0.0960046
0.505822
-0.481418
0.347634
-0.0230131
0.101562
-0.436369
0.645425
0.820943
0.362373
-0.504082
0.928368
-1.01599
0.618509
0.774069
0.801484
0.456434
1.20548
0.449337
0.878178
0.421119
-0.198922
-0.77231
-0.300892
-1.69004
1.77019
-0.762634
1.69073
-0.0645936
-0.129075
0.174619
0.394616
-0.323437
1.41269
0.193939
1.01833
0.378564
-1.00547
0.124519
-0.335669
-0.289144
-0.21839
-0.698282
-0.37133
-0.70375
-0.0404972
-1.24805
1.40339
0.408502
0.172044
-0.159285
-0.534325
-0.0844533
-0.555646
0.535712
-0.11377
-1.02
-0.0940623
0.161995
0.538254
-0.183762
1.06552
-0.434942
0.536745
1.20216
-0.0764252
0.045659
-0.689539
-0.39907
-0.280455
0.378587
-0.0558287
-0.154421
-0.404517
0.0396462
0.100093
0.826716
0.336074
-0.461855
-0.559966
-0.417307
1.17334
-0.580088
0.00679126
0.793155
-0.722001
-1.04807
-0.310703
0.859086
-0.280254
-1.05484
0.371809
0.351302
-0.35199
0.792839
2.13934
1.42237
2.33111
1.52233
1.54133
1.3641
2.06253
0.411872
0.987055
0.488994
0.496984
0.871514
2.33037
2.08144
0.735189
0.013114
0.950244
0.486949
0.755418
0.297504
0.444712
1.57551
1.5609
0.259703
0.547607
0.810429
1.51724
0.254683
1.68807
2.15653
1.67423
1.88189
0.314553
-0.4913
0.323576
-0.304824
0.247381
0.890728
0.790011
1.9344
-0.726453
0.0138753
0.861693
0.859024
1.37257
1.1291
0.706385
0.0567766
-0.241435
0.479971
1.05298
-0.262751
3.44943
0.290422
-0.43781
-0.481483
0.207068
-0.197595
-0.337815
0.852121
1.38189
0.570197
0.776075
-0.587638
1.74541
-0.360608
0.652813
0.166351
-0.0382884
0.816086
1.07527
0.970709
1.24277
0.885407
-0.754879
-0.22083
0.781321
0.307084
-0.414117
0.993517
-0.378554
1.67472
1.4488
0.4196
-1.03494
1.03933
0.462028
0.246945
0.750769
1.07056
2.00604
0.836612
1.38997
1.78566
-0.640093
-0.493045
-0.177803
0.104058
-0.228823
1.04866
-0.565235
0.504928
-1.05317
-0.668924
-0.456487
0.732131
0.43195
1.28273
-0.909497
0.175849
-0.62192
0.735082
0.855995
0.300284
1.23266
0.992559
-0.00217506
0.0100638
0.152102
-0.54876
0.929612
-2.40698
-1.98581
0.0962232
0.0552986
0.178961
-0.459503
0.0339618
-0.311323
0.719986
0.208832
-0.364249
0.155166
0.263677
-0.388498
-0.0509151
0.855166
0.838453
0.238006
0.0687654
0.795216
-0.541625
0.473738
-0.64591
1.15381
-0.226598
0.265215
0.100633
-0.404311
1.46254
-0.41523
0.13685
-0.251525
-0.134442
1.13755
-0.240656
0.229331
1.17236
2.01969
1.3734
1.25515
1.27257
2.53748
1.3872
2.25649
1.79341
2.01803
0.947637
1.59482
2.33935
1.56984
2.13562
2.15397
2.47534
1.15002
0.899609
0.0747063
1.40181
-0.187349
1.74347
-0.0685385
0.362761
0.532524
2.50407
0.440822
0.204088
2.85167
0.068656
2.14428
0.388081
0.616207
0.245765
1.60777
0.836007
0.492361
0.2293
-0.454544
1.28244
2.9503
1.80412
0.780709
1.57047
0.841205
0.820544
-0.000463081
1.32704
2.19714
0.894624
1.72399
0.932296
0.0167696
1.23053
0.396018
0.781688
1.19295
-0.367776
0.468571
0.365412
0.579701
0.984183
0.999351
1.37583
0.458763
0.233332
0.15525
0.703361
0.592476
1.04451
0.877675
0.00886848
1.8323
1.30987
0.345292
2.35097
0.243611
-0.0707109
0.0601979
-0.304881
0.551215
0.786091
1.2161
1.15763
0.665595
-0.128598
0.867765
1.41834
0.889663
1.29619
0.348498
0.530328
0.755297
0.530373
1.44909
0.210947
-2.07245
0.197586
0.523135
-0.684439
0.67869
0.696481
0.990243
0.196151
0.252535
-0.0487825
-0.156819
0.274197
1.93773
0.487249
0.670606
-0.112017
0.0701752
0.0524452
-0.623626
0.370014
-0.30847
-1.20211
0.228661
1.15272
0.813395
0.282129
-0.968503
0.569565
0.146643
0.670292
-0.0109052
0.591285
1.38123
-0.109173
0.585813
0.510328
-0.356435
-0.919231
1.33964
0.556461
0.843519
0.678683
-0.201226
0.730112
0.47784
-0.345742
-0.443043
-0.65599
1.02588
-0.525037
-0.216083
-0.0126488
-0.319243
-1.10794
0.854742
0.462047
-0.066858
-0.0095965
0.663431
-0.381645
0.97288
1.03418
-0.138021
1.90644
2.74924
0.860538
2.56172
2.54032
2.10316
2.52951
3.48491
1.85529
2.59382
2.9478
2.75733
2.91453
2.02385
3.24695
2.39115
1.72873
0.805362
0.911386
0.822296
0.83269
1.25512
1.66581
3.04852
1.40426
0.917029
2.24348
2.08388
1.55683
1.21665
2.68577
1.65082
1.35591
1.23621
2.54774
1.62094
0.900313
0.775542
0.756146
0.560018
1.12089
2.20764
1.28349
2.36928
1.34839
1.54227
2.81847
1.57116
1.795
1.69876
0.953141
0.763858
2.74991
2.43985
1.95411
1.75008
1.35855
1.4158
1.27099
0.243969
0.345279
1.03847
0.622843
1.24538
1.20773
1.50163
1.55954
1.13372
1.26231
1.81688
1.00257
1.1173
2.01812
1.7882
1.35118
0.317541
1.48094
0.336851
-0.176891
0.764961
1.42022
1.9974
0.721358
0.289084
0.238244
0.256453
1.13189
0.749206
0.814004
1.01241
0.636186
0.631239
0.506272
0.944982
0.534481
-0.498987
0.978656
-0.0198572
-0.131407
0.819996
0.70891
0.830025
1.07975
0.224524