/*--------------------------------*- C++ -*----------------------------------*\
| =========                 |                                                 |
| \\      /  F ield         | OpenFOAM: The Open Source CFD Toolbox           |
|  \\    /   O peration     | Version:  2212                                  |
|   \\  /    A nd           | Website:  www.openfoam.com                      |
|    \\/     M anipulation  |                                                 |
\*---------------------------------------------------------------------------*/
FoamFile
{
    version     2.0;
    format      ascii;
    arch        "LSB;label=32;scalar=64";
    class       volScalarField;
    location    "0";
    object      stateMean;
}
// * * * * * * * * * * * * * * * * * * * * * * * * * * * * * * * * * * * * * //

dimensions      [0 0 0 1 0 0 0];

internalField   nonuniform List<scalar> 
3200
(
322.606
323.59
324.317
323.878
321.833
324.351
323.912
324.74
323.993
323.438
324.698
324.645
325.159
324.552
324.415
323.372
323.085
323.056
323.614
323.07
319.968
320.067
319.103
319.413
319.862
320.491
319.535
320.502
321.538
320.737
321.274
321.608
321.074
320.604
321.843
320.847
320.912
320.556
321.03
320.794
317.128
317.045
316.303
316.818
316.559
317.575
318.058
317.814
317.67
319.25
318.744
317.118
317.749
318.72
317.641
316.667
317.066
317.677
317.93
317.349
314.373
313.947
313.397
313.727
313.855
314.211
314.075
313.879
314.391
315.059
314.393
315.482
314.687
315.41
315.338
314.182
313.429
313.518
314.405
314.894
311.11
310.603
310.024
310.264
310.757
311.158
310.489
311.834
311.625
311.826
311.457
312.558
312.189
312.432
311.463
311.277
310.588
309.35
312.098
311.534
308.959
308.121
309.108
308.445
307.11
307.995
308.367
308.444
308.455
307.63
309.744
308.506
308.227
308.19
308.294
307.397
307.584
309.384
307.063
308.977
304.952
304.222
304.923
302.798
305.471
305.218
304.7
304.764
304.715
305.096
304.23
305.552
304.55
306.696
305.246
303.422
304.643
304.689
305.265
304.812
302.305
301.76
301.527
301.143
303.024
301.235
301.782
302.348
300.963
300.881
302.387
302.581
300.577
301.427
302.095
300.401
302.619
300.73
301.124
301.521
323.229
322.306
322.462
323.184
323.57
324.182
323.238
323.674
324.85
325.128
326.214
324.271
325.713
323.945
323.649
324.603
323.149
322.18
322.878
322.519
319.797
320.351
318.646
320.675
319.351
321.928
320.816
323.056
320.862
322.622
323.377
321.797
322.63
321.324
321.924
319.904
321.034
319.919
320.054
321.669
317.477
317.206
316.074
316.289
316.448
317.705
317.921
318.379
319.092
318.394
318.571
318.973
317.935
318.501
318.267
318.01
317.34
316.8
319.29
318.257
314.426
314.819
312.934
314.537
314.35
313.709
314.97
314.311
315.762
315.479
315.097
314.759
314.432
314.604
314.845
314.606
315.347
313.599
314.131
314.85
311.008
309.341
309.805
310.76
311.043
311.316
310.521
310.717
311.511
311.374
311.681
311.893
311.239
312.332
311.626
312.018
311.026
311.712
311.049
310.579
308.398
308.382
307.689
307.514
308.483
307.652
307.563
308.332
308.644
310.105
308.919
307.729
307.234
306.872
308.602
307.14
308.261
307.897
307.84
308.21
304.324
304.26
305.315
304.913
305.963
306.057
304.921
305.626
304.798
303.696
304.76
305.626
305.861
304.628
305.12
304.505
304.534
304.026
304.772
303.799
301.562
300.842
302.186
301.513
301.711
300.924
301.515
301.837
301.802
303.071
300.131
302.958
300.647
302.113
301.128
300.441
302.132
301.856
302.58
302.009
323.344
322.999
322.277
323.143
322.683
324.195
324.654
324.929
324.487
326.247
326.164
324.749
325.481
324.705
324.021
323.657
323.747
323.118
324.749
322.825
319.89
319.813
319.838
320.099
321.328
319.973
320.718
322.084
320.444
320.945
322.678
323.81
322.157
321.685
320.414
320.729
320.112
321.154
320.444
321.685
316.942
317.664
316.382
317.557
317.839
317.237
316.854
318.858
317.674
319.244
318.663
317.565
317.839
317.796
317.737
318.448
317.547
316.56
318.476
318.226
314.292
313.43
314.073
314.183
315.005
314.016
315.351
314.572
315.771
316.416
316.548
316.186
314.031
315.848
313.215
314.502
314.171
313.024
313.34
314.826
310.345
310.724
310.479
310.764
311.672
313.019
311.064
312.168
312.885
312.015
311.671
312.902
312.273
313.145
312.221
312.326
309.995
311.339
312.271
311.08
308.186
307.64
307.976
307.4
308.048
308.216
307.932
309.411
308.776
309.048
309.114
307.86
309.397
306.806
307.077
308.535
308.243
306.986
307.996
308.714
304.083
304.333
305.459
304.52
305.027
304.626
304.146
305.154
304.977
305.156
306.019
306.044
304.727
304.169
304.3
304.755
303.605
304.384
305.613
304.441
300.492
302.197
302.752
301.769
300.886
302.016
301.594
301.945
302.301
301.674
301.78
301.84
301.655
302.05
300.762
301.125
302.681
301.987
302.351
302.198
324.041
323.73
322.152
322.185
323.996
323.725
324.134
324.639
325.532
325.293
326.713
326.04
324.387
326.132
323.377
324.77
322.85
323.822
324.59
324.246
321.595
320.429
320.279
321.183
321.094
322.121
321.969
322.968
322.799
322.651
323.162
321.55
322.732
323.368
321.658
322.426
321.454
320.633
320.319
321.125
317.655
317.8
316.298
316.549
317.322
317.603
318.399
319.967
319.329
319.278
319.536
319.506
319.613
318.274
318.302
316.865
318.131
317.876
317.036
318.294
315.54
314.282
314.512
314.579
315.107
314.703
314.612
315.502
315.017
316.13
315.579
316.082
315.153
315.546
316.03
313.929
314.751
314.397
314.888
313.48
310.833
312.325
310.862
311.358
310.832
311.243
310.161
311.121
311.57
313.946
311.727
312.921
311.784
312.521
312.522
312.722
310.899
311.645
311.865
311.739
308.287
307.395
308.054
308.272
307.963
309.261
307.233
307.879
308.9
309.679
307.049
308.839
309.043
308.598
307.467
308.78
307.898
307.641
308.708
308.529
305.374
305.771
304.474
305.619
305.206
304.192
304.194
304.702
305.108
305.217
305.967
306.125
305.843
306.132
306.113
304.522
304.3
305.333
306.274
303.975
300.8
301.369
301.568
302.537
301.803
301.359
301.427
302.327
301.685
300.665
301.182
301.089
301.689
300.963
301.532
301.259
302.146
301.857
301.755
302.067
324.421
323.683
322.696
322.546
323.777
325.319
325.279
325.478
326.511
326.862
326.996
326.952
326.211
324.778
325.764
324.329
324.06
323.995
323.896
325.184
321.109
321.466
319.531
320.781
321.132
321.388
321.488
322.364
322.29
323.379
322.833
323.601
323.344
322.221
321.174
321.578
320.46
321.466
320.777
321.798
317.866
317.623
317.687
317.464
316.944
319.151
318.845
319.45
319.772
319.618
320.028
318.85
319.887
317.893
319.631
318.384
317.515
317.815
317.909
318.804
315.416
314.568
314.859
315.768
314.417
314.359
314.196
316.007
315.133
315.033
317.719
317.581
315.068
316.15
314.971
314.786
315.207
314.44
314.346
314.37
310.344
310.915
310.979
311.448
311.379
310.903
312.272
312.16
311.444
312.565
312.142
313.033
312.347
311.931
312.902
311.496
311.792
311.237
312.011
311.47
308.598
308.335
308.268
309.227
307.259
309.099
308.417
309.223
309.048
309.391
308.018
308.439
309.228
308.141
309.436
308.136
308.767
309.14
307.669
307.231
305.046
304.82
305.095
304.136
304.296
305.801
305.759
305.226
305.622
306.405
305.113
304.535
306.026
306.039
304.61
304.746
305.302
305.765
303.346
304.697
301.199
302.974
302.644
301.804
302.239
301.565
301.138
302.171
302.284
301.334
302.313
302.825
301.303
301.257
302.126
301.852
301.961
301.362
301.047
302.334
325.78
325.551
323.877
323.709
324.125
325.206
326.234
326.086
326.186
326.941
327.584
327.091
326.889
326.799
325.926
325.881
323.431
324.999
325.129
324.889
321.096
321.143
320.896
320.963
320.932
322.428
322.436
323.347
323.527
323.629
323.779
323.667
323.503
323.476
322.515
322.889
321.868
322.181
321.124
321.016
318.794
319.184
319.626
318.959
318.099
318.823
319.123
320.792
319.017
321.055
320.719
320.619
319.094
318.865
318.693
319.879
318.386
319.441
317.554
319.094
314.647
314.469
315.715
315.638
315.796
315.509
315.505
314.649
316.117
316.526
315.791
316.6
316.867
316.327
316.037
315.989
315.849
315.412
314.913
315.398
311.255
312.138
312.45
311.526
311.249
312.215
311.628
312.633
313.332
312.866
312.48
311.803
311.918
312.405
311.555
312.338
311.706
312.705
311.372
311.008
307.457
308.433
308.027
307.99
307.956
308.887
309.461
308.925
308.539
310.17
309.808
309.87
308.364
308.489
308.735
309.082
309.291
308.432
308.778
309.653
304.927
305.133
304.439
305.433
305.774
305.688
304.588
305.751
305.235
305.333
305.533
305.351
304.525
305.075
306.153
304.403
305.231
306.298
305.282
304.986
301.813
301.701
302.838
300.482
302.234
302.034
302.38
301.889
301.194
302.045
302.201
302.047
301.767
301.111
302.445
301.391
302.583
302.046
301.333
302.18
324.859
325.249
324.303
324.659
325.099
326.012
325.353
326.485
328.486
326.786
327.852
327.459
326.336
326.233
326.125
324.297
324.674
324.337
325.342
325.322
322.635
322.831
322.149
320.935
321.46
322.448
322.339
323.285
323.835
323.82
324.112
324.623
325.151
323.783
323.64
322.057
323.034
322.462
322.288
321.714
319.428
319.72
318.669
319.105
318.225
317.687
319.357
319.239
320.315
320.3
321.906
319.695
320.75
319.963
319.446
319.172
318.878
319.219
320.672
318.853
316.612
315.839
315.274
314.672
315.143
317.051
315.369
318.499
318.261
315.539
317.615
316.865
316.211
316.224
316.952
315.534
314.96
316.278
316.151
315.549
311.65
311.979
311.592
313.209
312.12
312.586
313.264
312.079
313.878
313.227
313.675
313.735
312.83
313.946
312.741
311.809
312.71
312.585
312.629
312.578
308.362
308.345
308.627
308.98
308.223
308.786
308.526
308.554
309.892
309.396
309.061
310.015
309.627
310.148
309.466
309.097
309.41
309.169
307.87
309.157
304.58
305.144
305.014
305.796
307.204
304.934
304.892
305.082
306.475
305.48
306.295
305.349
307.261
304.532
304.617
304.836
306.21
305.033
304.831
305.964
302.174
302.089
301.118
301.641
300.707
301.393
302.851
302.459
302.481
302.543
302.92
302.707
302.126
302.061
301.291
302.016
302.496
302.474
301.449
302.029
325.3
326.308
325.756
325.971
325.441
325.573
328.231
328.854
328.017
328.134
330.099
328.723
328.497
327.642
327.177
326.316
326.486
326.519
326.207
326.029
322.319
321.852
323.08
322.304
321.581
323.049
322.624
323.991
325.032
323.523
324.294
324.748
323.842
323.23
323.413
323.974
322.293
322.718
321.635
322.632
317.241
319.376
319.071
317.238
318.474
319.728
320.36
319.462
320.118
320.715
321.406
320.469
321.533
319.72
319.647
318.893
319.764
318.955
320.578
319.217
315.195
315.702
314.6
316.125
315.122
316.153
317.305
316.822
316.112
317.077
317.565
317.413
316.616
317.281
316.608
317.051
316.882
316.731
316.728
315.831
311.42
311.684
312.512
312.916
311.902
313.46
311.911
312.632
313.4
314.073
313.279
314.211
313.797
312.705
312.573
312.775
311.298
313.209
313.101
312.211
308.928
310.08
308.368
308.906
308.914
309.351
309.751
308.271
309.627
309.747
308.096
309.69
309.514
309.482
308.252
309.391
309.846
308.45
309.065
308.835
304.953
304.543
305.77
306.131
305.232
305.439
305.49
306.177
305.726
305.761
306.692
306.396
305.444
305.753
307.145
305.701
305.539
306.292
305.368
304.501
301.441
301.455
302.358
300.611
301.728
300.472
301.165
300.861
301.86
302.288
301.392
302.808
301.248
300.738
302.034
300.19
300.792
301.202
301.846
302.378
327.324
325.752
325.775
326.22
326.553
326.204
328.19
326.649
328.603
329.081
330.355
329.559
329.332
327.203
327.246
326.14
327.906
326.285
326.072
327.806
321.949
322.584
324.421
322.716
322.666
323.945
324.875
325.731
324.528
324.686
326.365
325.601
325.143
324.178
323.495
324.319
323.461
322.694
323.703
324.089
320.738
318.181
319.343
320.267
319.879
319.249
319.458
321.681
321.663
323.355
320.839
322.091
320.686
321.75
321.288
321.18
320.359
320.063
319.535
320.224
316.914
315.953
315.426
315.743
315.876
316.813
316.55
317.543
316.663
317.126
320.257
317.775
316.663
316.363
317.062
316.856
316.771
316.012
316.555
316.514
312.319
313.264
313.312
313.386
312.808
312.7
313.58
313.763
313.204
313.697
312.786
314.686
314.367
314.291
312.434
313.851
313.533
313.722
313.661
312.643
308.819
309.074
309.529
309.114
308.927
309.398
308.471
310.234
310.914
310.16
309.526
309.611
311.282
310.435
309
308.886
308.166
308.91
309.167
308.893
305.338
305.935
304.917
304.503
306.876
306.236
305.559
306.631
306.331
305.221
306.236
305.143
305.81
305.48
305.006
305.188
305.56
306.237
306.118
305.983
301.799
301.299
302.791
301.848
301.593
301.267
302.409
302.261
301.911
301.531
302.123
301.506
303.251
301.803
300.763
302.023
301.926
302.809
302.229
302.221
327.91
327.624
327.687
324.524
326.632
328.76
328.095
327.805
330.966
331.208
329.232
331.07
329.156
328.873
328.408
326.734
327.152
328.36
326.875
329.007
323.638
322.819
323.112
323.195
323.203
323.682
324.991
324.34
325.411
324.6
324.619
325.699
324.815
325.22
323.718
322.871
323.021
323.892
322.509
323.072
319.884
321.107
321.147
319.749
319.435
320.966
321.013
321.384
321.602
322.334
323.379
322.022
320.973
321.416
320.984
321.269
318.739
319.964
320.107
321.007
316.878
316.014
317.598
316.166
317.606
317.037
317.314
317.342
318.787
318.364
317.742
318.812
317.865
317.997
317.448
315.586
317.154
317.084
316.466
317.166
313.067
311.95
312.256
313.584
313.178
312.995
313.053
314.547
313.448
313.842
313.522
314.874
315.154
313.886
313.145
313.854
312.485
313.069
313.551
313.84
309.484
310.322
309.197
307.396
308.368
309.582
309.515
310.817
309.955
309.14
311.152
310.185
309.935
309.828
309.396
309.361
309.965
308.588
308.709
309.514
305.433
304.53
306.208
306.565
305.643
306.198
305.827
305.094
305.8
306.649
306.623
305.708
305.811
306.304
305.711
305.582
306.472
305.414
305.91
306.014
302.483
301.57
301.638
303.051
302.654
301.758
301.981
301.736
302.066
302.367
302.153
301.529
302.725
302.018
301.637
301.326
301.824
301.509
300.292
302.089
328.182
326.222
327.519
328.083
327.63
328.327
328.383
328.687
329.461
331.031
331.124
330.837
329.11
329.722
328.879
328.243
326.196
327.742
328.245
328.476
324.263
323.299
324.264
323.734
324.474
323.989
325.979
324.433
325.833
325.155
325.869
325.017
324.717
326.301
324.159
323.818
323.69
323.789
323.414
323.38
321.327
320.354
320.092
320.505
321.617
320.389
320.886
322.634
322.852
323.749
322.905
323.045
322.366
321.454
322.408
321.007
320.567
320.264
320.895
321.396
317.92
317.194
317.46
316.77
317.496
316.785
318.803
318.148
318.363
317.666
318.138
319.153
318.016
317.693
317.178
317.832
317.366
316.488
317.97
317.113
313.551
312.068
314.37
313.549
312.834
313.519
314.939
313.279
314.464
315.215
313.93
314.511
312.703
313.522
313.599
313.455
314.157
312.681
312.349
312.614
309.167
309.317
308.895
309.486
309.407
308.196
310.46
310.178
310.174
310.322
311.392
310.489
310.466
309.468
310.11
308.877
310.112
310.014
309.918
309.382
306.472
306.837
307.351
305.515
307.105
306.569
304.957
305.06
307.066
306.802
306.674
305.323
305.405
305.671
306.811
306.22
306.139
305.391
306.047
305.062
302.291
303.27
301.995
302.189
302.863
301.843
302.414
302.036
302.509
301.953
301.549
301.151
302.514
302.111
303.297
302.445
302.161
301.858
302.847
302.747
329.449
328.4
329.718
328.481
328.438
328.549
329.894
330.076
331.375
331.662
330.741
330.305
331.356
330.199
329.812
329.481
328.763
328.861
328.608
328.422
325.013
325.18
324.734
324.242
324.91
326.068
325.877
326.392
327.538
327.4
326.332
326.223
326.723
327.236
325.618
326.177
325.433
325.525
324.574
324.708
320.648
321.076
321.801
321.656
322.817
321.413
321.912
322.799
322.264
324.374
322.202
323.469
321.759
321.906
321.806
320.747
320.21
321.767
322.005
321.372
316.436
315.523
316.453
317.324
316.819
316.698
319.017
317.53
319.306
318.516
318.679
319.029
318.698
317.475
317.619
317.526
316.91
316.912
317.066
317.324
313.983
312.951
315.103
314.134
314.137
313.679
313.668
313.449
313.419
314.32
313.943
314.632
315.405
313.637
314.688
313.627
313.468
311.771
313.377
314.169
311.605
310.49
309.244
309.259
309.373
310.674
309.698
311.103
311.451
310.707
310.278
311.535
309.705
309.817
309.457
309.962
309.497
310.395
310.309
311.024
305.833
306.086
306.628
306.351
306.998
304.875
306.226
306.485
305.978
306.23
305.311
306.611
306.343
306.05
305.175
306.71
306.722
305.573
305.913
305.958
302.007
301.719
302.993
302.259
301.769
301.205
301.729
302.704
302.082
302.498
301.411
302.816
301.001
301.595
302.712
302.828
301.775
300.922
301.365
301.706
329.012
329.708
328.916
328.308
328.406
329.12
329.744
330.182
330.941
331.026
330.777
332.304
332.957
331.306
329.795
329.95
328.298
328.043
328.026
328.723
325.96
324.786
325.58
324.957
325.353
325.658
325.601
325.837
326.256
326.022
326.101
327.743
326.257
325.606
325.219
325.293
325.367
325.393
324.588
325.889
322.098
321.73
321.336
321.948
321.458
321.984
323.299
322.307
322.606
322.64
322.447
321.393
323.84
320.672
322.171
321.636
320.899
321.875
322.714
323.124
316.769
318.778
317.652
316.514
317.689
318.199
318.716
318.533
318.508
319.909
318.461
319.313
318.814
317.668
319.154
318.508
318.217
317.713
318.898
317.678
314.518
313.998
314.561
313.745
313.997
314.271
314.903
313.779
314.646
314.56
314.877
316.16
315.671
315.359
314.87
314.301
314.402
313.749
314.671
312.962
309.832
309.975
309.517
309.503
309.556
309.365
310.162
310.571
311.501
310.706
309.942
310.231
311.119
310.843
310.522
309.853
309.667
311.505
309.365
309.266
306.201
305.683
306.41
306.898
305.334
304.372
306.019
305.232
305.872
306.423
305.411
305.406
306.601
305.84
307.308
307.715
306.836
305.684
306.888
305.024
302.498
302.677
302.005
302.531
301.688
302.93
301.949
300.997
302.37
301.634
302.559
302.886
301.659
300.679
301.851
301.931
300.923
301.612
301.977
302.314
331.692
330.246
330.397
329.867
329.089
329.61
329.422
330.851
332.123
332.636
331.672
332.732
332.743
331.182
331.088
330.153
329.728
329.121
328.593
330.988
325.997
326.094
325.376
324.252
326.593
325.988
326.866
325.911
327.389
328.563
328.41
328.284
328.238
327.559
326.503
326.069
325.115
325.467
325.822
327.713
322.573
323.537
322.483
321.508
321.726
323.609
322.897
322.97
323.849
322.942
324.219
323.784
322.201
322.974
322.703
323.125
321.901
321.95
322.583
321.725
318.946
318.578
318.426
319.037
318.797
318.3
318.439
318.262
319.404
318.63
318.912
320.401
319.79
319.413
318.913
319.159
318.444
319.292
318.45
317.457
313.97
314.914
315.277
314.92
314.592
314.536
314.371
314.626
313.973
314.255
316.01
314.42
315.244
314.765
315.043
314.714
314.168
314.044
314.781
314.433
311.294
310.191
310
310.644
310.078
309.882
309.418
310.628
310.476
311.7
310.357
312.258
311.011
310.381
309.873
311.784
310.485
310.572
311.009
311.651
306.628
306.192
306.217
306.858
306.657
306.239
307.187
307.119
307.092
306.693
306.081
306.746
307.502
306.2
306.482
306.799
306.535
307.049
306.539
307.31
301.853
301.241
302.54
302.527
301.614
302.183
300.925
303.169
302.06
302.699
301.823
302.668
301.113
302.445
301.581
302.566
302.357
301.019
301.513
300.396
331.542
329.662
331.052
330.87
331.077
330.721
331.104
332.74
331.966
331.862
331.917
332.102
331.661
331.718
332.101
331.562
330.167
330.711
330.233
330.565
329.055
326.8
325.964
326.666
326.367
327.261
327.587
327.578
327.174
327.533
327.993
328.344
327.612
327.674
327.614
326.943
327.228
326.486
326.271
326.302
322.435
323.296
323.8
322.518
321.784
323.883
323.572
323.822
324.121
323.839
324.568
323.224
322.326
323.4
323.018
322.794
323.074
322.959
323.722
321.655
320.115
319.054
318.896
319.529
318.072
319.396
318.845
318.678
319.365
318.198
320.324
319.078
318.732
318.358
317.791
318.353
320.473
318.172
318.609
320.188
314.147
315.423
314.423
314.79
312.688
314.031
315.306
315.533
315.289
314.854
315.323
316.644
315.455
315.666
315.3
315.536
314.52
315.307
313.829
315.239
310.365
311.438
311.907
309.531
310.25
310.835
310.551
309.694
312.401
308.786
310.716
311.967
310.857
311.927
310.534
310.677
310.537
310.774
310.173
310.777
306.452
306.848
306.68
306.332
305.495
305.279
306.776
306.317
305.334
307.768
307.113
306.258
306.553
306.005
307.098
308.084
304.551
305.677
306.73
306.4
302.284
301.645
301.86
302.65
300.775
302.656
301.389
302.927
301.87
302.328
302.141
302.978
302.385
301.999
301.174
302.129
302.035
301.919
301.792
301.848
333.254
331.253
332.864
331.779
332.439
332.312
332.695
332.597
332.727
333.446
332.356
332.762
331.829
331.881
331.944
330.169
331.326
331.269
331.791
332.453
327.919
329.143
328.748
328.594
327.495
328.263
327.418
328.83
328.836
327.401
327.557
328.463
328.661
329.214
326.73
328.491
326.555
328.065
327.373
328.559
324.383
324.137
323.377
323.056
324.145
323.861
324.384
323.413
322.66
323.462
324.215
324.727
323.81
322.572
323.164
324.798
323.039
323.904
323.773
323.407
319.894
319.208
319.173
319.864
319.668
320.805
320.616
320.201
318.559
318.967
320.832
320.192
319.241
320.133
319.404
318.338
318.379
320.034
319.441
319.008
316.621
314.423
315.785
314.132
315.323
315.599
316.71
315.287
316.012
315.768
314.787
315.809
314.532
314.181
315.27
315.672
314.473
315.68
314.709
315.324
312.02
310.732
310.62
309.534
310.963
311.125
310.71
310.227
312.441
311.301
310.418
312.212
309.989
312.093
311.525
311.562
310.107
311.085
310.412
310.515
306.97
304.961
307.345
306.351
306.067
307.681
306.157
305.733
306.234
306.262
307.546
308.144
306.602
306.036
307.505
306.65
306.673
307.988
307.954
306.581
303.518
302.327
302.659
302.001
302.649
303.173
301.817
301.715
302.699
300.495
302.817
301.6
301.617
302.616
302.291
302.089
302.481
303.24
301.361
303.176
332.671
332.846
332.258
333.132
332.998
332.716
333.083
332.541
333.079
333.129
333.511
332.902
332.187
333.641
332.408
330.901
331.873
331.182
332.071
332.769
329.75
328.466
328.229
328.356
327.858
328.929
327.452
328.902
328.365
329.268
329.31
329.443
329.096
328.542
328.971
327.957
328.438
327.043
328.438
328.33
323.309
324.038
324.541
324.582
323.357
324.04
323.88
323.522
324.288
325.818
325.228
324.919
325.088
325.432
325.018
324.032
323.141
324.597
324.76
323.669
319.54
321.405
319.089
320.334
318.614
319.246
319.518
320.073
320.778
319.321
320.551
319.921
320.855
319.95
320.225
319.991
320.409
319.205
318.909
319.273
315.821
314.461
316.498
314.959
314.897
314.956
315.375
314.685
315.483
315.075
315.532
316.131
316.662
316.132
317.447
313.901
316.341
313.791
315.454
315.446
310.793
310.624
311.408
309.741
311.026
310.263
310.955
312.382
311.282
311.758
311.711
311.625
312.075
311.705
311.985
311.26
312.402
309.682
310.61
310.796
306.756
307.161
306.751
307.264
306.212
306.899
307.837
306.936
306.698
306.331
307.053
305.794
307.277
306.28
305.583
306.824
306.662
307.357
307.026
306.877
301.834
302.279
302.39
302.655
302.224
302.176
301.46
301.959
302.763
302.864
302.721
301.128
302.875
302.28
301.483
302.986
303.298
302.547
301.364
302.493
334.584
333.311
333.517
334.408
333.443
332.262
333.122
332.327
333.215
333.237
333.414
332.674
334.246
333.557
333.912
333.739
333.184
331.538
331.602
332.794
329.176
328.369
328.992
328.887
329.501
329.497
328.49
328.603
329.973
329.721
329.459
328.716
329.909
328.378
327.785
328.125
327.76
329.164
329.81
328.865
325.099
324.655
324.146
324.385
323.374
326.155
325.52
324.756
324.817
324.333
324.577
324.97
325.561
325.775
324.949
324.255
325.438
321.588
324.612
325.232
320.834
320.233
320.748
321.001
319.919
319.489
320.387
320.249
321.661
319.353
321.459
320.42
320.859
320.995
320.055
319.696
319.692
319.307
319.555
321.108
316.094
315.159
315.719
316.528
315.204
316.654
314.667
314.947
316.013
317.487
315.413
315.971
316.149
315.591
315.204
314.192
315.277
314.636
314.154
316.513
311.858
311.59
311.369
311.765
310.547
312.216
311.194
312.79
312.433
312.234
311.046
311.332
310.454
312.608
311.475
312.218
310.801
310.617
311.112
310.132
305.842
306.865
306.89
306.785
307.523
306.077
309.443
309.045
306.979
307.028
306.904
307.535
307.025
307.347
306.287
306.765
307.301
306.745
306.599
307.223
302.344
301.447
301.476
302.089
302.27
301.555
302.902
301.894
303.019
301.222
302.603
302.108
302.267
302.764
300.887
302.754
302.19
302.566
302.436
301.155
334.928
334.6
333.828
333.153
333.964
334.233
334.344
333.183
334.405
333.573
334.036
333.774
334.772
334.022
333.149
333.767
333.037
332.846
332.354
333.537
329.277
330.222
329.043
330.782
328.996
330.938
330.619
330.538
328.63
330.725
330.962
328.282
331.002
328.838
330.481
330.123
330.349
328.837
329.461
329.685
325.389
326.173
324.561
323.02
324.288
325.422
324.728
325.533
325.606
326.454
325.127
324.23
325.479
324.574
325.271
326.075
324.739
325.447
324.936
324.425
321.387
320.631
320.836
320.726
320.421
320.497
320.199
321.178
321.447
321.548
321
321.088
320.592
320.697
321.487
319.573
319.996
320.856
318.749
320.775
316.458
316.389
316.833
316.058
315.901
315.541
315.66
316.201
317.03
316.05
315.5
316.011
315.571
316.47
316.227
315.932
316.079
315.079
316.238
318.459
311.531
311.25
312.513
311.208
311.247
311.003
311.841
311.819
312.145
312.265
311.834
310.158
311.585
311.366
312.105
311.873
311.835
312.453
311.403
312.037
308.254
306.85
305.959
306.334
306.899
308.18
306.668
307.111
306.603
307.291
306.689
305.892
307.367
306.652
306.701
307.537
308.066
305.772
306.523
306.208
301.686
302.575
301.655
301.919
302.754
302.862
303.083
301.408
302.964
302.658
302.455
302.758
303.542
301.572
301.957
302.475
302.407
301.722
302.756
301.392
334.555
335.861
333.978
333.297
335.339
333.778
333.921
334.453
334.093
333.172
334.802
334.029
333.608
333.704
333.425
334.176
332.799
333.493
333.994
334.784
330.007
330.21
330.338
330.057
329.781
328.52
330.27
330.84
329.572
329.761
330.288
330.598
329.071
330.023
330.213
330.211
328.764
329.55
330.132
330.142
325.462
325.752
325.309
324.342
325.382
324.4
325.51
325.387
324.16
325.433
325.209
325.279
325.976
326.094
324.019
324.225
324.596
324.68
324.953
324.802
320.221
321.324
321.32
320.725
321.234
320.698
320.808
320.573
320.555
321.002
320.874
320.298
321.072
320.899
319.925
320.069
320.412
321.347
320.087
321.155
316.921
316.038
315.458
314.958
316.307
316.806
316.914
316.942
316.097
316.497
316.432
316.217
316.562
316.521
316.589
316.083
316.421
317.377
315.824
316.764
312.11
311.2
311.365
311.299
311.102
312.004
311.521
312.497
310.719
312.98
312.223
310.721
309.969
312.338
311.154
313.004
311.989
312.211
310.982
311.682
306.337
306.235
307.856
305.511
307.212
307.728
307.279
306.425
307.122
306.597
306.691
305.928
307.487
306.608
307.789
306.869
305.925
306.218
305.465
307.569
302.862
302.984
302.199
302.261
302.472
301.93
302.433
302.341
300.798
303.663
302.735
303.378
302.506
302.251
302.209
302.664
302.36
302.517
301.998
302.387
)
;

boundaryField
{
    hotSide
    {
        type            fixedGradient;
        gradient        nonuniform List<scalar> 
400
(
321.511
322.87
325.591
329.677
335.133
341.965
350.181
359.788
370.794
383.208
397.037
412.289
428.971
447.088
466.647
487.651
510.105
534.011
559.372
586.191
323.738
325.08
327.767
331.802
337.194
343.949
352.078
361.591
372.498
384.81
398.537
413.687
430.268
448.289
467.755
488.672
511.043
534.872
560.161
586.913
326.149
327.47
330.116
334.091
339.406
346.071
354.099
363.503
374.296
386.491
400.101
415.136
431.606
449.52
468.885
489.706
511.988
535.735
560.948
587.63
328.704
330
332.597
336.503
341.73
348.292
356.205
365.485
376.15
388.215
401.695
416.604
432.954
450.753
470.009
490.73
512.919
536.579
561.714
588.325
331.33
332.599
335.142
338.97
344.099
350.546
358.332
367.477
378.003
389.928
403.271
418.047
434.27
451.949
471.095
491.712
513.807
537.382
562.439
588.978
333.918
335.158
337.643
341.389
346.414
352.74
360.392
369.397
379.779
391.562
404.765
419.407
435.503
453.065
472.101
492.618
514.622
538.114
563.096
589.569
336.321
337.531
339.959
343.622
348.544
354.751
362.274
371.142
381.385
393.031
406.101
420.618
436.595
454.047
472.983
493.409
515.33
538.747
563.663
590.076
338.36
339.543
341.92
345.509
350.339
356.44
363.847
372.595
382.718
394.244
407.2
421.608
437.485
454.844
473.695
494.045
515.897
539.253
564.114
590.478
339.852
341.015
343.352
346.885
351.645
357.665
364.985
373.643
383.675
395.113
407.984
422.312
438.116
455.407
474.197
494.491
516.294
539.606
564.428
590.758
340.643
341.795
344.11
347.613
352.334
358.311
365.584
374.193
384.176
395.567
408.393
422.679
438.443
455.699
474.456
494.722
516.498
539.788
564.589
590.901
340.643
341.795
344.11
347.613
352.334
358.311
365.584
374.193
384.176
395.567
408.393
422.679
438.443
455.699
474.456
494.722
516.498
539.788
564.589
590.901
339.852
341.015
343.352
346.885
351.645
357.665
364.985
373.643
383.675
395.113
407.984
422.312
438.116
455.407
474.197
494.491
516.294
539.606
564.428
590.758
338.36
339.543
341.92
345.509
350.339
356.44
363.847
372.595
382.718
394.244
407.2
421.608
437.485
454.844
473.695
494.045
515.897
539.253
564.114
590.478
336.321
337.531
339.959
343.622
348.544
354.751
362.274
371.142
381.385
393.031
406.101
420.618
436.595
454.047
472.983
493.409
515.33
538.747
563.663
590.076
333.918
335.158
337.643
341.389
346.414
352.74
360.392
369.397
379.779
391.562
404.765
419.407
435.503
453.065
472.101
492.618
514.622
538.114
563.096
589.569
331.33
332.599
335.142
338.97
344.099
350.546
358.332
367.477
378.003
389.928
403.271
418.047
434.27
451.949
471.095
491.712
513.807
537.382
562.439
588.978
328.704
330
332.597
336.503
341.73
348.292
356.205
365.485
376.15
388.215
401.695
416.604
432.954
450.753
470.009
490.73
512.919
536.579
561.714
588.325
326.149
327.47
330.116
334.091
339.406
346.071
354.099
363.503
374.296
386.491
400.101
415.136
431.606
449.52
468.885
489.706
511.988
535.735
560.948
587.63
323.738
325.08
327.767
331.802
337.194
343.949
352.078
361.591
372.498
384.81
398.537
413.687
430.268
448.289
467.755
488.672
511.043
534.872
560.161
586.913
321.511
322.87
325.591
329.677
335.133
341.965
350.181
359.788
370.794
383.208
397.037
412.289
428.971
447.088
466.647
487.651
510.105
534.011
559.372
586.191
)
;
    }
    coldSide
    {
        type            mixed;
        refValue        uniform 300;
        refGradient     uniform 0;
        valueFraction   uniform 0.991591;
        source          uniform 0;
        value           nonuniform List<scalar> 
400
(
300.019
300.013
300.004
300.007
300.01
300.015
300.018
300.012
300.015
300.021
300.019
300.017
300.021
300.016
300.019
300.03
300.015
300.02
300.014
300.024
300.015
300.007
300.018
300.012
300.025
300.014
300.018
300.012
300.011
300.013
300.027
300.014
300.023
300.01
300.014