/*--------------------------------*- C++ -*----------------------------------*\
| =========                 |                                                 |
| \\      /  F ield         | OpenFOAM: The Open Source CFD Toolbox           |
|  \\    /   O peration     | Version:  2212                                  |
|   \\  /    A nd           | Website:  www.openfoam.com                      |
|    \\/     M anipulation  |                                                 |
\*---------------------------------------------------------------------------*/
FoamFile
{
    version     2.0;
    format      ascii;
    arch        "LSB;label=32;scalar=64";
    class       volScalarField;
    location    "./ITHACAoutput/true/19.8";
    object      error;
}
// * * * * * * * * * * * * * * * * * * * * * * * * * * * * * * * * * * * * * //

dimensions      [0 0 0 1 0 0 0];

internalField   nonuniform List<scalar> 
3200
(
-2.77232
-2.49151
-1.71281
1.05139
0.456575
1.03654
1.81651
-0.570636
0.844249
0.335443
-0.00708121
2.25841
3.07839
0.951538
1.72212
1.59523
-0.596393
-0.649551
-0.16617
-2.91129
-2.55167
-2.50029
0.189424
-0.000881972
0.351943
0.304801
0.804463
1.2077
2.14728
-0.413732
-0.410195
1.0678
0.361813
1.47316
1.79052
1.79631
0.445164
1.38612
-0.875478
-2.28504
-1.62844
-1.8423
-1.32864
1.31116
-0.192207
1.08886
-0.0284712
0.173164
1.2839
0.316562
0.604701
0.461816
1.02275
0.869286
0.907055
1.34965
0.137704
-0.742352
1.2165
-0.984285
-0.181791
-1.69691
-1.79376
0.134423
0.579575
2.31782
2.39057
-0.890028
0.788685
0.01919
-0.746403
0.506411
0.783521
-0.106295
0.698173
1.91399
1.47371
0.12642
0.098433
-0.449603
-0.221083
0.366096
-0.454934
-0.722892
-0.114178
1.87276
-0.66744
-0.602563
2.09762
-0.332616
0.651741
0.0132164
0.179553
1.5073
1.34425
-0.437251
1.3423
1.11971
-1.33629
-0.681376
-0.660493
0.0686929
0.511134
-0.291248
0.655686
-0.297568
1.10973
0.353435
-0.00713577
0.186175
0.642518
0.613444
0.311877
-0.887569
-0.847442
2.2719
0.781602
2.59538
1.45021
-0.859599
-1.64906
0.175557
-1.15394
0.575225
0.938822
0.726676
1.89466
0.901546
0.560974
0.0900996
-0.957777
0.990834
0.344719
1.70697
-0.874143
-1.46185
-0.0377597
1.74927
0.632645
1.19598
-1.1204
2.16447
-0.333751
-0.348517
1.6303
1.88305
-0.803181
-1.11095
-0.7672
0.522923
0.684629
-0.13395
0.179216
-0.587508
-1.24519
0.921449
0.228411
-1.07974
-0.764749
-0.275333
-0.73775
-0.842744
-0.817917
-0.729493
-0.606466
-1.86314
1.86612
1.76502
0.238157
1.4987
1.06479
0.387466
3.98998
0.202425
1.69698
1.48063
0.19458
0.529831
-1.52242
-0.0990945
-0.760366
-0.165986
-0.484212
-0.141105
1.06962
-0.282547
0.560789
-0.0932075
2.17609
0.373113
0.214951
1.51198
-0.201682
0.242335
-0.35785
1.72364
0.0241738
-0.285111
-0.72792
-0.489157
-1.75893
-1.05331
0.490497
2.05409
-0.483863
1.04501
-0.150185
-0.0431137
-0.315995
1.12797
-0.168005
1.332
1.8511
1.10882
0.654765
0.839035
2.24195
0.236135
0.843425
-1.83954
-0.183607
-1.34864
-0.0791977
1.5835
0.412056
-1.76
0.502358
0.0185173
1.72795
0.598461
0.0365055
0.00379389
0.43004
-0.804777
0.112756
-0.544332
1.16911
-1.22695
-1.12896
-1.47704
-2.84303
-0.972753
-1.06954
0.362228
2.1304
0.180301
-1.31186
0.145161
1.19428
0.169079
0.350243
1.14205
2.44551
-0.876818
0.834139
0.215825
-0.962702
-0.257204
1.58366
0.0373299
0.374955
-0.957851
-0.749487
-1.20604
-1.82617
0.501045
1.74603
1.44909
0.174019
0.276834
-0.0412014
0.522419
0.453545
0.967227
-1.78149
1.89118
0.711117
-0.628493
-1.60178
0.00542594
0.159765
-0.212566
-1.78116
-1.4276
-0.566431
0.372536
0.780185
0.489025
0.585866
0.215766
1.11693
0.236563
1.49709
0.0156741
-0.371595
-0.221287
0.373037
0.183547
-0.388845
-0.532246
-0.188849
1.14364
-0.481008
-0.175827
0.901718
-1.33555
-1.65627
0.715437
0.275208
-0.728417
-1.33525
0.784281
-0.401192
2.03587
2.80535
-1.12021
-0.822507
0.563062
1.19238
-0.0538024
-3.21076
-1.01657
-0.73842
1.89573
1.11615
-0.222116
1.73896
-2.1656
0.921506
1.04267
0.581499
2.09459
1.07276
1.52113
0.613014
1.26281
0.817909
1.38629
-0.930636
-0.800349
-3.31505
-0.871024
-2.28053
-1.56311
2.23817
-0.498656
-0.500472
0.854712
-0.137096
1.00005
0.498387
0.21301
-1.21554
0.8015
1.18244
-0.739849
-0.540967
-0.16317
-0.737148
-1.61418
-1.31153
-2.64238
-1.67035
2.69575
1.88566
1.06457
1.98825
-0.820334
1.55176
0.712539
1.29615
-0.368122
0.701187
1.04569
1.24056
0.720807
-0.538491
-0.0245869
-1.5262
-2.94019
-0.48163
-1.57494
-0.293253
-0.896503
1.37055
-0.455446
1.30308
-0.0849537
1.23452
0.979422
0.287939
-0.123519
1.08148
-1.19933
0.151427
1.01611
0.543631
2.59895
-0.700749
-1.01764
-0.00499529
-0.321628
-0.978207
-1.77395
0.159774
1.45574
0.515032
-0.179246
0.89405
0.903705
0.699537
0.249888
0.99828
0.919079
-0.0736862
1.3777
0.455141
-0.405445
-0.181406
-0.161115
-2.01677
-0.131687
-0.908116
-1.08853
0.372482
-0.0208828
2.16205
0.471728
0.833939
0.4833
-0.626215
-0.750316
-0.0434134
1.80582
0.886659
0.6645
0.638835
-0.28771
0.268825
-1.22175
-0.535334
0.688124
-0.044249
-0.293446
-0.571641
-1.35015
0.341942
1.16269
0.342795
0.552823
1.06168
-1.21434
-0.142061
1.95132
0.345537
-0.859298
0.949697
-0.440535
-1.41961
1.39052
-0.629398
-0.899111
0.612111
-0.806285
-0.855988
1.2695
-1.0662
1.27397
-1.15488
0.84304
1.59184
0.368468
-1.46706
0.847889
-0.0839477
0.29447
-0.56953
1.26089
-0.896233
1.93803
-2.46628
-1.65369
-1.19153
0.847525
-0.13593
0.532948
1.58179
0.765073
0.659945
-1.3481
0.0053118
-0.247063
1.31645
2.91583
1.27994
1.3836
-0.0816916
0.196399
-1.57622
-1.37139
-0.49872
-0.275205
-0.33164
-0.231673
0.137241
0.0511181
0.380529
-0.0170129
0.0617295
0.18892
0.397965
-0.808144
0.119945
1.11416
0.0157864
1.12507
0.272673
0.744571
0.125549
-1.38523
-1.78196
-1.144
-0.752562
0.341196
-0.553054
1.18345
-0.407521
0.923679
0.917534
-0.100003
0.311417
-0.637517
-0.128494
0.148566
-0.246628
1.39691
2.15674
0.570065
-2.21439
-1.89756
0.038717
-0.0703182
-0.267236
1.34809
1.24486
-0.459995
0.166345
2.50991
-0.588705
-0.947192
0.918207
0.0834252
1.13523
0.846333
1.46316
0.4139
0.191609
-0.402826
-0.490136
-0.656118
0.0787229
-1.57667
-0.92576
0.268034
-0.176364
-0.453376
2.1798
0.218065
1.24429
-0.369163
0.380819
1.73989
-0.0656744
0.162772
1.35597
0.109584
-0.611383
0.43784
-0.752801
-0.0118802
-0.575762
0.184614
-0.329419
-1.05494
0.0968185
-0.148953
-0.344336
2.04294
0.846955
-0.250127
-0.67927
-0.398689
1.75023
0.491027
-0.0492016
-0.23496
0.640655
0.192419
0.342926
-0.169208
-1.03155
1.10584
-1.18933
-0.531727
1.28628
-0.0360511
-0.746263
-0.159285
0.542319
0.905603
-0.827477
-1.95011
1.54356
2.28821
0.528919
-0.267778
-0.0566191
1.33777
2.21555
-0.305574
-0.575583
1.72937
-0.308244
-0.598159
1.31044
1.99531
-0.99393
0.660255
1.34907
-0.968206
1.33883
0.365771
-0.102007
0.152394
1.03279
-0.0708574
-0.711293
-1.89755
-1.26046
1.70005
-3.49784
-1.89696
-1.60887
0.738563
-0.717665
2.05127
0.857018
-0.573418
-0.449035
0.113169
-0.605224
1.21045
-0.94818
0.542967
0.261629
0.0122623
-0.206891
0.372911
-1.41855
-0.875905
-2.73493
-1.32405
-0.590784
1.49151
-0.428131
1.62686
0.760232
0.580818
0.455427
-0.0265027
0.852485
0.650115
0.0249092
1.16999
0.320603
1.10598
0.686931
0.93479
0.243631
-0.703803
-1.93585
-3.14844
-1.62837
0.50884
1.59486
-0.0286853
0.7111
-0.448771
2.26386
-0.351001
-0.196275
0.923703
1.37494
-0.568191
1.11787
0.342151
-0.838764
-1.13459
-1.36418
-2.33407
-0.291752
-0.34775
0.728737
0.236538
-0.0153243
0.684782
1.51652
0.537502
1.21475
0.147473
-1.67778
1.83548
-0.366969
1.87123
1.32111
0.123398
-1.13708
-0.0909381
0.807614
-1.74839
-0.867625
-1.05367
0.929788
-0.160863
0.0960235
-1.06557
0.775817
-1.4969
0.548375
0.962915
-0.134484
-1.27739
0.144271
-2.21751
-0.402499
2.18794
0.52825
-1.42167
0.201797
0.510406
-1.51907
0.400791
0.15533
0.796621
-0.559373
1.44299
-0.345807
1.95756
1.07436
0.973174
0.802405
-0.332024
0.308304
-0.330194
-0.594583
-0.865106
0.144357
-0.581114
1.02675
-2.54193
-1.49792
-1.37828
-0.774558
-0.763474
-0.670711
-0.506311
-0.6767
1.10399
0.69562
0.121516
1.95236
-2.61339
0.494053
0.00408885
1.29391
0.869937
-0.404017
0.456192
0.0208021
0.202452
-0.632074
0.344707
0.0776155
1.71205
-0.100656
-0.825113
1.09945
1.02473
-0.568479
-0.822173
-0.620996
0.0815345
0.139629
0.439558
-0.198889
0.385993
-0.812433
-1.24229
-0.666008
0.834337
-2.72022
-1.2861
-0.481894
-1.01572
-0.539046
1.59501
-0.754215
0.192912
0.538249
0.305958
-0.319692
-0.881313
0.682985
-0.835827
-0.834363
2.42184
0.121923
0.24496
-0.331162
-2.49674
-3.60633
-0.166569
-0.81988
-0.144536
0.532334
-0.156205
-1.0664
0.122318
-0.701673
0.329198
-0.0777816
0.331677
-0.736221
1.02132
0.0281408
0.787027
-0.0894471
0.149276
0.187537
-2.56207
-1.91146
-0.180014
-0.933928
-1.51814
-0.840841
0.743791
1.10701
0.0728252
-1.74561
-0.721612
-0.723569
-1.81612
0.445652
1.70045
-2.14543
0.602383
-0.985579
-0.782852
-1.82725
-2.24411
-1.03432
1.01578
0.702094
0.47237
-0.178969
0.388298
0.408242
0.481786
-1.11981
-1.13795
-0.493125
-1.3544
2.08276
-0.109535
-0.165469
-0.0128994
0.991861
-0.494935
0.675898
-2.01004
-1.94675
-1.76387
0.18964
-0.787665
1.03427
1.05889
-0.163152
0.651509
0.23407
0.570381
-1.4589
-0.0151175
-0.241054
1.06014
0.0511373
0.28929
-0.287598
-0.334737
0.675167
-0.414031
-0.804749
-0.531639
0.299036
-1.13393
-1.51733
0.459243
0.899229
0.527343
-1.27531
0.811088
2.67207
0.0598323
-0.438263
1.42262
0.760205
1.99203
1.79055
-0.716735
1.77081
-0.0233579
1.41374
-0.733655
0.646678
-1.10973
0.42613
0.395973
0.777618
0.242371
-0.267642
-1.14908
-0.111874
1.31861
0.242383
-0.114537
0.853932
0.200381
1.27291
1.90498
-0.459429
-0.336438
-0.419692
0.824818
-2.46725
0.56273
0.700774
0.51831
-0.0249676
-0.915672
-0.529066
-0.992464
-0.3441
-0.321479
-0.89401
1.3581
0.000601744
-0.68368
0.548556
-1.04258
-0.196424
0.104904
-3.44898
-3.85998
-2.16005
0.897232
1.61768
-0.391659
0.402374
-0.348506
0.193892
-0.653598
0.484043
0.438108
-2.11472
0.114926
-0.179618
-1.49007
-1.23862
-0.0648919
-0.942753
-1.11516
-1.15559
-2.72556
-1.76942
0.0405077
0.80253
0.152108
0.225484
0.7298
-0.374964
0.943183
-0.829158
-1.84504
-0.46611
-0.621416
-1.56959
2.6631
-0.43513
0.322361
-0.353834
-2.01732
-0.644325
-0.461066
-2.63392
0.340297
0.00299922
-1.20043
-2.05102
-0.769014
-0.410082
0.318762
-1.22473
0.0703098
0.910915
0.70798
0.252912
0.594551
0.760587
0.586007
0.0178263
-2.76158
-0.53228
0.0355844
-0.0309664
-0.543319
1.906
0.711074
1.30294
0.477863
0.594588
0.895114
-1.79015
0.021792
-0.878505
0.324503
0.154389
-0.393555
1.10312
-1.97555
-1.20761
-1.13129
-1.31039
-1.60241
-0.135756
0.0225006
-0.357468
0.28425
-0.705511
0.339286
1.04597
-0.666515
0.381944
0.564071
-1.67344
0.215697
-0.429333
-0.499687
0.285716
0.28374
-1.45649
-0.313515
-0.245859
-0.176233
-0.163018
1.20908
0.920655
0.740978
-0.749149
0.289983
0.572797
1.72275
-0.588129
-0.948494
-0.448809
0.259334
-1.6931
-0.503094
0.0784856
0.583104
0.100685
-0.614345
-1.81338
-0.0271724
0.771064
-1.82129
-0.0766303
0.16076
1.08615
-0.267866
0.355885
1.41469
-0.114378
0.945413
1.82008
-0.115983
0.975775
0.459584
0.763573
-0.929034
1.7836
-1.62852
0.93794
-0.660376
1.97464
0.821453
-0.51131
-0.656783
0.512004
1.49483
0.595031
0.753305
-1.18568
-0.880622
-0.526967
0.315897
-0.963895
0.787462
-2.0019
0.846733
0.292227
1.26834
-2.89155
-3.51963
-0.684348
-2.34178
0.751036
-0.286519
-0.857943
1.40668
-1.92259
-4.13692
0.0983891
0.984573
0.326363
0.101191
-0.177315
0.799103
-0.558617
-1.90937
-1.87102
-3.2001
-0.594551
0.230318
-0.315572
-0.357809
-0.941562
0.695467
0.534299
-0.319561
-3.74421
-0.00416036
0.0230758
0.091394
0.1803
-0.231872
-0.493882
-0.746438
-0.125002
-2.62841
-0.653038
-2.68723
-2.68859
0.684893
-0.686555
-0.969566
0.952295
-1.25637
-0.244824
-0.220524
-1.34904
-1.01406
-0.245435
-1.37174
-1.65945
-1.30265
0.307202
1.40047
0.237973
-2.79509
-0.238492
-1.99816
-0.389783
-2.44051
-0.548851
-2.30908
-0.205134
-1.79373
1.66106
-1.58696
-0.257146
-0.120181
-1.19688
0.168415
-1.08704
-1.10491
-0.710098
-0.351786
0.884738
0.730542
-1.67503
-0.345723
-0.962821
-0.110075
-1.1388
-1.8908
1.0811
0.795354
0.654633
-0.382535
0.709354
-0.907688
-1.02062
-0.848646
-0.870717
-0.541827
-0.381926
-1.99813
0.709257
-0.692787
0.802724
-1.28703
-0.708917
2.01613
0.565531
0.60542
-1.62793
1.4601
0.879121
0.153633
0.667434
-1.40185
1.01027
-0.142717
-0.53404
0.418808
-1.11703
-0.548672
0.548524
0.467049
-0.348338
0.687202
1.01232
-0.371086
2.65368
0.25423
0.478514
-1.10598
0.363143
-0.463372
0.949626
1.35062
0.674371
0.670889
0.933189
0.820485
0.76351
0.964584
-0.886516
0.183886
-0.310757
0.423489
1.54192
-1.31081
0.104155
0.692666
1.02585
-0.15252
0.467254
-0.228458
-0.0348103
-0.46619
-0.325329
1.94566
0.223819
1.68579
1.10291
0.936179
-0.652011
0.123668
-0.265188
-0.836446
-3.52908
-3.00184
-0.672509
-2.13944
0.452348
-0.453971
-0.74152
-0.460874
0.923347
-0.979037
-1.31397
-1.7831
-0.568226
-1.26834
-1.0724
-1.13695
-0.868948
-0.938616
-3.78493
-2.09736
-3.40312
-1.99194
-0.614517
-1.87348
-1.25279
1.29275
-0.618631
-0.284711
-0.495475
-1.86957
0.943185
-1.21537
0.386158
-2.19007
-0.540772
1.604
-0.704771
-1.31162
-1.50427
-2.41159
-3.07477
-1.77817
-1.75576
0.367091
0.501844
-1.28121
-0.709964
-1.31176
0.0983556
0.141491
0.65441
0.0188303
0.979318
-0.385893
-1.52161
-1.76631
1.58511
-0.774037
-1.98413
-1.97749
-3.06271
-0.640861
-0.756664
-0.78774
-1.26581
-0.0699556
0.108957
-0.610323
-1.27992
0.267598
-2.11068
0.995226
0.108392
-0.669596
-0.12328
0.081802
-1.23616
-2.02219
-0.903924
0.121816
-1.15359
-0.0131029
-2.64065
-0.712682
-1.9106
1.02393
-0.306585
-0.598461
0.477658
0.691696
-0.376553
-0.517907
-0.902262
0.975124
0.926382
1.82841
1.33333
0.29458
-1.68145
-1.45829
-0.623498
-0.350592
-1.43674
0.0297296
0.331087
-0.984399
0.547286
0.290796
-0.88681
-1.02775
0.0596414
0.476708
-1.04641
0.326523
0.599426
-0.760792
1.17603
0.766849
-0.35707
-0.311353
-1.18402
0.669779
-1.30311
-0.0620264
-0.273871
1.52189
1.24814
0.601053
-0.752003
-0.970616
-1.50524
-0.591155
0.203049
-0.549102
0.809923
0.298765
-0.000688187
0.15288
-0.443664
-1.40825
-0.146766
0.0817447
-0.0532714
0.750751
-0.567335
-2.76488
-2.29886
0.864605
-0.439631
-1.18991
1.36886
0.247101
-0.636775
-0.99819
0.377714
0.128
1.83521
1.76253
1.20526
1.16508
-3.03146
-0.811815
-0.619823
-0.33925
-2.17591
-1.2689
-1.32878
-2.05178
-0.620278
-0.0674178
-1.28967
0.650673
-1.96243
-3.40423
-0.605729
0.420987
-0.866859
-2.26066
-2.4508
-4.41773
-3.69236
0.0540537
-2.03107
0.0530954
-1.6157
-0.112799
-0.64585
0.271532
-0.464236
-0.349266
0.0719219
0.390712
0.424764
-2.7258
0.373722
-0.308818
-0.237243
-1.58101
-0.178397
-3.36808
-2.40772
-0.662024
-0.975885
1.27544
-0.554994
1.27608
-0.244323
0.225371
0.716039
0.631892
-1.57101
0.117818
-0.737845
-1.19827
-1.27408
-0.592409
-2.19455
1.23051
-2.174
-2.76604
-2.22842
-0.281417
-1.33628
-0.285612
0.597786
0.649934
0.261864
-1.51622
1.09396
-0.384853
0.334063
0.756946
-1.42775
-0.439933
-0.500625
-0.217189
-0.565692
-1.19153
1.18838
-2.27297
-1.22842
-1.68264
-0.394321
0.375163
-1.42919
0.372713
0.144457
0.973069
-0.129477
-0.72621
0.0513981
-0.459666
-1.64364
-0.498905
-1.90524
-0.452303
1.68449
-0.0517446
0.564085
-0.700205
0.15477
0.0483683
-1.48073
-0.631308
0.91481
0.160462
0.878984
0.288353
1.38719
-0.158242
-1.25246
0.0728248
-0.0438053
1.3708
0.77613
-1.0817
1.37688
0.339767
-1.22334
-0.440375
-0.135875
-0.842266
0.0450615
-0.620543
-1.84071
0.609953
-0.594852
-0.912074
0.605296
-0.209226
0.237053
-0.195575
0.752249
-0.784422
0.120588
-0.994968
-0.817218
-1.86621
0.036496
-0.581085
0.337751
-0.171787
-0.256937
0.216442
-0.358065
0.20301
0.888046
-0.0767726
0.213254
-1.34555
0.67966
0.55917
1.30804
-0.878446
0.227489
0.0465007
0.562616
-0.0224499
1.34502
0.187266
-1.88023
-2.84396
-1.19402
-0.756123
-0.207196
-2.06989
-1.48221
-1.13598
0.567107
0.704685
-1.52103
-0.88172
-2.12439
-1.81143
-2.31804
-1.38017
-2.22824
-1.48523
-2.98465
-3.70745
-3.3497
-0.354607
-3.35262
0.0380926
-1.55261
-0.139603
0.454096
-0.38474
-2.378
0.58951
0.613976
-2.30789
-0.331178
-0.616743
-0.0993439
-1.41375
-0.0983184
0.22079
-0.503283
-2.27647
-3.7776
-0.883171
0.745065
-0.731567
1.16285
-1.58038
-1.06944
0.461244
-2.61291
-1.66421
-0.0729173
0.51274
-1.09263
-0.45678
-1.56708
-0.469739
-1.163
-2.01969
-0.972533
-2.27635
-2.52425
-1.1591
-1.70515
-0.914904
0.57018
0.0235133
-0.209693
-0.229333
-1.60743
0.370226
-0.929092
1.05185
1.72699
-0.48943
2.81093
-0.221525
-0.559245
0.268083
-0.607153
-1.12175
-0.803654
-1.10944
-1.22505
-0.470848
1.52467
-0.756377
0.354028
0.690316
-0.716884
0.793927
-1.38605
-0.701798
-1.86915
-0.983501
-2.36815
0.525367
-0.328944
-1.76697
-1.11996
-0.64656
-1.24111
-0.814963
-0.0110842
-0.536008
0.513347
0.229746
-1.3835
-2.00581
0.561817
0.566396
-0.0536269
-1.86263
0.436953
-1.22969
1.80194
-0.948144
-1.24515
-0.0746803
-0.884522
-0.94082
0.171031
-0.00152628
0.616612
0.154399
0.539347
0.217692
0.252527
-0.937753
1.74506
-1.02742
0.598847
0.442877
0.963882
-2.59686
-0.574166
-0.39601
1.28521
-0.338329
0.342263
-0.528943
1.18551
0.692402
-3.10849
-1.6873
-1.31749
-0.760091
-0.408315
-1.7855
-0.766555
0.280439
1.47197
0.2572
-0.496623
0.403719
-0.084844
-0.588617
-0.358257
-1.13392
-0.456964
0.926179
-2.0476
-1.93989
-1.28751
-1.63886
-2.04422
0.455058
0.0142956
-0.730488
-1.29559
-1.22342
-0.0150695
-1.22316
-2.48307
-1.68118
-0.0550178
-0.752455
-1.70261
-0.32079
-2.82584
-3.90158
-2.42905
-1.24554
-2.3796
-1.69776
-0.178146
0.588933
-0.287418
-1.58218
0.52259
-0.328225
-1.18573
0.372414
1.18434
0.0211336
-0.980352
-0.818313
0.0970334
-1.38551
-2.05034
-1.57675
-3.6602
-2.0267
-1.48894
-2.54702
0.714588
1.58517
0.39978
-1.40219
-0.610316
-1.03157
0.765457
0.628768
-0.630671
1.34859
-0.823558
0.25173
0.0338251
-0.170585
-2.0163
-1.65775
0.00383578
-1.05827
-0.656853
-1.18144
0.634255
-0.758158
-0.700919
-1.00261
-0.704189
-0.24445
-1.3641
-0.022397
0.925415
-1.05478
0.0907069
-0.610003
-0.518597
-0.158901
-3.5451
-2.02114
-1.25592
-2.37185
0.243288
-0.598276
-0.790575
1.26537
0.102964
0.258393
-0.0231991
-0.0645148
0.606929
-1.30312
-0.286025
-0.481849
0.0840217
0.123345
-0.411575
-1.75322
-0.48322
-0.858521
0.441303
-0.289913
-0.319526
-1.62942
0.270792
-0.648928
1.38103
0.367866
0.365727
-0.175303
-1.49863
-1.40536
-1.31419
0.39349
-0.000196979
-0.266735
-2.23787
0.0784208
-0.285917
0.0642924
-1.49768
-0.185754
0.341834
0.823833
0.608516
0.202866
-0.751177
0.851954
-0.309829
1.21647
-1.28619
-0.76878
-1.07539
-0.278318
0.859178
0.244035
-0.119972
-0.963093
-1.26856
-1.7176
-0.745146
-0.532303
-0.705686
-0.0815212
0.168182
-0.190456
-0.764848
-0.890013
-0.333338
0.677095
-0.182845
0.504559
2.57076
-0.220391
0.2504
-0.653644
0.0186889
-0.189345
-0.103511
0.707803
-2.83028
-3.15064
-2.55158
-1.41433
-0.335
-0.889156
0.188545
-1.17895
1.54146
-1.11685
-1.8912
-0.555385
0.536224
-1.9103
-0.67847
-0.965218
-1.87333
-3.47051
-2.85516
-3.0207
-1.66935
-0.0106086
-2.88869
-0.148475
0.978923
-0.112832
-0.645385
0.120028
0.410507
-0.621394
-0.128611
-0.92866
-0.39443
-0.167141
-0.441092
0.370034
0.52326
-0.565094
0.0541823
-0.635927
-3.50955
0.285523
-1.3665
-0.46399
0.835655
0.104689
-0.591206
0.795738
0.522893
-1.88602
-0.374396
-0.580594
0.963457
0.947837
0.409159
-0.401983
-1.31388
-2.15277
0.679345
-1.14827
-1.93391
-0.293307
-1.30319
0.935201
-0.523651
0.838978
0.127209
0.52635
-0.397954
-0.983666
0.674984
0.699031
-0.13871
-0.903693
-1.11431
1.03475
-0.877908
-0.211481
-1.52497
-0.0665112
-0.420539
1.38291
-0.988034
-0.47725
1.77506
0.148419
0.223103
0.137272
1.02203
-0.77929
-0.609756
-0.227576
-0.458377
-1.26684
1.46155
0.7211
-1.35774
-1.56633
-1.95122
-1.20028
-0.294304
-0.424988
-0.513932
1.06824
-0.39076
0.555969
0.451761
-0.286408
-1.0709
-1.67293
-0.0897948
-1.25267
0.603408
-0.340315
-0.772579
-0.136658
0.62667
0.239708
0.197127
-0.516429
-0.11496
0.474591
0.562835
-1.82183
-1.7176
0.925131
0.908413
0.220917
-0.283749
-1.27134
-0.155505
-0.786896
0.645432
-0.720673
-0.0132585
0.251299
-0.440693
0.423629
-1.24524
0.0380152
-0.745346
-0.362488
-0.842734
-0.252046
-0.0319203
0.386073
-0.586241
-0.191088
0.1468
0.899787
0.109738
0.729836
-0.120082
0.0150447
-0.619558
-1.62311
0.536555
-1.38756
0.448366
-1.76319
-3.95116
-2.2643
-0.188393
-0.867401
0.221161
2.6923
-0.791094
-0.668038
-0.757327
-0.227256
-1.06327
-0.526435
-0.705797
-0.282762
0.223416
-0.163096
-1.77629
-1.29251
-3.97434
-3.40315
-1.99539
-2.57876
-1.64353
-1.39362
0.742774
-0.200824
-0.801508
-0.210299
0.7525
-0.0736286
-0.751229
-0.105497
1.10678
1.74221
1.22877
-2.11874
0.584566
-1.65673
-0.0613692
-2.67834
-1.77812
-1.23879
-0.236299
0.744857
0.134375
1.28134
-0.736712
0.357402
1.58076
0.771844
-0.997751
-0.997569
0.181297
-1.07012
-0.409439
-0.633405
-0.212091
-0.436995
-1.71765
-1.55001
-0.272366
0.323294
-1.45322
-0.583322
1.03256
-2.12632
0.57744
1.26493
0.993253
0.992053
0.748717
3.14628
0.842066
-1.39779
-1.18312
0.322388
-1.58375
0.0638287
-1.14616
-1.25364
-1.92565
0.0624682
-0.0301584
0.00764127
-0.383525
-0.177756
0.863585
1.12057
-0.573209
-0.101885
-0.618668
-0.0334299
-0.253782
0.0242701
-0.11791
-0.966936
0.11614
-0.0747879
-1.52125
-0.333683
0.397759
-1.52868
-1.05634
2.87455
0.396902
1.46305
0.705011
-1.59791
0.552081
0.0770585
0.0600364
1.29647
0.279165
1.04952
0.492805
-1.28569
-1.19853
-2.32453
-1.39468
0.133954
-0.381011
0.0398746
0.754255
0.717778
-0.334015
0.597516
0.591109
1.83443
-0.0908517
-0.849577
-0.916776
1.59866
0.171305
-0.978949
-0.578984
0.352688
-0.775421
-0.127985
0.217318
-1.23938
0.487401
1.09805
-0.260341
0.100594
-0.518816
-1.87288
0.896916
0.24485
-0.542712
0.693357
0.969066
0.289666
-0.326603
-0.743262
0.489839
0.275165
0.610923
-0.739169
1.99744
0.881035
-2.6332
-2.34245
1.23764
0.684125
0.966435
0.316002
-0.282238
0.723045
1.78402
-0.184074
-0.106318
0.360415
0.202563
-0.0645548
1.10613
-0.0156113
1.46077
-1.8001
-1.94655
-1.86124
-1.3048
-0.262447
-2.26987
0.0730344
0.876834
-0.0743929
0.0180897
0.48276
0.536539
-0.141098
0.0694315
-0.0936725
-0.0791858
-1.18031
-0.383098
-0.765522
0.0425657
-1.96825
-0.449129
-1.49813
-2.11555
-0.569744
-0.0600122
-0.549893
1.2186
-0.64238
0.25522
-0.235655
0.85265
-1.54735
0.855369
-0.505159
-0.207437
0.0873727
1.24608
1.10773
-0.0595437
-2.85026
-1.28421
-0.653883
-1.21835
-1.437
-0.137181
0.764307
0.681532
1.94021
-0.0781821
0.458998
-0.616482
-0.674186
0.0613328
0.813664
0.78892
1.2108
2.37539
-0.812072
0.70574
0.848415
-0.70585
-1.87146
-0.808247
-1.20721
-0.677042
-0.513086
0.584503
2.46745
-1.72415
1.42664
0.263085
0.273053
0.403329
0.902494
1.87823
1.39264
2.35167
-0.345016
-1.66714
-2.15765
-0.973123
-0.91321
0.272668
-1.53234
-1.09528
-0.473687
2.31978
0.276736
-0.311346
0.959832
0.592712
1.24346
-1.19628
0.309019
-1.89833
0.115664
0.679417
-0.0414338
0.0837272
-0.408974
-0.596562
0.233587
0.00130987
-0.113169
-1.99876
-1.39834
-0.319241
-0.0192102
1.32442
0.043158
-0.516366
0.505962
0.0872824
1.00662
-0.241468
-0.344675
1.11224
-0.637132
-0.00274987
0.0946797
0.235315
-1.71877
0.253172
0.591441
1.04043
0.862257
-0.92422
0.313098
1.00929
0.338319
-0.25437
-0.847717
-0.490102
-1.20218
-0.120342
-0.297658
-0.467106
0.0565784
-0.0444877
-0.921759
0.562636
0.612977
-3.43431
-0.296399
-1.44445
0.958742
1.67485
1.04061
0.670498
-0.126228
0.418623
1.57826
0.125515
0.696509
0.910903
-0.786124
0.27868
0.405473
0.33714
-1.23826
-1.7194
-0.731634
-0.153896
-0.059721
0.614941
1.35114
2.18822
0.715929
-0.354966
-0.158909
0.0950204
0.691312
0.490713
0.730134
1.29552
2.61643
-0.184857
-0.227316
0.544212
-1.2663
-2.27484
-1.97667
-0.593086
-1.98757
0.0491115
-0.0208186
0.503472
2.57137
3.29106
0.475304
1.11895
1.82772
2.83152
-0.0777419
1.54958
2.99468
-1.08555
-1.45931
-0.788256
-0.27334
-0.350879
-0.860772
-0.160977
-0.456121
-0.130448
1.20452
0.657598
-0.658034
1.26527
0.336594
1.30595
1.03661
-0.530049
0.465576
1.29899
0.367814
0.696512
0.320175
0.0593646
-0.421767
-1.25706
-1.78003
-0.453957
0.367197
0.343489
-0.189297
0.945496
0.375334
2.37851
-1.17847
1.00126
1.73875
-1.5357
-0.0146031
1.36794
0.118109
0.290927
0.103005
-0.15538
-1.22354
-0.638176
0.890115
0.136649
0.557724
1.70233
0.454699
0.10559
0.775065
1.98433
-0.167796
0.0129524
1.1144
0.429641
0.384614
-1.78119
-1.09103
0.089652
-0.901149
-0.0947622
0.58731
0.0153701
2.60254
0.287251
-0.616731
0.93387
0.32819
0.154382
0.796791
-0.673376
0.585487
-0.118656
-0.116154
0.315917
0.56774
0.769765
0.743026
0.659692
0.41835
0.118857
1.12088
-0.133379
-0.490508
0.0307274
0.0129374
1.42854
-0.232945
2.25561
-0.199572
1.45375
1.06486
0.690425
-1.16362
-0.391107
0.35829
0.00914739
-0.0604658
-0.836544
0.928082
0.304517
-0.447804
-1.16907
-0.377021
-0.926516
-1.77663
-1.57136
1.72692
1.10038
1.35905
1.14932
2.47874
2.07298
1.73914
4.13769
1.49686
1.77803
0.573853
0.997133
-0.232533
-0.59181
-0.751793
-1.00576
-1.14004
-1.90474
-0.541159
0.489398
0.0560436
0.0580743
-0.0222649
1.57826
0.358743
2.18803
0.0620076
0.0848185
2.39037
-0.11656
1.77848
0.0708018
1.27639
0.414985
-0.118982
0.055381
-1.36798
0.511402
0.0332842
0.454398
0.81552
1.97591
0.330548
2.87753
1.13207
0.509068
1.91005
2.5191
1.28709
1.83098
-0.0782656
1.37205
0.627611
0.698643
0.557946
-0.660288
-1.28704
-0.238866
0.292159
0.956136
0.957329
1.92467
1.98478
1.39602
1.2538
-0.335253
2.4557
1.14279
1.11444
-0.270686
2.57811
2.45488
0.516879
-0.652994
-0.920236
-0.521932
-2.45221
0.342586
0.946864
0.0756936
0.458735
0.179515
1.32192
1.06587
1.41037
0.988653
-0.175203
2.27755
0.369839
0.337725
1.19252
0.349638
1.54556
0.372742
-0.999179
0.108746
0.404202
-1.72358
-0.846952
-0.920526
0.387946
2.15787
2.67003
0.0877087
-0.21276
1.16336
0.155839
1.33996
-0.612584
-0.0956292
0.285037
-0.294008
-0.394064
0.000455331
0.706777
-0.805125
0.516755
0.163142
-0.300584
0.190976
0.301425
-0.467229
-0.0250817
-0.0591014
0.905047
0.864746
-0.747651
1.7911
-0.0795586
2.62601
0.484015
-2.36192
-1.30713
0.599066
1.26857
-0.717499
-0.154993
-0.447271
0.404035
-0.353046
1.4534
-0.718755
1.09266
0.70931
1.44713
-0.763835
-1.11452
0.525601
1.335
0.138247
0.421077
1.73237
-0.960054
0.596939
1.13951
-0.81589
0.419434
-0.636544
-2.32666
-0.179321
1.25334
2.76982
1.55451
2.93113
4.36602
1.71551
2.3808
1.59711
2.28055
0.35657
0.389837
0.192914
1.1108
2.15829
0.801583
0.0196
-2.7373
-0.683054
-1.62132
1.90648
2.12032
2.34755
3.12375
2.29305
-0.120439
1.78002
1.73677
1.45711
1.00292
0.966693
1.42588
1.75278
1.74845
1.42512
0.0228279
1.93304
-0.384603
0.707677
0.0689226
1.37524
2.97589
0.895736
1.37331
2.08104
1.49636
1.5137
2.60069
3.39104
0.904359
1.98352
2.35918
1.76742
0.823301
-0.842538
-0.657268
-0.275187
-1.34967
1.51591
1.21573
1.3283
1.25132
3.45749
1.0912
2.1609
1.57481
0.593973
3.55352
0.44876
0.466242
2.2376
1.85358
0.709711
1.82998
2.48039
0.0320967
1.12706
0.804087
-1.05976
0.347742
1.96403
1.28043
0.804463
1.40832
1.25741
1.94983
-1.22375
1.64297
1.43568
0.696205
0.761655
0.505063
1.7045
1.20292
0.24823
1.47298
-0.200864
-0.285427
-1.77834
-0.857649
0.863088
0.293753
0.453999
-0.0282599
1.74136
1.02885
1.4942
0.809505
1.09758
2.07554
2.15259
2.17866
-0.355653
1.05022
0.77774
-0.145204
-0.504578
-1.03941
-1.03661
0.649579
-0.876943
0.848228
0.700118
-0.586191
0.36911
0.104049
-1.11007
-0.347744
-0.690332
-0.335492
1.10486
1.99679
0.96208
0.566396
0.878687
-0.123413
0.886413
0.437165
-0.715283
0.830745
-0.465255
0.661359
-0.751358
0.255178
-0.451062
-0.892747
0.0142024
-1.14103
1.38043
0.462195
1.86657
-0.875667
2.44208
-1.46012
-0.4936
-0.672741
-0.516322
-1.18993
-0.833359
-1.93284
1.47708
0.754896
2.00715
0.773473
1.8081
5.24022
3.39654
4.06477
1.59702
1.44638
1.57549
2.27913
1.91933
1.11081
2.04761
2.07012
0.453681
-0.229024
-0.951067
-0.146555
2.5676
0.415072
1.05697
0.370083
1.96679
0.0718849
2.47817
0.398258
0.0394915
3.99418
0.252808
2.94836
0.807806
1.58226
0.0524701
1.66286
0.13345
1.00949
-0.930215
0.133263
0.460286
2.12137
1.01166
3.09504
4.37579
1.56046
2.50377
3.87269
3.78514
3.39466
2.62965
2.43302
2.20585
0.119824
0.754372
1.31112
1.88937
1.43294
-1.09108
-0.137403
0.276034
1.64969
2.04661
1.72657
1.0893
0.646393
1.99983
2.02245
3.22694
2.7032
2.70201
0.24212
1.20424
1.82156
1.68213
1.36377
0.264613
0.751325
1.76246
1.23525
1.98268
1.00797
1.19044
1.22474
0.253039
1.27498
1.81646
1.341
0.776071
1.91513
0.476354
-0.0764132
0.647902
0.175229
0.37348
2.06967
1.56612
-0.944407
0.813705
-0.297611
2.06132
2.81205
0.0688045
1.00281
1.27311
0.102373
0.578983
1.3801
0.054943
2.93258
2.01041
1.91534
0.317481
-0.801689
0.521478
1.35331
-0.0487208
1.28063
-0.352554
0.288874
0.370283
2.44254
-0.957424
2.8984
-0.165501
0.286288
0.599321
0.696971
0.471277
1.99018
0.186994
0.563444
0.356226
2.3935
0.488051
-1.95044
-0.73556
-0.114392
0.917435
0.00185492
1.35987
1.44139
0.554735
1.48439
0.866775
-0.750938
-0.682574
-0.647217
0.966009
1.10684
0.156113
0.0501479
0.667838
0.370338
0.512923
1.24995
0.0760831
0.140789
0.0918098
0.0186405
1.48808
-0.673427
1.55052
3.07127
3.04367
3.07848
3.4313
2.77722
3.59724
2.57711
2.63548
2.64875
3.74321
2.47005
1.78988
3.62823
0.824484
0.285999
-0.675914
1.97142
1.29065
1.69061
2.076
2.31679
4.44245
4.66695
3.22493
3.25446
3.41398
1.0906
2.25272
1.98971
0.174789
1.69902
1.86962
0.417414
-0.168302
1.74616
0.733265
0.299852
2.58946
1.4852
2.62306
3.57172
2.68694
2.59202
2.20436
4.58247
3.32374
3.37907
2.71557
3.095
2.01145
1.34648
1.80244
0.60015
1.04211
0.372289
0.609619
0.964409
2.00803
1.21106
1.2702
0.312788
3.18948
3.04084
1.7755
1.8474
2.35736
2.66648
4.28402
2.98085
2.38311
1.50621
1.26681
0.99226
-0.77658
0.727608
-0.283535
1.6405
0.745556
3.17171
1.94382
1.49639
3.56325
-0.365964
3.97005
3.23053
1.14627
1.48723
3.02846
1.48401
1.55553
2.16229
-0.379632
1.44865
-0.0271341
0.33478
0.974173
1.65652
0.997407
2.261
0.0848342
0.824592
2.59796
2.93736
0.133561
2.11106
1.29907
2.87786
3.05021
1.05323
1.27022
1.10727
0.300613
2.31601
0.619464
1.28134
0.393213
1.01812
0.0588044
0.885798
0.943094
0.376638
1.3538
0.9208
2.04564
1.00282
1.24074
2.0397
0.645129
0.463001
0.963768
1.83619
1.69012
0.761477
-0.667299
0.536377
-0.64032
-0.459037
-0.555111
-0.763805
0.202511
-0.741326
-0.921795
1.95252
0.255256
1.51579
-0.566623
0.909325
1.06202
0.0506004
-0.11528
0.560615
0.80573
1.36423
1.73471
-0.623388
)
;

boundaryField
{
    hotSide
    {