/*--------------------------------*- C++ -*----------------------------------*\
| =========                 |                                                 |
| \\      /  F ield         | OpenFOAM: The Open Source CFD Toolbox           |
|  \\    /   O peration     | Version:  2212                                  |
|   \\  /    A nd           | Website:  www.openfoam.com                      |
|    \\/     M anipulation  |                                                 |
\*---------------------------------------------------------------------------*/
FoamFile
{
    version     2.0;
    format      ascii;
    arch        "LSB;label=32;scalar=64";
    class       volScalarField;
    location    "0";
    object      relativeErrorField;
}
// * * * * * * * * * * * * * * * * * * * * * * * * * * * * * * * * * * * * * //

dimensions      [0 0 0 1 0 0 0];

internalField   nonuniform List<scalar> 
3200
(
0.00852535
0.00765779
0.00526082
0.00322692
0.00140025
0.00317656
0.00556301
0.00174655
0.00258291
0.00102603
2.16595e-05
0.00690942
0.00942205
0.00291406
0.00527757
0.00489236
0.00183045
0.00199507
0.000510732
0.00895273
0.00793199
0.00776876
0.00058822
2.73703e-06
0.00109146
0.000944644
0.00249171
0.00373879
0.00664508
0.00128011
0.00126916
0.00330448
0.0011201
0.00456291
0.00554922
0.00557077
0.00138148
0.00430433
0.00272024
0.00710317
0.0051167
0.00578646
0.00417101
0.00411388
0.000602723
0.00341254
8.91844e-05
0.000542191
0.00401873
0.000990707
0.00189247
0.00144553
0.0032023
0.00272299
0.00284275
0.00423223
0.000432058
0.00233047
0.00382089
0.00309271
0.000577341
0.00538746
0.00569258
0.000426403
0.00183761
0.00734555
0.00757289
0.00281844
0.00249687
6.07444e-05
0.00236269
0.00160323
0.00248116
0.000336723
0.00221262
0.00606854
0.00467476
0.000401201
0.000312511
0.00142787
0.000709663
0.00117487
0.00145948
0.0023183
0.000366033
0.0060015
0.00213819
0.00192981
0.00671663
0.00106493
0.00208666
4.23193e-05
0.000575051
0.00482875
0.00430783
0.00140174
0.00430474
0.00359215
0.00428839
0.00218718
0.00214293
0.000222832
0.00165767
0.00094431
0.00212535
0.000964292
0.00359532
0.00114483
2.31104e-05
0.000602912
0.00208074
0.00198674
0.00101021
0.00287555
0.0027462
0.00736419
0.00253418
0.00841713
0.00470431
0.00278892
0.00540802
0.000575671
0.00378338
0.00188567
0.00307709
0.00238138
0.00620806
0.00295365
0.00183771
0.000295144
0.00313744
0.00324589
0.00112937
0.0055931
0.00286464
0.00479137
0.000123782
0.00573526
0.00207452
0.00392218
0.00371421
0.00717517
0.00110632
0.00115521
0.00540358
0.00624097
0.00266184
0.00368166
0.00254241
0.00173288
0.00226874
0.000443894
0.000593919
0.00194707
0.00412693
0.00305411
0.000757101
0.00357914
0.00253513
0.000912754
0.002268
0.00258941
0.00251144
0.00223829
0.00185941
0.00570814
0.0057134
0.00540076
0.00072843
0.00458294
0.00325606
0.00118511
0.0122089
0.000619753
0.00519909
0.00453959
0.000597028
0.00162686
0.00467777
0.000304637
0.00236299
0.000515604
0.00150323
0.00043778
0.00331632
0.000875462
0.00173655
0.000288485
0.00673271
0.00115417
0.000664921
0.00467799
0.000624222
0.000750421
0.00110879
0.0053441
7.49995e-05
0.000885123
0.00226114
0.00152016
0.00552543
0.00330758
0.00153948
0.00644347
0.00151697
0.00327442
0.00047035
0.000134967
0.000988909
0.00352941
0.000525686
0.00416849
0.00579483
0.0034726
0.00205164
0.00263049
0.00703275
0.000741135
0.0026485
0.00577865
0.000582996
0.00428094
0.000251291
0.00502212
0.00130624
0.00557677
0.00159111
5.86293e-05
0.00546961
0.00189409
0.000115538
1.20091e-05
0.00136158
0.00254896
0.00035728
0.00172557
0.00370787
0.00389305
0.00358362
0.00468997
0.00912458
0.00312127
0.00343072
0.00116149
0.00682869
0.000577722
0.00420211
0.000464845
0.00382364
0.000541269
0.00112123
0.00365642
0.00783116
0.00280858
0.00267275
0.000691797
0.00308693
0.000825023
0.00508149
0.000119809
0.00121639
0.00310683
0.00243042
0.00390993
0.00591879
0.00162352
0.00565626
0.00469337
0.000563542
0.000896426
0.000133415
0.00169179
0.00146896
0.00313333
0.0057725
0.0061295
0.00230541
0.00203807
0.00519543
1.76023e-05
0.000523909
0.000696983
0.00583944
0.00467959
0.00185643
0.00122076
0.00255621
0.00160206
0.00191914
0.000706759
0.0036586
0.000774919
0.0049045
5.13548e-05
0.00121768
0.000725248
0.00122279
0.000601749
0.00127498
0.00174537
0.000626039
0.00379106
0.00159442
0.000582791
0.00298865
0.0044263
0.00548899
0.0023709
0.000911988
0.00241381
0.00442471
0.00259896
0.00132952
0.006747
0.00929754
0.00371283
0.00272626
0.00186641
0.00395264
0.000178356
0.00986437
0.00312156
0.00226596
0.00581319
0.00342011
0.00068012
0.00532118
0.006623
0.00281707
0.00318678
0.00177728
0.00640323
0.0032808
0.00465463
0.00187705
0.00386953
0.00250809
0.00425406
0.00285769
0.0024589
0.0102966
0.00270421
0.00707614
0.00484705
0.00693588
0.00154431
0.00154904
0.00264418
0.000423977
0.00309212
0.001541
0.000658746
0.00376046
0.00248077
0.00366195
0.00229272
0.00167748
0.000506292
0.00228857
0.00501368
0.00411809
0.00829373
0.0052402
0.00845255
0.00590927
0.00333433
0.00622433
0.00256703
0.00485439
0.00222868
0.00405411
0.0011516
0.00219419
0.0032736
0.00388555
0.00225886
0.00168845
7.71338e-05
0.00479034
0.00923191
0.00152871
0.00499743
0.00093014
0.00284227
0.00434321
0.00144264
0.00412587
0.000268892
0.00390649
0.00309884
0.000911024
0.00039086
0.00342305
0.00379738
0.000479652
0.00322
0.00172353
0.00824334
0.00222353
0.00323001
1.60274e-05
0.0010317
0.00313685
0.00568661
0.00051199
0.00466324
0.0016493
0.000573849
0.0028617
0.00289231
0.00223887
0.000799848
0.00319595
0.00294319
0.000236043
0.0044148
0.00145901
0.00130015
0.000581904
0.000516936
0.00654119
0.000427041
0.00294421
0.00352826
0.00120701
6.76529e-05
0.00700265
0.00152758
0.00270012
0.00156471
0.00202741
0.00242937
0.000140584
0.00584885
0.00287246
0.00215329
0.00207066
0.000932789
0.00087176
0.00396262
0.00175526
0.002256
0.00014505
0.000961779
0.00187328
0.0044238
0.00112022
0.00380857
0.00112278
0.00181063
0.00347725
0.00397742
0.000465345
0.00639264
0.00113216
0.00281594
0.00311266
0.00144409
0.00465417
0.00455927
0.00208638
0.00298034
0.00202891
0.00267238
0.00283696
0.00420725
0.0035333
0.00422167
0.00382692
0.00279354
0.00527482
0.00122099
0.00486153
0.00280984
0.00027821
0.000975947
0.00188767
0.00417935
0.0029708
0.00642433
0.00756997
0.00507325
0.00365307
0.00259659
0.000416156
0.00163051
0.00483627
0.00233792
0.00201588
0.00411708
1.62222e-05
0.000754683
0.00402283
0.00891504
0.00391585
0.00423594
0.000250281
0.000602133
0.00483557
0.00420933
0.00154776
0.000853719
0.00102821
0.000717838
0.000424976
0.000158194
0.00117696
5.25953e-05
0.000190771
0.000583739
0.00122967
0.00249752
0.000370811
0.00344604
4.88538e-05
0.00348384
0.000844875
0.00230846
0.000389468
0.00429902
0.00559129
0.00358827
0.00235934
0.00106912
0.00173205
0.00370437
0.00127499
0.00288871
0.00286866
0.00031261
0.000973492
0.00199319
0.000401853
0.000464809
0.000771982
0.00437483
0.00675804
0.0017872
0.00694561
0.005954
0.000122819
0.000223
0.000847147
0.00427167
0.00394282
0.0014563
0.000526424
0.00794039
0.00186199
0.00299545
0.00290379
0.000263862
0.00359142
0.00267835
0.00463223
0.00131093
0.000607146
0.00127697
0.00155436
0.00208136
0.00025247
0.00505531
0.00296738
0.000858848
0.00056492
0.00145174
0.00697767
0.000697859
0.00398127
0.00118107
0.00121836
0.00556702
0.000210174
0.000521044
0.00434191
0.000351014
0.00195903
0.00140343
0.00241373
3.81007e-05
0.00186682
0.000598486
0.00106768
0.00341832
0.000313643
0.000482414
0.00111495
0.00661375
0.00274153
0.000809585
0.00219859
0.00129053
0.00566615
0.00158993
0.00015935
0.000761152
0.00207592
0.000623651
0.0011117
0.000548632
0.0033816
0.00362478
0.00389793
0.00174243
0.00421443
0.000118101
0.00244438
0.000521677
0.00177602
0.00296558
0.00270974
0.00638633
0.00505536
0.00749503
0.00173271
0.000877356
0.000185537
0.00438443
0.00726226
0.00100173
0.00190786
0.00573205
0.00102164
0.00198244
0.00434287
0.00661223
0.00329362
0.00218782
0.00447017
0.00320811
0.00443617
0.00121199
0.000338012
0.000504995
0.00342254
0.000234825
0.00235739
0.00628924
0.00417785
0.00563508
0.0107227
0.00581234
0.00492656
0.00226005
0.0021946
0.00626855
0.00261739
0.00175036
0.00137018
0.000345255
0.00184641
0.00369354
0.00289433
0.00165826
0.00079952
3.74978e-05
0.000633102
0.0011419
0.00434648
0.00268511
0.00847848
0.00410294
0.00182972
0.00461666
0.00132439
0.00502965
0.00234909
0.0017939
0.00140617
8.18153e-05
0.00263167
0.00200728
7.6934e-05
0.00361522
0.000991183
0.00342126
0.00212625
0.00289514
0.000754957
0.00218184
0.00606853
0.00986627
0.00510049
0.00159302
0.00499044
8.97139e-05
0.00222296
0.00140237
0.00707237
0.00109638
0.00061308
0.00288568
0.00429656
0.00177622
0.00349617
0.00107062
0.00262591
0.00355383
0.00427494
0.00731687
0.000924798
0.00110198
0.00230842
0.00074897
4.85019e-05
0.00216646
0.00479605
0.00169933
0.00383958
0.000466077
0.0053025
0.0058016
0.00116018
0.00591782
0.00417963
0.00039056
0.00360044
0.000288064
0.00255925
0.00554204
0.00278087
0.00337641
0.00297856
0.000515155
0.000307407
0.00341017
0.00248214
0.00478797
0.00175371
0.00307912
0.000430039
0.0040851
0.000461464
0.00709468
0.00128813
0.0070044
0.00169169
0.00455431
0.000646648
0.00163593
0.00492324
0.00129874
0.00050323
0.00258024
0.00181137
0.00467158
0.00111929
0.00633499
0.00347637
0.00314874
0.00259621
0.00107435
0.000997726
0.00106876
0.00192493
0.00280139
0.00046757
0.00188266
0.00332713
0.00823828
0.00490917
0.00451666
0.0025379
0.00250122
0.00219701
0.00165825
0.00221602
0.0036149
0.00227755
0.000397843
0.00639201
0.00855656
0.00161772
1.33899e-05
0.00423777
0.0028496
0.0013236
0.00149475
6.81687e-05
0.0006635
0.00209492
0.00114245
0.000257226
0.00567365
0.000333552
0.00273412
0.00364299
0.0033953
0.00188352
0.00272404
0.0020575
0.000270145
0.00046264
0.00145646
0.000659046
0.0012791
0.00269236
0.0041171
0.00220732
0.0027653
0.00832579
0.00393453
0.00147337
0.00310351
0.00164598
0.00486728
0.00230022
0.000588061
0.00164019
0.000932166
0.000974011
0.0026856
0.00208197
0.00254912
0.00254612
0.00739508
0.000372535
0.000748954
0.00101311
0.0076418
0.0111646
0.000515464
0.00253588
0.000446798
0.00164464
0.000482328
0.00329113
0.000377339
0.00216394
0.00101507
0.000239838
0.00102288
0.00227118
0.00315202
8.68926e-05
0.00243151
0.000276504
0.000461709
0.000580351
0.00793175
0.00598509
0.000563463
0.002922
0.00474758
0.00262821
0.00232377
0.00345706
0.000227341
0.00544793
0.00225179
0.0022579
0.005668
0.00139121
0.00531028
0.00670281
0.00188286
0.00308213
0.00244933
0.0057195
0.00702668
0.00327545
0.00321586
0.00222195
0.00149434
0.000565937
0.0012274
0.00128998
0.00152192
0.00353662
0.00359349
0.00155722
0.0042775
0.00657925
0.000346113
0.000523045
4.07908e-05
0.00313775
0.00156634
0.00213982
0.00636535
0.00623496
0.00564803
0.000607068
0.00252065
0.00330877
0.00338649
0.00052164
0.00208256
0.00074808
0.00182276
0.0046622
4.83151e-05
0.000770532
0.00338953
0.000163545
0.000925478
0.000920356
0.00107154
0.00216193
0.00132604
0.00260675
0.00172183
0.000968293
0.00367091
0.00491096
0.00148605
0.00290919
0.00170577
0.00412469
0.0026231
0.00864159
0.000193513
0.00141763
0.00460247
0.00245992
0.00644738
0.00579658
0.00232082
0.00573516
7.56613e-05
0.00463176
0.00240342
0.00211822
0.00363447
0.00139542
0.00129649
0.00254576
0.00079339
0.00087605
0.00376103
0.000366174
0.0043161
0.000793429
0.000374971
0.00279593
0.000656176
0.00416891
0.00623985
0.00150507
0.00110225
0.00139086
0.00273336
0.00817583
0.00186466
0.00232197
0.00171731
8.27215e-05
0.00303366
0.00175277
0.00328795
0.00113998
0.00106505
0.00296189
0.0044996
1.99375e-06
0.00226533
0.00181769
0.00345485
0.000650929
0.000347652
0.0105364
0.0117867
0.00659209
0.00273653
0.00493087
0.00119311
0.00122508
0.0010606
0.000589874
0.00198809
0.00147235
0.00133285
0.00643569
0.000349909
0.000547168
0.00454189
0.00377776
0.000198039
0.00287875
0.00340672
0.00357165
0.00842081
0.00546403
0.000125023
0.00247559
0.00046897
0.000694869
0.00224812
0.00115473
0.00290418
0.00255309
0.00568196
0.00143583
0.001915
0.00483925
0.00821496
0.00134299
0.000995464
0.00109319
0.00623504
0.00201467
0.00144119
0.00822962
0.00106276
9.36242e-06
0.0037456
0.00639705
0.00239771
0.00127829
0.000993504
0.00381718
0.000219166
0.00284015
0.00220816
0.000789142
0.00185596
0.00237535
0.00183096
5.57211e-05
0.00863491
0.00168367
0.000112529
9.78911e-05
0.0017169
0.00602068
0.00224533
0.00411287
0.001508
0.00187597
0.00282386
0.00564747
6.87555e-05
0.00277231
0.00102433
0.000487507
0.00124317
0.00348589
0.00624513
0.00381883
0.00357841
0.0041931
0.00512646
0.000434195
7.19435e-05
0.00114263
0.000908326
0.00225388
0.00108367
0.00334026
0.00212832
0.00121962
0.00180134
0.00534494
0.00068908
0.00137194
0.00159722
0.000913548
0.0009075
0.00465963
0.00100321
0.000795872
0.000570402
0.000527526
0.00391175
0.00297796
0.00239627
0.00242223
0.000937459
0.00185153
0.00556833
0.00190097
0.00306595
0.00145091
0.000838509
0.00547539
0.00162731
0.000253926
0.00188693
0.000325881
0.00198871
0.00593876
8.8981e-05
0.00252468
0.00596263
0.000250844
0.000526171
0.00355456
0.000876545
0.00116449
0.00462883
0.000374241
0.00309348
0.00595591
0.000379569
0.00319372
0.00150442
0.00249983
0.00304192
0.00584073
0.00533336
0.00310791
0.00218813
0.00654263
0.00272162
0.00169398
0.00217584
0.00169615
0.00495186
0.00197108
0.00249535
0.00392759
0.00291713
0.00174566
0.00104649
0.00319327
0.00260888
0.00663264
0.0028055
0.000968281
0.00420271
0.00881399
0.0107239
0.00208402
0.00712725
0.00228448
0.000871043
0.00260691
0.0042725
0.00583775
0.0125593
0.000298701
0.00298955
0.000991262
0.000307477
0.000539052
0.00243069
0.00170016
0.00581452
0.00570078
0.00975451
0.00183408
0.00071023
0.000972676
0.00110231
0.00289923
0.00214042
0.00164367
0.000982714
0.0115112
1.27888e-05
7.09345e-05
0.000280982
0.000554458
0.000713312
0.00152001
0.00229841
0.000385097
0.00810144
0.00201377
0.00828963
0.00839295
0.00213737
0.00214171
0.00302326
0.00296813
0.00391424
0.000762469
0.000686576
0.00419915
0.00315609
0.00076387
0.00426978
0.0051665
0.0040569
0.000957096
0.00436502
0.000742038
0.0087193
0.000744273
0.00623764
0.00123128
0.00770737
0.00173276
0.00728734
0.000647161
0.00565695
0.0052369
0.00500201
0.000810358
0.000378697
0.00377145
0.000530734
0.00342627
0.00348352
0.00223946
0.00110982
0.00279219
0.00230637
0.0052899
0.0010921
0.00307767
0.000351789
0.00363852
0.00603955
0.00345225
0.0025391
0.00208935
0.00122066
0.0022632
0.00289577
0.00325605
0.00270762
0.00277844
0.00172931
0.00121926
0.00638059
0.00226549
0.0022135
0.00256542
0.004114
0.00229311
0.0065206
0.00182871
0.0019573
0.00526196
0.00471855
0.00284053
0.000496331
0.002156
0.00452812
0.00326329
0.000461016
0.00172528
0.00135321
0.00360987
0.00177347
0.00177336
0.00151025
0.0011266
0.00222287
0.00331379
0.00121463
0.008685
0.000831948
0.00156571
0.00361833
0.00118794
0.00151568
0.00310601
0.00441741
0.00220564
0.00219433
0.00305244
0.00268403
0.00249791
0.00315614
0.00290106
0.000601825
0.00101716
0.00138628
0.00510843
0.00434264
0.000345046
0.00229458
0.00339818
0.00050521
0.00154768
0.000756696
0.000115296
0.00154406
0.00107752
0.00644425
0.00074133
0.00558381
0.00365328
0.00310113
0.00215991
0.000409688
0.000878554
0.00277117
0.0107302
0.00912342
0.00204291
0.00649562
0.00137265
0.00137688
0.00224796
0.00139663
0.00279734
0.00296564
0.00398018
0.00540202
0.00172196
0.00384504
0.00325256
0.00345007
0.00263824
0.00285128
0.0115034
0.006377
0.010475
0.00612919
0.00189004
0.00575946
0.00384955
0.00397054
0.00189929
0.000873814
0.00152031
0.00573584
0.00289369
0.00372924
0.00118517
0.00672385
0.00166092
0.00492874
0.00216661
0.00403409
0.00462863
0.00742301
0.00958058
0.00553892
0.00546709
0.00114259
0.00156139
0.00398471
0.0022073
0.00407713
0.000305641
0.000439636
0.00203336
5.85153e-05
0.00304386
0.00119976
0.00473238
0.00549554
0.00493374
0.0024102
0.00618049
0.00616159
0.0096599
0.00202082
0.00238525
0.00248239
0.00398759
0.000220306
0.000343031
0.00192104
0.00402797
0.000842068
0.00664182
0.00313201
0.000341172
0.0021081
0.000388237
0.000257695
0.00389549
0.0063746
0.00285033
0.000384213
0.00368301
4.18256e-05
0.00842711
0.00227379
0.00609411
0.00326514
0.000977428
0.0019076
0.00152234
0.00220435
0.00120003
0.00165062
0.00287597
0.00310881
0.00295408
0.00583194
0.00425394
0.000940093
0.0053673
0.00465581
0.00201505
0.00113291
0.0046419
9.60342e-05
0.00106929
0.00317868
0.00176693
0.000938718
0.00286243
0.00331718
0.0001925
0.00153871
0.00337793
0.00105419
0.00193558
0.00245708
0.00379886
0.00247758
0.00115385
0.00100625
0.0038738
0.00219117
0.00426265
0.000202873
0.000895663
0.00497661
0.00408103
0.0019651
0.00245848
0.00317308
0.00492084
0.00193262
0.000663853
0.00179539
0.00264846
0.000977075
2.25089e-06
0.00050009
0.00145144
0.00460743
0.000486155
0.000270768
0.000176448
0.00248657
0.001879
0.0091569
0.00761326
0.00286327
0.00145588
0.00394045
0.00453307
0.000818296
0.00210878
0.00330576
0.00125094
0.000423933
0.00607844
0.00583793
0.00399224
0.00385928
0.00919098
0.00246039
0.00187763
0.00102718
0.00658497
0.00383827
0.00401771
0.00620165
0.00187436
0.000203698
0.00389663
0.00196621
0.00593158
0.0102931
0.00183226
0.00127404
0.00262468
0.00684824
0.00742771
0.013394
0.0113372
0.000165915
0.00623174
0.000162837
0.004953
0.000345648
0.00197833
0.000831488
0.00142128
0.00106917
0.000220167
0.00119618
0.00130071
0.00834953
0.00114518
0.000946695
0.000727594
0.00485084
0.000547581
0.0103415
0.00748637
0.00205789
0.00303245
0.00396183
0.0017233
0.00396091
0.000758134
0.000699144
0.00222087
0.00195969
0.00487218
0.000365426
0.00228893
0.00371824
0.00395473
0.00183948
0.00681679
0.00382368
0.00675782
0.0086005
0.00701632
0.000885863
0.00420523
0.000898535
0.00188006
0.00204346
0.000823111
0.00476486
0.00343733
0.00120916
0.00104958
0.00237841
0.00448684
0.00138283
0.00157402
0.000683067
0.00177967
0.00374972
0.00374085
0.0071566
0.00391659
0.00536388
0.00125672
0.00119537
0.00455269
0.00118701
0.000459968
0.00309783
0.000412148
0.00231151
0.000163599
0.0014632
0.00523265
0.00158857
0.00606775
0.00144081
0.00536726
0.000164913
0.00179817
0.00223248
0.000499702
0.000156147
0.00477943
0.00203735
0.00295175
0.000517664
0.00283526
0.00093
0.00447359
0.000510294
0.00403889
0.000234854
0.000141282
0.00442167
0.00250386
0.00349024
0.00444345
0.00109669
0.00394929
0.00142183
0.000444282
0.00275383
0.000147316
0.00202848
0.00601642
0.00199345
0.00194392
0.00298034
0.0019778
0.000683623
0.000774544
0.000639037
0.00245809
0.00256341
0.000394106
0.00325208
0.00267139
0.00610106
0.000119326
0.00190003
0.00111856
0.000568907
0.000850869
0.000716742
0.00118568
0.000672214
0.00294043
0.000254198
0.00070608
0.00445504
0.00225032
0.0018514
0.00433097
0.00290865
0.000753268
0.00015398
0.00186308
7.43448e-05
0.00445431
0.000620184
0.0056826
0.00859227
0.00360586
0.00228239
0.000625147
0.00624253
0.00446845
0.0034236
0.00170875
0.00212304
0.00458249
0.0026567
0.00640243
0.00546095
0.00699091
0.00416423
0.00672603
0.00448529
0.00901732
0.011205
0.0102568
0.00108549
0.0102588
0.000116513
0.00474706
0.000426672
0.0013874
0.00117517
0.00726206
0.00180009
0.0018748
0.00704796
0.00101157
0.00188433
0.000303627
0.0043225
0.000300726
0.000675602
0.00154059
0.00697057
0.0117182
0.00273894
0.00230989
0.00226726
0.00360265
0.00489465
0.00331122
0.00142778
0.00808689
0.00515023
0.000225657
0.00158692
0.00338223
0.0014143
0.00485345
0.00145531
0.00360435
0.00626155
0.00301608
0.00706133
0.00793247
0.00364171
0.0053559
0.00287291
0.00178992
7.3794e-05
0.00065794
0.000719421
0.00504183
0.00116116
0.00291396
0.0032992
0.00541761
0.00153566
0.00882179
0.000695416
0.0017561
0.000842051
0.00190758
0.0035251
0.00255843
0.00353134
0.00389849
0.00149805
0.00484983
0.00240545
0.00112568
0.00219461
0.00227882
0.00252358
0.0044057
0.00223086
0.00594229
0.00312716
0.00753125
0.00167114
0.00104657
0.00562308
0.00356481
0.00205832
0.00400279
0.00262809
3.5739e-05
0.00172797
0.00165465
0.00074042
0.00445809
0.00646265
0.00181001
0.00182469
0.000172763
0.00600087
0.00140784
0.00396247
0.00580725
0.00305611
0.00401408
0.000240792
0.0028524
0.0030343
0.000558868
4.98697e-06
0.00201453
0.000504386
0.00176176
0.000711015
0.000824722
0.00306238
0.0056985
0.00335495
0.00195548
0.00144621
0.00314771
0.00848104
0.00187531
0.00129355
0.0041985
0.00110535
0.00111831
0.00172839
0.00392528
0.00229252
0.0102918
0.00558623
0.00436172
0.0025163
0.0013517
0.00591064
0.00253753
0.000928331
0.00487263
0.000851411
0.001644
0.00133648
0.000280878
0.00194869
0.0011861
0.00375424
0.00151299
0.00306662
0.00616698
0.00584068
0.00387492
0.00493027
0.00614718
0.00136787
4.29566e-05
0.00219441
0.00389121
0.00367406
4.52554e-05
0.00367369
0.00745923
0.00505177
0.00016538
0.00226271
0.00512204
0.000965456
0.00850812
0.0117508
0.00741527
0.00380125
0.00725975
0.00517765
0.000543094
0.0017948
0.000875649
0.00481908
0.00159145
0.000999458
0.0036106
0.00113412
0.00360733
6.43857e-05
0.00298767
0.0024947
0.000295923
0.00422695
0.00625742
0.00481342
0.0113248
0.00626925
0.0046044
0.00787391
0.0022084
0.00489746
0.00123482
0.00433007
0.00188442
0.00318483
0.00236324
0.00194139
0.00194756
0.00416544
0.00254442
0.000777959
0.000104567
0.000527518
0.00623705
0.00512917
1.20283e-05
0.00331792
0.00205887
0.0037022
0.001987
0.00237459
0.00219484
0.003139
0.00220441
0.000765184
0.00426994
7.0112e-05
0.00289731
0.00330291
0.000284098
0.00191102
0.00162509
0.000498067
0.0111147
0.00633795
0.00399155
0.00753706
0.000772951
0.00190039
0.0025107
0.00401778
0.000326873
0.000820191
7.36312e-05
0.000204752
0.00192622
0.00413596
0.000907899
0.0015297
0.000266785
0.000391717
0.00130735
0.00557018
0.00153554
0.00272855
0.00142156
0.000933793
0.00102903
0.00524676
0.000871825
0.00208895
0.00444511
0.00118392
0.00117695
0.000564125
0.00482258
0.00452262
0.00422952
0.00126652
6.3409e-07
0.000858762
0.00720598
0.000252553
0.000920923
0.000207104
0.0048903
0.000606492
0.001116
0.00268936
0.00198629
0.000662131
0.00245157
0.00278029
0.00101106
0.00396961
0.00419711
0.00250875
0.00350946
0.000908327
0.00280425
0.000796567
0.000391642
0.00314426
0.00414189
0.00560839
0.00246659
0.001762
0.00233586
0.000269831
0.000556658
0.00063036
0.00253139
0.00294558
0.0011032
0.00224086
0.000605129
0.00166986
0.00850816
0.000729418
0.00082876
0.00216346
6.18593e-05
0.000626741
0.000342636
0.00234298
0.008492
0.00945038
0.00765067
0.00423909
0.0010037
0.00266307
0.000564525
0.00352901
0.00461332
0.00334223
0.0056595
0.00166217
0.00160511
0.00571967
0.00203205
0.0028919
0.00561481
0.010406
0.00856407
0.00906333
0.00507929
3.22702e-05
0.00878424
0.000451347
0.00297483
0.000342775
0.00196009
0.000364455
0.00124627
0.00188636
0.000390423
0.00281935
0.00119765
0.000507623
0.00134
0.00112449
0.00159065
0.0017184
0.000164816
0.00193492
0.0108282
0.000880749
0.00421404
0.00143046
0.00257554
0.000322571
0.00182122
0.00245082
0.00161025
0.00580759
0.00115288
0.00178794
0.00296738
0.00291983
0.00126072
0.00123894
0.00405061
0.00663877
0.00209557
0.00354282
0.00605034
0.000917464
0.00407545
0.00292395
0.00163683
0.0026219
0.000397462
0.00164431
0.00124306
0.00307245
0.00210829
0.00218352
0.000433328
0.00282358
0.00348234
0.00323444
0.00274482
0.000661363
0.00477011
0.000208084
0.00133412
0.00438655
0.00313345
0.00151326
0.00562732
0.000470438
0.000707052
0.000434984
0.00323829
0.00246905
0.00193191
0.00072107
0.00145249
0.00401483
0.00463261
0.00228604
0.00430512
0.00496747
0.00618922
0.00380777
0.000946789
0.00136707
0.00165297
0.00343532
0.00125647
0.00178746
0.00145226
0.000920626
0.00344205
0.00537691
0.000288607
0.00402631
0.00193958
0.001094
0.00248386
0.000439417
0.00201529
0.000770975
0.000634106
0.00166138
0.000375071
0.00154832
0.00183607
0.00594265
0.00560219
0.00301721
0.00296248
0.000720407
0.000925264
0.00414559
0.000507071
0.00256595
0.00210474
0.00235023
4.3241e-05
0.000819647
0.0014375
0.00138196
0.00406252
0.00012403
0.00246659
0.00119956
0.00278875
0.000834037
0.000105624
0.00127747
0.00193976
0.000632261
0.000485717
0.00297711
0.000363089
0.00241481
0.000397321
4.978e-05
0.00205005
0.00537083
0.0017755
0.00459168
0.00148376
0.00583496
0.0118065
0.00676416
0.000562598
0.0025894
0.000659993
0.00803186
0.00235938
0.00199193
0.0022578
0.000677457
0.00316964
0.00156945
0.00210451
0.000843317
0.000666511
0.000486714
0.00530265
0.00385981
0.0118726
0.010169
0.00604967
0.00781649
0.00498023
0.00422166
0.00224939
0.000607996
0.00242597
0.000636397
0.00227686
0.000222764
0.00227285
0.000319204
0.00334927
0.00527324
0.0037201
0.00641629
0.00177081
0.00502022
0.000186016
0.00812023
0.00546945
0.00380973
0.000726519
0.00228951
0.00041293
0.00393655
0.00226286
0.0010976
0.00485399
0.00236993
0.00306358
0.00306321
0.000556771
0.00328696
0.00125789
0.00194644
0.000651918
0.00134357
0.00528239
0.00476779
0.000849972
0.00100874
0.00453338
0.0018193
0.00321973
0.00662895
0.00179989
0.00394223
0.00309523
0.00309133
0.00233307
0.00980462
0.00262435
0.00435694
0.00368846
0.00100527
0.00493948
0.000199116
0.00357623
0.00391223
0.00609688
0.000197759
9.54582e-05
2.41822e-05
0.00121353
0.000562356
0.0027317
0.00354418
0.00181283
0.000322207
0.00195652
0.000105725
0.000802675
7.67712e-05
0.000373026
0.00305953
0.000367548
0.000236721
0.00481588
0.00105649
0.00127779
0.0049104
0.00339274
0.0092313
0.00127445
0.0046973
0.0022633
0.00512934
0.0017721
0.000247339
0.000192702
0.00416149
0.000896128
0.00336926
0.00158221
0.00412834
0.00384893
0.00746589
0.00447995
0.000430325
0.00124202
0.000129976
0.00245841
0.00233934
0.00108852
0.00194711
0.00192611
0.00597714
0.000296012
0.00276804
0.00298698
0.00520874
0.000558165
0.00318987
0.00188672
0.00114937
0.00252721
0.000417153
0.000708375
0.00404013
0.00161249
0.00363265
0.00086126
0.000332778
0.00171626
0.00619538
0.00296689
0.000809922
0.00179517
0.00229346
0.00320544
0.000958153
0.00108035
0.00245862
0.00162036
0.000910252
0.002021
0.00244532
0.00660809
0.00291477
0.0078338
0.00696703
0.00367992
0.00203348
0.00287173
0.000938718
0.000838211
0.00214691
0.00529647
0.000546444
0.000315616
0.00107001
0.000601463
0.000191719
0.00328589
4.63884e-05
0.00434198
0.0053523
0.00578954
0.00553722
0.00394076
0.000792474
0.00685214
0.000220409
0.00264547
0.000224391
5.45517e-05
0.00145557
0.00161751
0.000425343
0.000209302
0.000282396
0.000238752
0.00355937
0.00115554
0.00230963
0.000128458
0.00594162
0.00135617
0.00452467
0.00648611
0.00174647
0.000183917
0.00168482
0.00373282
0.00196731
0.00078147
0.000721451
0.00261009
0.00473642
0.00261827
0.00154637
0.000635063
0.00026753
0.00381617
0.00339319
0.000182437
0.00873506
0.00393656
0.00200476
0.00379185
0.00447168
0.0004268
0.00237746
0.00211957
0.00603295
0.000243064
0.00142682
0.00191619
0.00209546
0.00019063
0.00252909
0.00245239
0.00376432
0.00738612
0.00252555
0.00219528
0.00263961
0.00219648
0.00582451
0.00255361
0.00381368
0.0021385
0.00162038
0.00184563
0.00779013
0.00544276
0.00450311
0.000830356
0.000861787
0.00127295
0.00284848
0.00592855
0.00439626
0.0074246
0.00108943
0.00526498
0.00681514
0.00307417
0.00288524
0.000874597
0.00491465
0.0035125
0.00151891
0.00743769
0.00088718
0.000998046
0.00307659
0.00189975
0.00398541
0.00383421
0.000990462
0.0060848
0.000370769
0.00217812
0.000132845
0.000268477
0.00131155
0.00191334
0.000749243
4.26595e-06
0.000368546
0.00650874
0.00455321
0.00103943
6.2543e-05
0.00431172
0.000140497
0.00168093
0.00164703
0.000284126
0.00327685
0.000786078
0.0011221
0.00362116
0.00207446
8.95402e-06
0.000308314
0.000766329
0.00559763
0.000837314
0.00195604
0.00344087
0.00285156
0.0030564
0.0010354
0.00333761
0.00111876
0.000841147
0.00280321
0.00162065
0.00397537
0.000397948
0.000984319
0.00154469
0.000187105
0.000147125
0.00304841
0.00186077
0.0020273
0.0101694
0.000877472
0.00427497
0.00283667
0.00495407
0.00307725
0.00198232
0.000373125
0.00123727
0.00466436
0.000370946
0.00205859
0.00269259
0.00232417
0.0008241
0.00119935
0.00099751
0.00366476
0.00509019
0.00216646
0.000462906
0.0001796
0.00184886
0.00406127
0.00657573
0.00215092
0.00106624
0.000477252
0.000285343
0.00207587
0.00147351
0.00219257
0.00389084
0.00785919
0.00055538
0.000683099
0.00163579
0.00380722
0.00684115
0.00594563
0.00181204
0.00607157
0.000149992
6.35687e-05
0.001537
0.00784836
0.0100433
0.00145028
0.00341387
0.00557607
0.00863848
0.000237189
0.00472817
0.00913881
0.00331331
0.00445497
0.0024069
0.000834812
0.00107185
0.0026299
0.000499573
0.00141532
0.000404701
0.00373621
0.0020394
0.00204042
0.00392276
0.00104344
0.0040481
0.00321309
0.00164295
0.00144317
0.00402686
0.00114035
0.00215974
0.000992952
0.000184139
0.00130849
0.00390059
0.00552411
0.00143102
0.0011574
0.00108252
0.000596495
0.00297895
0.0011824
0.00749209
0.00371173
0.00315338
0.00547587
0.0048364
4.59912e-05
0.0043085
0.000372031
0.000916497
0.000324535
0.00048962
0.00385604
0.00201152
0.00280593
0.000437595
0.00178588
0.00545045
0.00145568
0.000338004
0.00248083
0.00635093
0.000537002
4.145e-05
0.00356622
0.0013749
0.00123084
0.0057004
0.00349188
0.000286958
0.00288467
0.000303374
0.00188043
4.92162e-05
0.00833417
0.000934583
0.00200646
0.00303806
0.0010676
0.00050217
0.00259164
0.00219011
0.00190418
0.000385895
0.000377752
0.00102742
0.00184641
0.00250351
0.00241664
0.00214571
0.0013608
0.000386639
0.00364643
0.000433933
0.00159589
0.00010159
4.27725e-05
0.00472283
0.000770113
0.00745684
0.000659756
0.00480581
0.00352015
0.00228235
0.00384658
0.00129289
0.00118441
3.0239e-05
0.000199888
0.00276549
0.00306816
0.00100673
0.00148046
0.0038651
0.0012465
0.00273009
0.00523393
0.00462802
0.00508486
0.00323923
0.00399972
0.00338181
0.00729239
0.00609796
0.00511561
0.0121709
0.00440322
0.00523092
0.00168853
0.0029346
0.000684511
0.00174257
0.00221421
0.00296297
0.00335927
0.00570482
0.00162051
0.00146518
0.000167747
0.000173787
6.66139e-05
0.00472112
0.00107298
0.00654359
0.000185432
0.000253648
0.0071487
0.000348624
0.00532005
0.000211831
0.0038196
0.00124212
0.000356215
0.00016584
0.00409721
0.0015568
0.000101307
0.00138278
0.00248123
0.00601056
0.00100533
0.00875038
0.00344214
0.00154772
0.00580686
0.00765847
0.00391313
0.00556719
0.000238
0.00417295
0.00190915
0.00212563
0.00169789
0.00200972