/*--------------------------------*- C++ -*----------------------------------*\
| =========                 |                                                 |
| \\      /  F ield         | OpenFOAM: The Open Source CFD Toolbox           |
|  \\    /   O peration     | Version:  2212                                  |
|   \\  /    A nd           | Website:  www.openfoam.com                      |
|    \\/     M anipulation  |                                                 |
\*---------------------------------------------------------------------------*/
FoamFile
{
    version     2.0;
    format      ascii;
    arch        "LSB;label=32;scalar=64";
    class       volScalarField;
    location    "0";
    object      stateMean;
}
// * * * * * * * * * * * * * * * * * * * * * * * * * * * * * * * * * * * * * //

dimensions      [0 0 0 1 0 0 0];

internalField   nonuniform List<scalar> 
3200
(
327.957
327.849
327.291
324.767
325.609
325.272
324.716
327.293
326.016
326.598
326.94
324.602
323.644
325.581
324.587
324.471
326.414
326.228
325.523
328.096
324.245
324.339
321.84
322.238
322.1
322.357
322.052
321.811
320.991
323.615
323.611
322.07
322.657
321.383
320.871
320.656
321.792
320.643
322.714
323.978
319.888
320.223
319.871
317.406
319.09
317.987
319.268
319.205
318.194
319.214
318.926
319.016
318.355
318.371
318.169
317.548
318.579
319.284
317.165
319.244
315.058
316.671
316.899
315.114
314.816
313.223
313.284
316.678
315.081
315.894
316.659
315.364
315.004
315.781
314.843
313.482
313.774
314.979
314.876
315.326
311.753
311.241
312.164
312.543
312.049
310.175
312.819
312.842
310.205
312.67
311.685
312.29
312.059
310.645
310.704
312.372
310.478
310.589
312.943
312.213
308.879
308.203
307.834
308.715
307.851
308.885
307.551
308.371
308.776
308.607
308.15
308.156
308.412
309.549
309.434
306.235
307.642
305.75
306.822
309.079
306.577
304.784
306.157
304.476
304.162
304.422
303.298
304.329
304.697
305.183
306.231
304.267
304.886
303.486
306.023
306.563
305.089
303.254
304.327
303.732
302.771
299.497
302.01
302.041
300.078
299.841
302.542
302.863
302.528
301.243
301.081
301.895
301.573
302.327
302.969
300.787
301.464
302.756
302.426
301.926
326.025
326.301
326.495
326.644
326.766
328.263
324.756
325.044
326.707
325.518
325.952
326.558
322.819
326.42
324.703
324.679
325.72
325.147
326.98
325.386
322.541
322.092
322.598
322.461
321.462
323.023
322.371
323.186
321.035
322.9
323.058
321.699
323.295
322.69
323.098
320.808
322.296
322.399
322.654
322.27
320.093
319.507
318.123
316.733
319.45
318.097
319.454
319.483
319.855
318.464
319.76
318.207
317.589
318.195
318.487
318.127
316.545
318.377
317.611
320.174
315.12
316.382
315.242
313.722
315.039
317.355
315.225
315.819
314.191
315.364
315.925
315.915
315.408
316.532
315.482
315.995
314.136
316.39
316.162
316.413
314.422
312.626
312.824
311.502
309.848
311.91
313.504
312.134
311.148
312.206
312.025
311.2
309.833
313.069
311.256
311.762
312.827
312.011
310.069
311.542
307.877
309.263
309.126
309.662
310.363
308.116
306.944
307.303
308.622
308.543
308.861
308.274
308.298
307.723
310.398
306.646
307.745
309.005
309.907
308.247
304.788
305.193
306.804
306.498
305.685
304.794
304.431
304.759
304.689
305.073
304.172
305.038
303.751
305.195
305.539
305.34
304.697
304.839
305.369
305.48
301.846
300.524
302.163
301.874
300.812
303.066
303.401
301.043
301.492
302.499
303.106
300.983
302.159
299.709
298.925
302.834
302.521
301.119
300.476
301.711
328.702
326.677
326.613
324.212
325.232
326.806
325.061
329.148
326.193
326.142
326.604
325.02
325.909
325.279
325.971
325.085
325.29
324.489
326.591
326.291
325.271
322.97
324.565
324.05
320.456
323.397
323.585
322.388
323.494
322.418
322.92
323.144
324.459
322.284
321.716
323.434
323.028
322.447
322.836
323.57
319.793
321.242
320.426
316.231
317.216
318.209
317.444
320.385
318.11
319
318.417
320.03
318.864
318.386
318.033
318.381
319.465
318.781
320.126
321.421
315.538
316.726
315.572
316.315
314.191
316.157
314.529
316.025
314.784
315.082
315.773
316.143
314.859
317.031
315.551
314.546
314.874
312.68
315.852
316.074
311.677
312.067
312.822
313.726
311.904
310.717
311.758
312.537
311.525
311.547
311.751
312.169
311.36
311.354
312.247
310.686
311.497
312.249
311.926
311.833
310.336
308.502
309.349
309.607
308.226
308.697
306.586
308.336
308.018
308.392
309.501
309.602
308.851
306.942
307.789
307.933
307.879
308.729
308.101
309.541
305.523
304.331
305.105
305.401
305.727
306.552
304.903
304.118
304.965
304.768
304.259
306.522
305.423
303.294
304.856
306.014
304.158
305.502
306.439
303.597
302.299
302.58
301.083
302.517
302.583
300.472
302.823
300.495
302.933
300.939
300.19
301.41
303.236
300.909
301.826
301.433
302.281
300.434
302.577
299.732
328.264
327.617
327.364
325.552
326.769
326.327
325.487
326.48
326.713
328.788
327.435
327.62
325.929
324.153
325.58
325.249
326.482
325.976
327.539
327.169
322.719
322.635
322.872
322.969
322.802
323.085
322.935
323.485
323.517
323.448
323.239
324.387
323.348
322.202
323.12
321.814
322.464
321.795
322.234
323.605
320.485
319.962
319.724
318.796
319.86
318.291
320.035
318.831
318.93
319.997
319.586
320.486
319.883
319.478
319.721
317.91
316.98
318.401
321.032
320.601
315.197
315.399
315.721
314.241
314.484
316.325
315.824
313.584
316.759
317.157
315.292
316.087
314.959
315.144
314.402
315.315
315.397
315.857
315.819
315.892
311.732
313.46
312.905
311.817
312.369
312.752
310.216
312.259
311.292
312.936
312.186
310.796
312.543
312.233
310.943
312.083
312.696
311.541
312.636
311.823
308.994
308.284
308.866
309.668
308.593
308.914
309.179
306.85
308.088
309.207
309.636
309.334
307.143
308.344
308.814
308.925
307.972
308.345
308.126
308.587
306.079
303.972
306.308
305.696
303.924
305.292
306.043
305.491
304.815
304.465
306.198
307.307
303.788
303.009
304.727
305.478
305.221
303.781
302.862
305.353
302.266
299.972
302.022
302.327
300.435
299.765
302.768
301.126
300.445
302.767
300.46
301.428
301.888
301.622
300.727
301.816
302.44
303.612
302.961
299.99
329.706
328.265
328.179
326.051
327.732
325.181
326.575
328.172
328.17
327.672
328.39
326.511
328.547
326.889
326.97
327.002
326.997
326.197
327.787
327.084
325.308
324.032
323.473
321.58
323.694
321.828
322.868
323.192
323.423
323.96
323.081
323.228
323.748
322.458
323.134
322.16
322.385
321.947
322.464
323.277
320.935
322.259
320.886
318.91
317.987
319.771
319.177
320.459
317.835
320.497
320.342
319.175
318.635
320.456
318.624
319.24
320.258
320.393
320.475
321.333
315.769
315.915
314.958
315.581
315.967
315.398
314.685
315.764
315.16
316.266
318.091
314.54
316.669
314.331
314.762
315.829
316.955
315.778
314.759
317.225
312.866
313.121
311.23
312.423
312.27
313.533
311.784
314.135
312.146
311.761
312.858
313.971
312.494
314.778
312.869
310.178
311.734
313.582
311.865
311.488
310.07
308.199
308.511
307.942
309.372
307.443
309.298
307.049
307.973
308.095
308.266
309.379
308.699
309.282
309.481
309.678
308.595
309.247
307.573
311.093
306.625
306.534
305.971
306.003
305.955
305.834
306.045
304.297
304.729
305.316
303.486
308.038
304.907
305.364
304.034
304.414
305.644
304.74
305.135
304.925
302.349
301.382
301.662
300.043
301.871
302.609
300.699
300.784
302.385
302.643
302.442
301.735
301.669
301.358
301.983
301.384
302.567
302.982
302.393
300.883
329.442
328.162
327.552
328.296
328.032
326.105
328.643
327.855
327.624
327.916
328.542
329.043
327.365
328.725
328.534
325.071
327.158
326.825
327.207
329.219
326.62
323.311
324.132
323.638
323.146
324.013
325.087
324.036
324.959
323.98
324.387
323.925
324.894
323
323.829
322.891
323.582
323.163
322.956
325.576
321.281
319.658
320.553
321.29
320.77
319.336
319.111
320.261
322.163
321.183
321.185
322.233
319.888
318.518
322.225
319.327
320.758
320.402
321.305
321.614
316.813
314.85
315.279
315.634
316.413
315.97
316.063
316.083
317.753
317.807
317.162
317.987
314.482
316.581
316.523
316.247
315.114
316.476
315.19
317.789
314.178
314.062
312.197
313.273
311.55
311.621
312.931
312.189
312.66
312.352
314.381
312.909
313.082
311.708
312.629
312.295
312.773
312.722
311.623
312.645
309.522
309.296
308.529
310.031
310.485
308.578
308.201
308.625
310.465
308.399
306.538
309.13
309.59
307.677
308.277
306.976
307.106
309.545
306.993
308.74
303.813
305.989
304.646
306.445
304.951
305.023
304.678
305.246
305.778
306.671
305.634
304.191
305.246
305.571
304.565
305.177
304.062
303.388
305.714
305.563
302.17
300.935
304.24
301.224
301.1
301.297
301.852
302.754
302.374
302.841
302.193
302.166
302.732
300.469
301.814
302.485
301.238
302.816
301.956
301.645
330.789
331.347
329.833
326.975
326.455
328.66
328.044
328.942
328.506
329.41
328.272
328.262
330.708
328.331
328.448
329.563
329.111
327.738
328.43
328.455
324.702
326.396
325.599
323.961
323.374
324.193
324.274
323.897
325.094
323.824
325.596
326.564
325.093
325.12
325.915
321.514
324.437
323.508
324.024
325.563
320.46
320.381
322.688
319.86
320.344
321.69
322.671
321.497
321.216
320.527
322.071
320.736
319.817
319.912
320.237
319.752
319.439
319.468
319.902
322.578
316.674
316.189
316.366
316.997
314.669
315.98
315.494
316.408
316.354
316.087
318.772
316.927
317.765
316.472
316.537
316.969
315.351
318.311
317.433
317.273
313.822
314.178
312.797
312.731
313.205
312.654
313.727
312.75
312.093
313.832
312.783
312.575
314.762
312.805
313.367
313.348
312.468
312.377
314.032
312.826
309.163
309.138
309.186
307.88
308.235
308.48
310.029
309.039
308.791
307.66
309.971
310.312
309.778
309.021
310.914
309.659
309.011
308.44
308.861
309.531
307.16
305.4
304.639
307.271
305.567
305.368
304.478
305.861
305.259
304.211
305.74
304.67
303.773
305.68
304.553
305.03
304.686
306.339
303.589
306.976
300.853
302.46
299.837
301.004
302.35
302.509
301.351
300.378
301.285
301.131
303.07
302.761
302.4
301.547
302.816
301.052
303.827
300.965
301.508
300.523
330.956
331.724
329.063
330.909
328.005
329.225
329.961
327.833
331.261
333.527
329.292
328.353
328.914
329.002
329.115
327.957
329.126
330.288
330.075
331.264
324.763
324.056
324.753
324.957
325.705
324.226
324.53
325.502
329.011
325.316
325.289
325.176
325.002
325.296
325.415
325.509
324.724
327.065
324.939
326.855
323.028
319.752
321.251
321.672
319.888
322.229
321.339
321.415
322.615
322.318
321.549
322.638
322.853
322.397
320.666
319.44
320.464
323.359
320.675
322.337
316.957
319.087
317.299
319.171
317.18
318.878
315.522
318.852
317.581
317.474
318.551
317.156
318.352
318.288
317.794
317.327
315.977
316.019
318.321
316.913
313.804
313.012
314.122
314.961
312.077
312.448
312.664
313.766
312.72
314.361
314.474
314.278
314.254
313.861
313.625
315.156
312.361
313.676
312.099
314.128
309.86
307.178
308.686
308.709
311.005
307.978
308.613
309.384
308.903
310.989
308.577
309.713
310.072
309.073
310.555
309.926
308.765
308.785
309.542
308.464
304.475
305.884
302.893
305.33
305.143
306.765
305.328
306.182
304.788
304.398
305.075
305.067
304.786
304.871
304.895
304.657
306.471
305.363
305.824
305.064
300.296
303.157
301.754
301.177
300.857
302.048
301.439
302.143
301.957
302.391
302.25
299.976
301.691
300.22
300.792
300.947
302.522
301.734
302.111
302.674
332.423
332.028
329.864
331.505
329.091
330.165
330.605
330.45
329.157
331.106
331.441
331.863
330.557
331.131
330.783
330.68
330.235
330.13
332.811
330.991
328.284
326.984
325.75
327.16
326.692
324.293
326.336
326.111
326.399
327.815
325.002
327.119
325.44
327.907
326.127
323.835
325.992
326.447
326.496
327.293
324.013
322.809
322.907
320.912
320.906
322.813
322.353
323.047
321.703
321.695
321.182
321.782
320.756
322.029
323.054
323.174
319.694
321.925
323.015
322.915
320.117
317.77
317.984
318.12
318.703
317.609
317.521
318.315
319.039
317.519
319.898
316.764
317.597
318.3
317.662
317.355
318.568
319.249
318.033
316.932
314.373
313.289
315.993
314.147
315.427
312.57
313.972
314.322
313.288
313.095
314.164
314.284
314.626
312.69
312.668
311.688
312.101
313.057
314.957
314.677
310.043
309.812
310.952
309.543
309.301
310.672
309.192
309.489
310.697
310.854
309.766
309.333
310.826
309.412
309.089
310.393
308.397
308.748
309.818
309.731
306.832
305.002
307.008
305.802
306.049
304.287
304.591
305.263
306.634
306.862
307.396
306.473
305.661
306.388
304.999
305.476
305.741
305.552
306.116
307.056
302.038
301.818
301.963
301.171
302.501
304.71
304.254
301.099
302.41
303.163
300.604
301.723
302.601
302.953
301.567
301.806
300.087
300.147
300.695
300.726
332.861
330.766
330.729
330.611
332.611
331.86
332.059
332.897
331.548
331.037
332.26
330.277
332.807
334.134
331.197
330.014
331.139
332.37
332.405
334.248
329.378
325.737
327.955
326.012
327.823
326.455
327.108
326.29
327.097
327.019
326.598
326.242
326.137
329.188
325.968
326.516
326.302
327.505
325.969
329.054
324.022
322.363
322.79
320.658
322.608
320.891
322.513
322.128
321.697
321.813
324.016
322.295
323.091
323.467
323.441
322.645
324.128
320.583
323.875
324.38
319.833
317.956
319.102
318.15
317.364
317.405
317.877
319.724
317.163
318.667
317.948
317.5
319.636
318.579
318.556
318.179
318.43
318.958
316.487
319.878
314.873
315.382
314.164
313.471
315.351
313.621
313.915
313.14
314.28
314.897
314.12
314.611
315.757
314.558
315.899
314.374
312.162
313.822
313.135
314.345
309.569
309.714
311.293
310.498
309.006
309.813
309.14
309.769
308.698
310.257
311.351
310.012
310.101
308.648
309.197
311.003
308.49
309.472
310.985
310.164
305.966
306.694
305.838
306.536
307.789
305.369
306.602
306.942
305.441
306.264
305.818
306.242
305.278
306.791
305.858
306.943
306.732
307.749
305.816
306.411
301.614
302.132
302.227
301.765
302.35
301.799
301.124
302.096
301.812
303.374
301.348
301.466
300.711
302.89
301.775
301.945
301.418
301.992
300.615
301.765
332.755
333.835
332.328
332.042
331.643
333.649
333.188
332.946
331.318
331.218
333.444
332.767
333.934
333.517
333.897
332.816
333.514
332.619
333.976
334.582
329.933
327.036
330.158
326.899
328.62
327.33
326.847
327.776
329.833
326.899
326.875
329.763
327.722
327.918
327.289
328.481
327.035
326.584
327.184
328.859
326.147
323.333
321.809
323.397
321.613
324.46
324.042
322.589
325.717
324.797
323.206
322.591
324.143
323.43
324.447
323.246
323.828
324.574
323.423
324.645
320.742
319.443
320.074
319.374
317.98
318.611
318.921
319.003
320.425
318.472
319.771
317.766
317.047
319.2
315.824
318.772
319.018
318.101
318.891
319.34
314.924
315.279
315.461
314.778
312.852
315.199
314.149
313.861
315.303
313.81
315.99
315.288
316.42
315.487
316.811
313.852
314.636
316.003
315.29
314.767
311.303
310.912
310.155
310.731
309.732
310.062
311.718
312.376
309.832
309.841
310.461
312.257
309.933
311.565
308.49
311.193
311.44
310.219
310.982
311.003
305.861
306.056
305.465
305.958
305.603
305.953
305.943
307.155
304.487
307.267
305.641
305.789
305.253
308.793
306.745
306.538
304.827
306.42
305.712
306.561
300.834
301.335
305.145
303.734
303.374
302.827
302.483
303.867
302.854
301.81
300.618
301.83
302.579
301.671
302.152
302.646
302.405
303.171
302.484
301.094
334.075
334.075
333.556
334.047
334.59
332.221
332.777
333.616
334.249
334.211
333.003
334.176
335.369
334.472
332.731
333.298
334.111
332.589
334.961
335.929
330.003
328.911
330.16
329.599
328.199
327.544
328.521
329.897
327.85
328.731
329.589
328.001
327.131
328.213
329.113
328.839
327.804
329.166
329.715
329.151
326.861
325.304
324.863
326.023
322.862
322.087
323.357
325.228
324.485
324.933
323.136
323.246
324.457
322.408
324.496
323.325
323.442
323.545
325.293
324.859
318.891
320.014
319.692
320.3
318.568
320.038
320.05
320.408
320.15
319.71
320.83
319.468
318.48
320.404
319.189
319.812
319.638
319.194
322.501
320.916
315.9
317.063
314.509
315.415
315.673
313.677
314.893
314.782
315.094
315.153
314.481
316.374
315.326
315.478
314.858
314.759
315.229
316.505
315.174
315.503
309.994
310.758
310.832
312.187
310.333
311.297
309.305
310.35
310.374
310.927
312.251
312.145
312.032
310.293
310.648
310.871
312.796
310.434
310.754
310.371
307.754
306.462
305.96
305.506
305.749
306.181
307.158
305.574
306.749
305.23
307.732
307.208
307.501
306.685
305.525
306.114
306.45
307.265
307.545
307.974
302.84
302.634
302.816
302.202
301.961
302.328
302.911
303.042
302.489
301.482
302.342
301.651
299.581
302.366
301.888
302.783
302.101
302.299
302.206
301.387
336.118
336.539
336.063
335.054
334.101
334.773
333.799
335.252
332.592
335.281
336.055
334.688
333.537
335.898
334.562
334.731
335.513
336.982
336.243
336.309
330.327
328.754
331.738
329.108
328.09
329.285
329.907
329.216
328.977
330.036
329.544
330.317
329.73
329.429
329.613
328.699
328.437
329.414
328.689
329.294
327.622
323.896
325.638
324.829
323.622
324.44
325.212
323.887
324.205
326.636
325.124
325.309
323.72
323.673
324.136
324.86
325.679
326.425
323.503
325.26
321.57
319.986
321.069
318.907
320.442
319.15
319.925
319.577
320.537
321.141
319.482
319.44
320.242
320.956
321.103
318.883
320.72
319.977
321.218
319.703
315.639
313.878
316.306
315.855
313.661
315.344
315.317
315.443
314.586
316.402
316.233
315.836
316.038
316.807
314.03
314.715
316.736
316.884
317.212
316.418
311.138
311.299
311.429
309.889
311.39
310.483
310.622
311.388
312.193
312.805
311.222
312.375
310.499
311.414
311.812
311.136
310.33
310.675
310.677
311.36
306.616
306.044
305.98
308.391
308.312
305.693
305.731
306.435
306.952
307.945
306.83
307.455
306.011
307.36
306.631
306.343
307.01
306.119
307.764
306.463
302.922
302.545
303.034
302.452
302.24
301.83
302.809
302.42
302.086
301.335
302.125
301.503
302.349
302.208
302.836
303.831
301.663
303.579
301.735
303.94
338.609
337.014
335.051
335.848
334.875
332.511
336.088
336.041
336.184
335.682
336.518
335.953
336.079
335.58
334.98
335.259
336.757
336.156
338.724
338.061
331.83
332.492
331.655
331.507
329.469
330.506
331.189
330.663
329.746
330.597
331.274
330.604
329.346
328.645
329.076
332.331
329.528
331.668
329.974
332.513
326.879
326.405
325.484
324.589
325.284
324.216
326.303
325.265
324.08
324.91
326.68
326.659
325.441
326.636
325.906
326.051
325.546
325.685
326.884
326.651
320.713
320.17
322.013
321.213
319.666
322.889
320.243
319.601
319.905
319.923
320.166
317.752
320.024
322.218
321.946
320.377
322.214
320.496
321.639
321.695
317.767
315.819
315.963
315.979
316.425
316.269
315.271
315.05
316.769
316.311
316.828
316.229
316.425
316.111
316.209
317.008
315.871
316.008
317.402
316.175
310.889
312.844
312.409
308.517
311.033
310.003
310.792
313.121
310.989
311.473
311.49
310.245
311.244
310.447
310.973
312.716
312.591
313.678
312.71
311.153
307.148
306.744
306.052
306.111
307.186
306.276
306.302
305.074
307.01
307.774
307.841
305.32
306.737
307.872
307.453
306.499
307.604
306.934
306.567
308.006
301.779
301.174
302.539
302.186
302.814
304.175
301.411
302.068
302.86
301.626
301.35
302.027
302.64
303.051
301.812
302.02
301.676
303.018
300.275
301.385
338.766
338.561
335.085
335.746
335.568
336.315
336.997
336.061
335.048
337.041
336.963
336.472
336.581
336.78
335.525
336.55
334.969
338.123
338.166
337.994
332.408
331.437
333.535
331.285
330.571
331.606
331.588
331.182
331.169
331.869
331.659
331.8
331.744
332.786
331.915
332.214
331.315
333.233
331.624
332.601
328.282
326.796
326.361
326.93
325.237
327.169
326.335
326.876
325.822
328.24
325.838
327.18
326.847
326.503
325.281
325.348
326.44
329.151
327.51
326.82
322.525
322.792
321.554
320.717
320.861
319.662
321.73
321.235
322.338
322.411
321.676
320.908
320.905
320.441
319.227
322.355
320.775
320.569
322.061
323.178
317.319
317.755
317.273
317.159
316.11
314.273
318.503
315.384
316.571
316.572
316.442
315.932
314.933
315.386
314.388
317.04
318.313
318.754
317.521
317.424
311.491
313.323
312.92
312.334
309.575
311.651
312.267
311.019
311.402
310.76
313.199
311.686
313.877
311.84
311.249
311.936
311.776
312.234
312.388
311.53
307.052
307.181
309.088
308.508
307.45
307.17
305.844
307.138
307.707
306.69
307.109
306.184
307.422
307.513
306.039
307.768
307.113
306.994
306.833
308.772
302.109
301.776
301.334
301.519
303.312
302.082
301.391
302.067
302.662
303.258
302.9
303.61
302.525
302.698
302.862
302.331
302.425
303.296
301.804
301.749
341.144
338.084
339.328
337.022
336.401
337.122
337.569
338.426
337.924
336.787
338.239
337.646
337.389
339.025
337.884
337.671
337.644
339.122
339.507
338.442
332.611
332.583
331.99
331.339
330.584
332.132
333.269
333.126
332.909
332.332
332.532
332.274
331.671
330.298
333.033
332.999
332.146
333.871
334.798
334.434
327.895
329.345
327.378
327.519
327.065
325.061
324.397
327.258
326.645
325.952
324.948
327.842
326.183
324.693
328.718
329.027
328.286
327.7
327.708
328.163
322.391
322.731
322.461
321.185
321.789
323.157
321.28
322.245
321.301
321.584
323.151
322.141
321.283
322.177
321.802
322.127
322.331
322.753
323.532
324.01
317.68
316.893
316.961
317.538
316.448
317.059
315.091
318.676
316.518
315.79
319.065
317.534
316.13
317.352
317.143
317.29
317.504
318.528
317.898
316.336
312.136
311.739
310.626
311.906
312.287
311.647
310.463
312.636
312.469
311.375
312.059
312.097
314.249
313.538
312.332
313.294
312.456
311.741
312.282
309.67
307.07
307.989
306.456
307.082
307.275
306.65
308.135
306.889
307.602
307.603
307.171
306.915
306.704
306.719
306.787
307.011
307.291
306.269
307.505
307.848
302.433
302.456
301.046
302.714
300.232
302.694
301.045
301.438
301.816
303.671
302.898
302.148
302.494
302.559
303.331
301.56
302.176
302.923
303.638
302.841
340.299
341.221
341.102
337.893
338.606
338.426
338.704
337.429
337.873
338.227
335.828
338.449
338.13
339.279
338.788
339.939
340.212
340.283
340.45
340.512
335.787
334.484
333.529
334.039
334.111
334.26
332.719
333.985
332.19
334.333
334.31
331.988
334.461
332.519
334.167
332.893
333.68
334.137
333.888
335.25
327.985
328.514
328.157
327.86
326.763
328.466
325.969
327.755
328.406
327.02
326.411
327.628
327.056
328.925
327.425
328.111
327.977
328.053
329.207
329.783
323.439
322.948
322.336
322.389
321.472
321.46
322.09
322.265
323.877
321.097
322.41
322.428
323.79
320.908
320.99
322.88
323.999
324.212
323.762
325.652
317.632
317.059
317.97
317.629
317.948
316.843
317.131
316.812
317.251
318.425
315.972
317.87
317.884
317.004
317.815
316.582
317.715
319.045
317.897
317.571
314.53
313.675
313.777
312.498
310.757
310.271
312.876
313.195
311.832
312.846
311.662
313.608
313.078
312.679
313.235
313.309
312.886
312.149
313.633
312.289
307.513
307.99
307.516
307.423
308.209
307.783
307.83
306.877
306.925
308.542
306.003
307.87
305.156
307.287
310.12
309.049
307.125
306.438
308.406
307.831
303.018
302.171
302.934
301.134
303.311
301.505
301.893
301.159
303.373
303.725
302.084
301.274
302.468
302.181
300.866
303.552
301.99
301.441
303.391
302.152
341.717
343.473
341.405
340.054
338.615
339.901
338.587
337.201
339.885
339.238
340.022
339.32
341.21
341.128
341.263
340.274
339.149
340.424
341.126
343.817
336.022
337.016
333.558
333.415
333.254
332.54
333.424
335.88
334.01
334.068
334.348
334.787
334.793
334.291
333.911
333.854
334.11
335.441
333.462
335.724
329.005
329.691
328.443
326.901
329.039
328.614
327.951
328.572
328.58
327.506
326.716
329.19
328.084
327.673
328.22
329.112
330.72
330.475
330.035
331.063
322.668
323.005
322.941
323.067
320.907
323.316
322.283
322.899
323.901
320.951
324.056
324.029
322.236
322.59
323.697
322.534
321.838
324.237
323.094
323.38
319.793
318.414
316.835
317.557
318.069
317.499
317.679
317.009
320.199
317.34
317.547
318.279
318.197
318.431
317.203
317.67
318.589
317.326
318.963
319.018
315.122
314.222
312.527
313.124
312.99
313.495
311.747
312.476
312.022
312.712
312.424
311.44
311.352
311.309
313.823
312.394
312.64
313.535
313.869
314.383
309.035
307.36
308.903
307.194
307.358
308.658
307.715
307.99
309.211
308.453
308.795
308.436
306.989
306.087
307.11
307.492
307.163
308.149
307.124
307.561
303.393
301.851
303.152
302.032
303.449
302.448
303.158
303.603
302.699
303.855
301.334
302.251
300.843
303.583
300.261
304.158
303.187
303.36
303.198
303.868
343.561
344.723
341.386
342.183
341.002
342.301
341.322
337.934
339.808
339.156
341.624
341.759
341.599
340.851
341.155
341.898
340.89
340.793
342.336
342.957
337.68
336.928
334.277
336.495
335.914
336.658
335.109
337.043
334.664
336.758
337.117
333.148
336.862
334.128
336.22
335.389
336.858
335.182
336.648
335.72
331.791
330.771
330.498
328.892
330.053
328.018
326.778
329.627
328.706
327.349
327.437
327.815
328.557
328.721
328.907
330.945
330.259
329.647
329.015
329.428
326.195
325.275
324.906
323.577
323.223
323.583
324.254
324.724
323.389
323.377
322.172
322.686
322.668
325.101
324.106
323.448
323.545
323.818
324.873
324.353
317.675
318.228
317.514
318.525
318.376
318.372
319.37
318.369
317.843
318.325
318.89
317.744
319.168
319.699
318.949
319.391
319.16
317.427
317.897
320.381
313.026
314.157
311.822
311.096
313.863
312.951
312.7
313.886
313.419
312.624
313.949
311.065
311.978
312.058
313.637
314.734
313.387
312.53
313.908
312.559
308.646
308.016
307.949
305.891
309.306
305.464
308.539
308.096
307.789
307.695
307.921
306.398
308.195
307.81
308.006
305.956
307.846
310.269
309.041
308.407
301.86
302.778
301.425
301.349
302.24
301.316
301.936
303.557
303.492
303.457
301.844
301.702
302.65
302.753
302.132
302.425
302.277
301.535
302.704
302.636
343.94
344.071
342.671
344.902
342.745
341.285
341.364
341.371
341.047
341.716
340.896
341.901
341.814
341.759
340.613
341.826
342.439
340.531
343.266
343.746
338.462
335.864
336.604
336.265
335.938
335.75
333.67
333.481
334.949
334.932
334.772
337.083
335.895
336.122
337.892
336.315
336.086
337.478
338.003
336.04
330.974
331.447
329.209
330.365
329.276
328.372
329.296
329.422
329.831
327.464
328.722
328.656
329.298
328.888
329.933
330.553
330.048
331.198
330.705
331.335
325.154
324.833
323.831
324.67
324.652
325.646
322.802
322.975
324.258
324.195
323.685
323.367
321.732
323.01
323.576
324.416
324.614
324.847
326.574
325.036
320.216
318.317
319.244
316.851
318.111
318.588
316.545
320.494
316.172
316.918
319.003
318.655
317.1
318.624
318.528
317.893
320.403
318.541
319.985
319.597
313.211
312.546
313.229
311.988
314.187
313.468
311.713
311.388
314.2
312.228
313.04
311.456
311.275
313.258
313.023
313.165
313.948
311.91
313.584
312.904
308.104
307.489
308.462
307.65
307.606
308.185
307.218
307.66
306.541
307.587
307.349
306.547
307.936
308.109
307.598
306.713
306.846
307.76
309.174
307.961
303.484
303.307
303.407
303.621
302.659
303.607
303.792
300.919
302.619
301.359
303.442
301.965
301.81
302.819
302.981
302.301
302.051
301.488
301.113
303.467
)
;

boundaryField
{
    hotSide
    {
        type            fixedGradient;
        gradient        nonuniform List<scalar> 
400
(
321.511
322.87
325.591
329.677
335.133
341.965
350.181
359.788
370.794
383.208
397.037
412.289
428.971
447.088
466.647
487.651
510.105
534.011
559.372
586.191
323.738
325.08
327.767
331.802
337.194
343.949
352.078
361.591
372.498
384.81
398.537
413.687
430.268
448.289
467.755
488.672
511.043
534.872
560.161
586.913
326.149
327.47
330.116
334.091
339.406
346.071
354.099
363.503
374.296
386.491
400.101
415.136
431.606
449.52
468.885
489.706
511.988
535.735
560.948
587.63
328.704
330
332.597
336.503
341.73
348.292
356.205
365.485
376.15
388.215
401.695
416.604
432.954
450.753
470.009
490.73
512.919
536.579
561.714
588.325
331.33
332.599
335.142
338.97
344.099
350.546
358.332
367.477
378.003
389.928
403.271
418.047
434.27
451.949
471.095
491.712
513.807
537.382
562.439
588.978
333.918
335.158
337.643
341.389
346.414
352.74
360.392
369.397
379.779
391.562
404.765
419.407
435.503
453.065
472.101
492.618
514.622
538.114
563.096
589.569
336.321
337.531
339.959
343.622
348.544
354.751
362.274
371.142
381.385
393.031
406.101
420.618
436.595
454.047
472.983
493.409
515.33
538.747
563.663
590.076
338.36
339.543
341.92
345.509
350.339
356.44
363.847
372.595
382.718
394.244
407.2
421.608
437.485
454.844
473.695
494.045
515.897
539.253
564.114
590.478
339.852
341.015
343.352
346.885
351.645
357.665
364.985
373.643
383.675
395.113
407.984
422.312
438.116
455.407
474.197
494.491
516.294
539.606
564.428
590.758
340.643
341.795
344.11
347.613
352.334
358.311
365.584
374.193
384.176
395.567
408.393
422.679
438.443
455.699
474.456
494.722
516.498
539.788
564.589
590.901
340.643
341.795
344.11
347.613
352.334
358.311
365.584
374.193
384.176
395.567
408.393
422.679
438.443
455.699
474.456
494.722
516.498
539.788
564.589
590.901
339.852
341.015
343.352
346.885
351.645
357.665
364.985
373.643
383.675
395.113
407.984
422.312
438.116
455.407
474.197
494.491
516.294
539.606
564.428
590.758
338.36
339.543
341.92
345.509
350.339
356.44
363.847
372.595
382.718
394.244
407.2
421.608
437.485
454.844
473.695
494.045
515.897
539.253
564.114
590.478
336.321
337.531
339.959
343.622
348.544
354.751
362.274
371.142
381.385
393.031
406.101
420.618
436.595
454.047
472.983
493.409
515.33
538.747
563.663
590.076
333.918
335.158
337.643
341.389
346.414
352.74
360.392
369.397
379.779
391.562
404.765
419.407
435.503
453.065
472.101
492.618
514.622
538.114
563.096
589.569
331.33
332.599
335.142
338.97
344.099
350.546
358.332
367.477
378.003
389.928
403.271
418.047
434.27
451.949
471.095
491.712
513.807
537.382
562.439
588.978
328.704
330
332.597
336.503
341.73
348.292
356.205
365.485
376.15
388.215
401.695
416.604
432.954
450.753
470.009
490.73
512.919
536.579
561.714
588.325
326.149
327.47
330.116
334.091
339.406
346.071
354.099
363.503
374.296
386.491
400.101
415.136
431.606
449.52
468.885
489.706
511.988
535.735
560.948
587.63
323.738
325.08
327.767
331.802
337.194
343.949
352.078
361.591
372.498
384.81
398.537
413.687
430.268
448.289
467.755
488.672
511.043
534.872
560.161
586.913
321.511
322.87
325.591
329.677
335.133
341.965
350.181
359.788
370.794
383.208
397.037
412.289
428.971
447.088
466.647
487.651
510.105
534.011
559.372
586.191
)
;
    }
    coldSide
    {
        type            mixed;
        refValue        uniform 300;
        refGradient     uniform 0;
        valueFraction   uniform 0.991591;
        source          uniform 0;
        value           nonuniform List<scalar> 
400
(
300.023
300.016
300.019
300.019
300.02
300.018
300.007
300.002
300.017
300.014
300.007
300.024
300.025
300.015
300.018
300.02
300.025
300.029
300.016
300.029
299.996
300.004
300.022
300
300.012
300.008
300.021
300.027
300.015
300.018
300.011
300.022
300.021
300.01
300.015
300.021