/*--------------------------------*- C++ -*----------------------------------*\
| =========                 |                                                 |
| \\      /  F ield         | OpenFOAM: The Open Source CFD Toolbox           |
|  \\    /   O peration     | Version:  2212                                  |
|   \\  /    A nd           | Website:  www.openfoam.com                      |
|    \\/     M anipulation  |                                                 |
\*---------------------------------------------------------------------------*/
FoamFile
{
    version     2.0;
    format      ascii;
    arch        "LSB;label=32;scalar=64";
    class       volScalarField;
    location    "./ITHACAoutput/true/4.7";
    object      error;
}
// * * * * * * * * * * * * * * * * * * * * * * * * * * * * * * * * * * * * * //

dimensions      [0 0 0 1 0 0 0];

internalField   nonuniform List<scalar> 
3200
(
1.21201
1.09222
1.13973
1.28662
1.51778
2.14397
2.61551
3.17969
3.60401
3.8286
3.95307
3.94134
3.65225
3.36342
2.98864
2.73533
2.4096
2.48811
2.50609
2.67728
0.965795
0.876172
0.899767
1.04199
1.35779
1.71449
2.21786
2.70282
3.05604
3.32306
3.33985
3.3681
3.12275
2.864
2.50443
2.26518
2.11686
2.0529
2.11213
2.29296
0.784309
0.697121
0.710957
0.933126
1.13193
1.46549
1.8183
2.25534
2.53808
2.74393
2.81773
2.74328
2.6166
2.3246
2.07089
1.84307
1.76787
1.67172
1.81947
1.99856
0.567832
0.513721
0.59683
0.667359
0.873166
1.20648
1.50636
1.81445
2.03473
2.2471
2.26842
2.2267
2.13614
1.86278
1.76101
1.57405
1.34236
1.35558
1.40323
1.49996
0.442162
0.473785
0.411192
0.475282
0.723867
0.875021
1.10186
1.37533
1.58167
1.61767
1.75948
1.75797
1.62168
1.42828
1.26745
1.19839
1.08681
1.08655
1.08036
1.18053
0.305134
0.233251
0.365318
0.382103
0.482862
0.579059
0.796417
1.01904
1.1254
1.25964
1.21423
1.19089
1.15306
1.06916
0.895864
0.790917
0.730879
0.75574
0.717662
0.823238
0.193623
0.155277
0.164653
0.256739
0.295343
0.360807
0.488275
0.60828
0.633239
0.674384
0.695871
0.758084
0.648195
0.579604
0.482944
0.547995
0.441795
0.497401
0.425637
0.481576
0.102427
0.0475288
0.010911
0.0970152
0.097708
0.133223
0.189925
0.185671
0.256389
0.257619
0.203948
0.168672
0.21585
0.203513
0.192497
0.237144
0.13045
0.165108
0.150467
0.143513
0.467809
0.279977
0.251382
0.413672
0.790972
1.25395
1.79408
2.28509
2.56451
2.89126
3.02537
2.92169
2.73907
2.4878
2.08477
1.78278
1.61348
1.60657
1.74964
2.05733
0.393266
0.271938
0.204447
0.358801
0.675356
1.05493
1.45551
1.99284
2.26294
2.52802
2.58727
2.5642
2.32439
2.12235
1.78755
1.53373
1.43719
1.3988
1.51181
1.69804
0.273362
0.193427
0.256403
0.327688
0.563054
0.815126
1.19459
1.57792
1.93724
2.14544
2.20769
2.18408
2.02113
1.72966
1.50095
1.27199
1.24093
1.14228
1.25099
1.34038
0.217359
0.225638
0.150957
0.263675
0.453906
0.734847
1.07052
1.29927
1.6126
1.76738
1.78366
1.71742
1.62865
1.36829
1.23122
1.061
1.00618
0.946499
1.00903
1.11557
0.178174
0.193196
0.117651
0.165845
0.318817
0.577392
0.77822
1.02131
1.21368
1.36305
1.43688
1.36165
1.25303
1.09291
1.00294
0.816649
0.75923
0.812501
0.780514
0.820377
0.127095
0.115671
0.0309352
0.141332
0.258728
0.45769
0.570089
0.73529
0.840238
0.920789
1.02292
0.965841
0.926811
0.752569
0.694126
0.586778
0.532614
0.499542
0.615141
0.691895
0.0793324
0.0859793
0.025293
0.139937
0.106073
0.282009
0.353128
0.459614
0.522154
0.645879
0.594508
0.480926
0.524304
0.432369
0.402302
0.297377
0.304705
0.328529
0.331538
0.362675
-0.0316212
0.00164398
-0.0209921
0.00701455
0.0304606
0.0800383
0.0645017
0.135546
0.172758
0.217252
0.205706
0.234648
0.164955
0.199932
0.116813
0.107775
0.125168
0.137001
0.0397611
0.061026
-0.43636
-0.622017
-0.609583
-0.580253
-0.311187
0.159714
0.629194
1.01328
1.49422
1.73589
1.76556
1.81271
1.66025
1.34701
0.999772
0.72051
0.60019
0.728326
0.758006
1.02918
-0.36641
-0.488631
-0.531682
-0.374159
-0.232861
0.17537
0.47055
0.967059
1.29944
1.52726
1.5657
1.52666
1.35853
1.21528
0.893987
0.760027
0.549323
0.633229
0.711525
0.96041
-0.315683
-0.409919
-0.536172
-0.337763
-0.115794
0.105835
0.519156
0.808725
1.13757
1.29475
1.3245
1.27127
1.20782
1.02351
0.785822
0.554425
0.518442
0.508291
0.605975
0.74743
-0.287182
-0.320628
-0.359397
-0.291328
-0.131385
0.107
0.38075
0.643423
0.886352
1.0499
1.10842
1.12715
0.978715
0.795754
0.59979
0.472782
0.430219
0.436879
0.555099
0.662627
-0.246027
-0.273778
-0.288097
-0.232679
-0.161334
0.1211
0.307783
0.529115
0.65878
0.815789
0.825758
0.853864
0.721609
0.685922
0.537904
0.387089
0.252783
0.331622
0.403104
0.47056
-0.165619
-0.218942
-0.181414
-0.134253
-0.0329658
0.110814
0.178377
0.402908
0.532921
0.550814
0.584443
0.612608
0.553235
0.477551
0.424157
0.296554
0.294014
0.275336
0.342624
0.37143
-0.125783
-0.082497
-0.142952
-0.0623212
-0.0309422
0.0746932
0.126746
0.213262
0.345264
0.389657
0.408342
0.368266
0.338968
0.273969
0.249466
0.220328
0.167553
0.174818
0.150559
0.239561
-0.00657571
-0.0296479
-0.0182707
-0.0325813
-0.0272971
0.0222003
0.0677291
0.10045
0.155527
0.0885477
0.113271
0.0890765
0.115271
0.0371356
0.0515517
0.121029
0.00210878
0.0912552
0.0780278
0.0544931
-1.18304
-1.49493
-1.46624
-1.42626
-1.28237
-0.903145
-0.512846
-0.0303199
0.304027
0.504737
0.573748
0.55392
0.448401
0.218307
-0.0882518
-0.240374
-0.303811
-0.261604
0.0129807
0.277739
-1.02772
-1.21895
-1.27745
-1.296
-1.0843
-0.7515
-0.405481
-0.00525331
0.244075
0.467185
0.578671
0.526652
0.435306
0.152031
0.0716121
-0.158364
-0.216257
-0.178622
-0.0431638
0.286142
-0.847804
-0.966307
-1.07785
-1.01243
-0.826778
-0.665115
-0.327532
0.0247388
0.221121
0.43223
0.548027
0.563681
0.388783
0.191108
-0.0183185
-0.180628
-0.149865
-0.119209
0.0160035
0.249561
-0.758442
-0.849089
-0.935901
-0.814942
-0.709034
-0.430234
-0.233463
0.00995192
0.21011
0.385025
0.476
0.344435
0.367353
0.18908
-0.0250397
-0.0989191
-0.11561
-0.10686
0.0269655
0.196832
-0.533329
-0.649302
-0.672589
-0.589413
-0.572642
-0.320787
-0.186824
0.0379083
0.197368
0.277052
0.314078
0.385549
0.129466
0.0588014
0.0762112
-0.119063
-0.126068
-0.0882652
0.0667023
0.141691
-0.347562
-0.445734
-0.44122
-0.474525
-0.337249
-0.268888
-0.164255
0.0160757
0.178787
0.218724
0.158637
0.157246
0.170197
0.119906
0.0516831
-0.0858819
-0.0480858
-0.0248489
0.0207174
0.0910604
-0.208948
-0.262346
-0.273004
-0.251531
-0.212191
-0.115418
-0.081206
-0.000741087
0.101295
0.173745
0.147303
0.158963
0.113397
0.0824366
-0.0115045
-0.019208
-0.0166393
-0.0510372
0.0183468
0.069506
-0.102231
-0.0373965
-0.0947011
-0.0415753
-0.109917
-0.0469619
-0.02296
-0.013503
0.00329165
0.0461249
0.0295734
-0.02415
-0.00253911
0.0644969
-0.0376829
-0.00731528
-0.0229049
-0.00376831
-0.0413915
-0.0185337
-1.78049
-2.19529
-2.27193
-2.29305
-2.15342
-1.87638
-1.45319
-1.13557
-0.73584
-0.645333
-0.46604
-0.487228
-0.687327
-0.808019
-0.997315
-1.18295
-1.16812
-1.00983
-0.671153
-0.328674
-1.57548
-1.80235
-2.01367
-1.9189
-1.83308
-1.61866
-1.28732
-0.964146
-0.639899
-0.488212
-0.386339
-0.395218
-0.501962
-0.636508
-0.870431
-0.917064
-0.955529
-0.801875
-0.563763
-0.296387
-1.32622
-1.47922
-1.57876
-1.60996
-1.50026
-1.36406
-1.0358
-0.76738
-0.551771
-0.418421
-0.364529
-0.277894
-0.395679
-0.521782
-0.756248
-0.753077
-0.915457
-0.634051
-0.474056
-0.19991
-1.06205
-1.29892
-1.29386
-1.28018
-1.24789
-0.991933
-0.797159
-0.576627
-0.384316
-0.233772
-0.200587
-0.225977
-0.33059
-0.41455
-0.571785
-0.601701
-0.61272
-0.523948
-0.396922
-0.270555
-0.809865
-0.901869
-1.03713
-1.03072
-0.936589
-0.796314
-0.641832
-0.485964
-0.382909
-0.22719
-0.146129
-0.137489
-0.233036
-0.327311
-0.407939
-0.404527
-0.441509
-0.491686
-0.297625
-0.114854
-0.650867
-0.6825
-0.692449
-0.712886
-0.6203
-0.557997
-0.411628
-0.324425
-0.191454
-0.119087
-0.101811
-0.114199
-0.0706065
-0.353453
-0.285958
-0.306519
-0.385777
-0.313273
-0.176554
-0.126814
-0.345021
-0.461026
-0.463847
-0.417194
-0.378797
-0.348498
-0.273069
-0.18639
-0.117988
-0.0679661
-0.0249662
-0.0637052
-0.128862
-0.159827
-0.124483
-0.195878
-0.156919
-0.171585
-0.131117
-0.0377036
-0.155484
-0.101449
-0.163243
-0.111533
-0.101145
-0.151707
-0.0426904
-0.0396312
-0.0678061
-0.0244142
-0.00804549
-0.0257344
-0.0325931
-0.0473526
-0.0189398
0.00432682
-0.0422688
-0.045847
-0.0427869
0.00805455
-2.28185
-2.65742
-2.86602
-2.90919
-2.84445
-2.66567
-2.35681
-2.06259
-1.75966
-1.5088
-1.44768
-1.50837
-1.57266
-1.77509
-1.84456
-1.85194
-1.82998
-1.59389
-1.25714
-0.866127
-1.96111
-2.2842
-2.3932
-2.53598
-2.47546
-2.29327
-2.06196
-1.7351
-1.49311
-1.35974
-1.27008
-1.26947
-1.26236
-1.37211
-1.52109
-1.61602
-1.51301
-1.3416
-1.07555
-0.712365
-1.68112
-1.86287
-2.04932
-2.03395
-2.04262
-1.88607
-1.67769
-1.47606
-1.21226
-1.11645
-1.02176
-1.00127
-1.14805
-1.14376
-1.22369
-1.30535
-1.28372
-1.14704
-0.911506
-0.593748
-1.31673
-1.55225
-1.67017
-1.69422
-1.64639
-1.52313
-1.34849
-1.15942
-0.948927
-0.828146
-0.79831
-0.83691
-0.829305
-0.968798
-1.02789
-1.04108
-1.05237
-0.894147
-0.666436
-0.503463
-1.02303
-1.21186
-1.21375
-1.29708
-1.25683
-1.2322
-0.997417
-0.864941
-0.747635
-0.694589
-0.56873
-0.674247
-0.755678
-0.716652
-0.790163
-0.799232
-0.77611
-0.648517
-0.573256
-0.324734
-0.753316
-0.844694
-0.907574
-0.933693
-0.917714
-0.783507
-0.738256
-0.642324
-0.526961
-0.514603
-0.455763
-0.369723
-0.463252
-0.513113
-0.554213
-0.586368
-0.568196
-0.478778
-0.393019
-0.277914
-0.443685
-0.572492
-0.489203
-0.5183
-0.504327
-0.569164
-0.437627
-0.391836
-0.348705
-0.292674
-0.322324
-0.275715
-0.218666
-0.351213
-0.333457
-0.378504
-0.268502
-0.358586
-0.222009
-0.16895
-0.0742483
-0.10407
-0.0775508
-0.181843
-0.171828
-0.192348
-0.157756
-0.0696534
-0.0807212
-0.100753
-0.0589077
-0.0900818
-0.0635107
-0.0994064
-0.235999
-0.117113
-0.107613
-0.0769221
-0.00636342
-0.014889
-2.46059
-2.9085
-3.30095
-3.34325
-3.43188
-3.22553
-3.04168
-2.75591
-2.57877
-2.39181
-2.21252
-2.26743
-2.3438
-2.4347
-2.41172
-2.39982
-2.2151
-2.00267
-1.57186
-1.10402
-2.15141
-2.53706
-2.77736
-2.82619
-2.83285
-2.83177
-2.59987
-2.31521
-2.16887
-2.11729
-1.9003
-1.95078
-1.97444
-1.98893
-2.09924
-2.07263
-1.98327
-1.68767
-1.36143
-0.968966
-1.81539
-2.08481
-2.28916
-2.3247
-2.41769
-2.27528
-2.2492
-2.04339
-1.80839
-1.65226
-1.56488
-1.6054
-1.6948
-1.74907
-1.73758
-1.74041
-1.6483
-1.39073
-1.11226
-0.76966
-1.58902
-1.70802
-1.88114
-1.98804
-1.96485
-1.92068
-1.72034
-1.65004
-1.43515
-1.36813
-1.26722
-1.30644
-1.32389
-1.35804
-1.31896
-1.40243
-1.28276
-1.12153
-0.843927
-0.661433
-1.10529
-1.28834
-1.44588
-1.49176
-1.56766
-1.48643
-1.38494
-1.22381
-1.14399
-1.01873
-1.01438
-0.961342
-1.06866
-1.04867
-1.10497
-1.07793
-1.01788
-0.882773
-0.642186
-0.520152
-0.824072
-0.952153
-1.07648
-1.07256
-1.15368
-1.00148
-0.933346
-0.900332
-0.751149
-0.716437
-0.676676
-0.652321
-0.633421
-0.745415
-0.751967
-0.761675
-0.712974
-0.631488
-0.459269
-0.365491
-0.447746
-0.570434
-0.579683
-0.618871
-0.578357
-0.567225
-0.573256
-0.492058
-0.505886
-0.436552
-0.487862
-0.472084
-0.39714
-0.438503
-0.458882
-0.392105
-0.326752
-0.374357
-0.315936
-0.22246
-0.120966
-0.140151
-0.181805
-0.199905
-0.20538
-0.151216
-0.207684
-0.115371
-0.156294
-0.156397
-0.210048
-0.177284
-0.141367
-0.157929
-0.142806
-0.196292
-0.0985873
-0.0842148
-0.0879577
0.00217265
-2.56765
-3.00985
-3.41372
-3.65017
-3.68228
-3.64719
-3.47121
-3.35812
-3.14548
-2.93442
-2.84575
-2.87498
-2.87091
-2.8421
-2.85421
-2.72263
-2.56569
-2.15591
-1.66723
-1.10506
-2.20156
-2.57652
-2.89135
-3.14105
-3.15705
-3.06981
-3.05852
-2.89576
-2.67374
-2.50733
-2.43744
-2.4005
-2.39038
-2.3908
-2.42792
-2.34657
-2.16222
-1.82656
-1.41988
-1.01339
-1.81377
-2.15287
-2.37778
-2.5525
-2.66664
-2.5074
-2.51659
-2.33888
-2.20343
-2.11634
-2.03943
-1.99879
-2.04377
-2.04286
-2.01566
-1.94355
-1.86728
-1.6103
-1.21571
-0.821203
-1.51995
-1.75351
-1.92852
-2.09115
-2.16206
-2.06433
-2.00524
-1.94442
-1.80003
-1.67457
-1.68206
-1.65764
-1.71704
-1.63892
-1.68644
-1.58929
-1.45843
-1.30245
-0.915491
-0.641594
-1.16785
-1.26705
-1.48641
-1.6241
-1.64641
-1.58079
-1.57275
-1.51347
-1.41325
-1.316
-1.2833
-1.23558
-1.25786
-1.2375
-1.25177
-1.26359
-1.10942
-0.954529
-0.71245
-0.531384
-0.827336
-0.954614
-1.03373
-1.19313
-1.09333
-1.13982
-1.13265
-1.07261
-1.05367
-0.920455
-0.853945
-0.922193
-0.961625
-0.854616
-0.84559
-0.830272
-0.791771
-0.658276
-0.524101
-0.391113
-0.569112
-0.599198
-0.613883
-0.699165
-0.669842
-0.645531
-0.647205
-0.628545
-0.545105
-0.601584
-0.579688
-0.512547
-0.48881
-0.582223
-0.531466
-0.497267
-0.457773
-0.37393
-0.327283
-0.190744
-0.164442
-0.171612
-0.233297
-0.257696
-0.265944
-0.269991
-0.225627
-0.291832
-0.146607
-0.178728
-0.162974
-0.198637
-0.225602
-0.200272
-0.178502
-0.161582
-0.11762
-0.0816317
-0.129696
-0.0477264
-2.38641
-2.89665
-3.29582
-3.60213
-3.82409
-3.8199
-3.73715
-3.62454
-3.53299
-3.28414
-3.22757
-3.18884
-3.14027
-3.09786
-3.04284
-2.7794
-2.52347
-2.06942
-1.56835
-1.00292
-2.00551
-2.50236
-2.86828
-3.07816
-3.14774
-3.26039
-3.22058
-3.08918
-2.95027
-2.88479
-2.81176
-2.66723
-2.66919
-2.65875
-2.67854
-2.46523
-2.17711
-1.78154
-1.29646
-0.813184
-1.6657
-2.0008
-2.35142
-2.58072
-2.69971
-2.71714
-2.67189
-2.58551
-2.44766
-2.36455
-2.33926
-2.3419
-2.26203
-2.23383
-2.1796
-2.04363
-1.87386
-1.47705
-1.11852
-0.71942
-1.33859
-1.70137
-1.90178
-2.08211
-2.1764
-2.1876
-2.21021
-2.16378
-2.01524
-1.95811
-1.89872
-1.82967
-1.84637
-1.78047
-1.77536
-1.65657
-1.39421
-1.21996
-0.879532
-0.579214
-1.11191
-1.25346
-1.47551
-1.60668
-1.6641
-1.71531
-1.68846
-1.66664
-1.56422
-1.48864
-1.4297
-1.35019
-1.40196
-1.42231
-1.37847
-1.25492
-1.10633
-0.959294
-0.677625
-0.442682
-0.795181
-0.881494
-1.05577
-1.13031
-1.17869
-1.13271
-1.20704
-1.18492
-1.0672
-1.05052
-1.00437
-1.05815
-1.0236
-0.975567
-0.981602
-0.946899
-0.777804
-0.637375
-0.488578
-0.295308
-0.432
-0.641034
-0.631015
-0.645139
-0.760118
-0.660423
-0.787935
-0.717663
-0.640397
-0.643601
-0.611157
-0.536733
-0.57895
-0.60916
-0.556434
-0.552151
-0.495797
-0.438001
-0.258671
-0.175297
-0.194298
-0.149286
-0.168055
-0.277479
-0.250767
-0.322951
-0.222583
-0.191698
-0.249943
-0.250092
-0.215725
-0.149166
-0.189729
-0.244184
-0.185659
-0.182336
-0.16812
-0.0747788
-0.112655
-0.081353
-1.9584
-2.51863
-2.98257
-3.40014
-3.59467
-3.81133
-3.70103
-3.67117
-3.57937
-3.47101
-3.43292
-3.35423
-3.24051
-3.10638
-2.94423
-2.75405
-2.31317
-1.83624
-1.20569
-0.587441
-1.63814
-2.11907
-2.53658
-2.93391
-3.1294
-3.19051
-3.21094
-3.1774
-3.06678
-2.98978
-2.97189
-2.85608
-2.73659
-2.70278
-2.52064
-2.27591
-2.01409
-1.52849
-1.03006
-0.456769
-1.3097
-1.77358
-2.13409
-2.38967
-2.57035
-2.69231
-2.72834
-2.66732
-2.57231
-2.46551
-2.38512
-2.36883
-2.3397
-2.24988
-2.0637
-1.95456
-1.63278
-1.28011
-0.874224
-0.35013
-1.14773
-1.41761
-1.66506
-1.99856
-2.14514
-2.21137
-2.15851
-2.12825
-2.03463
-2.00047
-1.91554
-1.89368
-1.82799
-1.80683
-1.70582
-1.57548
-1.35676
-1.01604
-0.716311
-0.363684
-0.881296
-1.08786
-1.33598
-1.51352
-1.60645
-1.69058
-1.6479
-1.64084
-1.6729
-1.53785
-1.47991
-1.39492
-1.39805
-1.48287
-1.29186
-1.24787
-1.02371
-0.838195
-0.399586
-0.25104
-0.622538
-0.799694
-0.969658
-1.00716
-1.11213
-1.20863
-1.19735
-1.18411
-1.08175
-1.09291
-1.05627
-1.08205
-1.01505
-1.03827
-0.961585
-0.8449
-0.658257
-0.536418
-0.400663
-0.182674
-0.378326
-0.475507
-0.56525
-0.710109
-0.720986
-0.729278
-0.696796
-0.717147
-0.660072
-0.655194
-0.700199
-0.59591
-0.555147
-0.566414
-0.630089
-0.495282
-0.41543
-0.42016
-0.211526
-0.0657654
-0.089183
-0.196829
-0.197746
-0.231158
-0.192954
-0.254432
-0.194535
-0.310808
-0.238732
-0.196562
-0.252467
-0.193142
-0.195806
-0.195488
-0.177154
-0.213392
-0.179923
-0.108075
-0.0491852
-0.0158379
-1.23791
-1.89253
-2.44931
-2.93025
-3.29841
-3.42307
-3.53436
-3.4501
-3.39214
-3.31409
-3.22804
-3.1692
-3.11862
-2.91532
-2.70774
-2.30276
-1.88324
-1.28597
-0.59938
0.0834991
-0.988478
-1.4939
-2.11487
-2.45266
-2.76114
-2.89685
-2.92711
-2.99443
-2.97803
-2.94934
-2.81326
-2.70914
-2.53854
-2.51594
-2.22399
-2.01034
-1.67888
-1.11237
-0.393714
0.160219
-0.906479
-1.30239
-1.76025
-2.0798
-2.29144
-2.37665
-2.43333
-2.43034
-2.46649
-2.39662
-2.28372
-2.25623
-2.15735
-2.01876
-1.86138
-1.67686
-1.32764
-0.917899
-0.400469
0.00607119
-0.679964
-1.05749
-1.35664
-1.67815
-1.9152
-1.95803
-2.06079
-2.07513
-1.99003
-1.9461
-1.88729
-1.73883
-1.72601
-1.64305
-1.54074
-1.36428
-1.05695
-0.718478
-0.353267
0.0839521
-0.522143
-0.822955
-1.00542
-1.27411
-1.45444
-1.51595
-1.52118
-1.53639
-1.47469
-1.48718
-1.48001
-1.43203
-1.32687
-1.21848
-1.17596
-0.994349
-0.819932
-0.533868
-0.268724
0.0423906
-0.383992
-0.519565
-0.760282
-0.962074
-1.04583
-1.09716
-1.10379
-1.0666
-1.07902
-1.03701
-0.993627
-0.936854
-0.905644
-0.945301
-0.850115
-0.703988
-0.568595
-0.37066
-0.138743
0.0264802
-0.245437
-0.292345
-0.458318
-0.594595
-0.578211
-0.599504
-0.624829
-0.647279
-0.617985
-0.632066
-0.607767
-0.575954
-0.576355
-0.5119
-0.501809
-0.451611
-0.376218
-0.20285
-0.158576
0.00952155
-0.00936649
-0.0766215
-0.117207
-0.18869
-0.130838
-0.19783
-0.231687
-0.234149
-0.202614
-0.223563
-0.250029
-0.225568
-0.19802
-0.124837
-0.205494
-0.180317
-0.0107782
-0.0260266
-0.0239743
-0.053237
-0.191253
-0.965007
-1.63036
-2.227
-2.55899
-2.75782
-2.95942
-2.97517
-3.02401
-2.97362
-2.83099
-2.79429
-2.53157
-2.47146
-2.14191
-1.75149
-1.16659
-0.497644
0.28128
1.0139
-0.273556
-0.791578
-1.39697
-1.81392
-2.12742
-2.34149
-2.49076
-2.50273
-2.56373
-2.4955
-2.3995
-2.34522
-2.15856
-2.01749
-1.81658
-1.49884
-1.04901
-0.304924
0.209102
0.897515
-0.206172
-0.580253
-1.17281
-1.50711
-1.79382
-2.0242
-2.09056
-2.15475
-2.10708
-2.11352
-2.03727
-1.92448
-1.87526
-1.72523
-1.44122
-1.1949
-0.790667
-0.351077
0.189114
0.738883
-0.142481
-0.544337
-0.945964
-1.218
-1.4516
-1.64671
-1.67059
-1.75185
-1.68874
-1.7376
-1.56075
-1.52534
-1.50749
-1.35112
-1.16911
-0.927075
-0.629072
-0.207206
0.221389
0.59198
-0.0547405
-0.45561
-0.691878
-0.942344
-1.13307
-1.23795
-1.27672
-1.3273
-1.29879
-1.30534
-1.29756
-1.20374
-1.10376
-1.01888
-0.906532
-0.707053
-0.473638
-0.117358
0.169915
0.442937
-0.122819
-0.231785
-0.559624
-0.657533
-0.813997
-0.883291
-0.91204
-1.00081
-0.929944
-0.887056
-0.863501
-0.803687
-0.758097
-0.78324
-0.661231
-0.510299
-0.354259
-0.123194
0.103508
0.392588
0.00328619
-0.14838
-0.267636
-0.414338
-0.491514
-0.517152
-0.600752
-0.62106
-0.544296
-0.567165
-0.559504
-0.462127
-0.464922
-0.506836
-0.396793
-0.280373
-0.275799
-0.0229027
0.0707244
0.227133
-0.0219435
-0.075254
-0.154573
-0.190456
-0.183673
-0.202897
-0.182825
-0.218411
-0.226483
-0.16074
-0.161647
-0.232026
-0.17258
-0.0879117
-0.0862114
-0.159098
-0.0483837
0.00853979
0.0123978
0.00747217
0.946625
0.224009
-0.499809
-1.18428
-1.64098
-1.91378
-2.14909
-2.26088
-2.34595
-2.18757
-2.14077
-2.00097
-1.79633
-1.53085
-1.24662
-0.786953
-0.139006
0.507323
1.34946
2.13523
0.786777
0.26641
-0.427067
-0.948377
-1.40114
-1.63031
-1.80234
-1.87415
-1.95115
-1.91832
-1.81866
-1.69601
-1.50701
-1.32092
-1.04223
-0.634966
-0.111582
0.488901
1.23913
1.85038
0.709975
0.195172
-0.382401
-0.786321
-1.10923
-1.37743
-1.45137
-1.56781
-1.59094
-1.55566
-1.47068
-1.38332
-1.25904
-1.00672
-0.883197
-0.484258
-0.135276
0.441913
1.04432
1.59331
0.632626
0.18969
-0.288481
-0.664763
-0.852621
-1.03573
-1.2212
-1.30884
-1.27627
-1.29928
-1.17106
-1.13983
-1.01613
-0.94627
-0.660719
-0.381502
-0.000719568
0.383054
0.793322
1.28804
0.453503
0.0773396
-0.11443
-0.476003
-0.64962
-0.751612
-0.991829
-0.910327
-0.972692
-0.973922
-0.873869
-0.937556
-0.755854
-0.623641
-0.532512
-0.296046
0.0157513
0.321034
0.684281
1.01524
0.280807
0.17758
-0.114405
-0.281809
-0.552741
-0.610658
-0.656854
-0.700098
-0.718638
-0.667337
-0.629402
-0.570424
-0.545723
-0.481482
-0.410169
-0.192104
0.0136149
0.256422
0.489553
0.758715
0.246438
0.102665
-0.0860065
-0.218672
-0.264253
-0.364398
-0.408052
-0.417766
-0.413281
-0.470207
-0.450843
-0.328799
-0.345532
-0.302945
-0.226485
-0.115582
0.0299228
0.114145
0.335415
0.419717
0.0809053
0.0272928
-0.0547323
-0.0923558
-0.132885
-0.116466
-0.129533
-0.12353
-0.09923
-0.102539
-0.102907
-0.104326
-0.135116
-0.102834
-0.0708545
-0.0530304
-0.0564798
0.036743
0.206529
0.104447
2.40701
1.61234
0.792691
0.139005
-0.471868
-0.788555
-1.06637
-1.2399
-1.26348
-1.17073
-1.19031
-0.992714
-0.791522
-0.480583
-0.0720489
0.394639
1.10342
1.8639
2.74632
3.60941
2.10579
1.47155
0.679633
0.188794
-0.299353
-0.603584
-0.87517
-1.00917
-1.04013
-1.03347
-0.975464
-0.848471
-0.673426
-0.353604
0.0228648
0.412585
1.04293
1.61443
2.4927
3.14681
1.76696
1.26789
0.659
0.218676
-0.240768
-0.525955
-0.673258
-0.71037
-0.803829
-0.850017
-0.763529
-0.613764
-0.506569
-0.300068
-0.0219554
0.375019
0.884102
1.40214
2.01251
2.59824
1.44541
1.04149
0.580953
0.209463
-0.152698
-0.358111
-0.538472
-0.597524
-0.64996
-0.643568
-0.597301
-0.521189
-0.469781
-0.242066
0.0592475
0.260657
0.662808
1.20907
1.72295
2.13117
1.16927
0.79542
0.494897
0.109508
-0.0300157
-0.297224
-0.463178
-0.503819
-0.460767
-0.451423
-0.451914
-0.339804
-0.27391
-0.149319
0.0700566
0.266895
0.571264
0.957759
1.37832
1.68357
0.842475
0.549101
0.267994
0.114412
-0.0939758
-0.155674
-0.282091
-0.267711
-0.396745
-0.349686
-0.317447
-0.184832
-0.222969
-0.0611955
0.0569178
0.155431
0.384646
0.642154
0.925099
1.20797
0.530555
0.281754
0.213312
0.126649
-0.0179982
-0.091104
-0.141482
-0.21556
-0.175175
-0.173911
-0.230438
-0.178079
-0.122546
-0.0274048
0.0529244
0.122523
0.216442
0.391735
0.519312
0.806789
0.109627
0.0791982
0.0777006
-0.00525912
-0.0221044
-0.0301476
-0.108558
-0.0127159
-0.0623188
-0.0596285
-0.0269971
-0.0797697
-0.0240544
-0.00717118
0.0623017
0.0497696
0.105251
0.119751
0.17738
0.330285
4.18495
3.28055
2.47447
1.76773
1.15049
0.665058
0.432566
0.174576
0.0364213
0.0243251
0.158784
0.309371
0.514243
0.852259
1.3113
1.94094
2.63975
3.50078
4.45885
5.2641
3.54584
2.93413
2.17731
1.48623
1.0324
0.53274
0.417534
0.23857
0.138898
0.132897
0.170609
0.323762
0.573543
0.81111
1.18515
1.67449
2.34604
2.99664
3.88324
4.56404
3.05796
2.47774
1.88233
1.35125
0.930512
0.487482
0.385558
0.160988
0.0372043
0.14746
0.135846
0.253088
0.470533
0.736862
1.0618
1.44147
1.94182
2.59205
3.23333
3.89591
2.43733
2.04261
1.60488
1.10735
0.738664
0.512327
0.345903
0.229493
0.122021
0.165213
0.16321
0.334589
0.479013
0.583016
0.833602
1.20349
1.70774
2.11073
2.72406
3.14155
1.98994
1.60261
1.17934
0.86447
0.556169
0.371465
0.265236
0.0993739
0.17591
0.135021
0.116987
0.230994
0.333577
0.550993
0.711102
0.978524
1.31765
1.70046
2.05058
2.45035
1.43433
1.17905
0.82253
0.637165
0.458926
0.32729
0.221
0.0860232
0.0312761
0.157992
0.11756
0.100563
0.314111
0.324319
0.490194
0.731203
0.915555
1.21066
1.54078
1.77011
0.833807
0.706428
0.517952
0.337587
0.243836
0.176128
0.118213
0.0777041
0.0666622
0.108947
0.124768
0.205593
0.157558
0.20613
0.391857
0.40857
0.550498
0.739975
0.898691
1.08581
0.303337
0.154073
0.237313
0.200765
0.0783515
-0.0213364
0.0992676
0.0673679
0.0458147
-0.0474176
0.055179
-0.00648079
0.0520103
0.11109
0.139846
0.114519
0.0793017
0.318096
0.298449
0.346117
6.1228
5.26375
4.36698
3.61995
2.90047
2.48021
2.10272
1.82264
1.7322
1.64417
1.76504
1.88807
2.22125
2.59529
3.06353
3.5138
4.39761
5.28125
6.32188
7.27405
5.3257
4.56993
3.79423
3.15997
2.6057
2.14192
1.7387
1.5705
1.50286
1.52721
1.54881
1.63364
1.93548
2.23092
2.68016
3.17287
3.87411
4.63831
5.48425
6.25855
4.53532
3.94944
3.2525
2.71523
2.20313
1.82989
1.56466
1.42562
1.37836
1.30634
1.37664
1.49434
1.61495
2.00661
2.28554
2.75158
3.32675
3.93624
4.61969
5.29994
3.717
3.23692
2.70746
2.27437
1.84614
1.55991
1.33478
1.16822
1.09207
1.01512
1.19303
1.21805
1.38091
1.61866
1.83044
2.25246
2.74851
3.34317
3.84587
4.32257
2.95916
2.52673
2.11457
1.85036
1.44289
1.1865
1.07255
0.93279
0.851162
0.901696
0.954802
1.00842
1.07212
1.20176
1.44981
1.78731
2.12601
2.60009
2.97099
3.3949
2.07793
1.83829
1.49797
1.23319
1.04567
0.860165
0.736562
0.703603
0.578135
0.643931
0.682327
0.636263
0.767326
0.927815
1.04242
1.27787
1.54524
1.79016
2.13496
2.4444
1.20347
1.15676
0.933359
0.802552
0.624962
0.558779
0.420407
0.438314
0.374093
0.358002
0.433785
0.485318
0.436994
0.547765
0.668187
0.766979
0.943619
1.05072
1.31464
1.47239
0.430011
0.329136
0.303862
0.194569
0.21571
0.136322
0.130111
0.0997099
0.151642
0.129279
0.128487
0.148241
0.136854
0.280216
0.160977
0.240224
0.381207
0.375131
0.488847
0.573671
8.37784
7.51025
6.45314
5.70997
4.92776
4.40045
4.06095
3.70793
3.62337
3.62163
3.55042
3.73797
4.09313
4.50532
5.02604
5.70005
6.51831
7.42696
8.42049
9.47046
7.25487
6.48804
5.65543
4.9091
4.33443
3.80083
3.53071
3.22666
3.14208
3.13311
3.12308
3.31043
3.50184
3.97584
4.43364
4.9802
5.66351
6.50398
7.32702
8.18749
6.12212
5.51757
4.79167
4.11176
3.69159
3.30241
3.03123
2.80119
2.74775
2.69427
2.73456
2.78187
3.04596
3.38642
3.73986
4.19553
4.86061
5.54637
6.24372
6.89504
5.00209
4.51452
3.9752
3.48653
3.08046
2.70297
2.44367
2.36066
2.23686
2.25514
2.17405
2.31998
2.5493
2.78564
3.12327
3.44023
3.91509
4.43263
5.07667
5.61837
3.88323
3.48103
3.09686
2.69512
2.38305
2.09426
1.95864
1.82029
1.71026
1.64848
1.75047
1.81697
2.00595
2.18735
2.41365
2.67679
3.14767
3.56674
3.97144
4.4162
2.75946
2.54954
2.20617
1.94116
1.68031
1.52754
1.46613
1.31389
1.2636
1.32158
1.24568
1.25446
1.40285
1.49569
1.75107
1.92057
2.14585
2.4991
2.86789
3.2155
1.67064
1.54896
1.30392
1.18286
0.976062
0.951379
0.766855
0.847502
0.753027
0.704339
0.684235
0.752594
0.859254
0.964042
1.03039
1.17852
1.30142
1.4927
1.69703
1.88353
0.582599
0.517575
0.388996
0.404118
0.330617
0.303638
0.23346
0.268325
0.228605
0.251713
0.227231
0.283181
0.287172
0.276264
0.326493
0.406543
0.438845
0.533985
0.524204
0.593155
10.7801
9.81756
8.84446
8.00636
7.18172
6.56534
6.1889
5.89312
5.67032
5.64478
5.66561
5.89482
6.24275
6.5969
7.15519
7.90767
8.75979
9.74555
10.7938
11.7673
9.32555
8.58382
7.63177
6.93804
6.21084
5.77874
5.39792
5.11806
4.90202
4.9061
4.9279
5.10877
5.41763
5.77159
6.16644
6.77092
7.58877
8.42207
9.41688
10.1758
7.88788
7.19492
6.4654
5.77635
5.27005
4.91201
4.53257
4.32987
4.16471
4.15393
4.21133
4.38578
4.64551
4.88339
5.31233
5.79898
6.45153
7.12257
7.83561
8.57899
6.38205
5.97989
5.29024
4.85628
4.33555
3.98756
3.75312
3.5498
3.51572
3.48381
3.44639
3.55966
3.76171
3.95729
4.36399
4.75492
5.30526
5.87268
6.51645
7.00091
4.99027
4.56433
4.18769
3.70572
3.37757
3.0222
2.90978
2.80191
2.66299
2.63015
2.72332
2.78019
2.93714
3.09546
3.40948
3.68634
4.15626
4.55887
5.02987
5.43433
3.59358
3.23738
2.96694
2.68716
2.38752
2.18942
2.09824
1.92274
1.94281
1.89118
1.91119
1.94401
2.11295
2.25479
2.37521
2.62003
2.9183
3.2292
3.6112
3.91238
2.11351
1.92011
1.70157
1.6118
1.49327
1.31315
1.27289
1.16189
1.16104
1.15714
1.13988
1.18107
1.26252
1.34699
1.52487
1.61377
1.71181
1.91835
2.22375
2.34024
0.694007
0.628906
0.54566
0.546216
0.491962
0.449291
0.417847
0.416732
0.356378
0.359841
0.436695
0.389525
0.463593
0.403468
0.502135
0.512831
0.581093
0.651857
0.719956
0.769821
13.2304
12.2511
11.2322
10.3698
9.41856
8.86766
8.40469
8.03815
7.84779
7.7782
7.87366
8.03592
8.37402
8.89408
9.4516
10.1549
11.0658
11.982
13.1361
14.1639
11.3876
10.536
9.59178
8.85225
8.13619
7.62827
7.2579
6.95386
6.83887
6.73072
6.75418
6.95763
7.20313
7.6796
8.13506
8.80978
9.51101
10.3153
11.3708
12.2627
9.51108
8.83999
8.18504
7.52092
6.96858
6.5112
6.14963
5.88706
5.65977
5.71775
5.66679
5.90318
6.10286
6.46335
6.8623
7.41624
8.00726
8.69687
9.5691
10.2749
7.83072
7.21568
6.68784
6.11227
5.59491
5.2601
4.99313
4.75395
4.65272
4.66263
4.71587
4.812
4.88667
5.2469
5.55196
6.04794
6.57931
7.08715
7.81996
8.42586
6.06869
5.56519
5.1996
4.72752
4.42832
4.09422
3.8832
3.68846
3.66783
3.63927
3.60926
3.74322
3.87272
4.06023
4.36834
4.69169
5.05623
5.50565
6.04184
6.46696
4.33251
3.95191
3.74284
3.36866
3.08612
2.89888
2.77587
2.57558
2.60144
2.58525
2.60503
2.60205
2.74376
2.84054
3.10029
3.3733
3.6466
3.902
4.28718
4.5909
2.54734
2.41398
2.24986
2.07263
1.84485
1.72492
1.6229
1.5107
1.58253
1.53494
1.53542
1.60061
1.68595
1.76006
1.82412
2.02498
2.1602
2.33277
2.53591
2.70897
0.830129
0.81646
0.704943
0.667826
0.54404
0.599134
0.463534
0.601374
0.516758
0.475969
0.500971
0.515873
0.560552
0.575518
0.584207
0.628018
0.742894
0.799995
0.832613
0.917521
15.1334
14.1041
13.0461
12.1462
11.3609
10.7374
10.209
9.86688
9.6285
9.58798
9.6982
9.82447
10.1992
10.6787
11.2246
12.0012
12.9085
13.9493
15.0362
16.0591
12.9114
12.1403
11.294
10.409
9.69303
9.18129
8.72406
8.3563
8.22516
8.29712
8.27657
8.41636
8.62419
9.09369
9.59396
10.2368
11.0078
11.8896
12.8409
13.7839
10.7558
10.1834
9.34751
8.70297
8.15525
7.63641
7.3355
7.01412
6.88697
6.79455
6.91756
7.03202
7.23351
7.61777
8.01058
8.55317
9.21629
9.95746
10.8364
11.5444
8.75333
8.25163
7.57285
7.0537
6.57094
6.207
5.88232
5.66509
5.51358
5.48695
5.56464
5.71362
5.8902
6.10899
6.52823
6.88263
7.50469
8.06874
8.70714
9.32685
6.7716
6.45035
5.89141
5.48148
5.05661
4.78734
4.56744
4.42832
4.33764
4.28685
4.25664
4.4472
4.57963
4.75139
5.04656
5.39324
5.79166
6.23204
6.77067
7.22831
4.79911
4.49671
4.20982
3.84151
3.61805
3.43196
3.23693
3.1871
3.0561
3.04472
3.07305
3.19358
3.1782
3.41672
3.648
3.80985
4.11397
4.4344
4.87846
5.05215
2.88256
2.69795
2.5105
2.33125
2.12965
2.06819
1.88505
1.86217
1.82609
1.80552
1.82936
1.89665
1.94281
2.02781
2.12959
2.22093
2.47511
2.73052
2.8169
3.07398
0.934544
0.928059
0.912634
0.778278
0.81367
0.595226
0.649216
0.636852
0.652532
0.644932
0.600886
0.633681
0.647082
0.632911
0.721645
0.746031
0.820966
0.912846
0.915403
1.06426
)
;

boundaryField
{
    hotSide
    {
        type            calculated;
        value           nonuniform List<scalar> 
400
(
2.29436
1.55121
0.649208
-0.0941256
-0.686945
-1.18223
-1.35331
-1.45091
-1.25826
-0.816695
-0.0803372
0.984691
2.14358
3.62775
5.43238
7.39993
9.68777
12.126
14.6154
16.5609
2.22495
1.41336
0.512747
-0.357968
-1.05515
-1.51294
-1.7583
-1.85233
-1.72996
-1.34069
-0.701051
0.242533
1.4503
2.86023
4.55305