/*--------------------------------*- C++ -*----------------------------------*\
| =========                 |                                                 |
| \\      /  F ield         | OpenFOAM: The Open Source CFD Toolbox           |
|  \\    /   O peration     | Version:  2212                                  |
|   \\  /    A nd           | Website:  www.openfoam.com                      |
|    \\/     M anipulation  |                                                 |
\*---------------------------------------------------------------------------*/
FoamFile
{
    version     2.0;
    format      ascii;
    arch        "LSB;label=32;scalar=64";
    class       volScalarField;
    location    "./ITHACAoutput/true/4.6";
    object      error;
}
// * * * * * * * * * * * * * * * * * * * * * * * * * * * * * * * * * * * * * //

dimensions      [0 0 0 1 0 0 0];

internalField   nonuniform List<scalar> 
3200
(
-3.10841
-4.42937
0.814103
1.91372
2.91335
1.33394
2.02235
3.24855
6.63387
3.81311
3.01846
4.29458
3.37577
4.69901
3.30582
5.9937
1.77545
2.01439
-2.22703
-4.5836
-2.85556
-0.427013
-0.98137
4.56802
1.91085
1.56555
3.85908
3.99364
1.91177
2.94044
3.61633
3.84228
2.75433
4.59389
3.57909
1.99008
0.831621
-1.69756
0.379024
1.23642
-1.93414
-1.38003
2.25008
2.73901
2.6087
3.65555
3.31835
3.50805
2.888
1.81378
1.78192
1.31124
3.26472
3.31554
0.668106
0.174083
0.795837
1.83644
-1.98375
-2.92479
-1.58905
-2.01394
1.67295
-0.0402589
2.50367
1.34011
4.18522
0.835525
2.72839
0.897463
-2.82814
3.841
2.29173
1.26625
3.20714
1.57971
-0.263134
1.73103
-1.45419
-1.90188
-1.78467
-0.779034
-2.14928
1.6129
3.26238
2.06941
1.36108
2.18876
3.04049
1.15066
1.66195
-0.218837
2.82742
1.31462
1.74149
-0.379448
-0.510375
-0.860959
-0.358336
-2.20239
0.0351766
2.19657
-0.398589
3.89364
-0.292787
1.03338
0.736744
0.0963513
2.04545
2.1135
-0.771694
2.26681
1.82376
-1.07779
2.11642
-0.665621
2.55655
1.50959
-1.00579
1.35076
0.29971
0.0238271
0.925296
0.552965
0.0396761
0.241658
0.0969458
-0.886469
0.656464
0.998811
1.62278
0.243964
2.81304
1.24721
1.52766
-0.768744
0.150855
-1.42278
2.07326
1.42251
1.35565
-0.522902
-2.76504
1.61818
-1.86731
-0.197083
-0.748025
-0.134826
-0.369565
-1.15672
0.0695771
0.254318
0.609512
1.26524
0.268907
-1.03194
-0.207001
1.21406
-0.714012
-0.923189
-2.36927
-1.41765
-0.198044
1.89075
2.86614
2.76625
4.48373
1.96758
5.06765
3.30035
2.84591
2.21918
4.62249
2.45965
3.04563
3.83032
1.57258
1.6567
0.870258
-2.75006
-2.56087
0.772995
0.56713
0.266798
0.548742
0.040072
3.16861
0.408873
2.03455
1.16415
0.465052
5.10637
0.76354
3.29876
-0.0781775
2.92151
0.180805
1.10925
-0.0684709
-3.70772
-2.16829
-0.549255
1.72407
0.415396
2.05983
1.47343
2.01916
3.19464
1.4443
1.16758
1.93777
4.70818
1.96352
3.1934
2.94636
4.21474
2.81054
-0.767424
-0.408202
-0.690046
-0.780297
-0.787445
1.61389
-0.937302
1.55414
0.934526
1.25701
3.10781
2.9866
1.96096
3.24789
2.53896
2.5945
2.66059
2.27805
2.09229
0.76936
-0.716148
0.406952
-2.76564
-2.90474
0.816641
-1.59349
2.86379
-0.359675
1.39773
2.18376
2.76975
1.98304
-0.141704
1.41837
1.01003
0.642828
1.95299
0.353784
1.44519
0.809809
-0.640142
-2.92615
-1.67462
-2.83857
-0.0410644
0.801181
-0.326267
-1.46075
-0.0624998
0.0677717
1.73071
2.16999
0.257631
0.0975027
1.02021
1.55118
0.182829
-0.00727868
1.21764
0.671531
-1.29666
-1.5342
-2.68314
0.375858
-0.076996
1.08349
2.58581
0.445344
3.78609
-0.256787
1.95204
2.83911
0.635074
2.23472
-0.0208052
1.9281
0.540542
-0.374464
1.64113
-0.98579
1.30155
-0.364693
0.496938
1.28695
0.6068
-0.36548
1.82661
0.107263
-0.255312
-0.138256
1.11419
0.830119
0.476281
-0.58943
0.0292078
-0.85219
0.69982
-0.763458
-0.682889
0.546685
-1.5866
-0.563237
0.428915
-3.89123
-2.12081
1.12101
0.325332
2.5153
0.876654
3.99733
4.20196
2.00322
2.52218
1.42826
1.98652
0.227514
1.61973
2.76111
3.10839
4.04161
1.78709
-0.420704
-4.4713
-4.39059
-0.492325
-0.682801
0.493841
3.72041
2.92836
2.57654
1.84621
0.48177
1.80858
2.50329
2.85467
2.04592
1.30288
3.17182
-0.0621785
2.06239
-1.3023
0.974202
-3.49477
-1.84685
-0.808822
0.227547
1.79284
1.22776
3.74085
1.59404
0.485224
2.75742
3.1082
0.207922
1.12001
1.1673
0.135063
1.85586
2.28922
1.94978
-0.986151
1.77064
-1.53613
-0.815849
-0.411303
1.12585
-0.135445
1.69595
3.8844
2.93337
1.34336
1.68852
2.51728
1.14025
0.866882
1.75244
1.22769
2.13537
2.23916
0.393153
0.95621
-2.24235
-2.77661
-1.45753
-0.870265
-1.2268
1.48873
1.75729
0.78771
2.22802
1.50723
3.00951
1.28641
1.59767
1.69951
-2.18281
2.46212
0.153885
0.273547
1.69632
-0.795983
-0.79306
-1.8202
-0.630581
0.231998
1.60662
0.917949
1.53142
1.60553
-1.27364
0.321
0.634823
3.15992
-0.20847
2.19794
2.02692
0.477756
2.24171
0.468872
-1.05515
0.101615
-1.46973
-1.28525
0.959651
-1.06215
-1.60114
0.0770114
-0.145955
1.05083
-1.72372
1.01629
-0.1565
-3.08258
0.905443
1.41628
3.52695
0.586371
2.29255
0.538493
0.235003
-2.31259
-2.47327
0.128735
1.31495
0.256796
0.0936268
2.36708
0.663625
-0.484488
0.794025
1.64537
2.40682
-0.00814034
0.449903
-2.1706
-0.437786
-1.15433
2.47775
-0.844674
2.11963
-2.31925
-1.54603
-0.441182
-4.09339
-2.90346
1.12477
1.3224
3.85628
1.95903
1.5235
3.21294
2.8107
1.51057
2.60875
2.62632
1.306
4.2968
0.243135
0.651179
1.4029
1.49777
-1.27983
-2.72859
-2.35861
-0.689875
2.09729
-0.396784
2.28671
0.42778
2.07052
-0.159901
2.02393
0.732164
0.515558
1.1855
0.324395
0.85519
0.409059
5.46533
0.505298
2.44443
0.10785
-0.208194
-0.741842
-1.60955
-0.879731
1.81215
3.22277
3.23636
2.69256
4.41636
2.50921
1.54315
1.62257
-1.06818
1.20999
0.297029
0.266814
2.16743
1.1211
1.41251
1.7816
-1.33876
-2.83105
0.299524
-1.42368
1.21451
0.389601
-1.4788
2.1768
2.47765
1.53452
0.485417
0.966921
-0.550703
-1.19338
2.15436
1.3957
2.72858
-0.844207
1.0066
-0.0178588
0.413493
0.142689
-0.619718
1.54347
3.22065
-0.124545
1.0127
2.17157
-0.386621
-0.659819
1.53067
0.961077
-2.35215
2.37287e-06
2.3333
2.64229
2.01779
2.22748
-1.33488
0.69878
-2.42828
-0.0836898
-1.57947
3.21374
-1.97539
0.434399
1.8464
-0.0955464
-0.427319
-0.0403266
-0.925003
1.48435
1.49732
1.11561
0.329388
-0.148917
1.05019
1.78857
-0.372616
-2.26793
0.00489916
0.753076
0.345431
2.07958
3.09368
-0.842499
0.119481
1.3742
0.548178
1.40557
0.797437
0.621128
0.830383
3.01386
-0.078918
1.35656
0.8832
-2.39037
-0.731363
1.1116
-0.790416
0.227565
-1.06554
-0.938347
-0.800433
-0.296483
0.903869
-1.59096
-1.37532
-0.239453
1.22746
0.279303
0.434166
-0.7035
-0.279343
0.0985297
0.748996
1.02462
-0.914251
-1.38331
-1.11689
-3.62976
-3.28942
0.0870107
0.989894
0.134038
1.59917
1.0509
3.47432
0.975943
2.09445
0.288882
0.972743
0.648714
1.15194
1.05852
-0.51579
0.288563
-0.0214424
-2.91155
-5.36883
-2.98002
-2.63788
0.961717
-0.388815
1.06242
0.702953
3.13589
2.86516
1.03586
3.06015
1.46326
-1.13782
1.72408
1.27303
1.09227
0.0767404
0.670967
-0.189751
-4.30411
-1.48534
-3.44473
-0.241148
0.343871
1.75391
2.09766
1.58059
1.80547
-0.129785
1.29989
-2.62061
-0.169507
1.95278
1.95632
0.201041
1.57092
0.507524
2.88235
0.317282
-0.435745
-4.3355
-0.77548
-2.86412
0.450739
0.685425
1.56598
0.875712
2.84937
1.82645
3.67855
-1.16584
2.43044
0.374072
1.442
-0.535316
1.45619
-0.0551918
0.021466
-0.993504
-1.51896
-2.81628
0.776206
-0.0205667
-1.47012
2.14145
0.887453
1.47785
3.38975
-0.220169
2.11813
0.62883
-0.997013
1.10442
-1.66715
0.0378542
1.14138
2.52482
0.172322
3.29606
-0.0952946
-2.36103
-0.340128
0.847808
1.60855
0.715008
0.89072
0.769226
1.60717
1.85941
0.821056
-0.178275
-0.266773
-0.114025
0.621609
-0.790699
0.182571
0.528674
-0.567841
1.00663
1.27504
-3.34658
-0.676833
-1.8268
0.520051
0.161093
2.60133
2.29203
-0.522931
0.468102
0.449976
0.929656
-0.793617
-0.650471
-0.886979
-0.836257
-0.943828
3.09671
-0.369749
-0.335189
-0.907469
-1.1822
1.25398
2.04676
-0.129058
-0.669624
-0.13777
2.07694
-1.62741
-0.795889
-1.16568
-1.69216
-0.458621
-0.223246
-0.745942
0.333957
-1.5459
0.188948
0.403019
-0.0494393
-2.23987
0.313839
-5.51029
-3.01079
-0.919007
-1.63703
1.54473
0.606766
2.39409
0.42228
1.24758
1.36525
0.00395443
-0.741749
-0.70243
0.143165
-0.119517
-0.632401
-0.150982
0.41718
-1.92344
-2.77849
-4.02937
0.251975
-2.13438
0.0972809
1.03036
-0.0545123
-1.13833
-0.174195
-1.57606
-0.0765241
-0.53099
-0.0380536
0.209731
-0.321803
-0.458151
-0.497037
0.296097
-0.311784
0.0115369
-1.80054
-2.52822
-1.27042
-0.111483
2.20539
0.15259
1.02733
2.15529
1.45041
0.66252
-1.31535
0.0562735
0.73992
0.957765
-3.58616
0.951929
0.145695
-0.111448
-4.1187
-2.12677
-3.20785
-3.47974
-1.32221
0.717149
-0.444569
0.711506
-0.428366
-0.0351437
0.670932
2.48012
0.50502
-0.579805
-1.36066
-1.71806
-0.633572
-1.02137
-0.789738
-1.35982
-0.722407
-1.45007
-4.6065
-1.64954
-1.91978
-1.8519
-0.348313
2.73221
0.94012
1.00395
1.13921
0.933519
-0.217034
-0.260709
0.829508
-0.55483
1.52049
1.07181
-0.141254
-0.180521
-0.956742
-1.6139
-0.565171
-2.29066
-0.990328
-0.501152
1.35657
-0.184574
0.140861
0.0121371
0.0187478
1.05452
1.14431
-0.624731
-0.675695
1.51847
1.43279
0.791624
-1.80964
0.734414
1.15633
1.13054
1.59001
0.385241
1.59638
-2.08205
-2.21087
0.75838
0.339849
-3.31091
0.52654
-1.41046
-0.62821
-1.69
2.32068
1.47068
-0.536107
1.35575
1.79552
1.80397
-0.994265
-3.21215
0.81365
-2.61501
-0.190271
-2.97156
0.610608
1.43628
1.75549
0.730871
-0.317624
-1.04083
1.30428
-0.430642
0.244824
-0.332112
-0.705262
0.189235
-0.187382
-2.70653
1.97272
-0.508944
0.500313
-5.34452
-3.0837
-1.16535
-1.55081
-1.04552
0.118838
-0.448039
-0.896286
-1.99231
-1.03415
-1.67615
0.736847
-0.95587
-2.51694
1.23542
-1.30352
-0.133706
-0.633127
-4.10409
-4.16139
-3.03721
-3.40025
-0.906986
0.0144773
-0.447232
0.712533
1.3685
0.366648
-0.84567
0.552402
-1.30971
-4.00327
-2.5346
-0.066951
-1.53802
-0.446904
-2.02731
0.718067
-1.83908
-2.57897
-3.72225
-2.45409
1.79718
-0.772421
-0.551119
2.12036
1.57991
1.17034
-0.433627
-1.77665
0.136478
-1.60924
-0.00205332
2.54841
0.703244
1.57626
-0.000789529
0.269644
-2.74487
-4.36499
-1.4927
-2.44336
1.15624
1.39327
0.0421072
1.58492
-0.0257605
1.41983
1.29552
1.54906
0.818656
0.0134123
-1.27943
-0.340389
-0.461229
-0.714183
-0.672652
-0.247086
-2.38854
-4.10968
-1.55622
0.313613
0.595151
-1.56637
0.743288
-0.00581946
-0.702234
0.913607
-0.631804
0.164166
0.416772
0.678646
-0.0945579
1.4629
-1.11579
0.321675
2.55281
-0.333478
-0.455227
-2.01594
-0.827044
-0.580317
2.05775
-2.56026
-1.12344
2.57638
0.590665
4.51821
0.272928
0.21751
-0.447494
0.514041
-1.72222
0.551791
-2.02593
0.640917
-1.02709
-1.53321
0.687512
-2.71618
1.30824
-0.407609
0.345488
8.75281e-05
0.694318
-0.596402
-2.26861
0.903913
2.20342
0.591567
2.67138
2.01128
-0.890055
0.233214
-0.781506
0.801547
0.993868
-0.614084
-0.968712
-0.529722
0.84267
0.481532
-0.540408
-2.37272
-0.398895
-1.16998
-0.794685
-0.404726
0.890959
0.306937
0.780004
0.355659
-0.367711
-0.431456
1.3902
-0.818061
1.20733
-1.00109
-0.144064
-0.378512
-4.62275
-0.835339
-3.22516
-1.35637
1.38507
-0.0787419
0.94973
0.385462
0.44893
-1.2705
-0.587733
-1.65291
-2.06909
-1.72253
-1.59215
0.31681
-0.708657
-0.719279
-3.24906
-4.01068
-5.3426
-0.459883
-0.862022
0.0673833
-0.506861
-0.411785
0.778978
-0.0733006
-1.1214
-0.0406626
0.0948774
1.42661
0.132497
-0.314938
-0.190225
-2.46752
0.0161678
-2.45857
-0.602236
-2.92588
-4.43146
-3.88086
-2.67696
0.985387
-0.628489
0.262319
-0.22667
-0.764297
0.410109
-0.881804
-4.72662
-1.34404
0.94692
-1.02399
0.634849
-1.79521
0.596667
-1.41624
0.254222
-0.222227
-3.14159
-2.13715
-0.00518994
-0.608356
0.254153
-0.00887837
0.167205
-0.144338
0.448596
-2.66132
1.08512
-1.05148
0.0585413
0.167137
0.261523
-0.552256
-0.637969
-1.85371
-2.03639
-3.03503
-2.84537
-2.22654
-2.72272
0.00582969
-0.600401
-0.193194
-1.8502
-0.555274
-0.446677
-0.958683
-0.87295
-0.805552
-1.96017
-2.4746
-0.560122
0.251424
0.685346
-0.234787
-0.39382
0.483283
-2.02624
0.86113
1.65394
-0.927619
0.678052
-1.84133
-0.720871
-1.43019
0.0464083
-0.738796
2.0495
0.631456
-1.19934
2.82116
0.337283
0.250228
0.933529
-1.01464
-0.497389
-2.48253
-2.38638
-0.0313582
1.566
1.07283
0.114009
-0.25592
-0.621248
1.87208
1.09446
-2.86455
1.23453
-0.351165
-2.08857
0.786028
0.0607872
-0.380812
-0.954647
-1.41806
1.15789
-3.14897
-0.567505
0.472688
-0.201645
0.59707
-0.613418
0.363946
-2.09158
-2.14701
1.2696
-1.10486
1.95522
0.717441
-0.361657
-0.436574
0.402674
-0.655687
-0.858589
1.31139
-0.628481
-1.60488
-5.34528
-2.74545
-3.28366
-2.81452
-2.17867
-2.00062
-1.23572
-0.747613
-0.454879
-1.82289
-2.58318
-2.9588
-2.93005
-1.3118
-5.23443
-0.9752
-1.11806
-1.7414
-2.59498
-3.36624
-3.08036
-5.4055
1.25068
-0.963544
0.831705
-0.186787
0.917868
0.0571037
-2.13583
-1.23268
-1.69445
-1.38727
-1.08807
0.078832
-3.95509
1.23011
-0.261081
-2.72739
-4.43377
-2.00162
-1.95574
-1.07257
-3.01903
-0.055484
0.201512
0.831622
-0.575648
-1.33187
-1.9646
-1.01001
-3.05254
-2.29509
-4.29706
-0.892623
0.293056
-1.34293
-1.51039
0.149326
-2.65882
-3.23968
-3.42256
-1.36378
-2.41031
1.87096
0.707034
-0.82422
-0.711045
-0.667786
0.572508
0.621934
-1.70173
0.0803918
-0.504867
0.922334
-2.98164
-1.59111
-1.53951
-0.354057
-1.6956
-2.60171
-2.00511
-0.3839
-1.90893
-0.981037
0.552326
-0.920775
-1.81439
0.845508
-1.42106
0.375779
-1.80153
-0.685443
-0.570998
-2.94602
0.859413
-1.46351
0.0880469
-0.143955
-1.95539
-1.29556
-1.43293
0.229715
-0.0380494
-1.51054
-1.15933
-0.634246
-0.761129
0.108937
0.0915055
-0.2898
-0.269056
-1.55709
0.48345
-1.26135
-1.49678
-2.31837
-1.04812
0.0278007
-3.30565
1.14085
-2.2251
-0.175674
0.690291
-0.0971608
0.0698798
-0.522579
0.572605
-1.61094
1.59968
1.07529
-0.375008
-1.46614
-1.83398
-2.55364
0.707661
0.923068
0.879149
-0.0653148
-0.465231
-1.68828
-3.02619
1.33426
1.54355
-0.703156
1.61131
1.04938
-0.705035
0.190967
-0.480661
-0.999025
1.40809
-1.42091
-0.753019
0.394342
-2.64188
2.85637
0.535718
0.254551
1.27038
-1.01039
-6.25781
-3.57928
-3.63197
-0.0619673
-3.71153
-1.77868
-2.67237
-0.594846
-2.72185
-2.76705
-3.50319
-3.47792
-3.24411
0.24076
-0.59639
-0.789338
-3.20474
-0.982159
-3.19828
-6.01522
-2.86612
-0.0623924
-1.41172
-0.222043
-1.2189
-0.180949
-1.73067
-0.136784
-2.09615
0.0725282
-0.295
-1.9228
0.12188
-3.05127
-0.437318
-0.255807
0.0657104
-0.0627108
-0.0207668
-4.53002
-4.4856
-2.3063
-2.44933
0.660783
-1.98459
1.0225
-0.895408
-2.8697
-1.32384
-0.735678
-0.439276
-1.86361
-2.73423
-1.01497
-2.53136
-3.03093
-0.570194
-1.85552
-3.39407
-3.22384
-2.74764
-0.636912
-3.12467
-1.00242
-1.26966
0.248831
-0.799478
-0.264809
-0.990264
-1.73871
-4.98184
-0.071983
-1.10583
-0.393579
2.63924
-0.065835
-1.16701
-0.48846
-2.05507
-2.72045
-1.71627
0.0729976
-0.131183
-1.11733
-0.331482
0.203717
-1.34431
1.35634
-0.147737
-1.86749
-0.0145289
-1.30435
-3.90946
-1.22563
-1.80125
-2.13588
-1.15443
-0.15014
-1.13984
-2.42613
-0.782807
0.967675
-1.67473
-0.216224
0.566058
-0.552464
2.86083
-1.15736
-1.30753
-0.675066
0.331676
-1.12065
-2.45866
1.40455
0.300164
0.509881
-1.70057
-0.734326
-0.50508
-2.04125
-1.74235
0.633324
-0.982914
-0.810125
-0.316393
-0.639711
-0.920066
0.33196
-1.27207
0.0718965
-0.751013
-0.459495
0.151549
1.19723
-0.734098
-0.182149
0.0490198
0.335923
-1.26084
-1.62987
0.28119
1.83278
0.369845
-0.908255
1.0562
0.68875
1.31287
-0.496486
-1.30474
0.0206757
-1.22255
1.87481
1.2363
0.0593671
1.79352
-0.875501
1.635
-0.189905
-0.202297
-0.328478
-4.95206
-3.25972
-1.6962
0.0915513
-1.30667
-2.34115
0.811397
-2.47118
-0.227113
-2.22208
-3.68323
-2.92841
-3.05161
-2.95344
-0.688244
-2.83316
-1.21397
-2.00222
-2.07691
-3.58377
-4.1073
-0.737065
-0.170741
0.379141
-3.10697
0.235761
-1.79057
-0.91202
-1.51423
-0.258461
-0.0516487
-3.44484
-0.300932
0.207518
0.433232
-0.543873
-0.108935
-2.44258
0.519759
-1.62159
-3.03889
-3.9044
-0.904352
1.19764
-1.18195
1.50685
-1.7721
1.03177
-0.60118
-2.69139
-0.175144
-1.79758
0.432612
-1.9714
0.0352477
-1.59797
0.49458
-1.3503
-2.58143
-2.65493
-3.41799
-2.93402
-0.942427
0.405414
0.285211
1.88455
0.699651
-0.334676
0.0546601
0.621142
-1.46693
-2.24374
-2.14046
-1.52485
-1.41832
-1.01274
-2.34293
-1.87369
-3.26512
-0.782887
1.40979
-1.47489
-2.92473
-1.35241
-0.286644
0.253816
-0.338283
0.261002
-1.53232
-0.759462
-2.85979
-2.33666
0.148648
-2.81071
-2.56121
-0.90613
-1.3336
-3.42278
-2.89329
-2.91794
-1.43624
1.79623
-1.62828
-1.14934
0.00583101
-1.1022
-0.860212
-0.895583
-3.22827
-1.79469
-0.564425
-0.568556
0.747775
0.581831
0.0496998
1.71932
-1.26126
-1.92156
-0.754729
-2.33884
-0.351143
-0.312603
0.480531
0.0322412
0.590718
-0.39099
1.07508
-1.71229
0.454644
-0.951398
1.28681
1.03686
-2.56621
-1.88719
1.82782
-2.01818
-0.0320786
0.431188
-0.624258
0.296028
-0.461445
-0.519033
-1.66012
0.0288161
-0.452343
-1.64468
-1.2508
1.35227
-1.54572
0.246096
0.294994
0.994025
-0.576569
0.677626
0.958474
0.200148
0.222976
-0.251354
-0.92417
-1.76563
-2.96881
-2.90036
0.124393
1.15144
-0.845072
-0.978996
-3.27822
-1.08785
-2.57389
-1.68066
-4.8838
-1.29631
-3.68474
-1.14982
-2.25648
-3.55807
0.572533
-0.556755
-2.54675
-4.36964
-5.41309
-3.4796
-0.438086
0.471663
-1.34269
-1.14915
-2.14566
-0.571575
-1.59572
-3.71908
-1.84419
-1.52088
-1.55374
-0.344539
1.12677
-1.35149
-1.48841
-0.983932
-2.68803
-3.04243
-4.31243
-2.09037
0.458011
-1.31325
0.481448
-0.212913
-1.2824
-0.499274
-1.28264
-2.64274
-2.76092
-3.02661
-2.99259
-1.35366
0.756656
0.226128
-0.946645
-1.46047
-1.21918
-1.8979
-2.70535
-1.47548
1.47303
-1.26116
0.595202
2.02355
1.39058
-2.23656
0.214997
-1.66225
-3.50681
-2.51237
-1.40071
0.20047
-2.23803
-3.68167
-1.20758
-2.5068
-2.95691
-3.27093
-3.21052
-2.30603
0.626795
-0.473133
0.304906
1.71512
-0.789077
-0.884786
-1.7794
-1.27498
-1.44612
-1.92753
-1.37014
-0.341358
-0.349645
-2.58097
-0.516478
-1.55166
-2.70951
-2.8046
-1.53421
-0.75191
-0.50394
-0.578623
-2.03111
-0.816193
-0.780069
-1.69099
-1.86971
0.804825
-1.61249
0.21698
-1.09935
-0.996979
-0.517302
-0.956006
0.618474
0.356
-1.74034
-0.530551
-1.03448
-0.807604
-0.376495
-2.77746
1.01794
0.898905
0.341612
-0.39637
-0.547992
-1.21654
-0.111799
1.00171
0.583894
0.451716
-1.99926
-0.0920669
2.53415
2.03737
-0.391016
-0.921707
0.964662
1.67719
-1.49371
0.829684
-3.07447
-0.134301
1.66204
0.656138
-1.70794
-0.940402
0.948695
-0.0614105
-1.15062
-2.8888
-1.31629
0.730855
-0.0172757
-0.346833
-0.0826616
-0.207214
-5.23832
-2.78425
1.25328
0.15292
-1.41845
-2.87705
-0.609322
1.86506
-0.534947
-1.98494
-3.22889
-4.3352
-1.82768
-1.73044
0.227063
-0.902441
-1.11743
-1.44854
-4.31133
-3.17508
-3.66096
0.0770752
-0.93361
0.0115561
-1.44017
0.301444
-0.0802076
0.062986
-1.86963
-0.120216
-0.324573
-0.59297
0.170303
-1.16367
-0.184472
-2.55764
-0.668647
-2.121
0.000759414
-5.66598
-3.23458
-0.269038
-0.963295
-0.388264
-1.08734
-0.393386
-1.85314
0.214182
-0.541017
-1.23835
-2.22013
-0.400948
-3.01793
-0.877845
-3.78909
0.228182
-2.25641
-2.84023
-3.21327
-3.33199
-2.11901
-2.23196
1.32677
-0.640303
-0.903885
-0.599301
1.05032
1.64904
-0.551378
0.141583
0.141864
-3.08458
-1.03981
-0.093978
0.133944
-0.615725
-0.88891
-0.676889
-2.39257
-2.04781
-1.02326
-1.19951
0.166152
-0.782047
-0.531502
-1.30979
-0.84308
-0.75355
0.203899
-0.613707
-3.37802
-0.752812
0.150105
-2.11224
-1.78545
1.15172
-0.87204
1.56073
-3.26255
-1.29634
-1.28597
-2.4834
-3.07413
-0.514719
0.853782
1.01705
1.56001
1.64197
-1.76395
-2.25954
-0.0547614
-3.91099
-0.666696
-2.16781
-1.929
0.386693
1.14086
-0.327079
-2.45975
0.568562
-0.585563
0.0514745
0.707607
0.608773
0.202772
-2.11991
0.162111
-0.338211
0.168656
-1.75096
1.25652
-0.389707
0.20596
-2.32037
0.574039
-1.44035
-1.43237
-0.106258
0.716605
-1.94972
0.505664
-0.362889
-0.394821
-0.911488
0.528242
1.30263
-0.212805
2.82082
-0.0663168
0.00245311
-1.72621
0.794585
0.119218
-1.62951
1.82121
-1.41933
1.16767
1.36106
-1.09715
0.184074
-2.68791
-5.31469
-1.97815
-1.7564
-0.544643
0.309302
1.5499
-2.1719
-0.48228
-0.542086
2.10834
-2.63531
-2.40214
0.362811
-1.37716
0.0316645
-0.196893
1.09265
-0.604116
-4.21985
-4.1964
-1.81772
-0.436655
0.173512
-0.693398
0.709952
2.07259
0.537425
-2.18833
-4.79964
-1.20663
-1.664
-3.92131
1.1028
0.28377
0.128846
-2.21096
-1.51203
-1.63153
-4.2618
-6.17976
-2.45077
-0.228659
-0.994613
-0.541572
-0.488755
0.0484942
0.10476
-1.47759
0.790473
0.00646685
-1.30326
-1.05546
-1.08976
-0.807722
1.02013
-1.0932
-2.38133
-2.49821
-1.36447
-1.00223
-2.31233
-2.26955
-1.7058
-1.59896
0.853157
-0.676039
-0.81333
-0.895185
-1.33445
-0.644989
-1.51045
-2.64133
-0.248657
2.66204
-1.5235
-2.29354
-3.22999
-0.422631
-1.0584
-2.90752
0.184002
1.21643
0.310295
1.55803
-0.567283
-0.257611
-1.04796
0.265059
0.179525
-0.327198
-3.39146
-1.91585
-0.214462
-2.73667
0.84287
0.0386612
-1.30448
-1.13365
-1.93054
1.02767
-0.496206
0.97268
0.529691
-1.57544
-1.71021
-1.79078
0.715442
0.0345102
-1.69517
-2.08397
-1.24083
-0.19454
-2.94487
0.458295
-3.63943
-0.286989
-0.527291
-1.64078
-1.09153
1.66595
-0.607362
0.103729
-0.0770483
2.18868
1.93709
-0.951632
0.725921
0.516596
-1.36435
-2.02435
-0.102438
0.520743
0.26809
0.589643
-0.269137
-0.412483
-1.91242
-0.789347
-0.51053
-0.65665
-0.429991
1.12872
2.04167
-3.03373
-0.628548
1.38984
-0.370652
0.0354061
0.308701
1.67253
1.82989
-0.991219
0.916274
-1.52062
-0.414137
-0.565058
-1.06228
-1.60737
-1.97364
-2.17577
-0.85091
1.19814
0.0367443
-1.96958
-1.34963
-0.703282
0.748312
-0.316524
-0.756078
1.06042
-1.70872
-3.24363
0.11823
-0.191472
-0.932871
-1.53618
0.0997183
-5.30908
-1.06254
-3.6257
-0.631737
-0.285596
-0.245348
2.56085
0.0397112
1.78096
0.092001
-1.15908
-0.130991
-0.549191
-3.2032
-0.213633
-2.44385
-0.321663
2.30021
-0.340301
0.925463
-0.73737
-1.79389
-2.73702
0.817938
-0.60347
-1.0805
-1.71329
1.06337
-0.476491
0.977541
-0.620439
0.680303
0.632864
-1.0975
-0.750521
0.907768
-0.496911
0.682074
-0.402904
0.174121
-2.27076
-3.20944
-1.22599
-0.930517
-2.49776
1.0307
0.993727
-0.155807
-0.991653
1.35253
1.43499
-0.096385
-0.152353
-2.231
-0.676389
1.67905
-1.14811
1.31603
-1.77169
0.644893
-0.0980602
0.13102
-1.05825
-3.09071
-1.71834
-0.275509
1.80165
0.505367
0.236558
-1.01917
0.590423
-2.35317
1.49022
-1.46768
0.0952912
-0.604288
1.04628
-0.185631
-0.6795
-1.45052
-1.45835
-2.64188
0.213376
-1.70085
-2.49017
-0.406399
-0.0940652
-0.908748
0.215823
-0.670536
0.775284
-1.09364
0.6454
-0.504694
-2.24591
-1.1031
-1.20776
0.677119
-0.960489
-1.38424
1.19971
2.19241
0.615373
-0.616863
-0.492361
-1.33167
1.56602
0.955754
0.087295
1.60438
1.08245
-0.918927
-1.16066
-3.20461
-1.90942
0.192261
-0.760023
0.565627
0.468142
-0.383386
-2.0128
1.68822
0.618287
-0.968795
1.16108
-1.12998
0.743134
0.980235
0.153343
-0.244902
-0.158079
0.680494
0.744814
0.464298
1.79936
1.96986
-1.64611
-0.107635
0.708809
-0.808594
1.0597
0.781021
-1.67004
-0.661593
1.48474
1.76892
0.167405
1.99223
1.08857
-0.0507025
-1.31108
1.96128
0.863582
-0.455376
2.2842
-0.289463
-1.91225
0.0497487
-0.606584
-1.82373
-2.90826
-0.721592
0.969573
-1.82378
-1.95873
2.1111
1.2418
2.40423
2.98415
0.578985
0.893374
0.00750883
2.12877
1.36168
0.568922
-0.773783
0.60206
-0.521909
-1.41153
1.84517
-1.06383
-2.06567
-3.65731
-3.17933
-1.28342
2.54123
3.49416
1.11458
-0.360761
1.53825
1.00882
1.70189
1.1161
0.842527
0.236565
-0.505303
3.00827
0.961214
-1.79478
-2.43101
-1.63958
-2.01579
-1.19714
-0.742847
1.10317
2.20222
0.884022
1.29856
2.51129
1.7179
-0.15428
1.7858
1.52993
1.02831
0.114872
1.11114
-1.15356
2.84237
0.0431302
0.0655784
2.36371
-2.94259
-1.37099
0.0129878
0.332433
1.9933
0.733807
4.10497
1.65424
0.324422
0.509862
0.831498
-0.612847
0.766246
0.493773
0.0393856
-1.0614
-1.21378
-0.270966
-0.816906
0.0218245
-0.785085
-0.325638
-0.0172957
-0.0243817
-1.45031
1.62374
-0.923593
1.00021
2.01338
2.80688
1.89439
1.17492
1.1097
-0.319175
-0.626465
0.417721
1.47145
0.672255
0.619291
-0.0954665
0.346081
0.000621199
-3.24096
-0.918878
0.466577
-0.354823
0.303661
1.04617
-0.920564
0.786471
-0.535949
0.173103
-1.11709
0.460989
0.0511391
0.537434
0.0129331
1.77236
-0.371356
-1.24589
-3.47392
-0.297641
1.41555
0.929115
2.16895
-0.00446999
-3.00108
-0.00407596
-0.626907
0.329039
1.5852
-1.15197
-2.85568
-0.216761
1.61236
2.05424
0.754568
-0.63494
0.109963
1.50572
1.18412
-1.59288
-3.99345
-0.547323
1.68461
0.140549
2.86548
1.88704
1.32986
2.69823
1.66161
2.05006
1.20673
1.86708
0.591795
2.92758
1.61917
0.205289
-2.27113
-0.770766
-0.00116591
-2.0139
-0.121659
1.66494
-0.426783
3.5862
0.162332
5.25963
-0.265862
0.901084
0.237165
0.254965
3.36422
-0.24694
1.05382
-0.0960374
3.05962
-0.241962
-0.220389
0.31391
1.42563
-2.39808
-0.206394
-1.28857
0.566408
0.427329
1.31008
3.62093
3.6212
0.636652
0.60066
1.97495
0.482256
-2.13985
1.08867
0.864382
1.54185
-0.108617
0.478582
-2.60929
-1.53774
-0.695795
0.697335
0.75759
1.43895
2.12341
1.03891
2.60965
-1.03582
2.5799
-0.672196
-0.122957
-1.17048
-0.586226
2.03188
0.531026
2.52251
1.48189
0.81036
0.318613
1.02238
-0.708105
0.624638
-0.224035
1.78206
2.40747
0.125779
2.03197
2.10976
0.837143
1.7286
0.0731132
1.44374
-0.734013
1.38733
1.18321
0.604312
-0.933168
-2.97909
-1.28711
0.417041
0.245546
0.247794
1.24673
1.27595
1.72994
1.29876
-0.419037
1.84655
1.91277
0.656358
-0.125846
1.17759
1.16569
1.48225
-1.18048
1.73515
-0.830154
-0.282477
0.227861
0.960549
-1.8425
1.51033
-0.0518897
-1.04161
0.783492
0.995104
2.04338
1.63343
0.0399612
-0.71888
0.107405
0.47101
-0.552752
0.697061
-0.408818
1.1553
1.03039
0.0203313
-0.918852
0.584496
0.2262
-1.53022
-1.3891
1.36215
-0.0604032
1.1939
-2.28084
0.0422647
0.279299
-2.81655
-0.427234
-0.618956
-0.220423
1.48581
0.308801
-0.576705
-0.882413
0.757891
-1.44575
-2.17349
0.931336
-0.12954
3.13824
4.48828
1.04116
3.45202
2.88669
2.60066
1.89414
2.68787
1.94621
2.24105
0.116623
2.77405
2.89854
2.20759
4.04462
0.996254
0.474815
-1.91098
-1.16221
0.118422
-0.767185
4.38167
0.469604
1.81604
4.53036
0.738032
2.46194
1.74849
-0.0190521
1.2098
2.77371
4.03835
2.62356
1.68142
4.44823
-0.156819
-0.773293
0.277481
0.337897
1.53539
2.05478
1.30293
2.35277
2.3469
1.25079
1.71471
1.9542
0.500538
1.01892
0.980096
0.198538
-0.286102
2.06343
1.81011
0.642626
0.150935
-0.993928
0.0335601
3.24733
0.0635098
1.0765
1.26126
1.48252
2.89293
2.15328
1.30714
-0.583305
2.38268
-0.0401802
1.83462
4.15377
3.26085
3.1766
1.8023
1.71694
1.61216
0.533631
1.05969
1.39871
-1.19515
2.63244
1.85663
1.56929
2.94188
2.21721
1.59049
2.91499
0.64546
0.2338
1.28322
1.50009
1.13888
1.99166
0.422334
2.89976
0.240496
3.38456
-0.629049
1.71537
-0.11403
-0.337483
1.53943
-0.959098
-0.903725
1.70456
1.76384
0.580194
1.42799
1.96948
1.14653
0.0280702
-0.59067
-0.919321
1.40451
2.82635
1.62035
0.382536
-0.896804
-1.81048
1.41783
1.08981
0.472692
-0.260051
1.86461
2.97936
-0.386095
-0.35933
-0.90139
-1.17115
1.02664
0.835115
-0.284953
-0.54084
1.1053
0.453364
1.36173
-0.889739
0.920409
1.86777
0.927
-0.137491
-0.217772
-0.135156
0.717179
1.06612
0.0342236
0.353997
-1.05327
-1.49378
-0.329461
-0.283973
1.52667
0.809522
1.46453
-1.33185
3.04866
-1.0342
-1.06104
-2.10368
4.50357
1.86406
3.5511
4.41377
3.29844
3.7098
3.44794
2.40478
3.27016
4.82604
2.1515
3.63369
5.82025
4.62221
5.25247
2.22021
3.46825
0.843065
1.6732
0.17312
0.331318
1.95838
-0.0559993
1.93384
0.303961
5.06722
0.459026
1.52864
0.274744
0.363797
3.18191
-0.0796724
2.13912
0.509026
3.72803
-0.264307
1.17189
0.342328
-0.77467
3.01723
0.129489
1.19449
4.45232
4.67229
3.45285
3.49706
3.57768
2.95609
3.87256
2.90165
5.81069
2.96614
4.06492
3.94345
2.51405
2.03479
1.89839
-0.678269
2.00469
-1.91072
1.95633
0.446631
2.80222
3.57808
4.96894
4.7661
4.01717
3.21523
3.26943
2.7013
2.99189
0.837878
4.27849
0.953954
0.279982
3.58799
0.25185
0.4565
0.307875
-1.01608
-0.717714
0.672389
-0.749957
2.82183
2.9532
3.04257
3.63278
0.775398
0.990134
1.5912
3.1383
1.97253
1.14825
0.493536
1.66775
0.500392
0.191549
2.70012
0.962565
-1.21787
-0.890687
0.514894
1.41758
0.986153
-0.143179
-0.00460629
1.19635
1.52352
3.37485
0.728017
0.263234
0.979025
-0.762597
0.243041
2.5477
0.98536
0.208823
1.05932
0.409213
-0.416819
2.26407
0.885331
1.00008
2.00459
1.46487
-0.0225564
1.92089
-0.270357
2.0624
0.530374
0.291832
2.78916
1.92235
1.31243
1.37103
1.10703
0.189316
0.318264
-0.807253
-0.362452
0.943777
0.510188
-0.941595
-0.479323
0.0509352
-1.67663
-0.419779
0.761199
-0.299074
-0.914237
0.518533
0.792022
1.68104
0.230885
2.09284
-0.634552
-0.721588
-0.186157
-0.0509607
2.99637
2.53698
3.49216
4.5066
4.14663
5.53572
4.52862
6.5424
5.33034
4.87066
2.85406
6.14648
6.29256
4.86425
5.11853
6.91125
2.23102
2.17387
1.40311
1.65572
-0.822812
4.90276
2.08281
3.22232
2.21434
3.99927
5.40772
3.97277
4.22457
4.06523
3.69546
5.19252
3.45646
6.86882
1.15669
4.92305
4.11139
2.363
1.58252
1.96416
0.820577
-0.273839
3.51999
3.34173
4.32973
5.89303
3.45184
3.82451
5.6612
4.48917
3.30613
0.421037
2.60707
6.35052
3.87806
4.34618
3.4603
4.01091
4.0898
1.13722
-0.951888
0.988691
2.07133
0.396491
3.59167
0.798806
6.63585
1.72203
2.53388
4.58905
4.09463
3.18288
1.4299
4.64307
3.42366
4.41357
3.25863
0.823097
1.63372
2.23681
1.61617
3.57285
2.1561
2.46643
2.03953
3.17425
3.26161
1.6434
0.905465
3.93342
1.08421
1.60327
2.64609
2.3143
2.46957
1.50832
3.02769
1.96804
0.0539607
0.957264
3.31404
0.18864
3.10904
2.69137
2.06857
4.94252
0.489957
1.14513
1.70265
1.15076
1.69356
2.0934
1.22105
0.80221
1.34826
1.82222
0.876827
2.71658
2.09264
1.91372
0.802254
-1.31256
0.317765
2.14336
-0.974928
-1.56238
0.613276
-0.011352
1.34618
1.97591
0.53119
0.307446
2.1403
1.25781
-0.219883
2.83357
2.49847
-1.36161
-0.300214
2.37225
-1.12776
0.85268
-1.14812
-0.119388
-0.550516
-0.464981
-0.00490711
1.38413
2.70135
1.34062
1.6662
1.10442
1.82798
0.42755
1.63311
1.52094
0.47694
1.3042
-2.0385
1.8015
)
;

boundaryField
{
    hotSide
    {
        type            calculated;
        value           nonuniform List<scalar> 
400
(
-2.0412
-1.30112
-2.82118
-3.02037
-2.5526
-4.42767
-4.25497
-3.5246
-4.23669
-5.13675
-3.81631
-1.816
-4.06589
-1.49319
-0.955969
-0.422248
-0.314096
2.24417
-0.753675
4.38671
-3.31113
-0.298878
-1.00093
-1.78176
-2.16506
-1.88273
-1.95069
0.304116
-1.59783
-2.42151
-2.08962
-1.71553
-1.5821
-4.09247
0.394276
0.609578
-2.69319
1.20301
5.87164
3.94388
1.98756
0.975466
2.29469
2.29889
1.26204
0.25766
0.0139556
-2.04191
-2.09486
-2.43569
-0.490278
1.34241
2.48607
-0.727736
2.4692
2.7796
0.774594
4.49055
3.25015
4.91547