/*--------------------------------*- C++ -*----------------------------------*\
| =========                 |                                                 |
| \\      /  F ield         | OpenFOAM: The Open Source CFD Toolbox           |
|  \\    /   O peration     | Version:  2212                                  |
|   \\  /    A nd           | Website:  www.openfoam.com                      |
|    \\/     M anipulation  |                                                 |
\*---------------------------------------------------------------------------*/
FoamFile
{
    version     2.0;
    format      ascii;
    arch        "LSB;label=32;scalar=64";
    class       volScalarField;
    location    "0";
    object      stateMean;
}
// * * * * * * * * * * * * * * * * * * * * * * * * * * * * * * * * * * * * * //

dimensions      [0 0 0 1 0 0 0];

internalField   nonuniform List<scalar> 
3200
(
349.43
351.541
347.306
347.305
347.438
350.128
350.465
350.104
347.35
350.504
351.299
349.689
349.977
347.788
348.156
344.357
347.444
346.106
349.339
350.906
343.018
341.257
342.681
338.083
341.719
343.025
341.619
342.232
344.858
344.118
343.442
342.928
343.472
340.884
341.012
341.64
341.819
343.398
340.451
338.926
335.93
335.931
333.033
333.348
334.306
334.07
335.157
335.598
336.678
337.994
338.026
338.255
335.841
335.159
337.058
336.741
335.291
333.447
336.535
336.921
329.415
330.286
327.197
329.566
327.699
329.526
327.292
331.157
329.64
331.669
335.394
328.527
329.701
330.211
327.659
328.623
329.789
327.139
329.726
329.728
323.437
322.774
324.607
321.355
320.232
321.94
323.123
322.696
322.136
324.179
323.668
325.395
322.058
323.169
322.268
323.873
323.478
323.319
322.353
323.854
315.44
313.521
316.447
312.518
317.081
316.123
316.758
317.685
315.943
315.984
318.87
315.721
315.957
318.573
315.04
317.454
313.855
314.538
316.724
314.124
308.996
309.417
308.714
309.305
310.043
310.062
310.411
311.565
310.148
309.871
309.247
310.56
307.866
309.261
308.776
310.852
309.707
311.062
307.368
307.873
301.76
303.688
305.996
301.686
305.247
303.651
304.27
303.715
303.991
304.8
303.573
303.367
302.97
302.257
303.185
304.412
303.511
302.017
303.879
304.039
348.829
348.661
348.441
347.441
347.586
348.785
348.08
351.451
348.974
351.07
351.524
351.823
348.797
350.104
348.505
346.622
347.759
346.586
346.373
349.21
342.842
340.171
341.24
342.481
343.169
344.629
342.376
345.874
344.786
345.941
346.64
341.715
345.519
342.246
344.747
340.796
342.567
340.698
341.012
343.989
336.265
335.196
333.649
335.754
334.929
336.319
336.513
335.96
338.165
338.68
337.91
334.901
337.191
335.339
334.846
332.774
333.358
336.14
335.055
334.787
328.688
329.138
327.329
330.53
328.709
329.984
330.267
328.925
329.416
330.637
329.35
329.864
329.438
328.863
328.641
328.171
328.824
329.659
327.944
330.674
324.621
321.239
324.108
320.156
323.901
322.653
322.337
322.146
323.22
325.497
323.937
324.193
324.273
322.568
323.697
322.096
322.21
323.155
324.982
323.391
318.36
315.802
315.288
316.776
318.282
317.248
317.453
316.072
315.838
317.858
318.018
316.988
316.252
317.338
317.193
315.603
315.778
317.386
317.295
318.204
308.948
309.544
308.581
307.294
309.659
306.536
310.78
308.741
307.977
310.246
308.646
310.837
308.765
309.982
310.696
308.463
310.866
308.362
309.832
308.827
301.839
302.567
303.604
301.485
303.28
303.715
303.665
302.47
302.795
303.171
304.236
303.596
304.436
302.827
304.223
304.07
302.765
304.826
303.737
302.697
350.628
349.629
347.369
349.234
348.142
350.855
348.725
349.354
352.159
351.96
353.054
352.175
353.328
351.102
348.971
347.549
345.517
346.703
347.929
351.208
344.911
341.665
342.704
342.451
340.175
341.897
343.104
344.556
346.444
345.393
344.699
344.071
344.356
344.378
341.653
343.957
340.883
343.323
340.199
344.015
336.146
335.649
335.326
334.543
335.911
334.183
337.053
338.771
336.941
336.823
339.723
338.578
338.089
338.512
336.068
334.85
334.386
336.54
333.069
335.835
328.889
328.92
327.965
329.864
328.69
327.144
328.686
330.772
330.787
330.15
331.527
331.609
330.363
330.391
328.893
328.147
329.336
328.135
330.751
330.85
323.302
323.049
323.857
321.637
321.879
323.348
322.366
323.473
322.25
324.122
323.81
323.56
327.163
322.132
323.982
323.362
321.43
323.426
322.972
323.664
316.243
315.617
314.564
315.607
315.359
315.64
318.847
317.528
317.414
314.994
318.362
315.851
315.822
317.095
315.004
316.421
317.58
316.069
317.319
316.897
308.419
310.582
311.314
309.849
310.29
309.307
312.279
309.704
310.996
313.987
309.999
309.424
307.193
309.969
308.065
309.606
309.691
312.026
311.993
309.25
301.829
302.934
303.162
300.96
302.736
303.956
302.744
301.948
301.227
303.663
303.205
305.805
304.031
304.692
300.994
304.245
301.207
305.575
304.737
303.585
351.247
350.81
347.74
348.582
347.114
350.051
351.443
350.557
351.543
353.151
352.053
351.728
352.464
348.67
351.767
350.319
348.501
347.367
349.187
349.883
343.24
342.209
340.248
343.641
341.879
344.639
343.823
346.749
345.069
346.627
346.843
345.908
346.265
345.039
344.658
338.701
342.739
339.901
341.411
341.089
335.345
336.742
336.708
334.776
334.145
334.893
336.134
334.998
337.33
338.521
338.441
340.907
338.204
338.53
337.862
335.201
335.467
334.415
333.35
335.942
331.153
328.447
330.739
328.721
330.183
332.674
329.589
329.767
331.057
332.291
331.809
333.143
333.438
329.612
329.799
327.844
330.78
328.308
328.765
327.909
321.894
322.984
321.261
320.066
323.907
323.252
322.537
325.468
326.011
323.962
324.532
327.703
325.081
322.376
321.623
321.764
321.06
324.139
321.665
324.465
315.834
317.56
313.081
318.615
316.56
315.493
317.751
318.348
318.154
319.14
316.731
316.617
316.805
317.326
317.488
315.944
314.851
316.668
318.249
315.745
308.708
309.254
307.708
306.901
311.049
310.295
309.23
310.216
309.473
310.143
310.319
310.049
307.75
310.683
309.057
309.324
312.385
310.519
308.487
310.251
302.944
304.284
304.219
304.15
303.717
302.587
305.145
304.983
303.886
302.44
303.388
303.213
304.312
303.833
303.392
302.672
302.325
304.195
304.601
304.289
351.344
351.733
349.283
349.382
351.263
350.795
352.257
350.6
353.654
352.828
354.633
353.657
353.425
352.156
351.335
351.913
350.083
349.391
351.356
353.083
344.345
344.621
341.82
344.038
343.474
344.696
343.054
343.987
346.296
344.525
346.122
348.47
345.128
344.917
344.307
344.459
342.978
342.972
346.287
342.85
338.457
335.766
335.854
335.177
335.582
336.829
337.273
339.767
338.742
342.877
340.426
338.089
337.681
338.877
336.839
337.172
334.049
335.881
335.961
339.347
329.431
331.932
329.166
329.531
329.263
330.549
329.122
330.602
329.08
334.099
330.503
332.385
330.986
332.506
329.969
330.884
330.195
330.611
330.587
331.472
321.52
322.634
324.509
321.364
323.094
322.966
321.478
325.443
323.362
324.987
326.613
324.376
326.89
324.83
323.303
321.456
323.333
319.743
322.708
324.657
316.275
315.311
314.854
316.08
316.245
316.698
316.162
316.164
317.385
318.481
318.57
318.32
317.401
318.56
317.284
316.607
317.363
315.456
314.884
319.282
310.249
311.533
309.368
309.927
307.691
308.199
311.196
310.357
310.485
310.063
311.787
311.585
311.712
311.509
311.435
307.195
310.458
310.223
310.613
310.754
301.955
301.207
303.444
304.051
303.588
301.44
305.204
304.424
304.831
305.377
304.144
303.888
304.374
303.243
305.063
303.261
302.978
303.364
305.494
302.895
353.929
352.133
350.93
352.607
350.401
352.286
351.363
354.058
353.755
353.913
355.274
355.745
355.182
353.614
353.013
352.578
351.121
349.594
351.045
351.197
346.004
342.318
345.471
344.069
343.981
345.886
347.717
347.378
349.232
347.971
348.425
347.694
346.994
346.901
346.289
345.508
343.87
343.649
342.558
343.776
338.055
337.291
336.778
335.163
337.929
337.748
337.252
338.485
339.654
341.832
340.461
339.577
338.977
342.993
337.823
337.936
337.479
340.786
338.148
338.735
332.556
330.796
329.283
331.019
330.446
332.152
332.276
332.001
330.504
332.642
333.727
334.345
334.39
332.875
332.745
331.948
331.934
330.722
330.924
333.683
324.273
324.848
325.189
324.13
321.505
323.737
324.074
324.274
324.722
326
326.044
324.826
325.968
323.558
323.605
324.378
323.963
324.294
324.542
323.188
318.46
317.374
317.177
315.637
317.503
317.492
317.907
318.14
317.276
317.278
319.047
319.007
316.641
316.486
316.841
319.128
316.26
315.52
315.253
314.579
309.328
308.245
312.098
312.418
309.644
310.251
314.074
310.379
312.42
311.693
312.755
308.689
309.435
311.299
309.235
308.606
308.403
311.01
313.053
308.899
305.871
303.489
306.329
302.81
302.051
301.795
302.877
303.974
304.732
302.405
304.14
303.446
303.988
304.313
303.361
303.674
306.128
301.384
303.808
302.756
354.619
353.03
351.958
353.254
353.671
353.397
354.775
355.898
357.482
356.779
357.421
354.753
355.958
356.844
352.281
353.929
351.837
351.426
354.05
353.435
345.751
346.683
344.92
344.787
346.047
345.658
345.704
347.29
348.924
347.747
349.609
352.081
350.192
347.14
347.909
346.047
346.828
343.295
345.122
345.293
339.873
339.077
335.442
338.676
339.131
337.112
338.245
339.149
341.108
342.638
340.725
342.283
340.321
337.277
338.529
337.004
337.905
336.969
339.368
340.516
331.079
332.409
329.312
329.619
331.522
330.513
332.608
331.566
331.98
331.88
332.61
333.263
334.265
332.922
332.559
332.278
331.685
330.715
332.355
333.696
324.575
322.997
323.105
325.689
323.81
324.973
326.046
324.744
326.515
325.838
325.585
325.204
325.753
323.881
326.083
324.231
321.57
324.033
323.766
325.035
317.278
317.238
314.877
319.797
318.667
315.264
317.518
313.815
318.221
318.361
319.026
317.98
320.055
317.557
319.866
316.903
318.264
318.468
315.97
319.167
308.574
310.413
309.827
310.353
309.843
311.311
313.146
310.107
308.905
310.567
308.488
309.097
311.901
310.644
311.497
309.735
309.359
310.786
310.974
310.412
302.47
302.872
303.95
305.843
303.931
304.762
304.441
304.096
302.832
303.433
302.96
303.367
304.059
304.077
302.202
304.35
302.263
304.411
303.498
303.692
354.904
351.754
354.946
353.934
352.059
354.355
354.08
355.271
355.657
357.612
356.929
357.759
357.725
356.753
355.868
353.127
353.287
352.44
354.168
354.292
348.928
344.585
345.679
345.492
346.815
347.441
346.903
348.296
349.733
348.857
348.721
347.185
348.091
347.997
347.219
348.776
345.543
347.276
344.727
346.511
341.318
341.216
340.595
337.56
339.807
339.526
340.567
341.561
340.716
342.18
346.025
342.47
339.85
341.364
339.153
340.974
337.948
339.334
337.081
337.109
333.329
332.685
331.028
332.144
331.8
332.562
332.836
333.521
333.197
336.448
332.702
334.697
333.318
332.836
332.291
332.606
332.174
332.877
332.584
333.222
326.331
325.99
326.855
324.525
325.534
325.514
327.522
326.517
326.618
327.239
327.153
326.977
327.922
328.147
325.881
324.683
323.846
324.367
324.157
323.003
318.811
316.12
315.589
318.456
317.138
319.934
319.064
319.981
318.654
319.517
316.728
318.069
319.75
315.522
317.756
317.566
316.594
318.258
317.478
319.268
312.468
310.23
308.791
309.455
310.587
311.123
311.638
309.27
310.138
314.143
310.043
311.583
313.231
310.231
310.806
311.082
311.483
311.775
309.041
313.231
303.948
302.946
303.674
302.932
304.2
303.279
305.785
305.882
302.495
304.885
301.825
303.048
304.097
304.13
303.24
304.243
304.388
302.161
304.047
304.985
356.789
354.792
356.086
356.419
356.59
357.183
357.114
357.201
357.321
358.904
359.664
359.825
359.383
357.19
360.416
355.386
354.722
354.543
354.642
354.81
347.671
350.507
344.501
347.411
346.313
348.001
347.498
348.857
351.407
350.691
351.152
350.658
350.002
348.337
351.769
345.915
346.708
348.479
349.535
346.593
339.693
339.233
341.727
339.351
339.684
339.62
341.537
342.714
343.648
342.851
344.894
343.978
345.679
341.854
340.159
341.229
340.806
338.559
340.819
340.977
334.304
332.586
334.079
330.279
331.926
333.919
334.222
334.524
333.529
333.609
335.933
334.022
334.361
332.589
336.077
334.224
333.69
332.023
332.918
333.483
326.031
324.671
326.543
325.989
324.831
326.664
327.881
325.488
327.947
326.25
328.428
327.211
326.905
329.013
324.884
326.847
324.92
324.778
326.242
325.322
318.603
317.125
317.64
319.38
319.296
319.028
319.386
318.707
318.861
319.315
319.294
320.51
318.333
319.886
319.891
320.455
318.917
317.574
320.661
316.029
312.539
310.6
309.882
310.83
310.824
311.571
310.614
312.913
309.784
310.352
311.802
312.85
313.136
313.741
310.34
309.971
309.854
310.637
310.889
312.002
306.483
302.16
302
304.301
302.041
302.654
304.455
303.597
304.297
304.829
302.422
305.237
304.541
303.356
306.345
300.796
303.062
303.289
302.224
304.467
359.026
356.913
357.672
354.849
359.246
358.024
359.555
358.004
360.506
360.747
361.483
361.262
360.653
356.642
356.841
356.323
357.992
355.022
356.532
358.783
348.602
346.277
348.236
347.693
349.337
348.915
351.017
349.878
352.162
350.163
350.531
351.989
349.619
352.337
349.171
348.374
347.405
346.887
346.236
350.266
343.189
341.407
342.063
339.5
342.693
340.206
342.592
344.951
343.68
343.235
342.938
344.22
344.815
342.712
343.76
343.739
340.731
341.47
342.495
341.927
334.419
332.628
335.535
333.859
334.575
333.482
334.912
334.693
335.642
336.508
339.751
334.724
335.534
334.507
331.092
333.371
334.024
332.898
334.046
334.391
326.355
324.812
325.341
326.675
326.237
326.033
327.878
325.423
327.102
328.912
327.06
328.258
330.688
327.76
328.038
328.042
326.712
325.36
326.025
327.065
318.391
316.814
319.688
318.478
317.944
319.299
316.099
320.291
320.567
319.999
318.992
320.38
321.593
317.555
318.447
318
319.963
318.747
318.287
319.649
312.319
310.047
311.802
311.778
311.434
311.9
312.307
311.16
312.839
311.534
312.357
312.026
311.34
310.19
311.994
311.3
310.919
310.483
311.941
312.207
303.264
301.747
303.257
304.585
302.671
303.085
302.504
304.348
305.182
303.869
305.113
302.002
302.616
303.758
301.98
304.603
302.042
303.817
303.782
303.873
359.207
358.045
357.138
356.042
358.129
359.814
357.244
361.003
359.099
361.271
362.732
361.8
361.584
361.008
358.161
359.655
357.348
357.444
356.862
357.839
351.129
348.207
348.208
348.257
352.339
349.561
352.092
351.626
352.523
351.42
351.214
354.454
351.015
350.093
349.364
349.776
348.745
350.48
346.95
348.644
342.829
344.065
341.543
339.948
342.832
340.621
344.326
341.872
343.754
345.973
343.457
344.951
342.471
344.525
342.093
343.248
340.651
341.989
342.742
342.445
335.977
335.792
334.19
333.257
333.79
332.581
334.114
335.435
335.249
334.789
336.877
337.548
337.24
336.339
335.884
335.088
336.005
335.122
336.123
333.342
323.919
327.034
328.786
327.535
326.791
326.554
327.418
327.041
328.992
328.302
330.403
329.797
327.153
329.891
329.369
327.41
327.517
329.284
328.452
328.247
319.536
316.467
320.107
319.858
318.932
320.257
320.209
320.404
322.849
321.475
320.244
320.19
318.76
318.767
319.105
317.219
319.97
320.401
319.018
320.439
311.223
311.282
310.618
311.205
310.783
311.896
310.546
313.429
311.33
312.771
310.533
310.748
314.283
313.508
309.677
313.392
311.269
310.668
311.593
310.576
304.105
304.196
305.38
303.738
304.265
305.501
305.146
302.575
305.496
303.716
303.667
302.956
304.504
303.217
302.898
303.613
303.544
303.971
304.601
305.41
358.877
359.302
356.887
356.498
359.125
359.853
362.68
360.922
362.714
361.98
365.183
361.436
363.519
360.552
361.13
361.838
357.076
357.568
358.949
360.278
353.865
352.349
349.833
349.476
351.837
352.159
353.613
352.413
353.702
355.963
354.088
353.627
353.395
351.812
349.883
351.845
351.436
350.379
351.557
351.494
345.31
343.434
341.329
343.568
342.236
343.366
344.822
344.355
345.364
346.84
346.958
347.108
346.849
344.894
342.396
342.491
343.202
343.247
342.563
342.896
336.251
335.3
332.713
335.829
334.352
333.28
334.229
338.116
335.847
337.82
339.665
338.574
337.28
335.42
337.542
338.629
335.776
336.693
336.782
336.817
329.308
328.616
325.964
327.361
326.877
325.745
328.495
328.792
329.829
329.399
329.57
329.978
329.277
328.047
327.81
329.763
327.404
328.143
329.02
328.902
320.182
319.552
319.503
319.791
321.453
320.436
320.576
321.631
321.912
319.29
321.707
319.825
321.039
320.793
320.137
320.378
318.594
318.643
320.54
319.179
312.235
312.099
311.787
314.316
310.647
310.885
311.548
312.372
312.586
313.286
312.181
311.036
311.392
311.438
313.783
311.757
309.005
309.374
311.682
312.123
302.79
302.108
305.319
303.038
306.984
304.084
302.323
303.358
305.743
304.986
303.097
304.096
305.165
306.874
305.266
303.179
303.885
304.172
303.868
303.962
362.969
360.973
357.498
359.185
361.332
363.331
361.541
359.455
362.13
363.723
364.967
365.93
363.148
362.662
360.227
360.816
360.455
360.2
362.5
360.906
353.69
350.339
351.835
351.397
353.349
352.076
352.871
353.064
355.235
353.609
353.814
353.958
352.957
353.955
352.561
354.467
352.078
353.022
350.415
355.695
345.565
342.92
344.023
343.878
344.999
344.702
346.512
344.73
345.686
346.488
347.47
345.546
347.962
345.537
348.098
343.684
345.746
345.9
345.864
345.662
336.754
337.125
333.9
336.218
336.828
336.847
335.485
335.119
337.484
336.876
336.876
340.018
337.808
336.629
336.114
336.54
336.467
335.904
337.286
336.683
327.965
328.341
327.233
328.455
328.474
329.504
329.26
329.352
328.522
329.407
332.171
329.479
328.448
330.529
329.979
326.79
328.545
325.838
330.404
328.238
320.538
321.875
322.651
320.287
319.11
319.128
318.744
318.792
322.289
322.833
320.628
324.436
321.101
322.472
322.074
319.577
318.631
319.904
321.852
318.683
312.15
311.596
311.05
311.266
311.788
314.219
312.033
312.611
312.159
314.107
311.099
312.718
312.067
314.515
311.525
313.431
313.307
311.864
310.93
313.514
303.37
304.267
304.336
304.891
303.491
302.753
304.301
301.293
304.198
304.14
305.868
303.337
303.995
305.718
302.235
305.438
302.812
302.58
305.001
303.692
362.413
365.463
362.644
362.958
362.272
361.907
361.097
365.168
363.724
363.911
361.261
365.877
365.398
362.284
363.593
361.695
361.399
359.573
360.752
363.945
355.949
353.929
352.994
352.849
354.17
353.192
352.202
354.04
356.978
359.701
356.108
356.454
358.498
353.172
353.618
353.348
355.234
354.069
353.743
356.015
349.966
346.534
344.689
345.848
345.78
346.086
345.865
346.064
347.827
345.653
346.437
347.652
347.224
347.003
346.405
344.218
345.946
346.841
346.581
345.15
336.827
338.375
338.641
338.398
338.606
336.448
338.236
338.582
338.812
339.327
338.638
339.427
340.41
337.809
334.639
338.53
338.986
339.601
336.486
336.883
330.775
327.866
327.072
328.229
327.226
329.579
329.472
330.424
329.226
329.371
329.878
332.882
331.292
329.428
331.749
327.941
328.5
329.592
329.184
329.798
318.884
320.538
319.239
319.861
322.141
322.439
322.664
320.274
321.037
322.809
323.198
322.313
321.184
323.818
320.271
324.205
320.678
320.739
321.683
321.004
310.294
312.644
312.035
312.324
310.163
310.513
313.488
311.88
312.139
314.045
314.705
312.758
312.085
312.268
311.86
312.621
312.659
314.051
312.826
312.471
304.666
304.465
302.94
302.063
307.174
304.802
302.812
304.597
304.207
303.942
302.578
302.412
305.217
303.286
305.694
304.554
304.67
305.131
305.642
305.983
364.062
363.128
361.554
363.205
365.689
365.511
365.251
364.113
365.398
365.95
364.134
366.79
368.105
364.43
364.352
364.652
364.778
362.652
367.586
362.949
357.248
354.584
354.648
355.032
352.639
355.544
354.139
356.099
357.54
356.611
357.029
359.584
356.405
358.364
355.906
352.9
355.127
353.437
354.689
355.416
348.102
344.821
346.587
347.425
348.407
345.955
347.778
346.554
348.313
347.096
347.143
348.79
348.283
346.394
347.515
346.012
346.747
345.81
347.91
348.574
338.34
338.265
340.114
336.879
337.203
338.618
339.687
337.53
337.58
339.179
339.235
341.246
339.559
337.016
339.61
336.881
339.682
336.971
337.432
336.983
329.927
332.129
330.975
329.761
327.906
329.41
329.859
331.261
329.755
332.751
328.908
331.813
330.147
330.7
328.869
329.894
330.164
330.708
330.496
331.511
320.415
322.448
323.393
321.472
321.32
322.282
321.287
322.278
320.906
322.813
321.074
322.186
323.853
322.606
322.581
320.549
322.026
322.287
319.547
318.436
311.774
313.078
313.046
313.984
311.182
311.881
312.827
311.373
311.939
313.963
314.205
316.226
314.886
312.722
313.597
312.182
312.184
312.937
314.474
310.701
303.535
305.146
303.047
305.371
303.53
303.323
304.176
304.595
304.523
303.692
303.627
303.901
302.551
302.359
305.949
304.381
303.532
305.017
303.117
303.372
365.879
365.23
363.519
363.682
365.716
364.29
365.541
366.96
368.417
365.246
366.343
367.561
364.625
366.919
368.194
365.833
366.058
366.828
367.476
364.931
354.659
357.757
358.267
354.585
355.829
355.013
354.734
357.382
357.238
358.211
356.09
356.769
357.392
358.492
356.815
357.593
358.108
354.463
356.997
357.695
350.716
350.489
348.91
345.414
344.778
347.45
349.182
347.488
348.161
347.542
348.128
348.327
348.789
349.326
345.557
347.311
349.75
350.058
348.95
349.075
339.694
339.443
337.855
337.024
338.602
338.427
337.424
338.385
340.375
338.496
338.752
339.193
339.988
338.824
340.88
336.644
339.183
338.892
336.336
341.44
331.313
330.085
329.967
328.514
329.975
326.791
329.405
330.865
330.771
330.497
331.941
330.515
330.695
331.02
331.957
331.923
330.778
331.116
330.076
330.727
321.72
321.521
321.671
323.246
320.316
322.998
321.19
320.271
319.542
320.489
321.208
321.239
322.603
322.816
321.656
320.469
321.124
321.028
321.599
321.048
312.848
316.156
313.919
312.623
313.532
312.953
312.281
314.304
312.636
313.979
313.27
314.539
312.922
313.276
312.72
313.164
311.318
313.371
314.161
316.323
304.605
302.913
303.429
302.219
304.421
307.445
304.471
305.113
304.17
302.921
305.658
307.355
304.703
302.855
302.39
303.662
305.023
304.248
302.823
303.123
368.261
370.991
367.944
366.119
368.055
365.69
366.981
367.788
366.595
367.721
367.333
368.086
367.251
368.276
365.627
366.577
367.599
369.668
367.769
366.669
359.763
358.151
356.708
359.153
355.48
359.216
354.389
360.132
359.117
359.859
359.841
356.654
360.113
358.595
359.474
356.006
358.968
358.593
357.715
356.323
351.243
349.283
350.656
349.1
349.527
348.908
346.827
347.011
350.123
350.225
348.851
350.278
352.772
349.359
349.354
348.412
349.775
348.888
351.686
350.383
340.65
339.443
339.619
339.182
338.734
340.034
338.651
342.448
338.937
342.243
341.694
342.687
341.998
339.229
340.542
338.334
339.139
339.567
339.821
338.932
331.78
330.59
331.623
329.807
329.366
331.815
330.055
330.095
331.45
330.6
332.256
330.843
332.939
330.7
330.758
331.169
332.522
334.378
332.502
330.655
321.953
322.052
321.184
321.291
320.968
321.52
323.343
321.16
321.153
322.44
323.222
321.888
321.841
321.442
323.999
320.963
323.397
322.713
322.072
321.238
315.175
311.883
313.523
314.595
312.848
312.709
311.724
312.184
313.812
314.589
313.763
313.381
314.37
313.07
314.113
312.476
312.523
313.451
314.312
312.748
304.243
306.019
305.904
303.181
304.629
303.399
306.895
304.589
304.364
307.466
305.076
305.262
304.851
303.128
304.284
305.146
305.425
303.757
305.935
306.642
368.269
369.633
366.731
365.752
369.555
367.469
368.316
368.826
369.69
368.977
369.719
369.343
371.31
368.429
368.022
368.388
366.195
368.873
369.028
371.111
361.085
360.062
361.263
356.436
360.657
359.593
357.124
361.111
359.523
360.306
362.073
360.775
359.075
357.616
358.785
359.446
356.37
360.653
360.953
359.646
350.331
349.348
349.094
350.118
349.33
349.576
350.879
350.58
350.456
351.968
351.45
351.43
352.096
352.416
349.86
349.873
350.778
350.998
351.877
350.635
338.188
341.543
340.748
340.786
340.779
339.565
340.474
341.456
343.44
340.523
342.946
341.022
338.609
339.366
339.281
340.46
340.33
340.212
341.073
340.375
330.819
333.545
329.886
330.835
331.29
330.07
330.927
331.659
330.408
332.716
333.127
332.04
331.749
332.005
331.02
332.437
329.792
332.278
328.965
332.847
321.299
323.222
323.565
321.813
324.43
324.485
321.97
321.986
323.223
322.402
321.861
322.656
323.722
324.266
324.5
322.066
320.526
321.608
322.725
323.911
315.63
312.458
312.858
313.55
314.354
312.295
311.238
314.648
314.653
315.211
315.481
313.267
313.427
314.502
314.701
312.989
313.57
312.586
314.766
312.9
302.764
303.724
304.812
304.918
304.859
304.029
303.699
304.746
304.437
305.849
306.29
305.12
305.064
303.238
303.936
303.259
306.032
301.626
305.685
305.693
373.746
367.419
370.396
369.05
368.512
369.925
369.768
370.234
371.418
370.626
369.07
371.671
370.048
367.658
368.601
367.674
370.381
368.792
371.08
369.969
361.822
361.902
360.566
362.876
361.169
363.057
358.516
363.301
362.354
363.671
363.582
360.701
363.84
361.444
362.852
359.375
363.084
361.352
361.891
362.77
349.372
352.457
351.638
348.631
348.651
350.089
350.234
350.303
351.029
350.166
351.137
348.174
350.915
349.666
349.599
350.809
351.048
350.934
353.264
350.384
344.73
341.022
342.732
340.583
340.004
338.792
339.15
340.022
340.91
340.899
341.467
341.133
343.201
339.638
342.807
343.302
339.797
342.927
342.521
342.511
334.296
334.12
332.887
334.469
331.05
331.059
331.09
330.595
333.52
333.339
332.738
331.157
332.255
332.985
333.518
332.204
333.219
333.367
330.702
332.317
324.984
324.743
323.448
322.66
323.202
324.431
324.379
323.247
322.966
321.14
323.787
324.227
323.464
325.137
324.045
321.64
323.093
323.754
322.793
323.357
314.685
312.056
313.502
313.456
312.517
313.117
314.657
312.754
314.974
312.656
314.188
314.412
311.886
312.712
313.27
313.151
313.349
314.198
314.002
315.075
305.144
303.855
304.311
305.786
305.346
304.836
306.581
305.338
304.167
305.232
305.847
304.409
304.126
303.223
304.656
302.774
305.479
305.543
304.985
304.833
370.567
371.29
370.652
369.957
370.622
369.509
370.754
368.93
370.273
370.799
372.816
369.457
369.179
370.419
369.926
367.858
372.233
371.97
372.424
371.907
364.385
358.883
361.978
361.118
362.392
360.848
359.646
361.246
361.108
361.327
361.697
360.14
361.763
358.185
363.69
359.683
360.229
361.698
362.203
361.598
352.829
354.11
350.549
350.964
350.202
348.844
351.461
351.228
349.49
350.712
351.895
354.73
352.446
348.562
350.859
350.186
350.846
350.058
349.746
352.513
344.761
342.971
342.079
343.948
340.938
343.9
338.208
343.237
342.505
340.491
340.985
341.856
343.529
340.201
341.275
340.116
341.085
343.327
342.326
341.572
332.41
330.568
332.133
331.975
332.546
331.544
331.569
333.278
334.078
331.082
333.931
333.38
332.275
332.517
332.248
333.078
331.413
332.321
334.087
333.069
320.971
324.179
321.364
321.891
322.617
319.837
324.371
323.781
323.267
323.842
323.299
322.877
323.705
324.059
323.432
322.864
323.705
321.756
322.275
322.371
313.774
315.938
314.37
312.611
315.791
316.435
314.309
314.971
313.641
313.025
314.47
314.68
312.82
313.664
315.093
311.982
312.256
316.05
314.925
312.204
306.012
304.047
306.07
305.063
305.515
305.449
305.005
303.629
302.321
303.686
303.361
303.918
303.185
304.572
303.351
303.443
304.467
303.618
306.938
303.083
)
;

boundaryField
{
    hotSide
    {
        type            fixedGradient;
        gradient        nonuniform List<scalar> 
400
(
321.511
322.87
325.591
329.677
335.133
341.965
350.181
359.788
370.794
383.208
397.037
412.289
428.971
447.088
466.647
487.651
510.105
534.011
559.372
586.191
323.738
325.08
327.767
331.802
337.194
343.949
352.078
361.591
372.498
384.81
398.537
413.687
430.268
448.289
467.755
488.672
511.043
534.872
560.161
586.913
326.149
327.47
330.116
334.091
339.406
346.071
354.099
363.503
374.296
386.491
400.101
415.136
431.606
449.52
468.885
489.706
511.988
535.735
560.948
587.63
328.704
330
332.597
336.503
341.73
348.292
356.205
365.485
376.15
388.215
401.695
416.604
432.954
450.753
470.009
490.73
512.919
536.579
561.714
588.325
331.33
332.599
335.142
338.97
344.099
350.546
358.332
367.477
378.003
389.928
403.271
418.047
434.27
451.949
471.095
491.712
513.807
537.382
562.439
588.978
333.918
335.158
337.643
341.389
346.414
352.74
360.392
369.397
379.779
391.562
404.765
419.407
435.503
453.065
472.101
492.618
514.622
538.114
563.096
589.569
336.321
337.531
339.959
343.622
348.544
354.751
362.274
371.142
381.385
393.031
406.101
420.618
436.595
454.047
472.983
493.409
515.33
538.747
563.663
590.076
338.36
339.543
341.92
345.509
350.339
356.44
363.847
372.595
382.718
394.244
407.2
421.608
437.485
454.844
473.695
494.045
515.897
539.253
564.114
590.478
339.852
341.015
343.352
346.885
351.645
357.665
364.985
373.643
383.675
395.113
407.984
422.312
438.116
455.407
474.197
494.491
516.294
539.606
564.428
590.758
340.643
341.795
344.11
347.613
352.334
358.311
365.584
374.193
384.176
395.567
408.393
422.679
438.443
455.699
474.456
494.722
516.498
539.788
564.589
590.901
340.643
341.795
344.11
347.613
352.334
358.311
365.584
374.193
384.176
395.567
408.393
422.679
438.443
455.699
474.456
494.722
516.498
539.788
564.589
590.901
339.852
341.015
343.352
346.885
351.645
357.665
364.985
373.643
383.675
395.113
407.984
422.312
438.116
455.407
474.197
494.491
516.294
539.606
564.428
590.758
338.36
339.543
341.92
345.509
350.339
356.44
363.847
372.595
382.718
394.244
407.2
421.608
437.485
454.844
473.695
494.045
515.897
539.253
564.114
590.478
336.321
337.531
339.959
343.622
348.544
354.751
362.274
371.142
381.385
393.031
406.101
420.618
436.595
454.047
472.983
493.409
515.33
538.747
563.663
590.076
333.918
335.158
337.643
341.389
346.414
352.74
360.392
369.397
379.779
391.562
404.765
419.407
435.503
453.065
472.101
492.618
514.622
538.114
563.096
589.569
331.33
332.599
335.142
338.97
344.099
350.546
358.332
367.477
378.003
389.928
403.271
418.047
434.27
451.949
471.095
491.712
513.807
537.382
562.439
588.978
328.704
330
332.597
336.503
341.73
348.292
356.205
365.485
376.15
388.215
401.695
416.604
432.954
450.753
470.009
490.73
512.919
536.579
561.714
588.325
326.149
327.47
330.116
334.091
339.406
346.071
354.099
363.503
374.296
386.491
400.101
415.136
431.606
449.52
468.885
489.706
511.988
535.735
560.948
587.63
323.738
325.08
327.767
331.802
337.194
343.949
352.078
361.591
372.498
384.81
398.537
413.687
430.268
448.289
467.755
488.672
511.043
534.872
560.161
586.913
321.511
322.87
325.591
329.677
335.133
341.965
350.181
359.788
370.794
383.208
397.037
412.289
428.971
447.088
466.647
487.651
510.105
534.011
559.372
586.191
)
;
    }
    coldSide
    {
        type            mixed;
        refValue        uniform 300;
        refGradient     uniform 0;
        valueFraction   uniform 0.991591;
        source          uniform 0;
        value           nonuniform List<scalar> 
400
(
300.015
300.015
300.015
300.025
300.016
300.049
300.021
300.033
300.055
300.027
300.035
300.023
300.028
300.039
300.03
300.039
300.036
300.023
300.043
300.051
300.031
300.022
300.025
300.036
300.01
300.029
300.024
300.025
300.018
300.015
300.035
300.018
300.036
300.038
300.043
300.024
300.051