/*--------------------------------*- C++ -*----------------------------------*\
| =========                 |                                                 |
| \\      /  F ield         | OpenFOAM: The Open Source CFD Toolbox           |
|  \\    /   O peration     | Version:  2212                                  |
|   \\  /    A nd           | Website:  www.openfoam.com                      |
|    \\/     M anipulation  |                                                 |
\*---------------------------------------------------------------------------*/
FoamFile
{
    version     2.0;
    format      ascii;
    arch        "LSB;label=32;scalar=64";
    class       volScalarField;
    location    "./ITHACAoutput/true/7";
    object      error;
}
// * * * * * * * * * * * * * * * * * * * * * * * * * * * * * * * * * * * * * //

dimensions      [0 0 0 1 0 0 0];

internalField   nonuniform List<scalar> 
3200
(
-3.94804
0.384991
2.01778
2.65555
3.60427
4.65852
3.27379
4.98657
4.26635
3.88305
3.13811
8.11049
2.8741
4.87059
6.69488
3.42966
-0.41946
0.918863
1.50045
-1.19379
-4.24867
0.0640686
2.19078
1.78469
3.18464
2.2885
1.69504
4.96163
6.70234
2.00427
4.13253
2.74274
4.42154
3.48643
5.17451
4.3027
2.22706
2.64694
0.698327
-1.63174
-2.13994
-0.376309
1.88631
2.59777
2.46344
1.14745
2.09666
0.646633
2.88923
0.454454
0.85115
4.2334
4.16394
2.65465
2.64526
2.9675
3.70399
1.08791
0.648473
0.961792
-3.54026
-0.61231
2.64431
1.52011
-0.878926
1.52285
2.649
2.21353
2.26971
2.06281
-0.0951579
3.56398
2.51775
3.69991
2.79357
2.48417
4.28458
2.76114
0.486518
0.239998
-1.73952
-2.29951
-1.04962
-0.0740359
0.562594
1.79044
1.86839
3.97722
1.61581
1.44397
1.41684
0.808964
2.56776
2.47298
3.36519
2.1404
1.23068
1.37818
0.123864
-0.349144
-0.2544
-1.50799
-0.0898981
2.82932
-0.30125
0.401209
1.65308
1.6596
2.91497
1.92357
1.09101
2.36791
2.42669
1.24485
-1.64993
2.06273
2.84281
-1.09309
2.60455
1.01009
-2.42338
0.630196
-1.06056
4.36329
0.27343
0.491644
1.2167
1.01056
0.89119
0.875607
1.37244
-0.335778
0.380372
1.41624
-0.461074
-3.52571
-0.315582
-0.796921
1.83927
1.19055
0.283043
0.317066
1.00371
0.501157
-1.75011
0.495531
1.10701
1.67189
0.26445
-0.29827
0.104839
-1.22106
0.633838
-0.640983
0.740365
-0.0193764
0.836149
1.47956
-1.8831
-0.634164
-3.40124
-1.38854
-2.4506
2.48454
3.24743
3.01667
2.88611
3.38494
0.859479
2.07472
5.16435
0.264435
2.67959
4.54399
2.10316
4.45919
5.8489
1.48846
0.453122
1.36751
-4.1429
-0.637856
1.90731
0.0312154
0.797419
0.302162
2.79043
0.449
3.0355
0.165929
-0.246721
0.0504558
1.21733
2.51729
0.332162
3.89076
0.386265
1.46626
-0.332276
-0.898058
-2.3185
-0.381976
1.40316
-1.80113
2.65703
1.3809
3.7109
3.31697
2.72962
0.828859
3.47874
1.92437
2.69729
2.94704
3.05141
2.06979
1.23684
1.30547
1.29238
0.229373
-0.978622
-2.97922
-2.38883
2.69717
3.15391
-1.31141
0.870355
0.978489
2.51824
1.65201
1.52705
3.57201
2.08386
2.16591
1.07811
4.46572
0.809916
0.69411
0.129588
-0.167778
-3.14711
-2.10383
-1.54905
1.27945
2.48599
2.7442
1.81369
0.613276
1.98792
2.55616
1.65542
2.22233
0.157654
0.429741
4.46045
0.164526
2.06025
1.12318
-0.243657
0.395931
-0.491115
-0.080145
0.687484
0.577249
2.259
1.76895
1.06349
-0.467569
0.581745
-0.620233
2.43276
2.93588
0.591401
1.98355
0.41883
2.04137
-0.949522
2.32296
0.601388
-2.40431
-1.52317
-0.224323
0.855141
-0.876281
1.1511
0.448221
-0.988168
0.185917
0.216284
0.0193865
0.916367
-0.0442646
1.82212
1.62966
-0.621551
1.85704
1.06204
-0.66289
-1.06454
-0.456459
-0.367717
0.41796
-1.07071
0.399199
-0.221991
1.84127
-3.0448
1.12318
0.0945676
-1.19525
-0.543354
-0.0497901
-2.48993
-0.219997
2.14446
0.254364
-1.0349
-0.193152
0.790647
1.70021
-4.17733
0.431855
1.09868
2.98098
2.97288
2.16925
3.10352
3.3769
4.02105
2.58783
2.8917
5.38321
4.29111
2.47173
3.29637
2.35716
3.1216
3.24678
0.368016
-2.71325
-3.17024
-2.07074
1.03447
1.51389
4.00225
1.62666
2.61936
1.82061
4.40829
1.28306
2.38597
3.31309
3.36991
4.51227
2.81263
3.0069
3.29527
0.758047
-1.1148
0.145525
-1.3344
-1.05942
0.981257
0.604449
5.2825
3.261
3.01347
0.949535
2.03852
0.054691
0.927329
2.1237
3.90167
1.39859
0.599183
0.89298
0.66725
-0.532075
1.40313
-1.79268
-2.4703
-0.718172
2.37458
-0.470442
2.33687
2.8181
3.29434
0.0892115
0.317923
2.3961
0.890001
0.230077
2.41428
-1.54708
3.11836
3.3887
1.29222
1.84506
-1.29343
0.492951
-2.46519
-1.03743
0.247473
-0.170495
3.56261
1.93125
-0.959945
1.83191
1.95765
-0.0898226
2.27634
0.361898
1.617
2.60716
1.52833
2.86502
0.390397
-1.72627
2.46314
0.35327
0.0069042
-0.0830841
-1.81874
1.73383
1.05251
0.20549
0.274677
1.94298
0.236827
2.79829
1.08508
2.49793
-1.75052
-0.196729
1.28485
-0.445631
1.12979
0.694572
-2.43074
0.413836
-1.81937
0.80366
0.709256
-1.24673
0.699739
1.83503
-0.323078
1.13949
1.3692
-0.881369
2.31949
1.31283
-1.19245
-0.280117
-1.83148
-1.51123
1.24867
0.695694
-0.0745371
-1.22949
-1.907
1.17678
0.485792
3.12648
-0.385757
1.18636
1.20726
-0.720821
0.0877494
0.360885
-2.51933
1.70211
1.10175
-0.006957
-0.513613
1.6666
-1.86088
-0.876202
0.0232817
1.56845
-3.51075
-1.03969
0.206347
3.85951
0.848119
4.05132
3.12816
0.646692
0.112022
1.6627
-1.37106
1.92628
3.90698
2.04838
5.72185
1.06049
1.2146
0.867688
1.72477
-0.746784
-4.17435
0.239716
-0.250323
0.239038
1.12418
0.644742
2.02024
0.57176
1.37143
0.365649
0.304046
-0.340327
0.0937722
2.48666
-0.33783
1.1213
-0.234994
2.03298
-0.586154
-0.301561
-1.22395
-1.75455
-0.677688
0.268036
1.28704
3.36546
0.342757
1.96259
0.764464
0.79721
-1.09225
2.80792
1.21788
0.810769
2.28065
2.58989
0.755885
1.79602
-0.442125
-1.5757
-2.86105
-1.00758
1.45404
0.505617
2.01503
2.44078
0.48769
0.955847
-0.0904183
-0.696421
1.31415
2.67137
2.38446
2.35052
3.18732
1.70153
0.308581
-0.530247
0.258554
-1.21501
-2.03789
-0.692571
-0.555139
0.684676
1.03844
2.28927
1.33192
3.40538
1.55917
-0.0413816
0.617117
1.68398
0.306337
4.26816
0.829319
3.12972
1.07226
1.2227
-0.862402
-1.26961
-1.40911
-1.82917
-0.457667
0.79107
0.0381302
-1.03112
2.077
0.361323
0.757442
-0.0553045
0.751802
1.7616
1.72395
1.03787
2.23115
0.190097
1.69118
0.0764983
-0.660078
-0.489934
-0.659612
-1.66736
-0.182627
-0.489802
-0.634302
1.27454
-0.733674
-0.856858
0.0898348
0.87416
-2.7044
-0.346511
0.0428047
0.0193591
0.265282
2.46698
0.0797156
-0.932674
-1.44948
0.224589
-0.0156766
1.61601
1.9891
-1.8327
1.66683
-0.62588
-1.45969
1.48765
0.448163
0.937617
-0.430316
0.276168
-0.861779
-1.31828
-1.06391
-0.959029
-1.07488
-0.203015
0.953977
1.08663
-1.98919
-1.08101
2.17125
0.433313
2.28246
2.08719
0.954001
0.0636913
2.38203
-0.158428
2.77538
1.47776
0.355468
1.90285
1.18858
2.4133
0.623084
2.54687
0.027882
-0.542745
-2.44503
-2.34749
-0.659427
-0.397595
-0.0389992
1.30994
1.7359
3.43347
-0.598428
1.64138
3.29671
-0.130259
1.17308
0.765535
-0.621307
1.89437
2.86779
2.10262
0.254894
-0.956055
-4.12811
-1.96465
-1.35352
1.41949
-0.0526735
1.64201
1.80205
-0.234544
1.39783
1.9204
3.26933
1.40513
1.95457
1.53769
-1.34999
-1.32477
-1.89096
-0.156675
-0.311295
-1.0059
-1.32316
-2.78364
-0.332973
-0.54717
-0.29174
-0.179104
-0.123472
-0.703938
0.614564
1.86884
-1.15803
-1.10386
1.27394
1.05849
2.06293
1.76011
1.80722
0.842348
-0.271677
-1.52224
-2.35872
-0.274076
-1.55872
2.07233
1.25618
2.50925
-0.847674
1.14848
1.43937
-0.944776
-1.77052
-1.12744
-0.730935
0.4855
1.0657
-0.544965
-0.972374
0.602591
-0.680472
-0.811325
-1.53783
0.115833
-1.25562
0.891206
0.526061
1.11576
1.41803
2.36902
2.10396
-0.358577
4.34337
0.588409
2.93838
0.899067
1.75737
2.73419
1.09502
-0.592445
1.43063
-4.21679
-0.857951
-0.284853
1.67409
-0.526501
1.38628
0.614651
0.111672
-0.128712
0.0166617
1.63437
1.24337
0.176829
2.3209
-0.784844
1.97081
0.0675288
-1.97755
-2.11877
-0.922431
0.762184
0.37516
0.0118214
-0.450573
-2.25298
0.651799
0.74379
-0.529125
0.529265
-0.201127
0.366901
-0.515764
0.420651
-0.258767
1.21195
1.73339
0.842111
3.45983
-1.3834
0.1076
1.60227
-4.04364
-2.1343
1.42747
2.4747
2.11494
3.48603
1.78541
-1.02382
-0.297787
0.015354
1.02192
0.246143
0.548131
-0.567172
-0.318036
2.69016
-1.93497
-0.016999
-2.23798
-1.88812
-5.4466
0.175893
1.06638
-0.226785
-0.435531
0.030919
1.12223
0.42186
0.615658
0.11505
0.0224831
-2.53755
-0.573944
0.831198
0.412369
1.10734
0.233614
0.742944
-0.402913
-3.16017
-2.6382
-2.77678
-1.0584
1.04752
-0.295684
1.1805
1.38501
-2.0901
2.17943
0.386832
-0.515688
-0.605942
0.172935
2.40827
-0.309948
-0.484588
0.826652
-0.272405
-0.963777
-2.03169
-1.54061
-1.48858
0.770817
0.835181
1.91852
1.59404
-0.197031
1.13683
2.60093
1.09067
0.207058
-0.801106
1.23464
-1.8121
-0.947384
1.67751
1.03264
1.28758
0.024112
-0.922047
-1.74477
-3.85554
-1.06656
1.11705
-0.704483
0.0464748
0.891231
-1.07176
-0.756124
-0.98409
-0.0626672
0.0885706
-1.28448
1.30346
0.33552
0.62925
-0.0267022
2.02788
-0.635552
-1.79395
0.900571
-0.149547
-0.782177
0.356044
0.598694
0.72393
-1.84266
0.0131057
-0.0977552
-2.86746
-0.799041
0.642788
-1.05614
0.164438
0.723656
2.32999
-0.895873
0.00630557
-1.33077
1.23826
-1.02527
-1.79635
2.03721
-2.79072
2.30456
1.27678
-0.950314
1.05407
1.32029
-1.79789
2.65072
-0.517996
0.857619
1.42177
0.441345
-0.851365
0.0454198
0.289878
-0.825315
-0.377678
1.45447
1.01714
-0.0719573
1.28633
0.532733
0.129227
-1.29002
-0.998189
1.6349
-0.0883426
-0.323612
-1.85696
-1.51269
-0.287292
0.803624
1.20594
1.93839
0.973203
0.23901
-1.43223
-3.97057
-3.05466
0.174166
-0.82932
-2.09135
-0.407694
0.917647
-0.260256
-2.22488
-0.986819
-3.26544
-3.11256
-0.116647
-0.742369
-1.3444
-0.21718
-1.01346
-1.50299
-1.88152
-1.91351
-5.29558
0.197469
0.108218
0.443042
0.528274
0.439828
-0.156028
1.58371
-0.237599
-2.48544
-2.15643
-0.509691
-0.185536
-0.58897
0.563279
-2.73764
-0.193304
-1.92213
-0.891634
-3.90363
-3.00859
-3.71465
-2.20077
-0.103366
-1.23605
2.34008
0.764184
0.141823
-2.83445
0.926269
-0.590812
-0.533712
0.592477
-0.64984
-0.408014
-1.22899
0.62565
-1.24098
-0.515549
-2.09347
-3.20203
-3.04029
-0.143589
-2.00637
-1.33517
0.569661
1.62232
2.74127
1.7095
0.68291
-1.00068
-1.23792
-2.77638
-1.01658
-1.58914
2.89829
0.339043
1.92418
-0.813923
-1.92806
-1.51785
-1.28572
-0.175884
-1.66016
1.36641
0.0537986
-0.562508
1.36432
0.0848929
-0.919533
-1.62129
0.20091
-0.492182
-1.28286
1.8401
0.964302
3.243
-2.56518
0.748126
-3.40871
-0.539548
0.168838
-1.70134
1.63588
-1.41561
-1.84449
-0.952376
-0.0929174
-0.542881
-0.576757
0.99117
-1.0624
-0.363822
0.210705
-0.656002
1.27999
0.573071
-1.88929
-2.60296
0.110234
-1.31407
0.522616
0.0800702
0.560969
-1.01721
0.870881
0.839929
0.467075
-0.156514
0.901152
0.64627
1.60588
-1.19988
0.182956
0.886075
-0.211233
-0.40415
2.59806
-1.56928
0.439179
-0.220346
-1.86532
-2.42438
-1.42921
0.306034
-2.16116
-1.38651
0.92869
0.101989
-2.19279
-1.97266
-0.702831
2.84681
-0.474233
-1.38501
0.61397
0.333729
0.82884
-1.05186
-1.70087
-5.67825
-3.7428
-2.78456
-0.784909
0.947119
-0.413233
-1.65631
-2.10291
-0.84383
-0.0614402
-1.72497
-2.06656
-1.29464
-2.02231
-3.3721
-1.83535
-2.40927
-2.59146
-2.22144
-4.69639
-3.28481
-0.158155
-2.95706
-0.0377226
0.268824
-0.368166
1.3487
0.187216
0.729711
-0.662724
0.0402543
-2.32056
-0.623868
-0.715502
-0.0673416
1.72506
0.505576
-1.08042
0.597053
-1.31038
-2.9193
-4.20321
-2.58397
1.1538
0.851794
0.98443
-1.81302
-0.278944
-2.10743
0.250595
-2.63161
-2.62501
-3.1724
-0.165033
-0.365983
-0.585144
-0.55027
-1.17951
-2.52002
-2.94712
-3.98705
-1.00638
-0.987805
-0.172003
-0.633341
0.269145
1.08018
-2.13645
-0.0805701
0.489638
-1.84471
-1.3381
-2.11811
-3.79762
0.587144
-0.36595
-0.922054
0.671676
-1.87508
-3.31222
-4.08978
-2.48227
-0.955648
-1.19933
0.907864
1.14273
-0.625846
-0.657224
-1.00753
-0.0159931
-1.99285
-1.64339
-1.31619
-0.0904153
-1.24083
0.45799
-0.38492
-1.01877
-3.43747
-1.64278
-0.115226
0.479095
-1.59299
-0.271702
-1.04474
1.6697
-1.11975
-0.789841
-1.51659
0.761808
0.881808
-1.69923
1.79129
0.758031
-1.23038
0.253306
1.03728
-1.07593
-2.16633
-2.1775
-1.78189
0.152042
2.54363
-0.279256
-0.0150105
2.2276
-0.44127
-0.324393
-2.61643
-1.75998
-1.52018
-0.316781
-0.583201
-1.73417
0.994669
-1.74023
-0.45332
-0.136407
-1.88838
-1.79262
-0.759793
-1.11004
1.10852
0.354315
-0.675837
0.414522
0.053453
-0.0195334
-1.1213
-1.67812
-0.411077
2.075
0.045884
0.133425
0.817594
-0.359339
-2.39428
-1.59248
-2.89738
-0.820339
-2.70267
-1.65851
0.864912
-0.836551
1.5346
-0.839035
-1.18267
-0.435535
-2.66605
-3.7374
-0.263025
-3.25559
-2.67972
-1.21698
-1.55147
-0.602727
-0.766824
0.16666
-2.83322
-3.22972
-5.14525
-4.91744
-2.5008
-1.74707
1.24617
0.454959
-0.870287
-1.44447
-1.04057
-3.49654
-3.60161
-2.93655
-4.33075
0.685262
0.931131
-0.849982
-1.26326
-1.09418
-5.29734
-4.86726
-1.68941
-3.19989
-1.3895
-0.0526568
0.260867
-3.00451
-2.30902
-0.633002
0.627166
0.988416
-1.76006
-2.52269
-3.01722
-1.76274
0.615058
-2.8494
1.78207
0.565439
-1.51585
-2.36801
-4.83707
-2.37257
-1.36437
-1.40763
-2.45182
1.29992
0.30339
0.74079
-2.1982
-0.252529
-3.02381
-0.265518
0.571527
-1.50735
0.0166891
-1.56674
-4.65314
-0.605363
-2.42514
-0.709638
-6.27716
-1.09573
-1.81984
0.519826
-2.59679
-1.31879
0.648001
0.0907579
-2.33469
-3.90123
-2.637
-1.78755
-2.53068
-0.359521
-3.09619
-1.8937
-0.129371
-1.2958
-0.609394
-0.899361
-1.73601
-2.43385
-0.212369
1.81972
-1.67058
-0.841274
-0.00680689
0.394471
0.60866
-2.25619
-0.938335
-0.414509
0.651733
0.368507
-0.915455
-0.412588
-0.480258
-1.99355
-1.34514
-0.444202
-0.729396
-1.77334
-0.443945
0.111892
0.825836
-0.240462
-0.830931
0.0239346
3.04013
-0.251269
-0.667595
-1.56238
1.40195
0.56179
-3.33534
2.57985
-0.895147
-1.76693
-0.0510205
0.64936
-0.538402
1.95739
0.0146982
-2.6163
1.25453
1.92458
0.389729
-0.705068
-0.693425
-2.11039
0.546974
-0.726798
-2.0107
0.4883
-1.82318
0.1048
1.36909
-2.04402
0.197898
-0.0879008
-4.89995
-5.39715
-4.35258
-2.64965
-0.780876
-0.92124
0.931298
-1.95164
-1.47817
-4.39256
-2.21402
-3.94342
-3.14204
-3.59614
-4.74805
-2.24639
-1.88899
-2.22049
-4.69959
-4.02478
-3.01171
-0.302124
-1.98908
0.15468
0.14997
0.208665
0.363278
0.617392
-2.13089
-0.0350772
-0.253937
-2.05253
-0.184792
-2.7717
-0.412242
-2.10351
-0.267393
-3.66737
-0.338683
-4.07674
-3.57886
-1.14285
-0.965628
-0.0383904
-0.184416
-1.17947
-1.64711
-0.529164
-2.38412
-0.614482
-3.48751
-4.37429
-3.17007
-0.743164
-1.9146
1.38367
-2.25667
-2.66306
0.34749
-6.73905
-1.62109
-3.62996
-0.266025
-0.825996
-0.202209
-0.254455
-2.99359
-0.253603
-2.15731
-1.75203
0.0106284
1.02853
-3.27426
-0.821405
-0.405909
-0.91976
-1.21436
0.0518159
0.201604
-2.35237
-1.80626
-1.22159
-1.67585
-0.927906
0.858683
-0.918933
-0.0524955
-2.6742
-1.00689
0.620374
2.39365
-1.19244
-0.956742
-2.65003
-0.488726
-0.545786
-0.117437
-1.99721
-0.0365794
-2.54959
-2.33266
-0.159864
-0.748155
0.635942
-1.69771
1.34991
0.307121
0.779194
1.18449
-0.809794
-0.488497
-4.36565
-1.68532
-2.97224
0.801428
-1.437
-0.412237
-0.887883
-0.737095
-3.24632
-2.44438
0.530116
1.69857
1.23283
-0.719099
-0.287841
0.615224
-1.94262
-0.136274
-1.37298
-0.299932
1.56281
-0.613116
0.700479
-1.55023
-1.78912
-1.40003
-0.467611
0.0527569
-0.664674
1.41042
-0.665654
-0.247325
-1.8239
1.44903
-2.19593
0.301666
-0.478907
0.115298
-0.442635
-0.897157
0.801957
0.73945
1.56286
2.03978
-0.271422
2.11841
-1.01556
-0.509193
-1.93273
-2.76502
-2.53803
-2.28955
-1.12568
-0.471233
-0.946412
-1.63396
0.158538
-3.83064
-3.16808
-0.0506054
-2.61264
-3.65023
-3.15972
-0.158059
-2.94892
-2.36647
-4.63603
-1.71514
-4.56804
-5.42829
-0.384437
-1.79462
-0.600584
-1.39334
0.118412
-1.87897
-0.495195
-0.484602
-0.227182
-0.131772
-2.14818
-1.26508
-0.345877
0.0941817
-0.226512
0.061485
-2.98367
0.469965
-5.34215
-2.97894
1.15365
-1.13671
-3.08846
-2.99518
-2.24564
0.620265
-2.26057
-4.28663
-3.85748
-3.83044
-4.72909
-1.34873
-1.55382
-1.25079
-1.65402
-1.26743
-2.89848
-1.86105
-3.55474
-3.01751
-2.45319
0.790246
0.117859
0.0903879
-2.01598
-2.81078
-0.244475
-1.49116
-1.68044
-0.713951
-2.77126
-1.10862
-0.158031
1.54223
-0.987957
0.0906239
-0.470534
-3.22847
-0.513633
-2.62145
-1.61838
0.254462
-2.16314
-0.976292
-1.74685
-1.59794
-3.11421
-1.54433
-2.81683
-3.00713
-2.78916
-2.70023
-1.3451
-2.13909
-1.89759
-2.10303
0.359933
-2.09892
-2.05534
-5.01422
-1.63184
-0.975034
-2.53773
-0.890914
-1.70144
-0.92992
-1.46726
-1.34328
-1.98727
-0.363642
1.84379
-2.77944
-0.882248
0.520138
-0.0918081
2.96154
0.0845348
-3.98165
-1.699
-1.06025
-0.863176
-1.2754
1.13431
0.263797
-2.01978
-0.358033
-0.408361
0.230337
-1.19659
-0.676304
-0.104654
-0.593057
-0.227424
0.0569506
-0.203643
1.55578
-4.23271
-2.45957
-2.52095
0.6862
-1.4271
-0.145635
-1.15735
1.94322
-1.09267
1.10694
0.633236
0.0166831
-3.17781
-2.36769
0.416567
0.0657939
0.128428
0.45024
0.293555
0.350315
0.301203
-0.734709
-1.82699
-6.19007
-2.77507
-2.23481
-1.81718
-1.35511
0.489873
-0.458097
-2.01032
-1.65465
-0.964364
-4.96616
-0.774001
-3.19745
-2.61258
-1.32418
-4.05264
-1.22213
-3.60241
-3.34623
-3.77114
-3.12135
-3.69997
-2.81461
-3.10791
-1.86247
-0.743636
-0.774548
1.75768
-6.26939
-1.43197
-2.38176
-3.4179
-2.35102
-2.70711
-1.80716
-3.98938
-2.18727
-2.37906
-2.73208
-6.02359
-3.93901
-1.18935
-1.68431
-1.43368
-2.19214
-3.00897
-2.52959
-2.37538
-2.8983
-0.516562
-4.16294
-1.86989
0.385294
-1.84018
0.601566
0.508359
-0.714684
-0.99283
-2.77582
-2.29759
-2.57057
-4.21095
-3.56374
-1.88879
-1.63951
1.44734
-1.64764
-2.5928
-1.50962
-1.13616
-3.02309
-1.9019
-3.80786
-1.89882
-0.209619
-0.127874
-0.522375
-0.412906
-1.18577
-2.78926
-1.44332
-1.06855
-0.820248
-0.671101
0.30565
-1.05143
-0.196041
-0.162706
2.66332
-0.567697
-1.82945
-1.26337
-0.642805
1.50733
-0.962923
-0.761403
0.116789
0.285969
-2.4324
0.401717
-0.368527
-4.1465
-3.08751
-0.21419
-1.07586
0.115261
-0.395931
-2.0359
1.68464
-1.15871
-1.16012
-2.27756
-1.70907
0.973192
-1.53899
0.179067
-0.0531306
-0.891023
-1.93437
-0.588045
-1.26546
0.31235
-1.66576
1.16438
-1.48984
-2.10798
-0.0814083
0.45431
-0.110934
-0.217352
-0.284613
0.935873
-1.62576
-0.43006
0.169812
-1.97092
-2.37135
-1.08366
-4.1851
-1.69393
-0.256112
2.247
-0.160411
0.417672
-1.51627
-1.5465
0.633175
-1.97573
-0.286248
-0.0295339
-0.38194
-3.24314
0.399164
-2.48305
-1.39863
0.673245
-1.90791
1.14779
-4.21428
-0.139167
-2.11494
-3.28819
-0.289857
-1.22749
-0.536479
-0.310477
-2.0416
-1.18345
-2.56152
-3.35336
-1.23359
-2.28889
-2.61879
-2.35147
-4.04346
-1.72881
-0.270501
-2.50123
-5.39237
-3.27391
-4.97674
-1.07732
-2.80082
0.361483
-1.61931
0.243874
-0.826657
-0.0956731
-2.28659
-0.272568
-0.0760205
-1.284
-0.447241
-0.464719
-0.0533612
0.3507
-0.467049
-0.359948
-1.04442
-4.43851
-2.59498
-2.42239
-0.786414
-3.49831
-1.17318
-0.415639
0.757617
0.260452
-3.84149
-3.74673
-2.04822
-4.09884
-3.45564
-1.12513
-3.40072
-1.6073
-3.79074
-3.52479
-2.53515
-1.99905
-3.0572
-3.66232
-2.70142
-3.77691
-0.783687
-1.68484
-1.5226
-1.1914
-4.54154
-3.63612
0.10562
-3.12988
-0.95028
-1.81644
-0.527084
-1.78262
-3.38405
-2.40028
-2.4964
-1.97448
0.38058
1.40087
-2.72991
-1.69579
-0.814611
-0.826912
0.200103
0.483264
-0.0889542
0.31858
-2.84671
-1.50836
0.26105
2.25237
-0.620942
-3.19313
-2.6952
-2.08689
-2.47794
0.656877
-0.972895
-1.59455
-1.48426
-1.12229
-1.65892
-0.0179516
0.354042
-0.571327
-0.389309
-1.70899
-0.859551
-1.65537
0.461337
-0.824978
-0.727566
-0.49378
-0.325449
-0.3239
0.488311
0.677439
-2.39688
0.228685
0.0276601
-0.241191
-1.59538
-1.51412
-2.11637
-0.574983
-0.397798
-0.202214
-1.51387
-0.413622
1.5278
-2.36656
-0.619033
-3.31841
-0.0868043
-0.708038
-0.188418
-2.24213
-0.25889
-1.30552
0.0538722
-1.50084
-0.51335
2.10624
-0.0478129
0.255987
1.00724
-0.580059
2.00233
0.268399
-2.31052
-0.156787
0.509641
-1.29284
0.142437
1.73675
-2.06171
0.821423
-3.3004
-0.361626
-1.21042
2.35583
3.27213
-2.14048
-0.991324
-0.867842
0.16576
-0.657283
-2.1665
-2.39956
-2.67248
1.4902
-0.275437
-0.687008
0.0407125
-1.92602
-2.19842
-4.78503
-3.78988
-3.61049
-1.5854
0.133692
0.812667
0.130295
-2.6922
-0.118988
0.540999
-0.754315
-2.62457
-0.762575
-3.38997
-1.14841
0.103866
-2.62538
-2.89777
-0.754461
-1.71738
-3.78708
-2.64615
-3.74732
-1.14899
-0.65077
1.36593
0.160609
1.47552
-2.10611
-0.878721
-2.12388
-1.28936
-2.0076
-2.90132
-1.86176
-0.555237
-2.2088
-0.237864
-2.64295
-1.37614
-5.1313
-4.67609
1.05136
0.201178
-1.18427
0.631305
0.932759
0.205652
0.554839
-1.64291
-1.23731
-0.286984
-1.40734
-1.00677
-0.236992
1.43933
-1.53037
-0.749636
-3.32035
-0.249104
-0.61596
-1.83063
-2.98004
-2.53164
0.255325
0.967549
-0.969359
0.490088
0.835147
0.175263
-2.3704
0.737114
-2.06771
0.096379
-0.407858
-2.12
-1.70172
-1.76181
-1.22687
-1.73793
-0.859933
-1.20191
-1.5003
1.11638
-2.50416
2.6637
-0.134438
-0.239641
1.12758
0.68423
0.870314
-1.53026
0.247768
2.68922
-0.377926
0.462288
-2.11837
-1.70019
-4.00923
0.259091
-3.84471
-1.24828
-0.42216
-0.0555074
-1.75435
2.6398
1.00893
2.12741
-0.677316
-1.30495
0.414974
-0.711156
-1.01257
0.459214
0.957917
0.426334
-0.601274
0.662141
-1.30358
-0.545895
-2.18463
-2.19705
0.62481
-0.0125204
-0.842458
-1.00592
-1.74316
1.36305
-0.64889
1.02227
2.06864
0.682037
-0.160519
-2.97281
-0.682259
-0.164705
-1.64827
-1.91013
1.32342
1.3617
-0.302981
-5.31519
-1.44982
-2.08306
-0.874951
1.52892
1.1012
-0.718467
-0.530109
-0.157412
0.669599
-2.55708
-1.76587
-3.03035
-0.978968
-1.83235
-0.727473
-0.27679
-4.65307
-0.251137
-4.92367
-3.67428
0.0553659
-0.760919
-0.64437
-0.185935
0.0341365
-1.03049
0.094246
-0.501953
0.0762911
-1.03582
-0.257652
0.094498
-0.493216
-0.743748
1.25038
-0.213337
-1.84373
-0.367359
-3.53076
-3.64596
-2.77427
-1.03717
0.151044
1.3259
-0.215401
0.804125
-1.3753
-0.450356
1.16755
-0.556417
-0.551827
-1.69465
-0.931351
-0.184722
-2.23079
-0.705764
-1.97016
-3.58083
-2.31138
-2.95309
-1.41002
-1.01659
0.0282095
-1.02255
0.538261
-0.0299994
-1.34846
-2.15066
-1.30004
0.697057
-1.92319
-2.29309
-0.403778
-1.36867
-0.587665
-1.83884
-1.69505
-1.21056
-4.71052
-2.6874
-0.588133
-0.389853
-1.62012
-0.805186
0.840357
0.0791264
0.469047
-2.12242
-3.00446
-0.495965
0.727405
1.17443
0.317198
-5.04017
0.250744
0.929217
-1.76658
0.996052
-1.2927
-0.330183
-0.646542
-2.068
0.876774
0.410547
-1.17156
1.50142
0.472914
0.646937
0.688547
-3.08152
-0.492734
-0.427873
-0.974408
1.42168
-0.0698862
-0.698831
-1.19344
-2.34973
0.336776
-1.60635
2.1318
1.93539
1.44194
-1.94378
1.03887
-1.93688
-1.43278
-0.653832
2.27121
-1.59022
2.73222
-3.00092
-0.871673
-1.67844
-1.59055
-1.597
2.21304
-0.190981
0.86046
0.0755673
0.636618
2.90689
-0.0303595
-0.685821
-2.244
1.14579
-1.5922
-0.896568
1.02198
1.66062
-0.723671
0.688326
-1.60061
2.10381
-0.134373
-0.545564
0.99491
0.352166
-1.11258
-2.53266
-2.00247
-1.42263
-0.565939
2.60758
1.30113
1.62807
0.146326
-1.51857
0.602497
-0.485724
0.313424
-0.0589946
0.916996
-0.799238
-0.831705
-0.0495614
-2.97729
-2.65149
-4.45855
-2.57423
-1.55896
-1.54568
-0.203474
-0.220844
-0.0550864
-0.206742
-1.14375
2.26832
1.14543
-0.357503
1.22855
-1.68257
-0.965066
-0.152227
2.0626
0.231916
-0.889946
-1.54728
-2.89106
-4.00323
-0.727818
-1.55141
1.01888
0.58849
-0.056496
-0.0650136
1.02321
-0.834553
0.942015
-0.444824
-1.01079
-1.10635
1.57096
-1.83066
2.224
-2.11132
0.466879
-6.14256
-2.95862
-2.07118
1.41855
-1.19711
0.353021
1.0574
0.363619
-1.05307
1.03795
0.0913729
3.46569
-0.541777
-2.5955
2.09121
-1.89824
-1.09952
-0.487388
-2.10236
-1.72889
-2.32904
-2.19919
-1.9576
-1.19694
1.18874
1.43656
2.49228
1.25475
-2.46982
1.18074
1.55279
1.28813
1.52388
0.271472
-1.57551
-1.89065
0.779323
0.464391
0.501385
0.047435
-1.59306
-2.11203
-0.350036
-1.33294
0.468751
-1.52584
2.38465
0.374853
1.4287
-0.999039
-0.40384
0.487157
-1.06833
-2.46586
-0.308883
-1.86499
0.998113
1.15188
2.46897
-1.9098
-1.13803
-2.23448
-0.298726
-0.529104
1.69394
0.606862
-2.48301
-0.271406
-0.863618
1.11085
0.844291
0.103858
0.127217
0.159409
-0.281376
2.28888
1.53412
-0.89906
-0.494602
0.929174
-0.104535
-2.11656
-0.789518
1.25908
1.65194
-1.56707
-2.80955
-0.146639
0.0875713
-0.206641
-1.31767
0.0332263
-1.21326
-0.0035696
-0.0205547
0.54671
-0.989087
-1.10409
-2.03945
0.168663
1.28124
-1.24654
-3.12864
-1.82603
1.3432
0.396523
3.00409
3.06266
2.23963
2.31793
4.11919
1.57415
-0.193932
0.567289
0.365085
0.680228
2.25601
2.49408
1.15478
-0.518513
-1.08557
-2.71311
-1.154
-0.443808
-0.798167
0.351334
2.83156
0.0759312
0.979335
-0.254002
-0.299751
-0.415922
0.416787
2.13432
0.259317
1.13101
0.238198
1.16656
-0.389466
-0.681143
-0.163204
-1.84318
-0.240972
2.12799
0.309658
-0.0672747
-0.575517
1.12876
1.85151
-0.696725
0.865184
1.10702
0.476412
0.840242
1.89321
-0.1579
0.52841
1.60888
0.348675
-1.66936
-2.36852
-3.87659
0.312415
-1.35764
-0.233013
-0.0772315
0.604278
0.963717
0.145829
1.22194
0.873469
-0.240594
1.34962
1.58691
1.72609
0.453223
0.41642
0.773655
-0.371679
-0.00034477
-3.04777
-0.331512
-0.43533
-1.07538
1.51654
3.61053
0.296433
0.810346
2.49811
2.54441
0.0693774
2.32427
1.54607
0.215367
0.153438
2.08263
-0.166834
2.16495
0.844169
-1.25837
-0.200199
-0.263544
-1.68753
-0.736371
2.12388
-0.297676
-0.290549
2.33605
-1.76047
1.26375
1.57015
0.742596
0.507507
-0.666206
1.36122
1.27289
2.08578
0.361707
0.692664
0.854535
-0.482496
-0.345546
1.01758
-0.541272
-0.384348
0.980681
1.83407
0.114873
2.36428
0.443006
1.13351
-0.188167
1.58075
-1.6259
-3.90973
-1.17766
1.08078
1.27651
1.24291
0.0755457
-0.23861
-0.932619
0.016059
-1.79964
-0.470083
0.583058
0.1916
1.1799
-0.365718
2.37898
-1.76238
1.55647
1.84487
0.92385
1.59594
-1.00853
-0.757344
0.850345
0.483324
-0.00606181
-1.93344
1.49392
-1.33089
2.0114
3.10498
2.41292
3.3631
3.34887
6.18352
3.31578
3.33981
1.47673
0.214481
2.42162
0.867209
-0.0327452
2.75433
1.09398
1.11419
-0.137904
-2.73402
-2.21955
0.356183
-0.136617
-0.227634
2.36161
3.05486
3.22028
3.38159
1.11675
2.47157
1.71518
1.10488
2.29503
0.542935
0.386164
3.45784
2.71893
0.470763
0.770326
-2.07186
-1.30095
-1.25335
0.118549
1.2911
1.297
2.27466
1.36788
4.00303
2.42054
4.48812
1.75694
1.24452
4.17164
1.48905
0.653821
-0.133911
2.05964
0.597027
2.00748
-0.145314
-0.517747
0.599093
1.26201
-2.11026
1.37207
0.601511
3.80831
2.94387
1.43905
1.84329
2.55281
0.973012
-0.255583
2.16685
1.88222
2.82419
1.53735
-1.14369
-0.482483
2.26412
1.81531
-1.10996
-2.47207
0.137299
1.42394
-0.344805
0.527583
-0.462785
4.01085
1.89989
0.595954
1.4932
0.38773
0.911322
2.10326
0.369768
0.295819
0.74366
-0.015493
-0.402688
-1.35597
1.27258
0.999314
0.512735
3.41626
1.50233
1.03072
-1.15813
0.463649
1.3471
1.00954
0.987669
2.16269
2.30389
0.0988222
2.52089
1.52822
-0.314828
0.641746
-0.0210073
1.33169
0.551758
-0.724441
-1.63491
2.53869
1.23529
1.68876
-0.466889
-0.823357
3.25165
1.00722
3.52819
0.471032
-2.7684
4.09316
-0.352525
-0.138757
-0.0364408
2.02938
-2.30648
-1.52128
-0.796536
-1.52667
-3.27766
-1.77847
0.624152
-1.35156
1.4323
1.05829
0.862526
0.946703
-0.710054
0.371163
-0.907078
-0.387123
-2.36804
-0.885631
1.76352
-0.402752
-0.50959
-0.69178
-0.891655
1.07823
2.11258
6.55397
3.56922
4.88056
5.14962
5.76059
3.93181
2.91588
4.60604
4.26108
3.54519
4.23923
3.03251
1.8357
3.76264
1.38262
1.45896
1.08716
-0.642452
-0.0398753
0.491685
0.0839051
5.96228
-0.0555544
3.60863
1.03777
3.26115
-0.408752
0.0683013
5.2625
0.424735
2.61894
0.381116
4.29258
-0.138466
1.65198
0.132476
0.181003
1.03858
1.49467
3.58973
1.39065
2.12389
3.484
2.26928
2.06498
3.23594
3.26336
2.65549
3.00589
1.55386
3.66496
-0.0579033
2.03786
1.51226
0.251506
-0.461161
1.6813
0.245658
1.07723
2.57062
2.89941
2.62077
2.87551
1.13292
0.510099
3.38881
1.40061
3.02179
2.31465
1.93161
0.596541
0.768831
0.990203
1.03436
-0.43123
-0.962659
2.04031
-1.04827
-0.421298
1.4128
1.30268
0.347122
1.48689
0.794596
0.885298
-0.243853
1.9327
1.09027
2.82236
2.34937
1.60676
1.45502
1.89409
0.861219
1.34114
0.130679
0.694663
0.673872
-0.735725
0.49938
-0.567932
0.836141
-1.01492
0.282605
2.00245
0.550681
3.22197
0.841425
3.20389
0.512634
0.572544
-0.472785
1.06156
0.93932
0.223484
-2.4112
1.195
-0.407248
3.80657
1.09758
1.87752
2.23847
0.432517
0.509061
2.50474
0.0158936
-1.58877
1.33789
2.28264
2.97305
2.33761
-2.63929
0.638636
-0.765409
-0.998288
-1.34089
0.98183
2.24844
1.4951
0.782896
0.222905
2.39235
0.715292
0.216605
-0.105421
-1.65847
0.256701
2.00776
-0.451198
1.1057
-1.44793
-2.15898
-0.646429
1.40567
-1.00454
-0.70208
0.554971
0.911395
1.60391
2.45181
5.36666
5.34881
4.12336
4.13325
4.06813
4.11378
5.43445
4.04482
6.12823
7.31174
4.99277
4.19516
5.15027
1.12311
2.97698
2.80056
1.79597
0.805013
2.8014
1.40751
2.01822
4.48416
2.46831
4.74726
3.56256
3.53395
3.62007
4.22794
6.10756
2.39673
3.8753
4.56912
0.937252
3.84399
2.38421
2.20454
-0.505998
0.562099
3.80661
1.00502
1.71868
0.382825
2.70306
3.36277
5.47016
4.84758
3.58126
4.51081
2.80904
2.62728
2.3359
2.64951
2.81127
3.07562
-0.52906
0.477381
-1.91202
-0.95873
1.04864
2.59493
2.67539
0.70169
3.89202
4.21879
1.82581
2.82208
3.51395
3.52246
4.14657
2.85874
-0.92832
3.95019
3.18746
-0.0326234
3.99664
0.157117
-1.53369
-1.74335
1.59
1.21475
0.670628
2.94761
3.42638
1.57015
1.71319
4.19163
4.17027
0.888778
3.84969
2.02793
0.0976029
1.71942
1.41118
1.12039
-2.05953
1.60506
-2.25573
1.79238
-1.90942
0.0485423
1.61549
1.1575
-0.761278
0.405699
-0.0253165
0.113075
-1.39276
1.2587
2.18873
0.612964
0.971622
2.00597
0.741656
1.26923
0.384984
1.00069
1.97732
1.21114
0.940513
-1.62488
2.49061
0.359783
0.486273
-0.46884
0.487095
0.747334
2.8461
2.69924
0.0778189
0.506155
0.875131
0.973852
2.28608
2.62279
0.951596
-0.843672
0.129899
1.14738
0.833704
-0.63722
-0.626183
0.54995
-1.18318
-0.222036
-0.225405
1.04974
-1.8081
-0.931812
1.72788
-0.714897
0.0247047
1.62654
1.37311
0.0819204
0.290976
-1.7263
0.992
)
;

boundaryField
{
    hotSide
    {
        type            calculated;
        value           nonuniform List<scalar> 
400
(
-2.65458
-2.10462
-2.87437
-2.1982
-0.663719
-2.70182
-2.60884
-4.29294
-1.28995
-3.45585
-1.28547
-4.67085
-0.551724
-1.68878
-3.65063
-0.81057
-1.34436
0.520269
1.03115
2.91062
1.71562
-0.055044
1.77111
0.308309
0.27884
-0.759381
-1.66128
-2.32739
-0.217348
-3.92632
-1.03346
-1.23254
-1.70334
1.27004
0.233234
-0.263348
-0.026104
3.87692
3.0142
3.61519
3.38863
-1.07724
2.47712
1.59253
3.56801
2.83779
1.60126
-1.33726
2.33607
-2.8537
-0.758877
-0.6681
1.31732
0.441777
-0.381159
0.333742
3.15889
4.9849
4.06168
4.47505
4.06902