/*--------------------------------*- C++ -*----------------------------------*\
| =========                 |                                                 |
| \\      /  F ield         | OpenFOAM: The Open Source CFD Toolbox           |
|  \\    /   O peration     | Version:  2212                                  |
|   \\  /    A nd           | Website:  www.openfoam.com                      |
|    \\/     M anipulation  |                                                 |
\*---------------------------------------------------------------------------*/
FoamFile
{
    version     2.0;
    format      ascii;
    arch        "LSB;label=32;scalar=64";
    class       volScalarField;
    location    "0";
    object      stateMean;
}
// * * * * * * * * * * * * * * * * * * * * * * * * * * * * * * * * * * * * * //

dimensions      [0 0 0 1 0 0 0];

internalField   nonuniform List<scalar> 
3200
(
353.904
350.192
349.353
349.579
349.522
349.34
351.532
350.5
351.717
352.362
353.107
347.873
352.613
349.935
347.304
349.696
352.654
350.452
349.077
351.15
347.582
343.795
342.352
343.506
342.877
344.529
345.82
343.141
341.83
346.754
344.625
345.789
343.681
344.029
341.642
341.759
343.064
341.896
343.161
344.965
338.835
337.507
335.822
335.742
336.528
338.482
338.121
340.068
338.187
340.813
340.416
336.843
336.551
337.563
336.984
336.024
334.636
336.62
336.483
335.733
333.585
331.008
328.222
329.862
332.793
330.913
330.268
331.109
331.348
331.71
333.868
330.054
330.805
329.217
329.642
329.43
327.097
328.105
329.909
329.805
325.125
325.954
325.069
324.494
324.271
323.449
323.745
321.951
324.541
324.834
324.861
325.348
323.36
323.14
321.874
322.694
323.189
322.641
323.53
323.734
316.971
318.416
317.257
314.625
318.05
317.638
316.653
316.87
315.779
316.856
317.689
316.326
316.103
317.061
319.689
315.686
314.611
318.26
314.303
315.707
312.466
309.527
311.374
306.122
310.39
310.344
309.78
310.12
310.338
310.405
309.909
311.565
310.751
309.581
311.297
314.189
310.801
311.11
308.318
308.852
303.084
303.088
302.453
303.014
305.324
303.137
302.579
302.059
303.5
304.08
303.677
304.985
303.097
304.327
302.893
303.593
302.679
301.977
305.288
304.001
353.53
352.135
353.983
349.903
350.023
351.117
352.045
352.219
355.234
354.277
351.188
355.829
352.924
350.387
352.031
348.811
346.539
350.044
350.293
348.761
347.626
344.643
342.776
345.393
345.389
346.632
344.833
347.756
345.592
348.685
349.098
348.577
346.988
345.106
346.602
342.295
345.038
343.217
344.337
344.381
339.14
337.637
336.423
340.253
336.44
338.347
336.599
337.484
338.427
340.517
337.867
339.233
338.104
337.363
336.677
337.027
337.215
336.521
335.963
336.593
331.127
333.476
333.352
328.777
328.847
333.828
332.123
332.415
331.166
332.186
332.311
330.112
331.309
330.827
331.439
327.535
330.664
330.269
330.367
330.316
326.612
325.837
325.643
323.212
322.415
322.558
323.857
325.37
324.221
323.772
324.673
323.987
325.825
325.241
320.842
324.736
322.431
322.971
323.977
323.069
317.265
317.044
316.534
316.928
315.539
316.315
317.285
319.038
318.149
319.436
316.383
315.795
317.979
316.364
317.665
315.757
318.455
314.898
316.363
319.178
311.601
310.415
309.491
311.392
309.541
310.415
312.01
310.969
311.036
311.284
310.387
311.296
309.333
309.392
311.485
308.835
309.454
311.009
311.256
310.534
303.747
302.998
304.539
303.126
303.806
301.801
306.74
302.616
303.677
304.984
304.332
303.822
306.229
303.915
301.498
303.33
304.56
303.661
302.625
301.679
354.653
350.651
350.757
349.715
350.587
352.236
352.08
352.463
352.296
353.981
353.677
350.934
351.549
352.712
351.109
351.203
349.574
348.609
350.715
353.189
346.953
346.368
343.929
344.177
342.436
345.543
345.224
346.589
344.414
347.756
346.653
345.509
345.04
343.331
344.357
343.431
342.396
344.205
345.412
343.637
338.41
338.561
337.082
338.074
334.026
336.667
337.483
340.025
339.284
341.451
340.579
339.199
337.073
339.097
339.329
338.416
338.011
338.595
336.099
338.869
332.826
331.417
328.782
332.129
329.838
329.862
329.851
333.447
333.502
331.573
333.079
333.59
331.122
334.692
329.562
328.786
330.367
329.312
331.992
329.863
326.091
324.927
323.998
324.805
321.474
323.498
326.75
324.262
324.356
326.52
324.154
325.952
324.477
323.183
323.901
322.172
324.245
325.971
321.427
323.273
316.883
317.159
319.148
315.874
316.841
317.97
318.157
316.706
318.569
316.091
317.804
316.308
320.4
318.629
316.89
318.34
316.478
316.634
319.507
316.476
311.966
309.454
309.701
311.825
310.05
309.083
311.396
310.064
309.928
312.228
309.028
309.984
312.395
311.353
312.749
312.261
309.329
309.714
310.333
311.376
305.309
302.262
303.004
300.42
303.99
302.474
302.505
304.476
303.699
303.443
306.323
302.085
302.653
303.719
304.174
301.937
305.407
304.366
303.416
301.834
354.509
352.63
352.138
349.301
353.151
350.767
352.442
355.556
356.55
355.241
358.275
354.736
352.296
353.522
349.096
352.939
351.946
351.476
349.865
351.745
348.409
344.496
345.636
345.855
345.695
346.883
346.158
348.153
347.75
348.965
349.027
349.461
348.631
345.691
347.866
345.698
346.329
343.353
345.322
344.537
338.682
339.629
339.099
338.751
338.345
336.866
340.437
339.279
340.812
340.956
342.845
338.768
340.024
339.969
337.95
337.042
338.263
336.625
338.316
339.034
333.529
332.011
329.996
331.432
330.424
330.488
332.889
332.798
334.118
334.868
332.858
331.357
331.37
331.026
329.742
330.737
331.629
331.98
330.744
331.883
325.907
324.819
325.028
324.167
324.204
323.333
324.639
322.859
324.917
326.629
325.971
324.792
325.958
321.703
324.793
322.112
323.78
323.25
324.988
325.139
318.472
319.074
317.95
316.972
318.003
319.344
316.485
318.41
318.165
319.057
318.25
317.16
317.047
317.524
316.082
317.851
316.072
317.416
317.905
317.553
310.911
312.027
310.691
311.161
311.472
309.726
311.884
312.133
311.277
310.541
314.119
311.714
311.233
311.131
310.736
308.371
310.591
311.441
311.809
310.026
303.453
301.857
301.534
305.41
301.966
304.314
305.198
302.292
303.362
302.888
304.256
303.534
304.642
305.056
304.752
304.592
304.652
303.726
302.519
302.35
353.686
353.352
350.829
353.355
352.312
353.291
355.143
356.636
354.755
357.525
354.592
355.659
356.345
354.194
354.189
352.181
353.165
350.453
352.243
352.24
347.285
347.673
346.614
347.035
347.373
346.703
346.899
345.723
350.132
348.092
346.436
349.664
347.983
347.869
348.634
345.44
343.769
343.852
345.071
345.796
342.097
340.337
340.256
338.059
340.121
339
339.365
341.842
340.528
340.174
338.825
340.521
339.652
339.629
341.992
341.393
341.369
339.059
338.683
338.975
332.41
334.195
332.176
332.861
333.088
333.444
333.817
334.758
333.699
332.582
335.609
335.418
332.78
332.636
331.202
331.036
330.507
331.001
331.683
332.609
326.554
324.718
326.338
323.073
324.264
323.375
327.066
325.349
325.26
327.751
328.577
327.826
327.228
325.732
324.818
326.065
326.117
324.176
325.124
325.006
318.833
317.356
318.966
317.081
317.714
317.384
317.32
316.568
316.978
319.517
314.815
318.494
315.999
317.839
316.743
315.506
316.877
318.302
316.041
321.512
311.249
310.781
308.965
311.323
309.571
310.498
311.144
311.505
311.446
309.874
310.265
311.286
309.055
312.041
309.142
310.889
312.774
312.758
311.418
309.629
303.109
303.507
304.018
305.872
303.021
302.982
304.302
303.285
304.044
303.491
304.374
303.422
304.073
302.561
301.993
302.831
300.159
304.95
303.411
301.882
356.618
355.261
352.399
352.105
353.233
352.607
354.988
358.366
358.051
357.954
356.947
357.507
356.794
357.34
356.411
352.658
356.515
353.843
355.365
354.462
351.047
345.892
345.605
347.551
348.424
348.602
348.099
349.291
349.453
350.141
350.234
352.607
350.287
348.39
348.221
346.881
347.09
345.928
346.471
348.76
341.25
341.777
340.566
339.012
340.918
339.986
340.279
344.169
340.2
342.15
343.053
342.985
341.906
339.256
341.476
341.107
339.233
339.78
339.964
340.644
333.153
333.413
331.568
331.955
331.33
332.101
334.298
333.303
332.084
333.723
334.607
335.486
333.205
335.913
334.642
331.571
331.757
331.051
331.9
332.534
326.348
328.699
326.231
324.398
326.576
326.172
325.643
327.87
327.744
328.072
327.151
326.899
328.082
325.231
325.882
325.243
325.542
323.136
325.479
326.397
316.686
317.907
318.768
317.88
317.892
318.015
320.807
319.14
319.387
322.227
320.159
318.646
320.209
318.8
318.015
316.161
319.132
317.98
319.088
316.349
311.591
312.464
308.768
313.746
308.803
309.98
312.342
310.451
310.267
313.428
308.979
312.105
310.647
309.97
310.816
311.959
310.91
310.515
311.493
310.944
302.088
302.559
303.694
302.386
303.191
303.645
305.109
304.855
302.249
303.987
304.223
305.741
305.37
304.106
302.97
302.518
301.734
302.649
303.337
304.974
357.605
357.217
354.655
356.373
358.361
357.379
356.691
358.4
360.748
359.711
361.989
361.636
358.257
358.351
358.315
356.487
356.557
356.332
356.044
355.548
351.813
346.768
347.431
347.716
348.259
348.954
350.102
348.822
350.975
353.396
353.067
351.247
350.592
350.535
348.831
351.525
348.352
349.461
347.857
350.421
342.396
343.473
342.444
340.869
342.534
339.471
341.513
342.523
345.779
342.166
343.683
343.479
342.073
342.927
342.219
342.527
340.14
341.484
340.274
341.48
335.448
335.585
333.084
335.374
335.137
333.652
332.981
332.179
333.439
334.586
336.27
336.387
337.696
335.62
335.811
330.904
333.029
331.016
333.359
334.174
326.614
326.612
325.808
327.625
324.936
326.575
327.488
325.808
327.264
328.362
329.063
327.148
327.664
328.208
324.789
325.338
322.722
328.197
324.578
328.505
318.48
317.933
320.021
316.922
320.215
320.876
320.196
319.513
320.09
320.19
318.622
320.609
319.784
319.033
319.688
317.519
317.985
320.209
320.705
317.83
312.092
310.352
310.926
310.587
312.31
310.562
310.72
311.199
311.899
310.881
311.136
310.136
312.866
311.377
310.547
311.504
311.552
308.408
312.444
310.339
303.833
305.511
306.113
305.166
303.48
305.994
305.262
302.982
303.834
306.143
305.923
304.639
301.064
304.349
305.218
303.172
303.403
302.86
304.698
305.314
360.556
359.123
358.796
357.47
356.419
358.433
360.269
361.208
360.303
359.706
361.37
361.526
360.4
360.635
361.392
359.201
359.094
358.602
357.601
359.574
350.879
348.177
351.521
349.185
349.468
350.672
349.468
351.056
350.819
352.373
351.67
353.87
351.867
351.533
350.371
348.012
348.641
349.644
347.422
348.904
343.217
344.854
343.693
340.449
341.249
341.597
344.827
343.653
345.74
343.518
346.401
346.258
346.546
343.179
342.947
342.686
342.153
342.289
343.171
343.245
336.978
334.281
334.637
334.224
335.093
334.583
334.127
337.637
335.793
335.333
337.668
337.05
337.619
339.005
334.265
334.826
334.974
332.977
335.15
336.303
329.766
328.375
327.139
327.696
325.906
325.976
328.021
328.28
328.796
327.89
329.867
329.431
328.939
327.485
328.36
326.356
326.882
327.202
329.33
327.319
318.468
318.028
320.307
319.21
320.21
317.712
320.699
320.533
321.377
319.159
319.039
321.559
317.952
318.821
320.612
318.912
317.901
319.79
320.673
320.53
312.808
310.966
308.698
311.656
311.528
309.416
312.203
312.184
314.546
313.727
313.487
312.247
312.443
313.496
310.649
313.253
311.83
311.378
313.006
312.819
304.456
304.837
302.66
303.46
304.535
303.488
303.89
303.996
305.12
305.69
304.423
301.924
303.93
303.81
303.085
304.218
306.208
305.361
306.624
304.516
359.012
358.442
356.512
358.845
357.107
360.088
360.98
360.685
363.24
364.48
361.006
363.83
362.929
361.014
360.8
359.245
358.775
357.21
359.616
359.539
353.979
354.152
352.248
352.041
349.597
350.914
352.713
353.679
353.556
356.159
356.264
355.452
356.566
351.158
350.438
351.693
351.557
350.841
354.532
353.701
343.035
344.879
343.5
342.626
342.777
346.487
346.192
344.847
343.824
343.587
346.335
346.974
347.231
345.646
342.867
345.887
340.791
341.546
343.195
343.714
338.685
336.489
335.832
336.254
337.678
334.29
335.614
335.447
338.58
336.736
339.507
336.648
335.616
337.424
335.573
336.793
339.499
335.073
336.541
334.558
332.619
327.644
328.641
326.595
330.007
329.012
327.3
328.067
330.644
332.289
331.025
330.097
330.689
328.308
330.789
329.304
327.244
328.117
327.157
327.241
320.565
321.409
319.382
317.559
321.262
320.634
319.982
319.731
319.623
322.545
321.227
320.647
319.473
319.606
320.708
320.004
319.859
321.164
320.32
319.273
312.041
313.172
311.96
311.53
310.943
312.13
312.83
312.065
309.114
312.439
312.856
313.716
310.687
311.437
315.225
309.189
312.537
313.283
311.45
310.663
304.33
301.864
303.845
306.519
302.69
302.061
303.632
304.758
304.767
306.196
303.539
304.801
306.064
303.534
305.809
303.84
302.534
305.904
303.623
303.88
362.831
363.774
363.285
362.17
360.888
361.587
360.237
363.533
363.355
366.424
364.245
365.82
364.723
364.764
365.414
362.353
361.409
361.152
363.077
361.956
353.251
350.918
353.084
351.449
351.963
352.388
352.669
352.773
355.776
353.814
354.033
355.698
353.575
355.804
353.009
354.217
351.871
354.762
350.955
354.316
346.113
343.99
344.217
343.719
344.295
345.7
346.536
345.72
347.792
346.134
349.008
349.782
348.361
345.632
346.436
342.727
345.938
345.914
342.5
349.273
336.441
338.701
335.667
336.579
336.307
336.694
339.735
337.242
339.322
339.009
337.246
336.136
340.262
337.562
336.846
337.025
336.967
335.349
334.869
337.172
328.903
328.513
329.222
328.748
327.235
329.273
328.64
331.454
329.925
328.369
326.595
330.11
329.737
331.238
328.843
328.64
327.937
329.543
327.328
329.647
321.702
319.666
320.436
319.247
321.777
318.915
320.125
319.791
319.484
321.529
321.207
325.034
322.255
323.404
319.464
321.516
320.295
320.576
320.243
322.615
314.08
311.188
310.128
310.711
312.781
312.462
311.659
314.3
312.552
313.819
312.746
310.853
312.97
311.574
313.724
313.851
313.344
312.295
311.665
312.301
302.491
304.594
304.212
305.828
302.594
306.277
303.813
304.621
304.047
304.615
305.069
303.36
303.403
302.552
302.041
304.314
301.886
304.981
304.437
305.834
362.511
362.701
362.97
362.35
362.236
363.224
364.369
362.952
367.209
366.685
363.568
365.991
366.761
365.895
362.436
364.714
363.59
365.316
361.878
364.314
357.238
352.547
354.404
353.681
354.942
353.875
356.269
355.21
355.432
355.294
355.199
357.095
355.98
354.736
353.899
353.776
353.019
355.593
351.693
357.152
346.842
343.002
345.669
348.018
348.322
347.949
345.418
348.574
350.796
350.468
350.441
351.238
347.662
347.592
346.954
346.981
346.197
347.43
346.017
347.418
338.925
338.595
335.659
336.657
337.009
339.423
340.492
338.15
339.557
339.829
338.863
340.837
339.015
337.839
335.865
338.087
336.684
336.92
339.37
336.421
330.564
329.741
328.107
330.778
329.843
330.853
330.918
332.609
331.163
332.501
332.691
332.408
332.195
330.665
331.245
330.765
330.718
328.001
330.222
329.998
324.987
321.733
321.245
322.989
321.523
322.504
321.885
322.547
322.512
323.202
321.579
319.325
323.859
321.837
320.283
320.724
317.489
320.185
324.083
321.672
313.059
312.938
313.452
311.152
312.13
314.517
312.946
313.071
312.487
313.941
313.42
312.822
313.256
312.815
312.44
312.598
310.73
316.41
314.535
314.52
303.336
305.475
304.228
305.275
302.212
305.282
303.113
303.612
304.246
307.45
306.64
303.846
304.179
304.092
303.739
303.861
303.768
303.781
304.783
305.849
367.946
364.919
364.859
364.943
364.977
363.599
364.963
366.854
366.74
366.174
370.176
365.859
368.041
367.118
365.413
367.675
364.348
366.226
365.49
365.527
356.672
357.58
357.108
357.836
357.02
356.307
356.698
354.459
362.695
357.966
358.916
359.844
358.568
358.63
357.37
359.147
356.915
356.672
356.612
359.575
349.275
346.797
347.64
347.758
348.88
350.04
349.866
349.959
350.659
348.369
352.015
349.631
347.199
349.176
346.429
346.18
347.039
346.949
348.384
347.634
339.682
341.541
341.178
339.804
339.853
337.046
340.391
341.539
340.6
340.301
342.188
340.992
342.754
340.642
338.703
338.341
338.437
338.027
338.516
339.9
330.322
330.116
330.088
330.173
329.427
331.003
330.341
330.467
327.753
331.042
332.303
331.679
330.947
328.638
330.915
330.494
329.385
328.982
331.479
328.477
321.011
324.907
324.006
321.299
322.327
321.292
321.941
323.694
320.053
322.939
322.94
324.016
323.367
320.572
322.946
321.072
321.138
321.809
322.695
321.23
313.666
312.16
314.232
311.502
314.256
314.967
313.024
312.556
313.17
313.301
313.369
312.123
314.636
313.373
312.689
314.737
315.037
313.65
316.657
314.095
304.413
301.934
304.372
303.828
305.795
305.857
303.706
306.337
304.664
304.416
304.768
307.621
303.962
306.822
305.71
303.606
306.154
303.064
308.395
304.296
366.079
367.612
365.056
366.455
366.217
366.416
368.523
367.97
369.565
370.468
368.349
369.292
369.406
368.832
370.149
367.41
365.499
367.267
369.716
367.238
360.44
356.845
358.951
356.188
358.561
357.066
358.463
357.997
360.375
358.458
358.261
359.372
358.348
358.101
357.363
356.591
357.016
356.51
356.812
359.902
349.547
349.627
348.313
351.363
349.37
348.925
348.026
348.748
353.008
352.996
351.297
353.266
352.464
349.909
351.91
349.804
351.656
351.052
349.74
348.951
341.49
342.299
341.6
342.952
340.231
341.387
341.451
341.302
344.783
343.944
340.202
343.371
341.061
341.744
340.229
341.23
342.559
341.299
341.133
340.407
329.526
328.662
332.997
332.178
331.509
331.719
330.867
330.727
331.4
331.044
334.21
332.819
330.949
328.815
331.513
333.887
333.177
332.354
332.541
329.25
322.349
323.082
323.116
322.907
323.596
322.097
321.85
322.877
322.767
324.124
323.275
324.033
321.845
323.029
322.807
322.431
322.11
321.956
320.999
320.699
315.239
312.679
312.967
313.328
314.773
314.777
315.454
313.974
313.841
313.667
314.979
313.857
311.871
315.705
313.882
316.496
313.174
313.703
313.096
315.084
304.564
305.633
304.302
305.888
304.93
302.34
304.519
304.236
303.499
305.094
302.512
304.238
306.803
304.628
303.936
305.71
304.245
302.619
306.389
303.484
369.669
367.064
368.319
365.175
364.672
370.469
369.659
369.81
368.97
369.893
371.403
371.536
371.614
367.178
368.604
368.631
367.49
369.035
368.9
371.154
361.336
361.437
359.764
358.411
358.09
359.106
362.222
359.887
359.394
360.776
362.647
360.698
363.158
360.678
359.132
361.528
361.443
358.933
359.544
361.333
351.359
352.694
350.392
350.204
348.489
349.977
348.91
352.694
351.609
352.927
352.092
352.738
353.489
352.248
350.693
352.064
349.791
351.886
350.323
353.844
344.549
339.01
340.102
341.74
340.173
340.102
341.032
340.848
343.162
342.816
341.866
342.926
342.41
341.475
339.596
342.334
341.306
343.623
340.31
340.489
332.858
334.151
333.891
331.301
330.78
332.897
331.597
331.38
332.13
334.722
331.615
334.373
332.119
332.495
334.048
333.45
333.318
332.586
332.909
331.887
323.378
323.778
321.296
325.057
320.026
322.953
323.172
321.896
322.404
322.252
324.652
322.84
320.335
323.31
322.357
324.808
324.253
326.421
322.019
326.021
314.57
313.805
313.519
315.302
310.99
312.699
311.649
314.508
315.174
313.474
314.6
314.882
313.372
312.818
313.282
314.231
312.886
314.767
313.929
315.507
306.663
303.861
304.526
305.383
305.575
306.338
303.255
305.285
303.627
302.587
303.974
304.81
307.609
305.3
304.76
306.217
306.451
303.19
303.124
304.769
374.283
370.725
371.732
370.91
368.881
369.656
371.78
371.838
371.638
370.9
374.127
373.247
374.338
372.041
372.589
371.137
370.312
374.302
369.526
373.892
363.47
360.001
361.139
361.356
361.224
361.305
362.633
361.722
362.468
361.968
363.08
362.224
361.722
362.096
362.083
359.788
360.925
362.222
360.423
363.327
354.262
353.605
352.14
351.235
350.335
352.131
351.336
353.695
352.897
351.344
353.068
352.999
354.015
353.071
352.101
353.892
352.092
353.073
354.412
352.927
344.381
343.012
342.841
342.027
343.303
341.951
342.702
344.168
345.075
344.277
342.28
344.847
345.113
343.076
343.858
342.868
343.894
343.519
342.813
346.139
334.923
332.957
332.931
334.341
333.701
332.219
333.122
332.847
335.519
336.443
333.935
332.67
332.142
332.884
338.099
332.645
331.792
334.308
331.373
333.529
323.37
323.781
325.325
322.508
323.099
324.799
322.227
323.337
323.221
323.209
326.98
324.361
324.238
324.702
322.205
323.58
324.084
324.45
325.484
322.703
315.447
311.765
312.035
312.605
316.067
313.154
316.191
315.736
314.992
312.085
315.946
311.606
317.304
315.126
315.871
315.714
315.644
311.757
314.088
312.981
304.564
304.021
301.776
304.739
305.42
307.002
303.632
306.387
305.703
303.79
303.151
305.53
304.107
306.379
302.654
304.868
305.255
303.688
304.306
305.753
374.284
374.035
373.799
373.294
370.46
372.081
372.027
373.729
375.548
373.507
374.595
373.716
373.934
372.738
374.181
373.9
372.778
375.353
374.684
376.21
364.777
364.001
364.284
363.246
363.558
363.665
364.054
365.182
361.904
363.096
364.599
362.943
365.721
364.812
363.762
361.274
362.811
363.628
363.989
365.094
356.652
353.575
354.648
352.335
353.016
353.89
354.1
353.174
355.145
353.427
354.814
355.321
355.303
352.464
355.665
351.38
355.465
352.63
358.99
355.608
345.161
341.831
344.65
343.311
342.811
343.693
345.274
343.315
344.355
341.028
345.036
347.042
342.262
346.119
345.157
344.355
345.766
345.182
345.579
345.289
335.485
334.847
332.618
332.534
331.638
333.022
336.875
333.327
333.027
333.329
333.093
334.309
336.084
336.296
333.498
333.666
333.47
333.76
335.243
335.639
324.312
325.381
323.692
325.804
322.006
324.121
323.159
325.66
325.117
324.253
325.808
327.179
324.97
326.453
323.498
323.239
321.809
326.071
325.186
326.196
314.693
314.975
312.819
313.976
317.135
314.986
315.634
313.703
314.001
314.757
314.734
314.686
315.095
312.481
313.181
315.551
315.078
313.584
314.551
316.511
305.615
303.583
303.213
306.456
307.721
305.08
304.863
305.173
306.294
304.949
306.195
304.98
304.987
304.404
305.922
306.015
306.928
304.696
303.561
306.072
377.817
376.773
373.918
375.184
372.886
373.11
374.178
374.297
372.634
375.25
377.018
376.186
376.25
375.738
373.917
373.396
374.426
375.78
376.033
377.401
365.893
365.403
366.027
365.156
362.942
365.944
365.254
366.658
366.823
367.001
366.168
364.389
366.145
365.102
365.782
364.607
365.896
365.91
365.122
366.582
355.029
352.842
354.888
355.5
356.235
354.738
354.196
356.89
355.429
355.239
355.87
355.454
354.3
356.206
355.339
354.05
355.084
356.867
357.339
358.665
344.523
346.34
345.401
345.437
344.941
344.752
345.718
344.76
345.192
346.349
344.758
344.478
344.256
345.411
345.3
344.771
345.732
345.168
348.03
345.167
335.316
336.069
333.621
331.677
335.136
334.755
333.182
333.228
335.768
333.546
334.324
335.622
335.619
333.597
335.732
333.267
334.444
336.396
335.194
335.145
326.615
325.743
322.986
325.515
325.611
323.079
327.257
324.299
324.039
324.89
325.125
326.275
324.202
324.224
323.329
324.958
324.524
324.255
325.489
325.273
313.955
315.562
315.467
314.166
313.375
315.151
312.951
314.912
314.249
315.585
313.816
317.009
319.265
316.493
314.185
313.932
313.904
315.007
315.26
315.906
305.003
306.835
305.526
304.494
304.906
303.937
305.5
302.768
306.918
303.605
303.316
304.232
303.551
306.143
305.874
304.248
304.594
305.062
306.968
303.525
379.033
375.93
375.124
376.108
375.438
375.708
373.094
376.139
376.238
378.164
379.427
377.156
378.588
379.311
376.303
377.707
377.407
378.367
380.675
379.922
366.974
367.669
368.008
365.672
365.222
365.279
365.309
367.727
366.479
367.292
367.902
366.656
368.301
368.305
365.041
365.558
367.563
367.01
369.604
368.631
358.217
357.013
356.05
356.259
355.486
356.582
354.11
355.821
353.845
356.623
357.135
354.161
356.753
357.459
358.084
355.701
356.959
355.334
357.277
357.482
346.005
345.477
349.02
345.714
346.652
343.601
344.598
346.209
345.88
345.208
346.788
347.979
345.481
345.66
344.585
345.717
348.23
347.392
344.475
344.789
337.36
338.826
336.35
335.199
337.1
336.347
337.442
333.051
335.219
336.553
335.656
336.731
336.151
334.876
336.505
336.459
335.879
336.502
336.757
337.606
324.629
324.976
325.557
322.751
324.759
325.316
327.579
326.017
325.175
325.533
325.555
324.359
324.177
326.322
323.826
324.733
326.482
325.428
325.996
324.57
315.005
316.325
317.292
313.177
314.538
314.135
316.336
316.727
312.677
314.935
312.414
315.458
318.672
311.776
316.177
315.912
315.752
313.628
317.907
317.078
306.012
306.756
308.526
307.046
304.663
306.656
303.887
304.273
304.476
304.397
306.054
304.968
306.238
305.706
307.672
306.173
303.504
305.651
305.739
305.907
381.493
379.744
378.974
374.801
378.042
376.964
376.896
376.445
378.385
379.458
377.768
378.056
378.661
377.807
378.812
379.775
377.592
379.704
379.363
379.514
370.433
370.018
369.716
370.357
364.701
370.922
367.432
370.142
368.016
371.735
371.258
366.014
370.755
368.422
370.485
366.37
370.579
368.556
369.846
369.61
357.97
357.669
355.768
358.164
357.62
356.432
357.795
358.117
357.029
357.044
357.652
357.259
358.628
356.399
359.974
357.706
358.043
359.106
359.625
357.328
348.006
347.3
345.964
345.798
346.23
346.116
347.981
348.701
345.889
347.912
346.291
346.963
347.279
348.517
348.223
347.861
347.663
348.966
349.34
346.212
338.564
338.033
336.321
336.558
337.634
336.604
337.391
337.376
338.558
336.408
337.251
335.492
335.912
336.579
336.636
336.087
337
336.393
337.481
336.821
326.123
327.601
326.454
327.611
326.293
328.223
326.993
325.328
326.816
324.165
326.546
324.163
326.817
326.703
327.681
326.067
326.104
326.73
329.276
325.602
316.498
312.325
315.086
314.361
314.052
315.905
315.87
313.906
316.418
318.034
315.107
314.151
313.438
314.041
318.977
315.651
317.004
317.182
317.473
315.109
303.145
303.912
304.641
305.219
303.068
304.761
305.272
305.605
307.166
305.255
303.504
305.959
304.394
306.937
307.635
306.106
304.036
306.429
306.109
304.838
381.963
381.477
380.878
378.215
378.473
379.916
380.093
380.307
380.364
379.097
380.486
378.35
377.063
379.233
379.844
378.672
382.459
380.353
380.28
381.078
370.843
369.023
370.632
370.242
367.985
370.19
368.074
369.388
369.507
369.467
368.859
366.933
370.554
368.946
368.089
371.532
368.416
369.656
369.619
372.154
359.942
356.844
359.829
359.301
360.815
358.656
358.135
356.138
356.837
358.143
357.213
358.876
358.981
359.162
358.709
358.387
357.944
361.363
360.174
362.416
350.385
348.496
347.099
347.172
349.291
346.234
346.021
348.505
347.572
346.912
346.904
346.247
347.472
351.168
346.176
346.806
349.88
345.697
349.388
350.96
340.144
336.902
337.393
338.057
335.894
335.519
337.464
337.392
334.962
335.009
338.29
335.304
337.077
338.936
337.226
337.431
337.608
340.668
336.887
340.657
325.623
329.388
327.514
326.033
326.573
328.565
327.462
327.943
327.841
329.365
326.713
325.765
327.305
326.896
325.798
326.988
326.379
327.178
326.478
325.438
315.246
315.554
318.17
314.106
316.286
316.204
317.198
316.272
316.033
313.945
314.092
316.702
316.253
315.854
315.716
314.36
313.974
315.593
317.339
316.327
304.368
304.694
306.181
306.188
305.028
306.776
305.828
305.841
304.573
307.435
306.559
303.895
306.331
305.581
303.966
304.205
305.48
305.253
307.254
304.523
)
;

boundaryField
{
    hotSide
    {
        type            fixedGradient;
        gradient        nonuniform List<scalar> 
400
(
321.511
322.87
325.591
329.677
335.133
341.965
350.181
359.788
370.794
383.208
397.037
412.289
428.971
447.088
466.647
487.651
510.105
534.011
559.372
586.191
323.738
325.08
327.767
331.802
337.194
343.949
352.078
361.591
372.498
384.81
398.537
413.687
430.268
448.289
467.755
488.672
511.043
534.872
560.161
586.913
326.149
327.47
330.116
334.091
339.406
346.071
354.099
363.503
374.296
386.491
400.101
415.136
431.606
449.52
468.885
489.706
511.988
535.735
560.948
587.63
328.704
330
332.597
336.503
341.73
348.292
356.205
365.485
376.15
388.215
401.695
416.604
432.954
450.753
470.009
490.73
512.919
536.579
561.714
588.325
331.33
332.599
335.142
338.97
344.099
350.546
358.332
367.477
378.003
389.928
403.271
418.047
434.27
451.949
471.095
491.712
513.807
537.382
562.439
588.978
333.918
335.158
337.643
341.389
346.414
352.74
360.392
369.397
379.779
391.562
404.765
419.407
435.503
453.065
472.101
492.618
514.622
538.114
563.096
589.569
336.321
337.531
339.959
343.622
348.544
354.751
362.274
371.142
381.385
393.031
406.101
420.618
436.595
454.047
472.983
493.409
515.33
538.747
563.663
590.076
338.36
339.543
341.92
345.509
350.339
356.44
363.847
372.595
382.718
394.244
407.2
421.608
437.485
454.844
473.695
494.045
515.897
539.253
564.114
590.478
339.852
341.015
343.352
346.885
351.645
357.665
364.985
373.643
383.675
395.113
407.984
422.312
438.116
455.407
474.197
494.491
516.294
539.606
564.428
590.758
340.643
341.795
344.11
347.613
352.334
358.311
365.584
374.193
384.176
395.567
408.393
422.679
438.443
455.699
474.456
494.722
516.498
539.788
564.589
590.901
340.643
341.795
344.11
347.613
352.334
358.311
365.584
374.193
384.176
395.567
408.393
422.679
438.443
455.699
474.456
494.722
516.498
539.788
564.589
590.901
339.852
341.015
343.352
346.885
351.645
357.665
364.985
373.643
383.675
395.113
407.984
422.312
438.116
455.407
474.197
494.491
516.294
539.606
564.428
590.758
338.36
339.543
341.92
345.509
350.339
356.44
363.847
372.595
382.718
394.244
407.2
421.608
437.485
454.844
473.695
494.045
515.897
539.253
564.114
590.478
336.321
337.531
339.959
343.622
348.544
354.751
362.274
371.142
381.385
393.031
406.101
420.618
436.595
454.047
472.983
493.409
515.33
538.747
563.663
590.076
333.918
335.158
337.643
341.389
346.414
352.74
360.392
369.397
379.779
391.562
404.765
419.407
435.503
453.065
472.101
492.618
514.622
538.114
563.096
589.569
331.33
332.599
335.142
338.97
344.099
350.546
358.332
367.477
378.003
389.928
403.271
418.047
434.27
451.949
471.095
491.712
513.807
537.382
562.439
588.978
328.704
330
332.597
336.503
341.73
348.292
356.205
365.485
376.15
388.215
401.695
416.604
432.954
450.753
470.009
490.73
512.919
536.579
561.714
588.325
326.149
327.47
330.116
334.091
339.406
346.071
354.099
363.503
374.296
386.491
400.101
415.136
431.606
449.52
468.885
489.706
511.988
535.735
560.948
587.63
323.738
325.08
327.767
331.802
337.194
343.949
352.078
361.591
372.498
384.81
398.537
413.687
430.268
448.289
467.755
488.672
511.043
534.872
560.161
586.913
321.511
322.87
325.591
329.677
335.133
341.965
350.181
359.788
370.794
383.208
397.037
412.289
428.971
447.088
466.647
487.651
510.105
534.011
559.372
586.191
)
;
    }
    coldSide
    {
        type            mixed;
        refValue        uniform 300;
        refGradient     uniform 0;
        valueFraction   uniform 0.991591;
        source          uniform 0;
        value           nonuniform List<scalar> 
400
(
300.026
300.032
300.045
300.029
300.026
300.018
300.032
300.037
300.036
300.021
300.028
300.037
300.038
300.056
300.038
300.047
300.042
300.051
300.026
300.037
300.026
300.025
300.019
300.016
300.029
300.022
300.046
300.041
300.016
300.039
300.046
300.016
300.047
300.032
300.034
300.03