/*--------------------------------*- C++ -*----------------------------------*\
| =========                 |                                                 |
| \\      /  F ield         | OpenFOAM: The Open Source CFD Toolbox           |
|  \\    /   O peration     | Version:  2212                                  |
|   \\  /    A nd           | Website:  www.openfoam.com                      |
|    \\/     M anipulation  |                                                 |
\*---------------------------------------------------------------------------*/
FoamFile
{
    version     2.0;
    format      ascii;
    arch        "LSB;label=32;scalar=64";
    class       volScalarField;
    location    "0";
    object      T;
}
// * * * * * * * * * * * * * * * * * * * * * * * * * * * * * * * * * * * * * //

dimensions      [0 0 0 1 0 0 0];

internalField   nonuniform List<scalar> 
3200
(
337.209
337.769
338.542
338.771
339.445
339.86
340.02
340.034
340.065
340.015
339.842
339.4
339.095
338.451
338.052
337.459
336.577
335.642
334.546
333.902
332.581
333.082
333.79
334.001
334.548
334.973
335.055
335.102
335.107
335.103
335.003
334.587
334.285
333.758
333.386
332.91
332.142
331.275
330.33
329.795
327.761
328.213
328.859
329.047
329.524
329.899
329.906
330.028
329.979
329.966
329.977
329.605
329.32
328.854
328.58
328.168
327.48
326.723
325.969
325.461
322.833
323.246
323.787
323.967
324.35
324.681
324.656
324.798
324.679
324.711
324.743
324.492
324.193
323.778
323.623
323.252
322.644
322.053
321.403
321.019
317.803
318.192
318.639
318.764
319.041
319.296
319.271
319.415
319.298
319.291
319.383
319.193
318.946
318.609
318.5
318.213
317.726
317.246
316.77
316.447
312.718
313.084
313.384
313.457
313.668
313.842
313.779
313.927
313.832
313.797
313.931
313.784
313.595
313.351
313.302
313.085
312.717
312.419
312.022
311.794
307.595
307.891
308.056
308.076
308.224
308.331
308.262
308.391
308.348
308.304
308.399
308.285
308.167
308.014
308.022
307.897
307.666
307.489
307.237
307.141
302.532
302.664
302.697
302.71
302.756
302.803
302.781
302.836
302.782
302.797
302.839
302.754
302.747
302.685
302.711
302.649
302.567
302.517
302.407
302.405
338.092
338.632
339.43
340.001
340.628
340.76
340.864
341.225
341.271
341.254
341.013
340.714
340.536
339.652
339.133
338.433
337.626
336.827
335.709
334.879
333.328
333.803
334.466
335.039
335.58
335.659
335.767
336.061
336.122
336.135
335.988
335.719
335.514
334.709
334.328
333.683
333.005
332.302
331.298
330.607
328.403
328.805
329.387
329.894
330.34
330.469
330.548
330.776
330.812
330.825
330.757
330.514
330.336
329.583
329.321
328.765
328.226
327.553
326.747
326.175
323.358
323.679
324.219
324.614
324.965
325.107
325.21
325.369
325.32
325.403
325.396
325.183
324.999
324.367
324.195
323.717
323.281
322.671
322.054
321.564
318.234
318.471
318.978
319.203
319.486
319.669
319.681
319.798
319.786
319.881
319.89
319.724
319.543
319.064
318.911
318.522
318.237
317.713
317.248
316.882
313.064
313.243
313.641
313.777
313.977
314.131
314.09
314.155
314.177
314.29
314.254
314.173
314.035
313.645
313.515
313.276
313.103
312.724
312.37
312.134
307.812
307.958
308.224
308.305
308.438
308.504
308.459
308.527
308.506
308.604
308.584
308.537
308.451
308.225
308.129
308
307.905
307.693
307.454
307.293
302.609
302.672
302.762
302.776
302.831
302.86
302.832
302.865
302.83
302.878
302.883
302.869
302.846
302.752
302.712
302.693
302.668
302.597
302.487
302.443
339.334
340.04
340.87
341.464
341.905
342.278
342.598
342.732
342.972
342.819
342.541
342.254
341.782
341.105
340.548
339.716
339.039
338.055
336.948
336.118
334.371
334.984
335.719
336.249
336.633
336.949
337.248
337.34
337.59
337.463
337.238
337.022
336.606
335.961
335.482
334.778
334.217
333.313
332.312
331.665
329.292
329.799
330.42
330.897
331.206
331.494
331.721
331.843
332.058
331.98
331.758
331.64
331.219
330.661
330.277
329.66
329.209
328.398
327.552
327.056
324.12
324.494
325.026
325.434
325.635
325.956
326.086
326.197
326.385
326.376
326.123
326.029
325.693
325.268
324.978
324.407
324.056
323.377
322.708
322.297
318.842
319.103
319.522
319.869
320.019
320.279
320.392
320.47
320.621
320.671
320.445
320.359
320.112
319.753
319.561
319.047
318.835
318.308
317.808
317.492
313.538
313.67
313.977
314.243
314.349
314.556
314.603
314.67
314.789
314.834
314.636
314.613
314.441
314.162
314.038
313.635
313.52
313.151
312.793
312.564
308.154
308.192
308.4
308.589
308.63
308.766
308.793
308.834
308.881
308.939
308.812
308.785
308.681
308.548
308.427
308.203
308.138
307.915
307.69
307.553
302.746
302.754
302.82
302.898
302.901
302.937
302.961
302.959
302.962
302.989
302.99
302.956
302.92
302.874
302.817
302.75
302.737
302.67
302.572
302.52
341.159
341.606
342.436
343.142
343.515
343.799
344.175
344.525
344.694
344.54
344.252
343.993
343.47
342.827
342.312
341.388
340.62
339.578
338.652
337.713
335.974
336.33
337.083
337.658
338.051
338.267
338.598
338.96
339.104
338.951
338.687
338.483
338.011
337.448
336.996
336.221
335.578
334.665
333.881
333.021
330.643
330.923
331.585
332.042
332.418
332.616
332.848
333.2
333.345
333.182
332.977
332.819
332.372
331.911
331.545
330.929
330.341
329.588
328.922
328.234
325.195
325.385
325.961
326.319
326.68
326.832
326.977
327.319
327.452
327.35
327.152
327.044
326.611
326.253
325.939
325.458
324.948
324.352
323.873
323.302
319.656
319.815
320.244
320.554
320.834
320.971
321.059
321.304
321.464
321.404
321.183
321.106
320.793
320.517
320.277
319.905
319.499
319.078
318.671
318.303
314.068
314.189
314.501
314.75
314.917
315.03
315.101
315.23
315.372
315.315
315.205
315.114
314.907
314.695
314.555
314.308
314.004
313.711
313.382
313.176
308.432
308.535
308.726
308.902
308.97
309.073
309.103
309.148
309.241
309.224
309.157
309.066
308.977
308.844
308.771
308.639
308.419
308.224
308.044
307.94
302.835
302.831
302.93
302.999
303.011
303.048
303.067
303.072
303.116
303.093
303.079
303.032
303.004
302.941
302.931
302.913
302.83
302.78
302.699
302.676
342.57
343.163
344.006
344.456
345.184
345.533
346.01
346.174
346.56
346.068
345.939
345.496
345.179
344.566
344.015
343.081
342.269
341.091
340.142
339.17
337.159
337.713
338.447
338.845
339.465
339.774
340.169
340.348
340.715
340.23
340.161
339.755
339.517
338.979
338.498
337.732
337.017
335.971
335.141
334.316
331.636
332.091
332.729
333.053
333.621
333.886
334.187
334.374
334.683
334.274
334.184
333.883
333.744
333.272
332.795
332.176
331.569
330.664
329.992
329.269
326.065
326.408
326.903
327.128
327.654
327.89
328.111
328.26
328.541
328.25
328.129
327.926
327.793
327.4
326.987
326.455
326.011
325.247
324.737
324.137
320.368
320.605
321.022
321.17
321.617
321.787
321.961
322.082
322.307
322.078
321.959
321.849
321.719
321.423
321.105
320.642
320.357
319.744
319.389
318.86
314.61
314.75
315.087
315.175
315.491
315.627
315.739
315.86
315.986
315.825
315.732
315.703
315.579
315.369
315.103
314.787
314.567
314.163
313.902
313.55
308.789
308.886
309.091
309.119
309.35
309.419
309.45
309.556
309.613
309.514
309.418
309.46
309.407
309.247
309.106
308.902
308.762
308.523
308.365
308.181
302.961
302.964
303.054
303.047
303.144
303.166
303.166
303.203
303.207
303.184
303.152
303.176
303.163
303.09
303.064
302.981
302.937
302.872
302.807
302.739
343.717
344.549
345.326
346.116
346.861
347.324
347.594
347.956
347.974
347.763
347.706
347.086
346.936
346.185
345.435
344.591
343.748
342.423
341.61
340.472
338.156
338.85
339.538
340.295
340.946
341.327
341.59
341.884
341.985
341.681
341.697
341.16
341.025
340.381
339.696
338.97
338.231
337.127
336.455
335.412
332.463
333.058
333.632
334.316
334.871
335.163
335.419
335.668
335.782
335.453
335.57
335.072
334.95
334.407
333.806
333.166
332.554
331.667
331.111
330.262
326.691
327.192
327.663
328.207
328.65
328.868
329.106
329.358
329.446
329.14
329.279
328.879
328.737
328.321
327.831
327.265
326.802
326.06
325.581
324.957
320.84
321.274
321.599
322.042
322.385
322.508
322.72
322.929
322.998
322.753
322.871
322.599
322.429
322.128
321.739
321.282
321.004
320.37
319.985
319.548
314.897
315.222
315.466
315.809
316.032
316.116
316.273
316.424
316.502
316.28
316.398
316.219
316.087
315.865
315.605
315.263
315.107
314.588
314.287
314.073
308.935
309.167
309.304
309.529
309.609
309.689
309.818
309.895
309.944
309.827
309.863
309.786
309.684
309.556
309.41
309.165
309.141
308.78
308.596
308.498
303.011
303.077
303.138
303.18
303.213
303.245
303.296
303.331
303.326
303.316
303.299
303.301
303.226
303.209
303.166
303.063
303.077
302.954
302.871
302.856
345.139
345.884
346.824
347.628
348.313
348.882
349.326
349.316
349.588
349.537
349.571
348.912
348.318
347.617
347.007
346.339
345.286
344.048
343.011
342.213
339.367
340.056
340.804
341.631
342.158
342.683
343.11
343.063
343.313
343.33
343.301
342.759
342.227
341.632
341.023
340.524
339.618
338.517
337.626
336.915
333.508
334.113
334.694
335.456
335.87
336.305
336.735
336.693
336.892
336.914
336.88
336.426
335.969
335.475
334.925
334.552
333.754
332.831
332.069
331.452
327.552
328.068
328.517
329.163
329.489
329.862
330.188
330.219
330.353
330.419
330.303
329.975
329.625
329.17
328.72
328.443
327.792
327.068
326.418
325.906
321.481
321.891
322.28
322.756
323.014
323.336
323.602
323.661
323.753
323.779
323.657
323.436
323.165
322.801
322.409
322.249
321.745
321.18
320.66
320.245
315.402
315.683
315.93
316.276
316.487
316.719
316.912
316.979
317.091
317.073
316.93
316.799
316.592
316.365
316.049
315.954
315.599
315.211
314.867
314.477
309.28
309.44
309.607
309.782
309.915
310.075
310.147
310.244
310.295
310.29
310.172
310.116
309.988
309.854
309.685
309.615
309.392
309.171
308.989
308.655
303.111
303.168
303.196
303.28
303.297
303.391
303.42
303.446
303.455
303.467
303.434
303.392
303.36
303.325
303.25
303.233
303.136
303.073
303.027
302.903
346.532
347.539
348.53
349.248
350.037
350.5
350.948
350.989
351.075
351.142
350.722
350.599
349.872
349.204
348.59
347.933
346.873
345.872
344.537
343.676
340.62
341.488
342.377
343.001
343.681
344.077
344.529
344.518
344.615
344.706
344.329
344.259
343.568
342.973
342.479
341.898
340.996
340.087
338.995
338.251
334.551
335.328
336.057
336.643
337.179
337.486
337.913
337.889
337.99
338.052
337.749
337.728
337.106
336.565
336.21
335.703
334.944
334.132
333.27
332.61
328.383
328.998
329.617
330.144
330.614
330.85
331.148
331.171
331.252
331.306
331.067
331.067
330.551
330.091
329.857
329.379
328.756
328.095
327.344
326.839
322.14
322.609
323.079
323.547
323.94
324.114
324.271
324.333
324.387
324.454
324.312
324.283
323.887
323.496
323.316
322.961
322.435
321.985
321.402
320.945
315.839
316.176
316.547
316.901
317.155
317.292
317.38
317.429
317.475
317.545
317.479
317.409
317.122
316.857
316.766
316.437
316.049
315.78
315.35
314.98
309.521
309.732
309.944
310.187
310.328
310.429
310.481
310.477
310.522
310.57
310.527
310.483
310.303
310.152
310.139
309.869
309.656
309.515
309.257
308.981
303.202
303.255
303.341
303.423
303.459
303.487
303.523
303.538
303.541
303.547
303.526
303.531
303.454
303.412
303.404
303.29
303.232
303.196
303.114
302.989
347.94
348.803
349.657
350.824
351.389
351.907
352.463
352.571
352.598
352.545
352.266
352.073
351.598
350.867
350.24
349.382
348.288
347.222
345.929
345.171
341.849
342.523
343.331
344.389
344.802
345.286
345.808
345.909
345.937
345.934
345.638
345.446
345.041
344.454
343.917
343.153
342.243
341.27
340.162
339.559
335.588
336.155
336.849
337.796
338.097
338.497
338.975
339.04
339.121
339.14
338.853
338.657
338.363
337.895
337.439
336.761
335.982
335.178
334.242
333.734
329.251
329.691
330.26
331.07
331.349
331.657
332.062
332.082
332.247
332.167
331.936
331.762
331.537
331.124
330.814
330.315
329.6
328.961
328.164
327.816
322.815
323.151
323.641
324.268
324.486
324.695
325.018
325.056
325.229
325.14
324.903
324.776
324.636
324.292
324.093
323.738
323.089
322.637
322.023
321.735
316.348
316.602
316.935
317.396
317.55
317.691
317.936
317.957
318.113
318.03
317.857
317.728
317.642
317.387
317.265
317.006
316.503
316.206
315.86
315.582
309.833
310.025
310.213
310.45
310.549
310.649
310.79
310.817
310.94
310.872
310.757
310.656
310.61
310.431
310.423
310.207
309.924
309.763
309.576
309.375
303.313
303.365
303.444
303.514
303.531
303.577
303.634
303.635
303.67
303.664
303.609
303.569
303.547
303.49
303.482
303.424
303.339
303.284
303.221
303.136
349.269
350.098
351.056
352.04
352.767
353.459
353.619
354.031
354.157
353.999
354.007
353.423
352.933
352.322
351.781
350.702
349.591
348.442
347.485
346.467
343.018
343.724
344.563
345.436
346.041
346.641
346.818
347.163
347.275
347.136
347.164
346.696
346.277
345.717
345.231
344.366
343.37
342.366
341.57
340.688
336.651
337.192
337.926
338.694
339.218
339.686
339.828
340.104
340.229
340.158
340.099
339.796
339.441
338.905
338.504
337.847
336.969
336.113
335.476
334.671
330.156
330.601
331.171
331.826
332.226
332.601
332.717
332.989
333.103
333.004
332.905
332.716
332.438
332.016
331.625
331.175
330.372
329.743
329.221
328.572
323.558
323.916
324.33
324.835
325.164
325.489
325.527
325.751
325.832
325.741
325.636
325.578
325.325
324.991
324.656
324.351
323.658
323.253
322.863
322.335
316.859
317.12
317.424
317.808
318.043
318.234
318.252
318.417
318.485
318.468
318.344
318.356
318.168
317.892
317.635
317.439
316.899
316.722
316.396
316.048
310.116
310.327
310.486
310.707
310.84
310.946
310.988
311.094
311.099
311.125
311.051
311.095
310.948
310.759
310.601
310.491
310.166
310.044
309.868
309.686
303.374
303.481
303.525
303.58
303.628
303.674
303.664
303.732
303.732
303.712
303.708
303.734
303.694
303.604
303.555
303.552
303.398
303.385
303.302
303.248
350.445
351.428
352.408
353.169
353.902
354.619
355.013
355.351
355.659
355.536
355.431
355.164
354.376
353.663
353.2
352.182
350.912
349.7
348.503
347.607
343.996
344.839
345.714
346.391
347.007
347.652
347.993
348.286
348.614
348.491
348.413
348.167
347.48
346.901
346.506
345.624
344.536
343.44
342.416
341.718
337.426
338.13
338.88
339.471
339.977
340.527
340.807
341.033
341.44
341.294
341.224
340.948
340.427
339.998
339.568
338.892
337.968
336.988
336.153
335.608
330.733
331.307
331.893
332.436
332.861
333.24
333.579
333.693
334.119
333.962
333.858
333.635
333.235
332.944
332.53
332.02
331.286
330.428
329.763
329.328
324.001
324.443
324.819
325.339
325.625
325.898
326.228
326.295
326.66
326.526
326.405
326.271
325.926
325.723
325.407
325.047
324.433
323.802
323.284
322.928
317.171
317.504
317.775
318.159
318.348
318.497
318.803
318.83
319.129
318.987
318.931
318.883
318.583
318.42
318.175
317.957
317.509
317.082
316.717
316.427
310.308
310.531
310.7
310.92
311.031
311.102
311.332
311.301
311.547
311.424
311.399
311.407
311.187
311.071
310.915
310.814
310.53
310.293
310.084
309.893
303.449
303.517
303.579
303.65
303.688
303.723
303.809
303.77
303.9
303.846
303.833
303.839
303.735
303.703
303.654
303.616
303.511
303.451
303.372
303.334
351.567
352.553
353.49
354.325
355.216
355.863
356.284
356.646
356.762
356.784
356.555
356.443
355.558
355.061
354.169
353.467
352.209
351.065
349.728
348.863
344.973
345.824
346.67
347.345
348.148
348.742
349.114
349.468
349.521
349.512
349.365
349.301
348.568
348.093
347.318
346.749
345.585
344.643
343.434
342.726
338.262
338.975
339.673
340.25
340.907
341.47
341.801
342.122
342.159
342.109
342.001
341.957
341.373
340.947
340.327
339.868
338.791
338.067
336.977
336.391
331.445
332.017
332.598
333.065
333.592
334.071
334.334
334.582
334.733
334.592
334.469
334.514
334.016
333.673
333.185
332.795
331.894
331.324
330.332
329.923
324.57
325.055
325.463
325.762
326.177
326.609
326.753
326.961
327.136
327.004
326.869
326.989
326.57
326.3
325.937
325.587
324.907
324.477
323.646
323.344
317.57
317.965
318.257
318.471
318.745
319.082
319.142
319.292
319.487
319.344
319.25
319.376
319.053
318.859
318.606
318.301
317.845
317.52
316.929
316.753
310.574
310.837
310.981
311.123
311.262
311.464
311.522
311.596
311.76
311.681
311.565
311.706
311.471
311.349
311.193
311
310.76
310.531
310.182
310.096
303.554
303.653
303.683
303.752
303.781
303.845
303.859
303.882
303.966
303.923
303.888
303.931
303.849
303.797
303.773
303.694
303.618
303.535
303.43
303.388
352.559
353.442
354.663
355.49
356.484
357.258
357.48
357.788
358.01
358.004
357.955
357.678
356.948
356.34
355.433
354.651
353.2
352.044
350.877
349.736
345.921
346.626
347.754
348.449
349.293
349.957
350.153
350.413
350.619
350.614
350.609
350.348
349.725
349.224
348.419
347.723
346.538
345.474
344.468
343.5
339.106
339.684
340.636
341.201
341.903
342.504
342.678
342.916
343.094
343.062
343.102
342.819
342.331
341.957
341.189
340.603
339.693
338.74
337.864
337.076
332.174
332.607
333.387
333.826
334.459
334.915
335.078
335.261
335.395
335.404
335.449
335.2
334.814
334.51
333.923
333.384
332.66
331.903
331.128
330.527
325.158
325.441
326.065
326.402
326.906
327.284
327.36
327.526
327.621
327.653
327.629
327.476
327.192
326.949
326.497
326.083
325.523
324.948
324.305
323.904
318.009
318.207
318.636
318.935
319.29
319.589
319.567
319.724
319.808
319.832
319.792
319.718
319.465
319.288
318.986
318.724
318.316
317.895
317.426
317.187
310.823
310.963
311.24
311.394
311.629
311.829
311.768
311.849
311.911
311.949
311.894
311.849
311.725
311.621
311.422
311.271
311.043
310.766
310.47
310.384
303.629
303.686
303.777
303.803
303.913
303.981
303.948
303.956
303.988
304.021
303.992
303.979
303.948
303.91
303.835
303.78
303.725
303.613
303.501
303.489
353.422
354.674
355.69
356.756
357.499
358.231
358.657
359.083
359.234
359.133
358.977
358.745
357.959
357.506
356.535
355.54
354.649
353.349
351.847
350.757
346.586
347.702
348.556
349.505
350.128
350.819
351.206
351.554
351.682
351.584
351.51
351.259
350.627
350.214
349.378
348.525
347.757
346.593
345.304
344.351
339.614
340.622
341.32
342.131
342.642
343.231
343.607
343.873
343.951
343.855
343.834
343.594
343.16
342.736
342.014
341.355
340.689
339.675
338.597
337.805
332.529
333.378
333.981
334.603
335.005
335.501
335.835
336.077
336.087
336.018
336.024
335.812
335.477
335.113
334.518
334.005
333.512
332.659
331.757
331.116
325.366
326.027
326.499
327.012
327.317
327.726
327.985
328.142
328.145
328.106
328.108
327.953
327.683
327.417
326.936
326.571
326.229
325.507
324.815
324.304
318.158
318.625
318.939
319.323
319.552
319.868
320.065
320.152
320.154
320.115
320.161
320.013
319.815
319.657
319.266
319.063
318.819
318.308
317.804
317.428
310.912
311.212
311.404
311.592
311.764
311.948
312.114
312.146
312.116
312.07
312.142
312.071
311.93
311.806
311.587
311.488
311.351
311.033
310.722
310.489
303.659
303.757
303.846
303.874
303.958
304.001
304.08
304.068
304.07
304.038
304.08
304.042
304.023
303.973
303.893
303.844
303.809
303.703
303.598
303.533
354.435
355.348
356.425
357.581
358.342
359.027
359.428
359.888
360.184
360.132
359.996
359.632
358.954
358.217
357.5
356.703
355.636
354.124
352.888
351.684
347.489
348.215
349.23
350.219
350.895
351.496
351.832
352.279
352.528
352.473
352.403
352.027
351.456
350.818
350.23
349.501
348.639
347.208
346.218
345.182
340.363
340.942
341.932
342.705
343.318
343.803
344.095
344.521
344.705
344.649
344.592
344.268
343.774
343.246
342.795
342.135
341.439
340.166
339.395
338.495
333.144
333.617
334.473
335.064
335.621
336.029
336.226
336.614
336.764
336.655
336.66
336.399
335.956
335.544
335.243
334.662
334.077
333.007
332.412
331.69
325.874
326.225
326.897
327.319
327.795
328.151
328.262
328.598
328.741
328.641
328.608
328.422
328.052
327.737
327.52
327.067
326.581
325.766
325.323
324.793
318.561
318.815
319.27
319.592
319.928
320.159
320.237
320.493
320.622
320.517
320.528
320.391
320.119
319.853
319.698
319.361
319.027
318.483
318.174
317.79
311.199
311.329
311.595
311.797
311.979
312.144
312.191
312.296
312.427
312.345
312.374
312.277
312.126
311.946
311.831
311.664
311.449
311.156
310.948
310.738
303.755
303.807
303.888
303.947
304.021
304.083
304.09
304.129
304.179
304.131
304.149
304.11
304.073
304.028
303.97
303.937
303.851
303.758
303.683
303.627
355.191
356.015
357.234
358.463
359.201
359.89
360.432
360.761
361.176
361.003
360.895
360.493
359.905
359.202
358.313
357.472
356.375
354.877
353.723
352.407
348.15
348.764
349.854
350.976
351.657
352.192
352.69
352.981
353.376
353.193
353.114
352.786
352.235
351.607
350.906
350.215
349.227
347.929
346.955
345.817
340.923
341.434
342.418
343.369
343.959
344.409
344.807
345.038
345.426
345.241
345.179
344.902
344.419
343.87
343.325
342.776
341.967
340.769
339.988
339.042
333.592
334.026
334.819
335.63
336.14
336.497
336.806
336.983
337.333
337.182
337.105
336.913
336.474
336.067
335.619
335.141
334.543
333.524
332.872
332.141
326.211
326.571
327.172
327.809
328.198
328.486
328.729
328.851
329.148
329.022
328.974
328.834
328.432
328.163
327.828
327.452
327.006
326.179
325.667
325.122
318.808
319.027
319.479
319.945
320.159
320.445
320.574
320.712
320.862
320.766
320.767
320.682
320.374
320.171
319.954
319.715
319.35
318.76
318.415
318.037
311.317
311.465
311.747
312.003
312.113
312.297
312.388
312.476
312.561
312.473
312.498
312.453
312.288
312.135
311.998
311.889
311.599
311.315
311.079
310.868
303.788
303.856
303.941
304.006
304.065
304.144
304.151
304.19
304.2
304.185
304.183
304.176
304.124
304.083
304.032
303.98
303.879
303.797
303.729
303.658
355.686
356.843
357.882
359.244
359.974
360.808
361.123
361.611
361.871
362.102
361.688
361.246
360.748
360.04
359.037
358.216
357.102
355.536
354.276
353.221
348.583
349.545
350.462
351.645
352.287
353.047
353.277
353.713
354
354.171
353.795
353.444
353.058
352.406
351.564
350.855
349.837
348.495
347.462
346.536
341.311
342.1
342.905
343.894
344.477
345.143
345.309
345.668
345.97
346.024
345.754
345.476
345.14
344.571
343.959
343.329
342.443
341.262
340.401
339.677
333.913
334.525
335.259
336.056
336.587
337.052
337.176
337.528
337.825
337.773
337.553
337.357
337.059
336.63
336.165
335.657
334.922
333.93
333.215
332.735
326.478
326.883
327.514
328.087
328.559
328.898
328.949
329.325
329.554
329.444
329.29
329.091
328.912
328.558
328.212
327.914
327.317
326.512
325.954
325.6
318.954
319.217
319.732
320.072
320.483
320.668
320.705
321.034
321.206
321.084
320.996
320.781
320.679
320.454
320.216
320.057
319.606
318.986
318.582
318.364
311.4
311.56
311.861
312.064
312.322
312.412
312.453
312.689
312.772
312.665
312.627
312.478
312.441
312.314
312.156
312.097
311.803
311.428
311.206
311.052
303.837
303.871
303.971
304.056
304.139
304.151
304.174
304.269
304.289
304.243
304.261
304.201
304.165
304.144
304.061
304.048
303.956
303.828
303.769
303.695
356.327
357.324
358.425
359.645
360.683
361.253
361.508
362.196
362.504
362.642
362.307
362.068
361.496
360.639
359.879
358.74
357.831
356.2
354.913
353.837
349.124
349.971
350.934
351.969
352.888
353.362
353.574
354.215
354.525
354.6
354.363
354.176
353.681
352.992
352.293
351.259
350.495
349.035
347.924
347.014
341.756
342.467
343.219
344.154
344.947
345.332
345.496
346.083
346.379
346.415
346.217
346.102
345.691
345.126
344.524
343.656
342.959
341.722
340.796
340.059
334.27
334.887
335.433
336.301
336.884
337.205
337.325
337.85
338.158
338.13
337.994
337.87
337.543
337.136
336.626
335.949
335.306
334.302
333.539
332.961
326.729
327.191
327.647
328.3
328.741
328.996
329.136
329.539
329.783
329.747
329.684
329.547
329.277
329.031
328.632
328.094
327.504
326.77
326.207
325.729
319.147
319.442
319.812
320.259
320.55
320.715
320.879
321.154
321.346
321.304
321.296
321.192
320.929
320.829
320.477
320.161
319.695
319.176
318.806
318.407
311.535
311.691
311.907
312.176
312.319
312.437
312.578
312.705
312.811
312.812
312.791
312.761
312.573
312.561
312.326
312.154
311.901
311.556
311.298
311.074
303.856
303.921
304.004
304.077
304.137
304.167
304.225
304.259
304.264
304.295
304.305
304.293
304.211
304.215
304.168
304.069
303.988
303.862
303.776
303.716
356.663
357.741
359.021
360.052
361.029
361.792
362.185
362.793
363.138
363.041
362.644
362.409
361.99
361.332
360.37
359.3
358.198
356.558
355.458
353.944
349.401
350.331
351.407
352.302
353.159
353.838
354.174
354.728
355.05
354.957
354.626
354.41
354.124
353.538
352.699
351.776
350.831
349.386
348.427
347.156
342.012
342.771
343.648
344.432
345.181
345.754
345.977
346.5
346.799
346.721
346.435
346.318
346.076
345.532
344.838
344.053
343.256
341.995
341.226
340.228
334.526
335.171
335.809
336.455
337.094
337.516
337.701
338.206
338.47
338.389
338.134
338.053
337.857
337.424
336.792
336.149
335.517
334.524
333.907
333.125
326.969
327.425
327.934
328.39
328.887
329.209
329.395
329.834
330.028
329.958
329.762
329.681
329.531
329.203
328.712
328.131
327.704
326.972
326.486
325.863
319.347
319.618
319.998
320.327
320.673
320.891
321.021
321.375
321.525
321.466
321.279
321.235
321.133
320.911
320.611
320.076
319.852
319.309
319.002
318.573
311.622
311.831
312.014
312.227
312.44
312.547
312.617
312.83
312.981
312.909
312.765
312.737
312.735
312.572
312.378
312.053
311.927
311.582
311.449
311.193
303.887
303.954
304.02
304.103
304.176
304.221
304.223
304.299
304.351
304.331
304.261
304.264
304.273
304.221
304.158
304.034
303.985
303.889
303.839
303.757
356.987
357.996
359.355
360.36
361.178
362.058
362.616
363.185
363.508
363.325
363.07
362.898
362.472
361.601
360.455
359.512
358.479
356.993
355.733
354.434
349.666
350.498
351.658
352.605
353.301
354.068
354.601
355.05
355.368
355.233
354.978
354.812
354.471
353.708
352.753
351.921
350.969
349.686
348.591
347.519
342.221
342.886
343.854
344.715
345.303
345.987
346.395
346.819
347.043
346.974
346.75
346.595
346.319
345.642
344.884
344.175
343.321
342.261
341.316
340.425
334.673
335.175
336.021
336.721
337.203
337.793
338.079
338.458
338.609
338.604
338.387
338.31
338.088
337.469
336.887
336.32
335.572
334.724
333.916
333.225
327.036
327.444
328.086
328.642
329.033
329.501
329.738
330.012
330.114
330.159
329.957
329.912
329.753
329.222
328.772
328.354
327.764
327.104
326.467
325.867
319.385
319.639
320.091
320.496
320.798
321.121
321.307
321.533
321.599
321.572
321.502
321.399
321.347
320.911
320.596
320.287
319.835
319.422
318.943
318.484
311.655
311.813
312.091
312.309
312.515
312.678
312.803
312.969
313.048
312.971
312.96
312.872
312.838
312.603
312.373
312.179
311.906
311.66
311.361
311.136
303.92
303.956
304.056
304.147
304.184
304.242
304.302
304.364
304.4
304.338
304.346
304.32
304.327
304.207
304.139
304.091
303.991
303.898
303.779
303.745
)
;

boundaryField
{
    hotSide
    {
        type            fixedGradient;
        gradient        nonuniform List<scalar> 
400
(
350.148
366.614
382.946
399.07
414.914
430.402
445.459
460.013
473.989
487.319
499.932
511.764
522.753
532.842
541.978
550.113
557.204
563.216
568.117
571.885
357.171
374.101
390.898
407.488
423.795
439.742
455.252
470.25
484.659
498.408
511.426
523.645
535.002
545.437
554.896
563.329
570.693
576.949
582.066
586.019
363.115
380.462
397.679
414.689
431.416
447.779
463.7
479.101
493.905
508.037
521.425
534
545.695
556.45
566.209
574.919
582.537
589.022
594.343
598.473
367.956
385.671
403.258
420.641
437.739
454.472
470.76
486.521
501.679
516.155
529.876
542.771
554.773
565.818
575.849
584.814
592.665
599.363
604.873
609.17
371.683
389.713
407.62
425.324
442.744
459.798
476.403
492.479
507.946
522.724
536.738
549.916
562.189
573.492
583.767
592.959
601.022
607.913
613.598
618.049
374.294
392.585
410.757
428.729
446.418
463.741
480.615
496.957
512.685
527.72
541.985
555.406
567.912
579.439
589.927
599.319
607.568
614.631
620.472
625.064
375.798
394.294
412.675
430.859
448.763
466.302
483.392
499.948
515.89
531.135
545.605
559.227
571.928
583.642
594.308
603.87
612.278
619.49
625.469
630.186
376.209
394.853
413.386
431.726
449.788
467.488
484.74
501.459
517.563
532.969
547.599
561.377
574.231
586.094
596.904
606.604
615.143
622.479
628.574
633.399
375.552
394.285
412.913
431.35
449.514
467.317
484.676
501.504
517.718
533.236
547.977
561.866
574.831
586.803
597.72
607.524
616.165
623.599
629.787
634.701
373.855
392.619
411.282
429.759
447.965
465.817
483.226
500.109
516.38
531.957
546.762
560.715
573.747
585.787
596.772
606.647
615.358
622.862
629.121
634.105
371.152
389.888
408.527
426.984
445.177
463.018
480.422
497.304
513.579
529.165
543.982
557.954
571.007
583.073
594.09
603.999
612.749
620.295
626.6
631.632
367.479
386.129
404.686
423.066
441.186
458.96
476.302
493.128
509.354
524.897
539.677
553.619
566.65
578.701
589.709
599.617
608.373
615.933
622.258
627.318
362.877
381.384
399.8
418.046
436.036
453.686
470.911
487.626
503.749
519.198
533.893
547.758
560.721
572.715
583.675
593.546
602.276
609.82
616.141
621.207
357.389
375.695
393.915
411.969
429.773
447.243
464.296
480.848
496.816
512.12
526.68
540.422
553.273
565.168
576.042
585.841
594.512
602.011
608.301
613.352
351.057
369.108
387.077
404.884
422.447
439.684
456.512
472.847
488.609
503.718
518.096
531.669
544.366
556.12
566.871
576.562
585.142
592.568
598.803
603.816
343.926
361.67
379.335
396.842
414.112
431.063
447.613
463.682
479.189
494.055
508.205
521.564
534.064
545.64
556.229
565.778
574.237
581.561
587.716
592.671
336.045
353.43
370.74
387.897
404.822
421.437
437.661
453.415
468.619
483.197
497.074
510.178
522.441
533.799
544.192
553.566
561.873
569.07
575.12
579.996
327.459
344.438
361.345
378.104
394.638
410.869
426.72
442.112
456.968
471.214
484.776
497.585
509.573
520.677
530.84
540.009
548.135
555.178
561.102
565.879
318.22
334.748
351.207
367.522
383.619
399.422
414.856
429.843
444.31
458.184
471.392
483.867
495.544
506.361
516.262
525.196
533.115
539.981
545.757
550.417
308.377
324.414
340.382
356.213
371.832
387.166
402.141
416.685
430.723
444.186
457.004
469.111
480.443
490.942
500.553
509.224
516.912
523.577
529.186
533.712
)
;
    }
    coldSide
    {
        type            mixed;
        refValue        uniform 300;
        refGradient     uniform 0;
        valueFraction   uniform 0.991591;
        source          uniform 0;
        value           nonuniform List<scalar> 
400
(
300.021
300.022
300.023
300.024
300.025
300.025
300.026
300.027
300.028
300.028
300.029
300.03
300.031
300.031
300.032
300.032
300.032
300.032
300.033
300.033
300.022
300.022
300.023
300.024
300.025
300.026
300.027
300.027
300.028
300.029
300.03
300.031
300.031