/*--------------------------------*- C++ -*----------------------------------*\
| =========                 |                                                 |
| \\      /  F ield         | OpenFOAM: The Open Source CFD Toolbox           |
|  \\    /   O peration     | Version:  2212                                  |
|   \\  /    A nd           | Website:  www.openfoam.com                      |
|    \\/     M anipulation  |                                                 |
\*---------------------------------------------------------------------------*/
FoamFile
{
    version     2.0;
    format      ascii;
    arch        "LSB;label=32;scalar=64";
    class       volScalarField;
    location    "0";
    object      stateMean;
}
// * * * * * * * * * * * * * * * * * * * * * * * * * * * * * * * * * * * * * //

dimensions      [0 0 0 1 0 0 0];

internalField   nonuniform List<scalar> 
3200
(
344.555
345.444
346.388
347.229
347.929
348.666
349.067
349.381
349.638
349.644
349.582
349.342
348.884
348.32
347.77
347.03
346.129
345.095
344.101
343.094
338.62
339.418
340.307
341.048
341.63
342.12
342.626
342.904
343.067
343.08
342.951
342.804
342.417
341.987
341.477
340.786
340.004
339.135
338.192
337.493
332.802
333.386
334.104
334.707
335.229
335.725
336.068
336.382
336.461
336.408
336.45
336.179
335.944
335.542
335.098
334.463
333.862
333.108
332.332
331.727
326.912
327.327
328.039
328.432
328.891
329.298
329.519
329.765
329.865
329.896
329.799
329.723
329.402
329.122
328.752
328.286
327.743
327.106
326.478
325.915
320.938
321.332
321.784
322.202
322.482
322.735
322.968
323.164
323.25
323.232
323.202
323.121
322.943
322.681
322.333
321.988
321.579
321.125
320.62
320.28
314.977
315.291
315.53
315.883
316.078
316.275
316.468
316.56
316.566
316.621
316.616
316.461
316.419
316.202
316.053
315.792
315.445
315.143
314.769
314.463
309.052
309.024
309.313
309.521
309.683
309.803
309.85
309.895
309.979
310.014
309.954
309.945
309.828
309.769
309.565
309.523
309.24
309.071
308.905
308.673
303.024
303.088
303.112
303.228
303.229
303.295
303.249
303.354
303.324
303.364
303.342
303.326
303.256
303.276
303.196
303.193
303.123
303.065
303.005
302.932
345.332
346.26
347.258
348.141
348.928
349.493
349.979
350.403
350.604
350.618
350.474
350.329
349.831
349.295
348.738
347.865
346.963
345.935
344.908
343.907
339.431
340.165
340.936
341.713
342.417
342.879
343.359
343.624
343.729
343.859
343.753
343.586
343.231
342.804
342.176
341.532
340.676
339.874
338.942
338.13
333.413
333.976
334.676
335.276
335.861
336.353
336.693
336.95
337.134
337.078
337.094
336.806
336.628
336.232
335.681
335.112
334.457
333.72
332.957
332.186
327.282
327.809
328.375
328.977
329.39
329.771
330.018
330.173
330.351
330.404
330.344
330.223
329.961
329.576
329.221
328.784
328.199
327.602
326.889
326.379
321.317
321.626
322.071
322.484
322.891
323.169
323.399
323.556
323.613
323.665
323.571
323.418
323.24
323.043
322.778
322.39
321.965
321.466
320.961
320.519
315.137
315.392
315.697
316.053
316.357
316.527
316.72
316.773
316.862
316.932
316.896
316.774
316.703
316.536
316.177
315.972
315.665
315.334
314.986
314.684
309.126
309.36
309.462
309.688
309.818
309.892
310.074
310.109
310.122
310.172
310.096
310.113
310.045
309.882
309.81
309.579
309.423
309.217
309.011
308.818
303.128
303.105
303.133
303.225
303.267
303.349
303.336
303.387
303.4
303.496
303.414
303.402
303.426
303.351
303.316
303.196
303.129
303.039
303.004
302.999
346.463
347.35
348.35
349.343
350.043
350.694
351.211
351.566
351.803
351.85
351.677
351.506
351.036
350.621
349.848
349.168
348.204
347.177
345.928
344.998
340.309
341.117
341.948
342.745
343.489
343.974
344.383
344.739
344.846
344.981
344.817
344.656
344.271
343.849
343.264
342.51
341.706
340.797
339.911
339.016
334.107
334.699
335.49
336.172
336.755
337.238
337.533
337.822
337.998
337.985
337.943
337.733
337.398
337.12
336.483
335.969
335.333
334.55
333.705
332.984
327.914
328.47
329.034
329.57
330.052
330.351
330.785
330.931
331.103
331.089
331.035
330.877
330.71
330.273
329.887
329.467
328.986
328.265
327.542
327.062
321.767
322.164
322.592
322.987
323.391
323.668
323.912
324.07
324.174
324.202
324.219
323.994
323.818
323.586
323.277
322.934
322.402
321.924
321.44
321.05
315.57
315.852
316.135
316.357
316.673
316.914
317.039
317.178
317.28
317.238
317.274
317.166
317.055
316.815
316.702
316.356
316.073
315.655
315.315
315.007
309.317
309.467
309.684
309.835
310.053
310.167
310.3
310.342
310.36
310.288
310.369
310.328
310.199
310.169
310.055
309.849
309.644
309.397
309.163
308.946
303.131
303.184
303.239
303.35
303.322
303.368
303.395
303.402
303.435
303.481
303.565
303.425
303.478
303.38
303.314
303.332
303.253
303.125
303.056
303.027
347.646
348.602
349.631
350.529
351.348
352.027
352.559
352.939
353.085
353.156
353.038
352.862
352.449
351.822
351.24
350.397
349.437
348.369
347.244
346.174
341.244
342.064
342.934
343.737
344.524
345.021
345.537
345.808
346.024
346.061
345.973
345.788
345.375
344.911
344.311
343.639
342.806
341.833
340.875
339.969
334.92
335.606
336.317
337.055
337.564
338.192
338.414
338.751
338.917
338.936
338.961
338.759
338.411
337.971
337.553
336.949
336.215
335.451
334.609
333.863
328.57
329.151
329.709
330.273
330.721
331.149
331.475
331.691
331.828
331.875
331.785
331.619
331.465
331.062
330.611
330.191
329.59
328.946
328.233
327.698
322.198
322.658
323.1
323.599
323.916
324.248
324.489
324.696
324.707
324.804
324.751
324.642
324.438
324.141
323.789
323.502
323.045
322.478
322.041
321.552
315.889
316.189
316.481
316.803
317.122
317.25
317.524
317.602
317.708
317.695
317.704
317.613
317.436
317.233
317.06
316.714
316.414
316.14
315.79
315.389
309.526
309.744
309.946
310.125
310.332
310.441
310.544
310.584
310.645
310.625
310.565
310.588
310.491
310.383
310.21
310.115
309.917
309.695
309.418
309.157
303.111
303.243
303.364
303.388
303.396
303.47
303.496
303.438
303.543
303.539
303.559
303.576
303.547
303.481
303.424
303.328
303.32
303.257
303.175
303.185
348.723
349.698
350.808
351.783
352.575
353.342
353.82
354.241
354.44
354.532
354.37
354.128
353.734
353.135
352.509
351.551
350.658
349.526
348.373
347.371
342.287
343.085
344.013
344.823
345.581
346.159
346.573
347.012
347.169
347.187
347.156
346.895
346.508
346.086
345.486
344.686
343.896
342.918
341.901
341.045
335.844
336.415
337.26
337.908
338.582
338.997
339.46
339.752
339.919
339.909
339.767
339.601
339.312
338.971
338.457
337.823
337.043
336.319
335.421
334.728
329.309
329.809
330.454
331.093
331.514
331.898
332.258
332.49
332.655
332.675
332.581
332.436
332.207
331.846
331.448
330.961
330.331
329.655
329.035
328.44
322.738
323.221
323.691
324.101
324.537
324.764
325.102
325.261
325.428
325.411
325.333
325.207
325.099
324.758
324.472
324.077
323.604
323.089
322.578
322.121
316.299
316.569
316.928
317.281
317.499
317.806
317.927
318.049
318.143
318.065
318.126
318.018
317.943
317.576
317.425
317.106
316.844
316.573
315.969
315.779
309.654
309.937
310.179
310.331
310.496
310.638
310.753
310.787
310.904
310.889
310.847
310.853
310.764
310.615
310.5
310.326
310.082
309.851
309.673
309.401
303.267
303.369
303.377
303.441
303.493
303.599
303.552
303.633
303.65
303.659
303.558
303.654
303.639
303.56
303.49
303.433
303.388
303.336
303.232
303.169
349.826
350.843
351.974
352.93
353.82
354.554
355.086
355.434
355.675
355.764
355.703
355.389
355.009
354.452
353.73
352.842
351.857
350.696
349.504
348.379
343.227
344.091
344.958
345.852
346.603
347.218
347.692
347.994
348.243
348.297
348.171
347.98
347.654
347.086
346.49
345.759
344.868
343.922
342.852
342.045
336.625
337.189
338.048
338.779
339.373
339.936
340.359
340.644
340.814
340.793
340.754
340.573
340.307
339.92
339.313
338.722
337.956
337.151
336.299
335.568
329.941
330.479
331.184
331.699
332.253
332.629
333
333.238
333.441
333.375
333.373
333.292
332.929
332.643
332.118
331.609
331.037
330.38
329.661
329.089
323.318
323.78
324.264
324.729
325.161
325.397
325.689
325.927
325.946
325.927
325.969
325.781
325.576
325.377
325.034
324.594
324.104
323.684
323.125
322.628
316.72
317.015
317.309
317.706
317.868
318.115
318.333
318.478
318.592
318.578
318.518
318.435
318.36
318.08
317.905
317.614
317.278
316.85
316.465
316.171
310.034
310.198
310.338
310.578
310.759
310.954
311.01
311.081
311.16
311.183
311.158
311.106
310.952
310.886
310.686
310.574
310.318
310.138
309.92
309.734
303.346
303.493
303.376
303.498
303.581
303.608
303.668
303.715
303.735
303.752
303.746
303.699
303.672
303.621
303.581
303.559
303.416
303.411
303.306
303.264
350.994
351.889
353.028
354.1
354.964
355.648
356.241
356.669
356.907
356.983
357
356.687
356.276
355.632
354.969
354.01
352.966
351.863
350.61
349.496
344.2
345.056
346.015
346.876
347.689
348.217
348.685
349.088
349.306
349.368
349.249
349.094
348.728
348.192
347.548
346.774
345.903
344.906
343.823
342.908
337.364
338.089
338.829
339.645
340.276
340.764
341.306
341.607
341.679
341.772
341.661
341.536
341.156
340.695
340.188
339.608
338.869
337.958
337.071
336.295
330.585
331.154
331.785
332.417
332.878
333.353
333.71
333.878
334.105
334.108
334.123
333.932
333.735
333.325
332.948
332.367
331.709
331.143
330.311
329.656
323.796
324.265
324.794
325.296
325.65
325.878
326.197
326.381
326.564
326.497
326.48
326.42
326.196
325.897
325.599
325.21
324.674
324.178
323.6
323.124
317.003
317.324
317.687
317.996
318.36
318.567
318.75
318.818
318.932
319.027
318.936
318.865
318.738
318.473
318.259
317.893
317.658
317.238
316.9
316.543
310.206
310.398
310.629
310.807
310.995
311.164
311.293
311.398
311.371
311.351
311.371
311.331
311.273
311.028
311.032
310.896
310.559
310.367
310.039
309.915
303.409
303.538
303.543
303.615
303.63
303.741
303.76
303.779
303.79
303.829
303.738
303.808
303.784
303.755
303.635
303.684
303.549
303.463
303.399
303.338
351.952
353.02
354.136
355.172
356.064
356.785
357.408
357.826
358.029
358.16
358.005
357.854
357.25
356.775
356.019
355.118
354.107
352.939
351.681
350.494
344.955
345.892
346.889
347.784
348.543
349.206
349.676
350.067
350.321
350.415
350.262
350.037
349.676
349.13
348.568
347.664
346.859
345.751
344.717
343.757
338.032
338.821
339.63
340.373
341.115
341.631
342.061
342.335
342.499
342.61
342.527
342.377
341.987
341.587
341.07
340.38
339.546
338.741
337.839
337.025
331.15
331.816
332.484
333.03
333.586
333.997
334.395
334.66
334.772
334.874
334.741
334.637
334.39
334.035
333.577
333.015
332.37
331.676
330.96
330.315
324.285
324.692
325.199
325.744
326.199
326.503
326.729
326.958
327.07
327.09
327.013
326.882
326.721
326.398
326.165
325.666
325.12
324.606
324.052
323.537
317.369
317.615
318.08
318.379
318.691
318.854
319.151
319.244
319.295
319.325
319.347
319.253
319.118
318.87
318.583
318.287
317.933
317.606
317.183
316.829
310.395
310.624
310.851
310.993
311.227
311.343
311.395
311.526
311.61
311.628
311.616
311.547
311.5
311.304
311.265
310.979
310.792
310.542
310.344
310.09
303.476
303.532
303.615
303.67
303.805
303.859
303.872
303.843
303.832
303.936
303.959
303.886
303.853
303.783
303.736
303.654
303.59
303.504
303.443
303.46
352.832
353.85
355.125
356.209
357.08
357.875
358.396
358.846
359.128
359.266
359.135
358.898
358.442
357.863
357.122
356.069
355.083
353.897
352.571
351.445
345.781
346.656
347.744
348.704
349.44
349.974
350.617
350.93
351.204
351.26
351.187
350.989
350.565
350.067
349.425
348.624
347.69
346.677
345.645
344.559
338.743
339.487
340.386
341.061
341.81
342.348
342.89
343.134
343.381
343.352
343.33
343.107
342.803
342.362
341.822
341.039
340.418
339.557
338.476
337.693
331.752
332.332
332.98
333.7
334.249
334.686
335.055
335.3
335.462
335.534
335.426
335.233
335.05
334.697
334.2
333.645
332.989
332.275
331.564
330.863
324.591
325.164
325.719
326.176
326.562
326.932
327.207
327.436
327.536
327.612
327.64
327.436
327.191
326.96
326.661
326.143
325.711
324.983
324.542
324.003
317.666
317.932
318.361
318.749
318.939
319.182
319.475
319.582
319.751
319.662
319.681
319.595
319.39
319.271
318.995
318.682
318.294
317.918
317.514
317.177
310.569
310.788
310.98
311.223
311.394
311.605
311.674
311.783
311.737
311.822
311.819
311.812
311.559
311.612
311.369
311.202
310.965
310.764
310.513
310.288
303.568
303.611
303.626
303.782
303.818
303.874
303.899
303.918
303.924
303.954
303.945
303.978
303.925
303.893
303.86
303.807
303.698
303.613
303.506
303.379
353.668
354.815
355.991
357.113
358.089
358.877
359.401
359.874
360.101
360.176
360.146
359.809
359.406
358.819
358.082
357.098
355.989
354.78
353.52
352.374
346.492
347.48
348.454
349.366
350.263
350.96
351.474
351.902
352.175
352.175
352.036
351.849
351.449
350.958
350.277
349.485
348.481
347.498
346.389
345.418
339.409
340.144
340.99
341.771
342.526
343.101
343.529
343.863
344.013
344.084
344.014
343.801
343.559
343.011
342.462
341.89
341.064
340.129
339.196
338.366
332.194
332.847
333.546
334.219
334.777
335.261
335.571
335.891
336.06
336.003
335.988
335.839
335.609
335.241
334.778
334.135
333.566
332.804
331.998
331.42
325.06
325.529
326.162
326.622
327.093
327.363
327.748
327.895
328.009
328.079
327.981
327.838
327.658
327.401
327.066
326.633
326.09
325.454
324.947
324.44
317.922
318.333
318.608
319.065
319.281
319.593
319.816
319.918
319.994
319.994
319.963
319.916
319.767
319.602
319.28
318.998
318.645
318.211
317.87
317.448
310.721
310.948
311.206
311.4
311.58
311.831
311.92
311.951
312.037
312.028
312.037
311.976
311.892
311.737
311.561
311.377
311.163
310.947
310.649
310.492
303.596
303.672
303.748
303.776
303.906
304.009
303.97
303.986
304.055
303.973
304.015
304.01
303.921
303.955
303.926
303.84
303.7
303.622
303.52
303.551
354.478
355.587
356.861
357.92
358.834
359.699
360.329
360.771
360.999
361.087
361.067
360.736
360.326
359.743
358.894
358.033
356.852
355.659
354.376
353.183
347.212
348.155
349.207
350.228
350.968
351.642
352.212
352.602
352.814
352.929
352.902
352.645
352.215
351.751
351
350.164
349.292
348.146
347.042
345.952
339.969
340.666
341.599
342.423
343.193
343.721
344.142
344.506
344.74
344.723
344.665
344.467
344.147
343.71
343.173
342.485
341.651
340.72
339.799
338.995
332.71
333.399
334.006
334.757
335.292
335.767
336.132
336.437
336.566
336.523
336.564
336.381
336.151
335.783
335.327
334.697
334.018
333.301
332.529
331.919
325.432
325.934
326.458
326.956
327.396
327.784
328.076
328.299
328.479
328.434
328.423
328.311
328.111
327.846
327.422
326.979
326.483
325.872
325.287
324.728
318.203
318.446
318.918
319.282
319.612
319.877
320.075
320.166
320.355
320.383
320.252
320.259
320.088
319.879
319.58
319.312
318.899
318.466
318.011
317.731
310.911
311.096
311.362
311.583
311.756
311.931
312.057
312.139
312.223
312.193
312.237
312.14
312.085
311.902
311.796
311.547
311.393
311.085
310.844
310.682
303.681
303.683
303.843
303.881
303.953
303.976
304.094
304.072
304.081
304.098
304.078
304.034
304.055
303.966
303.945
303.923
303.82
303.741
303.655
303.581
355.167
356.423
357.549
358.669
359.625
360.35
361.112
361.584
361.795
361.915
361.827
361.504
361.115
360.52
359.693
358.736
357.625
356.325
354.997
353.796
347.818
348.754
349.797
350.819
351.665
352.293
352.902
353.27
353.543
353.671
353.592
353.288
352.89
352.362
351.648
350.822
349.859
348.809
347.684
346.765
340.47
341.252
342.172
342.966
343.642
344.315
344.72
345.051
345.295
345.268
345.292
345.096
344.76
344.212
343.689
343.032
342.189
341.253
340.291
339.46
333.183
333.716
334.469
335.186
335.78
336.194
336.529
336.859
337.004
337.097
337.019
336.818
336.56
336.147
335.79
335.143
334.612
333.698
332.954
332.249
325.768
326.248
326.832
327.341
327.774
328.162
328.414
328.623
328.75
328.851
328.786
328.706
328.406
328.196
327.745
327.352
326.883
326.242
325.595
325.156
318.404
318.784
319.195
319.485
319.787
320.099
320.317
320.512
320.535
320.624
320.616
320.444
320.343
320.116
319.808
319.55
319.199
318.76
318.373
317.947
311.014
311.332
311.537
311.735
311.892
312.09
312.194
312.332
312.311
312.284
312.398
312.356
312.218
312.085
311.982
311.698
311.573
311.222
311.042
310.815
303.735
303.737
303.887
303.944
304.046
304.063
304.095
304.165
304.156
304.134
304.144
304.101
304.139
304.062
303.958
303.94
303.938
303.832
303.709
303.563
355.78
356.862
358.084
359.326
360.326
361.149
361.805
362.212
362.565
362.673
362.605
362.284
361.871
361.137
360.404
359.484
358.295
357.115
355.68
354.438
348.352
349.267
350.407
351.383
352.281
352.929
353.477
353.918
354.082
354.262
354.186
353.995
353.472
352.964
352.222
351.526
350.475
349.428
348.244
347.146
340.898
341.699
342.574
343.425
344.206
344.788
345.203
345.553
345.808
345.897
345.781
345.675
345.313
344.837
344.224
343.497
342.634
341.752
340.772
339.933
333.421
334.125
334.858
335.563
336.149
336.577
336.977
337.266
337.449
337.504
337.461
337.34
337.005
336.624
336.173
335.567
334.888
334.117
333.33
332.693
326.031
326.474
327.086
327.634
328.055
328.484
328.74
329
329.165
329.167
329.12
328.951
328.83
328.462
328.115
327.701
327.144
326.508
325.86
325.418
318.576
318.992
319.339
319.748
320.116
320.337
320.605
320.674
320.817
320.877
320.808
320.738
320.581
320.301
320.056
319.786
319.41
318.904
318.544
318.12
311.147
311.357
311.576
311.84
312.016
312.266
312.347
312.418
312.494
312.491
312.466
312.38
312.316
312.214
312.04
311.888
311.59
311.391
311.033
310.835
303.727
303.837
303.972
304.036
304.06
304.125
304.146
304.102
304.162
304.193
304.235
304.216
304.164
304.01
304.065
303.948
303.896
303.884
303.711
303.632
356.296
357.391
358.704
359.872
360.836
361.68
362.368
362.782
363.161
363.211
363.163
362.899
362.412
361.761
361.007
360.008
358.979
357.582
356.185
355.03
348.847
349.81
350.835
351.938
352.671
353.43
354.013
354.484
354.646
354.767
354.694
354.417
354.086
353.475
352.814
351.945
351.039
349.846
348.73
347.633
341.276
342.121
343.063
343.8
344.616
345.156
345.704
345.987
346.253
346.315
346.242
346.082
345.769
345.264
344.663
344.009
343.037
342.164
341.26
340.325
333.736
334.498
335.133
335.84
336.502
336.97
337.356
337.67
337.814
337.878
337.902
337.662
337.452
336.981
336.467
335.961
335.289
334.497
333.656
332.955
326.37
326.764
327.339
327.828
328.417
328.74
329.089
329.244
329.372
329.438
329.423
329.282
329.035
328.747
328.367
327.938
327.396
326.757
326.156
325.704
318.728
319.14
319.541
319.834
320.266
320.456
320.761
320.927
321.062
321.089
320.949
320.932
320.699
320.517
320.279
319.963
319.645
319.119
318.67
318.341
311.35
311.416
311.762
311.977
312.195
312.38
312.483
312.638
312.688
312.632
312.609
312.574
312.525
312.329
312.132
312.024
311.743
311.45
311.2
311.006
303.795
303.867
303.94
304.019
304.059
304.129
304.228
304.211
304.229
304.203
304.166
304.254
304.152
304.2
304.052
303.998
303.933
303.865
303.797
303.679
356.78
357.822
359.168
360.27
361.307
362.185
362.881
363.347
363.66
363.691
363.637
363.345
362.899
362.288
361.495
360.459
359.358
358.001
356.795
355.479
349.158
350.095
351.14
352.24
353.151
353.913
354.408
354.866
355.13
355.165
355.157
355.024
354.528
353.946
353.206
352.407
351.464
350.182
349.156
348.114
341.584
342.429
343.365
344.135
344.93
345.531
346.092
346.414
346.588
346.7
346.566
346.407
346.143
345.605
345.009
344.228
343.388
342.491
341.536
340.734
334.084
334.684
335.434
336.125
336.735
337.268
337.708
337.957
338.096
338.148
338.132
337.983
337.727
337.333
336.863
336.189
335.57
334.75
333.968
333.231
326.484
326.982
327.586
328.13
328.65
328.936
329.23
329.515
329.648
329.757
329.64
329.468
329.313
329.009
328.652
328.129
327.633
326.939
326.411
325.841
318.975
319.279
319.705
319.999
320.393
320.688
320.888
321.026
321.17
321.122
321.174
321.028
320.886
320.717
320.507
320.105
319.706
319.318
318.893
318.51
311.371
311.558
311.808
312.019
312.236
312.428
312.5
312.636
312.738
312.699
312.713
312.66
312.583
312.426
312.344
312.032
311.883
311.501
311.33
311.172
303.848
303.834
304.008
304.063
304.048
304.208
304.273
304.291
304.306
304.222
304.208
304.304
304.178
304.176
304.121
304.037
303.979
303.878
303.856
303.776
356.971
358.173
359.468
360.707
361.682
362.551
363.22
363.677
364.008
364.16
364.111
363.799
363.339
362.661
361.875
360.821
359.708
358.441
357.012
355.83
349.402
350.469
351.502
352.537
353.439
354.165
354.784
355.176
355.417
355.597
355.462
355.207
354.871
354.285
353.574
352.718
351.71
350.615
349.408
348.272
341.852
342.656
343.559
344.387
345.244
345.846
346.292
346.643
346.927
346.934
346.893
346.759
346.354
345.883
345.329
344.541
343.749
342.798
341.82
340.935
334.173
334.857
335.644
336.322
336.952
337.475
337.927
338.211
338.333
338.371
338.429
338.212
337.861
337.599
337.015
336.373
335.716
334.993
334.113
333.415
326.693
327.106
327.662
328.224
328.786
329.114
329.429
329.731
329.781
329.853
329.831
329.659
329.411
329.238
328.831
328.291
327.795
327.123
326.67
326.03
319.035
319.396
319.891
320.194
320.469
320.845
321.055
321.229
321.251
321.388
321.256
321.238
321.056
320.841
320.572
320.3
319.832
319.386
318.928
318.554
311.444
311.665
311.879
312.107
312.306
312.514
312.676
312.768
312.851
312.799
312.789
312.744
312.596
312.513
312.404
312.129
311.917
311.6
311.431
311.126
303.885
303.991
303.994
304.063
304.153
304.152
304.247
304.288
304.258
304.328
304.309
304.273
304.222
304.199
304.165
304.109
304.043
303.88
303.798
303.811
357.199
358.426
359.73
360.925
362.019
362.841
363.437
363.996
364.316
364.423
364.299
364.073
363.639
362.933
362.156
361.162
360.02
358.698
357.368
356.051
349.633
350.601
351.681
352.767
353.629
354.426
355.006
355.471
355.681
355.742
355.706
355.441
355.074
354.534
353.847
352.959
351.971
350.812
349.64
348.515
341.998
342.832
343.768
344.578
345.351
345.987
346.533
346.924
347.068
347.179
347.137
346.91
346.55
346.112
345.53
344.853
343.945
342.953
341.945
341.081
334.366
335.074
335.78
336.553
337.057
337.631
338.025
338.304
338.487
338.58
338.565
338.369
338.068
337.631
337.173
336.69
335.913
335.108
334.318
333.598
326.701
327.23
327.807
328.427
328.777
329.228
329.528
329.79
329.927
329.979
329.877
329.847
329.642
329.284
328.905
328.49
327.881
327.313
326.66
326.136
319.108
319.482
319.873
320.198
320.621
320.89
321.129
321.342
321.394
321.41
321.307
321.285
321.094
320.91
320.669
320.361
319.949
319.516
319.066
318.69
311.489
311.642
311.902
312.204
312.434
312.485
312.688
312.745
312.781
312.878
312.907
312.828
312.65
312.586
312.419
312.181
312.03
311.654
311.43
311.217
303.813
303.871
304.064
304.051
304.07
304.222
304.247
304.284
304.311
304.336
304.288
304.317
304.275
304.197
304.127
304.092
303.981
303.859
303.81
303.761
357.395
358.573
359.877
361.061
362.107
362.975
363.697
364.24
364.509
364.562
364.499
364.205
363.864
363.175
362.347
361.27
360.135
358.885
357.436
356.21
349.706
350.682
351.799
352.911
353.702
354.564
355.197
355.581
355.841
355.923
355.852
355.547
355.212
354.663
353.878
353.056
352.098
351.021
349.793
348.713
342.092
342.916
343.884
344.739
345.432
346.171
346.689
347.027
347.201
347.326
347.23
346.975
346.701
346.206
345.556
344.962
344.081
343.135
342.017
341.265
334.412
335.068
335.928
336.581
337.154
337.755
338.167
338.405
338.656
338.631
338.641
338.542
338.211
337.767
337.276
336.675
336.03
335.242
334.406
333.745
326.795
327.298
327.953
328.447
329.014
329.331
329.663
329.86
330.007
330.041
330.04
329.922
329.744
329.377
329.006
328.501
328.009
327.36
326.717
326.254
319.156
319.491
319.933
320.266
320.66
320.947
321.159
321.326
321.478
321.486
321.451
321.318
321.168
320.96
320.774
320.352
319.927
319.559
319.126
318.722
311.516
311.722
311.914
312.165
312.393
312.55
312.73
312.79
312.913
312.931
312.878
312.796
312.725
312.636
312.516
312.238
312.064
311.761
311.514
311.264
303.918
303.917
303.982
304.05
304.212
304.171
304.241
304.21
304.319
304.288
304.304
304.327
304.288
304.209
304.191
304.113
304.022
303.925
303.778
303.777
357.418
358.565
359.874
361.126
362.175
362.997
363.647
364.202
364.541
364.697
364.576
364.377
363.863
363.23
362.461
361.422
360.235
358.94
357.503
356.281
349.741
350.738
351.905
352.888
353.84
354.647
355.182
355.627
355.886
356.006
355.922
355.656
355.265
354.793
354.041
353.178
352.223
351.095
349.877
348.791
342.123
342.937
343.838
344.804
345.442
346.205
346.647
347.052
347.275
347.292
347.302
347.093
346.787
346.294
345.673
345
344.143
343.21
342.132
341.3
334.374
335.201
335.912
336.576
337.245
337.819
338.164
338.512
338.695
338.721
338.673
338.61
338.242
337.819
337.348
336.762
336.087
335.331
334.35
333.759
326.82
327.348
327.919
328.484
328.955
329.379
329.676
329.916
330.09
330.067
330.112
329.951
329.797
329.42
329.097
328.578
328.075
327.399
326.808
326.243
319.143
319.471
319.91
320.29
320.782
321.005
321.216
321.39
321.466
321.518
321.502
321.4
321.27
321.091
320.711
320.49
320.028
319.548
319.132
318.746
311.573
311.655
311.982
312.174
312.447
312.633
312.696
312.807
312.912
312.902
312.9
312.847
312.753
312.621
312.468
312.241
312.029
311.811
311.523
311.321
303.884
303.878
303.976
304.089
304.166
304.209
304.276
304.383
304.259
304.325
304.376
304.302
304.253
304.278
304.193
304.128
304.064
303.969
303.867
303.802
357.361
358.582
359.949
361.084
362.181
362.97
363.779
364.239
364.553
364.691
364.59
364.341
363.889
363.293
362.459
361.452
360.253
358.959
357.538
356.24
349.683
350.763
351.757
352.9
353.854
354.54
355.192
355.595
355.939
356.013
355.923
355.756
355.276
354.809
354.069
353.194
352.137
351.07
349.779
348.826
342.112
342.973
343.855
344.789
345.479
346.162
346.627
347.042
347.264
347.443
347.321
347.092
346.801
346.315
345.684
344.998
344.145
343.111
342.191
341.268
334.415
335.189
335.856
336.657
337.217
337.793
338.226
338.501
338.724
338.766
338.68
338.526
338.285
337.83
337.336
336.783
336.105
335.231
334.49
333.82
326.852
327.322
327.949
328.487
328.95
329.378
329.739
329.88
330.057
330.214
330.109
330.059
329.76
329.462
329.029
328.575
328.053
327.467
326.773
326.273
319.11
319.491
319.917
320.344
320.688
321.032
321.23
321.356
321.473
321.527
321.485
321.412
321.267
320.989
320.759
320.473
320.035
319.625
319.111
318.793
311.499
311.707
311.925
312.203
312.41
312.588
312.767
312.781
312.846
312.99
312.913
312.876
312.718
312.587
312.454
312.297
311.979
311.768
311.504
311.284
303.89
303.927
304.049
304.084
304.156
304.205
304.303
304.322
304.328
304.279
304.268
304.378
304.294
304.276
304.179
304.119
304.031
303.935
303.843
303.815
)
;

boundaryField
{
    hotSide
    {
        type            fixedGradient;
        gradient        nonuniform List<scalar> 
400
(
321.511
322.87
325.591
329.677
335.133
341.965
350.181
359.788
370.794
383.208
397.037
412.289
428.971
447.088
466.647
487.651
510.105
534.011
559.372
586.191
323.738
325.08
327.767
331.802
337.194
343.949
352.078
361.591
372.498
384.81
398.537
413.687
430.268
448.289
467.755
488.672
511.043
534.872
560.161
586.913
326.149
327.47
330.116
334.091
339.406
346.071
354.099
363.503
374.296
386.491
400.101
415.136
431.606
449.52
468.885
489.706
511.988
535.735
560.948
587.63
328.704
330
332.597
336.503
341.73
348.292
356.205
365.485
376.15
388.215
401.695
416.604
432.954
450.753
470.009
490.73
512.919
536.579
561.714
588.325
331.33
332.599
335.142
338.97
344.099
350.546
358.332
367.477
378.003
389.928
403.271
418.047
434.27
451.949
471.095
491.712
513.807
537.382
562.439
588.978
333.918
335.158
337.643
341.389
346.414
352.74
360.392
369.397
379.779
391.562
404.765
419.407
435.503
453.065
472.101
492.618
514.622
538.114
563.096
589.569
336.321
337.531
339.959
343.622
348.544
354.751
362.274
371.142
381.385
393.031
406.101
420.618
436.595
454.047
472.983
493.409
515.33
538.747
563.663
590.076
338.36
339.543
341.92
345.509
350.339
356.44
363.847
372.595
382.718
394.244
407.2
421.608
437.485
454.844
473.695
494.045
515.897
539.253
564.114
590.478
339.852
341.015
343.352
346.885
351.645
357.665
364.985
373.643
383.675
395.113
407.984
422.312
438.116
455.407
474.197
494.491
516.294
539.606
564.428
590.758
340.643
341.795
344.11
347.613
352.334
358.311
365.584
374.193
384.176
395.567
408.393
422.679
438.443
455.699
474.456
494.722
516.498
539.788
564.589
590.901
340.643
341.795
344.11
347.613
352.334
358.311
365.584
374.193
384.176
395.567
408.393
422.679
438.443
455.699
474.456
494.722
516.498
539.788
564.589
590.901
339.852
341.015
343.352
346.885
351.645
357.665
364.985
373.643
383.675
395.113
407.984
422.312
438.116
455.407
474.197
494.491
516.294
539.606
564.428
590.758
338.36
339.543
341.92
345.509
350.339
356.44
363.847
372.595
382.718
394.244
407.2
421.608
437.485
454.844
473.695
494.045
515.897
539.253
564.114
590.478
336.321
337.531
339.959
343.622
348.544
354.751
362.274
371.142
381.385
393.031
406.101
420.618
436.595
454.047
472.983
493.409
515.33
538.747
563.663
590.076
333.918
335.158
337.643
341.389
346.414
352.74
360.392
369.397
379.779
391.562
404.765
419.407
435.503
453.065
472.101
492.618
514.622
538.114
563.096
589.569
331.33
332.599
335.142
338.97
344.099
350.546
358.332
367.477
378.003
389.928
403.271
418.047
434.27
451.949
471.095
491.712
513.807
537.382
562.439
588.978
328.704
330
332.597
336.503
341.73
348.292
356.205
365.485
376.15
388.215
401.695
416.604
432.954
450.753
470.009
490.73
512.919
536.579
561.714
588.325
326.149
327.47
330.116
334.091
339.406
346.071
354.099
363.503
374.296
386.491
400.101
415.136
431.606
449.52
468.885
489.706
511.988
535.735
560.948
587.63
323.738
325.08
327.767
331.802
337.194
343.949
352.078
361.591
372.498
384.81
398.537
413.687
430.268
448.289
467.755
488.672
511.043
534.872
560.161
586.913
321.511
322.87
325.591
329.677
335.133
341.965
350.181
359.788
370.794
383.208
397.037
412.289
428.971
447.088
466.647
487.651
510.105
534.011
559.372
586.191
)
;
    }
    coldSide
    {
        type            mixed;
        refValue        uniform 300;
        refGradient     uniform 0;
        valueFraction   uniform 0.991591;
        source          uniform 0;
        value           nonuniform List<scalar> 
400
(
300.025
300.026
300.026
300.026
300.027
300.028
300.029
300.029
300.03
300.03
300.031
300.031
300.031
300.032
300.032
300.033
300.032
300.033
300.033
300.033
300.026
300.026
300.027
300.027
300.028
300.029
300.03
300.03
300.03
300.031
300.031
300.031
300.032
300.033
300.032
300.034
300.033
300.033
300.033
300.033