/*--------------------------------*- C++ -*----------------------------------*\
| =========                 |                                                 |
| \\      /  F ield         | OpenFOAM: The Open Source CFD Toolbox           |
|  \\    /   O peration     | Version:  2212                                  |
|   \\  /    A nd           | Website:  www.openfoam.com                      |
|    \\/     M anipulation  |                                                 |
\*---------------------------------------------------------------------------*/
FoamFile
{
    version     2.0;
    format      ascii;
    arch        "LSB;label=32;scalar=64";
    class       volScalarField;
    location    "./ITHACAoutput/true/9.2";
    object      error;
}
// * * * * * * * * * * * * * * * * * * * * * * * * * * * * * * * * * * * * * //

dimensions      [0 0 0 1 0 0 0];

internalField   nonuniform List<scalar> 
3200
(
1.27165
1.02537
0.873191
0.848798
0.93957
1.0777
1.2624
1.57486
1.87451
1.8837
2.11494
2.09496
1.97458
1.84657
1.80169
1.75683
1.88266
2.02306
2.27133
2.614
1.09462
0.857192
0.753352
0.683446
0.765587
0.880577
1.06373
1.29769
1.55733
1.64166
1.73439
1.81859
1.68583
1.61135
1.53407
1.46452
1.54146
1.69444
1.93816
2.16562
0.897902
0.759435
0.541568
0.577798
0.600314
0.690829
0.868759
1.0629
1.27941
1.37229
1.43351
1.42133
1.40153
1.32799
1.25683
1.17528
1.24485
1.41449
1.65778
1.85253
0.692938
0.622047
0.423635
0.451632
0.500757
0.535294
0.72474
0.862669
0.99228
1.12144
1.13498
1.10304
1.09099
0.968806
0.954817
1.00278
1.07228
1.14704
1.28824
1.54485
0.556987
0.396412
0.378181
0.375925
0.332294
0.385767
0.569983
0.597903
0.808757
0.868984
0.838913
0.898072
0.828708
0.831357
0.821758
0.782125
0.795146
0.830123
1.03018
1.15051
0.416932
0.311407
0.354458
0.228739
0.230246
0.281739
0.387761
0.425631
0.576846
0.619181
0.528731
0.580623
0.624732
0.591442
0.570494
0.534304
0.519051
0.6461
0.726526
0.850368
0.200515
0.199545
0.135559
0.141978
0.125251
0.141862
0.228326
0.294529
0.275129
0.312039
0.471904
0.359735
0.318162
0.380695
0.368687
0.275179
0.325594
0.366081
0.423191
0.500529
0.0470623
-0.0231576
0.0352788
0.089972
0.0989879
0.0216219
0.0286123
0.0743353
0.0828658
0.135717
0.162599
0.100755
0.107612
0.167066
0.157098
0.0697114
0.116986
0.111455
0.138679
0.114818
0.385895
0.120107
-0.0336735
-0.169011
-0.0553876
-0.0479324
0.160355
0.473926
0.706587
0.825066
0.966872
0.991801
0.866058
0.852679
0.73757
0.767871
0.7994
1.06261
1.30741
1.65551
0.409726
0.0487966
-0.0650635
-0.162404
-0.0737455
0.0561553
0.238447
0.396806
0.606076
0.754216
0.873384
0.855333
0.789376
0.708871
0.66561
0.67128
0.690808
0.895302
1.13604
1.49403
0.30547
0.0680865
-0.0381872
-0.0647907
-0.080035
0.00807828
0.195425
0.35309
0.58769
0.698957
0.694089
0.808625
0.659534
0.532176
0.494367
0.547446
0.686219
0.723784
1.02365
1.17197
0.283327
0.16664
0.0169843
-0.0541845
-0.0344914
0.0520669
0.153103
0.39765
0.448005
0.586894
0.598924
0.579708
0.557427
0.475374
0.499961
0.460463
0.488023
0.631182
0.8277
1.01969
0.155359
0.0610057
-0.0581867
-0.0137965
0.0229522
0.0970095
0.0813955
0.269938
0.370379
0.427223
0.407943
0.412506
0.382015
0.446906
0.422165
0.336925
0.446564
0.530054
0.53954
0.79366
0.0956853
0.0966718
-0.0100098
-0.0775443
-0.0233338
0.0479139
0.0653823
0.183195
0.243707
0.335096
0.266725
0.318126
0.312849
0.274747
0.247581
0.24387
0.258426
0.372464
0.441918
0.540013
0.0810763
0.0500674
0.0161469
0.00595319
-0.034725
0.026512
0.101145
0.155502
0.136661
0.193807
0.285907
0.182792
0.240693
0.152284
0.221285
0.135415
0.124833
0.202473
0.321239
0.32389
0.110191
0.000719004
-0.0542701
0.0647832
-0.0162862
-0.0382379
0.0497744
0.0536862
0.0824117
0.0549139
0.0703182
0.114481
0.106395
0.0318982
0.0329482
0.0749073
0.0243258
0.107564
0.0775159
0.150653
-0.657127
-1.02325
-1.25048
-1.37871
-1.38788
-1.28752
-1.08296
-0.836662
-0.638235
-0.474282
-0.356347
-0.422038
-0.409763
-0.492926
-0.472415
-0.533676
-0.422099
-0.220379
0.22863
0.599507
-0.477487
-0.823837
-1.09146
-1.07157
-1.14557
-1.03106
-0.89403
-0.762496
-0.517967
-0.400416
-0.310119
-0.327044
-0.404088
-0.409048
-0.440366
-0.435985
-0.271947
-0.141997
0.225931
0.554104
-0.411982
-0.589992
-0.876027
-0.859224
-0.974945
-0.876552
-0.738285
-0.584894
-0.385283
-0.33278
-0.287304
-0.211882
-0.305905
-0.307107
-0.311311
-0.345775
-0.207113
-0.0593512
0.20148
0.567185
-0.360161
-0.564699
-0.682722
-0.723865
-0.736391
-0.730011
-0.555403
-0.426823
-0.366356
-0.179264
-0.237079
-0.198802
-0.182835
-0.241949
-0.267966
-0.268517
-0.193769
-0.0323797
0.168878
0.404538
-0.253379
-0.408767
-0.540754
-0.538283
-0.618355
-0.530872
-0.445569
-0.347182
-0.22435
-0.148389
-0.119051
-0.180567
-0.198901
-0.20444
-0.218817
-0.223211
-0.161821
-0.0501519
0.156955
0.326427
-0.19009
-0.249499
-0.391065
-0.391545
-0.40177
-0.382767
-0.303503
-0.264662
-0.201899
-0.081098
-0.160325
-0.105375
-0.136851
-0.145769
-0.168739
-0.133073
-0.100984
-0.00796
0.116317
0.206621
-0.0864344
-0.174999
-0.19209
-0.217004
-0.228189
-0.198517
-0.144928
-0.143607
-0.105976
-0.026124
-0.0504369
-0.0862829
-0.0805046
-0.0564519
-0.0394442
-0.0403774
0.0336731
-0.0291881
0.0891549
0.124652
-0.131245
-0.0434034
-0.0925062
-0.103739
-0.0823107
-0.0878783
-0.0987379
-0.0801769
-0.0431633
0.019612
-0.0228052
-0.0288342
0.00684422
0.0389893
-0.0414334
0.0394694
0.0357986
0.00673343
-0.00227721
0.0530864
-1.68202
-2.01113
-2.34792
-2.59722
-2.59074
-2.60586
-2.38435
-2.23535
-1.98234
-1.871
-1.82407
-1.77792
-1.8736
-1.85471
-1.92664
-1.77797
-1.62884
-1.2447
-0.957879
-0.487265
-1.37825
-1.71753
-1.96274
-2.17335
-2.22434
-2.10769
-2.02443
-1.89882
-1.70928
-1.60647
-1.5435
-1.57254
-1.57656
-1.55275
-1.62115
-1.55806
-1.34361
-1.11307
-0.690684
-0.423258
-1.1377
-1.36827
-1.62613
-1.87211
-1.72708
-1.79002
-1.69129
-1.59523
-1.43908
-1.33854
-1.27045
-1.26813
-1.25315
-1.29803
-1.2887
-1.23772
-1.15954
-0.892284
-0.522869
-0.283088
-0.852288
-1.15303
-1.36094
-1.44766
-1.50813
-1.37691
-1.30555
-1.28397
-1.16164
-1.04303
-1.01905
-0.955324
-1.01705
-1.09055
-0.988042
-1.01034
-0.878046
-0.688249
-0.412294
-0.266392
-0.628309
-0.891332
-1.06312
-1.08113
-1.16392
-1.13971
-1.02399
-0.944239
-0.853267
-0.845109
-0.723352
-0.711431
-0.780534
-0.793149
-0.787674
-0.716412
-0.678907
-0.532721
-0.361985
-0.150865
-0.462477
-0.634497
-0.731637
-0.72672
-0.804675
-0.768699
-0.698433
-0.639646
-0.626675
-0.520518
-0.509633
-0.514543
-0.609288
-0.627337
-0.539429
-0.559442
-0.448014
-0.371494
-0.273554
-0.114533
-0.381759
-0.411539
-0.451315
-0.484794
-0.456333
-0.496192
-0.459519
-0.482088
-0.324152
-0.338716
-0.251921
-0.323892
-0.313735
-0.370206
-0.362454
-0.280108
-0.317412
-0.197578
-0.125128
-0.0879445
-0.0043362
-0.130178
-0.157224
-0.130259
-0.14799
-0.172603
-0.13173
-0.110797
-0.105466
-0.12682
-0.0693935
-0.134741
-0.14485
-0.167248
-0.076959
-0.097121
-0.0958618
-0.0329457
-0.0374837
0.0314518
-2.51636
-2.94137
-3.35033
-3.61676
-3.70739
-3.7542
-3.70782
-3.52137
-3.32545
-3.20339
-3.14353
-3.1194
-3.09289
-3.09027
-3.04421
-2.97168
-2.69533
-2.34489
-1.92251
-1.40509
-2.17908
-2.53381
-2.87112
-3.02704
-3.18496
-3.18236
-3.09726
-2.89784
-2.82937
-2.75685
-2.61111
-2.70096
-2.59765
-2.64082
-2.58049
-2.54368
-2.27661
-1.92904
-1.59223
-1.16455
-1.8279
-2.18333
-2.36353
-2.5371
-2.65009
-2.69842
-2.59132
-2.54494
-2.35429
-2.30571
-2.27755
-2.17488
-2.18629
-2.19121
-2.19253
-2.08316
-1.8922
-1.55517
-1.31283
-0.929167
-1.47479
-1.6788
-1.91586
-2.09701
-2.1651
-2.14602
-2.06437
-2.04911
-1.90529
-1.84544
-1.79963
-1.78768
-1.76266
-1.80062
-1.71281
-1.69975
-1.51447
-1.25649
-1.00334
-0.760667
-1.04052
-1.30618
-1.49146
-1.71208
-1.63801
-1.66588
-1.61731
-1.59657
-1.45799
-1.46893
-1.3984
-1.41622
-1.42571
-1.33846
-1.34352
-1.31644
-1.25281
-1.00282
-0.802815
-0.608225
-0.741468
-0.870241
-1.06481
-1.16922
-1.15433
-1.16381
-1.15126
-1.10299
-1.01748
-1.03407
-0.923594
-0.965927
-0.944006
-0.979815
-0.924614
-0.953136
-0.806528
-0.674446
-0.55144
-0.443908
-0.497667
-0.535114
-0.609428
-0.682567
-0.752386
-0.763848
-0.672873
-0.648124
-0.613142
-0.568224
-0.571113
-0.591807
-0.570406
-0.547223
-0.549733
-0.46231
-0.460122
-0.467398
-0.299386
-0.249261
-0.231819
-0.199472
-0.228976
-0.19249
-0.251581
-0.21388
-0.253128
-0.273954
-0.194699
-0.220466
-0.228179
-0.222806
-0.17724
-0.224609
-0.194011
-0.0931199
-0.168546
-0.170421
-0.102646
-0.102648
-3.2887
-3.72393
-4.26777
-4.55735
-4.64915
-4.81916
-4.77167
-4.64219
-4.45966
-4.42643
-4.41288
-4.3466
-4.35204
-4.21456
-4.1538
-3.89955
-3.61744
-3.23945
-2.68238
-2.17864
-2.81333
-3.18733
-3.57748
-3.83972
-3.9805
-4.06251
-4.08102
-3.93558
-3.86301
-3.76412
-3.70402
-3.70348
-3.65147
-3.62492
-3.50881
-3.42488
-3.0684
-2.72941
-2.22254
-1.79161
-2.33749
-2.6176
-3.02183
-3.23936
-3.33883
-3.37094
-3.44841
-3.30022
-3.2564
-3.1568
-3.00667
-3.00641
-3.02887
-3.03969
-2.90122
-2.8297
-2.54484
-2.21065
-1.86171
-1.52966
-1.86239
-2.16737
-2.40243
-2.59906
-2.69048
-2.76818
-2.67732
-2.7179
-2.60587
-2.55136
-2.44715
-2.44841
-2.44195
-2.42374
-2.37115
-2.18119
-2.0545
-1.75815
-1.55423
-1.19969
-1.45533
-1.60618
-1.88105
-1.95977
-2.06705
-2.14629
-2.04744
-2.04052
-2.01052
-1.98839
-1.89996
-1.92766
-1.86034
-1.83378
-1.79154
-1.74933
-1.57051
-1.36057
-1.18548
-0.909067
-1.0465
-1.14762
-1.29569
-1.36574
-1.49915
-1.43879
-1.53844
-1.48268
-1.44536
-1.37127
-1.3626
-1.37432
-1.2864
-1.36693
-1.30852
-1.24015
-1.09901
-1.00483
-0.815115
-0.642025
-0.686511
-0.721196
-0.763407
-0.774926
-0.897834
-0.931469
-0.881996
-0.908794
-0.855053
-0.831751
-0.784159
-0.846369
-0.777613
-0.745887
-0.791799
-0.761453
-0.695831
-0.566022
-0.441846
-0.411709
-0.187754
-0.242762
-0.317973
-0.314505
-0.258141
-0.355196
-0.305198
-0.309305
-0.310078
-0.286517
-0.273182
-0.320326
-0.297941
-0.280348
-0.307703
-0.262506
-0.21189
-0.148783
-0.184183
-0.10543
-3.81479
-4.35303
-4.77504
-5.29322
-5.54665
-5.63188
-5.60282
-5.64352
-5.59405
-5.43622
-5.36554
-5.31671
-5.25228
-5.17136
-5.02033
-4.75318
-4.39835
-3.9235
-3.30248
-2.77155
-3.21324
-3.73098
-4.21527
-4.47896
-4.7463
-4.80363
-4.81485
-4.80438
-4.7422
-4.67044
-4.64761
-4.55375
-4.47266
-4.44604
-4.3488
-3.97989
-3.7543
-3.31234
-2.72896
-2.29243
-2.66132
-3.08121
-3.47133
-3.77571
-3.89679
-3.99506
-4.02023
-4.04299
-3.96288
-3.90019
-3.90148
-3.79352
-3.73642
-3.71271
-3.63056
-3.30782
-3.12866
-2.75228
-2.29805
-1.91572
-2.23978
-2.52706
-2.77887
-3.12189
-3.18147
-3.21437
-3.28769
-3.29446
-3.23971
-3.16926
-3.1231
-3.07335
-3.01685
-3.02708
-2.82275
-2.7641
-2.52574
-2.27646
-1.78911
-1.56271
-1.7535
-1.91318
-2.14217
-2.28675
-2.40673
-2.48692
-2.57336
-2.48412
-2.49793
-2.40562
-2.37955
-2.41719
-2.38794
-2.26597
-2.30367
-2.08802
-1.90668
-1.71918
-1.43204
-1.17284
-1.16802
-1.37495
-1.518
-1.66092
-1.69762
-1.80874
-1.76245
-1.76507
-1.82772
-1.7292
-1.67718
-1.66012
-1.6486
-1.66702
-1.64847
-1.51352
-1.37961
-1.258
-0.979045
-0.858141
-0.740595
-0.807799
-0.947306
-0.952972
-1.03641
-1.13801
-1.03532
-1.12803
-1.08353
-0.981012
-1.07049
-1.00892
-0.989399
-0.87613
-0.941818
-0.90786
-0.789987
-0.721619
-0.571353
-0.462768
-0.192004
-0.306972
-0.246548
-0.362707
-0.425319
-0.361993
-0.308288
-0.312036
-0.421656
-0.367239
-0.39267
-0.341873
-0.3148
-0.356382
-0.382735
-0.335784
-0.307211
-0.261631
-0.183866
-0.144529
-4.15386
-4.70558
-5.35072
-5.82261
-6.05425
-6.25356
-6.31084
-6.37367
-6.30113
-6.23618
-6.18198
-6.12274
-5.94384
-5.85806
-5.67888
-5.32585
-4.96653
-4.39111
-3.72181
-3.10614
-3.52387
-4.06309
-4.48976
-4.86174
-5.21309
-5.34256
-5.40345
-5.39843
-5.46159
-5.36701
-5.26006
-5.23423
-5.185
-4.97193
-4.82353
-4.54054
-4.22183
-3.70846
-3.16086
-2.6435
-2.96085
-3.34895
-3.76854
-4.12178
-4.32558
-4.45073
-4.51796
-4.56469
-4.46323
-4.4549
-4.42674
-4.34473
-4.29011
-4.18058
-4.0255
-3.79414
-3.54362
-3.0734
-2.66493
-2.20294
-2.43187
-2.68925
-2.96531
-3.31963
-3.51684
-3.59991
-3.67014
-3.70087
-3.6308
-3.64481
-3.58586
-3.5722
-3.47264
-3.3648
-3.32626
-3.09197
-2.84397
-2.51347
-2.1059
-1.75478
-1.86751
-2.1448
-2.40188
-2.5562
-2.74112
-2.87578
-2.90423
-2.87275
-2.89541
-2.86101
-2.76561
-2.77052
-2.68846
-2.62581
-2.47868
-2.40341
-2.19693
-1.91663
-1.74761
-1.36032
-1.25651
-1.47307
-1.67179
-1.82137
-1.94026
-2.02007
-2.02686
-1.9815
-2.02152
-1.9966
-1.96659
-2.0038
-1.86223
-1.84349
-1.72116
-1.67067
-1.48607
-1.3496
-1.21492
-0.907823
-0.825576
-0.862028
-0.966193
-1.10802
-1.13986
-1.21801
-1.20828
-1.22224
-1.23848
-1.21566
-1.13518
-1.13587
-1.11102
-1.0966
-1.00455
-0.959153
-0.945247
-0.830561
-0.700114
-0.638023
-0.193829
-0.253782
-0.360918
-0.296317
-0.42538
-0.338335
-0.436513
-0.399478
-0.449609
-0.355107
-0.450816
-0.419086
-0.385614
-0.414096
-0.37289
-0.391097
-0.261593
-0.228928
-0.232159
-0.193525
-4.21913
-4.88657
-5.57894
-6.06243
-6.36676
-6.73302
-6.85207
-6.82073
-6.87732
-6.81821
-6.76035
-6.68908
-6.6088
-6.36177
-6.08011
-5.74656
-5.32086
-4.66511
-3.96267
-3.22087
-3.67186
-4.15189
-4.74382
-5.22662
-5.49923
-5.67677
-5.84067
-5.84944
-5.83318
-5.89327
-5.79193
-5.71417
-5.59239
-5.44807
-5.2882
-4.90349
-4.51928
-3.91425
-3.33092
-2.79842
-3.01552
-3.4821
-3.96101
-4.34132
-4.56674
-4.76612
-4.93186
-4.9551
-4.91609
-4.93801
-4.90743
-4.75093
-4.6884
-4.56121
-4.41656
-4.12688
-3.68154
-3.3136
-2.8113
-2.28359
-2.53609
-2.78826
-3.15792
-3.4988
-3.76503
-3.89281
-3.98134
-4.07145
-3.97507
-3.97536
-4.00568
-3.87693
-3.75825
-3.78151
-3.53003
-3.33918
-3.04332
-2.66848
-2.21682
-1.86858
-1.81861
-2.21664
-2.51881
-2.73103
-2.8684
-2.97885
-3.02863
-3.05092
-3.09179
-3.08797
-3.0658
-3.02365
-2.92905
-2.89989
-2.75697
-2.65885
-2.34931
-2.0741
-1.76843
-1.49267
-1.34517
-1.52876
-1.71923
-1.9091
-2.06785
-2.12241
-2.22393
-2.23174
-2.20401
-2.15801
-2.2129
-2.13145
-2.07395
-2.01729
-1.93453
-1.81265
-1.6828
-1.45368
-1.13342
-0.98645
-0.798011
-0.950548
-1.09311
-1.15226
-1.17878
-1.30595
-1.32897
-1.34015
-1.33351
-1.29978
-1.28112
-1.27062
-1.22978
-1.17723
-1.17597
-1.12102
-1.01811
-0.881629
-0.706831
-0.628778
-0.238626
-0.310571
-0.340379
-0.355317
-0.40486
-0.420166
-0.421019
-0.401245
-0.487139
-0.436228
-0.469044
-0.396223
-0.48697
-0.389992
-0.379067
-0.355147
-0.31435
-0.291835
-0.241171
-0.255258
-4.11209
-4.78516
-5.52834
-6.17092
-6.58629
-6.82226
-7.10198
-7.15273
-7.14521
-7.17265
-7.13345
-7.05854
-6.87008
-6.64951
-6.31903
-5.92239
-5.39905
-4.71661
-3.93068
-3.2218
-3.48395
-4.07882
-4.66887
-5.19043
-5.66656
-5.87291
-6.05856
-6.15415
-6.18928
-6.14052
-6.08071
-6.03196
-5.87217
-5.66727
-5.41608
-5.01241
-4.6377
-3.97449
-3.26107
-2.70659
-2.89072
-3.39022
-3.8915
-4.36663
-4.68343
-4.88287
-5.06423
-5.16482
-5.21423
-5.15263
-5.10279
-5.00142
-4.85908
-4.73834
-4.56012
-4.29837
-3.84271
-3.38297
-2.70526
-2.21539
-2.43946
-2.74741
-3.17558
-3.56952
-3.83278
-3.99587
-4.14064
-4.13735
-4.11618
-4.15385
-4.07998
-4.04862
-3.99
-3.87952
-3.64007
-3.38661
-3.04301
-2.72962
-2.17453
-1.83823
-1.83854
-2.06442
-2.40867
-2.74508
-2.9989
-3.1068
-3.12966
-3.25188
-3.21806
-3.25493
-3.16746
-3.17965
-3.11531
-2.92521
-2.80007
-2.63963
-2.3283
-2.09402
-1.7247
-1.42695
-1.28011
-1.40519
-1.65458
-1.91726
-2.04566
-2.18636
-2.28667
-2.3538
-2.33362
-2.23043
-2.27657
-2.22725
-2.24358
-2.05727
-1.9738
-1.92266
-1.65856
-1.41987
-1.22099
-0.991763
-0.817337
-0.858494
-1.05612
-1.24911
-1.29533
-1.29599
-1.34274
-1.38417
-1.34336
-1.36667
-1.31609
-1.37371
-1.30303
-1.28441
-1.22477
-1.11444
-0.961541
-0.918841
-0.719747
-0.622484
-0.268643
-0.239197
-0.368837
-0.38597
-0.387417
-0.423712
-0.471749
-0.469447
-0.486617
-0.481903
-0.422702
-0.447285
-0.486203
-0.4672
-0.406029
-0.38614
-0.30927
-0.354754
-0.238741
-0.141083
-3.69696
-4.4646
-5.27429
-5.91813
-6.41682
-6.83324
-7.04765
-7.20241
-7.34366
-7.29255
-7.2374
-7.16327
-6.94123
-6.6094
-6.19078
-5.85144
-5.19709
-4.47497
-3.70147
-2.89329
-3.16615
-3.80787
-4.44049
-5.01893
-5.45725
-5.8304
-5.93861
-6.15251
-6.2277
-6.23667
-6.23805
-6.07872
-5.88915
-5.7127
-5.39685
-4.87982
-4.45731
-3.76556
-3.09883
-2.4258
-2.68119
-3.14172
-3.74723
-4.19753
-4.59783
-4.85954
-5.07168
-5.13357
-5.22684
-5.22033
-5.14656
-5.08376
-4.9932
-4.80205
-4.49304
-4.12567
-3.64847
-3.17363
-2.54727
-1.97895
-2.17908
-2.58366
-2.99188
-3.41624
-3.7031
-3.97947
-4.12523
-4.13162
-4.25706
-4.29592
-4.25865
-4.16308
-4.01785
-3.82607
-3.69027
-3.38461
-3.00533
-2.53905
-2.06812
-1.6039
-1.6657
-1.9223
-2.35355
-2.57188
-2.90547
-3.01492
-3.12825
-3.26457
-3.27655
-3.2793
-3.31108
-3.09611
-3.15392
-2.96427
-2.80045
-2.64766
-2.34456
-1.9877
-1.63378
-1.24008
-1.18875
-1.39951
-1.57878
-1.89949
-2.10751
-2.19571
-2.19493
-2.26822
-2.37859
-2.36748
-2.3457
-2.20198
-2.26018
-2.07
-2.01198
-1.78242
-1.66525
-1.43125
-1.08364
-0.866778
-0.689255
-0.814542
-0.995382
-1.11244
-1.24105
-1.35876
-1.35963
-1.39207
-1.39805
-1.43985
-1.38235
-1.33778
-1.31064
-1.24847
-1.20382
-1.08753
-0.950229
-0.800393
-0.622552
-0.55639
-0.25945
-0.278943
-0.357112
-0.376884
-0.386076
-0.405818
-0.479137
-0.444029
-0.494939
-0.494437
-0.450568
-0.442507
-0.482083
-0.412826
-0.449703
-0.36585
-0.259703
-0.3057
-0.149885
-0.149416
-3.0701
-3.89926
-4.70645
-5.38261
-6.02846
-6.48765
-6.8264
-7.02327
-7.11864
-7.1275
-7.03381
-6.90711
-6.71605
-6.42471
-5.96262
-5.54974
-4.83745
-4.08318
-3.18274
-2.34066
-2.62198
-3.35501
-4.08421
-4.61165
-5.18455
-5.54112
-5.82468
-6.02317
-6.07264
-6.12513
-5.95658
-5.90612
-5.71573
-5.53225
-5.10908
-4.66619
-4.08212
-3.3951
-2.65788
-1.93226
-2.14116
-2.75044
-3.30589
-3.90203
-4.26448
-4.61817
-4.83506
-4.99451
-5.07876
-5.09491
-5.01602
-4.97487
-4.82777
-4.6346
-4.25908
-3.88992
-3.40142
-2.88182
-2.1784
-1.58338
-1.77855
-2.15958
-2.72341
-3.16864
-3.47382
-3.74192
-3.91622
-4.04479
-4.10316
-4.13762
-4.117
-3.98057
-3.83634
-3.68938
-3.43175
-3.12016
-2.7519
-2.25422
-1.71882
-1.24048
-1.31823
-1.63153
-2.05054
-2.44004
-2.62653
-2.91842
-3.05565
-3.14577
-3.13411
-3.23819
-3.15856
-3.0801
-2.98133
-2.81029
-2.63551
-2.39071
-2.10214
-1.7533
-1.33676
-0.98167
-0.981743
-1.15717
-1.49673
-1.69895
-1.91107
-2.03268
-2.12219
-2.23479
-2.27026
-2.24143
-2.26845
-2.19779
-2.09782
-2.01455
-1.92107
-1.69628
-1.48001
-1.23471
-0.965198
-0.66717
-0.558517
-0.73402
-0.833434
-1.08229
-1.14939
-1.25492
-1.28417
-1.35587
-1.38049
-1.34793
-1.36344
-1.40057
-1.3359
-1.25945
-1.12692
-1.12132
-0.829855
-0.699207
-0.554485
-0.431927
-0.127965
-0.208891
-0.260497
-0.29942
-0.393192
-0.431064
-0.490211
-0.492176
-0.451413
-0.525545
-0.447667
-0.415274
-0.454569
-0.403198
-0.313178
-0.322605
-0.315237
-0.251108
-0.188018
-0.0919367
-2.24442
-3.06406
-3.98266
-4.78167
-5.38066
-5.90958
-6.22445
-6.5233
-6.62502
-6.70537
-6.60151
-6.47391
-6.25528
-5.94471
-5.4316
-4.90529
-4.14944
-3.33459
-2.31571
-1.40785
-1.832
-2.59294
-3.38974
-4.03942
-4.55904
-5.04998
-5.27191
-5.58197
-5.67298
-5.66884
-5.62931
-5.56607
-5.24738
-5.0628
-4.61615
-4.14757
-3.55607
-2.75785
-1.87686
-1.24883
-1.53996
-2.07742
-2.80977
-3.37099
-3.79043
-4.097
-4.46684
-4.59351
-4.71355
-4.73969
-4.71919
-4.67532
-4.49338
-4.24416
-3.96127
-3.52559
-2.89528
-2.24654
-1.61662
-0.996508
-1.26351
-1.71463
-2.244
-2.65839
-3.08017
-3.38645
-3.59043
-3.7383
-3.81001
-3.86341
-3.81296
-3.69165
-3.57106
-3.35005
-3.11614
-2.7457
-2.35277
-1.87692
-1.25418
-0.791774
-0.955484
-1.271
-1.68873
-2.07348
-2.39815
-2.57725
-2.78299
-2.91838
-2.97924
-2.95897
-2.94695
-2.93016
-2.77024
-2.6194
-2.3687
-2.07055
-1.85618
-1.33978
-0.908336
-0.577315
-0.655168
-0.955616
-1.22235
-1.42991
-1.62438
-1.87721
-2.00629
-2.08312
-2.12079
-2.0912
-2.09382
-2.03698
-1.94601
-1.87308
-1.6332
-1.52604
-1.21121
-1.03101
-0.725575
-0.405118
-0.346371
-0.551755
-0.72616
-0.92174
-1.04724
-1.07063
-1.19335
-1.24939
-1.24877
-1.29539
-1.30948
-1.25255
-1.2182
-1.17741
-1.04019
-0.883266
-0.74107
-0.551298
-0.374415
-0.267397
-0.155081
-0.0938135
-0.230653
-0.362728
-0.338482
-0.37963
-0.359204
-0.358325
-0.439433
-0.365669
-0.397355
-0.473263
-0.4049
-0.4027
-0.413362
-0.364542
-0.245352
-0.175596
-0.100913
-0.0913861
-1.09746
-2.02876
-2.90817
-3.74218
-4.4985
-5.0865
-5.48811
-5.77245
-5.85983
-5.93292
-5.85867
-5.8421
-5.53077
-5.08516
-4.67638
-4.03588
-3.27065
-2.26574
-1.29499
-0.37396
-0.953531
-1.65754
-2.43961
-3.19301
-3.84941
-4.25889
-4.62564
-4.84605
-5.02497
-5.09069
-5.0045
-4.89865
-4.63181
-4.32535
-3.95158
-3.4276
-2.77562
-1.91527
-1.07735
-0.294247
-0.723065
-1.36206
-1.99287
-2.61238
-3.07965
-3.60775
-3.85928
-4.04827
-4.13128
-4.28504
-4.18254
-4.06218
-3.85201
-3.61775
-3.24061
-2.81616
-2.20267
-1.5114
-0.829236
-0.136696
-0.519805
-1.06531
-1.62996
-2.19866
-2.56158
-2.8815
-3.10262
-3.26019
-3.41995
-3.37829
-3.35351
-3.24559
-3.15457
-2.93621
-2.60195
-2.23884
-1.80134
-1.21087
-0.59229
-0.11328
-0.380725
-0.746946
-1.19313
-1.61718
-1.86123
-2.19297
-2.47088
-2.50062
-2.5488
-2.62948
-2.61487
-2.59719
-2.45105
-2.16535
-1.94197
-1.70941
-1.41728
-0.930157
-0.360358
-0.0614013
-0.234921
-0.627235
-0.817549
-1.08851
-1.3251
-1.5365
-1.73707
-1.79922
-1.87729
-1.83768
-1.84754
-1.82281
-1.67852
-1.58594
-1.42934
-1.15259
-1.00091
-0.640711
-0.346771
-0.0775227
-0.184279
-0.280843
-0.474255
-0.673217
-0.796515
-0.880304
-0.991216
-1.05131
-1.05718
-1.0801
-1.14396
-1.00236
-0.96709
-0.952092
-0.860256
-0.697341
-0.55605
-0.383062
-0.239985
-0.0837243
-0.0479436
-0.127755
-0.188915
-0.155304
-0.336848
-0.2766
-0.27999
-0.354863
-0.300906
-0.321175
-0.414351
-0.349722
-0.30549
-0.217754
-0.29849
-0.25845
-0.151417
-0.129414
-0.0489447
-0.0111432
0.321866
-0.566501
-1.60144
-2.54408
-3.29196
-3.83155
-4.36057
-4.62133
-4.77371
-4.94213
-4.86039
-4.68014
-4.43882
-4.02702
-3.50706
-2.86329
-1.98465
-1.08044
-0.0667442
0.998454
0.315888
-0.512078
-1.30645
-2.11953
-2.70948
-3.18966
-3.6636
-3.90406
-4.08861
-4.14993
-4.07232
-3.99975
-3.75884
-3.36351
-2.9151
-2.33255
-1.65704
-0.794936
0.0297681
0.943253
0.36789
-0.33956
-1.04175
-1.66619
-2.25246
-2.60159
-3.00026
-3.2308
-3.4253
-3.38708
-3.39428
-3.36622
-3.11567
-2.8206
-2.42918
-1.92377
-1.30347
-0.623202
0.16269
0.81617
0.30968
-0.212252
-0.853598
-1.26692
-1.83232
-2.13465
-2.55503
-2.64497
-2.68363
-2.832
-2.77338
-2.62689
-2.46914
-2.28977
-1.92522
-1.51411
-1.08633
-0.439965
0.134449
0.742327
0.249189
-0.13595
-0.563494
-0.986096
-1.2547
-1.61895
-1.86843
-1.99335
-2.06468
-2.14408
-2.12221
-2.0154
-1.88998
-1.71633
-1.45541
-1.1855
-0.793285
-0.352422
0.143368
0.619632
0.244844
-0.0966576
-0.360313
-0.635548
-0.983507
-1.22943
-1.33338
-1.36714
-1.50659
-1.50521
-1.44609
-1.38995
-1.30344
-1.28481
-1.01205
-0.799336
-0.548553
-0.1815
0.182246
0.41588
0.117217
-0.0878941
-0.205173
-0.413116
-0.496358
-0.642019
-0.85384
-0.853095
-0.921739
-0.898867
-0.877861
-0.906156
-0.850295
-0.721965
-0.634462
-0.499697
-0.315039
-0.0963439
0.120841
0.322488
0.0250015
-0.0475197
-0.030084
-0.177727
-0.204027
-0.169416
-0.335934
-0.270846
-0.295534
-0.255618
-0.254297
-0.228471
-0.240265
-0.262629
-0.171473
-0.090387
-0.131243
-0.0477056
0.0174616
0.103652
1.99587
1.02242
-0.0223129
-1.00057
-1.82582
-2.42982
-2.94145
-3.3204
-3.53142
-3.62637
-3.56779
-3.46009
-3.12409
-2.69833
-2.14349
-1.41261
-0.552969
0.43984
1.53586
2.49749
1.82064
0.985532
0.0746277
-0.729167
-1.51924
-2.00248
-2.39984
-2.76382
-3.01744
-3.00275
-2.97238
-2.88159
-2.62042
-2.23633
-1.71466
-1.17338
-0.320768
0.48476
1.4753
2.31141
1.57562
0.929808
0.13055
-0.567513
-1.11391
-1.62386
-2.0018
-2.3285
-2.48478
-2.50435
-2.43596
-2.37121
-2.08609
-1.7842
-1.39928
-0.866948
-0.313734
0.453307
1.24881
2.00126
1.35749
0.756285
0.202484
-0.404581
-0.881653
-1.26986
-1.57779
-1.72659
-1.95404
-1.92869
-1.98903
-1.83805
-1.74532
-1.45396
-1.05751
-0.611392
-0.141318
0.44402
1.09224
1.63806
1.00544
0.642474
0.126776
-0.253318
-0.630325
-0.985109
-1.16403
-1.37051
-1.56927
-1.49435
-1.4497
-1.45213
-1.2463
-1.05553
-0.794532
-0.564241
-0.0961565
0.365002
0.912333
1.28872
0.818609
0.439431
0.102227
-0.183064
-0.446469
-0.684567
-0.789383
-0.905278
-1.0403
-1.00809
-1.08237
-0.984214
-0.901039
-0.722316
-0.479413
-0.326585
-0.00771224
0.274836
0.668893
0.878874
0.465397
0.292429
0.104018
-0.14102
-0.225248
-0.391945
-0.522961
-0.568053
-0.617033
-0.595294
-0.669292
-0.635138
-0.536425
-0.442987
-0.302534
-0.110346
-0.0900962
0.12226
0.33669
0.541034
0.179197
0.0785265
0.0522246
-0.169091
-0.0977524
-0.171774
-0.13811
-0.173712
-0.201564
-0.219017
-0.279983
-0.226538
-0.157283
-0.194481
-0.0558329
-0.0763117
-0.044803
0.0433994
0.0648541
0.235888
3.88361
2.79667
1.74551
0.822253
-0.0596649
-0.740721
-1.2974
-1.69173
-1.90965
-2.0814
-2.00474
-1.80186
-1.51988
-1.02153
-0.440995
0.224872
1.19091
2.16617
3.36838
4.37588
3.43569
2.52879
1.60916
0.770487
0.00784149
-0.53045
-0.973723
-1.40798
-1.55672
-1.68189
-1.66427
-1.46857
-1.16766
-0.820493
-0.33432
0.317491
1.10413
2.0169
2.94424
3.94504
2.96037
2.18442
1.48514
0.791471
0.0988909
-0.409194
-0.802191
-1.04969
-1.22474
-1.31665
-1.328
-1.22823
-1.01513
-0.604053
-0.186177
0.333914
0.983114
1.74181
2.5662
3.37198
2.53646
1.87431
1.28677
0.63777
0.166139
-0.266684
-0.592348
-0.836497
-0.984177
-1.0705
-0.997957
-0.863224
-0.697646
-0.433702
-0.12486
0.367084
0.896108
1.50826
2.16765
2.72629
1.96568
1.48076
0.888205
0.536979
0.101095
-0.177799
-0.368424
-0.656812
-0.749461
-0.826856
-0.744625
-0.696835
-0.504608
-0.319994
0.0359621
0.308739
0.750306
1.20173
1.71118
2.13614
1.38452
1.13632
0.74872
0.4127
0.0548859
-0.159673
-0.319805
-0.429166
-0.503064
-0.53016
-0.542168
-0.487839
-0.42627
-0.195315
-0.0212565
0.159141
0.524904
0.843264
1.21089
1.52877
0.780211
0.623762
0.421129
0.212209
0.0631116
-0.0533907
-0.0720926
-0.183075
-0.254543
-0.303407
-0.288978
-0.236135
-0.230334
-0.0438461
-0.00720917
0.102543
0.312919
0.529148
0.720572
0.934826
0.268762
0.246561
0.127701
0.0932743
0.0739943
-0.0860688
-0.0831277
-0.125307
-0.00285814
-0.166001
-0.0881489
-0.0562329
-0.0984524
-0.0083235
-0.0829034
0.00746742
0.0783305
0.159535
0.20699
0.274673
6.03915
4.86022
3.75962
2.74266
1.81545
1.19729
0.503017
0.118986
-0.169735
-0.225193
-0.175476
-0.0444429
0.255199
0.72156
1.41458
2.168
3.03463
4.11803
5.3006
6.38173
5.27327
4.29826
3.39826
2.44202
1.65096
1.1655
0.542987
0.225586
-0.0123599
-0.13051
-0.0570908
0.0903857
0.317533
0.717475
1.31469
1.98238
2.7592
3.70909
4.75456
5.6304
4.47108
3.67817
2.85878
2.12359
1.46403
0.968443
0.551947
0.261953
0.0635755
-0.015603
-0.0562562
0.151302
0.306653
0.768059
1.16696
1.69496
2.4067
3.17886
4.11727
4.78255
3.68175
3.12409
2.37922
1.8234
1.32294
0.81835
0.479715
0.265078
0.0531089
0.0732534
0.0475598
0.0934122
0.323787
0.57049
0.965835
1.5164
1.99441
2.64737
3.38285
3.95343
2.85276
2.37427
1.88199
1.40766
0.977219
0.67844
0.465348
0.190704
0.12733
0.0192053
0.0313887
0.132887
0.299901
0.540306
0.826887
1.2185
1.58845
2.08482
2.62804
3.11914
2.06405
1.73165
1.34313
1.01192
0.710608
0.498992
0.258121
0.210372
0.0547533
-0.00272029
0.0549393
0.0113613
0.213351
0.355054
0.583072
0.847305
1.1629
1.46966
1.89039
2.13004
1.18059
1.09627
0.766696
0.648253
0.437544
0.260332
0.271545
0.115623
0.0151453
0.100493
0.0450056
0.121576
0.125583
0.131318
0.355157
0.481396
0.652326
0.897567
1.13948
1.32216
0.425969
0.329392
0.307839
0.161978
0.140084
0.0940889
0.118641
0.000376819
-0.00405396
0.0425493
0.0601242
0.00185237
0.0338473
0.0644722
0.103584
0.209103
0.226013
0.2616
0.397678
0.362692
8.03022
6.99246
5.80068
4.70478
3.83785
3.12519
2.47727
1.98024
1.72708
1.61225
1.65715
1.73754
2.10194
2.68063
3.27876
4.11997
5.11158
6.16526
7.30287
8.46407
7.00347
6.0774
5.07178
4.11556
3.26954
2.69398
2.19261
1.82066
1.57473
1.44091
1.45922
1.62392
1.92902
2.38217
2.91703
3.68452
4.39378
5.29503
6.34975
7.35369
5.91214
5.14058
4.39049
3.53917
2.91992
2.36263
1.8909
1.51203
1.39569
1.2885
1.30333
1.42253
1.68281
1.97424
2.54989
3.08804
3.73877
4.53193
5.47713
6.20267
4.8505
4.2393
3.5607
2.88869
2.27962
2.02393
1.53401
1.29678
1.16937
1.05257
1.09749
1.17373
1.33612
1.68791
2.05916
2.56734
3.06644
3.75622
4.4534
5.07476
3.74074
3.35333
2.75842
2.29788
1.81962
1.53085
1.17657
1.06589
0.929769
0.794136
0.908878
0.952082
1.16606
1.39179
1.60186
1.97356
2.39574
2.95001
3.4847
3.95073
2.64035
2.32621
2.00696
1.62604
1.37228
1.10551
0.841739
0.76824
0.612136
0.571582
0.607545
0.67249
0.75888
0.957657
1.19195
1.50504
1.73644
2.13449
2.4917
2.81602
1.61296
1.41067
1.2317
0.981612
0.790635
0.63331
0.543618
0.466151
0.400539
0.365477
0.422232
0.401205
0.500302
0.559417
0.684481
0.921713
1.11989
1.25707
1.48601
1.70281
0.544821
0.468084
0.436468
0.323024
0.281252
0.19761
0.19616
0.129474
0.146049
0.0862537
0.141206
0.122629
0.132187
0.171411
0.28702
0.241163
0.381815
0.400592
0.47118
0.537046
9.81308
8.61476
7.47042
6.39555
5.39985
4.64959
4.07324
3.56055
3.28568
3.1648
3.19588
3.35727
3.68974
4.25029
4.87861
5.69831
6.63707
7.81811
9.01072
10.1057
8.36328
7.4387
6.41221
5.4604
4.7308
4.01524
3.47375
3.12378
2.81284
2.70315
2.77616
2.91708
3.18779
3.62133
4.24235
4.93315
5.77865
6.69418
7.79955
8.68401
7.10616
6.30506
5.36961
4.64041
3.93739
3.37989
2.92871
2.64994
2.44397
2.23051
2.38618
2.44602
2.7235
3.07144
3.52506
4.10807
4.84945
5.6802
6.66653
7.31965
5.78069
5.07885
4.39352
3.77102
3.26842
2.7541
2.38658
2.0805
1.92561
1.89712
1.90355
1.99394
2.17631
2.50369
2.89852
3.37825
3.94045
4.61408
5.40797
5.95839
4.38775
4.02082
3.38411
2.95687
2.5357
2.10814
1.85795
1.64421
1.45406
1.36945
1.49036
1.53486
1.68633
1.95455
2.28644
2.57309
3.0286
3.5279
4.11632
4.54986
3.15007
2.85924
2.45443
2.12342
1.82704
1.43495
1.35355
1.17405
0.980599
0.957838
1.01598
1.16408
1.20798
1.32237
1.5998
1.91334
2.22129
2.53936
2.91925
3.27875
1.87329
1.65615
1.50116
1.28873
1.10231
0.838331
0.798765
0.647336
0.633367
0.649684
0.567491
0.688625
0.744662
0.821583
0.990976
1.09258
1.32807
1.50031
1.75311
2.06009
0.673715
0.528048
0.526076
0.453728
0.369457
0.276684
0.203375
0.258777
0.180325
0.205951
0.229144
0.218863
0.234448
0.248234
0.331591
0.344012
0.457376
0.49139
0.558416
0.614064
)
;

boundaryField
{
    hotSide
    {