/*--------------------------------*- C++ -*----------------------------------*\
| =========                 |                                                 |
| \\      /  F ield         | OpenFOAM: The Open Source CFD Toolbox           |
|  \\    /   O peration     | Version:  2212                                  |
|   \\  /    A nd           | Website:  www.openfoam.com                      |
|    \\/     M anipulation  |                                                 |
\*---------------------------------------------------------------------------*/
FoamFile
{
    version     2.0;
    format      ascii;
    arch        "LSB;label=32;scalar=64";
    class       volScalarField;
    location    "0";
    object      relativeErrorField;
}
// * * * * * * * * * * * * * * * * * * * * * * * * * * * * * * * * * * * * * //

dimensions      [0 0 0 1 0 0 0];

internalField   nonuniform List<scalar> 
3200
(
0.00372091
0.00299589
0.00254653
0.0024704
0.00272891
0.00312374
0.00365226
0.00454903
0.00540837
0.00543158
0.00609834
0.00604442
0.00570363
0.00534231
0.00522224
0.00510259
0.00547943
0.00589997
0.00663633
0.00764869
0.00325492
0.00254571
0.00223368
0.00202281
0.00226178
0.00259685
0.00313181
0.00381532
0.00457406
0.00481919
0.00509139
0.00534142
0.00495648
0.0047441
0.00452403
0.00432664
0.0045623
0.005024
0.00575599
0.00643959
0.00271439
0.00229337
0.00163317
0.00173976
0.00180472
0.00207364
0.00260404
0.00318214
0.00382702
0.00410299
0.00428603
0.00425154
0.00419596
0.00398054
0.0037726
0.00353325
0.00374828
0.00426557
0.00500624
0.00560028
0.00213048
0.00191086
0.00129986
0.001384
0.00153254
0.00163614
0.00221258
0.00263105
0.00302417
0.00341652
0.00345775
0.00336171
0.00332742
0.00295769
0.00291842
0.00306895
0.00328594
0.00351951
0.00395734
0.00474973
0.00174235
0.00123921
0.00118113
0.00117291
0.0010357
0.00120115
0.00177308
0.00185847
0.00251245
0.00269873
0.00260534
0.00278991
0.00257589
0.00258616
0.00255869
0.00243775
0.0024809
0.00259264
0.00322041
0.00359898
0.00132748
0.000991014
0.00112727
0.000726916
0.000731156
0.000894013
0.00122961
0.00134893
0.0018274
0.00196109
0.00167461
0.00183936
0.00197993
0.00187549
0.00181029
0.0016967
0.00164951
0.00205476
0.00231208
0.00270751
0.000650046
0.000646707
0.000439157
0.000459746
0.000405396
0.000458953
0.000738375
0.000952133
0.000889192
0.00100835
0.00152495
0.00116263
0.00102853
0.00123111
0.00119278
0.000890663
0.00105432
0.00118596
0.00137152
0.00162266
0.000155404
7.64606e-05
0.000116466
0.00029698
0.000326688
7.13476e-05
9.44008e-05
0.000245225
0.000273343
0.000447659
0.000536327
0.000332351
0.000355003
0.000551203
0.000518389
0.000230067
0.000386149
0.000367946
0.000457883
0.000379141
0.00112866
0.000350779
9.81647e-05
0.000491714
0.000160812
0.000138887
0.000463778
0.00136855
0.00203809
0.0023784
0.00278718
0.00286076
0.0025009
0.00246611
0.00213715
0.00222943
0.00232574
0.00309772
0.00381838
0.00484202
0.00121788
0.000144864
0.000192844
0.000480511
0.000217799
0.000165555
0.000701834
0.00116634
0.00177968
0.00221351
0.00256325
0.00251159
0.00232023
0.00208646
0.00196232
0.00198255
0.00204391
0.00265362
0.00337259
0.00444088
0.000923145
0.000205545
0.000115123
0.00019503
0.000240542
2.42421e-05
0.00058563
0.00105686
0.00175755
0.00208936
0.00207481
0.00241828
0.0019741
0.00159477
0.00148355
0.00164533
0.00206562
0.002182
0.00309028
0.00354177
0.000870869
0.000511765
5.21003e-05
0.000166005
0.000105535
0.00015911
0.000467318
0.00121256
0.00136514
0.00178768
0.00182433
0.00176645
0.00169977
0.00145099
0.00152782
0.0014089
0.00149516
0.00193619
0.00254193
0.00313425
0.000485883
0.000190667
0.000181692
4.30374e-05
7.15251e-05
0.000302004
0.000253162
0.000838928
0.00115044
0.00132661
0.00126674
0.00128129
0.00118725
0.00139
0.00131426
0.00104995
0.00139304
0.00165513
0.00168627
0.00248217
0.000304607
0.000307599
3.18292e-05
0.000246396
7.40876e-05
0.000152022
0.000207306
0.000580524
0.000771964
0.00106122
0.000844691
0.00100769
0.000991384
0.000871135
0.000785527
0.000774316
0.000821146
0.00118436
0.00140613
0.00171909
0.000262814
0.000162249
5.2305e-05
1.92757e-05
0.000112384
8.57652e-05
0.000327067
0.000502663
0.000441645
0.000626242
0.000923841
0.00059073
0.000778042
0.000492431
0.000715847
0.000438259
0.000404195
0.000655874
0.00104101
0.00104991
0.00036385
2.3739e-06
0.000179156
0.00021383
5.37477e-05
0.000126173
0.000164217
0.000177101
0.000271839
0.000181128
0.000231938
0.000377621
0.000350979
0.000105239
0.000108719
0.000247208
8.02923e-05
0.000355092
0.000255931
0.000497454
0.00192031
0.00298597
0.00364246
0.0040081
0.00402664
0.00372814
0.00313013
0.00241458
0.00183989
0.00136646
0.00102667
0.00121664
0.00118256
0.00142473
0.00136792
0.00154835
0.0012271
0.00064193
0.00066717
0.00175193
0.00141822
0.00244395
0.00323273
0.00316833
0.00338115
0.00303789
0.00262997
0.00224004
0.00152019
0.00117459
0.00090971
0.000959846
0.00118712
0.0012033
0.00129749
0.00128681
0.000804071
0.000420573
0.000670233
0.00164578
0.00124421
0.00177999
0.00263935
0.00258489
0.00292855
0.00262908
0.00221134
0.00174989
0.00115173
0.000994344
0.000858462
0.000633381
0.000915208
0.000919859
0.00093373
0.00103864
0.000623077
0.000178817
0.000607858
0.00171294
0.00110643
0.00173332
0.00209322
0.00221663
0.00225212
0.00222985
0.00169457
0.00130102
0.00111594
0.000545843
0.000721886
0.000605558
0.000557309
0.000738204
0.000818515
0.000821212
0.000593363
9.9276e-05
0.000518362
0.00124276
0.000792098
0.00127702
0.00168786
0.0016785
0.00192625
0.00165211
0.00138539
0.00107866
0.000696652
0.000460644
0.000369572
0.000560698
0.000617969
0.00063566
0.000680972
0.000695328
0.000504597
0.000156539
0.00049034
0.00102046
0.000604945
0.000793631
0.00124314
0.00124378
0.00127533
0.00121414
0.000962084
0.0008385
0.000639399
0.000256776
0.00050763
0.000333713
0.000433568
0.000462078
0.000535242
0.000422411
0.000320783
2.53037e-05
0.000369992
0.000657557
0.000280129
0.000566998
0.000622126
0.00070251
0.000738388
0.000642094
0.000468575
0.000464149
0.000342436
8.4403e-05
0.000162954
0.000278804
0.000260197
0.000182518
0.00012758
0.000130656
0.00010901
9.45325e-05
0.000288863
0.000403989
0.000433339
0.000143294
0.000305362
0.00034239
0.000271625
0.000289956
0.000325742
0.000264478
0.00014237
6.46854e-05
7.52174e-05
9.5107e-05
2.25769e-05
0.000128628
0.00013671
0.000130249
0.000118153
2.2227e-05
7.51806e-06
0.000175279
0.00490898
0.00586136
0.00683086
0.00754178
0.00750828
0.00753775
0.006885
0.00644529
0.00570972
0.00538601
0.0052509
0.00512093
0.00540223
0.00535563
0.00557303
0.00515278
0.0047298
0.00362124
0.0027917
0.00142208
0.00408896
0.00508946
0.00580709
0.00641944
0.00655878
0.00620442
0.00595017
0.0055738
0.00501275
0.00470893
0.00452434
0.00461174
0.00462786
0.00456383
0.00477219
0.00459415
0.00396862
0.00329319
0.00204666
0.00125572
0.00343257
0.00412406
0.00489477
0.00562709
0.0051835
0.00536466
0.00506208
0.0047693
0.004299
0.00399696
0.00379363
0.00378829
0.00374655
0.00388506
0.00386222
0.00371478
0.00348529
0.00268585
0.00157597
0.000854109
0.00261612
0.00353634
0.00416942
0.00442979
0.00460915
0.00420307
0.00398085
0.00391145
0.00353641
0.00317423
0.00310124
0.00290833
0.00309831
0.00332529
0.00301603
0.00308781
0.00268678
0.00210854
0.00126451
0.000817698
0.00196291
0.00278283
0.0033163
0.00336926
0.00362374
0.00354501
0.0031823
0.00293231
0.00264839
0.00262234
0.00224453
0.00220816
0.00242393
0.0024649
0.00245001
0.00223047
0.00211577
0.00166177
0.00113016
0.00047132
0.0014711
0.00201734
0.00232473
0.00230751
0.00255323
0.00243739
0.00221319
0.00202583
0.00198398
0.00164757
0.00161311
0.00162899
0.00192968
0.0019879
0.00171042
0.00177511
0.00142255
0.0011804
0.000869749
0.000364321
0.0012369
0.00133301
0.00146128
0.00156902
0.00147627
0.00160454
0.00148537
0.00155782
0.00104722
0.00109413
0.000813764
0.00104638
0.0010138
0.00119667
0.00117207
0.000906169
0.0010273
0.000639727
0.0004053
0.00028494
1.43157e-05
0.000429733
0.000518947
0.000429883
0.000488324
0.000569461
0.000434553
0.000365459
0.000347846
0.000418258
0.000228862
0.0004444
0.000477779
0.000551718
0.000253907
0.000320472
0.000316364
0.000108744
0.000123738
0.000103836
0.00733129
0.00855807
0.00973141
0.010486
0.0107287
0.0108444
0.0106926
0.0101407
0.00956688
0.00921083
0.00903872
0.0089741
0.00890681
0.00891169
0.00879348
0.00859963
0.00781451
0.00681101
0.00559364
0.00409367
0.00645501
0.00749716
0.00848255
0.00892874
0.00937907
0.00935642
0.00909289
0.00849696
0.00828884
0.00807264
0.00764588
0.00791264
0.00761675
0.00775287
0.00758685
0.00749062
0.00671524
0.00569923
0.00471116
0.0034497
0.00550772
0.00657228
0.00710563
0.00761685
0.00794477
0.00807851
0.0077481
0.00760141
0.00702657
0.00687882
0.00679483
0.00649111
0.00653015
0.00655175
0.006564
0.00624516
0.00568072
0.00467539
0.0039519
0.00279972
0.00452195
0.00514337
0.00586344
0.00641042
0.00661075
0.00654497
0.00628934
0.00623738
0.00579592
0.00561197
0.00547265
0.00543813
0.00536543
0.0054858
0.00522377
0.00518989
0.00462964
0.00384546
0.00307396
0.00233233
0.00324789
0.00407457
0.00464865
0.0053314
0.00509596
0.00517795
0.00502282
0.00495495
0.0045226
0.00455532
0.00433661
0.00439304
0.00442468
0.00415679
0.00417599
0.00409554
0.00390122
0.00312563
0.00250434
0.00189851
0.00235705
0.00276517
0.00338134
0.00371043
0.00366069
0.00368831
0.00364634
0.00349168
0.00321982
0.00327167
0.00292214
0.00305666
0.00298838
0.00310331
0.00293025
0.00302264
0.00255946
0.00214173
0.00175219
0.00141114
0.00161182
0.00173262
0.00197251
0.00220833
0.0024332
0.00246927
0.00217437
0.00209375
0.0019803
0.001835
0.00184433
0.00191139
0.00184268
0.00176834
0.00177711
0.0014951
0.00148865
0.0015128
0.000969371
0.000807294
0.000765235
0.000658396
0.000755685
0.000635182
0.000830055
0.000705567
0.000834934
0.000903535
0.000642092
0.000727038
0.000752476
0.000734784
0.000584557
0.000740866
0.00064002
0.000307235
0.00055617
0.000562436
0.000338803
0.000338843
0.00956076
0.0108121
0.012371
0.0131872
0.0134289
0.013896
0.0137374
0.0133472
0.0128102
0.0127084
0.0126695
0.0124854
0.0125129
0.0121335
0.0119774
0.0112637
0.0104675
0.00939016
0.00778805
0.00633364
0.00831791
0.0094132
0.0105504
0.0113063
0.0117024
0.0119254
0.0119632
0.0115235
0.0113016
0.0110074
0.0108317
0.0108348
0.0106916
0.0106261
0.0103
0.0100689
0.00903509
0.0080493
0.00656386
0.00529708
0.00703159
0.00786685
0.0090706
0.00971062
0.0099953
0.0100782
0.0102976
0.00984523
0.00970756
0.00940707
0.00895972
0.00896231
0.00903575
0.00907705
0.0086739
0.00847114
0.00762867
0.00663567
0.00559513
0.0046015
0.00570256
0.00663127
0.00734303
0.00793522
0.0082051
0.00843288
0.00814801
0.00826466
0.00791925
0.00775115
0.00743455
0.00744074
0.00742554
0.00737629
0.0072234
0.00665194
0.00627263
0.00537379
0.00475531
0.00367338
0.00453771
0.00500507
0.0058569
0.00609667
0.00642466
0.0066652
0.00635321
0.0063276
0.0062316
0.00616149
0.00588745
0.00597478
0.00576884
0.00569022
0.00556353
0.00543714
0.0048857
0.00423629
0.00369411
0.00283447
0.00332409
0.00364369
0.00411143
0.00433095
0.00475091
0.00455678
0.00486956
0.00469085
0.00457118
0.00433609
0.00430865
0.00434653
0.00406986
0.00432669
0.00414418
0.00393011
0.00348511
0.00318847
0.002588
0.00203931
0.00222236
0.00233402
0.00246975
0.00250603
0.00290235
0.00300992
0.00284906
0.00293477
0.00276063
0.0026851
0.00253146
0.00273259
0.00251114
0.0024094
0.0025586
0.00246148
0.00225025
0.00183117
0.00142995
0.00133278
0.000619675
0.000801153
0.00104923
0.00103765
0.000851574
0.00117159
0.00100656
0.00102
0.00102247
0.000944746
0.000900775
0.00105626
0.000982521
0.000924599
0.00101494
0.000865974
0.000699092
0.000490948
0.000607833
0.000347966
0.0110613
0.0126065
0.0138073
0.0152802
0.015985
0.0162043
0.016097
0.0161941
0.016038
0.0155783
0.0153757
0.0152429
0.0150714
0.0148574
0.0144447
0.0136982
0.0126969
0.011345
0.00956409
0.00803636
0.00947843
0.010994
0.0124042
0.0131609
0.0139258
0.0140739
0.0140885
0.0140427
0.0138502
0.013635
0.0135684
0.0132998
0.0130731
0.0130094
0.0127413
0.0116772
0.0110316
0.00974717
0.00804137
0.00676222
0.00798983
0.00924218
0.0104002
0.0112979
0.0116454
0.0119244
0.0119861
0.0120428
0.0117963
0.0116056
0.0116095
0.0112922
0.0111296
0.0110693
0.0108364
0.00988527
0.00936177
0.00824595
0.00689306
0.00575141
0.00684676
0.00771927
0.00848026
0.00951708
0.0096884
0.00977855
0.0099923
0.0100051
0.00983341
0.00961674
0.0094767
0.00932844
0.00916207
0.00920024
0.00858721
0.00841741
0.00769971
0.00694705
0.0054651
0.00477703
0.0054602
0.00595403
0.00666161
0.0071053
0.00747181
0.00771448
0.00797674
0.00769539
0.00773476
0.0074472
0.00736651
0.00748476
0.00739745
0.0070239
0.00714604
0.00648235
0.00592438
0.0053462
0.00445669
0.00365211
0.00370653
0.00436138
0.00481245
0.00526238
0.00537536
0.00572381
0.00557432
0.00558014
0.00577633
0.00546404
0.00529965
0.00524666
0.00521193
0.0052725
0.00521666
0.00479243
0.00437107
0.0039882
0.00310556
0.00272317
0.00239603
0.0026128
0.00306298
0.00308016
0.00334858
0.00367551
0.00334276
0.00364108
0.00349676
0.0031656
0.00345434
0.00325598
0.00319362
0.00282877
0.00304186
0.00293326
0.00255337
0.00233325
0.00184802
0.00149718
0.000633574
0.00101286
0.000813394
0.00119646
0.00140282
0.00119381
0.00101658
0.00102884
0.00139019
0.00121073
0.00129458
0.00112715
0.00103796
0.00117517
0.00126221
0.00110751
0.0010134
0.000863155
0.000606668
0.000476915
0.0120078
0.0135869
0.0154271
0.0167615
0.0174009
0.0179467
0.0180864
0.0182458
0.0180235
0.0178301
0.0176751
0.0175132
0.0170153
0.0167887
0.0162975
0.0153074
0.0142971
0.0126604
0.0107463
0.00897911
0.0103667
0.0119411
0.0131781
0.0142503
0.015259
0.0156172
0.0157762
0.0157458
0.0159186
0.0156371
0.0153255
0.0152559
0.0151233
0.0145163
0.0141
0.0132904
0.0123747
0.0108849
0.0092895
0.00777681
0.00886843
0.0100224
0.0112657
0.0123071
0.0129002
0.0132583
0.0134446
0.013572
0.0132621
0.0132331
0.0131494
0.01291
0.0127556
0.0124406
0.0119915
0.0113153
0.0105808
0.00918763
0.00797531
0.00659833
0.00741953
0.00819907
0.00903247
0.0101018
0.0106913
0.0109334
0.011137
0.0112222
0.0110041
0.0110436
0.010865
0.0108265
0.0105302
0.0102105
0.0101023
0.00939965
0.00865433
0.00765616
0.00642055
0.00535375
0.00580629
0.0066648
0.00745827
0.00793123
0.0084983
0.00890903
0.00899101
0.00888848
0.00895497
0.00884668
0.00855171
0.00856869
0.00831828
0.00812906
0.00767884
0.00745131
0.00681652
0.00595147
0.00543057
0.00422938
0.00398284
0.00466747
0.00529435
0.00576475
0.00613751
0.00638645
0.0064047
0.00625878
0.00638329
0.00630364
0.00620889
0.00632733
0.00588204
0.00582529
0.00544145
0.00528474
0.00470352
0.00427402
0.00384953
0.00287759
0.00266912
0.00278632
0.003122
0.00357904
0.00368059
0.0039316
0.00389899
0.00394305
0.00399471
0.00392071
0.00366116
0.00366374
0.00358423
0.00353862
0.00324255
0.00309708
0.00305325
0.00268374
0.00226297
0.00206276
0.000639443
0.000837164
0.00119045
0.000977251
0.00140273
0.00111556
0.00143913
0.00131691
0.00148208
0.00117053
0.00148601
0.00138146
0.00127121
0.00136522
0.0012295
0.00128968
0.000862731
0.000755091
0.000765834
0.000638442
0.0121539
0.0140612
0.0160315
0.0173955
0.0182421
0.0192646
0.0195806
0.0194709
0.0196178
0.0194416
0.0192767
0.0190809
0.0188659
0.0181795
0.0173965
0.0164651
0.0152676
0.0134055
0.0114026
0.00927823
0.0107688
0.0121651
0.0138827
0.015276
0.0160521
0.01655
0.0170089
0.0170189
0.0169605
0.0171293
0.0168348
0.0166144
0.016271
0.0158656
0.0154171
0.0143132
0.0132087
0.011455
0.00975961
0.00820714
0.00900812
0.0103936
0.0118109
0.0129306
0.0135869
0.0141651
0.0146437
0.0147011
0.0145771
0.0146378
0.0145471
0.0140873
0.0139098
0.0135432
0.0131262
0.0122782
0.0109655
0.00988046
0.00839135
0.00682165
0.00772027
0.00848237
0.00959867
0.010625
0.0114229
0.0118001
0.0120589
0.0123237
0.0120264
0.0120242
0.012116
0.0117294
0.0113757
0.0114536
0.0107005
0.0101309
0.00924183
0.008111
0.00674395
0.00568828
0.00564425
0.00687608
0.00780812
0.00845978
0.00887878
0.00921421
0.00936227
0.00942626
0.00954895
0.00953527
0.0094668
0.0093385
0.00904972
0.00896432
0.00852789
0.00823015
0.00727734
0.00642954
0.0054857
0.00463268
0.0042584
0.0048378
0.00543784
0.00603518
0.00653354
0.0067025
0.00701986
0.00704182
0.00695243
0.00680637
0.00697948
0.00672353
0.00654393
0.00636757
0.00610918
0.00572722
0.00531981
0.00459793
0.00358673
0.00312279
0.00257797
0.00307005
0.00352941
0.00371919
0.00380355
0.00421255
0.0042856
0.00432062
0.00429852
0.00418943
0.00412927
0.0040958
0.0039648
0.00379627
0.00379328
0.00361717
0.00328618
0.00284659
0.0022829
0.00203126
0.000787016
0.00102422
0.00112241
0.00117154
0.00133474
0.00138505
0.00138773
0.00132244
0.00160545
0.00143762
0.00154577
0.00130582
0.00160498
0.00128546
0.00124957
0.00117085
0.00103646
0.000962334
0.000795351
0.000841871
0.0117988
0.0137161
0.0158261
0.0176417
0.0188039
0.0194527
0.0202271
0.0203523
0.0203173
0.0203881
0.0202767
0.0200708
0.0195481
0.0189384
0.0180178
0.0169085
0.0154351
0.0135023
0.0112668
0.00924434
0.0101821
0.01191
0.0136177
0.0151209
0.0164884
0.0170695
0.0175912
0.0178539
0.0179451
0.0177982
0.0176249
0.017489
0.0170358
0.0164551
0.0157417
0.0145849
0.0135107
0.0115924
0.00952223
0.00791018
0.00860931
0.0100894
0.0115701
0.0129694
0.013896
0.0144737
0.0149982
0.0152851
0.0154234
0.0152371
0.0150897
0.0147939
0.0143803
0.014033
0.013517
0.0127536
0.0114133
0.0100581
0.00805093
0.00659799
0.00740744
0.00833741
0.00962903
0.0108143
0.0116019
0.0120858
0.0125145
0.0124971
0.0124278
0.0125387
0.0123158
0.0122238
0.012052
0.0117253
0.0110096
0.0102514
0.00921917
0.0082768
0.00659892
0.00558179
0.00569471
0.00639129
0.00745235
0.00848741
0.00926587
0.00959307
0.00965806
0.0100304
0.00992277
0.0100346
0.00976498
0.00980433
0.00960919
0.00902714
0.00864594
0.00815581
0.00719879
0.00647883
0.00533956
0.00441985
0.00404653
0.00444035
0.00522603
0.00605269
0.00645486
0.00689557
0.00720887
0.00741793
0.00735251
0.00702649
0.00717183
0.00701737
0.00707059
0.00648568
0.00622518
0.00606674
0.00523598
0.00448468
0.00385831
0.00313504
0.00263803
0.00277029
0.00340706
0.00402841
0.00417621
0.00417712
0.00432667
0.00445922
0.00432709
0.00440184
0.0042389
0.00442484
0.00419782
0.00413873
0.00394758
0.00359301
0.00310099
0.00296418
0.00232257
0.00200913
0.000885746
0.0007886
0.00121589
0.00127224
0.00127688
0.00139636
0.00155453
0.00154683
0.00160332
0.00158775
0.0013927
0.00147373
0.00160205
0.00153954
0.00133809
0.00127267
0.00101942
0.00116947
0.000787098
0.000465166
0.0105612
0.0127419
0.015035
0.0168493
0.0182466
0.019408
0.0199962
0.0204178
0.0208056
0.0206542
0.020498
0.0202945
0.0196774
0.0187527
0.0175833
0.0166389
0.0147965
0.0127564
0.010564
0.00826532
0.00921733
0.0110764
0.0129031
0.0145679
0.0158229
0.0168874
0.017185
0.0177905
0.0179982
0.0180192
0.0180232
0.0175677
0.017029
0.0165312
0.0156316
0.0141487
0.0129378
0.0109419
0.00901391
0.007062
0.00795849
0.00931897
0.0111051
0.0124278
0.0136002
0.0143614
0.0149765
0.0151494
0.0154175
0.0153946
0.015177
0.0149955
0.0147352
0.0141803
0.0132783
0.0122035
0.0108022
0.0094052
0.00755572
0.00587406
0.00659822
0.00781882
0.00904748
0.0103226
0.0111805
0.012006
0.0124375
0.01245
0.0128231
0.0129375
0.0128253
0.01254
0.0121072
0.0115356
0.0111335
0.010219
0.00908096
0.0076781
0.00625868
0.00485658
0.00514784
0.0059382
0.00726609
0.00793519
0.00895881
0.00929081
0.00963497
0.0100505
0.0100843
0.0100911
0.0101889
0.00952894
0.00970984
0.00912991
0.00862988
0.00816388
0.00723383
0.00613663
0.00504694
0.00383246
0.0037516
0.00441532
0.00497875
0.00598741
0.00664005
0.00691495
0.00690982
0.00713833
0.00748399
0.00744818
0.00737964
0.00692831
0.00711301
0.00651653
0.00633635
0.00561582
0.00524905
0.00451353
0.00341878
0.00273548
0.00222241
0.00262587
0.003208
0.00358428
0.00399752
0.00437552
0.00437726
0.00448085
0.00449948
0.00463369
0.00444864
0.0043055
0.00421875
0.00401939
0.00387659
0.00350303
0.00306162
0.00257957
0.00200694
0.00179401
0.000855143
0.000919328
0.00117685
0.00124189
0.00127205
0.00133698
0.0015784
0.00146265
0.00163027
0.00162858
0.00148408
0.00145757
0.001588
0.00135996
0.00148156
0.00120541
0.000855759
0.00100742
0.000493986
0.00049247
0.00872802
0.0110754
0.0133536
0.0152546
0.0170657
0.0183462
0.0192859
0.0198269
0.0200851
0.0201044
0.0198401
0.0194883
0.0189596
0.018151
0.0168615
0.0157106
0.0137096
0.0115852
0.00904022
0.00665429
0.00760046
0.00971792
0.0118187
0.0133315
0.0149727
0.0159875
0.0167916
0.017352
0.0174861
0.0176328
0.0171476
0.0170066
0.0164663
0.0159486
0.014741
0.0134757
0.0118007
0.00982459
0.00769864
0.00560112
0.00633201
0.00812856
0.00976203
0.0115124
0.0125709
0.0136024
0.014231
0.0146917
0.0149333
0.0149776
0.0147457
0.0146279
0.0142012
0.0136411
0.0125448
0.0114667
0.0100354
0.00850978
0.00643796
0.0046825
0.00536876
0.00651547
0.00821091
0.00954632
0.0104582
0.0112577
0.011775
0.0121556
0.0123268
0.0124281
0.0123661
0.0119585
0.0115292
0.011093
0.0103246
0.00939349
0.00829076
0.00679632
0.0051857
0.00374454
0.00406395
0.00502773
0.0063155
0.00751083
0.00808023
0.00897337
0.00939082
0.00966401
0.00962552
0.00994374
0.00969923
0.00945964
0.00915885
0.00863675
0.0081035
0.00735476
0.0064707
0.00540004
0.00411936
0.00302638
0.00309273
0.00364425
0.00471176
0.00534609
0.00601108
0.00639107
0.00667019
0.00702211
0.00713211
0.0070408
0.00712567
0.00690442
0.00659171
0.00633187
0.00604015
0.00533548
0.00465716
0.00388692
0.00303969
0.00210175
0.00179888
0.00236371
0.00268318
0.00348345
0.00369848
0.00403708
0.00413029
0.00436011
0.00443876
0.00433378
0.00438363
0.0045033
0.00429591
0.00405076
0.00362529
0.00360814
0.00267097
0.00225105
0.00178556
0.00139116
0.00042161
0.000688198
0.000858143
0.000986279
0.00129504
0.00141966
0.00161434
0.00162071
0.00148642
0.00173049
0.00147405
0.00136742
0.00149687
0.00132779
0.00103142
0.00106255
0.00103838
0.000827213
0.000619429
0.000302907
0.00634699
0.00865779
0.0112421
0.0134834
0.0151569
0.0166309
0.0175022
0.0183299
0.0186066
0.0188275
0.0185359
0.0181822
0.0175767
0.0167156
0.0152857
0.0138178
0.0117006
0.00941276
0.00654326
0.00398125
0.00528568
0.00747584
0.00976452
0.0116253
0.0131088
0.0145081
0.0151344
0.0160146
0.0162687
0.0162532
0.0161399
0.0159622
0.0150547
0.014534
0.0132618
0.0119257
0.0102342
0.00794429
0.00541128
0.00360311
0.00453565
0.00611497
0.00826443
0.00990726
0.0111312
0.0120227
0.0130995
0.0134639
0.0138106
0.0138845
0.0138244
0.0136986
0.0131704
0.0124465
0.0116244
0.0103535
0.00850913
0.00660778
0.00475861
0.00293502
0.00380113
0.00515575
0.00674322
0.00798318
0.0092437
0.0101566
0.0107626
0.0112009
0.0114122
0.0115703
0.0114192
0.0110577
0.0106998
0.010042
0.00934594
0.00823996
0.00706539
0.00564014
0.0037712
0.00238196
0.00293771
0.0039063
0.00518755
0.00636604
0.00735901
0.00790474
0.0085321
0.00894404
0.0091283
0.00906502
0.00902821
0.00897792
0.00849003
0.00803057
0.00726511
0.00635372
0.0056989
0.00411561
0.00279168
0.001775
0.00205987
0.00300364
0.00384063
0.00449105
0.00509987
0.00589155
0.00629469
0.00653406
0.00665101
0.0065576
0.00656583
0.00638818
0.006104
0.00587675
0.00512575
0.00479114
0.00380416
0.00323944
0.00228059
0.0012737
0.00111424
0.00177464
0.00233506
0.00296327
0.00336594
0.00344036
0.00383397
0.00401339
0.00401097
0.00416047
0.00420572
0.00402309
0.00391319
0.00378276
0.00334254
0.00283891
0.00238244
0.00177277
0.00120425
0.000860189
0.000510739
0.000308944
0.000759523
0.00119434
0.00111441
0.00124979
0.00118247
0.00117951
0.00144644
0.00120361
0.00130791
0.0015578
0.00133282
0.00132565
0.00136084
0.00120021
0.000807856
0.000578225
0.000332324
0.000300968
0.00308578
0.00570007
0.00816341
0.0104945
0.0126038
0.014239
0.0153515
0.016137
0.0163741
0.0165746
0.0163672
0.0163245
0.0154613
0.0142244
0.0130909
0.0113077
0.00917216
0.00636007
0.00363844
0.00105148
0.00273718
0.00475499
0.00699287
0.00914474
0.0110156
0.012178
0.0132178
0.0138401
0.0143456
0.0145303
0.0142843
0.013985
0.0132282
0.0123597
0.0112993
0.00980853
0.00794933
0.00548992
0.00309062
0.000844656
0.00212031
0.00399189
0.00583661
0.00764539
0.00900651
0.010544
0.0112725
0.011819
0.0120573
0.0125039
0.0122048
0.0118556
0.011246
0.010567
0.00947097
0.00823593
0.00644635
0.00442649
0.0024303
0.000400845
0.00155803
0.00319166
0.00488051
0.00657933
0.00766078
0.00861275
0.00926916
0.00973605
0.0102103
0.0100845
0.0100105
0.00968977
0.00942064
0.00877202
0.00777719
0.00669557
0.00539038
0.00362563
0.00177449
0.000339537
0.00116715
0.00228901
0.00365467
0.00495116
0.00569563
0.00670788
0.00755501
0.00764354
0.00778906
0.00803473
0.00799008
0.00793695
0.00749202
0.00662081
0.00594011
0.00523105
0.00433914
0.00284915
0.00110432
0.000188231
0.000737015
0.00196731
0.00256337
0.00341173
0.00415185
0.00481267
0.00543936
0.00563267
0.00587614
0.00575167
0.00578252
0.00570561
0.00525479
0.00496611
0.00447702
0.00361136
0.00313718
0.00200891
0.00108764
0.000243211
0.000592028
0.000902113
0.00152306
0.00216156
0.0025569
0.00282531
0.00318073
0.00337308
0.00339157
0.00346492
0.00366979
0.00321569
0.00310287
0.00305518
0.00276097
0.00223854
0.00178536
0.0012302
0.000770869
0.000268978
0.000157824
0.000420529
0.000621805
0.000511138
0.00110856
0.000910222
0.00092132
0.00116764
0.000990062
0.00105674
0.0013633
0.00115068
0.00100518
0.000716529
0.000982255
0.000850552
0.000498346
0.000425959
0.000161111
3.66821e-05
0.000899452
0.00158199
0.00446838
0.00709243
0.00916969
0.0106644
0.0121286
0.0128468
0.0132654
0.0137306
0.0135035
0.0130053
0.0123395
0.0112009
0.00976127
0.00797566
0.00553286
0.00301469
0.000186388
0.00279017
0.000901845
0.00146109
0.00372489
0.00603849
0.00771351
0.00907424
0.0104163
0.0110945
0.011615
0.0117872
0.0115667
0.0113626
0.0106819
0.00956306
0.00829314
0.00664044
0.00472087
0.00226648
8.49359e-05
0.00269294
0.00107371
0.000990529
0.00303696
0.00485413
0.0065579
0.00756984
0.0087253
0.00939181
0.00995424
0.0098417
0.00986261
0.00978257
0.00905712
0.00820283
0.00706819
0.00560093
0.00379743
0.00181678
0.000474582
0.00238205
0.000924549
0.000633416
0.00254601
0.00377671
0.00545926
0.00635685
0.00760538
0.00787033
0.00798339
0.00842369
0.00824932
0.0078146
0.00734713
0.00681579
0.00573317
0.00451118
0.00323838
0.00131228
0.000401232
0.00221622
0.000761506
0.000415318
0.00172071
0.00300987
0.00382809
0.00493744
0.00569632
0.00607546
0.00629161
0.00653291
0.00646626
0.00614145
0.00576041
0.00523261
0.00443868
0.00361696
0.00242135
0.00107617
0.000437981
0.00189356
0.000766379
0.000302473
0.00112719
0.00198758
0.0030748
0.00384255
0.00416634
0.00427096
0.00470594
0.00470127
0.00451663
0.0043416
0.00407197
0.00401459
0.00316312
0.00249902
0.00171552
0.000567797
0.000570307
0.00130173
0.000376044
0.000281932
0.000657995
0.00132461
0.00159121
0.0020578
0.0027363
0.00273356
0.00295325
0.00287984
0.00281254
0.00290332
0.00272459
0.00231368
0.00203358
0.00160192
0.00101014
0.000308978
0.000387616
0.00103457
8.22615e-05
0.000156345
9.89729e-05
0.000584661
0.000671134
0.000557248
0.00110491
0.00089079
0.000971955
0.000840665
0.000836322
0.0007514
0.000790211
0.000863804
0.000564015
0.000297323
0.000431743
0.000156946
5.74505e-05
0.000341041
0.00554107
0.00283672
6.18602e-05
0.00277183
0.00505412
0.0067214
0.00813176
0.00917489
0.00975462
0.0100152
0.00985338
0.00955761
0.00863243
0.00745963
0.00592936
0.00391031
0.00153186
0.00121941
0.00426126
0.0069337
0.00516778
0.00279585
0.000211569
0.00206575
0.00430117
0.00566576
0.0067864
0.0078123
0.0085266
0.00848375
0.00839797
0.00814274
0.00740695
0.00632402
0.00485143
0.00332198
0.000908745
0.00137429
0.00418528
0.0065608
0.00457552
0.00269887
0.000378714
0.00164532
0.00322756
0.00470261
0.0057944
0.00673755
0.00718785
0.00724346
0.00704566
0.00685933
0.00603613
0.00516455
0.00405225
0.00251198
0.000909573
0.00131501
0.0036248
0.00581156
0.00403577
0.00224756
0.000601458
0.00120116
0.00261627
0.00376656
0.00467809
0.00511768
0.00579055
0.00571478
0.00589357
0.00544683
0.00517319
0.00431094
0.0031367
0.00181428
0.00041956
0.00131892
0.00324595
0.00486989
0.00306226
0.0019562
0.000385858
0.000770698
0.00191696
0.00299486
0.00353772
0.0041642
0.00476726
0.00453925
0.00440363
0.00441142
0.0037868
0.00320797
0.00241548
0.00171598
0.000292547
0.00111093
0.00277787
0.00392508
0.00255601
0.00137178
0.000319034
0.000571144
0.00139255
0.00213462
0.0024609
0.00282168
0.00324212
0.00314152
0.003373
0.00306732
0.00280847
0.00225182
0.00149491
0.00101863
2.40616e-05
0.000857717
0.00208809
0.00274418
0.00149078
0.000936599
0.000333095
0.000451501
0.000721048
0.00125447
0.00167356
0.00181765
0.00197422
0.00190459
0.00214134
0.00203215
0.00171645
0.00141763
0.000968294
0.000353231
0.00028846
0.000391509
0.00107836
0.00173307
0.000589298
0.000258227
0.000171725
0.000555972
0.00032139
0.000564727
0.000454031
0.000571048
0.000662589
0.000719951
0.000920357
0.000744683
0.00051704
0.000639348
0.000183557
0.000250897
0.000147312
0.000142706
0.000213266
0.000775731
0.0107083
0.00770686
0.00480681
0.00226273
0.000164078
0.00203571
0.00356369
0.00464481
0.00524154
0.00571205
0.00550168
0.00494568
0.004173
0.00280594
0.00121198
0.000618396
0.00327721
0.00596522
0.00928232
0.0120656
0.00969302
0.00713085
0.00453484
0.00216998
2.20712e-05
0.00149222
0.00273788
0.00395737
0.00437427
0.00472534
0.00467583
0.00412656
0.00328192
0.00230703
0.000940481
0.000893634
0.00310964
0.00568392
0.00830238
0.01113
0.00855175
0.00630756
0.00428613
0.00228294
0.000285094
0.00117911
0.00231058
0.00302244
0.00352566
0.00378977
0.00382244
0.00353571
0.00292293
0.00173987
0.000536474
0.000962645
0.00283572
0.00502688
0.00740997
0.00974081
0.00750774
0.0055459
0.00380575
0.0018854
0.000490931
0.000787718
0.00174904
0.00246925
0.00290462
0.00315905
0.00294498
0.00254765
0.00205938
0.0012806
0.000368807
0.00108471
0.00264911
0.00446082
0.00641388
0.00806963
0.00596597
0.00449297
0.00269408
0.00162816
0.00030642
0.000538734
0.00111602
0.00198915
0.00226938
0.00250354
0.00225456
0.00211003
0.0015282
0.000969317
0.000108966
0.000935787
0.00227498
0.00364506
0.00519214
0.00648334
0.00431194
0.00353825
0.00233075
0.00128438
0.000170769
0.000496679
0.000994583
0.00133447
0.00156407
0.00164822
0.00168555
0.00151674
0.00132547
0.000607423
6.61206e-05
0.000495143
0.00163357