/*--------------------------------*- C++ -*----------------------------------*\
| =========                 |                                                 |
| \\      /  F ield         | OpenFOAM: The Open Source CFD Toolbox           |
|  \\    /   O peration     | Version:  2212                                  |
|   \\  /    A nd           | Website:  www.openfoam.com                      |
|    \\/     M anipulation  |                                                 |
\*---------------------------------------------------------------------------*/
FoamFile
{
    version     2.0;
    format      ascii;
    arch        "LSB;label=32;scalar=64";
    class       volScalarField;
    location    "0";
    object      relativeErrorField;
}
// * * * * * * * * * * * * * * * * * * * * * * * * * * * * * * * * * * * * * //

dimensions      [0 0 0 1 0 0 0];

internalField   nonuniform List<scalar> 
3200
(
0.00987765
0.0104117
0.0113887
0.0123503
0.0136887
0.0147993
0.0162009
0.0172392
0.0181957
0.018958
0.0190445
0.0185492
0.0178651
0.0173285
0.0163411
0.0149351
0.0140281
0.0131201
0.0123552
0.0119581
0.00808644
0.00879962
0.00952748
0.0105465
0.0116228
0.0128365
0.0136433
0.0147957
0.0156156
0.0159882
0.0162152
0.0160102
0.0152972
0.0146993
0.0137659
0.0130596
0.0118141
0.0111544
0.0104242
0.0100205
0.00653665
0.00735075
0.00795054
0.008847
0.00958474
0.0104035
0.0112858
0.0122735
0.0129859
0.0133331
0.0134229
0.0133814
0.0129127
0.0124254
0.0116129
0.0106469
0.00991861
0.00925603
0.00895729
0.00851085
0.00554473
0.0059066
0.00648783
0.00707135
0.00770883
0.00860592
0.00944883
0.0100056
0.0104829
0.0110588
0.0110533
0.0109676
0.0104934
0.00994433
0.00935498
0.0087247
0.00799011
0.00743137
0.00713371
0.00673864
0.00440153
0.00427334
0.00498114
0.00539865
0.00596143
0.00663504
0.00718729
0.00775014
0.00832287
0.00849765
0.00836741
0.00832323
0.00802524
0.00782509
0.00707304
0.00686147
0.00641442
0.00587156
0.00523549
0.00543034
0.00318566
0.00283571
0.00365512
0.00383314
0.0040204
0.00487612
0.00521059
0.00530866
0.00606487
0.00634408
0.00606031
0.00598476
0.00586296
0.00540326
0.00524329
0.00480315
0.00441905
0.00415587
0.00380579
0.00370904
0.00176744
0.00176073
0.00218506
0.00225815
0.00260938
0.00281318
0.0030673
0.00355415
0.00367849
0.0037333
0.00372064
0.00369546
0.00341104
0.0034373
0.00302758
0.00276071
0.00272189
0.00239599
0.00231161
0.00227303
0.000600436
0.0005869
0.000675746
0.000614215
0.000868644
0.000949275
0.000921709
0.0010236
0.00149526
0.00121842
0.00116499
0.0012907
0.00134196
0.00135532
0.000828317
0.00103126
0.00101451
0.000678901
0.000860122
0.000660893
0.0078211
0.00855898
0.00944874
0.0103729
0.0116496
0.0129027
0.0140492
0.0151584
0.0159614
0.0164233
0.0167454
0.0163896
0.0156801
0.0147336
0.0137379
0.0131003
0.011936
0.0111375
0.0104474
0.00990374
0.00661486
0.00715534
0.0079574
0.00875694
0.00989394
0.0107333
0.012055
0.0130102
0.0134714
0.0139621
0.0141262
0.0142148
0.0133777
0.012466
0.011692
0.0110671
0.0100099
0.00971161
0.00899802
0.00836889
0.00566012
0.00593286
0.00668889
0.00732464
0.00790575
0.00895826
0.00982587
0.010695
0.0114303
0.0117299
0.0119031
0.0118873
0.0113483
0.0106916
0.00997574
0.00916805
0.00831145
0.00778801
0.00707956
0.00680759
0.00438974
0.00488815
0.00514109
0.00589029
0.00672443
0.00729362
0.00814496
0.00896993
0.00939366
0.00963324
0.00969331
0.00967177
0.00928815
0.00853508
0.00806348
0.00745956
0.0069322
0.00625594
0.00589721
0.00573711
0.00359077
0.00381369
0.00403939
0.00449177
0.00497411
0.00555914
0.00617681
0.00698609
0.00719238
0.00730339
0.00745595
0.00756319
0.00715088
0.00664963
0.0062312
0.00575167
0.00537852
0.00498017
0.00468588
0.00430346
0.00254937
0.00268732
0.00295493
0.00343435
0.00373866
0.00417744
0.00424739
0.0047448
0.00506542
0.00546227
0.00545556
0.00536169
0.00514873
0.00504562
0.00465184
0.00396837
0.0039965
0.00340049
0.00342116
0.00311755
0.00136505
0.00151023
0.00179731
0.00179484
0.00217152
0.0026284
0.00258074
0.00277062
0.00314759
0.00331895
0.00321253
0.00319193
0.00297023
0.0030507
0.00263571
0.00245468
0.00236262
0.00210416
0.00188665
0.00194786
0.000512998
0.000327476
0.000666759
0.000655787
0.00117244
0.000872258
0.000873915
0.000975621
0.00111508
0.00140305
0.000755435
0.00103136
0.0010844
0.00101117
0.0010455
0.000831694
0.000549503
0.000674408
0.000656457
0.000425328
0.00558074
0.00607417
0.00695876
0.00790862
0.00888174
0.00991446
0.0109605
0.0121476
0.0129626
0.0133139
0.013547
0.0130167
0.0125856
0.0117897
0.0109911
0.00975134
0.00884703
0.00821647
0.00751079
0.00686368
0.00438008
0.00535157
0.00561099
0.00655345
0.00752162
0.00832453
0.00935994
0.0101997
0.0108795
0.0114892
0.0113644
0.0115706
0.0108341
0.0101985
0.0091073
0.00846385
0.00751542
0.00681568
0.00670759
0.00595103
0.00395365
0.00424301
0.00479357
0.00535395
0.00602833
0.00709191
0.00789759
0.00879382
0.00909734
0.00955417
0.00974023
0.00949733
0.00915322
0.00826361
0.00752016
0.00693039
0.00668061
0.00596462
0.00535143
0.00510044
0.00281485
0.00340402
0.00371521
0.0043882
0.00517666
0.00565489
0.00646498
0.00704381
0.00760864
0.00782861
0.00778148
0.00765588
0.00721527
0.00699397
0.00611268
0.00567527
0.00499566
0.00464381
0.00438708
0.00415795
0.00225725
0.00266803
0.00274202
0.00350834
0.0038111
0.00439119
0.00499101
0.00530366
0.00586456
0.0061591
0.00621318
0.00601904
0.00560365
0.00539558
0.00500203
0.0044436
0.00372323
0.00349048
0.00335881
0.00298596
0.00178383
0.00183423
0.00205642
0.0024121
0.00282362
0.00316632
0.00347147
0.00384318
0.00408451
0.00432206
0.00437022
0.00421091
0.00413914
0.00381134
0.00330596
0.00324281
0.00278016
0.00262695
0.00268881
0.00209885
0.000984363
0.00121999
0.00115949
0.00138722
0.00161888
0.00186208
0.00216137
0.00227265
0.00252077
0.00273429
0.00273811
0.00259514
0.00238309
0.00246233
0.00201527
0.00187434
0.00169334
0.00165248
0.00136018
0.00126307
0.000315016
0.000194585
0.00036414
0.000357526
0.000617197
0.000668202
0.000710674
0.000971409
0.000655211
0.000778843
0.000937461
0.000865041
0.000807268
0.000728982
0.000859238
0.0007463
0.000585697
0.000608307
0.000493452
0.000499099
0.00327006
0.00352641
0.00437599
0.00476501
0.00571361
0.00694167
0.0077945
0.00910191
0.00959937
0.0102403
0.0102742
0.0097355
0.00947655
0.00845937
0.00766948
0.00678457
0.00613212
0.00510189
0.00457508
0.00446585
0.00249372
0.00281424
0.0035183
0.00401955
0.00483615
0.00558922
0.0069845
0.00743957
0.00804378
0.00869355
0.00874206
0.00820885
0.00808093
0.00719641
0.00657864
0.00573541
0.00492026
0.00417485
0.00384647
0.00348474
0.00208695
0.00231925
0.00272691
0.00331861
0.00405026
0.0048199
0.0054911
0.00623672
0.00696903
0.00727892
0.00706489
0.00704105
0.00620545
0.00601446
0.00524773
0.00492101
0.00400925
0.00357114
0.00325013
0.00315385
0.00206648
0.00156886
0.00218693
0.00282938
0.00332847
0.00394411
0.00460629
0.00496254
0.0055712
0.00559226
0.00566533
0.00566294
0.00534705
0.00476017
0.00444203
0.0038676
0.0031694
0.00280939
0.00287264
0.00238724
0.00111612
0.00127446
0.00170559
0.00198394
0.00226903
0.00282412
0.00356323
0.00399617
0.00416484
0.00430624
0.0044545
0.00427807
0.00417165
0.00367997
0.00344738
0.00290438
0.00259108
0.00221606
0.00184174
0.00186541
0.000887234
0.000932311
0.0011758
0.00122097
0.00177803
0.00209291
0.00244604
0.00280379
0.00317339
0.00338333
0.00348584
0.00307145
0.00289889
0.00275918
0.00228135
0.00218253
0.00172747
0.00149503
0.00132718
0.00119342
0.000550749
0.000499058
0.000733216
0.000914496
0.00104076
0.0013226
0.00143743
0.00157374
0.0017154
0.00175641
0.00192789
0.00177283
0.00175621
0.00159885
0.00132405
0.00126457
0.00116363
0.000881114
0.000825281
0.000797808
7.42488e-05
0.000182226
0.000189556
0.000225594
0.000305434
0.000515753
0.000344071
0.000497317
0.000588884
0.000692458
0.000607665
0.000664349
0.000707587
0.000405674
0.000436918
0.000572281
0.000254755
0.000299668
2.97197e-05
0.000398682
0.000879765
0.00117868
0.00165198
0.00229464
0.00319622
0.00377881
0.00480912
0.00550264
0.00653511
0.00651783
0.00680925
0.0063139
0.00579762
0.00517482
0.00431928
0.00376738
0.00270838
0.00228336
0.00180442
0.00153706
0.00043086
0.000478467
0.0011471
0.0016722
0.00235733
0.00350757
0.00402823
0.00476403
0.00512349
0.00544274
0.00564579
0.00539393
0.00492877
0.00411896
0.00354318
0.00282766
0.00245375
0.00161263
0.00139178
0.00115866
0.000441984
0.000435889
0.000623386
0.00132094
0.00188932
0.00245943
0.00321042
0.00381606
0.00420444
0.00481783
0.00441144
0.00438705
0.00406617
0.0036087
0.00292112
0.00220212
0.00204744
0.00142313
0.0011506
0.000978134
8.16752e-05
0.000318259
0.000371163
0.000979127
0.00159053
0.00175805
0.00264103
0.00303234
0.00340144
0.00358173
0.00338143
0.00348788
0.00333376
0.00296792
0.00249345
0.00184437
0.00151132
0.00110096
0.00064214
0.000732359
2.40379e-05
9.56255e-05
0.000340092
0.000824754
0.00111397
0.00149474
0.00205114
0.00215631
0.00248977
0.00295212
0.00255931
0.00270661
0.00231161
0.00185146
0.00177419
0.00143389
0.00100079
0.000844199
0.000695544
0.000327071
6.29016e-05
0.000197106
0.000277671
0.000468787
0.000649582
0.00106466
0.00120401
0.00153479
0.00183616
0.00192679
0.00187403
0.00188965
0.00200077
0.00141733
0.00114209
0.000933114
0.000783253
0.00037451
0.000329811
0.000295797
8.71975e-05
0.000152774
5.76323e-05
0.000467431
0.000355695
0.00041969
0.000651753
0.000980091
0.00114325
0.00134335
0.00101722
0.00125175
0.000957477
0.000741532
0.000641266
0.000589603
0.000493726
0.000356008
0.000452526
9.85442e-06
4.89019e-05
5.61253e-05
6.01565e-05
0.000161027
0.000190053
0.000129072
0.000166728
0.000237557
0.000317425
0.00039021
0.000564565
0.000284231
0.000391735
0.000276987
0.000135188
0.000111442
0.000195154
9.23683e-05
7.14764e-05
9.10157e-06
0.00142969
0.00137152
0.00086297
0.000340437
9.15553e-06
0.000846898
0.00181571
0.00239849
0.00297222
0.0034356
0.00343009
0.0028555
0.00262951
0.00211789
0.00124399
0.000541709
7.72727e-05
0.000410628
0.000831449
0.000840826
0.00134527
0.00139323
0.00118168
0.000651658
5.50223e-05
0.000645775
0.00119598
0.00206191
0.0021626
0.0027374
0.002841
0.00269488
0.00215051
0.00155646
0.000853069
0.000320649
0.00032868
0.000669193
0.00102985
0.000828401
0.00126716
0.00138765
0.00106085
0.000640534
0.000309912
0.000186213
0.000879532
0.0014734
0.00202853
0.00199357
0.00229321
0.00191264
0.00159071
0.000930692
0.000508048
8.99792e-05
0.000406489
0.000866499
0.00092623
0.000856611
0.00115744
0.00126013
0.000955317
0.000805852
0.000265273
9.28404e-05
0.000616898
0.00110682
0.00151244
0.00151234
0.00163326
0.00146183
0.0011949
0.000919757
7.78386e-05
2.52193e-05
0.000301616
0.00072731
0.000861203
0.00101208
0.000979568
0.000912083
0.00091096
0.000587964
0.000378973
0.000205938
0.000244347
0.000812335
0.000983093
0.00127823
0.00108568
0.00122655
0.000724097
0.000627625
0.000263038
7.43905e-06
0.000314998
0.000598556
0.000796217
0.000896724
0.00082879
0.000550343
0.000528495
0.000336345
0.000293419
4.09597e-05
0.000359163
0.000760635
0.00087949
0.000785728
0.000897892
0.000688367
0.000723926
0.000120538
0.000169554
0.000261588
0.000439358
0.000389383
0.000301536
0.000601521
0.000616499
0.000393683
0.000282637
8.25428e-05
3.10469e-06
2.59889e-05
0.000363495
0.00030595
0.000221487
0.000587891
0.000744385
0.000516207
0.000580222
0.000206893
0.000279007
0.00010536
0.000376695
0.000295009
0.000299559
0.000263571
0.000109772
0.00025916
4.10949e-05
8.52519e-05
9.03304e-05
0.000192785
2.15851e-05
7.27593e-06
7.4388e-05
0.000260121
0.000219292
0.00018143
0.000432154
9.17436e-06
4.07445e-05
2.31684e-05
0.000121074
2.31255e-05
0.000211888
0.000306472
0.003321
0.00338511
0.00306597
0.00282814
0.00248413
0.00184215
0.00103386
0.000679648
0.000207522
0.000327658
2.14481e-05
2.33885e-05
0.00061813
0.0010654
0.00176264
0.00232487
0.00285775
0.00296225
0.00332128
0.00331607
0.00319566
0.0034165
0.00311673
0.00291744
0.00230227
0.00195605
0.00138083
0.000874719
0.000280773
0.000105013
0.000417912
0.0002958
0.000751894
0.00116569
0.00178503
0.00220365
0.00265274
0.00319733
0.00318794
0.00310114
0.0027299
0.00292438
0.0027119
0.00257182
0.00212281
0.00169849
0.00143348
0.000823588
0.000464887
0.000418725
0.000304621
0.00035962
0.000656994
0.00107252
0.00170814
0.00209077
0.002133
0.002656
0.00266871
0.00268634
0.00255554
0.00258416
0.0024751
0.0021143
0.00166
0.00138674
0.0010801
0.000939108
0.000560775
0.00031314
0.000507534
0.000464549
0.000690997
0.00120586
0.00149133
0.00182652
0.00204089
0.00228159
0.00230075
0.00232875
0.00195122
0.00202192
0.00187287
0.00169605
0.00161663
0.00119305
0.000922857
0.000822775
0.000608834
0.000510012
0.000352701
0.000360297
0.000657415
0.000980085
0.00107652
0.00126964
0.00161942
0.00189137
0.00201178
0.00188341
0.00129005
0.00144248
0.00160952
0.0013343
0.00105467
0.00116696
0.000616705
0.000839215
0.000379028
0.00031214
0.000152004
2.28094e-05
0.000365978
0.000962592
0.00103688
0.00113408
0.00134307
0.00131081
0.00143284
0.00126488
0.00078372
0.000878719
0.000762109
0.000772058
0.000716262
0.000598521
0.000356
0.000320387
0.000279087
0.000376968
8.74279e-05
0.000159167
0.000294553
0.000537851
0.000611645
0.000799871
0.000777896
0.000774832
0.000952256
0.000958436
0.000244182
6.52606e-06
0.00048081
0.000221034
0.000359232
0.000124265
6.10055e-05
1.75717e-05
0.000134664
0.000120325
4.46668e-05
6.24935e-05
1.9194e-05
0.000180651
0.000322311
0.000399415
0.000146473
0.000471212
0.000294721
0.00028369
0.00514267
0.00515939
0.00533548
0.00521546
0.00463446
0.00425042
0.00375228
0.00345198
0.00306039
0.00299593
0.0029195
0.002972
0.00358232
0.00403978
0.00453594
0.0052192
0.00538879
0.00586784
0.00552596
0.00559232
0.00498185
0.00475356
0.00472582
0.00481695
0.0042776
0.00415421
0.00346968
0.00344468
0.00273535
0.00260611
0.0028046
0.00306317
0.00332136
0.00357857
0.00402125
0.00437727
0.00479288
0.00504552
0.00529119
0.005215
0.00415702
0.00438891
0.00433189
0.00425571
0.00387547
0.00354107
0.00321745
0.00304592
0.00279346
0.00260459
0.00280102
0.00281545
0.00291554
0.00347948
0.00368458
0.00434018
0.0042701
0.00451218
0.00456536
0.00428839
0.00359189
0.00365418
0.00363637
0.00358238
0.0032541
0.00318225
0.00281502
0.00257073
0.00236709
0.00224708
0.00235847
0.00246545
0.00279279
0.0029794
0.00316225
0.00321923
0.00369693
0.00383146
0.00392868
0.00357878
0.00287898
0.00278723
0.00276953
0.00293538
0.00270083
0.00250013
0.00217378
0.00190284
0.00185039
0.00177724
0.00183315
0.00221531
0.00215149
0.00253107
0.00237331
0.00275616
0.00297191
0.00315234
0.00303731
0.0028873
0.00195465
0.00204708
0.00220952
0.00207812
0.00178234
0.00203804
0.00168785
0.00148067
0.00138905
0.00130443
0.00101291
0.00149687
0.00157465
0.00150424
0.00189925
0.00207871
0.00227601
0.00236855
0.00226409
0.00230516
0.00105758
0.0013942
0.00133552
0.00109218
0.00108312
0.00115931
0.00120131
0.000982791
0.000828463
0.000818902
0.000693831
0.000949366
0.001105
0.00106967
0.000729973
0.00110315
0.00137597
0.0012876
0.00138862
0.00152049
0.000566395
0.000556702
0.000284832
0.00032022
0.00049359
0.000344546
0.00036672
0.000413801
0.00031711
5.93355e-05
0.000377702
0.000186046
0.000360112
0.000229875
0.000201324
0.000558738
0.000528029
0.000304908
0.00020067
0.000340262
0.00645513
0.00687942
0.0069443
0.00703327
0.00701364
0.0067075
0.00628613
0.00591607
0.00590924
0.00541221
0.00575762
0.0060304
0.00633225
0.00668451
0.00698161
0.00731251
0.00763159
0.0078449
0.00774803
0.00727395
0.00590403
0.00628751
0.00650389
0.00634657
0.00641878
0.00607878
0.00577295
0.00550548
0.00520216
0.00517161
0.00513849
0.00516091
0.00567423
0.0061368
0.00636583
0.00679245
0.00705096
0.00682577
0.00679593
0.0067603
0.00550793
0.00556413
0.00547605
0.00571675
0.00551535
0.00545746
0.00493985
0.00496222
0.00478089
0.00463422
0.00472935
0.00493576
0.00509432
0.00534565
0.00562962
0.00600686
0.00614228
0.00596149
0.00589144
0.00596893
0.00442346
0.00472244
0.00494623
0.00469837
0.00465703
0.00465576
0.00438126
0.00429262
0.00391836
0.00390532
0.00410012
0.00412056
0.00407835
0.00452314
0.00459021
0.00502519
0.00494784
0.0051169
0.00506716
0.00501666
0.00342723
0.00378096
0.00405461
0.00373712
0.00355337
0.00339737
0.00340662
0.00320202
0.00328074
0.00310283
0.00306694
0.00317757
0.0032527
0.00364649
0.00372031
0.00407044
0.00427035
0.00410703
0.00384462
0.00387684
0.00285678
0.0026643
0.00270032
0.00269187
0.0026499
0.00290107
0.00244998
0.00240631
0.00241634
0.00246873
0.00238048
0.00231545
0.00242915
0.0026597
0.00271792
0.0028199
0.0031545
0.00302731
0.00284397
0.00262507
0.00150102
0.00154736
0.00155546
0.00146644
0.0018657
0.00172614
0.00130588
0.00143265
0.00140397
0.0013845
0.00138214
0.00147621
0.00145364
0.00145045
0.0016783
0.00169743
0.00179957
0.00163389
0.00176287
0.00176731
0.000459878
0.000545367
0.000709182
0.000809919
0.000799739
0.000424214
0.000438339
0.000632888
0.000432898
0.000582605
0.000618685
0.000530213
0.00050594
0.000701875
0.000526224
0.000567322
0.000564294
0.000475533
0.000605702
0.000729324
0.0077607
0.00834335
0.00867761
0.0087752
0.00872187
0.0085868
0.00850778
0.00841332
0.00792565
0.00807144
0.00835078
0.00838564
0.00867159
0.00890436
0.00934123
0.00959415
0.00961163
0.00940802
0.00934216
0.00902278
0.00698244
0.0075421
0.00787716
0.00805191
0.00792519
0.0076983
0.00759811
0.00774854
0.00751941
0.00721918
0.00758292
0.00765778
0.00793272
0.00825823
0.00822749
0.00865134
0.00861182
0.00847451
0.0081773
0.00795215
0.00622908
0.00656813
0.00682261
0.00690254
0.00707131
0.00683691
0.00680657
0.00652362
0.00654142
0.00664637
0.00654655
0.00675014
0.00698015
0.00718601
0.00734664
0.00737502
0.0073025
0.00743901
0.00714743
0.00683259
0.00531661
0.00539429
0.00581859
0.00568206
0.00599603
0.0057176
0.00562054
0.00553717
0.00547796
0.00552483
0.00549051
0.00558158
0.00569757
0.00591788
0.00620745
0.00615797
0.00629931
0.00623938
0.00600637
0.00593732
0.00407601
0.0044024
0.00491051
0.00478628
0.00479261
0.00470714
0.00444152
0.00447506
0.0043615
0.00433598
0.00449824
0.00451658
0.00466284
0.0046675
0.00485994
0.00488961
0.00487921
0.00487037
0.00478121
0.00465985
0.00311373
0.00308682
0.00333049
0.00328749
0.00329339
0.00320444
0.00320386
0.00326181
0.00303977
0.00338944
0.00312679
0.00338818
0.00307427
0.00342349
0.00331767
0.00367285
0.00372571
0.00357076
0.00338306
0.00346561
0.00192123
0.00190767
0.00215527
0.00206194
0.00219507
0.00205488
0.0021087
0.00189269
0.00193274
0.00184168
0.0018915
0.0019748
0.00213062
0.00223321
0.00218729
0.00228079
0.00213174
0.00221058
0.00221003
0.00188305
0.000603913
0.000733361
0.00063412
0.00060323
0.000747205
0.000700782
0.000652247
0.000674307
0.000885001
0.000800327
0.000694537
0.00068186
0.000624647
0.000671801
0.000916363
0.000859988
0.000729439
0.000742309
0.000856988
0.000820239
0.0088141
0.00945843
0.00990674
0.0101853
0.0105236
0.0104307
0.0104158
0.0102691
0.0101525
0.0103805
0.0100206
0.0107598
0.010977
0.0108843
0.0111994
0.0113254
0.0113247
0.0112961
0.0105641
0.0104247
0.00780516
0.00841005
0.00880952
0.00911354
0.00934725
0.00939871
0.00952475
0.00917161
0.00925832
0.00922236
0.00928984
0.00951267
0.00965213
0.00978769
0.0100228
0.0103135
0.0101102
0.00976864
0.00971427
0.00926725
0.00688373
0.00717504
0.00761185
0.00809985
0.00792793
0.00836537
0.0082776
0.00803233
0.00799845
0.00817982
0.00799737
0.00827563
0.00850689
0.00847157
0.00888103
0.00879257
0.00867166
0.00860697
0.00836851
0.00806322
0.00589662
0.00603224
0.00635911
0.00651327
0.00690176
0.00678829
0.0068809
0.00691125
0.00667884
0.00705284
0.00690241
0.00689685
0.00727521
0.00721012
0.0074724
0.00739414
0.00748118
0.00714294
0.00694625
0.00655036
0.00461192
0.0047617
0.00525183
0.0052526
0.00512148
0.00558636
0.00558805
0.00546205
0.00532501
0.00553187
0.00553491
0.00555229
0.0057255
0.0057744
0.00593214
0.00583216
0.0057442
0.005583
0.00550724
0.0053535
0.00362015
0.00334159
0.00375347
0.00375845
0.00384822
0.00394394
0.0039336
0.00413431
0.00385126
0.00392835
0.00411635
0.00429815
0.00418261
0.00406544
0.00438665
0.00410848
0.00390944
0.00410784
0.00394478
0.00403654
0.00219718
0.00219878
0.00228765
0.00236118
0.00233064
0.00248226
0.00241446
0.00220135
0.00243725
0.0025773
0.00231677
0.0022169
0.00242923
0.00243599
0.00251439
0.00279951
0.002465
0.00256718
0.00251676
0.00235802
0.000536883
0.000988288
0.000851821
0.000852924
0.000821439
0.000871999
0.000976181
0.000684304
0.00103572
0.00080645
0.000707522
0.00083526
0.000870833
0.000926307
0.0010341
0.000924865
0.000826457
0.000981453
0.00069974
0.000811022
0.00925106
0.0101653
0.0105869
0.0111461
0.0117602
0.0116415
0.0118479
0.0120994
0.0122526
0.0122916
0.0121225
0.0124455
0.0125123
0.0128367
0.0128432
0.012873
0.0127317
0.0121516
0.0119056
0.0115269
0.00836361
0.00913016
0.00948631
0.0101769
0.0103807
0.0104498
0.0108477
0.0109908
0.0107244
0.0109885
0.0109854
0.0113086
0.0114235
0.0114458
0.0114499
0.0117557
0.0113008
0.0109247
0.0107229
0.0100828
0.00752707
0.00800837
0.00846259
0.00876736
0.00915386
0.00920539
0.00951339
0.00935498
0.00944142
0.00941592
0.00975216
0.00960396
0.00991542
0.00994019
0.0097382
0.0100421
0.0096974
0.00977329
0.00923211
0.0089185
0.0061965
0.00659103
0.00703075
0.00744622
0.00764969
0.00773794
0.00789874
0.00794306
0.00797775
0.00804807
0.00800561
0.00818583
0.0082766
0.00820544
0.00829381
0.00836122
0.00800974
0.00812441
0.00785185
0.00736595
0.00502381
0.00529753
0.00571576
0.00569932
0.00592283
0.00602393
0.00613185
0.00609177
0.00638891
0.00633571
0.00645878
0.00652476
0.00657776
0.00659125
0.00656078
0.00674169
0.00660162
0.00636228
0.00598607
0.005852
0.00338868
0.0041389
0.00378654
0.00427125
0.00444101
0.00451443
0.00439208
0.00450788
0.00457159
0.00474592
0.00482723
0.00461166
0.00474201
0.004913
0.00488201
0.00493648
0.00460748
0.00488919
0.00428987
0.00416347
0.00232156
0.00229182
0.00236081
0.00256108
0.00267934
0.00271947
0.00292887
0.00277318
0.00273842
0.00265612
0.00297481
0.00292602
0.00288701
0.00269182
0.00282536
0.00303834
0.00292037
0.00283512
0.00262582
0.00272685
0.000877063
0.000774256
0.000892011
0.000726106
0.000882382
0.000980272
0.000958643
0.0010741
0.000976043
0.000907092
0.00105185
0.00106359
0.000976496
0.000871726
0.000925631
0.00104905
0.000947394
0.000922216
0.000999683
0.000813849
0.0097712
0.010363
0.0110424
0.0120948
0.0126892
0.0129134
0.013049
0.0131142
0.0133545
0.0135505
0.0136476
0.0138357
0.0140311
0.0140325
0.0139508
0.0138566
0.013691
0.0131106
0.0125434
0.0117997
0.00886031
0.00934787
0.0102264
0.01082
0.0111351
0.0114318
0.0116062
0.0119436
0.0120975
0.0120288
0.0123184
0.0123021
0.0125518
0.012488
0.0125117
0.012282
0.0120558
0.0119157
0.0113482
0.0108093
0.00760609
0.00827308
0.0088761
0.00936885
0.00968446
0.0101605
0.0100288
0.0106518
0.0104899
0.010525
0.0108466
0.010703
0.0110768
0.0106758
0.0109991
0.0108186
0.0106304
0.0104415
0.00952871
0.00937888
0.00648875
0.00692988
0.00746735
0.00784287
0.00786783
0.00830033
0.00850148
0.00864302
0.00904323
0.00886112
0.00877182
0.00886445
0.00899128
0.00890638
0.00920738
0.00891378
0.00891664
0.00840035
0.00802208
0.00774962
0.0051262
0.00560374
0.00588582
0.00617336
0.00646616
0.00643132
0.00677968
0.00708063
0.00678961
0.00701417
0.00687228
0.00703647
0.00700644
0.00731352
0.00717522
0.00690344
0.00688746
0.00684088
0.00629527
0.00626907
0.00374561
0.00399021
0.0042921
0.00464422
0.00493581
0.00487802
0.00500258
0.00502609
0.00526038
0.00521302
0.0053376
0.00518577
0.00517965
0.00502221
0.0052802
0.00515119
0.00523791
0.00498397
0.00466388
0.004365
0.00245104
0.00254086
0.00271575
0.00286944
0.00249041
0.00278257
0.00298506
0.00282509
0.00280206
0.00296614
0.00301915
0.00326377
0.00328898
0.00324556
0.00299786
0.00292476
0.00300509
0.00296162
0.00268477
0.00280213
0.000477669
0.000840074
0.00095617
0.00115531
0.00108513
0.000845241
0.00112971
0.00101813
0.000993066
0.000916344
0.000992227
0.000984861
0.00116867
0.0012011
0.00128824
0.000873059
0.00102869
0.00104195
0.000661404
0.00100966
0.00955389
0.0102899
0.01147
0.0124847
0.0128936
0.0135715
0.0139006
0.0142069
0.014339
0.0145313
0.0144604
0.0149257
0.0150125
0.0151674
0.0149443
0.0147617
0.0143713
0.0138504
0.0129539
0.0122923
0.00867931
0.00922564
0.0103384
0.0111497
0.0114951
0.0119857
0.0124441
0.0126188
0.0128478
0.0131329
0.0130812
0.0132616
0.0134972
0.0132031
0.0133048
0.013055
0.0125657
0.0123748
0.0117184
0.0109175
0.00761061
0.00835203
0.00893016
0.00955827
0.00998611
0.0103854
0.0108368
0.0109362
0.0111523
0.0115076
0.0114332
0.0114215
0.011525
0.0115767
0.011422
0.0115306
0.0112404
0.01073
0.0100591
0.00943221
0.00613644
0.00698903
0.00738161
0.00803803
0.00832864
0.00866514
0.00906888
0.00903241
0.00948343
0.00970637
0.00966275
0.00962047
0.00976453
0.00961266
0.00944753
0.00946852
0.00919944
0.00895171
0.00848153
0.0077563
0.00522314
0.00530243
0.00616275
0.00661108
0.00669319
0.00695696
0.0073514
0.00716545
0.00742666
0.00730804
0.00746377
0.00754342
0.00775228
0.00785438
0.00788305
0.007557
0.00740836
0.00708004
0.00658465
0.0062421
0.00354116
0.00400359
0.00433353
0.00475263
0.00499609
0.00518738
0.00507171
0.00510314
0.00551547
0.00557678
0.00562685
0.00548699
0.00583956
0.00558446
0.00565307
0.00529903
0.00541791
0.00512655
0.00494346
0.00463567
0.00228506
0.0026093
0.00276219
0.00281373
0.0030972
0.00315573
0.0031213
0.0030077
0.00341119
0.00338906
0.00319314
0.00339911
0.00351448
0.00335192
0.00328121
0.00335207
0.0032615
0.00295912
0.00290819
0.00287547
0.000745106
0.000742692
0.000705862
0.00134634
0.00123013
0.000996917
0.000932266
0.0010027
0.00105023
0.00105114
0.000959969
0.00120786
0.00109748
0.00107356
0.00105904
0.00114481
0.000833855
0.00136804
0.00109484
0.000885597
0.00886633
0.0102872
0.011109
0.0121753
0.0130962
0.0135651
0.0141626
0.0145802
0.0150476
0.0151259
0.0155397
0.0154668
0.0155431
0.0155245
0.0152071
0.0150415
0.0144785
0.0140191
0.0129802
0.0121655
0.00833647
0.00908419
0.0101423
0.010878
0.0115006
0.0123292
0.012839
0.0130176
0.0135432
0.0133262
0.0137739
0.0137749
0.0139688
0.0138647
0.0137152
0.0134188
0.0130698
0.0123459
0.0116476
0.0111222
0.00747724
0.0078552
0.00883212
0.00962291
0.0103428
0.0105459
0.0111653
0.0113037
0.0115405
0.0118584
0.0118855
0.012102
0.0119131
0.0120396
0.0118569
0.0115212
0.0113011
0.0107608
0.0101722
0.00941684
0.00610583
0.00676997
0.00752353
0.00798583
0.00841816
0.00902172
0.00909157
0.00946404
0.00967146
0.0098011
0.00993001
0.0100388
0.0101243
0.00991734
0.0098802
0.00966841
0.00909408
0.00894896
0.00851966
0.0079594
0.00480926
0.00523275
0.00575749
0.00620774
0.0067681
0.00697901
0.00725351
0.00759669
0.00765576
0.00790939
0.00785624
0.0079447
0.00793323
0.00792364
0.00800097
0.00774356
0.00769039
0.00706471
0.00676427
0.00616594
0.00339277
0.00388007
0.00412891
0.00462675
0.00502248
0.00525368
0.00522656
0.00557637
0.00541667
0.00559038
0.00569069
0.00593735
0.00587052
0.00581242
0.00570256
0.00547616
0.00528046
0.00500762
0.00486279
0.00446839
0.0022205
0.00249369
0.00268148
0.00280904
0.00302285
0.00303852
0.00331958
0.00323128
0.00366004
0.00348562
0.00343257
0.00344747
0.00358525
0.00332143
0.00353749
0.00350617
0.00329013
0.00314609
0.00304192
0.00284032
0.000647592
0.000780889
0.000868629
0.000887542
0.00114253
0.000757385
0.00111643
0.00127197
0.00120629
0.0012449
0.00123991
0.00109058
0.00127243
0.00109916
0.00109483
0.00114425
0.00105925
0.00107845
0.00112633
0.00112674
0.00839496
0.00953487
0.0109556
0.0117182
0.0128326
0.0135432
0.0142993
0.0145975
0.0150108
0.0152638
0.0155968
0.015726
0.0156917
0.0154948
0.0152303
0.0148275
0.0144175
0.0136297
0.0126974
0.0117077
0.00752657
0.00870358
0.00958877
0.0104242
0.0113009
0.0122079
0.0125745
0.0128118
0.0135414
0.0137227
0.0139083
0.0138414
0.0140821
0.014039
0.0135673
0.0133043
0.0131247
0.0123238
0.0113981
0.0105925
0.00667846
0.00757889
0.00841693
0.0092175
0.00978877
0.0107979
0.0111481
0.0114319
0.0118517
0.0119012
0.0121074
0.0122643
0.0121113
0.0120587
0.0119484
0.0116851
0.011081
0.0106569
0.00955798
0.0092577
0.00553798
0.00631134
0.00728217
0.00777602
0.00832125
0.00872438
0.00917261
0.00962583
0.00974197
0.0097672
0.0100317
0.0101173
0.0101522
0.01015
0.00997555
0.00982681
0.00940714
0.00895629
0.00798423
0.00767771
0.00453419
0.00521386
0.00576839
0.00620153
0.00670522
0.00716913
0.0073125
0.0075606
0.00787394
0.00767433
0.00820561
0.00808825
0.00796258
0.00788499
0.00784398
0.00781873
0.00749788
0.00700817
0.00650037
0.00625284
0.0033755
0.00389642
0.00398238
0.00458246
0.00494404
0.00500207
0.00537448
0.00528121
0.00553521
0.00560128
0.00568987
0.00614741
0.00574711
0.00571148
0.00564298
0.00555948
0.00540069
0.00533228
0.00464702
0.00432669
0.00215596
0.00225334
0.00254585
0.00276321
0.00305136
0.00294908
0.00310603
0.00336024
0.00344011
0.00332469
0.00349549
0.00368808
0.0035496
0.00355974
0.00368276
0.00335303
0.00333374
0.00296158
0.00292647
0.00259092
0.000709895
0.000653232
0.00090501
0.000918938
0.000931846
0.00135255
0.00107207
0.00113386
0.00109954
0.00136516
0.0012269
0.00117185
0.0011615
0.00116339
0.00132987
0.00124444
0.00107471
0.00106111
0.000917692
0.000947294
0.00724467
0.008361
0.00952853
0.0110391
0.0120822
0.0128749
0.0135725
0.0140752
0.0147259
0.0151883
0.0153496
0.0154502
0.0154539
0.0152517
0.0150315
0.0145685
0.0140251
0.0128903
0.0118857
0.0108201
0.00654764
0.00770646
0.00889898
0.0100386
0.0108273
0.0116514
0.0122777
0.012641
0.0132795
0.0133514
0.01375
0.0137452
0.0136733
0.0134769
0.0134486
0.0129834
0.0124839
0.0116498
0.0105196
0.0097589
0.00594077
0.00679308
0.00765513
0.00846669
0.00959795
0.0101847
0.0104579
0.0113485
0.0114818
0.0117001
0.011959
0.0121871
0.0120982
0.0118758
0.0116102
0.011336
0.0107947
0.00993346
0.00898983
0.00862981
0.00496494
0.00558511
0.00657515
0.0073487
0.00790565
0.00869626
0.00864631
0.00934434
0.00969059
0.00979341
0.0100664
0.010131
0.0100186
0.00988724
0.00983686
0.00920002
0.00918781
0.00870993
0.00766338
0.00716969
0.00412857
0.00435518
0.00530219
0.00583232
0.00642066
0.00692323
0.00707487
0.00740199
0.00772228
0.00789231
0.00798036
0.0078585
0.00782012
0.00784588
0.00785396
0.00730051
0.00721623
0.00668573
0.00626102
0.00586709
0.00323898
0.00357244
0.00381422
0.00419846
0.00461475