/*--------------------------------*- C++ -*----------------------------------*\
| =========                 |                                                 |
| \\      /  F ield         | OpenFOAM: The Open Source CFD Toolbox           |
|  \\    /   O peration     | Version:  2212                                  |
|   \\  /    A nd           | Website:  www.openfoam.com                      |
|    \\/     M anipulation  |                                                 |
\*---------------------------------------------------------------------------*/
FoamFile
{
    version     2.0;
    format      ascii;
    arch        "LSB;label=32;scalar=64";
    class       volScalarField;
    location    "0";
    object      stateMean;
}
// * * * * * * * * * * * * * * * * * * * * * * * * * * * * * * * * * * * * * //

dimensions      [0 0 0 1 0 0 0];

internalField   nonuniform List<scalar> 
3200
(
344.786
344.803
342.984
343.053
343.096
343.104
343.826
341.693
341.965
343.292
344.472
344.882
341.943
343.481
342.798
340.912
341.519
342.319
343.412
345.537
338.58
337.834
334.457
336.17
336.717
334.72
335.695
336.995
339.034
338.886
337.522
336.846
336.862
336.84
336.893
335.185
333.464
336.534
336.266
338.063
332.895
330.239
331.636
332.328
330.609
330.013
331.844
332.967
331.301
332.888
327.818
333.469
333.204
329.253
329.901
329.651
329.315
330.723
332.288
331.97
326.191
327.523
325.854
325.172
320.447
325.101
325.407
325.172
325.911
326.218
325.627
326.148
325.377
323.346
325.961
324.82
325.535
325.249
325.037
323.726
319.619
319.202
319.754
320.764
318.287
320.124
319.005
320.988
319.827
323.324
321.215
320.252
318.258
317.433
318.889
318.457
319.682
318.988
318.047
321.037
314.846
315.749
314.976
312.662
311.942
314.117
311.416
314.853
314.316
313.701
313.511
316.672
313.119
315.149
314.358
311.889
315.283
314.151
315.409
314.269
309.221
308.991
308.541
307.349
307.729
310.198
307.113
306.64
307.939
308.29
309.568
309.475
309.544
309.703
308.558
307.402
306.95
309.342
308.506
309.5
303.767
303.404
304.357
302.182
304.186
301.854
301.658
303.812
303.276
300.1
304.12
301.385
300.53
301.521
302.596
302.648
300.778
304.186
301.872
302.126
344.737
345.021
343.292
343.599
342.837
343.757
342.881
343.11
342.407
342.927
343.892
346.304
344.144
344.271
340.415
343.703
342.707
343.507
342.626
342.788
339.365
338.81
336.793
338.737
335.336
338.871
336.849
339.802
336.525
340.582
340.395
338.543
340.136
336.559
339.372
336.93
338.17
337.379
338.269
338.279
333.48
329.969
329.091
329.173
328.754
330.173
331.384
333.568
329.743
330.916
331.853
331.87
332.258
330.986
330.697
332.418
330.009
330.728
332.794
332.618
328.477
326.794
327.025
327.098
324.417
326.324
327.781
326.725
328.402
326.279
326.231
325.949
328.544
324.296
323.529
323.659
325.772
325.277
325.125
327.235
320.186
322.42
319.573
320.397
320.308
320.099
318.509
319.354
322.486
318.342
320.401
319.05
322.649
321.04
319.703
318.563
320.768
319.69
320.047
318.131
314.018
313.04
312.689
312.825
312.804
313.227
311.864
314.117
313.426
312.159
314.748
312.948
314.356
315.996
314.218
313.231
312.055
313.821
312.807
315.603
308.021
308.704
308.627
309.772
308.502
307.909
307.975
309.259
309.683
308.382
308.841
308.856
309.067
308.582
307.01
308.652
308.643
308.654
307.559
309.367
302.828
302.184
302.148
303.349
302.852
304.475
303.071
303.47
302.485
304.061
304.56
304.066
304.604
304.811
303.913
303.55
303.662
302.9
304.198
302.88
348.141
344.205
346.412
343.39
342.981
344.236
343.078
344.526
345.489
344.733
347.476
343.753
344.453
343.106
341.374
345.11
342.458
343.143
345.569
347.646
341.386
339.93
339.114
337.075
337.037
338.009
341.103
336.408
337.63
340.265
338.572
339.181
338.925
339.16
338.251
337.333
335.363
338.265
336.273
340.49
333.72
331.442
333.721
330.613
332.146
330.94
332.371
333.49
334.621
332.133
333.868
332.106
330.742
330.988
330.77
328.554
330.613
330.681
329.199
334.455
329.104
326.58
327.14
324.391
322.695
325.58
325.947
325.344
328.763
326.673
326.137
324.602
326.731
325.214
327.615
324.776
324.594
323.015
325.53
327.146
319.184
322.096
320.318
320.205
319.978
321.039
322.802
323.646
321.961
322.037
320.839
319.476
322.737
320.321
319.419
319.755
320.402
320.768
319.493
319.815
314.986
315.765
315.959
314.733
313.737
315.26
312.733
314.312
314.08
315.499
313.646
314.439
315.129
313.546
313.268
314.608
312.519
313.763
313.666
311.77
310.3
308.953
307.948
307.566
309.865
305.971
307.776
309.193
309.772
311.996
309.55
309.031
309.434
306.306
308.988
310.12
308.059
308.219
309.671
308.643
303.472
301.938
302.621
303.647
305.401
303.531
301.958
303.923
303.095
302.415
303.302
301.557
303.345
301.914
302.553
302.402
301.501
304.841
302.799
302.055
345.478
344.099
345.072
344.626
344.464
345.432
345.194
344.74
343.692
348.073
344.954
347.247
345.345
345.534
346.775
343.829
342.386
342.516
346.329
346.044
340.465
338.943
337.029
339.661
338.514
339.89
340.628
340.624
339.4
340.806
341.02
340.337
340.47
339.283
340.043
337.781
338.929
337.582
338.934
342.461
335.45
334.719
333.673
332.117
332.746
334.766
335.593
330.855
333.066
334.604
334.277
333.063
335.061
331.584
334.685
330.678
329.942
331.763
330.786
334.965
328.197
328.083
327.868
322.861
324.667
325.294
326.441
327.517
325.545
327.538
328.538
327.903
327.368
324.924
327.757
328.759
325.958
325.664
328.792
325.536
321.044
321.364
320.767
319.233
320.631
319.74
320.612
322.258
322.922
319.833
322.741
322.447
320.682
320.172
321.402
319.749
321.43
321.896
318.693
321.055
314.725
317.514
314.29
313.591
312.101
315.259
314.866
315.722
313.709
315.403
315.198
315.584
316.014
313.023
315.059
313.741
314.922
314.063
315.275
313.937
308.164
307.476
307.238
307.468
307.705
309.305
310.401
309.416
310.073
309.725
309.369
309.961
310.918
309.025
307.588
309.041
305.63
307.823
308.385
309.615
301.762
303.54
302.225
303.269
304.315
302.874
301.172
305.332
303.307
302.595
301.128
303.033
302.437
303.182
302.513
302.192
304.008
302.354
302.601
302.986
347.328
345.085
346.159
343.668
345.026
344.556
346.384
346.648
348.477
346.105
348.497
346.867
346.2
349.039
346.336
344.179
346.593
346.808
345.743
348.08
343.022
342.796
339.1
339.231
336.555
339.825
340.988
339.766
341.042
341.76
340.156
339.853
338.395
339.117
338.297
338.957
340.724
339.551
338.856
339.559
335.736
334.026
333.184
334.158
333.355
335.38
333.244
335.709
333.882
334.615
332.944
335.591
333.489
334.012
334.289
333.969
333.463
334.922
331.664
335.547
331.962
328.063
327.229
325.362
328.246
326.665
329.181
326.273
328.355
326.934
327.727
329.381
330.9
327.904
328.32
328.331
325.661
327.648
328.358
327.848
319.843
320.016
320.895
321.109
319.892
319.846
322.75
321.362
323.667
321.008
321.331
320.666
321.502
320.187
321.605
320.912
321.521
320.194
323.558
319.976
313.492
316.766
314.75
313.796
316.12
314.666
314.213
313.618
316.705
314.584
315.551
316.168
316.501
313.462
314.312
316.952
315.909
314.218
315.613
315.64
308.813
309.501
307.012
309.273
309.337
308.135
310.874
308.396
310.314
309.467
309.969
307.116
310.382
308.485
310.232
308.194
307.796
310.599
309.689
310.578
303.149
302.746
303.698
301.429
303.05
303.425
304.262
303.916
304.484
303.431
303.643
302.484
304.712
302.142
302.164
304.084
300.948
303.033
304.127
304.84
351.538
347.464
346.114
347.394
346.242
348.129
347.093
348.143
352.577
348.837
348.145
349.998
348.999
346.538
345.988
344.509
347.315
346.058
348.025
347.069
341.97
340.25
342.132
340.43
342.458
340.905
342.389
342.789
342.548
342.148
342.066
342.548
341.766
341.44
341.304
338.46
340.885
339.279
340.966
341.412
335.595
337.2
333.111
334.865
332.334
334.229
336.426
333.943
336.082
334.635
334.461
334.044
334.594
334.635
332.477
332.815
332.702
331.658
335.697
336.853
327.659
329.577
328.393
327.171
327.442
326.954
328.201
328.011
329.126
329.3
327.267
328.133
327.922
327.578
327.918
326.717
329.11
327.267
329.036
329.563
321.871
322.419
321.544
322.184
319.951
321.265
323.935
322.122
323.821
323.055
322.546
324.313
321.449
321.458
320.69
321.71
322.574
321.336
321.971
319.881
317.055
316.913
316.35
313.968
314.932
316.94
314.272
312.207
315.844
316.457
316.026
314.037
313.073
317.471
315.63
316.793
315.516
314.62
314.77
314.341
306.269
309.322
311.668
308.283
309.817
308.236
307.895
308.368
310.476
309.807
309.187
308.19
312.699
309.786
309.645
309.714
309.273
306.279
311.348
310.549
301.613
303.487
304.179
301.441
303.968
301.755
302.129
301.441
303.786
302.257
301.756
303.46
304.315
304.324
303.311
305.466
302.703
303.694
301.616
299.876
352.021
350.526
349.086
347.509
347.574
347.166
349.997
349.583
350.386
349.845
351.58
350.777
352.284
350.495
349.612
349.422
349.836
348.132
348.235
350.164
343.262
341.439
342.329
342.111
340.073
340.863
342.032
341.045
342.858
344.722
345.731
344.034
342.314
342.985
343.934
342.473
343.623
342.036
343.263
343.905
338.007
336.314
335.926
333.446
334.557
335.868
337.586
335.12
337.643
335.721
339.392
334.584
336.072
334.938
334.095
335.29
334.069
333.992
335.407
337.599
329.274
329.904
328.459
328.216
329.322
330.156
329.206
327.199
330.3
329.557
329.468
330.797
331.781
328.965
328.082
327.261
329.087
329.108
327.135
330.337
321.945
325.584
322.742
323.976
323.488
322.971
321.133
323.912
325.701
322.302
323.811
324.284
324.191
320.922
322.563
323.107
320.89
320.633
324.082
323.379
316.669
316.27
316.531
314.791
313.677
316.143
317.448
314.479
315.532
316.489
316.847
316.304
313.998
313.565
315.399
314.5
314.53
316.969
317.843
316.248
309.655
309.902
309.5
309.557
308.516
309.024
310.693
310.439
309.643
307.476
310.042
308.469
311.161
311.226
307.189
306.572
311.493
309.235
308.428
310.458
303.746
304.208
302.641
305.827
304.249
303.408
302.54
302.723
303.135
302.154
302.055
303.483
303.474
304.894
302.457
303.367
302.725
304.512
303.456
303.386
355.071
351.187
347.751
348.556
346.47
347.9
351.223
352.843
349.991
353.329
354.606
351.823
351.075
350.449
348.289
351.482
349.354
350.334
353.764
352.041
347.142
343.214
342.989
342.385
343.644
343.686
346.224
343.399
342.228
344.445
344.941
345.718
343.694
346.284
344.405
343.265
343.046
344.965
342.328
345.898
337.56
335.368
334.578
338.029
335.035
335.317
338.722
336.471
334.246
338.155
339.365
338.733
336.826
338.527
338.537
336.714
335.258
336.809
335.482
337.398
330.209
329.342
330.635
331.021
330.612
328.465
327.267
332.271
327.7
332.162
332.332
331.502
333.329
329.354
329.518
332.41
327.42
331.076
329.013
331.468
323.8
324.45
323.688
324.109
323.232
325.434
324.404
322.78
321.581
322.091
325.8
323.102
324.594
323.379
323.446
323.511
323.039
321.51
324.187
322.684
315.511
317.687
316.43
315.686
315.38
317.397
317.717
316.186
315.967
315.271
317.599
315.843
317.677
315.034
317.947
316.144
318.196
316.523
317.989
316.414
310.101
308.95
312.135
312.429
309.234
307.329
309.148
309.249
310.163
307.615
308.375
309.843
311.104
310.474
309.23
307.931
309.751
308.762
311.436
309.131
302.284
304.512
302.801
303.026
304.048
302.1
302.87
302.819
304.233
305.346
304.28
305.442
304.3
302.185
304.851
302.233
303.178
302.916
302.991
302.714
354.855
353.791
351.053
349.979
351.724
351.934
352.753
353.16
354.138
353.911
353.285
356.559
354.866
352.218
352.269
351.422
351.66
352.217
351.157
354.763
345.688
346.978
346.255
344.876
343.665
343.709
345.743
344.633
345.196
345.39
346.653
349.962
346.683
346.319
342.566
344.973
346.229
345.519
347.42
347.468
340.532
337.11
338.107
335.022
336.967
338.558
339.45
338.747
339.034
338.67
339.938
339.972
336.939
337.082
339.32
336.221
334.92
339.091
339.204
339.555
331.612
330.725
329.233
332.302
329.474
331.781
330.855
330.629
333.507
335.141
335.202
332.366
331.072
328.995
329.261
329.02
331.693
330.336
331.12
331.376
325.659
325.156
324.966
324.637
324.326
325.928
322.601
325.282
324.471
325.151
324.522
323.481
324.144
325.469
325.994
324.513
322.309
325.431
326.376
324.846
320.325
317.91
314.415
319.875
314.825
319.083
316.647
316.305
318.482
319.037
320.174
316.426
317.962
318.417
318.404
316.539
316.07
315.908
316.851
317.688
311.651
310.611
311.88
309.894
308.665
311.309
309.558
310.767
311.175
309.467
310.584
311.676
310.691
308.556
310.802
309.294
309.837
310.646
310.38
307.871
303.202
303.733
303.246
303.879
303.748
303.583
304.754
304.293
303.2
305.221
303.917
305.164
304.306
303.756
302.768
302.824
304.507
303.954
304.697
305.154
355.299
356.844
354.872
353.418
355.522
352.43
354.174
354.513
354.98
356.113
357.531
354.703
356.903
354.656
355.577
352.35
352.856
353.46
352.754
354.564
347.782
345.301
345.761
345.93
346.361
346.053
345.489
346.355
350.159
346.59
346.7
348.933
346.603
349.162
345.931
345.223
345.315
343.985
345.178
348.825
342.239
338.55
337.169
337.754
337.429
338.217
340.338
339.306
341.977
343.056
338.946
341.645
339.865
340.82
338.958
339.366
338.298
338.352
339.579
340.019
333.57
330.851
332.231
330.425
329.308
330.703
331.05
330.826
332.003
330.929
333.962
333.924
334.304
333.085
333.55
330.69
334.409
330.343
332.894
333.759
324.96
324.372
325.074
323.167
325.004
326.021
324.29
327.568
326.151
324.108
325.989
326.518
326.024
326.014
322.334
325.242
324.628
324.884
327.314
324.737
317.396
318.217
318.514
317.501
317.374
317
319.17
318.076
318.01
319.411
318.816
317.556
317.546
317.782
317.933
315.599
317.754
315.73
316.814
319.657
312.407
312.419
311.97
311.357
312.238
309.629
311.158
310.148
308.87
310.302
311.927
309.915
310.625
310.609
310.537
308.533
311.053
310.712
311.445
311
304.124
304.519
303.204
304.58
303.827
308.437
303.016
303.114
301.381
304.216
303.486
302.154
305.147
303.05
302.806
300.614
302.507
302.749
305.054
304.16
356.763
357.156
354.997
354.738
354.716
354.632
354.15
358.141
356.295
358.239
356.114
357.864
357.422
356.559
356.366
355.348
356.457
354.874
356.424
359.636
351.749
346.602
350.015
346.452
347.585
346.967
346.863
347.803
348.933
347.929
348.034
348.108
347.751
350.728
347.212
346.989
347.151
350.591
346.643
351.68
342.802
341.466
343.021
338.329
338.729
339.188
339.371
340.949
342.001
343.944
340.517
340.894
341.978
340.496
339.732
339.947
341.193
341.203
340.421
343.471
332.338
332.14
331.874
333.861
336.208
333.297
333.326
333.519
331.578
333.447
335.189
333.65
332.72
335.016
337.143
334.647
334.071
331.58
333.912
335.022
327.853
326.313
324.76
323.004
323.015
324.751
326.246
324.761
325.06
327.634
328.245
327.469
325.686
325.619
325.999
325.214
325.638
326.933
326.038
327.53
318.302
318.939
317.767
317.634
316.001
317.34
316.436
318.27
320.174
318.447
318.205
318.3
318.048
321.544
319.661
316.386
319.191
318.361
318.059
319.851
312.327
310.374
313.528
312.743
313.409
311.175
309.082
311.893
310.813
309.737
311.867
310.459
312.831
313.552
310.05
312.207
310.174
310.093
313.895
310.266
305.936
305.701
302.732
305.219
301.235
303.253
303.34
305.079
301.006
304.751
302.594
302.592
303.159
302.121
303.46
303.563
303.909
304.067
304.124
302.902
359.612
360.08
357.975
357.808
359.556
357.938
359.646
357.37
357.376
359.056
357.348
357.279
359.237
359.528
358.794
357.333
354.987
358.02
357.652
360.413
351.121
352.578
349.011
352.362
352.265
348.627
349.855
349.389
350.463
352.082
351.657
352.924
351.806
349.832
351.335
350.383
348.95
348.306
349.162
352.22
343.871
342.811
340.084
342.263
340.838
341.691
340.148
342.548
343.003
343.395
340.827
343.77
341.88
342.38
342.019
343.376
341.065
344.608
343.717
344.166
336.097
335.019
332.551
334.577
331.83
333.308
334.829
335.092
335.794
335.254
335.558
334.344
335.505
335.715
330.817
337.313
333.034
334.004
336.559
337.613
327.394
327.731
324.027
325.299
326.168
326.698
326.275
329.374
327.382
328.064
327.232
325.388
325.773
326.774
326.129
323.911
325.481
326.266
325.22
328.362
321.061
321.302
318.863
318.856
319.249
316.931
318.611
318.037
317.644
319.4
318.457
318.25
317.782
320.813
318.081
318.644
319.139
318.411
320.514
322.923
311.609
310.779
309.907
309.808
311.441
311.492
311.768
313.087
311.686
312.073
310.684
312.859
313.272
312.358
312.644
309.197
309.6
311.612
310.867
309.245
300.809
303.514
304.462
304.544
303.322
300.973
301.599
305.979
302.219
303.957
303.598
304.839
305.1
305.736
302.604
302.775
304.558
304.102
302.765
305.525
361.804
360.29
359.507
359.198
361.113
357.913
359.299
359.199
360.158
360.194
360.519
362.443
360.644
361.813
360.394
358.867
359.687
359.885
361.054
360.869
355.396
350.679
349.356
350.973
352.418
350.496
352.105
350.851
351.157
351.528
351.063
350.434
350.966
352.292
350.943
351.668
351.105
350.823
350.219
354.527
344.995
344.473
343.079
344.489
343.468
342.519
343.004
345.15
341.877
344.778
344.035
344.809
341.145
345.926
342.8
344.627
344.031
343.41
343.248
345.096
334.261
336.193
336.964
333.582
334.022
334.073
334.4
336.415
336.161
336.486
336.461
333.502
335.37
334.981
334.591
336.701
336.78
337.259
335.135
337.395
328.554
327.715
325.618
326.863
330.25
327.741
328.151
327.307
326.9
329.43
327.916
328.081
329.34
326.752
328.475
326.234
328.802
325.576
327.955
327.531
320.362
320.204
319.08
321.803
319.121
320.237
321.175
317.677
321.186
319.576
321.184
318.415
320.046
322.001
318.939
318.69
317.659
319.088
319.314
318.967
315.016
312.346
314.571
312.633
310.76
309.685
310.29
312.912
310.206
310.961
313.161
313.024
312.517
311.923
310.994
313.784
309.952
311.209
311.63
312.238
306.05
301.975
301.888
304.532
304.946
302.74
303.829
304.306
302.782
302.663
301.577
302.091
302.529
304.031
304.889
304.177
304.267
303.504
301.097
306.202
364.217
363.103
364.206
361.803
362.621
358.352
362.394
360.721
359.86
359.832
362.257
362.014
361.67
361.16
361.395
361.706
361.095
359.778
364.544
365.236
353.976
354.27
352.917
352.089
353.37
351.477
352.08
352.329
355.43
353.55
352.845
353.914
354.925
353.042
353.889
353.288
354.063
355.78
355.189
353.946
346.726
343.934
346.768
342.956
345.217
345.625
346.602
343.93
344.251
342.445
344.743
345.149
346.062
344.942
342.514
345.737
342.39
344.206
349.04
346.913
339.414
338.508
338.561
334.896
337.119
335.626
332.44
336.062
334.96
337.509
335.734
335.245
336.036
336.179
336.352
337.64
336.749
335.59
339.825
338
328.982
328.551
328.707
327.659
327.865
325.558
326.872
328.568
328.553
329.507
331.059
327.773
327.446
329.887
329.058
328.807
326.999
330.545
327.051
330.093
319.788
322.198
321.369
319.98
319.818
320.85
322.342
318.106
319.507
320.79
321.537
322.404
321.711
320.284
318.932
320.523
320.975
320.456
318.821
318.964
312.604
310.939
312.911
312.1
311.825
314.385
312.803
311.695
313.676
308.698
312.634
314.122
310.65
311.315
312.751
311.212
312.124
311.162
312.199
312.762
304.326
304.037
302.335
301.938
303.029
302.799
303.996
304.324
306.943
303.825
302.844
304.709
303.493
303.662
304.696
304.274
304.292
304.932
304.373
306.326
364.634
365.739
365.602
364.753
363.437
365.187
361.915
363.912
361.535
363.83
363.691
363.53
362.743
364.929
364.311
363.432
364.543
363.674
364.978
365.862
357.815
355.344
354.53
355.091
352.283
354.863
352.91
355.33
353.602
355.265
356.271
355.649
355.145
356.288
355.485
356.527
354.507
355.746
353.814
359.466
349.123
347.756
346.509
345.553
345.145
344.843
344.925
345.834
344.585
345.756
348.007
346.633
346.967
344.139
346.837
346.406
343.847
344.392
346.031
349.401
338.409
338.451
337.363
337.868
335.717
336.566
338.007
337.583
335.26
338.214
338.487
337.723
338.071
336.304
338.048
338.14
340.819
336.902
339.003
338.085
329.408
331.385
329.868
328.587
329.09
327.976
330.256
329.486
329.807
327.676
329.324
332.319
329.466
329.288
331.555
329.557
327.872
330.188
331.924
330.796
319.435
320.374
323.662
321.814
318.947
319.23
320.006
320.722
321.258
320.728
317.986
320.536
321.391
322.038
322.675
319.588
323.23
321.462
322.977
324.572
313.182
312.03
313.757
313.863
312.384
312.341
311.017
312.166
310.349
312.748
311.306
313.702
312.318
311.655
312.82
312.527
312.577
313.967
311.798
314.198
303.847
304.793
305.77
304.311
305.076
304.114
305.404
305.191
303.463
302.729
305.556
304.635
304.98
306.879
303.564
303.831
303.419
303.865
304.937
303.645
370.711
366.391
365.188
365.243
366.337
364.706
363.618
364.846
365.86
365.406
364.956
365.744
368.476
365.891
363.701
365.643
365.647
365.568
368.478
369.717
357.868
358.425
356.65
356.154
354.576
356.29
353.943
357.532
354.095
356.263
357.175
355.789
355.123
357.733
355.636
356.067
356.417
356.724
359.014
357.488
350.812
349.94
348.702
347.97
347.684
347.412
345.607
346.635
344.857
349.167
347.418
348.764
346.497
347.353
348.595
346.501
348.554
347.43
350.676
350.545
340.649
340.559
339.918
340.951
336.65
339.147
337.431
338.943
338.071
336.842
339.663
338.517
337.12
337.15
339.281
339.957
338.293
338.983
340.66
341.377
331.649
329.955
331.235
329.658
330.637
330.452
327.891
328.56
330.161
330.355
329.619
330.601
328.529
330.476
329.509
330.104
330.433
329.809
330.33
329.1
321.471
322.056
320.438
321.44
321.277
321.056
321.068
321.509
321.79
320.466
320.691
321.792
322.092
322.019
322.59
320.656
320.409
322.37
322.663
322.164
311.585
313.744
312.727
312.36
313.665
311.099
311.079
312.735
311.841
314.239
314.139
315.834
312.188
311.604
312.461
316.475
313.244
311.057
314.37
313.61
302.872
304.16
305.524
303.459
303.462
304.587
303.428
302.811
305.505
305.447
302.703
304.286
302.563
306.067
303.164
303.484
305.178
303.775
304.663
302.721
369.911
369.008
366.465
368.407
367.96
367.518
366.545
367.461
368.402
368.097
368.328
367.253
367.96
365.927
366.238
367.337
368.258
367.579
371.251
369.907
360.749
359.373
357.241
359.764
359.469
360.044
358.982
359.529
356.659
359.906
359.776
359.519
359.757
358.129
359.752
357.46
360.299
358.662
359.392
362.136
349.362
348.998
348.639
349.031
345.93
348.189
348.541
350.262
349.794
350.668
348.14
349.112
349.357
348.788
349.807
348.581
349.936
348.975
348.879
349.379
341.105
342.076
341.33
339.275
337.37
339.531
340.799
340.47
337.971
340.867
340.164
340.113
337.419
337.883
340.921
339.498
339.551
340.242
341.409
342.429
331.793
333.233
332.035
330.324
329.866
331.554
332.182
331.754
330.798
328.772
331.347
331.587
332.895
331.949
330.216
330.652
332.58
331.95
330.63
331.208
323.456
323.552
324.716
323.533
321.165
322.387
319.903
323.311
322.83
323.824
321.465
322.443
322.675
320.819
321.338
321.166
323.73
320.61
322.79
324.001
311.739
315.62
315.085
313.036
314.514
312.333
313.686
314.642
311.237
313.845
313.607
313.098
315.219
314.04
314.498
313.802
312.887
312.439
314.031
313.655
304.139
303.308
305.637
302.659
304.271
303.747
303.659
302.668
302.84
303.735
303.338
305.191
304.91
307.518
304.062
303.108
303.606
305.187
303.439
303.29
373.082
371.523
370.563
368.383
369.16
368.622
369.584
369.99
368.914
367.142
368.974
367.954
369.46
371.07
368.941
369.107
371.069
372.194
370.449
371.684
363.353
360.359
360.035
360.87
360.386
359.391
358.901
358.861
357.212
360.184
358.099
359.773
360.245
360.242
360.959
360.113
361.567
361.277
359.149
362.77
351.599
350.54
352.364
350.513
350.956
349.294
350.589
350.043
349.016
349.053
352.316
349.71
352.12
351.492
349.678
351.9
351.432
351.05
351.421
350.745
342.869
341.124
340.664
340.832
340.275
341.549
343.636
338.268
341.763
338.363
341.501
340.722
341.003
341.72
338.685
339.722
342.602
342.891
343.97
343.479
332.065
333.608
332.139
333.333
330.384
331.238
330.85
330.954
331.085
331.581
331.363
331.873
329.568
331.889
331.912
332.984
332.559
330.976
330.897
332.497
321.323
323.975
322.901
322.39
323.357
320.957
322.175
320.818
323.713
321.638
325.196
323.224
323.5
321.967
323.458
322.967
323.469
321.422
322.068
323.659
313.519
314.586
314.926
315.73
315.389
313.631
316.123
314.299
314.154
315.16
311.865
312.632
314.829
312.532
313.68
311.489
313.42
312.474
314.427
314.135
306.582
305.354
304.62
304.419
304.534
304.702
305.718
305.768
305.005
306.137
304.603
306.268
303.604
304.443
304.474
304.54
305.838
304.565
304.534
303.309
370.977
373.148
373.039
372.467
371.236
371.193
369.836
367.368
370.266
372.341
370.45
372.397
369.101
370.533
371.804
370.259
373.241
373.738
375.064
374.164
363.357
364.051
362.673
364.194
361.78
364.556
359.313
364.729
358.742
364.429
364.674
361.739
364.537
361.306
364.741
360.164
365.031
361.662
364.476
361.739
355.847
353.53
352.374
351.754
351.53
351.081
349.116
350.444
349.782
351.751
350.866
349.99
351.835
350.773
353.308
354.119
352.826
353.492
351.725
353.259
343.926
343.163
343.014
341.628
342.74
341.01
339.659
342.429
340.784
340.754
343.65
341.754
342.188
341.629
342.609
340.905
342.84
342.547
341.652
345.206
333.627
332.6
331.932
335.52
333.258
333.964
331.038
334.455
332.015
330.91
332.413
331.547
333.033
332.715
333.094
332.082
332.104
334.052
334.922
334.153
322.445
324.264
324.185
325.442
321.652
322.217
322.293
322.398
323.233
320.921
323.733
323.143
322.068
322.27
322.78
322.166
322.14
323.481
324.571
325.652
314.095
313.386
313.32
315.105
314.837
313.8
314.985
312.379
314.813
315.692
314.877
314.277
314.232
316.844
316.199
313.625
313.475
314.973
315.656
314.43
305.843
304.682
306.437
303.201
303.436
305.846
302.508
305.106
304.71
303.394
303.75
306.288
306.648
304.744
305.588
305.769
303.262
304.4
303.833
304.246
375.154
374.803
374.358
372.917
368.685
370.341
370.145
371.253
372.566
373.999
370.871
371.807
371.713
371.096
374.057
372.557
372.367
375.139
376.277
376.109
366.804
364.339
361.664
363.808
361.39
362.176
361.956
359.749
361.055
361.291
361.195
362.184
363.352
364.118
360.452
363.322
364.853
363.856
365.805
365.891
355.653
353.768
353.78
353.556
351.198
354.476
350.923
352.202
352.856
350.515
352.059
351.296
352.308
352.233
351.382
351.071
352.332
353.778
356.048
353.725
346.671
343.869
344.14
340.907
342.427
341.649
342.804
341.713
342.864
341.684
343.377
342.558
340.726
344.631
341.958
342.704
342.833
343.409
343.461
344.506
336.783
332.701
333.666
331.629
333.027
331.726
330.3
333.992
335.145
332.166
332.813
332.016
332.731
333.762
333.691
334.202
332.769
335.571
334.383
335.23
324.675
323.604
324.293
324.61
322.843
322.545
324.379
323.201
325.351
325.382
325.307
323.487
325.135
321.588
325.07
321.847
323.769
325.599
325.056
324.434
314.09
313.115
314.213
313.781
313.997
314.036
312.517
313.499
309.995
314.195
312.571
313.605
313.794
315.908
313.919
316.514
316.278
312.957
316.459
312.848
303.99
304.673
306.541
304.426
305.392
303.285
304.885
301.946
304.394
304.527
303.075
305.022
304.763
302.433
304.206
304.842
304.989
302.865
304.142
307.101
)
;

boundaryField
{
    hotSide
    {
        type            fixedGradient;
        gradient        nonuniform List<scalar> 
400
(
321.511
322.87
325.591
329.677
335.133
341.965
350.181
359.788
370.794
383.208
397.037
412.289
428.971
447.088
466.647
487.651
510.105
534.011
559.372
586.191
323.738
325.08
327.767
331.802
337.194
343.949
352.078
361.591
372.498
384.81
398.537
413.687
430.268
448.289
467.755
488.672
511.043
534.872
560.161
586.913
326.149
327.47
330.116
334.091
339.406
346.071
354.099
363.503
374.296
386.491
400.101
415.136
431.606
449.52
468.885
489.706
511.988
535.735
560.948
587.63
328.704
330
332.597
336.503
341.73
348.292
356.205
365.485
376.15
388.215
401.695
416.604
432.954
450.753
470.009
490.73
512.919
536.579
561.714
588.325
331.33
332.599
335.142
338.97
344.099
350.546
358.332
367.477
378.003
389.928
403.271
418.047
434.27
451.949
471.095
491.712
513.807
537.382
562.439
588.978
333.918
335.158
337.643
341.389
346.414
352.74
360.392
369.397
379.779
391.562
404.765
419.407
435.503
453.065
472.101
492.618
514.622
538.114
563.096
589.569
336.321
337.531
339.959
343.622
348.544
354.751
362.274
371.142
381.385
393.031
406.101
420.618
436.595
454.047
472.983
493.409
515.33
538.747
563.663
590.076
338.36
339.543
341.92
345.509
350.339
356.44
363.847
372.595
382.718
394.244
407.2
421.608
437.485
454.844
473.695
494.045
515.897
539.253
564.114
590.478
339.852
341.015
343.352
346.885
351.645
357.665
364.985
373.643
383.675
395.113
407.984
422.312
438.116
455.407
474.197
494.491
516.294
539.606
564.428
590.758
340.643
341.795
344.11
347.613
352.334
358.311
365.584
374.193
384.176
395.567
408.393
422.679
438.443
455.699
474.456
494.722
516.498
539.788
564.589
590.901
340.643
341.795
344.11
347.613
352.334
358.311
365.584
374.193
384.176
395.567
408.393
422.679
438.443
455.699
474.456
494.722
516.498
539.788
564.589
590.901
339.852
341.015
343.352
346.885
351.645
357.665
364.985
373.643
383.675
395.113
407.984
422.312
438.116
455.407
474.197
494.491
516.294
539.606
564.428
590.758
338.36
339.543
341.92
345.509
350.339
356.44
363.847
372.595
382.718
394.244
407.2
421.608
437.485
454.844
473.695
494.045
515.897
539.253
564.114
590.478
336.321
337.531
339.959
343.622
348.544
354.751
362.274
371.142
381.385
393.031
406.101
420.618
436.595
454.047
472.983
493.409
515.33
538.747
563.663
590.076
333.918
335.158
337.643
341.389
346.414
352.74
360.392
369.397
379.779
391.562
404.765
419.407
435.503
453.065
472.101
492.618
514.622
538.114
563.096
589.569
331.33
332.599
335.142
338.97
344.099
350.546
358.332
367.477
378.003
389.928
403.271
418.047
434.27
451.949
471.095
491.712
513.807
537.382
562.439
588.978
328.704
330
332.597
336.503
341.73
348.292
356.205
365.485
376.15
388.215
401.695
416.604
432.954
450.753
470.009
490.73
512.919
536.579
561.714
588.325
326.149
327.47
330.116
334.091
339.406
346.071
354.099
363.503
374.296
386.491
400.101
415.136
431.606
449.52
468.885
489.706
511.988
535.735
560.948
587.63
323.738
325.08
327.767
331.802
337.194
343.949
352.078
361.591
372.498
384.81
398.537
413.687
430.268
448.289
467.755
488.672
511.043
534.872
560.161
586.913
321.511
322.87
325.591
329.677
335.133
341.965
350.181
359.788
370.794
383.208
397.037
412.289
428.971
447.088
466.647
487.651
510.105
534.011
559.372
586.191
)
;
    }
    coldSide
    {
        type            mixed;
        refValue        uniform 300;
        refGradient     uniform 0;
        valueFraction   uniform 0.991591;
        source          uniform 0;
        value           nonuniform List<scalar> 
400
(
300.032
300.024
300.029
300.015
300.026
300.014
300.032
300.019
300.027
300.035
300.05
300.007
300.051
300.036
300.032
300.024
300.035
300.055
300.049
300.034
300.029
300.018
300.016
300.03
300.023
300.029
300.035
300.038
300.031
300.038
300.048
300.03
300.017
300.034
300.04
300.035
300.028
300.045
300.039
300.039
300.037