/*--------------------------------*- C++ -*----------------------------------*\
| =========                 |                                                 |
| \\      /  F ield         | OpenFOAM: The Open Source CFD Toolbox           |
|  \\    /   O peration     | Version:  2212                                  |
|   \\  /    A nd           | Website:  www.openfoam.com                      |
|    \\/     M anipulation  |                                                 |
\*---------------------------------------------------------------------------*/
FoamFile
{
    version     2.0;
    format      ascii;
    arch        "LSB;label=32;scalar=64";
    class       volScalarField;
    location    "0";
    object      relativeErrorField;
}
// * * * * * * * * * * * * * * * * * * * * * * * * * * * * * * * * * * * * * //

dimensions      [0 0 0 1 0 0 0];

internalField   nonuniform List<scalar> 
3200
(
0.00493664
0.00959723
0.0142063
0.0164127
0.0176954
0.0180554
0.0174651
0.0165862
0.0159839
0.0154966
0.0151373
0.0147605
0.0149913
0.0152201
0.015517
0.0151083
0.0140669
0.0117296
0.00793383
0.0030266
0.00403185
0.00801489
0.0115844
0.0140204
0.0149402
0.0151105
0.0147287
0.0141436
0.0139289
0.0131591
0.0127637
0.0126751
0.0129308
0.0130077
0.0131727
0.0125365
0.0118568
0.00971605
0.00579072
0.00200321
0.00283412
0.00627131
0.00948708
0.0114435
0.0123099
0.0129366
0.01243
0.0120889
0.0115807
0.0109015
0.0107705
0.010456
0.0104538
0.0108769
0.0106918
0.0104098
0.00959272
0.00774304
0.00474242
0.00117923
0.00241973
0.00515843
0.00788834
0.00932724
0.0102101
0.0103153
0.0101287
0.00989451
0.00937148
0.00866796
0.00876681
0.00837431
0.00817803
0.00864088
0.00869069
0.00827502
0.00760337
0.00610953
0.00333089
0.000797729
0.00179117
0.00384848
0.00603727
0.00732963
0.00780071
0.00811554
0.00799756
0.00767476
0.00740712
0.00647123
0.00637822
0.00657355
0.00663369
0.00644885
0.00685807
0.00655941
0.00604708
0.00456565
0.00250213
0.000555462
0.00115815
0.002757
0.00398178
0.00495013
0.00554148
0.0059162
0.00571995
0.00522719
0.00497834
0.00506245
0.00479261
0.00473036
0.00463267
0.00464367
0.00460928
0.00459557
0.00431747
0.00303163
0.00168198
4.43018e-05
0.000498355
0.00173866
0.00240407
0.00321353
0.0031952
0.00342859
0.00337098
0.00309071
0.00311657
0.00299766
0.00268022
0.00251929
0.00256783
0.00289935
0.00276319
0.00261645
0.00234097
0.00188057
0.00107144
0.000232227
0.000417279
0.000677237
0.000898618
0.00119246
0.00111869
0.000975794
0.00103357
0.000899986
0.00112991
0.00108488
0.000808899
0.00107467
0.000936047
0.00101155
0.000932262
0.00106052
0.000802238
0.000556194
0.000177092
1.98992e-05
0.00483286
0.00950465
0.0136345
0.0162767
0.0169426
0.0171492
0.0164553
0.0159383
0.0151574
0.0144214
0.0136523
0.0136008
0.0137325
0.0140717
0.0143128
0.014294
0.0134509
0.0112612
0.00750419
0.00282548
0.00363535
0.00763697
0.0115281
0.0138008
0.014505
0.0144916
0.0141762
0.0137342
0.012652
0.0121638
0.0117686
0.0116851
0.0116684
0.0121548
0.012206
0.0122522
0.0110568
0.00911095
0.00580821
0.00173542
0.00307996
0.00614201
0.00949176
0.0112189
0.0118714
0.012098
0.0120226
0.0111797
0.0107642
0.0101949
0.00975561
0.0100111
0.00965157
0.00998664
0.0101498
0.00984352
0.00932645
0.00736419
0.0046811
0.00119829
0.00227208
0.00501967
0.00741375
0.00932026
0.00981862
0.00968802
0.00964521
0.00923223
0.00873737
0.0084466
0.00801331
0.00783364
0.00787052
0.00816636
0.00809602
0.00807879
0.00731374
0.00564388
0.00334472
0.000760346
0.00146179
0.00373774
0.00586922
0.00701608
0.00759454
0.00773642
0.0074742
0.00717078
0.00670682
0.00660106
0.00600096
0.00606568
0.0060712
0.00595537
0.00628964
0.00597735
0.00536251
0.00434628
0.00246393
0.000244712
0.00117072
0.00280793
0.00431696
0.00502697
0.00563406
0.00542189
0.00518965
0.00526982
0.00486675
0.00464852
0.00432824
0.0042494
0.00432238
0.0043768
0.00452729
0.00420627
0.00377272
0.00298362
0.00177753
9.63771e-05
0.000780053
0.00143717
0.00251948
0.00302674
0.00347171
0.00327069
0.00342925
0.00297585
0.00298854
0.00285938
0.00262692
0.00246771
0.00259515
0.00258713
0.00284234
0.00256222
0.0022392
0.00189293
0.00102521
8.10218e-05
0.000160016
0.000716469
0.000958121
0.00116677
0.000988297
0.00108009
0.00109612
0.00131041
0.00125673
0.000897334
0.000863767
0.000752537
0.000997306
0.000909712
0.00094657
0.000932611
0.000765916
0.000451213
0.000307846
0.000182713
0.00429138
0.0091158
0.0129518
0.0153114
0.0162898
0.0161585
0.0155198
0.0144822
0.0136424
0.0129337
0.0121897
0.0122114
0.0123715
0.0128743
0.0134652
0.0132471
0.0125919
0.0104963
0.0067086
0.00198563
0.00341291
0.00733469
0.010934
0.0128888
0.013818
0.013761
0.0130528
0.0124477
0.0115436
0.0107417
0.0102857
0.0102023
0.0103937
0.010688
0.0111694
0.0108908
0.0104566
0.00858199
0.00514977
0.00126186
0.00255478
0.00591744
0.0089168
0.0108527
0.0114638
0.0115141
0.0110835
0.0104215
0.00969303
0.00902933
0.00862003
0.00861169
0.00899771
0.00899774
0.00914966
0.00932563
0.00879485
0.00692817
0.00393645
0.000482089
0.00176144
0.00490852
0.00697334
0.0085403
0.00952909
0.00955571
0.00883808
0.00851104
0.00772166
0.0073539
0.00697782
0.00693687
0.00697422
0.00718458
0.00749477
0.00747131
0.00661594
0.00546663
0.00300497
0.000225864
0.00139069
0.00364279
0.00552279
0.00672628
0.00729582
0.00712265
0.00706255
0.0065375
0.00596911
0.0056995
0.00573264
0.00523354
0.0053791
0.00568638
0.00555184
0.00556085
0.00539368
0.00395573
0.002192
8.72324e-05
0.00113268
0.00247823
0.00371353
0.00484687
0.00527501
0.00531242
0.00491032
0.00473353
0.00427915
0.00426511
0.00396315
0.00379615
0.00391184
0.00416951
0.00391778
0.0040143
0.0036588
0.00277804
0.00155107
0.000113724
0.000526729
0.00134393
0.00239598
0.00271963
0.00313639
0.00327283
0.00305596
0.00279936
0.00272398
0.00260013
0.00220199
0.00216747
0.00253467
0.00233112
0.00273911
0.00244436
0.00211072
0.001781
0.000860353
0.000107507
0.000108321
0.000598592
0.000792392
0.00102472
0.000964966
0.00100798
0.00122913
0.00114926
0.00107367
0.000741678
0.000841679
0.000909396
0.000618676
0.000883306
0.000952855
0.0007124
0.000718968
0.00075505
0.000120231
0.000137488
0.00369395
0.00793089
0.0122131
0.0142283
0.0150304
0.0150048
0.0142482
0.0128714
0.0121372
0.0111415
0.010674
0.0104334
0.0106068
0.011153
0.0118778
0.0120862
0.0113277
0.00929092
0.00550296
0.00122029
0.00268808
0.00659225
0.0100042
0.0120492
0.0129305
0.0126975
0.0119607
0.0111144
0.0103194
0.00944454
0.00872536
0.00887476
0.00896777
0.00943828
0.00997769
0.00992863
0.00895253
0.00757086
0.00421933
0.000642346
0.00183844
0.00541034
0.00825936
0.0101239
0.0106078
0.010718
0.00988909
0.00938226
0.00865065
0.00792761
0.00733865
0.00733954
0.00740525
0.00772818
0.00791372
0.00829611
0.00752403
0.00604784
0.00325322
8.6726e-05
0.00152385
0.00408352
0.00631729
0.00806788
0.00874714
0.00854556
0.00829299
0.00752048
0.00676552
0.00641311
0.00624499
0.00582404
0.00599486
0.00625363
0.0065414
0.00641786
0.00599388
0.00466678
0.00236285
0.000164723
0.00111528
0.00314184
0.00496364
0.00618874
0.00693987
0.00683024
0.00634566
0.00583076
0.00527644
0.00487707
0.00453553
0.00456033
0.00485318
0.00456581
0.0049341
0.00508433
0.00437857
0.00335657
0.00179809
0.000151702
0.000787259
0.00227659
0.00360712
0.0046409
0.00473614
0.00465592
0.00437246
0.00406533
0.00385476
0.00360154
0.00316128
0.00312568
0.00333404
0.00353079
0.00360964
0.0034354
0.00319057
0.00233589
0.00104304
0.000211159
0.000165385
0.00115234
0.00226583
0.00270071
0.00298674
0.0029651
0.00289123
0.00257454
0.00231128
0.00206489
0.00207972
0.00192458
0.002044
0.00204772
0.00219998
0.00196244
0.00181855
0.00139518
0.000650288
5.72702e-05
0.000207094
0.000367767
0.000812524
0.000897573
0.00105719
0.000796348
0.000986025
0.000779286
0.000749005
0.000629843
0.000691523
0.000708743
0.000912132
0.000599618
0.000897321
0.000596358
0.00062599
0.000400586
0.000312732
0.000218003
0.00275983
0.00693155
0.0108011
0.0130547
0.0138421
0.0134969
0.0128798
0.0115727
0.0102754
0.00901773
0.00854482
0.00867873
0.00876627
0.00961356
0.0101839
0.0106869
0.00983664
0.00797353
0.00437284
0.000352456
0.00183808
0.00569068
0.00915009
0.0111629
0.0117288
0.011489
0.0109404
0.00954893
0.00884238
0.00781829
0.00728608
0.00700041
0.00745642
0.00794908
0.0084596
0.00867505
0.00794311
0.0064645
0.00332113
0.000355273
0.0013247
0.00477977
0.00747858
0.00924185
0.00974125
0.00963303
0.00887455
0.00833002
0.00740391
0.00654667
0.00615587
0.00579473
0.00603469
0.00681439
0.0070855
0.00715722
0.00665029
0.00505402
0.00237241
0.000713742
0.00112341
0.00358722
0.00592841
0.00756466
0.00774074
0.00772343
0.00723067
0.00657808
0.00597195
0.00517661
0.00516735
0.00456373
0.00476109
0.00530707
0.00579334
0.00569483
0.00513626
0.00380369
0.00160654
0.000743527
0.000654356
0.00275911
0.00452148
0.00582344
0.00606889
0.00600889
0.005719
0.00509151
0.00463619
0.00392409
0.0037965
0.00377219
0.00383614
0.00409282
0.00413556
0.00423039
0.00388717
0.00296538
0.000900485
0.000759629
0.000631038
0.00193193
0.00322954
0.00411465
0.00454034
0.00440369
0.00411079
0.00385645
0.00315243
0.00279879
0.00288455
0.00261216
0.00288149
0.00272257
0.00281161
0.00320583
0.00283268
0.00199261
0.000796064
0.000655212
0.000257663
0.00132411
0.00203764
0.00241829
0.00251036
0.00262016
0.00252318
0.0024753
0.00195335
0.00179396
0.00143905
0.00156718
0.00169509
0.00186534
0.00193187
0.00188053
0.00171428
0.00131269
0.000156745
0.000257933
1.32176e-05
0.000586999
0.000757718
0.000648956
0.000927314
0.000754336
0.000820492
0.000910137
0.000703368
0.000647496
0.000782067
0.000655426
0.000541678
0.000724349
0.000570833
0.00103613
0.000550956
0.000429432
0.000187172
3.07483e-05
0.00162903
0.00605097
0.00944392
0.0119036
0.0125728
0.0123649
0.011574
0.0103358
0.00863592
0.00747244
0.00690148
0.00654321
0.0071494
0.00776249
0.00862115
0.00881603
0.00844968
0.0065331
0.00312582
0.00103617
0.000822069
0.00472477
0.00784756
0.00997311
0.0104185
0.0103298
0.0097357
0.0086314
0.00739344
0.00632976
0.005637
0.00570632
0.00616084
0.00663446
0.00702798
0.00753877
0.006768
0.00519778
0.002273
0.00119722
0.00071442
0.00344021
0.00640435
0.00802007
0.00872642
0.00857077
0.00801802
0.00734268
0.00596735
0.00510453
0.00483383
0.00462718
0.00482272
0.00524301
0.00572458
0.0062024
0.00540611
0.00387373
0.00135684
0.00133958
0.000325743
0.00272152
0.00493479
0.00659055
0.00715244
0.00717938
0.00661168
0.00591853
0.00503094
0.0046277
0.00358308
0.00372024
0.00399654
0.00440687
0.00465349
0.004844
0.00440392
0.00323545
0.00098419
0.00155649
7.57051e-05
0.00200821
0.00393613
0.00509452
0.00560083
0.00526099
0.00512062
0.00460778
0.00398877
0.0031015
0.00307412
0.0026569
0.00305791
0.00347475
0.00349852
0.00350703
0.00331375
0.00220457
0.000672652
0.00144537
0.000148963
0.00144155
0.00288026
0.00356552
0.00404171
0.00398492
0.0035476
0.00327337
0.00288265
0.00249052
0.00210016
0.00193152
0.00218563
0.00231118
0.00267594
0.00262765
0.00225884
0.00183962
0.00020938
0.00111474
4.61625e-05
0.00111451
0.00154218
0.0022777
0.00214091
0.00223951
0.00211911
0.00207282
0.0015633
0.00145661
0.00116731
0.0013641
0.00124393
0.00169379
0.00135972
0.00150527
0.00152173
0.0010196
0.000124699
0.000726658
7.81352e-05
0.000402081
0.000748563
0.000647485
0.000633624
0.000790715
0.000768178
0.00044875
0.000557499
0.000337728
0.000601986
0.000395118
0.000258056
0.000529278
0.000409351
0.000738708
0.000365878
0.000113478
6.18527e-05
0.000143666
0.000428309
0.00475857
0.00836722
0.0101513
0.0112034
0.0109722
0.0102336
0.00882235
0.00715018
0.00597897
0.00506873
0.00512342
0.0057403
0.00635058
0.00702918
0.00739062
0.00696785
0.00513257
0.00192631
0.00203378
0.000374879
0.00355633
0.00664832
0.00846427
0.00947668
0.00930904
0.00864052
0.00745348
0.00616566
0.00513807
0.00423252
0.00410025
0.00445845
0.00548217
0.00571263
0.00608002
0.00560162
0.00404144
0.000964918
0.00231437
0.000148276
0.00270452
0.00536939
0.00697771
0.00771739
0.00765527
0.00716654
0.00623919
0.00515076
0.00425069
0.00374821
0.00355515
0.00388898
0.0045836
0.00489339
0.00491518
0.00437592
0.00309342
0.000374029
0.00239997
0.000271591
0.0020826
0.00442823
0.00576071
0.00629041
0.00635741
0.00566922
0.00510118
0.00443996
0.0035976
0.00275306
0.00272779
0.00300126
0.00336973
0.00369026
0.00385479
0.00350156
0.00216802
0.000179097
0.00212878
0.000307339
0.00160162
0.00324418
0.00444102
0.00512129
0.00509628
0.00429397
0.00389146
0.00325991
0.00270151
0.00228096
0.0018299
0.00220455
0.00266191
0.00280766
0.00296866
0.00267171
0.00161897
0.000190617
0.00152885
0.000223387
0.001319
0.00232594
0.00305507
0.00363649
0.00331936
0.00317343
0.00277018
0.00232991
0.00183973
0.00168444
0.00149818
0.00174677
0.00199247
0.00202929
0.00200698
0.00187258
0.00117123
0.000109852
0.00129528
0.000147763
0.000403802
0.00140141
0.00209094
0.00221228
0.00221944
0.00199483
0.00163648
0.00132918
0.00113895
0.000853354
0.000965833
0.000969317
0.00123255
0.00144837
0.00133716
0.00101557
0.000652586
7.18816e-05
0.000745964
0.000149793
0.000146656
0.000204925
0.000613733
0.000686967
0.000682114
0.00029641
0.000482464
0.000515433
0.000506788
0.000329051
0.000400395
0.000367921
0.000385864
0.000157812
0.000174968
0.000222606
0.000123204
6.32808e-05
0.000282392
0.000362106
0.00386277
0.00700327
0.00904716
0.0101116
0.00985255
0.00897533
0.00753597
0.00629707
0.00493836
0.00404251
0.00378512
0.00441634
0.00513845
0.00597288
0.00600615
0.00547264
0.00384496
0.000838109
0.00316051
0.000517471
0.00273626
0.00572868
0.00766948
0.00833999
0.00835805
0.00762341
0.00661018
0.00512172
0.00423414
0.00312982
0.0031451
0.00361438
0.00409113
0.00467059
0.00481775
0.00426891
0.0026629
0.000121317
0.00296093
0.000791726
0.00204134
0.00454123
0.00644863
0.00715928
0.00697079
0.00661014
0.00516489
0.00453187
0.00338683
0.00276005
0.00251144
0.00277249
0.00339982
0.00395182
0.00399756
0.00346963
0.00206112
0.000390894
0.00283895
0.000987665
0.00129374
0.00343602
0.00510169
0.00545538
0.00571002
0.0052034
0.00454506
0.00377329
0.00297531
0.00203864
0.00219321
0.00198867
0.0025779
0.00308854
0.00315694
0.00253027
0.00133103
0.000366569
0.00281813
0.000969158
0.00107341
0.00276093
0.00402719
0.00416512
0.00436069
0.00400994
0.00330291
0.00260499
0.00191027
0.00162407
0.00156535
0.00192658
0.00202519
0.00214831
0.00221047
0.00227171
0.000984129
0.000541521
0.00223914
0.00050273
0.000411024
0.00190688
0.002645
0.00300528
0.00314331
0.0028548
0.00215073
0.00183135
0.00153763
0.00105942
0.00118229
0.00128264
0.00156646
0.00188047
0.001784
0.00123889
0.000798884
0.000710398
0.00157373
0.00042019
0.000197654
0.00122614
0.00174243
0.00164599
0.00177258
0.00173884
0.00135328
0.00108403
0.00107355
0.000844519
0.000588938
0.000721929
0.000999866
0.00103209
0.00119417
0.000743623
0.000313225
0.000445193
0.00111667
0.000116852
0.000401901
0.000562218
0.000580012
0.000747412
0.000381014
0.000703823
0.000440818
0.000243223
0.000332922
0.000275257
0.000435099
7.29055e-05
0.000178413
0.000255315
0.00018476
0.000398356
0.000260228
0.000104337
0.000296983
0.000901089
0.00274326
0.00592513
0.0082146
0.00924104
0.00890781
0.00819725
0.00692298
0.00529742
0.00398898
0.00322133
0.00285708
0.00321856
0.00425206
0.00490782
0.00484119
0.00463559
0.00269276
4.94742e-05
0.00372462
0.00116921
0.00188666
0.00489889
0.00659869
0.00754457
0.00763625
0.00698227
0.00581483
0.00442428
0.00331772
0.00256328
0.00253135
0.00275523
0.00355486
0.0037967
0.00426013
0.00362425
0.00170744
0.000708933
0.00381579
0.0014674
0.00145542
0.00381859
0.00558672
0.00633782
0.00625499
0.00569173
0.00458644
0.00383013
0.0026929
0.00204705
0.00188071
0.00235545
0.00270928
0.00347372
0.00349218
0.00274296
0.00128928
0.000928583
0.00341157
0.00118247
0.000981718
0.00305235
0.00447583
0.00522585
0.0050154
0.00475369
0.00376127
0.00302549
0.00223705
0.00173413
0.0014829
0.00189791
0.00193328
0.0023135
0.00249518
0.00206581
0.00103573
0.00100407
0.00317007
0.000869623
0.000545382
0.00215147
0.00335245
0.00385405
0.00390037
0.00348737
0.00305142
0.00246177
0.00160715
0.00132752
0.000778619
0.00144898
0.00172783
0.00217226
0.0021302
0.00169075
0.000443752
0.000910156
0.0026246
0.0009671
0.000368479
0.00184476
0.00230069
0.00292319
0.00293121
0.00265764
0.00234264
0.00150379
0.00133294
0.0011025
0.000803017
0.000957341
0.00115789
0.00148906
0.00132064
0.00108869
0.000252745
0.000834939
0.00198649
0.000466652
0.000204703
0.000794517
0.00150335
0.00165054
0.00180465
0.00148036
0.00147998
0.00105276
0.000650257
0.000571023
0.000548001
0.000441087
0.000944832
0.000892208
0.000692797
0.0006413
4.79509e-05
0.000679396
0.000845444
0.000259486
6.23007e-05
0.000637927
0.000418555
0.000610114
0.00065699
0.000545586
0.000327544
0.000199594
0.000380818
0.000256587
0.000182563
0.000117178
6.38744e-05
0.000163481
0.000287148
0.000195424
6.86928e-05
0.00023952
0.000487436
0.00125738
0.00226801
0.00543572
0.00755839
0.00852699
0.0085552
0.00759765
0.00655657
0.00514876
0.00386052
0.00316822
0.00256334
0.00314638
0.00379968
0.00411603
0.00450858
0.00377772
0.00198715
0.000746232
0.0042493
0.00164122
0.00142791
0.00396857
0.00618299
0.00689294
0.00716492
0.00651075
0.00571596
0.00420672
0.00326386
0.0023457
0.00204988
0.00241211
0.00318965
0.0036675
0.00349348
0.00277654
0.00133005
0.00120388
0.00400098
0.00150861
0.00111796
0.00331862
0.00515438
0.00591675
0.00589951
0.00528129
0.00470583
0.00361527
0.00233871
0.00179073
0.00187616
0.00203545
0.00260399
0.00288731
0.00278791
0.00228078
0.000815493
0.00126614
0.00394195
0.00142523
0.000518456
0.00250817
0.00395261
0.00451998
0.00477816
0.00453036
0.00365234
0.0027836
0.00189984
0.00165334
0.00149261
0.00160625
0.00172616
0.00214725
0.00229936
0.00176476
0.00035912
0.001431
0.00330856
0.00141212
0.000368656
0.00204078
0.00307088
0.00361373
0.00362692
0.00345017
0.00286035
0.00188319
0.00151954
0.00122291
0.000869036
0.0012066
0.0013824
0.00173397
0.00155801
0.00119537
0.000353796
0.00116478
0.00279646
0.000935143
0.000324894
0.00157605
0.00222459
0.00239667
0.00260335
0.0026768
0.00201389
0.00137618
0.00116014
0.000888879
0.00061751
0.00098071
0.000845351
0.00125748
0.00109363
0.000894422
0.00013873
0.000918738
0.00204718
0.000810521
1.388e-05
0.000967652
0.00118549
0.00156798
0.00149728
0.00149928
0.0012145
0.00103454
0.000492974
0.00038321
0.000384075
0.000470357
0.000732405
0.000784288
0.000647268
0.000550105
0.000187774
0.000383129
0.00139395
0.000223458
0.000133751
0.000208546
0.000367253
0.000439714
0.000534166
0.000674233
0.000536454
0.000335733
6.08798e-05
0.000205835
1.43982e-06
9.05792e-05
0.000255786
4.44116e-05
0.00022114
1.75334e-05
1.27052e-05
0.000185838
0.000711227
0.00138282
0.00189556
0.00532185
0.00712568
0.00817111
0.00833514
0.00771975
0.00645946
0.00509055
0.00408827
0.00298983
0.00286367
0.00308761
0.0040261
0.00413725
0.00444519
0.0035413
0.00173656
0.00123878
0.00425971
0.00158367
0.00127185
0.00395552
0.00593169
0.00671858
0.00712532
0.00637883
0.00558788
0.00426682
0.00353635
0.00250585
0.00243818
0.00247075
0.00329942
0.00368392
0.00348458
0.00274944
0.00119581
0.00137245
0.00401989
0.00182549
0.000687123
0.00315477
0.00472559
0.00581587
0.00569847
0.00554495
0.00487631
0.00379061
0.00274459
0.00188427
0.00211123
0.00225716
0.00260833
0.00285186
0.00278629
0.00205705
0.00089503
0.00154888
0.00363487
0.00180657
0.000375678
0.00252297
0.0039666
0.00435837
0.0047167
0.00457728
0.00392825
0.0029255
0.00206394
0.00180915
0.00155664
0.00170586
0.00183158
0.00220773
0.00231155
0.00161333
0.000260651
0.00148356
0.00328016
0.00127129
0.000313538
0.0019189
0.00280442
0.00349894
0.00351674
0.00335122
0.00288114
0.00234901
0.0017088
0.00138267
0.00112372
0.00128841
0.0018634
0.00169551
0.00156538
0.00118457
0.000149125
0.00131599
0.00261608
0.00100502
0.000161547
0.00140363
0.00195092
0.00256812
0.00241519
0.00241313
0.00232089
0.00177704
0.00132484
0.000943131
0.000784346
0.00108847
0.000997486
0.0013555
0.00111498
0.000898946
0.000286876
0.00101873
0.00240575
0.00062911
0.000151482
0.000649742
0.00139113
0.00134464
0.00155722
0.00157191
0.00111508
0.000878363
0.00095758
0.000603192
0.000444175
0.000385308
0.000502402
0.00115027
0.000641067
0.000529899
6.85031e-06
0.00053533
0.00129708
0.000188966
0.000185674
0.000397753
0.00046157
0.00046571
0.000695272
0.000514763
0.000331336
0.000215399
7.53715e-05
0.000308905
0.000377724
0.000264866
0.000258288
0.00026317
0.000121283
0.000267375
0.000188125
0.000222159
0.000369628
0.000947802
0.00221452
0.00523774
0.00705921
0.00847857
0.00870904
0.00806829
0.00712806
0.00598217
0.00483204
0.00398357
0.00379273
0.00398671
0.00435779
0.00485608
0.00459595
0.00394614
0.00194616
0.000919219
0.00398167
0.00135688
0.00147453
0.00411091
0.00601513
0.00720945
0.00737383
0.00696895
0.00613142
0.00504042
0.00402259
0.00317697
0.00295316
0.00334019
0.00352541
0.0037258
0.00401568
0.00290364
0.00123246
0.000962777
0.00401341
0.00152998
0.00089844
0.00328677
0.00477878
0.00580497
0.00598389
0.00576284
0.00509322
0.00443123
0.00334241
0.00291488
0.00247108
0.00236262
0.00292785
0.00314643
0.00290202
0.00216645
0.000831523
0.00123172
0.00333044
0.00128424
0.000583819
0.00253141
0.00412384
0.00454134
0.00494104
0.00459668
0.00438397
0.00324631
0.00286867
0.00247025
0.00202733
0.00212842
0.00251123
0.00260455
0.00234578
0.00165879
0.000483759
0.00118203
0.00301046
0.00112625
0.000460676
0.00208757
0.00291969
0.00360379
0.00377749
0.0039119
0.00336405
0.00244429
0.00215068
0.0017048
0.00161929
0.00185686
0.00185181
0.00202782
0.00180088
0.00118473
0.00035965
0.000877958
0.00261499
0.000915327
0.000210081
0.00112918
0.00206316
0.00272214
0.00288443
0.00257527
0.0023706
0.00199303
0.00149476
0.00127347
0.00125729
0.00107676
0.00127842
0.0014221
0.00125781
0.000647863
0.000229917
0.000647007
0.00208675
0.000629641
0.000140201
0.000990657
0.00117094
0.00157906
0.00153782
0.00164466
0.00159228
0.00124124
0.000878043
0.000717539
0.000623227
0.000781433
0.000693771
0.00084765
0.000744482
0.000715373
3.28295e-05
0.000531534
0.00138942
0.000330676
0.000316312
0.000299462
0.000393206
0.000403237
0.000613175
0.000858916
0.000585635
0.00057442
0.000320748
0.000253394
0.000353124
4.67251e-05
0.000191651
0.000353543
0.000147342
0.000111739
0.000127371
0.000303838
0.000432589
0.000220851
0.00293428
0.00563029
0.00794655
0.00913957
0.00942189
0.00894372
0.00848648
0.00720548
0.0062982
0.00539772
0.00513174
0.00527234
0.00571612
0.00560469
0.00543699
0.0045838
0.0026368
0.000125199
0.00305144
0.000655937
0.00197035
0.00465347
0.00661053
0.00745645
0.00793217
0.00774187
0.00699422
0.00607856
0.00528065
0.00461145
0.00438365
0.00451248
0.00459294
0.004877
0.00447607
0.00356809
0.00183502
0.000484847
0.00314074
0.000863875
0.00136817
0.0036854
0.00524739
0.00603659
0.00650616
0.00642364
0.00593011
0.0050503
0.00450112
0.00385832
0.00380116
0.00367935
0.00393143
0.00366524
0.00362573
0.00285685
0.0013735
0.000674466
0.00265454
0.000721342
0.00106122
0.00272355
0.00421899
0.00502496
0.00548992
0.00536924
0.00466702
0.00436468
0.00357871
0.00325516
0.00297993
0.00306465
0.00311432
0.00310145
0.00308467
0.00235419
0.000820652
0.000822496
0.00254135
0.000996016
0.000502354
0.00209651
0.0032348
0.00401645
0.00399582
0.00421289
0.00382331
0.00338975
0.00299059
0.00240363
0.00214439
0.002407
0.00235769
0.00255999
0.00223099
0.00184225
0.000562938
0.000814179
0.00222342
0.000763797
0.000350593
0.00128848
0.00228288
0.00290674
0.00305361
0.00282331
0.00287441
0.00227967
0.00228349
0.00169164
0.00171556
0.00176993
0.00162505
0.00175636
0.00160167
0.00126318
0.000426024
0.000688181
0.00158228
0.000415548
0.000437243
0.000841585
0.00157363
0.00187278
0.00179724
0.00171857
0.00141344
0.00139629
0.000984916
0.00090219
0.000778384
0.000838368
0.00112263
0.00110606
0.000806444
0.000488814
0.000265762
0.000497069
0.000926148
0.000125701
0.000352644
0.00015044
0.000499637
0.000475603
0.000392026
0.000628823
0.000768415
0.000451563
0.000401307
0.000380971
0.000354164
3.68877e-05
0.000582408
0.000399537
0.000245342
0.00030145
6.8697e-05
0.000329956
0.000310207
0.000993262
0.00398778
0.00686987
0.00880737
0.0100881
0.0105719
0.0105058
0.00993257
0.00906468
0.00804516
0.00743843
0.00716741
0.00695498
0.00719118
0.00718933
0.00673314
0.00559046
0.00378356
0.00116943
0.00177772
0.000333315
0.00302667
0.00547163
0.00749125
0.00873327
0.00903124
0.00879807
0.00845099
0.00760123
0.00694406
0.00633226
0.00608552
0.00619503
0.00602548
0.00620537
0.00575612
0.0045876
0.00299009
0.000735345
0.00180861
0.000186349
0.00209848
0.0045
0.00589248
0.00713546
0.00766046
0.00755238
0.00734252
0.00658621
0.00568722
0.00548961
0.0049917
0.00515281
0.00499859
0.00510902
0.00465726
0.00400601
0.00229556
0.000270842
0.00164499
0.000280153
0.00182757
0.00338728
0.00500473
0.00578454
0.00621896
0.00614185
0.00565037
0.00553491
0.00479836
0.00431735
0.00407991
0.00415337
0.00430452
0.00395011
0.00384697
0.00299092
0.00174418
0.000237269
0.00143497
0.000236207
0.000952563
0.00251267
0.00387274
0.0045527
0.00482901
0.00464848
0.00451246
0.00412362
0.00384699
0.00335861
0.00351624
0.00310933
0.00326378
0.00342133
0.00278045
0.00246626
0.00142008
0.000155995
0.00132961
0.000392089
0.000669654
0.00195305
0.0026843
0.00285064
0.00334332
0.00332717
0.00337641
0.00297519
0.00246419
0.00252921
0.00230015
0.00227068
0.00243451
0.00228286
0.00175663
0.001543
0.000723439
3.83233e-06
0.000858418
0.000216749
0.000521269
0.00111703
0.00172461
0.00190833
0.00231244
0.00225145
0.00215477
0.00201651
0.00151858
0.00162919
0.00156166
0.00122552
0.00137638
0.0014133
0.00120924
0.00103996
0.000726514
5.97843e-05
0.000808985
0.000117232
0.000118404
0.00059606
0.000535226
0.000630871
0.000811566
0.000724059
0.000848473
0.000664697
0.000398346
0.000582046
0.000667507
0.000198443
0.000475395
0.000605591
0.00021147
0.000196956
0.000436219
0.000145811
9.70338e-05
0.00262003
0.00544613
0.00809009
0.0103246
0.0115478
0.012355
0.0123654
0.0118774
0.011135
0.0103445
0.00979131
0.00952724
0.00934093
0.00928103
0.00903063
0.00854663
0.00734413
0.00543476
0.00267108
0.000178837
0.00208489
0.00454166
0.00688791
0.00881474
0.00986846
0.0104686
0.0104704
0.0101156
0.0097142
0.00893523
0.00835763
0.0082632
0.00805641
0.00798655
0.00778393
0.00747625
0.0061929
0.00419267
0.00207247
0.000119552
0.00112681
0.00348648
0.00554727
0.00733145
0.00848428
0.00885187
0.00894877
0.00860801
0.00823695
0.00773143
0.00695896
0.00692437
0.0066671
0.00664718
0.00676653
0.00603961
0.00482124
0.00362771
0.00153025
0.000458759
0.000874952
0.00279814
0.00442012
0.00587431
0.00648913
0.00728103
0.00740993
0.00715817
0.00661912
0.00609771
0.00597757
0.00555723
0.0053299
0.00556007
0.00544989
0.00481316
0.00411709
0.00311566
0.00142694
0.000651482
0.000617844
0.00214553
0.00324935
0.00445526
0.00500937
0.00568082
0.00579966
0.00540268
0.00521315
0.00490447
0.00467176
0.00446889
0.00441975
0.00454583
0.0043244
0.00396632
0.00328751
0.00250438
0.000718345
0.000434611
0.000267208
0.0014764
0.00240066
0.00335519
0.00388137
0.00419887
0.00424269
0.0041591
0.00382904
0.0037239
0.00335057
0.00341211
0.00330149
0.00341719
0.00296685
0.00271865
0.00213669
0.00167472
0.00045964
0.000306177
0.000210398
0.00117311
0.00152086
0.00193323
0.0024087
0.00245085
0.0025909
0.00251902
0.00232367
0.0021496
0.00213824
0.00189394
0.00220954
0.00198915
0.00177211
0.00177525
0.00130874
0.00102122
0.000421059
0.000374474
3.65855e-05
0.000392696
0.000214803
0.000651467
0.000961665
0.000902133
0.000702409
0.000883632
0.000747575
0.000948053
0.000580247
0.000822803
0.000685261
0.000813023
0.000503853
0.000442199
0.000655638
0.000163473
1.91082e-06
0.00024209
0.00435703
0.00754694
0.0102559
0.0122773
0.0137317
0.0142338
0.0144307
0.0143923
0.0136803
0.0131216
0.0126833
0.0123719
0.012193
0.0119363
0.0116597
0.0107958
0.00941524
0.00749028
0.0049428
0.00229565
0.00377107
0.00609155
0.0085785
0.0104308
0.0116887
0.0122905
0.0124884
0.0121813
0.0119224
0.0114637
0.0107441
0.0105843
0.0104675
0.0101415
0.00983249
0.00923085
0.00814688
0.00631412
0.00396804
0.00176265
0.00280272
0.00502138
0.00719273
0.00858809
0.0098013
0.0103555
0.0105067
0.0105956
0.0101431
0.00959962
0.00948801
0.00900388
0.00895111
0.00895367
0.00825559
0.00784956
0.00664216
0.00541763
0.00325731
0.00144389
0.00209545
0.00405697
0.00570433
0.00711549
0.00798555
0.00878054
0.00865224
0.00851009
0.00841293
0.00787598
0.00753124
0.00742978
0.00748896
0.00710951
0.0068628
0.00644187
0.00550498
0.00429326
0.00277539
0.000866707
0.00152945
0.00305466
0.00440038
0.00567408
0.00661306
0.0065929
0.00702983
0.00681113
0.00646226
0.0063828
0.00595486
0.00596517
0.00593314
0.00563067
0.00538725
0.00506883
0.00412245
0.00341329
0.00180352
0.000566224
0.00106845
0.00226167
0.00331159
0.00397307
0.00454693
0.00487852
0.0048351
0.00491056
0.00477824
0.00472174
0.00464427
0.00415183
0.00419998
0.00413673
0.00394495
0.00340385
0.00326775
0.00220964
0.00138607
0.000502017
0.000515149
0.00130482
0.00178102
0.00253776
0.00267765
0.00306311
0.00319058
0.00288766
0.00299016
0.00276814
0.00265309
0.00261408
0.00249053
0.00264148
0.00214418
0.00215061
0.00217118
0.00135798
0.000737987
0.000465828
0.000223874
0.000237046
0.000515923
0.000948621
0.000949131
0.00101966
0.00102508
0.000900868
0.000977493
0.000762665
0.000906093
0.000985328
0.00103425
0.000918219
0.000672569
0.000788745
0.000640892
0.000438532
0.000556413
0.000109555
0.00707292
0.0098436
0.0125198
0.0145241
0.0159123
0.0167168
0.0173501
0.0171661
0.0167375
0.0161728
0.0158389
0.0153874
0.0152674
0.0149319
0.0142076
0.013409
0.012134
0.0100462
0.00749117
0.00492839
0.00571559
0.00824623
0.0106403
0.0124168
0.0139977
0.0146419
0.014781
0.0147104
0.0146056
0.0141036
0.0136766
0.0133353
0.0131542
0.0127539
0.0124787
0.0116884
0.0104134
0.00861734
0.00622054
0.00398517
0.00464902
0.00661392
0.00900285
0.0104006
0.0116932
0.0120846
0.0128101
0.0123677
0.0123797
0.0122455
0.0118934
0.0117121
0.0112224
0.0110419
0.0105113
0.0100007
0.00880324
0.00719376
0.00522463
0.00332357
0.00361998
0.00534875
0.00745285
0.00853483
0.00975564
0.0102681
0.0104106
0.0104506
0.0102893
0.0099274
0.00969
0.00945056
0.00943206
0.00917612
0.00875826
0.00820382
0.00725365