/*--------------------------------*- C++ -*----------------------------------*\
| =========                 |                                                 |
| \\      /  F ield         | OpenFOAM: The Open Source CFD Toolbox           |
|  \\    /   O peration     | Version:  2212                                  |
|   \\  /    A nd           | Website:  www.openfoam.com                      |
|    \\/     M anipulation  |                                                 |
\*---------------------------------------------------------------------------*/
FoamFile
{
    version     2.0;
    format      ascii;
    arch        "LSB;label=32;scalar=64";
    class       volScalarField;
    location    "0";
    object      T;
}
// * * * * * * * * * * * * * * * * * * * * * * * * * * * * * * * * * * * * * //

dimensions      [0 0 0 1 0 0 0];

internalField   nonuniform List<scalar> 
3200
(
347.222
347.913
349.019
350.089
350.562
351.474
351.696
351.974
352.137
352.191
352.152
351.9
351.508
350.926
350.317
349.374
348.501
347.684
346.425
345.56
341.052
341.613
342.543
343.551
343.915
344.719
344.896
345.156
345.298
345.299
345.289
345.082
344.707
344.213
343.694
342.818
342.102
341.404
340.309
339.557
334.794
335.235
336.049
336.929
337.233
337.92
338.092
338.268
338.381
338.353
338.388
338.131
337.908
337.492
336.99
336.266
335.627
335.08
334.139
333.526
328.507
328.845
329.499
330.294
330.469
331.091
331.219
331.336
331.453
331.407
331.436
331.236
331.06
330.709
330.297
329.716
329.113
328.714
327.974
327.475
322.232
322.434
322.945
323.573
323.696
324.203
324.299
324.364
324.488
324.445
324.469
324.299
324.177
323.95
323.626
323.184
322.612
322.335
321.769
321.408
315.909
315.996
316.394
316.841
316.915
317.326
317.373
317.409
317.472
317.478
317.516
317.357
317.272
317.121
316.895
316.565
316.165
315.982
315.587
315.331
309.568
309.615
309.83
310.073
310.134
310.408
310.488
310.458
310.465
310.503
310.515
310.421
310.373
310.301
310.155
309.976
309.76
309.578
309.383
309.227
303.22
303.227
303.301
303.393
303.372
303.481
303.519
303.509
303.499
303.521
303.534
303.477
303.487
303.459
303.407
303.349
303.283
303.207
303.138
303.086
348.29
349.126
350.285
351.313
351.849
352.52
353.05
353.073
353.483
353.572
353.6
353.364
352.935
352.184
351.335
350.555
349.642
348.7
347.584
346.667
341.892
342.62
343.61
344.521
344.969
345.536
345.944
345.987
346.384
346.477
346.463
346.337
345.89
345.216
344.481
343.856
343.034
342.27
341.23
340.489
335.47
336.026
336.883
337.737
338.039
338.519
338.875
338.956
339.284
339.379
339.335
339.24
338.883
338.259
337.681
337.138
336.403
335.769
334.853
334.295
329.042
329.443
330.148
330.881
331.121
331.505
331.81
331.847
332.182
332.243
332.192
332.102
331.888
331.31
330.883
330.397
329.735
329.269
328.504
328.098
322.619
322.848
323.454
324.052
324.219
324.539
324.751
324.799
325.027
325.046
325.055
324.988
324.862
324.367
324.05
323.666
323.094
322.717
322.197
321.859
316.194
316.297
316.79
317.186
317.337
317.502
317.708
317.715
317.897
317.921
317.946
317.898
317.786
317.426
317.216
316.93
316.512
316.172
315.883
315.636
309.728
309.786
310.124
310.321
310.442
310.51
310.668
310.641
310.758
310.8
310.773
310.763
310.733
310.483
310.34
310.162
309.918
309.72
309.521
309.399
303.264
303.285
303.407
303.455
303.489
303.515
303.587
303.57
303.616
303.626
303.614
303.616
303.595
303.531
303.459
303.405
303.337
303.262
303.181
303.151
349.633
350.61
351.822
352.673
353.234
354.085
354.706
354.889
355.025
355.292
355.204
355.058
354.687
353.894
352.972
352.228
351.293
350.139
348.964
347.991
343.003
343.864
344.898
345.652
346.118
346.881
347.359
347.551
347.714
347.923
347.813
347.745
347.398
346.718
345.848
345.251
344.425
343.384
342.435
341.61
336.319
337.129
338.024
338.647
339.033
339.684
340.077
340.177
340.372
340.535
340.426
340.403
340.138
339.502
338.778
338.303
337.558
336.658
335.916
335.24
329.674
330.408
331.11
331.672
331.952
332.503
332.816
332.874
333.026
333.172
333.093
333.045
332.864
332.255
331.703
331.361
330.701
329.955
329.421
328.831
323.055
323.627
324.171
324.631
324.855
325.302
325.535
325.576
325.681
325.808
325.712
325.699
325.521
325.094
324.684
324.394
323.868
323.281
322.897
322.453
316.437
316.894
317.258
317.539
317.734
318.074
318.269
318.278
318.333
318.409
318.335
318.362
318.244
317.931
317.649
317.436
317.055
316.643
316.337
316.054
309.873
310.152
310.364
310.499
310.608
310.876
310.982
310.933
311.013
311.048
311.035
311.049
310.953
310.775
310.64
310.46
310.239
309.998
309.796
309.652
303.323
303.42
303.461
303.496
303.555
303.634
303.677
303.65
303.702
303.691
303.706
303.72
303.67
303.608
303.579
303.497
303.431
303.355
303.287
303.22
351.12
352.301
353.36
354.271
354.891
355.913
356.433
356.711
356.94
356.886
356.654
356.418
356.301
355.658
354.787
354.027
352.974
351.786
350.68
349.648
344.294
345.353
346.23
347.067
347.559
348.475
348.869
349.162
349.327
349.272
349.047
348.856
348.738
348.163
347.409
346.752
345.885
344.817
343.886
343.038
337.448
338.397
339.097
339.856
340.268
340.998
341.349
341.598
341.735
341.656
341.456
341.289
341.228
340.681
340.08
339.53
338.774
337.857
337.119
336.429
330.601
331.446
332
332.61
332.947
333.545
333.869
334.026
334.115
334.083
333.885
333.766
333.717
333.24
332.752
332.32
331.662
330.947
330.359
329.819
323.784
324.431
324.898
325.339
325.62
326.023
326.358
326.479
326.48
326.508
326.342
326.255
326.184
325.784
325.441
325.147
324.58
324.087
323.605
323.187
316.955
317.47
317.787
318.137
318.307
318.616
318.839
318.922
318.901
318.943
318.784
318.743
318.669
318.422
318.141
317.987
317.546
317.194
316.877
316.607
310.178
310.5
310.647
310.928
310.971
311.193
311.292
311.379
311.344
311.341
311.29
311.256
311.224
311.037
310.902
310.808
310.508
310.335
310.154
309.991
303.397
303.509
303.544
303.673
303.662
303.757
303.768
303.82
303.796
303.795
303.784
303.764
303.757
303.696
303.645
303.6
303.489
303.457
303.403
303.351
352.681
353.913
354.946
355.97
356.831
357.548
358.143
358.609
358.785
358.869
358.79
358.405
358.198
357.304
356.684
355.926
354.838
353.487
352.19
351.244
345.664
346.736
347.611
348.524
349.167
349.838
350.38
350.779
350.927
350.958
350.954
350.589
350.409
349.654
349.101
348.404
347.525
346.313
345.219
344.375
338.659
339.592
340.276
341.122
341.55
342.14
342.616
342.959
343.083
343.07
343.105
342.742
342.669
342.024
341.497
340.902
340.178
339.159
338.23
337.518
331.641
332.4
332.973
333.69
333.936
334.444
334.837
335.16
335.232
335.234
335.234
334.937
334.9
334.364
333.855
333.397
332.84
331.997
331.248
330.696
324.616
325.197
325.624
326.192
326.382
326.741
327.054
327.39
327.404
327.393
327.367
327.167
327.097
326.746
326.312
325.946
325.538
324.823
324.327
323.881
317.574
317.991
318.337
318.682
318.836
319.089
319.309
319.619
319.563
319.574
319.528
319.424
319.338
319.076
318.771
318.522
318.245
317.693
317.385
317.078
310.553
310.779
311.026
311.191
311.269
311.46
311.586
311.802
311.719
311.8
311.724
311.719
311.64
311.477
311.267
311.136
310.948
310.649
310.451
310.273
303.546
303.606
303.711
303.754
303.773
303.834
303.893
303.949
303.925
303.965
303.924
303.948
303.91
303.864
303.79
303.721
303.675
303.578
303.49
303.447
354.528
355.65
356.633
357.852
358.675
359.491
360.162
360.603
360.677
361.053
360.717
360.415
359.725
359.14
358.452
357.621
356.613
355.165
353.761
352.94
347.244
348.218
348.974
350.122
350.818
351.542
352.141
352.525
352.603
352.894
352.589
352.307
351.701
351.177
350.588
349.863
349.02
347.752
346.541
345.86
339.985
340.8
341.353
342.385
342.965
343.579
344.121
344.453
344.478
344.716
344.465
344.215
343.729
343.279
342.774
342.136
341.476
340.336
339.328
338.799
332.735
333.334
333.796
334.613
335.143
335.657
336.122
336.355
336.409
336.544
336.341
336.164
335.735
335.418
334.978
334.434
333.899
332.977
332.119
331.723
325.43
325.893
326.262
326.908
327.341
327.748
328.069
328.259
328.328
328.403
328.238
328.145
327.789
327.548
327.179
326.763
326.337
325.658
324.965
324.647
318.148
318.488
318.759
319.205
319.531
319.865
320.06
320.189
320.269
320.284
320.181
320.09
319.845
319.716
319.436
319.137
318.821
318.322
317.837
317.646
310.905
311.133
311.248
311.538
311.76
311.954
312.049
312.141
312.19
312.197
312.11
312.071
311.926
311.878
311.681
311.505
311.297
311.029
310.707
310.611
303.669
303.75
303.756
303.878
303.934
304.012
304.045
304.071
304.1
304.082
304.058
304.047
303.995
303.982
303.934
303.843
303.772
303.697
303.587
303.555
355.835
357.058
358.21
359.473
360.337
361.398
361.913
362.325
362.358
362.711
362.443
362.32
361.622
360.843
360.25
359.362
358.066
356.537
355.431
354.567
348.402
349.419
350.428
351.515
352.266
353.188
353.615
353.996
354.016
354.294
354.055
353.921
353.383
352.695
352.145
351.411
350.209
348.875
347.967
347.284
340.997
341.824
342.618
343.599
344.226
344.985
345.356
345.663
345.675
345.906
345.71
345.537
345.15
344.612
344.112
343.48
342.447
341.287
340.581
340.046
333.608
334.242
334.825
335.648
336.157
336.795
337.128
337.381
337.382
337.527
337.397
337.215
336.882
336.536
336.076
335.539
334.729
333.751
333.185
332.782
326.182
326.659
327.095
327.68
328.121
328.634
328.862
329.079
329.063
329.176
329.135
328.92
328.671
328.445
328.006
327.634
327.038
326.242
325.797
325.483
318.711
319.081
319.329
319.764
320.154
320.464
320.615
320.786
320.79
320.859
320.825
320.664
320.453
320.332
320.001
319.747
319.329
318.757
318.432
318.227
311.276
311.473
311.608
311.867
312.129
312.282
312.355
312.48
312.501
312.53
312.48
312.398
312.279
312.19
312.037
311.849
311.583
311.278
311.092
310.97
303.78
303.86
303.896
303.969
304.064
304.123
304.154
304.18
304.199
304.176
304.163
304.155
304.109
304.05
304.031
303.952
303.885
303.785
303.722
303.684
357.437
358.742
359.914
361.042
361.891
362.845
363.622
363.897
363.96
364.17
364.194
363.947
363.414
362.706
361.922
360.932
359.697
358.163
357.046
356.06
349.775
350.887
351.921
352.881
353.582
354.447
355.095
355.344
355.321
355.556
355.619
355.363
354.893
354.291
353.603
352.752
351.65
350.324
349.363
348.555
342.134
342.991
343.917
344.724
345.308
346.057
346.563
346.828
346.742
346.968
347.055
346.809
346.399
345.901
345.32
344.575
343.617
342.521
341.698
340.999
334.512
335.187
335.873
336.586
337.084
337.692
338.05
338.298
338.191
338.42
338.515
338.263
337.925
337.492
337.032
336.394
335.647
334.743
334.093
333.533
326.835
327.385
327.848
328.44
328.873
329.291
329.611
329.738
329.688
329.936
329.938
329.726
329.456
329.097
328.75
328.251
327.685
327.014
326.535
326.099
319.151
319.542
319.898
320.282
320.646
320.939
321.134
321.201
321.223
321.399
321.385
321.244
321.02
320.735
320.528
320.129
319.735
319.314
318.973
318.66
311.533
311.736
311.985
312.158
312.413
312.559
312.687
312.689
312.796
312.844
312.853
312.745
312.604
312.445
312.315
312.095
311.847
311.591
311.4
311.206
303.855
303.926
304.019
304.074
304.143
304.224
304.257
304.222
304.281
304.302
304.309
304.272
304.225
304.175
304.108
304.057
303.947
303.89
303.822
303.755
358.739
360.084
361.305
362.382
363.553
364.363
365.118
365.587
365.699
365.879
365.619
365.462
364.887
364.38
363.276
362.489
361.085
359.873
358.468
357.464
350.931
352.107
353.141
354.023
355.064
355.77
356.411
356.807
356.865
357.016
356.859
356.66
356.161
355.692
354.77
354.083
352.869
351.8
350.605
349.767
343.09
344.083
344.899
345.725
346.537
347.15
347.706
347.989
348.074
348.19
348.079
347.871
347.458
347.064
346.314
345.684
344.643
343.744
342.755
342.111
335.272
336.024
336.671
337.412
338.007
338.575
339.024
339.2
339.283
339.425
339.33
339.135
338.774
338.46
337.824
337.346
336.46
335.676
334.91
334.439
327.46
327.97
328.491
329.099
329.546
329.976
330.365
330.476
330.569
330.706
330.623
330.438
330.14
329.839
329.384
328.982
328.282
327.679
327.136
326.789
319.636
319.955
320.303
320.76
321.122
321.415
321.718
321.782
321.859
321.979
321.904
321.75
321.509
321.282
320.966
320.626
320.193
319.753
319.354
319.156
311.815
311.971
312.184
312.452
312.679
312.881
313.057
313.058
313.104
313.221
313.154
313.095
312.929
312.76
312.583
312.376
312.115
311.872
311.621
311.51
303.97
303.998
304.096
304.177
304.25
304.296
304.403
304.376
304.381
304.431
304.426
304.388
304.319
304.279
304.212
304.148
304.063
303.975
303.881
303.859
360.07
361.555
362.676
363.85
365.023
365.895
366.422
366.863
367.115
367.118
367.116
366.998
366.551
365.888
364.841
363.887
362.807
361.387
360.072
359.003
352.069
353.368
354.284
355.29
356.335
357.12
357.485
357.861
358.147
358.123
358.112
358.006
357.653
357.043
356.128
355.251
354.39
353.122
352.051
351.084
344.015
345.172
345.896
346.7
347.633
348.331
348.606
348.895
349.162
349.17
349.156
349.047
348.748
348.227
347.411
346.672
345.969
344.832
344.003
343.21
336.016
336.992
337.564
338.165
338.948
339.528
339.756
339.999
340.215
340.245
340.258
340.159
339.819
339.42
338.729
338.136
337.548
336.63
335.955
335.326
328.019
328.794
329.234
329.627
330.272
330.744
330.905
331.127
331.274
331.32
331.332
331.233
330.917
330.637
330.078
329.602
329.165
328.449
327.948
327.462
320.041
320.548
320.898
321.182
321.632
321.971
322.088
322.248
322.381
322.399
322.359
322.315
322.05
321.833
321.482
321.108
320.84
320.302
319.911
319.652
312.036
312.32
312.564
312.727
313.019
313.21
313.313
313.387
313.495
313.455
313.412
313.427
313.225
313.125
312.932
312.637
312.523
312.209
311.95
311.813
304.008
304.128
304.211
304.266
304.376
304.434
304.482
304.512
304.512
304.504
304.502
304.511
304.456
304.398
304.316
304.215
304.209
304.083
304.015
303.966
361.38
362.488
363.943
365.08
366.126
367.139
367.697
368.324
368.566
368.662
368.644
368.352
368.067
367.247
366.224
365.132
364.109
362.771
361.248
360.12
353.162
354.138
355.408
356.373
357.271
358.171
358.615
359.144
359.34
359.436
359.458
359.214
358.96
358.245
357.345
356.363
355.467
354.362
353.027
352.078
344.938
345.801
346.859
347.684
348.451
349.194
349.606
349.985
350.137
350.254
350.299
350.106
349.82
349.231
348.474
347.66
346.854
345.978
344.853
344.053
336.756
337.474
338.362
339.021
339.658
340.198
340.574
340.875
340.978
341.082
341.179
340.995
340.739
340.276
339.599
338.983
338.277
337.585
336.668
336.045
328.547
329.15
329.873
330.367
330.859
331.231
331.543
331.748
331.86
331.929
332.024
331.916
331.679
331.348
330.8
330.359
329.744
329.217
328.534
328.052
320.386
320.796
321.317
321.668
322.012
322.257
322.556
322.672
322.742
322.815
322.893
322.811
322.602
322.386
321.995
321.674
321.263
320.849
320.383
320.068
312.236
312.465
312.787
312.984
313.185
313.329
313.549
313.577
313.661
313.717
313.758
313.717
313.545
313.423
313.191
313.003
312.785
312.478
312.231
312.09
304.097
304.159
304.295
304.348
304.419
304.47
304.541
304.544
304.583
304.605
304.629
304.587
304.536
304.49
304.426
304.36
304.295
304.188
304.091
304.046
362.357
363.567
365.018
366.255
367.411
368.435
369.018
369.772
369.993
370.187
369.922
369.815
369.039
368.521
367.527
366.382
365.297
364.156
362.597
361.404
354.069
355.084
356.333
357.384
358.387
359.266
359.736
360.453
360.613
360.75
360.534
360.457
359.759
359.33
358.429
357.429
356.496
355.527
354.2
353.224
345.746
346.611
347.666
348.552
349.383
350.102
350.517
351.14
351.245
351.359
351.131
351.079
350.468
350.168
349.347
348.57
347.742
346.911
345.838
345.014
337.434
338.121
338.994
339.689
340.377
340.922
341.347
341.797
341.86
341.994
341.816
341.771
341.259
341.068
340.294
339.732
339.033
338.296
337.466
336.823
329.115
329.654
330.32
330.865
331.394
331.803
332.226
332.524
332.544
332.66
332.557
332.471
332.038
331.944
331.303
330.913
330.331
329.76
329.117
328.637
320.781
321.156
321.685
322.016
322.395
322.741
323.015
323.247
323.229
323.317
323.287
323.17
322.882
322.825
322.308
322.063
321.688
321.202
320.795
320.468
312.468
312.707
313.039
313.181
313.451
313.653
313.812
313.94
313.926
313.989
313.997
313.906
313.711
313.73
313.398
313.212
313.059
312.708
312.455
312.325
304.186
304.265
304.365
304.415
304.513
304.562
304.629
304.697
304.644
304.696
304.7
304.657
304.597
304.596
304.485
304.422
304.399
304.253
304.161
304.123
363.399
364.635
366.237
367.302
368.534
369.546
370.314
370.803
371.238
371.196
371.079
370.869
370.305
369.558
368.78
367.479
366.556
365.03
363.691
362.496
354.967
356.019
357.353
358.263
359.423
360.252
360.83
361.326
361.71
361.651
361.492
361.337
360.858
360.185
359.497
358.398
357.582
356.317
355.194
354.177
346.527
347.385
348.479
349.247
350.302
350.99
351.394
351.903
352.211
352.15
351.946
351.88
351.491
350.826
350.232
349.393
348.656
347.626
346.699
345.811
338.081
338.746
339.667
340.249
341.183
341.728
342.028
342.452
342.698
342.652
342.455
342.423
342.063
341.545
341.029
340.435
339.759
338.977
338.162
337.467
329.651
330.131
330.818
331.296
332.047
332.435
332.637
332.974
333.218
333.143
333.032
332.981
332.647
332.3
331.857
331.406
330.939
330.337
329.633
329.173
321.209
321.513
322.048
322.329
322.898
323.169
323.308
323.547
323.735
323.647
323.583
323.499
323.327
323.097
322.766
322.428
322.089
321.682
321.134
320.831
312.739
312.922
313.265
313.375
313.725
313.914
313.993
314.114
314.256
314.177
314.156
314.118
314.021
313.892
313.664
313.463
313.239
313.004
312.688
312.484
304.278
304.35
304.456
304.467
304.613
304.654
304.69
304.724
304.761
304.76
304.738
304.747
304.716
304.678
304.58
304.496
304.438
304.348
304.259
304.168
364.302
365.641
367.014
368.46
369.62
370.62
371.419
372.088
372.285
372.36
372.156
371.916
371.535
370.73
369.78
368.58
367.627
365.965
364.663
363.313
355.749
356.858
358.013
359.29
360.307
361.163
361.845
362.439
362.57
362.632
362.456
362.221
361.906
361.228
360.382
359.357
358.516
357.083
355.98
354.829
347.186
348.094
349.073
350.1
350.978
351.736
352.288
352.803
352.909
352.9
352.77
352.602
352.337
351.763
351.056
350.187
349.43
348.23
347.319
346.343
338.61
339.375
340.14
340.956
341.708
342.297
342.753
343.189
343.243
343.205
343.144
342.996
342.788
342.354
341.713
341.036
340.389
339.469
338.674
337.936
330.041
330.625
331.203
331.818
332.439
332.875
333.242
333.563
333.613
333.541
333.556
333.44
333.237
332.947
332.423
331.934
331.422
330.708
330.031
329.547
321.439
321.88
322.251
322.676
323.139
323.479
323.702
323.992
324.009
323.926
323.993
323.876
323.723
323.549
323.146
322.811
322.423
321.943
321.446
321.163
312.865
313.14
313.344
313.619
313.859
314.098
314.213
314.392
314.411
314.353
314.413
314.323
314.209
314.145
313.893
313.727
313.44
313.158
312.887
312.711
304.316
304.406
304.484
304.56
304.626
304.728
304.75
304.811
304.821
304.807
304.833
304.815
304.757
304.743
304.638
304.594
304.507
304.421
304.322
304.241
365.193
366.453
368.066
369.227
370.368
371.555
372.392
372.964
373.225
373.237
373.106
372.772
372.378
371.797
370.732
369.597
368.423
366.774
365.436
364.06
356.494
357.56
358.957
359.946
360.955
361.96
362.712
363.178
363.421
363.425
363.291
362.979
362.677
362.124
361.197
360.237
359.196
357.758
356.673
355.523
347.763
348.695
349.844
350.652
351.541
352.424
353.014
353.4
353.644
353.62
353.543
353.257
352.96
352.511
351.758
350.924
349.983
348.794
347.912
346.993
339.043
339.817
340.742
341.415
342.191
342.835
343.358
343.666
343.839
343.823
343.794
343.538
343.31
342.956
342.361
341.623
340.848
339.853
339.181
338.478
330.326
330.947
331.665
332.191
332.831
333.25
333.727
333.947
334.06
334.042
334.012
333.812
333.683
333.455
332.982
332.33
331.766
330.958
330.495
329.941
321.685
322.118
322.615
322.973
323.465
323.712
324.134
324.249
324.329
324.342
324.309
324.138
324.067
323.923
323.556
323.087
322.672
322.09
321.815
321.387
313.022
313.312
313.573
313.773
314.104
314.223
314.501
314.567
314.61
314.587
314.646
314.464
314.437
314.402
314.146
313.878
313.611
313.225
313.117
312.832
304.376
304.451
304.542
304.618
304.743
304.748
304.861
304.901
304.928
304.869
304.908
304.857
304.835
304.852
304.731
304.644
304.57
304.435
304.395
304.308
365.933
367.037
368.713
370.12
371.12
372.281
373.207
373.67
374.126
374.28
373.77
373.609
373.145
372.584
371.577
370.485
369.129
367.676
365.912
364.517
357.18
358.028
359.507
360.729
361.558
362.562
363.401
363.806
364.163
364.279
363.901
363.679
363.328
362.811
361.938
360.998
359.846
358.568
357.037
355.866
348.398
349.029
350.297
351.365
352.047
352.871
353.658
353.982
354.249
354.297
354.046
353.806
353.6
353.058
352.348
351.547
350.62
349.496
348.224
347.24
339.633
340.093
341.145
342.015
342.562
343.208
343.896
344.167
344.368
344.351
344.226
343.983
343.884
343.371
342.777
342.156
341.386
340.397
339.458
338.645
330.863
331.21
332.029
332.66
333.081
333.59
334.123
334.336
334.464
334.462
334.399
334.174
334.139
333.697
333.251
332.769
332.17
331.379
330.711
330.092
322.087
322.318
322.862
323.315
323.632
324.004
324.383
324.51
324.635
324.626
324.583
324.422
324.401
324.067
323.754
323.435
322.958
322.411
321.967
321.522
313.276
313.455
313.755
313.972
314.168
314.427
314.639
314.71
314.797
314.792
314.753
314.698
314.661
314.448
314.269
314.056
313.795
313.483
313.202
312.954
304.43
304.5
304.626
304.692
304.755
304.828
304.902
304.938
304.951
304.936
304.949
304.952
304.928
304.842
304.779
304.724
304.618
304.521
304.421
304.35
366.519
367.66
369.237
370.695
371.686
372.952
373.827
374.488
374.891
374.853
374.653
374.433
374.012
373.263
372.256
371.185
369.858
368.491
366.661
365.014
357.657
358.598
359.93
361.222
362.038
363.155
363.905
364.521
364.824
364.828
364.619
364.405
364.087
363.379
362.589
361.602
360.476
359.27
357.701
356.321
348.815
349.522
350.643
351.778
352.451
353.367
354.017
354.541
354.81
354.779
354.634
354.413
354.16
353.588
352.915
352.052
351.074
350.099
348.749
347.621
339.955
340.504
341.444
342.348
342.911
343.635
344.169
344.584
344.854
344.813
344.714
344.467
344.268
343.841
343.302
342.526
341.69
340.952
339.821
338.964
331.043
331.512
332.268
332.944
333.345
333.924
334.344
334.663
334.897
334.85
334.775
334.595
334.447
334.064
333.725
333.06
332.384
331.802
330.952
330.335
322.175
322.508
323.089
323.55
323.791
324.237
324.546
324.745
324.928
324.907
324.866
324.703
324.626
324.278
324.127
323.609
323.134
322.7
322.097
321.708
313.337
313.518
313.878
314.148
314.27
314.54
314.699
314.877
314.97
314.957
314.953
314.841
314.798
314.566
314.487
314.18
313.883
313.606
313.24
313.057
304.496
304.541
304.641
304.746
304.806
304.871
304.916
304.984
305.018
305.01
305.015
304.969
304.952
304.899
304.862
304.753
304.655
304.561
304.429
304.368
366.743
368.008
369.794
371.07
372.299
373.423
374.14
374.732
375.364
375.522
375.295
375.038
374.453
373.782
372.921
371.653
370.466
368.984
367.077
365.686
357.841
358.893
360.4
361.551
362.583
363.58
364.167
364.755
365.256
365.372
365.147
364.961
364.424
363.878
363.131
361.986
360.941
359.692
358.024
356.858
348.927
349.784
351.077
352.094
352.946
353.759
354.188
354.775
355.188
355.228
355.037
354.886
354.451
353.984
353.363
352.365
351.448
350.415
349.039
348.065
340.038
340.694
341.753
342.623
343.3
343.944
344.275
344.802
345.131
345.158
344.945
344.824
344.462
344.067
343.649
342.79
342.015
341.176
340.09
339.327
331.187
331.674
332.444
333.104
333.7
334.123
334.39
334.854
335.07
335.115
334.926
334.876
334.532
334.197
333.934
333.246
332.651
332.012
331.196
330.614
322.289
322.672
323.227
323.624
324.068
324.365
324.555
324.926
325.052
325.064
324.946
324.948
324.624
324.402
324.242
323.735
323.308
322.88
322.304
321.863
313.391
313.658
313.967
314.197
314.473
314.619
314.749
314.997
315.064
315.01
314.983
314.98
314.773
314.658
314.578
314.238
314.012
313.755
313.377
313.107
304.479
304.575
304.678
304.775
304.855
304.89
304.959
305.035
305.062
305.027
305.014
305.011
304.959
304.911
304.884
304.771
304.698
304.624
304.475
304.402
367.098
368.532
370.347
371.559
372.763
373.78
374.555
375.324
375.596
375.739
375.844
375.446
374.803
374.079
373.229
372.238
370.838
369.095
367.449
366.033
358.155
359.348
360.883
362.016
363.015
363.876
364.51
365.201
365.425
365.562
365.624
365.28
364.76
364.122
363.4
362.493
361.3
359.799
358.347
357.167
349.203
350.205
351.443
352.419
353.235
353.971
354.504
355.121
355.263
355.395
355.416
355.189
354.69
354.194
353.619
352.798
351.741
350.584
349.283
348.369
340.235
341.04
342.026
342.864
343.527
344.118
344.545
345.06
345.179
345.291
345.226
345.056
344.676
344.268
343.87
343.17
342.257
341.328
340.254
339.593
331.3
331.895
332.647
333.344
333.856
334.272
334.647
335.012
335.119
335.215
335.121
335.001
334.709
334.362
334.123
333.594
332.811
332.092
331.272
330.814
322.372
322.788
323.368
323.843
324.215
324.453
324.759
324.979
325.102
325.139
325.081
324.978
324.788
324.467
324.357
323.976
323.432
322.924
322.325
322.057
313.418
313.71
314.074
314.344
314.567
314.687
314.861
314.95
315.089
315.092
315.045
315
314.94
314.676
314.584
314.402
314.053
313.787
313.398
313.239
304.489
304.613
304.736
304.797
304.881
304.911
304.987
305.011
305.076
305.055
305.038
305.037
305.044
304.904
304.89
304.824
304.706
304.604
304.466
304.435
367.262
368.529
370.392
371.833
372.995
374.002
374.948
375.398
375.925
375.902
375.891
375.869
374.92
374.172
373.528
372.511
371.089
369.47
367.897
366.253
358.281
359.343
360.94
362.243
363.196
364.061
364.863
365.24
365.72
365.681
365.649
365.617
364.828
364.194
363.642
362.754
361.499
360.115
358.751
357.36
349.319
350.172
351.529
352.684
353.423
354.173
354.798
355.142
355.549
355.515
355.484
355.416
354.803
354.273
353.796
352.997
351.984
350.819
349.637
348.51
340.364
341.031
342.166
343.086
343.709
344.3
344.739
345.061
345.435
345.407
345.381
345.261
344.799
344.356
343.972
343.262
342.494
341.541
340.53
339.647
331.376
331.9
332.828
333.502
333.998
334.43
334.737
335.068
335.375
335.288
335.264
335.17
334.811
334.498
334.189
333.605
333.02
332.301
331.453
330.83
322.386
322.793
323.491
323.926
324.28
324.604
324.801
325.085
325.314
325.198
325.189
325.09
324.889
324.684
324.437
324.001
323.581
323.05
322.436
322.068
313.433
313.649
314.133
314.376
314.553
314.759
314.873
315.069
315.216
315.152
315.109
315.076
314.964
314.809
314.667
314.395
314.173
313.829
313.484
313.279
304.491
304.573
304.747
304.812
304.893
304.957
304.994
305.036
305.097
305.074
305.074
305.066
305.011
304.951
304.907
304.838
304.775
304.64
304.501
304.459
)
;

boundaryField
{
    hotSide
    {
        type            fixedGradient;
        gradient        nonuniform List<scalar> 
400
(
487.799
506.58
525.044
543.11
560.694
577.715
594.089
609.738
624.584
638.551
651.568
663.568
674.488
684.271
692.865
700.224
706.309
711.089
714.538
716.64
500.141
519.496
538.531
557.16
575.298
592.861
609.763
625.922
641.258
655.694
669.155
681.572
692.88
703.019
711.937
719.585
725.923
730.918
734.545
736.784
511.14
531.02
550.577
569.723
588.369
606.43
623.817
640.446
656.235
671.103
684.975
697.779
709.447
719.919
729.139
737.059
743.636
748.835
752.631
755.003
520.734
541.087
561.113
580.725
599.83
618.34
636.167
653.222
669.422
684.683
698.93
712.086
724.085
734.862
744.361
752.531
759.33
764.721
768.677
771.177
528.874
549.642
570.084
590.106
609.617
628.526
646.742
664.176
680.741
696.354
710.935
724.408
736.702
747.755
757.506
765.904
772.905
778.473
782.577
785.198
535.521
556.646
577.443
597.819
617.679
636.932
655.485
673.247
690.13
706.048
720.921
734.671
747.226
758.52
768.495
777.096
784.278
790.005
794.245
796.978
540.649
562.069
583.159
603.828
623.979
643.518
662.353
680.389
697.539
713.715
728.834
742.819
755.595
767.097
777.264
786.04
793.381
799.247
803.609
806.444
544.241
565.889
587.211
608.109
628.49
648.256
667.313
685.569
702.932
719.315
734.634
748.809
761.767
773.439
783.764
792.687
800.161
806.146
810.613
813.538
546.287
568.099
589.585
610.65
631.196
651.127
670.348
688.766
706.287
722.825
738.293
752.613
765.709
777.512
787.961
797
804.581
810.664
815.218
818.22
546.789
568.697
590.281
611.445
632.092
652.126
671.45
689.969
707.593
724.231
739.798
754.215
767.405
779.3
789.836
798.959
806.618
812.776
817.399
820.464
545.754
567.689
589.303
610.5
631.183
651.255
670.619
689.181
706.849
723.533
739.148
753.613
766.852
778.797
789.383
798.556
806.266
812.473
817.145
820.259
543.198
565.091
586.668
607.831
628.483
648.528
667.87
686.414
704.067
720.741
736.351
750.815
764.058
776.011
786.61
795.799
803.53
809.762
814.463
817.61
539.142
560.925
582.396
603.457
624.013
643.967
663.224
681.689
699.27
715.879
731.431
745.844
759.045
770.964
781.536
790.708
798.43
804.662
809.371
812.535
533.615
555.221
576.518
597.411
617.805
637.604
656.713
675.039
692.49
708.978
724.42
738.734
751.846
763.688
774.197
783.317
791
797.206
801.903
805.068
526.653
548.014
569.071
589.731
609.899
629.48
648.38
666.507
683.771
700.084
715.363
729.529
742.508
754.232
764.639
773.674
781.288
787.444
792.108
795.257
518.297
539.348
560.101
580.464
600.342
619.643
638.275
656.145
673.166
689.251
704.317
718.288
731.09
742.655
752.923
761.839
769.357
775.437
780.047
783.165
508.596
529.275
549.661
569.664
589.193
608.155
626.46
644.017
660.741
676.546
691.351
705.081
717.662
729.029
739.123
747.889
755.281
761.262
765.799
768.871
497.607
517.853
537.812
557.397
576.517
595.083
613.006
630.198
646.573
662.049
676.546
689.99
702.31
713.442
723.327
731.912
739.153
745.011
749.457
752.468
485.394
505.149
524.625
543.736
562.392
580.508
597.996
614.771
630.749
645.849
659.994
673.112
685.132
695.993
705.637
714.013
721.077
726.792
731.128
734.065
472.029
491.24
510.179
528.763
546.905
564.52
581.524
597.835
613.369
628.05
641.802
654.554
666.239
676.796
686.17
694.31
701.173
706.725
710.936
713.786
)
;
    }
    coldSide
    {
        type            mixed;
        refValue        uniform 300;
        refGradient     uniform 0;
        valueFraction   uniform 0.991591;
        source          uniform 0;
        value           nonuniform List<scalar> 
400
(
300.027
300.027
300.028
300.029
300.03
300.031
300.032
300.032
300.033
300.034
300.034
300.035
300.036
300.036
300.037
300.037
300.038
300.038
300.038
300.038
300.027
300.028
300.029
300.03
300.03
300.032
300.032
300.033
300.034
300.035
300.035
300.036
300.037
300.037
300.037
300.038
300.038
300.038
300.039
300.038