/*--------------------------------*- C++ -*----------------------------------*\
| =========                 |                                                 |
| \\      /  F ield         | OpenFOAM: The Open Source CFD Toolbox           |
|  \\    /   O peration     | Version:  2212                                  |
|   \\  /    A nd           | Website:  www.openfoam.com                      |
|    \\/     M anipulation  |                                                 |
\*---------------------------------------------------------------------------*/
FoamFile
{
    version     2.0;
    format      ascii;
    arch        "LSB;label=32;scalar=64";
    class       volScalarField;
    location    "0";
    object      T;
}
// * * * * * * * * * * * * * * * * * * * * * * * * * * * * * * * * * * * * * //

dimensions      [0 0 0 1 0 0 0];

internalField   nonuniform List<scalar> 
3200
(
313.931
313.953
313.812
313.954
313.987
314.128
314.278
314.548
314.483
314.405
314.252
314.876
314.371
314.236
314.033
313.9
314.035
313.727
313.495
313.358
312.175
312.197
312.095
312.151
312.243
312.366
312.502
312.689
312.655
312.587
312.426
313.032
312.531
312.442
312.189
312.102
312.244
311.956
311.757
311.62
310.418
310.414
310.3
310.311
310.45
310.563
310.618
310.769
310.747
310.769
310.602
311.145
310.669
310.592
310.355
310.283
310.365
310.155
309.995
309.854
308.609
308.576
308.467
308.458
308.589
308.685
308.707
308.786
308.835
308.85
308.723
309.212
308.77
308.729
308.453
308.462
308.491
308.395
308.178
308.087
306.728
306.737
306.629
306.591
306.688
306.785
306.757
306.818
306.903
306.913
306.81
307.192
306.841
306.852
306.57
306.622
306.647
306.567
306.393
306.305
304.794
304.842
304.735
304.713
304.797
304.855
304.784
304.896
305.005
304.953
304.854
305.132
304.925
304.936
304.666
304.719
304.773
304.69
304.572
304.527
302.89
302.924
302.858
302.814
302.879
302.907
302.885
302.956
303.029
302.984
302.926
303.073
302.994
302.986
302.81
302.828
302.871
302.781
302.729
302.739
300.978
300.984
300.978
300.943
300.947
300.983
300.99
301.007
301.005
300.998
300.976
301.029
301.001
300.997
300.947
300.924
300.958
300.93
300.926
300.922
314.287
314.593
314.702
314.841
314.872
314.763
315.145
315.341
315.279
315.144
315.133
315.338
315.017
314.926
314.688
314.654
314.586
314.302
314.27
314.021
312.451
312.721
312.811
312.901
312.924
312.884
313.204
313.372
313.331
313.198
313.179
313.391
313.042
313.023
312.748
312.725
312.675
312.409
312.402
312.217
310.623
310.783
310.888
310.987
310.965
310.971
311.184
311.349
311.364
311.21
311.196
311.414
311.089
311.073
310.814
310.778
310.737
310.543
310.57
310.371
308.74
308.876
308.943
309.016
308.997
309.041
309.224
309.291
309.363
309.202
309.159
309.398
309.086
309.092
308.816
308.838
308.804
308.632
308.681
308.501
306.849
306.976
306.934
307.034
306.991
307.095
307.235
307.249
307.298
307.182
307.151
307.365
307.063
307.105
306.848
306.914
306.838
306.761
306.758
306.636
304.96
304.983
304.936
305.04
305
305.123
305.2
305.179
305.228
305.141
305.137
305.232
305.059
305.121
304.884
304.919
304.855
304.856
304.818
304.701
302.995
303.005
302.959
303.067
302.999
303.112
303.127
303.124
303.155
303.078
303.049
303.158
303.055
303.081
302.963
302.934
302.877
302.935
302.884
302.789
300.987
301.014
300.991
301.036
300.992
301.048
301.049
301.042
301.061
301.025
301.005
301.047
300.988
301.028
300.988
300.97
300.967
300.994
300.987
300.929
314.839
315.266
315.379
315.767
315.716
316.016
316.11
316.142
316.209
315.977
316.214
316.147
316.054
315.925
315.498
315.647
315.402
315.263
315.131
315.28
312.942
313.278
313.358
313.721
313.749
313.984
314.01
314.067
314.117
313.886
314.063
314.035
313.966
313.843
313.46
313.607
313.363
313.237
313.16
313.261
311.005
311.3
311.335
311.715
311.73
311.864
311.917
311.929
311.998
311.798
311.94
311.92
311.88
311.734
311.369
311.557
311.339
311.196
311.166
311.214
309.043
309.294
309.276
309.618
309.617
309.678
309.778
309.78
309.859
309.667
309.797
309.834
309.711
309.614
309.291
309.47
309.289
309.146
309.163
309.211
307.089
307.27
307.184
307.511
307.494
307.583
307.633
307.584
307.692
307.529
307.644
307.733
307.566
307.528
307.232
307.378
307.23
307.058
307.128
307.173
305.086
305.188
305.104
305.38
305.356
305.419
305.473
305.416
305.517
305.395
305.466
305.534
305.387
305.424
305.159
305.276
305.192
305.023
305.075
305.121
303.066
303.097
303.086
303.27
303.238
303.246
303.311
303.265
303.3
303.23
303.298
303.321
303.215
303.273
303.089
303.188
303.118
303.005
303.049
303.087
301.035
301.044
301.049
301.083
301.098
301.08
301.106
301.096
301.086
301.056
301.085
301.097
301.083
301.104
301.039
301.068
301.043
301.017
301.025
301.026
316.017
316.199
316.152
316.388
316.542
316.93
317.064
317.233
317.142
317.097
317.361
317.373
317.22
317.023
316.827
316.722
316.426
316.126
316.329
316.259
313.927
314.131
314.06
314.271
314.393
314.773
314.879
314.988
314.88
314.826
315.109
315.106
315.015
314.776
314.661
314.514
314.282
314.002
314.204
314.157
311.839
312.011
311.95
312.148
312.236
312.536
312.647
312.721
312.621
312.565
312.823
312.823
312.753
312.505
312.386
312.294
312.139
311.885
312.105
312.013
309.738
309.885
309.762
310
310.059
310.29
310.415
310.465
310.365
310.247
310.518
310.53
310.461
310.198
310.125
310.062
309.962
309.769
309.952
309.848
307.596
307.726
307.576
307.806
307.86
307.979
308.14
308.107
308.021
307.954
308.17
308.235
308.183
307.876
307.847
307.815
307.76
307.639
307.74
307.678
305.438
305.514
305.408
305.573
305.614
305.68
305.847
305.76
305.708
305.706
305.824
305.877
305.84
305.599
305.62
305.571
305.536
305.47
305.552
305.499
303.295
303.292
303.246
303.327
303.396
303.404
303.558
303.444
303.434
303.442
303.493
303.517
303.5
303.383
303.36
303.349
303.318
303.31
303.355
303.341
301.122
301.129
301.089
301.116
301.144
301.148
301.193
301.159
301.153
301.152
301.17
301.177
301.183
301.142
301.116
301.132
301.118
301.114
301.124
301.109
316.797
316.914
317.155
317.212
317.524
317.747
318.067
318.305
318.23
318.079
318.149
318.187
318.178
318.108
317.874
317.745
317.608
317.447
317.357
316.977
314.582
314.755
314.917
314.991
315.252
315.439
315.716
315.918
315.851
315.667
315.795
315.873
315.832
315.735
315.496
315.426
315.335
315.171
315.072
314.724
312.412
312.539
312.646
312.719
312.932
313.135
313.337
313.499
313.472
313.255
313.403
313.494
313.456
313.342
313.128
313.107
313.043
312.905
312.78
312.459
310.213
310.286
310.411
310.473
310.601
310.771
310.986
311.09
311.049
310.874
310.95
311.067
311.019
310.943
310.768
310.782
310.673
310.623
310.485
310.222
307.961
308.017
308.141
308.2
308.289
308.385
308.571
308.695
308.576
308.495
308.521
308.65
308.609
308.521
308.389
308.424
308.317
308.298
308.17
307.939
305.708
305.751
305.812
305.916
305.947
306.006
306.098
306.232
306.127
306.109
306.073
306.241
306.179
306.081
306.006
306.033
305.95
305.916
305.81
305.697
303.447
303.445
303.484
303.57
303.573
303.617
303.643
303.743
303.664
303.646
303.653
303.752
303.709
303.614
303.611
303.622
303.536
303.554
303.473
303.472
301.159
301.159
301.165
301.181
301.186
301.214
301.226
301.256
301.233
301.207
301.222
301.266
301.214
301.211
301.2
301.212
301.192
301.186
301.176
301.165
317.755
317.818
318.192
318.334
318.593
318.879
318.951
319.137
319.249
319.389
319.325
319.302
319.285
319.439
318.994
318.69
318.612
318.444
318.293
318.03
315.447
315.499
315.821
315.928
316.146
316.432
316.461
316.618
316.735
316.88
316.777
316.759
316.718
316.883
316.501
316.203
316.202
316.039
315.935
315.635
313.093
313.152
313.474
313.514
313.713
313.947
313.938
314.08
314.241
314.343
314.225
314.199
314.153
314.314
313.991
313.72
313.734
313.596
313.478
313.25
310.763
310.807
311.098
311.108
311.248
311.428
311.449
311.587
311.68
311.798
311.63
311.615
311.578
311.73
311.48
311.304
311.234
311.172
311.022
310.843
308.428
308.453
308.688
308.734
308.789
308.902
308.903
309.03
309.053
309.173
309.051
309.019
309.051
309.155
308.976
308.831
308.761
308.717
308.562
308.455
306.03
306.077
306.259
306.258
306.34
306.385
306.37
306.447
306.469
306.541
306.463
306.448
306.5
306.533
306.412
306.298
306.246
306.248
306.134
306.046
303.635
303.664
303.774
303.761
303.839
303.837
303.822
303.861
303.892
303.91
303.869
303.841
303.913
303.933
303.846
303.767
303.716
303.728
303.693
303.647
301.224
301.222
301.248
301.275
301.318
301.279
301.296
301.302
301.308
301.319
301.283
301.281
301.315
301.321
301.294
301.252
301.247
301.254
301.23
301.221
318.863
319.011
319.223
319.599
319.659
319.848
320.113
320.046
320.25
320.583
320.546
320.526
320.209
320.567
320.07
319.937
319.734
319.78
319.452
318.992
316.395
316.504
316.676
317.018
317.111
317.247
317.511
317.439
317.614
317.883
317.871
317.872
317.555
317.919
317.472
317.338
317.125
317.146
316.868
316.449
313.896
313.997
314.147
314.418
314.548
314.579
314.877
314.81
314.935
315.2
315.155
315.125
314.877
315.243
314.828
314.737
314.5
314.553
314.261
313.929
311.399
311.518
311.599
311.864
311.937
311.943
312.214
312.13
312.193
312.454
312.403
312.382
312.199
312.555
312.178
312.067
311.886
311.936
311.672
311.369
308.889
308.995
309.063
309.288
309.333
309.33
309.471
309.438
309.484
309.686
309.661
309.65
309.509
309.811
309.459
309.414
309.307
309.301
309.085
308.844
306.351
306.481
306.511
306.638
306.729
306.714
306.775
306.757
306.755
306.937
306.943
306.957
306.786
307.032
306.762
306.751
306.698
306.657
306.47
306.298
303.805
303.914
303.927
303.972
304.088
304.065
304.093
304.071
304.037
304.139
304.207
304.214
304.041
304.262
304.099
304.069
304.032
304.007
303.895
303.779
301.271
301.331
301.326
301.338
301.366
301.377
301.379
301.374
301.365
301.383
301.427
301.394
301.359
301.438
301.381
301.352
301.359
301.35
301.288
301.27
319.537
319.785
320.029
320.627
320.531
320.942
321.042
321.124
321.284
321.427
321.617
321.591
321.512
321.522
321.443
321.133
320.74
320.831
320.372
319.814
316.986
317.225
317.409
317.908
317.84
318.208
318.315
318.349
318.457
318.631
318.795
318.767
318.66
318.737
318.644
318.346
317.975
318.096
317.684
317.199
314.413
314.628
314.758
315.188
315.143
315.495
315.563
315.557
315.633
315.833
315.929
315.954
315.851
315.91
315.788
315.556
315.246
315.351
314.956
314.558
311.841
312.024
312.106
312.444
312.495
312.72
312.754
312.781
312.789
312.96
313.055
313.106
313.026
313.052
312.891
312.779
312.47
312.533
312.25
311.918
309.236
309.369
309.451
309.742
309.793
309.932
309.956
309.991
309.949
310.114
310.196
310.176
310.137
310.15
310.016
309.984
309.681
309.725
309.578
309.253
306.609
306.669
306.746
306.969
307.026
307.123
307.092
307.144
307.084
307.273
307.316
307.304
307.239
307.272
307.142
307.123
306.888
306.934
306.851
306.621
303.953
304.001
304.08
304.21
304.235
304.265
304.253
304.293
304.261
304.403
304.404
304.377
304.333
304.346
304.285
304.264
304.139
304.141
304.109
303.971
301.332
301.353
301.345
301.436
301.406
301.432
301.411
301.432
301.417
301.491
301.482
301.442
301.432
301.46
301.445
301.42
301.39
301.384
301.363
301.334
320.163
320.624
320.87
321.657
321.737
321.996
322.115
322.534
322.273
322.279
322.506
322.677
322.594
322.559
322.502
322.337
321.901
321.735
321.263
320.973
317.516
317.904
318.164
318.83
318.894
319.149
319.225
319.541
319.373
319.387
319.542
319.697
319.675
319.605
319.544
319.402
318.999
318.898
318.477
318.165
314.905
315.177
315.428
315.977
316.016
316.286
316.29
316.556
316.419
316.482
316.6
316.694
316.713
316.66
316.565
316.443
316.049
316.033
315.681
315.355
312.268
312.474
312.667
313.07
313.141
313.376
313.303
313.557
313.484
313.508
313.624
313.665
313.711
313.677
313.574
313.483
313.123
313.126
312.84
312.577
309.58
309.72
309.86
310.16
310.205
310.444
310.331
310.557
310.511
310.579
310.655
310.658
310.648
310.669
310.597
310.511
310.207
310.204
310.046
309.794
306.877
306.98
307.063
307.268
307.294
307.528
307.386
307.531
307.522
307.575
307.629
307.596
307.631
307.653
307.559
307.513
307.287
307.263
307.209
306.982
304.126
304.198
304.251
304.364
304.385
304.532
304.434
304.52
304.531
304.568
304.603
304.555
304.599
304.624
304.533
304.493
304.411
304.335
304.339
304.16
301.398
301.405
301.426
301.486
301.46
301.539
301.503
301.496
301.501
301.514
301.548
301.526
301.551
301.568
301.509
301.511
301.501
301.444
301.454
301.384
321.083
321.415
321.856
322.471
322.562
322.919
323.184
323.542
323.341
323.399
323.677
323.514
323.509
323.529
323.208
323.27
322.744
322.538
322.384
322.115
318.369
318.632
318.953
319.534
319.6
319.903
320.153
320.425
320.271
320.34
320.582
320.413
320.441
320.485
320.17
320.21
319.759
319.555
319.44
319.148
315.611
315.85
316.093
316.569
316.652
316.872
317.123
317.271
317.211
317.272
317.508
317.309
317.34
317.404
317.109
317.191
316.756
316.575
316.475
316.211
312.847
313.028
313.225
313.556
313.669
313.84
314.045
314.107
314.142
314.181
314.365
314.181
314.174
314.282
314.007
314.171
313.787
313.592
313.482
313.232
310.043
310.173
310.336
310.558
310.655
310.785
310.935
310.931
311.023
311.042
311.216
311.092
311.036
311.157
310.882
311.036
310.782
310.581
310.479
310.289
307.199
307.275
307.4
307.554
307.601
307.697
307.821
307.808
307.898
307.918
308.036
307.943
307.874
308.003
307.794
307.905
307.74
307.578
307.469
307.322
304.33
304.362
304.454
304.559
304.561
304.633
304.707
304.697
304.739
304.774
304.795
304.8
304.724
304.841
304.686
304.763
304.672
304.563
304.505
304.403
301.473
301.471
301.501
301.545
301.52
301.553
301.589
301.588
301.594
301.601
301.604
301.631
301.571
301.621
301.579
301.608
301.579
301.529
301.526
301.484
321.95
322.342
322.628
323.205
323.404
323.924
324.047
324.521
324.462
324.436
324.723
324.712
324.655
324.414
324.252
324.171
323.864
323.549
323.29
322.859
319.113
319.421
319.632
320.164
320.33
320.789
320.906
321.294
321.266
321.304
321.507
321.46
321.426
321.258
321.079
320.968
320.735
320.368
320.23
319.899
316.237
316.451
316.574
317.1
317.218
317.562
317.666
318.048
318.05
318.125
318.286
318.217
318.184
318.031
317.863
317.758
317.613
317.247
317.131
316.848
313.355
313.46
313.574
314.046
314.075
314.374
314.473
314.791
314.823
314.932
315.011
314.963
314.886
314.745
314.699
314.554
314.469
314.118
313.979
313.796
310.419
310.417
310.594
310.968
310.946
311.187
311.282
311.538
311.588
311.66
311.703
311.641
311.579
311.444
311.449
311.382
311.278
310.984
310.84
310.744
307.484
307.442
307.606
307.818
307.842
307.996
308.071
308.265
308.298
308.397
308.358
308.323
308.292
308.142
308.2
308.14
308.076
307.861
307.739
307.647
304.484
304.467
304.564
304.67
304.685
304.802
304.854
304.985
304.985
305.046
305.025
304.992
304.974
304.873
304.925
304.893
304.849
304.739
304.699
304.583
301.51
301.487
301.525
301.579
301.564
301.618
301.625
301.68
301.674
301.702
301.677
301.666
301.669
301.643
301.67
301.663
301.613
301.587
301.592
301.55
322.735
323.357
323.492
323.952
324.357
324.691
325.057
325.3
325.58
325.425
325.63
325.618
325.633
325.669
325.296
325.052
324.748
324.481
324.044
323.793
319.808
320.385
320.414
320.818
321.195
321.418
321.782
322.063
322.248
322.109
322.231
322.213
322.232
322.294
321.944
321.796
321.488
321.278
320.884
320.657
316.822
317.304
317.326
317.665
317.961
318.171
318.5
318.785
318.833
318.752
318.84
318.862
318.82
318.883
318.555
318.474
318.223
318.053
317.695
317.529
313.792
314.187
314.232
314.501
314.729
314.886
315.21
315.43
315.428
315.419
315.435
315.444
315.461
315.447
315.198
315.137
314.948
314.795
314.49
314.365
310.739
311.05
311.097
311.292
311.444
311.584
311.878
312.063
312.01
312.006
312.019
312.02
312.04
312.047
311.83
311.808
311.639
311.508
311.301
311.178
307.719
307.906
307.979
308.102
308.191
308.301
308.484
308.642
308.608
308.56
308.622
308.591
308.625
308.649
308.472
308.434
308.342
308.233
308.099
308.002
304.643
304.747
304.808
304.849
304.919
304.994
305.07
305.208
305.164
305.124
305.182
305.162
305.188
305.183
305.087
305.096
305.018
304.918
304.882
304.819
301.553
301.599
301.62
301.631
301.655
301.666
301.676
301.737
301.738
301.692
301.736
301.72
301.742
301.737
301.698
301.725
301.695
301.652
301.65
301.638
323.454
324.055
324.441
324.87
325.092
325.456
326.009
326.257
326.538
326.458
326.491
326.585
326.545
326.607
326.114
326.004
325.853
325.363
324.746
324.718
320.381
320.882
321.273
321.614
321.825
322.151
322.596
322.848
323.054
322.992
323.007
323.04
323.03
323.121
322.673
322.57
322.417
322.001
321.474
321.467
317.313
317.733
318.029
318.36
318.521
318.812
319.214
319.415
319.569
319.459
319.474
319.508
319.503
319.594
319.181
319.115
318.929
318.651
318.208
318.185
314.221
314.561
314.796
315.063
315.176
315.461
315.792
315.969
316.032
315.898
315.948
315.972
315.891
316.028
315.724
315.663
315.472
315.303
314.933
314.862
311.112
311.393
311.542
311.728
311.818
312.137
312.33
312.479
312.434
312.366
312.426
312.44
312.317
312.472
312.269
312.184
312.051
311.938
311.614
311.566
307.938
308.158
308.253
308.413
308.462
308.725
308.844
308.981
308.865
308.786
308.9
308.902
308.785
308.938
308.788
308.726
308.593
308.513
308.303
308.241
304.73
304.882
304.96
305.069
305.098
305.231
305.318
305.395
305.301
305.23
305.381
305.362
305.277
305.403
305.282
305.276
305.15
305.118
304.976
304.976
301.576
301.631
301.664
301.712
301.703
301.752
301.786
301.814
301.782
301.742
301.803
301.783
301.788
301.799
301.765
301.767
301.709
301.72
301.67
301.66
324.207
324.714
325.095
325.831
325.955
326.536
326.75
327.235
327.46
327.272
327.298
327.309
327.392
327.161
327.298
326.936
326.652
326.141
325.724
325.279
321.043
321.499
321.816
322.465
322.551
323.077
323.274
323.662
323.888
323.707
323.721
323.704
323.759
323.581
323.738
323.375
323.124
322.664
322.372
321.952
317.901
318.219
318.531
319.076
319.12
319.583
319.772
320.063
320.256
320.096
320.097
320.11
320.183
319.992
320.106
319.788
319.589
319.193
318.995
318.612
314.688
314.942
315.199
315.641
315.691
316.101
316.25
316.421
316.6
316.424
316.489
316.52
316.601
316.42
316.458
316.189
316.07
315.76
315.528
315.219
311.453
311.642
311.825
312.226
312.215
312.6
312.627
312.781
312.91
312.788
312.868
312.905
312.951
312.759
312.789
312.584
312.535
312.295
312.085
311.85
308.232
308.339
308.44
308.749
308.716
308.997
309.031
309.13
309.215
309.148
309.246
309.225
309.234
309.161
309.178
309.001
309.003
308.807
308.626
308.472
304.985
305.029
305.065
305.273
305.262
305.415
305.438
305.474
305.532
305.501
305.568
305.561
305.546
305.537
305.512
305.437
305.409
305.278
305.179
305.082
301.683
301.684
301.69
301.773
301.762
301.811
301.821
301.819
301.842
301.847
301.876
301.853
301.849
301.883
301.838
301.846
301.819
301.77
301.739
301.72
324.914
325.401
325.833
326.509
326.857
327.343
327.397
327.743
328.115
328.254
328.278
328.22
328.18
327.994
328.103
327.762
327.435
327.01
326.613
326.07
321.693
322.106
322.494
323.074
323.308
323.738
323.802
324.088
324.438
324.546
324.549
324.513
324.47
324.286
324.395
324.157
323.804
323.472
323.106
322.614
318.411
318.809
319.12
319.609
319.731
320.139
320.187
320.419
320.734
320.784
320.822
320.818
320.729
320.59
320.638
320.509
320.161
319.845
319.582
319.244
315.104
315.478
315.712
316.108
316.126
316.54
316.598
316.758
316.991
317.033
317.095
317.125
316.978
316.893
316.907
316.774
316.522
316.273
316.051
315.788
311.77
312.115
312.246
312.567
312.535
312.898
312.933
313.063
313.265
313.273
313.335
313.364
313.227
313.137
313.187
313.049
312.868
312.702
312.542
312.299
308.472
308.704
308.797
309.002
308.94
309.247
309.225
309.33
309.521
309.513
309.528
309.578
309.477
309.402
309.43
309.344
309.212
309.093
309.022
308.798
305.133
305.249
305.286
305.437
305.356
305.574
305.543
305.617
305.687
305.741
305.699
305.749
305.681
305.626
305.671
305.611
305.57
305.48
305.444
305.32
301.725
301.774
301.766
301.83
301.812
301.863
301.87
301.885
301.897
301.915
301.912
301.934
301.908
301.868
301.878
301.883
301.87
301.847
301.811
301.794
325.66
326.045
326.523
327.319
327.347
327.935
328.366
328.604
328.876
328.718
329.034
329.015
328.861
328.888
328.741
328.569
328.301
327.706
327.304
326.87
322.333
322.654
323.028
323.741
323.763
324.252
324.646
324.839
325.1
324.949
325.178
325.204
325.068
325.035
324.924
324.795
324.574
324.02
323.681
323.334
318.945
319.238
319.504
320.133
320.175
320.538
320.868
321.064
321.267
321.165
321.356
321.367
321.244
321.145
321.142
321.012
320.791
320.299
320.079
319.799
315.545
315.8
315.971
316.526
316.52
316.777
317.112
317.221
317.42
317.36
317.49
317.504
317.375
317.303
317.319
317.2
317.006
316.541
316.463
316.193
312.071
312.334
312.456
312.891
312.867
313.032
313.329
313.4
313.568
313.497
313.63
313.596
313.55
313.41
313.487
313.404
313.206
312.848
312.826
312.603
308.658
308.824
308.959
309.253
309.189
309.314
309.551
309.581
309.678
309.632
309.72
309.682
309.703
309.54
309.622
309.612
309.409
309.194
309.206
309.034
305.21
305.319
305.419
305.54
305.495
305.598
305.752
305.767
305.789
305.733
305.852
305.78
305.839
305.708
305.809
305.784
305.654
305.511
305.54
305.468
301.753
301.789
301.816
301.873
301.858
301.87
301.929
301.936
301.951
301.903
301.974
301.937
301.965
301.925
301.949
301.936
301.894
301.84
301.849
301.843
326.324
326.7
327.268
327.762
328.242
328.797
328.973
329.129
329.656
329.795
329.665
329.872
329.873
329.696
329.557
329.217
328.764
328.331
327.907
327.44
322.892
323.194
323.696
324.174
324.505
325.026
325.183
325.305
325.77
325.883
325.755
325.906
325.925
325.78
325.675
325.347
324.947
324.567
324.261
323.799
319.451
319.663
320.111
320.525
320.786
321.231
321.33
321.457
321.88
321.912
321.811
321.955
321.993
321.815
321.792
321.45
321.114
320.831
320.617
320.183
315.965
316.185
316.512
316.852
317.044
317.408
317.449
317.571
317.924
317.939
317.888
318.019
318.017
317.882
317.87
317.576
317.256
317.085
316.911
316.609
312.395
312.609
312.839
313.143
313.278
313.536
313.577
313.672
313.968
313.953
313.893
314.054
314.057
313.921
313.944
313.701
313.419
313.284
313.188
312.928
308.841
309.05
309.142
309.388
309.532
309.675
309.691
309.789
309.988
309.974
309.943
310.053
310.031
309.971
309.984
309.837
309.598
309.508
309.421
309.241
305.321
305.457
305.498
305.658
305.722
305.813
305.84
305.875
305.998
306.008
305.969
306.061
306.042
305.976
305.982
305.926
305.788
305.713
305.68
305.576
301.763
301.835
301.848
301.896
301.922
301.929
301.966
301.965
302.015
302.009
301.999
302.036
302.036
302.013
302.014
301.986
301.935
301.901
301.905
301.884
326.626
327.179
327.747
328.201
328.927
329.222
329.68
329.823
330.076
330.175
330.152
330.362
330.361
330.183
330.015
329.862
329.064
329.001
328.523
327.887
323.197
323.67
324.105
324.511
325.134
325.358
325.747
325.91
326.092
326.181
326.148
326.357
326.343
326.22
326.012
325.89
325.163
325.146
324.789
324.203
319.68
320.08
320.438
320.83
321.309
321.518
321.847
321.981
322.123
322.171
322.143
322.362
322.297
322.29
322.048
321.941
321.314
321.262
321.013
320.504
316.16
316.462
316.76
317.109
317.457
317.65
317.921
318.029
318.181
318.193
318.117
318.357
318.24
318.305
318.091
318.038
317.448
317.423
317.189
316.791
312.6
312.832
313.084
313.413
313.637
313.798
313.995
314.086
314.192
314.181
314.095
314.337
314.222
314.267
314.098
314.088
313.571
313.565
313.382
313.065
308.99
309.17
309.353
309.622
309.796
309.859
310.038
310.062
310.151
310.144
310.034
310.27
310.208
310.199
310.091
310.099
309.685
309.718
309.591
309.351
305.375
305.512
305.611
305.809
305.886
305.932
306.04
306.054
306.122
306.066
306.039
306.158
306.149
306.127
306.063
306.072
305.81
305.831
305.775
305.602
301.809
301.852
301.896
301.949
301.979
301.981
302.024
302.052
302.045
302.041
302.031
302.051
302.075
302.042
302.056
302.034
301.948
301.954
301.942
301.869
327.067
327.304
328.083
328.589
329.364
329.811
330.209
330.13
330.515
330.51
330.595
331.008
330.772
330.743
330.507
330.222
329.704
329.564
329.112
328.591
323.558
323.737
324.385
324.838
325.531
325.892
326.265
326.168
326.475
326.444
326.544
326.925
326.704
326.703
326.481
326.261
325.75
325.65
325.249
324.799
320.031
320.178
320.703
321.043
321.649
321.95
322.284
322.165
322.399
322.394
322.512
322.82
322.609
322.652
322.438
322.259
321.831
321.711
321.378
321.033
316.417
316.535
316.934
317.287
317.718
317.97
318.27
318.165
318.34
318.365
318.448
318.708
318.51
318.574
318.394
318.222
317.933
317.758
317.507
317.241
312.813
312.878
313.177
313.493
313.798
314.011
314.207
314.141
314.228
314.321
314.342
314.555
314.421
314.501
314.319
314.21
314.029
313.81
313.619
313.38
309.163
309.201
309.421
309.673
309.873
310.033
310.163
310.133
310.169
310.275
310.228
310.409
310.312
310.383
310.229
310.152
310.066
309.845
309.723
309.574
305.526
305.543
305.677
305.81
305.949
306.038
306.11
306.117
306.106
306.182
306.133
306.26
306.212
306.262
306.14
306.099
306.054
305.91
305.849
305.753
301.876
301.866
301.922
301.921
301.988
302.036
302.044
302.063
302.037
302.081
302.033
302.094
302.084
302.097
302.049
302.043
302.031
301.979
301.962
301.916
327.302
327.4
328.473
328.787
329.55
329.979
330.643
330.485
330.861
331.044
331.122
331.456
331.138
331.081
330.819
330.584
330.257
329.986
329.492
328.913
323.726
323.736
324.721
324.987
325.696
326.04
326.658
326.478
326.757
326.913
327.014
327.296
326.983
326.92
326.712
326.512
326.209
326.001
325.619
325.081
320.14
320.112
320.975
321.164
321.821
322.053
322.595
322.454
322.693
322.781
322.919
323.117
322.823
322.743
322.612
322.46
322.137
321.99
321.718
321.272
316.54
316.501
317.21
317.359
317.921
318.038
318.572
318.417
318.607
318.642
318.78
318.941
318.675
318.587
318.502
318.418
318.105
318.016
317.784
317.453
312.887
312.872
313.412
313.552
313.977
314.038
314.495
314.356
314.505
314.489
314.628
314.76
314.532
314.445
314.392
314.372
314.098
314.032
313.884
313.656
309.263
309.211
309.597
309.687
309.976
309.987
310.376
310.246
310.382
310.301
310.442
310.546
310.396
310.313
310.266
310.33
310.099
310.033
309.925
309.829
305.56
305.521
305.759
305.833
305.986
306.008
306.237
306.142
306.246
306.163
306.256
306.313
306.26
306.166
306.146
306.232
306.097
306.024
305.996
305.932
301.877
301.829
301.947
301.943
301.98
302.044
302.103
302.064
302.078
302.04
302.092
302.108
302.092
302.06
302.065
302.112
302.029
302.027
302.011
301.982
)
;

boundaryField
{
    hotSide
    {
        type            fixedGradient;
        gradient        nonuniform List<scalar> 
400
(
132.992
142.474
152.022
161.595
171.149
180.639
190.019
199.245
208.269
217.047
225.532
233.682
241.454
248.806
255.701
262.103
267.978
273.297
278.031
282.16
135.012
144.817
154.695
164.603
174.497
184.33
194.055
203.625
212.991
222.106
230.924
239.399
247.486
255.144
262.332
269.013
275.152
280.718
285.682
290.021
136.745
146.852
157.04
167.264
177.478
187.634
197.683
207.577
217.266
226.7
235.832
244.615
253.001
260.949
268.415
275.361
281.751
287.553
292.737
297.277
138.209
148.596
159.071
169.588
180.099
190.555
200.907
211.103
221.092
230.824
240.25
249.32
257.986
266.205
273.932
281.127
287.754
293.777
299.167
303.898
139.422
150.065
160.803
171.588
182.371
193.103
203.732
214.205
224.471
234.477
244.173
253.507
262.432
270.9
278.868
286.294
293.139
299.368
304.95
309.858
140.403
151.276
162.25
173.277
184.306
195.286
206.165
216.888
227.404
237.658
247.597
257.171
266.33
275.025
283.212
290.846
297.89
304.306
310.063
315.132
141.171
152.247
163.429
174.669
185.914
197.113
208.212
219.157
229.893
240.366
250.522
260.308
269.674
278.57
286.95
294.77
301.99
308.573
314.485
319.698
141.743
152.992
164.352
175.774
187.205
198.592
209.88
221.015
231.941
242.602
252.943
262.912
272.456
281.525
290.072
298.053
305.425
312.152
318.199
323.537
142.131
153.523
165.03
176.602
188.186
199.728
211.172
222.464
233.546
244.362
254.857
264.977
274.669
283.882
292.567
300.68
308.179
315.025
321.184
326.626
142.347
153.849
165.47
177.158
188.861
200.523
212.089
223.503
234.706
245.644
256.259
266.497
276.303
285.628
294.422
302.639
310.237
317.176
323.423
328.947
142.394
153.974
165.674
177.444
189.23
200.977
212.628
224.128
235.417
246.44
257.14
267.46
277.349
286.753
295.623
303.914
311.582
318.588
324.898
330.479
142.275
153.898
165.643
177.458
189.291
201.085
212.785
224.333
235.671
246.742
257.49
267.858
277.793
287.242
296.156
304.49
312.198
319.243
325.589
331.205
141.986
153.616
165.369
177.193
189.035
200.839
212.549
224.107
235.456
246.538
257.296
267.676
277.621
287.081
296.007
304.35
312.07
319.125
325.481
331.106
141.517
153.119
164.844
176.64
188.453
200.229
211.91
223.44
234.76
245.815
256.546
266.9
276.82
286.256
295.158
303.481
311.18
318.216
324.555
330.165
140.856
152.395
164.055
175.784
187.531
199.239
210.853
222.315
233.569
244.558
255.225
265.515
275.374
284.751
293.597
301.866
309.514
316.503
322.799
328.369
139.988
151.427
162.985
174.611
186.252
197.855
209.362
220.719
231.868
242.753
253.317
263.508
273.27
282.553
291.309
299.492
307.06
313.974
320.199
325.706
138.895
150.198
161.617
173.102
184.601
196.059
207.423
218.635
229.641
240.384
250.81
260.864
270.495
279.651
288.284
296.351
303.809
310.62
316.75
322.169
137.557
148.69
159.934
171.241
182.56
193.837
205.019
216.05
226.876
237.441
247.692
257.575
267.04
276.035
284.515
292.436
299.755
306.437
312.448
317.757
135.955
146.882
157.917
169.011
180.114
191.174
202.138
212.951
223.561
233.914
243.955
253.634
262.9
271.704
280
287.746
294.901
301.429
307.297
312.476
134.071
144.76
155.551
166.397
177.25
188.058
198.769
209.331
219.691
229.797
239.597
249.039
258.076
266.659
274.744
282.288
289.254
295.604
301.308
306.338
)
;
    }
    coldSide
    {
        type            mixed;
        refValue        uniform 300;
        refGradient     uniform 0;
        valueFraction   uniform 0.991591;
        source          uniform 0;
        value           nonuniform List<scalar> 
400
(
300.008
300.008
300.009
300.009
300.01
300.01
300.011
300.011
300.012
300.012
300.013
300.013
300.013
300.014
300.015
300.015
300.015
300.015
300.016
300.016
300.008
300.009
300.009
300.009
300.01
300.01
300.011
300.011
300.012
300.012
300.013
300.013
300.014
300.014
300.015
300.015
300.015
300.016
300.016
300.015