/*--------------------------------*- C++ -*----------------------------------*\
| =========                 |                                                 |
| \\      /  F ield         | OpenFOAM: The Open Source CFD Toolbox           |
|  \\    /   O peration     | Version:  2212                                  |
|   \\  /    A nd           | Website:  www.openfoam.com                      |
|    \\/     M anipulation  |                                                 |
\*---------------------------------------------------------------------------*/
FoamFile
{
    version     2.0;
    format      ascii;
    arch        "LSB;label=32;scalar=64";
    class       volScalarField;
    location    "0";
    object      T;
}
// * * * * * * * * * * * * * * * * * * * * * * * * * * * * * * * * * * * * * //

dimensions      [0 0 0 1 0 0 0];

internalField   nonuniform List<scalar> 
3200
(
320.038
320.52
320.766
321.228
321.492
321.695
321.941
322.074
322.023
322.14
321.977
322.461
322.121
321.873
321.947
321.481
321.131
320.683
320.558
320.171
317.391
317.729
317.95
318.37
318.614
318.771
319.029
319.132
319.058
319.122
318.986
319.458
319.137
318.954
319.001
318.584
318.253
317.874
317.758
317.449
314.677
314.986
315.153
315.52
315.699
315.871
316.088
316.176
316.076
316.118
316.049
316.396
316.201
315.99
316.072
315.695
315.41
315.103
314.969
314.749
312.003
312.285
312.398
312.689
312.821
312.992
313.145
313.259
313.127
313.13
313.071
313.351
313.239
313.039
313.149
312.808
312.575
312.343
312.209
312.076
309.319
309.567
309.603
309.87
309.965
310.125
310.211
310.318
310.197
310.154
310.118
310.342
310.272
310.082
310.214
309.922
309.764
309.591
309.453
309.405
306.652
306.857
306.822
307.073
307.096
307.24
307.276
307.348
307.272
307.225
307.202
307.339
307.322
307.151
307.284
307.052
306.955
306.857
306.708
306.71
304.003
304.147
304.083
304.245
304.266
304.367
304.358
304.38
304.335
304.343
304.323
304.391
304.377
304.255
304.364
304.252
304.165
304.136
304.029
304.021
301.35
301.401
301.375
301.422
301.44
301.453
301.452
301.47
301.453
301.461
301.474
301.478
301.443
301.437
301.463
301.44
301.391
301.381
301.359
301.339
320.618
321.164
321.4
321.856
322.387
322.485
322.865
322.881
322.931
323.103
322.962
323.222
322.953
322.766
322.615
322.216
321.89
321.736
321.316
320.771
317.793
318.3
318.48
318.879
319.319
319.365
319.729
319.798
319.826
319.95
319.787
320.024
319.875
319.717
319.543
319.152
318.883
318.771
318.43
317.928
315.025
315.449
315.571
315.915
316.24
316.306
316.606
316.7
316.779
316.83
316.676
316.869
316.778
316.685
316.512
316.087
315.866
315.843
315.536
315.14
312.275
312.631
312.704
313.015
313.193
313.286
313.535
313.591
313.735
313.716
313.609
313.744
313.731
313.659
313.463
313.071
312.95
312.913
312.623
312.368
309.527
309.824
309.849
310.119
310.238
310.279
310.512
310.501
310.658
310.645
310.557
310.67
310.663
310.59
310.457
310.123
310.068
310.018
309.739
309.637
306.836
307.019
307.008
307.18
307.274
307.308
307.483
307.438
307.59
307.636
307.516
307.594
307.611
307.556
307.458
307.224
307.191
307.134
306.897
306.883
304.113
304.22
304.199
304.277
304.333
304.396
304.485
304.416
304.564
304.562
304.515
304.578
304.582
304.537
304.475
304.334
304.292
304.286
304.109
304.083
301.369
301.427
301.401
301.436
301.442
301.477
301.505
301.464
301.544
301.52
301.501
301.562
301.547
301.534
301.494
301.47
301.438
301.45
301.382
301.351
321.713
322.258
322.699
323.104
323.578
323.624
324.013
323.924
324.042
324.19
324.075
324.202
324.109
323.977
323.673
323.339
323.05
322.767
322.359
321.8
318.75
319.205
319.56
319.911
320.373
320.369
320.725
320.651
320.724
320.835
320.766
320.842
320.787
320.705
320.402
320.147
319.872
319.615
319.279
318.777
315.845
316.178
316.501
316.761
317.177
317.166
317.494
317.42
317.428
317.533
317.519
317.518
317.51
317.462
317.214
316.973
316.768
316.506
316.251
315.796
312.937
313.162
313.474
313.666
313.964
313.986
314.286
314.214
314.155
314.314
314.321
314.281
314.303
314.227
314.005
313.853
313.692
313.417
313.232
312.808
310.036
310.218
310.466
310.607
310.818
310.861
311.059
310.98
311
311.068
311.165
311.104
311.088
311.076
310.8
310.707
310.671
310.428
310.249
309.876
307.173
307.308
307.456
307.549
307.735
307.734
307.865
307.79
307.877
307.859
308
307.931
307.907
307.87
307.677
307.632
307.651
307.444
307.311
307.003
304.303
304.422
304.499
304.528
304.632
304.663
304.702
304.634
304.74
304.708
304.802
304.789
304.748
304.707
304.582
304.587
304.632
304.488
304.374
304.191
301.421
301.478
301.49
301.52
301.521
301.569
301.55
301.547
301.609
301.574
301.61
301.6
301.608
301.612
301.517
301.536
301.541
301.509
301.46
301.391
322.904
323.297
323.798
324.251
324.74
325.008
325.154
325.189
325.186
325.521
325.645
325.344
325.283
325.191
324.908
324.73
324.271
323.852
323.321
322.994
319.749
320.105
320.56
320.962
321.349
321.568
321.678
321.714
321.702
322.05
322.145
321.815
321.821
321.717
321.454
321.338
320.939
320.556
320.119
319.848
316.624
316.954
317.357
317.716
318.005
318.163
318.293
318.287
318.269
318.587
318.675
318.382
318.409
318.28
318.041
318.006
317.678
317.322
316.963
316.731
313.54
313.815
314.159
314.498
314.685
314.781
314.927
314.895
314.909
315.167
315.213
314.971
314.984
314.857
314.672
314.699
314.455
314.123
313.858
313.62
310.501
310.716
310.954
311.285
311.402
311.45
311.544
311.517
311.545
311.756
311.811
311.58
311.631
311.472
311.334
311.366
311.239
310.947
310.76
310.547
307.479
307.61
307.815
308.066
308.145
308.181
308.252
308.202
308.197
308.368
308.466
308.223
308.247
308.187
308.057
308.106
308.024
307.831
307.637
307.494
304.497
304.531
304.684
304.839
304.914
304.918
304.958
304.893
304.924
305.036
305.068
304.92
304.934
304.902
304.816
304.854
304.826
304.683
304.551
304.502
301.51
301.514
301.571
301.623
301.646
301.627
301.685
301.649
301.647
301.687
301.68
301.653
301.649
301.637
301.609
301.626
301.609
301.579
301.536
301.499
324.207
324.62
325.047
325.517
325.932
325.999
326.304
326.47
326.723
326.768
326.666
326.612
326.54
326.389
326.104
326.051
325.568
325.18
324.592
324.052
320.902
321.274
321.656
322.02
322.405
322.428
322.682
322.861
322.996
323.119
323.054
322.947
322.904
322.789
322.554
322.488
322.046
321.746
321.219
320.754
317.57
317.949
318.241
318.611
318.908
318.906
319.091
319.289
319.346
319.515
319.441
319.339
319.298
319.179
319.066
318.962
318.582
318.33
317.903
317.483
314.314
314.625
314.921
315.203
315.424
315.424
315.536
315.714
315.75
315.895
315.865
315.752
315.731
315.625
315.579
315.479
315.171
314.929
314.585
314.219
311.125
311.339
311.605
311.793
311.947
311.972
312.021
312.198
312.228
312.33
312.347
312.186
312.191
312.132
312.082
311.964
311.785
311.595
311.359
311.007
307.923
308.066
308.296
308.367
308.518
308.527
308.568
308.711
308.727
308.816
308.805
308.669
308.673
308.665
308.589
308.507
308.408
308.262
308.105
307.858
304.757
304.794
304.988
305.018
305.123
305.103
305.138
305.248
305.221
305.319
305.278
305.202
305.223
305.191
305.102
305.098
305.031
304.953
304.828
304.733
301.584
301.597
301.669
301.694
301.71
301.705
301.696
301.769
301.754
301.807
301.777
301.738
301.741
301.733
301.703
301.71
301.693
301.672
301.609
301.581
325.148
325.638
326.316
326.81
327.063
327.087
327.709
327.868
327.989
327.865
327.907
328.052
327.829
327.58
327.447
327.248
326.733
326.413
325.654
325.039
321.713
322.154
322.73
323.125
323.336
323.336
323.885
324.042
324.13
324.045
324.078
324.175
324.016
323.814
323.682
323.484
323.047
322.771
322.065
321.603
318.357
318.684
319.144
319.451
319.658
319.624
320.135
320.263
320.321
320.267
320.308
320.321
320.252
320.063
319.955
319.796
319.382
319.194
318.561
318.212
315.004
315.222
315.632
315.866
315.992
315.989
316.388
316.536
316.53
316.578
316.556
316.527
316.532
316.314
316.239
316.164
315.787
315.653
315.119
314.818
311.687
311.819
312.151
312.344
312.35
312.344
312.656
312.814
312.821
312.853
312.819
312.768
312.821
312.657
312.608
312.487
312.247
312.163
311.728
311.467
308.343
308.442
308.703
308.79
308.767
308.809
309.028
309.11
309.178
309.187
309.144
309.062
309.125
309.068
309.021
308.88
308.734
308.678
308.369
308.204
304.984
305.077
305.229
305.274
305.254
305.256
305.438
305.49
305.464
305.538
305.462
305.427
305.498
305.429
305.432
305.297
305.257
305.19
305.055
304.914
301.662
301.714
301.754
301.767
301.755
301.732
301.828
301.844
301.831
301.878
301.825
301.813
301.856
301.792
301.808
301.774
301.765
301.713
301.705
301.639
326.381
326.628
327.422
327.766
328.114
328.373
328.664
328.883
329.08
329.265
329.246
329.309
329.24
328.83
328.646
328.354
327.919
327.615
326.758
326.243
322.783
323.027
323.638
323.953
324.269
324.454
324.762
324.916
325.136
325.235
325.203
325.275
325.23
324.831
324.714
324.49
324.096
323.783
323.079
322.597
319.226
319.42
319.921
320.183
320.435
320.56
320.862
320.991
321.171
321.255
321.209
321.302
321.277
320.919
320.817
320.641
320.241
320.039
319.465
319.056
315.652
315.851
316.22
316.443
316.613
316.735
317.03
317.128
317.246
317.353
317.299
317.366
317.351
317.057
316.944
316.816
316.517
316.357
315.877
315.489
312.124
312.323
312.611
312.763
312.843
312.963
313.229
313.289
313.369
313.44
313.424
313.441
313.444
313.23
313.137
313.014
312.806
312.697
312.339
311.968
308.645
308.769
308.96
309.086
309.126
309.222
309.44
309.502
309.517
309.557
309.574
309.564
309.56
309.435
309.382
309.227
309.124
309.072
308.826
308.52
305.213
305.234
305.387
305.416
305.458
305.53
305.635
305.714
305.7
305.702
305.735
305.735
305.72
305.653
305.65
305.515
305.462
305.431
305.286
305.085
301.746
301.738
301.812
301.8
301.823
301.861
301.875
301.907
301.905
301.924
301.899
301.928
301.905
301.886
301.902
301.843
301.822
301.841
301.796
301.707
327.593
327.985
328.417
328.968
329.332
329.713
330.099
330.062
330.46
330.46
330.449
330.433
330.321
330.278
329.934
329.561
329.158
328.728
328.153
327.527
323.862
324.151
324.56
325.013
325.334
325.618
325.95
325.95
326.279
326.289
326.259
326.286
326.147
326.111
325.827
325.531
325.158
324.778
324.289
323.721
320.159
320.337
320.683
321.106
321.392
321.584
321.899
321.919
322.167
322.181
322.146
322.208
322.041
321.952
321.755
321.513
321.185
320.84
320.464
319.934
316.485
316.574
316.86
317.179
317.477
317.612
317.813
317.915
318.049
318.099
318.038
318.129
317.986
317.881
317.733
317.524
317.268
316.988
316.653
316.168
312.794
312.849
313.096
313.3
313.552
313.723
313.768
313.939
313.996
314.078
313.982
314.052
313.968
313.85
313.766
313.596
313.407
313.2
312.857
312.468
309.08
309.108
309.35
309.461
309.662
309.77
309.801
309.974
309.998
310.076
309.977
309.998
309.949
309.828
309.798
309.693
309.572
309.419
309.161
308.886
305.434
305.42
305.609
305.655
305.768
305.844
305.86
305.993
306.001
306.048
305.997
305.98
305.955
305.884
305.896
305.829
305.742
305.671
305.473
305.333
301.813
301.796
301.891
301.893
301.929
301.954
301.98
302.013
302.009
302.027
302.023
301.981
301.982
301.979
301.966
301.933
301.944
301.918
301.83
301.797
328.57
328.912
329.383
330.048
330.611
330.982
331.128
331.204
331.575
331.746
331.648
331.628
331.56
331.472
331.209
330.68
330.353
329.753
329.251
328.536
324.647
324.932
325.388
325.95
326.396
326.751
326.859
326.914
327.268
327.396
327.341
327.255
327.217
327.17
326.926
326.444
326.218
325.693
325.226
324.655
320.744
321.061
321.378
321.837
322.231
322.542
322.637
322.688
322.976
323.071
323.114
322.978
322.973
322.904
322.673
322.307
322.141
321.653
321.255
320.757
316.944
317.198
317.426
317.802
318.132
318.434
318.384
318.523
318.73
318.835
318.905
318.742
318.735
318.69
318.455
318.214
318.06
317.668
317.29
316.873
313.163
313.38
313.522
313.764
314.11
314.328
314.233
314.347
314.554
314.682
314.714
314.539
314.521
314.536
314.342
314.138
313.987
313.756
313.384
313.081
309.395
309.572
309.617
309.782
310.097
310.193
310.087
310.21
310.368
310.527
310.48
310.369
310.311
310.358
310.252
310.065
309.954
309.816
309.519
309.285
305.615
305.751
305.769
305.862
306.057
306.11
306.017
306.137
306.205
306.303
306.303
306.204
306.149
306.178
306.164
306.043
305.975
305.889
305.726
305.555
301.89
301.924
301.954
301.956
302.02
302.06
302.048
302.071
302.075
302.097
302.122
302.068
302.031
302.069
302.048
302.038
302.003
301.984
301.919
301.877
329.421
330.121
330.428
331.1
331.788
332.134
332.547
332.59
332.685
333.01
332.772
332.643
332.423
332.516
332.047
332.002
331.466
330.994
330.38
329.681
325.439
326.009
326.232
326.846
327.42
327.737
328.088
328.088
328.175
328.481
328.261
328.142
327.906
328.103
327.6
327.596
327.149
326.73
326.186
325.621
321.492
321.941
322.114
322.642
323.081
323.399
323.637
323.686
323.735
323.965
323.812
323.695
323.468
323.681
323.26
323.2
322.838
322.542
322.061
321.556
317.555
317.897
318.054
318.509
318.868
319.121
319.263
319.288
319.326
319.491
319.42
319.267
319.112
319.3
318.991
318.854
318.597
318.401
317.958
317.574
313.648
313.872
314.029
314.366
314.677
314.835
314.889
314.918
314.963
315.079
315.078
314.952
314.852
314.943
314.773
314.606
314.433
314.307
313.92
313.644
309.735
309.906
310.021
310.24
310.507
310.579
310.58
310.622
310.612
310.74
310.773
310.682
310.617
310.675
310.557
310.42
310.308
310.221
309.936
309.735
305.815
305.956
306.03
306.169
306.311
306.331
306.328
306.351
306.356
306.458
306.44
306.394
306.355
306.381
306.32
306.243
306.201
306.15
305.982
305.831
301.947
302
302.011
302.075
302.115
302.118
302.115
302.124
302.135
302.177
302.144
302.144
302.139
302.122
302.096
302.104
302.09
302.073
301.984
301.959
330.447
330.993
331.607
332.195
332.926
333.39
333.56
333.779
333.892
333.993
333.886
333.91
333.702
333.476
333.27
333.135
332.412
331.834
331.334
330.874
326.302
326.791
327.269
327.802
328.43
328.828
329.012
329.138
329.269
329.328
329.218
329.256
329.075
328.862
328.702
328.547
327.942
327.491
327.038
326.688
322.197
322.616
322.985
323.466
323.946
324.262
324.446
324.589
324.669
324.725
324.632
324.621
324.524
324.306
324.17
324.035
323.52
323.18
322.777
322.527
318.112
318.471
318.694
319.183
319.515
319.79
319.918
320.056
320.099
320.171
320.105
320.057
320
319.81
319.707
319.593
319.113
318.862
318.564
318.37
314.042
314.318
314.482
314.877
315.15
315.32
315.414
315.567
315.591
315.675
315.587
315.573
315.513
315.373
315.233
315.228
314.78
314.622
314.405
314.27
310.013
310.18
310.313
310.601
310.822
310.931
310.977
311.123
311.104
311.191
311.124
311.115
311.056
310.933
310.823
310.854
310.551
310.425
310.261
310.246
306.027
306.112
306.166
306.344
306.485
306.544
306.566
306.707
306.643
306.686
306.675
306.653
306.635
306.558
306.482
306.522
306.338
306.269
306.203
306.185
302.004
302.034
302.068
302.133
302.153
302.192
302.193
302.25
302.223
302.252
302.248
302.231
302.22
302.215
302.166
302.177
302.11
302.092
302.084
302.076
331.311
331.893
332.663
333.283
333.686
334.22
334.743
334.725
335.094
335.146
335.023
335.031
334.982
334.559
334.412
333.929
333.374
332.941
332.255
331.653
327.073
327.555
328.214
328.739
329.104
329.541
329.981
329.967
330.273
330.328
330.191
330.216
330.227
329.786
329.703
329.261
328.812
328.447
327.802
327.329
322.86
323.247
323.813
324.227
324.556
324.933
325.273
325.277
325.484
325.578
325.403
325.46
325.512
325.16
325.033
324.638
324.276
323.943
323.426
323.073
318.639
318.942
319.416
319.761
320.036
320.341
320.606
320.638
320.723
320.871
320.655
320.744
320.873
320.539
320.393
320.121
319.786
319.508
319.133
318.798
314.475
314.676
315.076
315.306
315.571
315.777
315.996
316.035
316.045
316.172
316.054
316.093
316.239
315.961
315.775
315.659
315.334
315.127
314.86
314.576
310.354
310.468
310.752
310.939
311.109
311.272
311.444
311.463
311.416
311.528
311.447
311.472
311.618
311.365
311.229
311.142
310.938
310.786
310.596
310.41
306.218
306.278
306.427
306.585
306.7
306.782
306.887
306.908
306.867
306.897
306.863
306.891
307.013
306.836
306.728
306.658
306.568
306.47
306.367
306.25
302.089
302.111
302.147
302.224
302.246
302.272
302.319
302.323
302.309
302.299
302.321
302.288
302.369
302.302
302.258
302.227
302.21
302.16
302.125
302.09
332.188
332.987
333.877
334.21
334.721
335.234
335.586
335.708
336.016
336.175
336.009
336.316
336.014
335.597
335.296
334.953
334.397
334.059
333.262
332.438
327.812
328.494
329.263
329.559
330.015
330.384
330.739
330.799
331.087
331.196
331.042
331.343
331.026
330.691
330.457
330.124
329.656
329.436
328.676
327.981
323.474
324.021
324.694
324.924
325.29
325.619
325.927
325.917
326.223
326.297
326.103
326.425
326.125
325.836
325.648
325.331
324.942
324.808
324.198
323.637
319.176
319.554
320.094
320.319
320.649
320.911
321.129
321.124
321.399
321.493
321.229
321.554
321.288
321.074
320.934
320.644
320.341
320.217
319.733
319.32
314.929
315.163
315.533
315.794
316.041
316.206
316.39
316.384
316.606
316.69
316.444
316.732
316.522
316.391
316.283
316.02
315.737
315.678
315.335
315.005
310.689
310.806
311.062
311.295
311.422
311.519
311.674
311.7
311.854
311.94
311.696
311.882
311.783
311.732
311.603
311.4
311.217
311.157
310.928
310.696
306.444
306.492
306.625
306.767
306.833
306.883
307.013
307.037
307.129
307.177
307.051
307.098
307.074
307.051
306.969
306.803
306.739
306.678
306.565
306.389
302.17
302.169
302.217
302.273
302.279
302.285
302.342
302.357
302.399
302.398
302.359
302.389
302.381
302.37
302.345
302.279
302.253
302.233
302.221
302.141
332.88
333.619
334.522
335.077
335.584
336.229
336.516
336.65
337.034
337.244
337.058
337.407
337.246
336.504
336.506
335.912
335.379
334.901
334.056
333.302
328.414
328.998
329.834
330.267
330.714
331.28
331.553
331.623
331.964
332.125
331.938
332.256
332.169
331.475
331.514
330.966
330.485
330.099
329.386
328.759
323.962
324.477
325.175
325.531
325.873
326.383
326.597
326.695
326.947
327.077
326.917
327.15
327.059
326.517
326.542
326.121
325.653
325.346
324.75
324.287
319.542
319.991
320.477
320.826
321.066
321.528
321.69
321.758
321.996
322.04
321.982
322.139
322.011
321.637
321.638
321.327
320.926
320.64
320.155
319.822
315.195
315.531
315.864
316.128
316.333
316.719
316.819
316.864
317.056
317.097
317.081
317.187
317.041
316.791
316.787
316.549
316.23
316.016
315.667
315.362
310.858
311.088
311.31
311.478
311.628
311.916
311.959
312.07
312.145
312.214
312.192
312.238
312.147
311.987
311.997
311.816
311.578
311.434
311.147
310.917
306.53
306.654
306.774
306.876
306.968
307.132
307.156
307.267
307.287
307.309
307.336
307.315
307.316
307.217
307.184
307.076
306.953
306.836
306.654
306.517
302.179
302.253
302.268
302.316
302.343
302.385
302.412
302.423
302.457
302.463
302.452
302.459
302.47
302.423
302.409
302.379
302.321
302.258
302.229
302.183
333.528
334.452
335.278
335.747
336.376
337.079
337.413
337.755
338.06
338.309
338.317
337.988
337.955
337.362
337.435
336.885
336.306
335.884
334.99
334.278
328.957
329.757
330.442
330.911
331.425
331.966
332.322
332.572
332.87
333.057
333.072
332.78
332.769
332.221
332.287
331.815
331.321
331.036
330.175
329.621
324.405
325.077
325.625
326.096
326.468
326.938
327.272
327.465
327.732
327.882
327.873
327.634
327.667
327.197
327.225
326.788
326.407
326.18
325.408
324.963
319.894
320.451
320.919
321.297
321.567
321.953
322.245
322.409
322.633
322.767
322.763
322.534
322.579
322.191
322.155
321.829
321.548
321.357
320.672
320.362
315.418
315.857
316.244
316.527
316.727
317.046
317.244
317.373
317.531
317.642
317.687
317.526
317.516
317.217
317.123
316.919
316.74
316.555
316.006
315.785
310.959
311.314
311.562
311.797
311.934
312.18
312.261
312.43
312.479
312.541
312.623
312.539
312.507
312.272
312.177
312.023
311.931
311.78
311.381
311.249
306.565
306.767
306.957
307.078
307.174
307.339
307.35
307.482
307.481
307.508
307.592
307.551
307.52
307.364
307.3
307.172
307.163
307.09
306.848
306.683
302.184
302.273
302.336
302.365
302.399
302.482
302.49
302.51
302.504
302.523
302.545
302.538
302.515
302.469
302.453
302.387
302.386
302.366
302.274
302.235
334.298
334.899
335.659
336.45
337.23
337.82
338.202
338.725
338.801
338.925
339.018
339.158
338.774
338.339
338.158
337.675
337.213
336.531
335.656
335.022
329.647
330.119
330.774
331.454
332.151
332.644
333.004
333.473
333.571
333.575
333.679
333.791
333.45
333.077
332.942
332.523
332.15
331.53
330.767
330.232
325.032
325.366
325.962
326.532
327.086
327.478
327.824
328.241
328.377
328.357
328.44
328.459
328.179
327.899
327.726
327.414
327.108
326.595
325.922
325.503
320.434
320.677
321.169
321.67
322.093
322.384
322.658
323.064
323.179
323.163
323.229
323.18
323.011
322.726
322.625
322.353
322.116
321.687
321.16
320.8
315.87
316.029
316.395
316.851
317.114
317.348
317.565
317.931
318
318.014
318.016
317.964
317.799
317.636
317.521
317.296
317.159
316.81
316.392
316.118
311.331
311.436
311.689
312.084
312.177
312.415
312.524
312.8
312.883
312.871
312.827
312.853
312.654
312.581
312.445
312.305
312.226
311.994
311.697
311.484
306.793
306.886
307.034
307.276
307.291
307.478
307.522
307.676
307.729
307.71
307.722
307.723
307.601
307.531
307.443
307.382
307.348
307.162
307.018
306.886
302.273
302.304
302.347
302.447
302.423
302.528
302.546
302.557
302.585
302.603
302.589
302.583
302.549
302.518
302.477
302.489
302.47
302.385
302.357
302.311
334.691
335.418
336.266
337.071
337.842
338.327
338.865
339.246
339.539
339.73
339.698
339.723
339.362
339.138
338.881
338.174
337.806
337.119
336.461
335.655
329.938
330.559
331.328
332.002
332.634
333.088
333.586
333.924
334.151
334.323
334.242
334.303
333.984
333.786
333.561
332.966
332.651
332.043
331.47
330.747
325.249
325.786
326.453
326.948
327.503
327.904
328.332
328.641
328.825
328.951
328.877
328.953
328.632
328.493
328.327
327.753
327.548
327.006
326.509
325.911
320.607
321.028
321.58
321.992
322.417
322.752
323.122
323.353
323.546
323.605
323.576
323.668
323.369
323.26
323.138
322.632
322.538
322
321.607
321.105
316.018
316.31
316.736
317.074
317.4
317.651
317.963
318.072
318.278
318.349
318.299
318.381
318.195
318.061
317.938
317.581
317.529
317.042
316.736
316.343
311.414
311.631
311.968
312.167
312.385
312.592
312.773
312.862
313.074
313.106
313.06
313.155
313.017
312.894
312.793
312.547
312.519
312.112
311.961
311.674
306.841
306.979
307.184
307.29
307.426
307.533
307.624
307.737
307.854
307.866
307.841
307.922
307.82
307.737
307.668
307.523
307.511
307.252
307.198
306.985
302.303
302.327
302.416
302.432
302.494
302.536
302.53
302.605
302.633
302.654
302.617
302.659
302.635
302.6
302.562
302.529
302.513
302.424
302.401
302.319
335.349
336.217
336.941
337.653
338.43
338.998
339.309
339.868
339.978
340.228
340.363
340.262
340.072
339.845
339.599
338.907
338.424
337.898
337.131
336.389
330.52
331.252
331.911
332.517
333.195
333.639
333.986
334.435
334.508
334.725
334.862
334.734
334.588
334.406
334.212
333.611
333.177
332.715
332.052
331.378
325.692
326.364
326.931
327.42
328.022
328.328
328.684
329.02
329.122
329.249
329.38
329.273
329.186
329.005
328.846
328.317
327.996
327.586
327.02
326.411
320.956
321.503
321.981
322.362
322.855
323.112
323.46
323.649
323.765
323.852
323.959
323.9
323.862
323.697
323.513
323.099
322.861
322.464
322.046
321.516
316.287
316.681
317.076
317.321
317.731
317.936
318.246
318.293
318.449
318.513
318.599
318.568
318.535
318.398
318.222
317.929
317.771
317.399
317.069
316.655
311.594
311.9
312.189
312.348
312.587
312.828
313.031
313.01
313.145
313.203
313.275
313.291
313.223
313.108
312.999
312.801
312.687
312.396
312.186
311.886
306.952
307.146
307.354
307.407
307.513
307.684
307.819
307.783
307.874
307.939
307.942
308.013
307.926
307.863
307.812
307.674
307.628
307.408
307.31
307.109
302.328
302.376
302.468
302.488
302.52
302.568
302.61
302.598
302.625
302.682
302.664
302.702
302.641
302.65
302.617
302.573
302.556
302.497
302.427
302.384
335.901
336.641
337.379
338.293
338.964
339.523
339.797
340.165
340.602
340.57
340.848
340.727
340.477
340.249
339.929
339.289
338.977
338.351
337.606
336.814
331.009
331.604
332.262
333.088
333.64
334.106
334.372
334.652
335.068
335.017
335.281
335.154
334.92
334.731
334.481
333.92
333.656
333.131
332.448
331.788
326.131
326.69
327.191
327.944
328.367
328.775
328.985
329.169
329.582
329.552
329.75
329.642
329.468
329.326
329.061
328.615
328.388
327.958
327.332
326.79
321.333
321.81
322.204
322.78
323.169
323.486
323.652
323.761
324.145
324.1
324.263
324.148
324.061
323.948
323.703
323.356
323.19
322.83
322.247
321.876
316.544
316.915
317.24
317.687
317.99
318.246
318.323
318.418
318.76
318.724
318.836
318.754
318.73
318.574
318.401
318.104
317.989
317.73
317.268
316.997
311.814
312.047
312.287
312.614
312.823
313.048
313.039
313.115
313.364
313.356
313.423
313.406
313.368
313.252
313.116
312.87
312.843
312.646
312.344
312.146
307.11
307.236
307.38
307.571
307.698
307.849
307.825
307.819
308.015
307.994
308.049
308.058
308.035
307.938
307.88
307.676
307.713
307.576
307.405
307.276
302.378
302.428
302.453
302.535
302.566
302.631
302.626
302.622
302.675
302.685
302.692
302.716
302.693
302.631
302.645
302.574
302.589
302.535
302.491
302.43
336.196
337.086
337.795
338.625
339.358
339.71
340.223
340.488
341.058
341.002
341.345
341.366
341.013
340.765
340.495
339.812
339.573
338.771
337.963
337.29
331.308
332.023
332.603
333.358
333.977
334.26
334.688
334.905
335.42
335.394
335.689
335.705
335.414
335.18
334.972
334.331
334.15
333.488
332.785
332.221
326.376
327.005
327.464
328.113
328.642
328.905
329.222
329.365
329.854
329.852
330.063
330.123
329.889
329.673
329.478
328.95
328.798
328.247
327.635
327.186
321.504
321.987
322.406
322.883
323.355
323.59
323.781
323.89
324.335
324.391
324.515
324.556
324.374
324.239
324.015
323.605
323.476
323.053
322.526
322.177
316.68
317.021
317.375
317.776
318.093
318.303
318.436
318.508
318.859
318.988
319.037
319.041
318.927
318.813
318.625
318.326
318.198
317.906
317.485
317.184
311.911
312.145
312.381
312.691
312.887
313.066
313.149
313.227
313.416
313.569
313.606
313.563
313.508
313.427
313.296
313.097
312.986
312.791
312.502
312.242
307.15
307.264
307.402
307.636
307.743
307.844
307.891
307.936
308.011
308.17
308.197
308.132
308.104
308.084
307.994
307.855
307.827
307.7
307.524
307.333
302.384
302.431
302.46
302.562
302.614
302.623
302.642
302.663
302.694
302.735
302.75
302.73
302.712
302.701
302.674
302.641
302.636
302.579
302.522
302.454
)
;

boundaryField
{
    hotSide
    {
        type            fixedGradient;
        gradient        nonuniform List<scalar> 
400
(
215.08
227.48
239.879
252.224
264.457
276.521
288.359
299.912
311.123
321.935
332.292
342.142
351.432
360.114
368.142
375.475
382.074
387.906
392.942
397.156
219.745
232.527
245.313
258.046
270.669
283.122
295.346
307.28
318.866
330.044
340.757
350.949
360.568
369.564
377.888
385.498
392.354
398.421
403.668
408.071
223.896
237.029
250.171
263.263
276.245
289.057
301.637
313.923
325.855
337.371
348.414
358.925
368.849
378.136
386.736
394.604
401.699
407.986
413.432
418.012
227.53
240.981
254.445
267.862
281.17
294.307
307.211
319.818
332.065
343.89
355.233
366.035
376.239
385.792
394.644
402.749
410.064
416.553
422.183
426.926
230.646
244.38
258.13
271.836
285.435
298.863
312.055
324.948
337.477
349.578
361.19
372.252
382.706
392.498
401.577
409.895
417.409
424.081
429.877
434.768
233.248
247.227
261.226
275.183
289.034
302.714
316.159
329.301
342.075
354.417
366.264
377.553
388.227
398.229
407.507
416.012
423.701
430.534
436.476
441.5
235.339
249.524
263.732
277.9
291.964
305.857
319.513
332.866
345.848
358.394
370.439
381.922
392.782
402.962
412.409
421.074
428.912
435.883
441.951
447.087
236.924
251.274
265.649
279.987
294.222
308.287
322.115
335.637
348.787
361.498
373.704
385.343
396.354
406.679
416.264
425.059
433.019
440.102
446.274
451.503
238.007
252.48
266.981
281.446
295.809
310.002
323.958
337.609
350.885
363.72
376.048
387.805
398.931
409.366
419.056
427.951
436.004
443.173
449.424
454.726
238.592
253.145
267.728
282.276
296.723
311.001
325.042
338.776
352.136
365.054
377.464
389.3
400.502
411.011
420.772
429.734
437.851
445.08
451.386
456.737
238.681
253.27
267.891
282.477
296.963
311.281
325.362
339.137
352.537
365.495
377.944
389.82
401.06
411.606
421.403
430.4
438.549
445.81
452.145
457.523
238.274
252.856
267.469
282.048
296.528
310.841
324.916
338.687
352.084
365.038
377.485
389.359
400.599
411.145
420.942
429.94
438.091
445.355
451.693
457.076
237.37
251.899
266.46
280.988
295.416
309.677
323.702
337.423
350.772
363.681
376.083
387.915
399.114
409.622
419.385
428.351
436.473
443.71
450.026
455.39
235.965
250.398
264.861
279.292
293.622
307.787
321.717
335.344
348.601
361.42
373.736
385.485
396.605
407.039
416.731
425.631
433.694
440.877
447.144
452.466
234.055
248.348
262.67
276.958
291.146
305.169
318.959
332.449
345.57
358.258
370.446
382.071
393.074
403.396
412.983
421.786
429.758
436.859
443.053
448.31
231.635
245.745
259.882
273.983
287.986
301.823
315.43
328.738
341.682
354.195
366.215
377.679
388.526
398.701
408.149
416.822
424.675
431.667
437.763
442.934
228.702
242.586
256.495
270.368
284.141
297.75
311.13
324.215
336.94
349.24
361.053
372.316
382.972
392.965
402.242
410.755
418.46
425.317
431.292
436.356
225.25
238.868
252.508
266.111
279.614
292.954
306.067
318.888
331.354
343.402
354.97
365.998
376.428
386.206
395.281
403.605
411.135
417.833
423.665
428.602
221.28
234.593
247.925
261.218
274.411
287.443
300.249
312.769
324.94
336.699
347.986
358.744
368.916
378.448
387.292
395.4
402.731
409.247
414.915
419.708
216.794
229.765
242.752
255.698
268.544
281.23
293.694
305.876
317.715
329.152
340.126
350.582
360.465
369.724
378.309
386.176
393.285
399.598
405.085
409.718
)
;
    }
    coldSide
    {
        type            mixed;
        refValue        uniform 300;
        refGradient     uniform 0;
        valueFraction   uniform 0.991591;
        source          uniform 0;
        value           nonuniform List<scalar> 
400
(
300.011
300.012
300.012
300.013
300.013
300.014
300.015
300.015
300.016
300.016
300.017
300.018
300.018
300.018
300.018
300.019
300.019
300.02
300.02
300.02
300.012
300.012
300.012
300.013
300.013
300.014
300.015
300.015
300.016
300.017
300.017
300.018
300.018
300.019
300.019
300.019
300.02
300.02
300.02
300.02