/*--------------------------------*- C++ -*----------------------------------*\
| =========                 |                                                 |
| \\      /  F ield         | OpenFOAM: The Open Source CFD Toolbox           |
|  \\    /   O peration     | Version:  2212                                  |
|   \\  /    A nd           | Website:  www.openfoam.com                      |
|    \\/     M anipulation  |                                                 |
\*---------------------------------------------------------------------------*/
FoamFile
{
    version     2.0;
    format      ascii;
    arch        "LSB;label=32;scalar=64";
    class       volScalarField;
    location    "0";
    object      relativeErrorField;
}
// * * * * * * * * * * * * * * * * * * * * * * * * * * * * * * * * * * * * * //

dimensions      [0 0 0 1 0 0 0];

internalField   nonuniform List<scalar> 
3200
(
0.00816516
0.00888534
0.00882685
0.00842175
0.00745187
0.00590857
0.00462282
0.0029927
0.00143087
0.000181315
0.000459063
0.000791942
0.000699711
0.00040542
0.000153613
7.71745e-05
0.000168718
0.000682107
0.00159886
0.00270445
0.00708566
0.00766036
0.00779066
0.00738304
0.00642674
0.00508312
0.00394327
0.002616
0.000994199
0.000384149
0.000509654
0.000668911
0.000628105
0.000378583
4.70437e-05
3.39664e-05
3.93537e-05
0.000523504
0.00129654
0.00243994
0.00628434
0.00646917
0.00676486
0.00638353
0.00554347
0.00474318
0.00325516
0.00224274
0.00106125
0.000238432
0.0002884
0.000523511
0.000373618
0.000530455
8.80756e-05
3.69861e-06
0.000163569
0.000242182
0.00122629
0.00200737
0.00516606
0.00550372
0.00569135
0.00532662
0.00444609
0.00406761
0.00291573
0.00181654
0.000801336
6.82186e-05
0.000184992
0.000459077
0.000263822
6.3377e-05
4.42399e-05
0.000104001
1.28883e-06
0.000439987
0.000995191
0.0014097
0.00399457
0.0044739
0.00429709
0.00407438
0.00371736
0.00291989
0.00232826
0.00136057
0.000724487
9.02615e-05
0.000264659
0.00031111
0.000411257
0.000168771
8.82461e-05
0.00015259
7.38498e-05
0.000252554
0.00064385
0.00138526
0.00284966
0.00313867
0.00319049
0.00300572
0.00279817
0.00203666
0.00167701
0.000882219
0.000469924
0.000156546
2.44795e-05
0.000168317
0.000270704
4.92663e-05
1.99397e-05
0.000149861
8.05483e-05
0.000135189
0.000504102
0.00107342
0.00192046
0.00187438
0.00167327
0.00178204
0.0018603
0.00138954
0.00110715
0.000736417
0.000223003
0.000169312
0.000151007
1.11628e-05
0.000245413
4.3379e-05
6.93592e-05
3.49245e-05
9.34135e-05
0.000264996
0.00032347
0.000720438
0.000493361
0.000762818
0.000497093
0.000656082
0.00063261
0.000598788
0.000547662
0.000233755
8.02622e-05
2.91764e-05
0.000235196
0.0001154
0.000143119
8.95238e-05
0.000171451
6.5123e-05
0.000171642
0.000281682
0.000328709
0.000348936
0.0105568
0.0109408
0.0113863
0.0111109
0.010173
0.008833
0.00729602
0.00575922
0.00410984
0.00300811
0.00243507
0.00202165
0.00211335
0.00240424
0.00258417
0.00251612
0.00245522
0.00182769
0.000768673
0.000420076
0.009007
0.00965443
0.00981157
0.00955746
0.00876461
0.00763864
0.00650323
0.00498635
0.00353588
0.00273603
0.00194219
0.00188883
0.00182645
0.00212327
0.0022099
0.00225412
0.00213355
0.00154765
0.000859607
0.000370267
0.0076942
0.00826916
0.00828963
0.00817259
0.00734732
0.00655327
0.00538871
0.00425952
0.00295295
0.00205392
0.0018793
0.00143442
0.00168785
0.00158536
0.00194689
0.00194375
0.00176751
0.00130595
0.000537346
0.000490461
0.00644722
0.00679094
0.00687913
0.00651736
0.00616287
0.00545505
0.00453947
0.00328616
0.00249928
0.0017345
0.00129296
0.00131246
0.00132551
0.00123424
0.00135692
0.00157319
0.00147885
0.00111278
0.000369692
0.00016426
0.0051292
0.00520017
0.0051295
0.00521685
0.00467827
0.00418954
0.00348994
0.00275086
0.00200418
0.00163348
0.00136135
0.000780688
0.000886733
0.00114111
0.00113264
0.00113507
0.00100843
0.00044444
0.000167353
0.000358464
0.00377203
0.00382252
0.00403099
0.0037698
0.00386453
0.00290741
0.00270354
0.00201729
0.00143442
0.00110084
0.000897256
0.000694536
0.000564364
0.000783343
0.000958163
0.000883554
0.000764003
0.000458714
1.2171e-05
0.000129099
0.00220151
0.00239743
0.00233988
0.00211812
0.00221795
0.00192867
0.00154536
0.00109768
0.000854831
0.000677416
0.000364403
0.000487877
0.000586307
0.000366421
0.000401968
0.000479048
0.000378597
0.000267804
0.000124136
0.00015312
0.000676294
0.000822457
0.0010056
0.000709382
0.00092782
0.000629787
0.000767301
0.000447797
0.000249647
0.000423954
0.000106221
1.93991e-05
0.000141526
0.000135345
0.000235819
0.000265383
0.000162321
0.000105951
6.73218e-05
0.000134908
0.0133066
0.0142887
0.0144047
0.0142331
0.0133328
0.0121165
0.0107189
0.00940998
0.00807448
0.00662386
0.00612043
0.00563303
0.00584618
0.00584596
0.00581493
0.00593596
0.0055891
0.00478453
0.00362568
0.00235864
0.0117057
0.0121809
0.012527
0.0122235
0.011668
0.0105052
0.00939805
0.00791815
0.00679482
0.00566201
0.00541474
0.00477564
0.00505294
0.00494703
0.00518946
0.00508283
0.00484726
0.00412057
0.0029957
0.0017344
0.00974484
0.0102237
0.0105894
0.0103363
0.010064
0.00892772
0.00802467
0.00665065
0.00593005
0.00482041
0.00430076
0.00424123
0.00395728
0.0041097
0.00450677
0.00434288
0.00386866
0.00352721
0.00271182
0.00181905
0.00801939
0.00863997
0.00867878
0.00870404
0.00824801
0.00735659
0.00641661
0.0055886
0.00468167
0.00396762
0.00367151
0.00330988
0.00341441
0.00341563
0.0035762
0.00349295
0.00324598
0.00285916
0.00203948
0.00131458
0.00669679
0.00674511
0.00700961
0.00659055
0.00635411
0.00570474
0.00500425
0.00430855
0.00370945
0.00302733
0.00285628
0.0026739
0.00269953
0.00249515
0.00281779
0.00265339
0.00270967
0.00217329
0.00168516
0.00122217
0.00471097
0.00452374
0.00505808
0.0048359
0.00443336
0.00418195
0.00372324
0.00315183
0.00271931
0.00215465
0.00189968
0.00193563
0.00197318
0.00200595
0.00165295
0.00216274
0.00190281
0.00152486
0.00120863
0.000703281
0.00274873
0.00309441
0.00299278
0.00290008
0.00279229
0.00261711
0.0021641
0.00183149
0.00162339
0.00141541
0.00132493
0.00105556
0.00125968
0.00117171
0.00124011
0.00116731
0.0011373
0.00101284
0.000745818
0.000668645
0.00104124
0.00108131
0.0010009
0.000961105
0.0010279
0.000826021
0.000712682
0.000490444
0.000625917
0.000436924
0.000316058
0.000451979
0.00029554
0.00039981
0.000407543
0.00042836
0.000376351
0.000337455
0.00028829
0.000256112
0.0159863
0.0168234
0.0171872
0.0171696
0.0165842
0.0155204
0.0142379
0.0128386
0.0115834
0.010527
0.00978954
0.00966652
0.00933176
0.00930759
0.00916366
0.00892841
0.00834432
0.0076049
0.00610147
0.00477946
0.0137633
0.0144997
0.0148441
0.0149071
0.0144016
0.0134625
0.0123449
0.0112038
0.0100192
0.00905522
0.00830017
0.00795499
0.00805361
0.0080936
0.00780909
0.00784853
0.00726732
0.00663887
0.00542136
0.0041788
0.0119248
0.0122381
0.0127243
0.0125199
0.0123227
0.0113811
0.0105191
0.00943815
0.00848521
0.00785947
0.00710408
0.00683125
0.00693351
0.00693028
0.00693719
0.00665072
0.00637716
0.00566196
0.00469527
0.00354255
0.00987713
0.0102965
0.0103055
0.0105431
0.0100714
0.0092763
0.00862956
0.00793613
0.00704227
0.00619628
0.00575788
0.00570803
0.00574342
0.00561182
0.00533611
0.00565674
0.00525093
0.00448853
0.00366911
0.00289328
0.00757906
0.0081032
0.00835373
0.00826378
0.00810462
0.00743999
0.00663993
0.00608913
0.00524832
0.00488475
0.00456004
0.00437213
0.00428865
0.00441338
0.00441264
0.00416106
0.00400596
0.00371155
0.00282977
0.0022841
0.00574087
0.00580951
0.00600607
0.0058567
0.00561279
0.00549002
0.00479033
0.00450199
0.00403163
0.00350337
0.00320043
0.00328227
0.00327493
0.00330257
0.00299101
0.00300027
0.00293008
0.00229486
0.00205852
0.00166473
0.00323056
0.00352719
0.00326116
0.00360678
0.00330685
0.00337917
0.0028951
0.00269636
0.00236594
0.00217237
0.00200036
0.00184514
0.00197132
0.00178853
0.00196657
0.00185614
0.0018646
0.00154821
0.00130249
0.00106338
0.00116155
0.00115087
0.00117645
0.00129317
0.00136584
0.00114326
0.00104311
0.00099462
0.000558354
0.000768496
0.000680742
0.000881815
0.00088447
0.000745428
0.000764622
0.000673059
0.000499699
0.000380925
0.000369845
0.000335667
0.0180626
0.0189223
0.0198392
0.0197825
0.0193941
0.0184427
0.017458
0.0161756
0.015007
0.0138402
0.013016
0.0127112
0.0126351
0.0125311
0.0123547
0.0117623
0.0112316
0.00983548
0.0083808
0.00699498
0.0156917
0.0167708
0.0171557
0.0171017
0.0168177
0.0163295
0.0150771
0.0141956
0.0131464
0.0119407
0.0113905
0.0108075
0.010901
0.0107914
0.0106801
0.0102147
0.00967779
0.00853755
0.00736839
0.00596382
0.0134096
0.014202
0.0146035
0.0146712
0.0144075
0.0137341
0.0128644
0.0118872
0.0108484
0.0103101
0.00961602
0.0092527
0.00917553
0.00887148
0.00909233
0.00863338
0.00807965
0.00739931
0.00633775
0.00506919
0.0111443
0.0115112
0.0119711
0.0120782
0.0116602
0.0113196
0.010703
0.0099167
0.00903338
0.00831668
0.00789531
0.00761582
0.00767738
0.00756078
0.00755122
0.00712791
0.00697861
0.00610586
0.00511706
0.0040774
0.00878551
0.0092233
0.00939655
0.00946099
0.00907839
0.00878967
0.0084262
0.00775315
0.00716784
0.00648498
0.00630699
0.00609267
0.0058185
0.00589186
0.00575621
0.00570469
0.00545265
0.00481347
0.00417086
0.00329046
0.00621912
0.0065467
0.00694411
0.00666978
0.00692533
0.00650917
0.00611689
0.00559857
0.00517796
0.00486854
0.00454349
0.00456668
0.00427714
0.00424993
0.00432074
0.00393399
0.00381381
0.00371884
0.00291086
0.00231889
0.00374317
0.00393607
0.00430746
0.00415313
0.00414943
0.00410439
0.00369254
0.00342726
0.00319995
0.00276341
0.00263906
0.00252456
0.00265541
0.00268178
0.00298166
0.0024368
0.00227872
0.00223415
0.00177246
0.00161341
0.00124474
0.00145335
0.00133594
0.0011679
0.00129535
0.00122288
0.00125476
0.00117925
0.0010483
0.000977353
0.000928808
0.000574823
0.000811299
0.000670059
0.00103413
0.000961152
0.00080353
0.000702026
0.000720028
0.000471347
0.0195242
0.0207625
0.0214379
0.021876
0.0215667
0.0210912
0.0198814
0.0188818
0.0178555
0.0167492
0.0161745
0.0156943
0.0151663
0.0151053
0.0145748
0.0142334
0.0132084
0.0118425
0.0100399
0.00847033
0.0169738
0.0180578
0.0188502
0.0190673
0.018848
0.0182784
0.0174111
0.0164789
0.0155572
0.0145374
0.0140511
0.0135028
0.0132766
0.0130933
0.0128009
0.0121945
0.0114475
0.0104844
0.00876024
0.00715422
0.0146842
0.0155334
0.0159667
0.0162711
0.0161006
0.0155268
0.0148298
0.0138802
0.0132043
0.0124282
0.0120999
0.0116386
0.0113816
0.0112286
0.0107184
0.0103874
0.0098551
0.00858885
0.00729623
0.0062533
0.0119676
0.0127141
0.0131092
0.0134011
0.0131342
0.0128808
0.0123792
0.0115162
0.0107304
0.0101036
0.00969101
0.00962255
0.00950146
0.00907509
0.00884531
0.00858322
0.00797163
0.00729115
0.0061552
0.0050633
0.00941226
0.0101005
0.0102598
0.0105633
0.0103276
0.00989795
0.00956402
0.00928054
0.00856054
0.00814296
0.00781125
0.00735521
0.00739719
0.00739072
0.00696748
0.00669935
0.0063543
0.0056073
0.00482345
0.00406838
0.00678401
0.00731381
0.0075637
0.00774927
0.00763201
0.00713412
0.00716729
0.00672471
0.00642505
0.00599861
0.00583067
0.00543988
0.00520293
0.00544684
0.00516947
0.00495342
0.0046641
0.00401734
0.00333027
0.00301223
0.00419459
0.00438311
0.00457283
0.0044516
0.00447552
0.00451344
0.00435337
0.00388611
0.00363759
0.00352937
0.00362261
0.00337706
0.00333378
0.00328121
0.0031448
0.00292195
0.00273601
0.00257023
0.00209019
0.00196454
0.00129795
0.00144171
0.00153512
0.00164646
0.00164742
0.00151175
0.00135274
0.001432
0.00137941
0.00125639
0.00131037
0.00108071
0.00110934
0.00119876
0.00130207
0.00132414
0.00107318
0.000903746
0.000945144
0.000664294
0.0204274
0.021691
0.022839
0.0233774
0.0233083
0.0229515
0.0220716
0.0210361
0.0199874
0.0191911
0.0185544
0.0183062
0.0174513
0.0173367
0.0166133
0.0157462
0.0147577
0.0131395
0.0113381
0.00930446
0.01798
0.0190572
0.0196495
0.020285
0.0202929
0.019838
0.0192106
0.0184421
0.0175429
0.0168576
0.0162286
0.0156518
0.0152844
0.0149748
0.0143658
0.0136692
0.0129585
0.0114473
0.0098887
0.00791742
0.0152975
0.0160365
0.0169224
0.017255
0.017154
0.0169099
0.0163958
0.0157573
0.0150755
0.0143556
0.0137057
0.0133463
0.0130478
0.0125201
0.0122745
0.0117202
0.0108191
0.00974258
0.00817321
0.00692214
0.0127259
0.0131793
0.0138106
0.0141426
0.0143399
0.0142499
0.0134867
0.0129598
0.0122926
0.0117136
0.0113796
0.0112603
0.0105749
0.0105384
0.0102614
0.00951721
0.00902218
0.00793284
0.0069039
0.00566395
0.00988865
0.0106281
0.0110639
0.0111535
0.0112294
0.0110124
0.0108517
0.0104494
0.00967864
0.0093357
0.00905666
0.00852886
0.00867036
0.00829411
0.00792924
0.00776572
0.00703303
0.00624208
0.00523061
0.00438433
0.00728679
0.00760231
0.00786809
0.00830043
0.00817705
0.00793555
0.00775408
0.00724453
0.00706228
0.00660257
0.00626042
0.00655128
0.00629741
0.00595748
0.00575317
0.00551304
0.00517424
0.00459805
0.00381451
0.0031998
0.00437035
0.00439314
0.00509432
0.00453093
0.00517252
0.00479702
0.00474427
0.0045457
0.00441403
0.00425617
0.00395034
0.00391032
0.00375084
0.00378987
0.00329713
0.00337228
0.00317246
0.00261985
0.00236329
0.00225265
0.00159537
0.00164709
0.00148305
0.00167605
0.00172112
0.00174003
0.00161329
0.00181184
0.001562
0.00129613
0.00133578
0.00124873
0.00119377
0.00097775
0.00116802
0.00119338
0.000946601
0.000819294
0.000908766
0.000884454
0.020819
0.0223036
0.0233537
0.0241085
0.0242587
0.0240575
0.0236344
0.0227741
0.0218543
0.0210569
0.0203211
0.0197364
0.019108
0.0185364
0.0178158
0.0168403
0.0153433
0.0135409
0.0115925
0.00926773
0.0182297
0.0193082
0.0203774
0.0210505
0.0211276
0.0209684
0.0205865
0.0199053
0.0193041
0.0185223
0.0177874
0.0170894
0.0169408
0.0162108
0.0155548
0.0145841
0.013469
0.0117997
0.0102611
0.00823136
0.01553
0.0165197
0.0176093
0.0177605
0.0181615
0.0177464
0.0174861
0.0169353
0.0164105
0.0158141
0.0152083
0.0148406
0.0143868
0.0138826
0.0132401
0.0126105
0.0113353
0.0102199
0.00855455
0.00702353
0.0127259
0.0135517
0.0142558
0.014858
0.0148547
0.0148768
0.0147061
0.0140399
0.0137725
0.0131748
0.0126531
0.0120893
0.011859
0.0114888
0.0109187
0.010306
0.00942855
0.00834081
0.00723376
0.00598439
0.00995063
0.0105657
0.0112651
0.011369
0.0118059
0.0117291
0.0114345
0.0110742
0.0105348
0.0103353
0.00987659
0.0095074
0.00924912
0.00910342
0.0086794
0.00790724
0.00747907
0.00674959
0.00579166
0.00467702
0.00714898
0.00799647
0.00808941
0.00857298
0.00845044
0.00835843
0.00822501
0.00787361
0.00785546
0.00731175
0.00722231
0.00697048
0.00666703
0.00664971
0.00627561
0.00592791
0.00553128
0.00470764
0.00397733
0.00334529
0.00453716
0.00487262
0.00508955
0.0051193
0.00510546
0.00512111
0.00494461
0.00497529
0.00467026
0.00451942
0.00447457
0.00425037
0.00416746
0.00379834
0.00400493
0.00360846
0.00338865
0.00302696
0.00231211
0.00188795
0.00157204
0.00163311
0.00170279
0.00173717
0.00205675
0.00204682
0.00155588
0.00171603
0.00159363
0.0014499
0.00155472
0.00147033
0.00136424
0.00134074
0.0012659
0.00130872
0.00112739
0.0010418
0.000723793
0.000630722
0.0201809
0.0216288
0.0231079
0.0241328
0.0246211
0.0246776
0.0244755
0.0237621
0.0228105
0.0222146
0.0216227
0.0207233
0.0199287
0.0192463
0.0186913
0.0170323
0.0156075
0.0135947
0.0111206
0.00888866
0.0175451
0.0189174
0.0202651
0.0209824
0.0212132
0.0214431
0.021126
0.0206424
0.0200759
0.0196272
0.018597
0.0178905
0.0173951
0.0167608
0.0159272
0.0149344
0.0136118
0.0115935
0.00951672
0.00774258
0.0150331
0.0162455
0.0174216
0.0180865
0.0181942
0.018471
0.0182256
0.0175912
0.0170605
0.0165673
0.0160906
0.0153115
0.0150826
0.0143061
0.0134103
0.0125288
0.0116548
0.0100056
0.00821258
0.00667209
0.0123753
0.0132782
0.0142232
0.0149681
0.0151574
0.0151007
0.0149073
0.0145386
0.0141465
0.0135173
0.0133316
0.0128385
0.0124106
0.0119703
0.0113077
0.0104052
0.00964566
0.00823956
0.00677388
0.00553409
0.00992116
0.0104993
0.0112935
0.011672
0.0119225
0.0119429
0.0117378
0.0116926
0.0112001
0.0108373
0.0104727
0.0100187
0.00980802
0.00939775
0.00899349
0.00814125
0.00746225
0.00627113
0.00534227
0.00457884
0.00690262
0.0075512
0.00821917
0.00848981
0.00859823
0.00855938
0.00874655
0.00842671
0.00829818
0.00798635
0.0074558
0.00732139
0.00703577
0.00666611
0.0065485
0.00591289
0.00537297
0.00471528
0.00394686
0.00313754
0.00427108
0.00470607
0.00504195
0.00531006
0.00528427
0.00543396
0.00533276
0.00523514
0.00498032
0.00486817
0.00474597
0.00440192
0.00423461
0.00418872
0.00400888
0.00371678
0.00321263
0.00283957
0.00240168
0.00189528
0.00159089
0.00147305
0.00166345
0.00167733
0.00181085
0.00183076
0.00186583
0.00173232
0.00176151
0.00167821
0.00146442
0.00162148
0.00149185
0.00151521
0.00118664
0.00109079
0.00118202
0.00106556
0.000798633
0.000587856
0.0190488
0.020838
0.0223328
0.0236668
0.0242314
0.0243958
0.0241317
0.023794
0.0231153
0.0225168
0.0219641
0.0210843
0.0204004
0.0191829
0.0182921
0.0168255
0.014937
0.0129284
0.0101955
0.00775339
0.0166573
0.0179342
0.0193459
0.0206063
0.0211135
0.0209508
0.0210913
0.0207089
0.0203369
0.0195568
0.0189612
0.018345
0.0175547
0.0169545
0.0158446
0.0146643
0.0130239
0.0112297
0.00890913
0.00701664
0.0140998
0.015126
0.0165197
0.0175109
0.0180789
0.0182999
0.0182255
0.0176011
0.0173542
0.0168725
0.0164503
0.0156929
0.0150639
0.0142954
0.0136211
0.0126002
0.0112079
0.00960383
0.00752358
0.00587115
0.0116253
0.0126316
0.0137266
0.0145792
0.0148707
0.0150294
0.0148865
0.01484
0.0144087
0.0138201
0.0132698
0.012933
0.0125414
0.0119843
0.0111583
0.0102419
0.00919971
0.00770105
0.0060967
0.00476906
0.0092633
0.00988186
0.0108428
0.0114112
0.0115528
0.0119086
0.0119303
0.0117399
0.0114104
0.0110574
0.0105003
0.0101307
0.00997363
0.00935126
0.00897529
0.00829637
0.00722301
0.00627315
0.00473891
0.00401796
0.00664309
0.00737955
0.00778917
0.00821948
0.00850847
0.00859218
0.00873208
0.00849673
0.00821938
0.00802701
0.00784683
0.00742424
0.00726119
0.00676803
0.00633031
0.00581809
0.00518682
0.00436626
0.00354877
0.00263516
0.00386237
0.00441554
0.00472247
0.00506131
0.0052063
0.00521625
0.00524384
0.00537264
0.00502702
0.00496708
0.00476713
0.00469509
0.00432587
0.00429513
0.00406908
0.00346239
0.00315316
0.00281709
0.00214762
0.00166367
0.00139497
0.00140034
0.00156237
0.00179632
0.00194564
0.00173407
0.00175208
0.00196169
0.00180311
0.00182752
0.00162026
0.00157829
0.0014987
0.00141929
0.00123665
0.00137995
0.00110097
0.000922309
0.000747375
0.000552213
0.0170164
0.0189419
0.0208042
0.0221209
0.0229329
0.023285
0.0234298
0.0232308
0.0227496
0.0221102
0.0213935
0.0204441
0.0194949
0.0187666
0.0173981
0.0155853
0.0135777
0.0113987
0.008379
0.00614084
0.014615
0.0164628
0.018267
0.0192611
0.019921
0.0202074
0.020533
0.0203456
0.0197035
0.0191561
0.018923
0.0180101
0.0170085
0.0161254
0.0151597
0.0135699
0.0117645
0.00992133
0.00728788
0.00519634
0.0126128
0.0140698
0.0155887
0.0164644
0.0170507
0.0175613
0.0174377
0.0172787
0.0169129
0.0165167
0.0159773
0.0154136
0.0146111
0.0139038
0.0129373
0.0116638
0.0100173
0.00844941
0.00623328
0.00436382
0.0105037
0.0115829
0.012676
0.0134289
0.0140596
0.0143659
0.0143704
0.0144561
0.0141184
0.0135843
0.0132763
0.0126835
0.0122092
0.0112934
0.0104645
0.00950224
0.00826028
0.00665857
0.00501463
0.00388494
0.00812843
0.008999
0.0102313
0.0105749
0.0111904
0.0114038
0.0113574
0.0111738
0.0112053
0.0108628
0.0102953
0.0100387
0.00961146
0.00895375
0.00830518
0.00742493
0.00659477
0.00542706
0.00391951
0.00291804
0.00609564
0.00674939
0.00726098
0.00776772
0.00801575
0.0081768
0.00838682
0.00830277
0.00811335
0.00775422
0.00761349
0.00734146
0.00694734
0.00648877
0.00625315
0.00548452
0.0049162
0.00372544
0.00297722
0.00207617
0.00364968
0.00399105
0.00480101
0.00488809
0.00475466
0.00501878
0.00515776
0.00501885
0.00498608
0.00463968
0.0045938
0.00447959
0.0043518
0.00407543
0.00381125
0.00333203
0.00287015
0.00242638
0.00187108
0.00128576
0.00125794
0.00135411
0.00145069
0.00162854
0.00177613
0.00165627
0.00167977
0.00170366
0.00155766
0.00160171
0.00162183
0.00164433
0.00140035
0.00151957
0.00129531
0.0011008
0.000936272
0.000735041
0.000762948
0.00032174
0.0140597
0.0164138
0.0182192
0.0197713
0.0207996
0.0214552
0.0217599
0.021713
0.0213281
0.020907
0.0200406
0.019237
0.0182978
0.017159
0.0156054
0.0135994
0.0115497
0.00903314
0.00602527
0.00343208
0.0125098
0.0143117
0.0158608
0.017507
0.0182077
0.0188987
0.0189905
0.0189044
0.0186909
0.0180836
0.0174739
0.0169243
0.015932
0.0149626
0.0135133
0.0117657
0.0100844
0.00776984
0.00529415
0.00276005
0.0104706
0.0119536
0.0134817
0.0148664
0.0156339
0.0158972
0.0163103
0.0161466
0.0162059
0.0155694
0.0148411
0.0144408
0.0134963
0.0126381
0.0117764
0.0101027
0.00842077
0.00666098
0.00448241
0.00235351
0.0087058
0.00998157
0.0113101
0.0122003
0.0128078
0.0132564
0.0134988
0.0133104
0.0133169
0.0129315
0.0124338
0.0118299
0.0110815
0.0104507
0.00961935
0.00839297
0.00708902
0.00528345
0.00367734
0.00199113
0.00683559
0.00777759
0.00896822
0.00959742
0.0103535
0.0103322
0.0104957
0.0106547
0.0106744
0.0102658
0.00973869
0.00921657
0.00878092
0.00823071
0.00762202
0.00650015
0.00510482
0.00444983
0.00303067
0.00150918
0.00492056
0.00548013
0.00639138
0.00681787
0.00722194
0.007639
0.00767605
0.00762739
0.00758851
0.00730395
0.0071052
0.00685331
0.00616731
0.00585543
0.00533756
0.00480338
0.00378687
0.00315717
0.00210706
0.00103506
0.00288257
0.00349612
0.00395215
0.00426232
0.00447492
0.00460175
0.00482092
0.00473344
0.00469351
0.004438
0.00425649
0.00423028
0.00397627
0.0037983
0.00324316
0.00275822
0.00253643
0.00163162
0.00129462
0.000716677
0.00104614
0.00115452
0.00112436
0.00151263
0.00158897
0.00156591
0.0016971
0.00144357
0.00154666
0.00151853
0.00157038
0.00143307
0.00138224
0.00133152
0.0011486
0.000692624
0.000826664
0.000606538
0.00050592
0.000208713
0.0105551
0.0130791
0.0150523
0.0170072
0.0181959
0.0190906
0.0192472
0.0196333
0.0192903
0.0188928
0.0181718
0.0170323
0.0159538
0.0146592
0.0132352
0.0110026
0.00870397
0.00594737
0.00307055
9.96329e-05
0.00938969
0.0111826
0.0133207
0.0147134
0.015824
0.0164377
0.0171072
0.017262
0.0167959
0.0163068
0.0157567
0.014953
0.0140179
0.0127636
0.011381
0.00974516
0.00735716
0.00484472
0.00252453
4.95501e-05
0.0078741
0.00947956
0.010962
0.0126948
0.0135363
0.0141991
0.0144894
0.0142912
0.0141323
0.0140832
0.0134784
0.0129434
0.0119063
0.0106845
0.00963002
0.00816192
0.00625036
0.00429316
0.00194133
5.24729e-05
0.00642229
0.00779263
0.00926407
0.0103596
0.0112601
0.01168
0.0119728
0.012195
0.0120152
0.0114066
0.0110754
0.0105236
0.00971298
0.00903573
0.00790141
0.00666502
0.00516799
0.0035652
0.00150353
0.000142458
0.00514644
0.00606187
0.00691671
0.00798733
0.00875272
0.0091982
0.00925518
0.00941376
0.00931292
0.00921481
0.00868044
0.00842132
0.00745589
0.00697382
0.00619488
0.0052346
0.00407248
0.00282963
0.00131693
7.52394e-05
0.00366307
0.00425899
0.00537067
0.00585632
0.00637053
0.00657681
0.00669052
0.00661553
0.00683036
0.00682199
0.00654028
0.00598232
0.00565877
0.00488823
0.0043576
0.00365565
0.00276559
0.00190316
0.000753321
0.000208571
0.00235516
0.00288367
0.00309326
0.00341939
0.00404313
0.00407911
0.00406841
0.00439234
0.00419437
0.00407248
0.00412684
0.00374658
0.00351132
0.00314965
0.00272403
0.00228486
0.00182837
0.00115941
0.000556592
0.000130197
0.00061445
0.000942113
0.00107436
0.00107513
0.00147545
0.00147512
0.00156743
0.00136803
0.00154694
0.00160446
0.00130251
0.00116016
0.0011784
0.000859004
0.000944808
0.000969844
0.000559521
0.00044166
0.000229483
0.000216676
0.00654569
0.00882926
0.0111504
0.0133183
0.0145083
0.0156503
0.0159573
0.0162803
0.0161366
0.0157406
0.0150649
0.0139918
0.0129015
0.0115951
0.00971264
0.0074562
0.00502307
0.00208522
0.00125413
0.00388231
0.0055146
0.00753036
0.00953372
0.0115283
0.0126171
0.0135094
0.0140347
0.0142407
0.0141477
0.0137179
0.0130588
0.0120796
0.0112092
0.00970932
0.00823666
0.00649394
0.00421317
0.00181539
0.00113055
0.0038714
0.00469311
0.00624629
0.00813931
0.00943426
0.0106347
0.0113768
0.0118623
0.01194
0.0120969
0.0117222
0.0111306
0.0105714
0.00959569
0.00852471
0.00728171
0.00530207
0.00343047
0.00139474
0.0011011
0.00322894
0.00374786
0.00519633
0.00659555
0.0078473
0.00873933
0.00938963
0.00988372
0.00993264
0.00980228
0.00968818
0.00910838
0.00866551
0.00779886
0.00696824
0.00579835
0.00434143
0.00282228
0.00110573
0.001236
0.00291215
0.00285429
0.00398384
0.00508078
0.00605023
0.00695313
0.00729448
0.00772273
0.00785113
0.00788387
0.00747695
0.00708707
0.00679363
0.0063759
0.00539495
0.00466596
0.00344411
0.00218348
0.000841687
0.000867446
0.0021865
0.00192189
0.00279502
0.00380547
0.00430557
0.00506296
0.00560555
0.00571712
0.00582723
0.00557396
0.00550743
0.00515833
0.00498702
0.00455927
0.00374194
0.00342121
0.00243508
0.00161011
0.000477041
0.000656925
0.00162032
0.00126393
0.00179796
0.00213366
0.00249559
0.00309268
0.00329159
0.00349536
0.00347712
0.00327103
0.00329326
0.0031171
0.00309457
0.00262557
0.00208717
0.00217878
0.0015115
0.000980593
0.000264682
0.000493515
0.000896504
0.000432656
0.000752744
0.000780315
0.000828845
0.000968879
0.000929544
0.00116669
0.00130711
0.0008294
0.000995209
0.000980817
0.00116391
0.00108907
0.000895195
0.000573706
0.000435697
0.000390779
6.23565e-05
0.000178984
0.000207803
0.00142496
0.00390354
0.00654868
0.00856765
0.0103288
0.0114091
0.0122166
0.0123692
0.0122153
0.0119086
0.0111698
0.0102608
0.0090323
0.00753877
0.00541663
0.00325431
0.00063404
0.00244041
0.00586675
0.00893887
0.00100996
0.0032223
0.00552613
0.00741491
0.00878926
0.00975938
0.0104185
0.0108201
0.0105257
0.010376
0.00973641
0.00896936
0.00756694
0.0065416
0.00458836
0.0026884
0.000340168
0.00246214
0.00550168
0.00808928
0.000874023
0.00264346
0.00459255
0.00598147
0.00747979
0.00815787
0.00895578
0.00914464
0.00911396
0.00876415
0.00809981
0.00752866
0.00651311
0.00514798
0.00383443
0.00204977
0.000205852
0.00217458
0.00467333
0.00686199
0.000648185
0.00185982
0.00370879
0.00486225
0.00604817
0.00694529
0.00739039
0.00738431
0.00740693
0.00724075
0.00664506
0.00629855
0.00535287
0.0041425
0.00297529
0.00179361
0.000147139
0.00224859
0.00382411
0.00600562
0.000262188
0.0013599
0.00276553
0.0037731
0.0048366
0.00525952
0.00567516
0.00593821
0.00562236
0.00566331
0.00510023
0.00473199
0.00417912
0.00347141
0.00249943
0.00154048
0.000101865
0.00165579
0.0033362
0.00481296
0.000177125
0.00101512
0.00192586
0.00290975
0.00337941
0.00378223
0.00408196
0.00422025
0.00429176
0.00391629
0.00373145
0.00371714
0.00290248
0.00246656
0.00182146
0.000771852
3.07788e-05
0.00124515
0.00225185
0.00354626
4.95504e-05
0.000807277
0.00111548
0.00168532
0.00188054
0.00240698
0.00231698
0.00247953
0.00256828
0.00241193
0.00234049
0.00193692
0.00163332
0.00143075
0.00106278
0.000593417
7.98059e-05
0.000755752
0.00152282
0.00209909
0.00019762
0.000189623
0.000199363
0.00045219
0.000757033
0.000752286
0.00082585
0.000781977
0.00102672
0.000819045
0.000698263
0.000691914
0.0007513
0.000478793
0.000274077
0.000122178
0.000131663
0.000463028
0.00041042
0.000626044
0.00391469
0.00161253
0.00106238
0.00327731
0.0048989
0.00623792
0.00713213
0.00783268
0.00750404
0.00728945
0.00669228
0.0054622
0.00435571
0.00245644
0.000771541
0.00179443
0.00432242
0.00789701
0.011304
0.0142805
0.00381816
0.00176645
0.000574558
0.0025228
0.00431413
0.00524174
0.00604617
0.00660134
0.00644127
0.00608849
0.00575021
0.00469526
0.00380371
0.00220528
0.000350643
0.00182798
0.00428652
0.00710261
0.0101285
0.0128795
0.00358153
0.00170605
0.000115523
0.00217691
0.00338399
0.00442481
0.00505085
0.00545436
0.00548095
0.00519342
0.00462839
0.00383692
0.00292221
0.00163689
0.000180157
0.00160041
0.00391469
0.00622175
0.00890184
0.0110446
0.00304913
0.00162203
0.000214718
0.00161939
0.00273488
0.00359903
0.004084
0.00426238
0.00437067
0.00409609
0.00388656
0.00310655
0.00239409
0.00117432
1.76321e-05
0.00165988
0.00316663
0.00517965
0.00767702
0.00941198
0.00263766
0.0014039
9.18908e-05
0.0010998
0.00186284
0.00255471
0.00313759
0.00329069
0.00353966
0.00331251
0.00281695
0.00254558
0.00188581
0.000969576
9.17073e-05
0.00133342
0.00255211
0.00424913
0.00609012
0.00724798
0.00182089
0.000873485
1.34148e-05
0.000808426
0.00143786
0.00177543
0.00227234
0.00226905
0.00242501
0.00224013
0.00211283
0.0019271
0.00129897
0.00083404
0.00014399
0.000870182
0.00211884
0.00320577
0.00458951
0.00554683
0.00105484
0.000460737
0.000126278
0.00055285
0.000691256
0.00107322
0.00142182
0.00146355
0.00155164
0.00149105
0.00139049
0.000857957
0.000954591
0.000354572
7.57154e-05
0.000464063
0.00145178
0.00216624
0.00266138
0.00338959
0.000357837
0.000298784
5.35725e-05
4.81605e-05
9.33556e-05
0.000377375
0.000260799
0.000736641
0.000637034
0.00028209
0.000337069
0.000204097
0.000446185
6.47516e-06
5.79712e-05
0.000128125
0.000390584
0.000790123
0.000930133
0.00132491
0.0106426
0.00793315
0.00512507
0.00271528
0.0008577
0.000459293
0.00165744
0.00185968
0.0022407
0.00173137
0.00122925
0.000165255
0.00114639
0.00266551
0.0049535
0.0074493
0.0104056
0.013768
0.0170647
0.0205104
0.00932315
0.00701078
0.00472339
0.00255432
0.000963232
0.000221134
0.00129699
0.00151904
0.0016109
0.00139212
0.00088849
1.68215e-05
0.00108688
0.00267761
0.00478792
0.0069186
0.00937913
0.012385
0.0153443
0.018135
0.0083831
0.00630707
0.0045518
0.00242232
0.000973871
8.197e-05
0.000797285
0.00113313
0.00134741
0.00124928
0.000433096
2.89025e-05
0.00123172
0.00264092
0.0041222
0.00597164
0.00841612
0.010693
0.0135154
0.0157496
0.00719085
0.00559793
0.00395624
0.00213808
0.00106484
0.000182553
0.000584092
0.000963734
0.000812991
0.000770432
0.000250121
0.000402358
0.000797711
0.0021554
0.00388703
0.00517131
0.00717167
0.00924154
0.0113912
0.0133075
0.00584378
0.00451147
0.00316144
0.0018717
0.000945852
0.00012435
0.000202062
0.000557478
0.000609899
0.000500502
0.000124415
0.000335914
0.00117144
0.00189077
0.0026771
0.00407016
0.00591778
0.00748989
0.0092158
0.0108572
0.00426295
0.00362584
0.00220426
0.00153193
0.000653402
0.000103547
0.000418005
0.000225114
0.00043028
0.0001802
9.04091e-05
0.000303484
0.000738079
0.00155315
0.00236289
0.00294426
0.00422878
0.00556614
0.00669542
0.00790941
0.00244794
0.00205739
0.00144558
0.00107057
0.000573461
1.46335e-05
0.000189506
0.000199341
0.000223441
0.000193082
1.36981e-05
0.000106186
0.000471197
0.000970171
0.00135389
0.0018078
0.0026535
0.0033931
0.00391479
0.00507503
0.000901644