/*--------------------------------*- C++ -*----------------------------------*\
| =========                 |                                                 |
| \\      /  F ield         | OpenFOAM: The Open Source CFD Toolbox           |
|  \\    /   O peration     | Version:  2212                                  |
|   \\  /    A nd           | Website:  www.openfoam.com                      |
|    \\/     M anipulation  |                                                 |
\*---------------------------------------------------------------------------*/
FoamFile
{
    version     2.0;
    format      ascii;
    arch        "LSB;label=32;scalar=64";
    class       volScalarField;
    location    "0";
    object      stateMean;
}
// * * * * * * * * * * * * * * * * * * * * * * * * * * * * * * * * * * * * * //

dimensions      [0 0 0 1 0 0 0];

internalField   nonuniform List<scalar> 
3200
(
350.501
351.502
352.439
353.341
354.075
354.585
355.102
355.343
355.385
355.255
355.028
354.596
354.035
353.325
352.448
351.483
350.331
349.117
347.849
346.722
343.741
344.571
345.441
346.204
346.804
347.25
347.695
347.941
347.892
347.951
347.64
347.314
346.815
346.198
345.51
344.601
343.653
342.592
341.509
340.49
337.083
337.671
338.465
339.098
339.599
340.097
340.3
340.553
340.584
340.533
340.354
340.045
339.664
339.016
338.461
337.726
337.002
336.11
335.09
334.306
330.327
330.861
331.488
331.989
332.339
332.84
333.036
333.158
333.174
333.116
333.031
332.754
332.466
332.047
331.477
330.834
330.23
329.467
328.723
328.166
323.564
324.043
324.424
324.834
325.216
325.444
325.701
325.764
325.831
325.769
325.654
325.494
325.187
324.889
324.468
324.061
323.54
322.954
322.392
321.831
316.822
317.142
317.471
317.756
318.045
318.151
318.357
318.374
318.438
318.442
318.384
318.234
318.007
317.84
317.51
317.206
316.83
316.418
315.991
315.583
310.159
310.281
310.406
310.646
310.883
310.945
311.049
311.096
311.053
311.099
310.999
310.981
310.791
310.718
310.492
310.317
310.064
309.805
309.601
309.341
303.356
303.483
303.465
303.582
303.646
303.706
303.754
303.714
303.706
303.694
303.632
303.717
303.6
303.615
303.576
303.434
303.435
303.229
303.152
303.1
351.483
352.362
353.469
354.411
355.148
355.72
356.14
356.406
356.41
356.33
356.126
355.669
355.114
354.41
353.516
352.456
351.377
350.129
348.817
347.665
344.527
345.379
346.252
347.061
347.709
348.224
348.662
348.835
348.84
348.83
348.554
348.268
347.738
347.145
346.348
345.465
344.508
343.419
342.37
341.326
337.665
338.38
339.078
339.793
340.293
340.786
341.092
341.299
341.283
341.202
341.143
340.766
340.425
339.802
339.226
338.468
337.635
336.729
335.785
334.923
330.837
331.37
331.961
332.459
332.976
333.363
333.631
333.696
333.783
333.713
333.566
333.388
333.044
332.533
332.004
331.457
330.794
330.06
329.257
328.664
323.999
324.344
324.756
325.263
325.581
325.905
326.121
326.255
326.283
326.305
326.216
325.884
325.649
325.358
324.913
324.433
323.901
323.243
322.72
322.23
317.163
317.407
317.782
318.04
318.422
318.462
318.713
318.762
318.77
318.766
318.701
318.534
318.3
318.103
317.843
317.476
317.088
316.651
316.202
315.93
310.276
310.472
310.639
310.775
311.017
311.133
311.204
311.224
311.265
311.271
311.173
311.151
311.065
310.838
310.659
310.478
310.235
309.997
309.767
309.547
303.421
303.51
303.628
303.607
303.744
303.722
303.828
303.784
303.763
303.836
303.739
303.693
303.691
303.636
303.603
303.543
303.441
303.355
303.281
303.175
352.742
353.82
354.8
355.761
356.493
357.089
357.539
357.868
357.97
357.759
357.58
357.103
356.605
355.815
354.866
353.89
352.728
351.435
350.101
348.931
345.711
346.495
347.422
348.199
348.913
349.397
349.828
349.999
350.106
349.973
349.887
349.404
349.004
348.285
347.559
346.642
345.661
344.538
343.351
342.304
338.574
339.249
340.051
340.71
341.381
341.744
342.125
342.235
342.409
342.252
342.075
341.834
341.319
340.796
340.247
339.448
338.529
337.675
336.727
335.916
331.535
332.152
332.719
333.333
333.806
334.12
334.368
334.563
334.602
334.545
334.446
334.145
333.84
333.371
332.866
332.231
331.53
330.799
329.979
329.329
324.645
324.977
325.491
325.825
326.233
326.495
326.702
326.84
326.91
326.827
326.772
326.573
326.317
325.886
325.558
325.033
324.569
323.927
323.344
322.879
317.559
317.724
318.197
318.463
318.68
318.937
319.101
319.179
319.231
319.15
319.069
318.981
318.804
318.555
318.134
317.959
317.533
317.079
316.675
316.292
310.505
310.746
310.896
311.069
311.242
311.389
311.434
311.486
311.535
311.53
311.502
311.358
311.309
311.125
310.961
310.737
310.522
310.282
310.018
309.861
303.552
303.609
303.645
303.701
303.79
303.796
303.823
303.808
303.887
303.85
303.813
303.834
303.749
303.728
303.669
303.608
303.523
303.443
303.368
303.314
354.133
355.146
356.19
357.18
357.994
358.615
359.076
359.347
359.458
359.376
359.113
358.777
358.103
357.33
356.37
355.298
354.081
352.835
351.401
350.227
346.808
347.67
348.578
349.459
350.165
350.701
351.102
351.368
351.436
351.354
351.091
350.718
350.273
349.628
348.744
347.903
346.828
345.759
344.559
343.53
339.637
340.247
341.074
341.73
342.406
342.813
343.184
343.376
343.456
343.455
343.198
342.892
342.524
341.966
341.306
340.488
339.656
338.696
337.711
336.824
332.417
332.96
333.503
334.172
334.623
334.951
335.278
335.502
335.534
335.426
335.279
335.09
334.772
334.274
333.643
333.16
332.422
331.583
330.776
330.118
325.14
325.618
326.118
326.547
326.966
327.208
327.369
327.542
327.524
327.54
327.434
327.239
326.956
326.645
326.225
325.687
325.168
324.616
323.915
323.431
318.034
318.275
318.635
318.914
319.171
319.459
319.536
319.697
319.729
319.656
319.559
319.49
319.306
319.063
318.665
318.342
317.986
317.46
317.088
316.745
310.744
310.966
311.061
311.364
311.472
311.69
311.719
311.807
311.814
311.812
311.758
311.652
311.582
311.375
311.251
311.021
310.823
310.53
310.277
310.072
303.618
303.659
303.726
303.826
303.916
303.914
303.944
303.979
303.883
303.966
303.94
303.981
303.946
303.853
303.799
303.705
303.586
303.485
303.422
303.368
355.473
356.473
357.683
358.626
359.473
360.094
360.622
360.9
361.016
360.88
360.587
360.199
359.642
358.875
357.941
356.782
355.619
354.175
352.785
351.608
347.999
348.961
349.859
350.67
351.421
352.079
352.4
352.727
352.82
352.641
352.449
352.006
351.581
350.912
350.122
349.139
348.111
346.895
345.734
344.666
340.584
341.339
342.117
342.841
343.467
343.936
344.278
344.479
344.51
344.53
344.293
343.966
343.556
342.92
342.361
341.512
340.614
339.688
338.692
337.781
333.199
333.713
334.388
334.994
335.439
335.895
336.208
336.382
336.402
336.328
336.188
335.929
335.636
335.163
334.643
333.936
333.306
332.45
331.603
330.871
325.811
326.254
326.714
327.178
327.506
327.854
328.138
328.255
328.309
328.215
328.157
327.958
327.625
327.313
326.868
326.412
325.879
325.231
324.62
324.037
318.387
318.703
319.117
319.345
319.749
319.93
320.092
320.167
320.207
320.2
320.097
320.013
319.747
319.498
319.234
318.799
318.439
318.095
317.552
317.153
311.023
311.209
311.497
311.638
311.83
312.003
312.047
312.109
312.142
312.061
312.022
311.932
311.869
311.733
311.654
311.298
311.056
310.854
310.538
310.363
303.684
303.789
303.811
303.823
303.926
303.967
304.034
304.059
304.054
304.051
304.036
303.911
303.947
303.856
303.91
303.825
303.713
303.619
303.566
303.449
356.758
357.867
358.959
360.036
360.865
361.608
362.01
362.349
362.485
362.354
362.149
361.715
361.028
360.315
359.301
358.275
356.982
355.587
354.108
352.89
349.108
350.05
351.059
351.93
352.664
353.253
353.669
353.944
354.055
353.926
353.757
353.338
352.829
352.168
351.353
350.361
349.298
348.177
346.853
345.737
341.575
342.333
343.098
343.872
344.497
344.965
345.332
345.513
345.648
345.574
345.462
345.113
344.662
344.107
343.332
342.56
341.701
340.607
339.557
338.737
333.93
334.555
335.188
335.831
336.301
336.757
337.082
337.206
337.24
337.187
337.049
336.871
336.534
335.982
335.415
334.79
334.032
333.263
332.388
331.652
326.37
326.883
327.323
327.845
328.201
328.479
328.753
328.979
328.974
328.959
328.851
328.581
328.365
328.046
327.526
327.022
326.479
325.816
325.175
324.642
318.819
319.192
319.548
319.908
320.179
320.319
320.601
320.687
320.756
320.705
320.652
320.442
320.202
320.054
319.694
319.328
318.929
318.423
317.929
317.625
311.314
311.495
311.719
311.862
312.054
312.244
312.357
312.348
312.368
312.387
312.416
312.287
312.176
312.023
311.819
311.572
311.329
311.098
310.784
310.623
303.751
303.835
303.919
304.013
304.074
304.093
304.099
304.169
304.185
304.166
304.182
304.094
304.071
304.052
304.029
303.976
303.839
303.727
303.685
303.559
358.014
359.104
360.323
361.389
362.254
362.986
363.454
363.736
363.83
363.791
363.564
363.23
362.459
361.77
360.737
359.577
358.345
356.906
355.465
354.111
350.264
351.18
352.086
353.061
353.832
354.415
354.871
355.163
355.254
355.226
355.006
354.593
354.062
353.396
352.513
351.535
350.526
349.254
348.021
346.801
342.465
343.165
344.054
344.805
345.417
345.959
346.351
346.606
346.713
346.646
346.424
346.123
345.681
345.03
344.382
343.572
342.623
341.625
340.509
339.64
334.736
335.249
335.936
336.567
337.159
337.639
337.847
338.056
338.111
338.063
337.951
337.766
337.26
336.864
336.311
335.556
334.867
333.989
333.172
332.402
326.955
327.472
327.984
328.416
328.85
329.174
329.48
329.647
329.611
329.611
329.52
329.235
329.067
328.646
328.17
327.723
327.077
326.42
325.723
325.173
319.286
319.581
319.93
320.353
320.605
320.81
321.007
321.057
321.152
321.086
320.977
320.989
320.755
320.435
320.115
319.758
319.36
318.892
318.38
317.99
311.553
311.676
312.052
312.048
312.422
312.474
312.61
312.676
312.726
312.724
312.629
312.569
312.428
312.313
312.007
311.862
311.626
311.283
311.046
310.896
303.902
303.957
303.96
304.076
304.148
304.209
304.222
304.325
304.28
304.215
304.227
304.184
304.138
304.029
304.036
303.987
303.854
303.759
303.733
303.686
359.257
360.394
361.538
362.631
363.519
364.25
364.825
365.122
365.226
365.168
364.905
364.469
363.813
363.008
362.03
360.886
359.527
358.071
356.618
355.192
351.304
352.194
353.229
354.175
354.922
355.56
356.054
356.337
356.501
356.423
356.166
355.726
355.301
354.527
353.675
352.648
351.545
350.26
349.068
347.854
343.347
344.11
345.038
345.691
346.435
346.877
347.317
347.567
347.703
347.663
347.456
347.166
346.696
346.087
345.342
344.546
343.508
342.532
341.414
340.471
335.392
336.01
336.696
337.387
337.881
338.364
338.738
338.873
339.04
338.975
338.8
338.477
338.144
337.664
337.044
336.366
335.581
334.733
333.915
333.159
327.483
327.946
328.524
328.938
329.463
329.807
330.045
330.205
330.228
330.266
330.117
329.892
329.609
329.285
328.813
328.194
327.672
327.057
326.396
325.773
319.604
320.058
320.338
320.762
320.996
321.23
321.425
321.51
321.646
321.546
321.517
321.364
321.125
320.923
320.566
320.193
319.794
319.263
318.782
318.397
311.821
312.036
312.252
312.423
312.583
312.745
312.832
312.96
312.95
312.947
312.933
312.819
312.709
312.475
312.398
312.117
311.885
311.611
311.241
310.999
303.968
304.023
304.094
304.158
304.311
304.36
304.259
304.346
304.337
304.309
304.34
304.3
304.239
304.193
304.123
304.083
303.973
303.893
303.747
303.682
360.307
361.399
362.649
363.786
364.738
365.503
366.101
366.401
366.459
366.453
366.24
365.711
365.029
364.233
363.367
362.037
360.758
359.277
357.682
356.319
352.168
353.132
354.225
355.142
355.894
356.616
357.086
357.395
357.54
357.561
357.2
356.774
356.258
355.559
354.691
353.706
352.578
351.214
349.874
348.776
344.106
344.922
345.847
346.636
347.239
347.876
348.28
348.467
348.574
348.556
348.392
347.975
347.608
346.939
346.148
345.307
344.446
343.326
342.195
341.272
336.031
336.656
337.397
338.104
338.629
339.052
339.385
339.59
339.694
339.607
339.545
339.256
338.878
338.403
337.785
337.044
336.331
335.406
334.495
333.76
328.059
328.496
329.084
329.563
330.003
330.352
330.593
330.834
330.856
330.832
330.713
330.469
330.217
329.829
329.389
328.77
328.192
327.45
326.82
326.323
319.942
320.324
320.771
321.11
321.4
321.632
321.911
321.991
322.08
322.048
321.878
321.768
321.547
321.247
320.99
320.544
320.118
319.656
319.178
318.746
311.988
312.227
312.473
312.708
312.853
313.045
313.145
313.223
313.221
313.227
313.189
313.041
312.911
312.789
312.601
312.365
312.055
311.788
311.511
311.25
304.057
304.056
304.16
304.215
304.307
304.362
304.416
304.412
304.447
304.435
304.37
304.405
304.339
304.309
304.167
304.088
304.065
303.979
303.851
303.752
361.355
362.534
363.744
364.939
365.861
366.606
367.127
367.511
367.63
367.603
367.404
366.9
366.293
365.353
364.421
363.215
361.827
360.398
358.755
357.349
353.109
354.012
355.088
356.149
356.948
357.483
358.064
358.367
358.548
358.437
358.228
357.848
357.259
356.613
355.695
354.693
353.503
352.261
350.873
349.761
344.842
345.571
346.537
347.399
348.118
348.692
349.115
349.27
349.448
349.42
349.275
348.877
348.399
347.767
347.09
346.244
345.247
344.179
342.983
342.043
336.64
337.28
338.044
338.756
339.28
339.741
340.059
340.344
340.413
340.328
340.144
339.918
339.573
339.087
338.446
337.733
336.96
336.035
335.104
334.358
328.51
328.946
329.567
330.084
330.462
330.894
331.185
331.355
331.413
331.384
331.202
330.994
330.776
330.34
329.935
329.398
328.717
328.077
327.271
326.803
320.334
320.733
321.083
321.456
321.784
322.035
322.282
322.373
322.402
322.403
322.346
322.148
321.978
321.654
321.313
320.925
320.489
319.992
319.513
319.059
312.145
312.415
312.642
312.889
313.076
313.212
313.343
313.481
313.445
313.463
313.401
313.341
313.155
313.047
312.855
312.532
312.295
312.049
311.71
311.461
304.093
304.126
304.22
304.338
304.43
304.411
304.456
304.553
304.529
304.549
304.486
304.461
304.413
304.355
304.26
304.258
304.126
304.025
303.928
303.837
362.254
363.448
364.745
365.881
366.835
367.589
368.201
368.589
368.744
368.683
368.425
367.913
367.243
366.524
365.474
364.2
362.823
361.384
359.681
358.38
353.798
354.872
356.045
356.969
357.772
358.415
359.013
359.344
359.402
359.355
359.273
358.805
358.169
357.463
356.642
355.544
354.343
353.127
351.668
350.514
345.516
346.368
347.344
348.128
348.812
349.445
349.81
350.091
350.203
350.191
350.005
349.687
349.173
348.595
347.857
346.964
345.92
344.902
343.691
342.701
337.228
337.874
338.61
339.257
339.862
340.338
340.673
340.975
341.056
340.977
340.873
340.574
340.22
339.64
339.029
338.335
337.527
336.598
335.68
335.019
328.887
329.389
330.079
330.497
331.004
331.364
331.607
331.758
331.919
331.885
331.699
331.536
331.245
330.819
330.349
329.771
329.196
328.509
327.731
327.187
320.691
321.053
321.421
321.8
322.097
322.355
322.606
322.73
322.777
322.718
322.673
322.53
322.297
321.999
321.74
321.289
320.89
320.293
319.85
319.41
312.397
312.595
312.969
313.127
313.216
313.422
313.575
313.622
313.676
313.601
313.587
313.518
313.414
313.237
313.046
312.773
312.498
312.23
311.935
311.661
304.157
304.216
304.287
304.385
304.473
304.477
304.522
304.559
304.537
304.561
304.567
304.563
304.467
304.473
304.368
304.268
304.175
304.069
304.037
303.873
362.996
364.31
365.542
366.712
367.688
368.496
369.114
369.512
369.668
369.668
369.355
368.911
368.277
367.452
366.386
365.094
363.755
362.244
360.587
359.192
354.614
355.644
356.69
357.797
358.568
359.305
359.777
360.105
360.284
360.202
359.986
359.66
359.055
358.355
357.406
356.299
355.187
353.849
352.482
351.2
346.091
346.929
347.876
348.798
349.504
350.012
350.524
350.771
351.006
350.898
350.646
350.396
349.856
349.258
348.592
347.601
346.583
345.534
344.368
343.311
337.695
338.386
339.175
339.838
340.404
340.895
341.278
341.461
341.639
341.6
341.432
341.137
340.71
340.252
339.671
338.92
338.122
337.154
336.274
335.447
329.292
329.803
330.458
330.947
331.476
331.732
332.021
332.264
332.407
332.343
332.17
331.927
331.648
331.276
330.843
330.212
329.474
328.978
328.25
327.55
320.905
321.228
321.708
322.046
322.374
322.696
322.875
322.996
323.08
323.039
322.976
322.844
322.528
322.291
321.959
321.6
321.076
320.674
320.15
319.665
312.511
312.788
313.043
313.261
313.446
313.598
313.767
313.821
313.867
313.818
313.761
313.723
313.585
313.448
313.174
312.911
312.722
312.32
312.102
311.836
304.211
304.272
304.301
304.459
304.522
304.553
304.626
304.576
304.627
304.629
304.645
304.593
304.557
304.515
304.426
304.25
304.25
304.143
304.075
303.956
363.71
365.055
366.303
367.57
368.552
369.395
369.909
370.423
370.562
370.554
370.292
369.741
369.086
368.244
367.272
365.949
364.569
363.017
361.448
359.875
355.222
356.222
357.439
358.415
359.285
359.95
360.584
360.961
361.024
360.969
360.773
360.369
359.81
359.044
358.159
357.135
355.817
354.449
353.172
351.901
346.637
347.494
348.395
349.401
350.095
350.702
351.137
351.34
351.478
351.56
351.351
351.066
350.514
349.82
349.122
348.238
347.178
346.096
344.899
343.911
338.101
338.807
339.618
340.321
340.953
341.405
341.777
342.073
342.169
342.046
341.934
341.665
341.235
340.785
340.129
339.404
338.573
337.701
336.692
335.895
329.649
330.136
330.662
331.273
331.781
332.166
332.397
332.622
332.711
332.741
332.565
332.417
331.977
331.646
331.178
330.624
329.986
329.32
328.579
327.936
321.152
321.475
322.006
322.347
322.694
322.93
323.117
323.216
323.373
323.414
323.324
323.1
322.909
322.539
322.218
321.823
321.356
320.896
320.353
319.913
312.736
312.98
313.15
313.362
313.666
313.78
313.867
314.041
314.032
314.021
314.038
313.892
313.766
313.58
313.356
313.117
312.865
312.546
312.254
311.96
304.21
304.335
304.411
304.448
304.606
304.641
304.699
304.662
304.735
304.761
304.669
304.617
304.605
304.483
304.479
304.452
304.291
304.218
304.119
303.957
364.408
365.636
366.971
368.269
369.204
370.087
370.611
371.062
371.246
371.223
370.976
370.462
369.829
369.02
367.923
366.637
365.255
363.681
361.981
360.632
355.709
356.761
357.896
359.046
359.866
360.588
361.131
361.494
361.664
361.616
361.381
360.927
360.413
359.591
358.712
357.69
356.449
355.16
353.695
352.388
347.105
347.923
348.935
349.757
350.54
351.139
351.608
351.879
352.105
352.064
351.858
351.575
351.064
350.448
349.717
348.69
347.677
346.601
345.382
344.368
338.478
339.192
339.956
340.684
341.285
341.783
342.197
342.413
342.509
342.543
342.346
342.123
341.689
341.209
340.567
339.797
338.985
338.101
337.022
336.232
329.887
330.431
331.018
331.574
332.104
332.434
332.766
332.963
333.083
333.005
332.877
332.723
332.475
331.997
331.567
330.947
330.3
329.622
328.835
328.229
321.301
321.704
322.188
322.518
322.927
323.256
323.429
323.574
323.57
323.588
323.476
323.381
323.166
322.793
322.554
322.082
321.652
321.12
320.596
320.165
312.819
313.059
313.26
313.474
313.76
313.915
314.061
314.121
314.103
314.134
314.079
314.048
313.855
313.62
313.567
313.266
313.001
312.676
312.343
312.144
304.297
304.418
304.458
304.507
304.583
304.602
304.701
304.766
304.636
304.695
304.691
304.738
304.699
304.618
304.494
304.421
304.374
304.24
304.135
304.102
364.861
366.134
367.549
368.751
369.849
370.666
371.331
371.685
371.838
371.834
371.562
371.12
370.46
369.615
368.47
367.259
365.851
364.267
362.57
361.085
356.11
357.209
358.418
359.494
360.378
361.089
361.644
362.045
362.122
362.161
361.932
361.564
360.88
360.256
359.24
358.198
356.969
355.57
354.103
352.873
347.47
348.343
349.348
350.171
351.024
351.569
352.117
352.401
352.544
352.501
352.268
351.99
351.482
350.789
350.061
349.132
348.161
346.995
345.801
344.785
338.808
339.427
340.32
340.989
341.663
342.219
342.591
342.768
342.9
342.908
342.705
342.523
342.076
341.487
340.87
340.218
339.289
338.3
337.501
336.556
330.103
330.625
331.296
331.844
332.407
332.742
333.051
333.276
333.269
333.333
333.147
332.974
332.694
332.322
331.828
331.317
330.563
329.835
329.074
328.428
321.505
321.886
322.327
322.798
323.099
323.368
323.588
323.73
323.823
323.738
323.678
323.638
323.306
323.067
322.737
322.26
321.851
321.306
320.836
320.308
312.866
313.202
313.386
313.658
313.809
314.057
314.103
314.213
314.282
314.255
314.233
314.084
313.948
313.825
313.636
313.406
313.155
312.8
312.472
312.225
304.378
304.398
304.431
304.539
304.661
304.688
304.735
304.741
304.83
304.774
304.738
304.728
304.732
304.63
304.542
304.468
304.361
304.229
304.215
304.127
365.379
366.562
367.954
369.191
370.197
371.067
371.727
372.251
372.316
372.332
372.112
371.562
370.967
370.002
369.052
367.731
366.394
364.661
363.004
361.577
356.522
357.542
358.734
359.798
360.796
361.457
362.032
362.462
362.565
362.521
362.399
361.936
361.455
360.65
359.698
358.589
357.355
355.982
354.547
353.279
347.721
348.612
349.547
350.577
351.299
351.94
352.401
352.738
352.883
352.852
352.654
352.306
351.849
351.204
350.453
349.554
348.446
347.332
346.099
345.117
339.025
339.701
340.569
341.301
341.926
342.447
342.81
343.03
343.178
343.143
343.071
342.746
342.392
341.817
341.213
340.427
339.67
338.732
337.641
336.861
330.287
330.842
331.466
332.057
332.5
332.906
333.253
333.429
333.598
333.566
333.402
333.267
332.962
332.533
332.028
331.439
330.845
330.087
329.289
328.76
321.677
322.086
322.498
322.904
323.243
323.477
323.748
323.835
323.948
323.92
323.879
323.787
323.522
323.283
322.95
322.498
321.959
321.468
320.888
320.476
313.041
313.29
313.474
313.772
313.897
314.093
314.268
314.334
314.399
314.399
314.368
314.181
314.175
313.933
313.732
313.534
313.144
312.835
312.6
312.31
304.373
304.412
304.546
304.573
304.613
304.726
304.712
304.875
304.857
304.755
304.772
304.725
304.787
304.631
304.593
304.546
304.439
304.289
304.22
304.079
365.499
366.809
368.22
369.495
370.552
371.379
372.119
372.43
372.736
372.632
372.445
371.964
371.313
370.513
369.37
368.107
366.646
365.021
363.432
361.854
356.787
357.881
359.028
360.142
361.036
361.758
362.402
362.688
362.865
362.859
362.677
362.275
361.744
360.964
359.946
358.884
357.678
356.264
354.878
353.614
347.931
348.876
349.765
350.793
351.573
352.194
352.662
352.953
353.15
353.179
352.891
352.665
352.12
351.45
350.713
349.814
348.686
347.607
346.345
345.346
339.156
339.875
340.658
341.509
342.098
342.604
343.044
343.316
343.364
343.4
343.222
342.947
342.711
342.105
341.335
340.692
339.787
338.85
337.895
337.066
330.421
330.997
331.618
332.226
332.707
333.14
333.386
333.615
333.709
333.713
333.587
333.394
333.038
332.689
332.289
331.667
330.879
330.178
329.433
328.754
321.744
322.045
322.627
322.972
323.38
323.671
323.938
323.955
324.077
324.024
323.937
323.84
323.643
323.3
322.94
322.638
322.1
321.54
321.053
320.565
313.118
313.297
313.563
313.758
313.988
314.231
314.355
314.406
314.446
314.454
314.389
314.343
314.195
313.99
313.811
313.6
313.261
312.952
312.714
312.293
304.379
304.45
304.52
304.657
304.69
304.788
304.819
304.844
304.798
304.844
304.837
304.823
304.734
304.587
304.564
304.541
304.46
304.336
304.189
304.172
365.684
367.051
368.423
369.714
370.868
371.678
372.315
372.768
372.95
372.94
372.649
372.237
371.575
370.729
369.597
368.338
366.886
365.247
363.624
362.083
356.91
358.047
359.169
360.315
361.216
361.994
362.602
362.98
363.147
363.108
362.84
362.533
361.952
361.105
360.242
359.198
357.898
356.467
355.061
353.844
348.009
348.945
349.987
350.923
351.74
352.358
352.827
353.16
353.346
353.308
353.085
352.835
352.382
351.617
350.893
349.983
348.922
347.701
346.525
345.479
339.311
339.978
340.845
341.537
342.295
342.773
343.136
343.446
343.544
343.586
343.439
343.145
342.773
342.348
341.543
340.815
339.964
338.993
338.037
337.222
330.554
331.07
331.787
332.322
332.814
333.222
333.554
333.73
333.816
333.881
333.744
333.558
333.219
332.751
332.325
331.701
331.097
330.349
329.594
328.981
321.828
322.221
322.705
323.035
323.461
323.694
324.005
324.154
324.191
324.152
324.131
323.926
323.729
323.385
323.102
322.71
322.154
321.678
321.116
320.671
313.023
313.36
313.578
313.881
314.072
314.27
314.384
314.465
314.509
314.543
314.401
314.367
314.203
314.063
313.832
313.613
313.316
313.07
312.751
312.401
304.418
304.426
304.514
304.644
304.718
304.77
304.799
304.795
304.821
304.868
304.833
304.758
304.776
304.759
304.625
304.594
304.426
304.392
304.301
304.173
365.855
367.048
368.463
369.736
370.933
371.733
372.408
372.911
373.056
373.058
372.873
372.379
371.699
370.828
369.76
368.56
366.988
365.483
363.778
362.271
356.99
358.11
359.266
360.385
361.285
362.128
362.629
363.035
363.28
363.239
362.951
362.575
362.082
361.369
360.423
359.302
358.042
356.668
355.235
353.983
348.116
349.05
350.108
350.969
351.781
352.491
352.889
353.279
353.349
353.364
353.209
352.88
352.409
351.744
350.975
350.123
349.101
347.882
346.621
345.532
339.32
340.125
340.902
341.625
342.277
342.79
343.265
343.521
343.558
343.598
343.451
343.234
342.784
342.252
341.582
340.906
340.087
339.155
338.152
337.277
330.538
331.095
331.809
332.35
332.796
333.242
333.6
333.744
333.876
333.88
333.874
333.632
333.329
332.915
332.41
331.743
331.112
330.402
329.708
329
321.869
322.194
322.678
323.098
323.454
323.751
323.982
324.071
324.213
324.202
324.067
324.009
323.852
323.432
323.143
322.8
322.226
321.654
321.164
320.743
313.145
313.344
313.639
313.893
314.103
314.27
314.44
314.422
314.535
314.527
314.504
314.407
314.194
314.094
313.912
313.697
313.345
313.049
312.742
312.369
304.433
304.49
304.557
304.625
304.691
304.817
304.757
304.875
304.888
304.853
304.796
304.832
304.688
304.706
304.648
304.593
304.463
304.318
304.288
304.173
365.839
367.18
368.522
369.792
370.896
371.74
372.43
372.917
373.07
373.062
372.797
372.416
371.727
370.893
369.77
368.565
367.082
365.514
363.727
362.317
357
358.098
359.349
360.408
361.35
362.067
362.669
363.079
363.198
363.305
363.02
362.689
362.023
361.308
360.418
359.305
358.073
356.598
355.278
353.961
348.116
349.112
350.046
351.005
351.746
352.475
352.878
353.329
353.447
353.419
353.229
352.887
352.416
351.739
351.028
350.082
349.071
347.887
346.727
345.619
339.351
340.08
341.025
341.66
342.331
342.822
343.196
343.606
343.609
343.607
343.583
343.221
342.831
342.373
341.739
340.914
340.092
339.172
338.183
337.368
330.525
331.167
331.832
332.356
332.915
333.315
333.588
333.781
333.874
333.915
333.821
333.606
333.3
332.992
332.501
331.764
331.163
330.48
329.691
329.01
321.799
322.219
322.681
323.159
323.452
323.779
323.94
324.164
324.242
324.253
324.155
324.049
323.74
323.479
323.216
322.695
322.215
321.717
321.117
320.708
313.119
313.33
313.571
313.866
314.097
314.272
314.386
314.507
314.521
314.55
314.499
314.381
314.318
314.105
313.917
313.665
313.313
313.053
312.737
312.469
304.419
304.468
304.622
304.666
304.808
304.739
304.834
304.847
304.883
304.923
304.823
304.837
304.796
304.773
304.649
304.622
304.486
304.342
304.197
304.233
)
;

boundaryField
{
    hotSide
    {
        type            fixedGradient;
        gradient        nonuniform List<scalar> 
400
(
321.511
322.87
325.591
329.677
335.133
341.965
350.181
359.788
370.794
383.208
397.037
412.289
428.971
447.088
466.647
487.651
510.105
534.011
559.372
586.191
323.738
325.08
327.767
331.802
337.194
343.949
352.078
361.591
372.498
384.81
398.537
413.687
430.268
448.289
467.755
488.672
511.043
534.872
560.161
586.913
326.149
327.47
330.116
334.091
339.406
346.071
354.099
363.503
374.296
386.491
400.101
415.136
431.606
449.52
468.885
489.706
511.988
535.735
560.948
587.63
328.704
330
332.597
336.503
341.73
348.292
356.205
365.485
376.15
388.215
401.695
416.604
432.954
450.753
470.009
490.73
512.919
536.579
561.714
588.325
331.33
332.599
335.142
338.97
344.099
350.546
358.332
367.477
378.003
389.928
403.271
418.047
434.27
451.949
471.095
491.712
513.807
537.382
562.439
588.978
333.918
335.158
337.643
341.389
346.414
352.74
360.392
369.397
379.779
391.562
404.765
419.407
435.503
453.065
472.101
492.618
514.622
538.114
563.096
589.569
336.321
337.531
339.959
343.622
348.544
354.751
362.274
371.142
381.385
393.031
406.101
420.618
436.595
454.047
472.983
493.409
515.33
538.747
563.663
590.076
338.36
339.543
341.92
345.509
350.339
356.44
363.847
372.595
382.718
394.244
407.2
421.608
437.485
454.844
473.695
494.045
515.897
539.253
564.114
590.478
339.852
341.015
343.352
346.885
351.645
357.665
364.985
373.643
383.675
395.113
407.984
422.312
438.116
455.407
474.197
494.491
516.294
539.606
564.428
590.758
340.643
341.795
344.11
347.613
352.334
358.311
365.584
374.193
384.176
395.567
408.393
422.679
438.443
455.699
474.456
494.722
516.498
539.788
564.589
590.901
340.643
341.795
344.11
347.613
352.334
358.311
365.584
374.193
384.176
395.567
408.393
422.679
438.443
455.699
474.456
494.722
516.498
539.788
564.589
590.901
339.852
341.015
343.352
346.885
351.645
357.665
364.985
373.643
383.675
395.113
407.984
422.312
438.116
455.407
474.197
494.491
516.294
539.606
564.428
590.758
338.36
339.543
341.92
345.509
350.339
356.44
363.847
372.595
382.718
394.244
407.2
421.608
437.485
454.844
473.695
494.045
515.897
539.253
564.114
590.478
336.321
337.531
339.959
343.622
348.544
354.751
362.274
371.142
381.385
393.031
406.101
420.618
436.595
454.047
472.983
493.409
515.33
538.747
563.663
590.076
333.918
335.158
337.643
341.389
346.414
352.74
360.392
369.397
379.779
391.562
404.765
419.407
435.503
453.065
472.101
492.618
514.622
538.114
563.096
589.569
331.33
332.599
335.142
338.97
344.099
350.546
358.332
367.477
378.003
389.928
403.271
418.047
434.27
451.949
471.095
491.712
513.807
537.382
562.439
588.978
328.704
330
332.597
336.503
341.73
348.292
356.205
365.485
376.15
388.215
401.695
416.604
432.954
450.753
470.009
490.73
512.919
536.579
561.714
588.325
326.149
327.47
330.116
334.091
339.406
346.071
354.099
363.503
374.296
386.491
400.101
415.136
431.606
449.52
468.885
489.706
511.988
535.735
560.948
587.63
323.738
325.08
327.767
331.802
337.194
343.949
352.078
361.591
372.498
384.81
398.537
413.687
430.268
448.289
467.755
488.672
511.043
534.872
560.161
586.913
321.511
322.87
325.591
329.677
335.133
341.965
350.181
359.788
370.794
383.208
397.037
412.289
428.971
447.088
466.647
487.651
510.105
534.011
559.372
586.191
)
;
    }
    coldSide
    {
        type            mixed;
        refValue        uniform 300;
        refGradient     uniform 0;
        valueFraction   uniform 0.991591;
        source          uniform 0;
        value           nonuniform List<scalar> 
400
(
300.028
300.029
300.03
300.03
300.031
300.032
300.033
300.033
300.034
300.034
300.035
300.035
300.035
300.036
300.037
300.037
300.037
300.037
300.037
300.037
300.029
300.03
300.03
300.031
300.032
300.032
300.033
300.034
300.034
300.035
300.035
300.036
300.036
300.037
300.037
300.037
300.037
300.037