/*--------------------------------*- C++ -*----------------------------------*\
| =========                 |                                                 |
| \\      /  F ield         | OpenFOAM: The Open Source CFD Toolbox           |
|  \\    /   O peration     | Version:  2212                                  |
|   \\  /    A nd           | Website:  www.openfoam.com                      |
|    \\/     M anipulation  |                                                 |
\*---------------------------------------------------------------------------*/
FoamFile
{
    version     2.0;
    format      ascii;
    arch        "LSB;label=32;scalar=64";
    class       volScalarField;
    location    "0";
    object      T;
}
// * * * * * * * * * * * * * * * * * * * * * * * * * * * * * * * * * * * * * //

dimensions      [0 0 0 1 0 0 0];

internalField   nonuniform List<scalar> 
3200
(
325.591
324.847
324.172
324.18
324.462
324.725
325.172
325.578
325.856
326.15
326.191
326.162
325.761
325.394
324.824
324.44
324.088
324.109
324.569
325.05
322.244
321.647
321.036
321.043
321.26
321.517
321.914
322.228
322.484
322.724
322.79
322.722
322.388
322.076
321.563
321.234
320.922
320.935
321.323
321.7
318.882
318.39
317.866
317.861
318.039
318.28
318.639
318.845
319.067
319.276
319.373
319.265
318.989
318.742
318.298
318.013
317.725
317.754
318.06
318.354
315.483
315.068
314.682
314.664
314.788
315.03
315.305
315.44
315.631
315.797
315.915
315.777
315.572
315.35
315.004
314.746
314.51
314.558
314.805
315.036
312.065
311.734
311.453
311.453
311.531
311.735
311.967
312.036
312.197
312.308
312.406
312.301
312.146
311.957
311.69
311.502
311.298
311.349
311.53
311.71
308.636
308.392
308.194
308.196
308.28
308.416
308.579
308.625
308.729
308.844
308.877
308.807
308.699
308.562
308.353
308.218
308.088
308.135
308.241
308.359
305.18
305.054
304.897
304.92
304.982
305.065
305.171
305.174
305.251
305.314
305.337
305.307
305.23
305.157
305.025
304.932
304.853
304.891
304.957
305.032
301.731
301.705
301.638
301.642
301.674
301.698
301.734
301.737
301.763
301.771
301.794
301.79
301.752
301.731
301.681
301.648
301.624
301.64
301.669
301.697
325.7
324.999
324.399
324.424
324.712
325.004
325.563
325.878
326.357
326.576
326.725
326.512
326.167
325.689
325.129
324.687
324.488
324.402
324.733
325.085
322.357
321.741
321.228
321.254
321.482
321.744
322.226
322.472
322.906
323.086
323.221
323.019
322.71
322.29
321.828
321.441
321.261
321.191
321.45
321.732
318.945
318.429
318.001
318.044
318.216
318.445
318.877
319.048
319.433
319.586
319.696
319.51
319.25
318.908
318.521
318.186
318.027
317.969
318.135
318.392
315.513
315.089
314.761
314.786
314.919
315.114
315.483
315.596
315.923
316.041
316.153
315.991
315.776
315.5
315.198
314.912
314.776
314.753
314.856
315.052
312.06
311.744
311.498
311.526
311.63
311.764
312.082
312.145
312.396
312.494
312.584
312.449
312.278
312.07
311.852
311.627
311.511
311.514
311.574
311.72
308.606
308.395
308.219
308.251
308.307
308.415
308.655
308.685
308.87
308.947
309.022
308.897
308.785
308.642
308.489
308.347
308.239
308.239
308.289
308.383
305.156
305.03
304.931
304.962
304.995
305.057
305.199
305.213
305.325
305.371
305.442
305.34
305.266
305.18
305.098
305.038
304.961
304.981
304.983
305.033
301.718
301.673
301.656
301.669
301.677
301.692
301.746
301.752
301.786
301.807
301.837
301.783
301.764
301.734
301.713
301.686
301.663
301.676
301.677
301.691
326.042
325.255
324.812
324.817
325.084
325.42
326.033
326.47
326.964
327.267
327.277
326.997
326.749
326.342
325.652
325.071
324.73
324.7
325.086
325.477
322.627
321.979
321.6
321.588
321.782
322.087
322.621
322.983
323.41
323.679
323.69
323.421
323.205
322.851
322.267
321.804
321.478
321.448
321.783
322.103
319.174
318.639
318.352
318.342
318.471
318.732
319.197
319.469
319.852
320.092
320.106
319.828
319.658
319.351
318.876
318.502
318.224
318.172
318.449
318.699
315.72
315.265
315.07
315.073
315.114
315.349
315.757
315.949
316.303
316.482
316.504
316.237
316.104
315.863
315.463
315.179
314.959
314.903
315.099
315.288
312.258
311.881
311.735
311.768
311.787
311.969
312.287
312.426
312.698
312.855
312.876
312.647
312.545
312.342
312.04
311.838
311.674
311.623
311.74
311.912
308.764
308.48
308.376
308.434
308.438
308.571
308.788
308.89
309.068
309.196
309.221
309.049
309.014
308.821
308.601
308.466
308.371
308.312
308.377
308.525
305.29
305.103
305.023
305.075
305.071
305.142
305.28
305.349
305.446
305.53
305.542
305.45
305.413
305.292
305.167
305.105
305.032
304.993
305.032
305.099
301.782
301.719
301.675
301.702
301.69
301.723
301.779
301.792
301.817
301.852
301.86
301.827
301.823
301.767
301.737
301.717
301.685
301.67
301.686
301.705
326.626
325.943
325.409
325.43
325.625
326.027
326.642
327.061
327.683
327.917
328.108
327.915
327.467
326.979
326.392
325.786
325.345
325.178
325.396
325.924
323.147
322.595
322.111
322.127
322.274
322.621
323.149
323.49
324.044
324.249
324.403
324.221
323.839
323.418
322.915
322.377
321.99
321.846
322.018
322.48
319.65
319.187
318.794
318.804
318.882
319.179
319.642
319.902
320.36
320.554
320.681
320.504
320.239
319.851
319.4
318.946
318.624
318.523
318.646
319.044
316.121
315.736
315.44
315.431
315.47
315.722
316.107
316.322
316.696
316.824
316.955
316.793
316.624
316.249
315.883
315.505
315.25
315.184
315.276
315.611
312.585
312.267
312.041
312.037
312.033
312.263
312.555
312.695
313.026
313.102
313.214
313.059
312.986
312.625
312.358
312.064
311.874
311.833
311.908
312.153
309.02
308.795
308.641
308.607
308.582
308.774
309.001
309.07
309.333
309.37
309.459
309.31
309.303
309.017
308.829
308.627
308.507
308.471
308.516
308.676
305.424
305.287
305.199
305.19
305.154
305.282
305.404
305.458
305.627
305.636
305.685
305.583
305.596
305.411
305.301
305.181
305.125
305.104
305.136
305.206
301.821
301.765
301.743
301.744
301.728
301.77
301.806
301.839
301.892
301.9
301.907
301.88
301.869
301.816
301.779
301.733
301.718
301.71
301.728
301.732
327.279
326.646
326.162
326.09
326.361
326.794
327.345
327.843
328.593
328.837
329.067
328.886
328.434
327.92
327.166
326.563
326.118
326.047
326.133
326.637
323.677
323.193
322.775
322.699
322.904
323.278
323.761
324.182
324.814
325.024
325.236
325.068
324.685
324.252
323.565
323.05
322.668
322.609
322.675
323.077
320.076
319.714
319.356
319.259
319.43
319.756
320.132
320.515
321.036
321.222
321.385
321.253
320.931
320.564
319.934
319.519
319.206
319.144
319.226
319.534
316.446
316.192
315.893
315.808
315.949
316.22
316.484
316.804
317.242
317.401
317.522
317.402
317.159
316.869
316.323
315.988
315.75
315.692
315.766
316
312.796
312.634
312.401
312.334
312.429
312.652
312.834
313.061
313.456
313.539
313.645
313.559
313.364
313.155
312.705
312.46
312.278
312.229
312.299
312.434
309.167
309.048
308.861
308.834
308.894
309.054
309.187
309.344
309.641
309.704
309.77
309.696
309.537
309.418
309.064
308.917
308.772
308.742
308.811
308.866
305.519
305.436
305.334
305.321
305.355
305.436
305.515
305.627
305.793
305.811
305.865
305.813
305.734
305.66
305.442
305.354
305.254
305.26
305.303
305.328
301.858
301.817
301.792
301.783
301.799
301.834
301.854
301.892
301.94
301.942
301.972
301.956
301.913
301.902
301.823
301.798
301.759
301.756
301.777
301.781
328.059
327.509
327.064
326.994
327.196
327.66
328.244
328.929
329.467
329.722
329.988
329.776
329.381
328.858
328.031
327.503
327.02
326.949
327.028
327.498
324.369
323.934
323.56
323.478
323.641
324.049
324.539
325.121
325.574
325.809
326.013
325.828
325.497
325.038
324.331
323.894
323.463
323.402
323.44
323.839
320.643
320.326
320.015
319.934
320.035
320.41
320.818
321.29
321.679
321.877
322.051
321.867
321.616
321.218
320.639
320.285
319.871
319.842
319.847
320.201
316.897
316.684
316.417
316.347
316.416
316.725
317.073
317.447
317.761
317.933
318.063
317.913
317.721
317.369
316.899
316.645
316.293
316.261
316.247
316.558
313.149
312.998
312.784
312.728
312.804
313.02
313.292
313.579
313.836
313.963
314.07
313.937
313.81
313.52
313.139
312.972
312.713
312.667
312.647
312.897
309.401
309.303
309.138
309.09
309.162
309.308
309.487
309.704
309.91
309.977
310.049
309.97
309.88
309.689
309.392
309.291
309.1
309.059
309.041
309.214
305.637
305.597
305.497
305.466
305.496
305.606
305.686
305.822
305.976
305.991
306.031
305.998
305.946
305.822
305.658
305.58
305.475
305.443
305.424
305.542
301.881
301.872
301.837
301.833
301.84
301.885
301.903
301.943
302.005
302.004
302.009
302.003
301.998
301.96
301.898
301.872
301.84
301.828
301.824
301.854
329.049
328.57
328.091
328.014
328.117
328.647
329.201
329.912
330.391
330.703
330.997
330.71
330.362
329.746
329.114
328.514
328.019
327.919
327.9
328.295
325.237
324.849
324.428
324.377
324.444
324.886
325.358
325.991
326.377
326.637
326.903
326.624
326.351
325.807
325.254
324.745
324.317
324.214
324.19
324.531
321.39
321.067
320.726
320.696
320.737
321.098
321.533
322.04
322.363
322.556
322.763
322.548
322.323
321.871
321.377
320.953
320.606
320.493
320.482
320.776
317.512
317.26
317.022
316.982
316.99
317.301
317.664
318.057
318.321
318.489
318.636
318.462
318.268
317.915
317.516
317.148
316.888
316.794
316.761
316.999
313.631
313.457
313.285
313.245
313.231
313.485
313.766
314.066
314.276
314.405
314.5
314.367
314.221
313.959
313.623
313.335
313.155
313.095
313.037
313.236
309.754
309.638
309.503
309.496
309.474
309.657
309.849
310.071
310.23
310.302
310.379
310.276
310.161
309.987
309.746
309.515
309.414
309.373
309.327
309.463
305.867
305.8
305.724
305.715
305.697
305.793
305.933
306.045
306.158
306.199
306.243
306.173
306.103
305.991
305.852
305.71
305.652
305.625
305.603
305.682
301.966
301.95
301.925
301.92
301.906
301.939
302.003
302.025
302.066
302.08
302.089
302.068
302.047
302.012
301.968
301.907
301.895
301.886
301.886
301.9
330.117
329.623
329.16
329.015
329.148
329.65
330.227
330.873
331.384
331.796
332.047
331.699
331.242
330.687
330.188
329.512
328.976
328.825
328.927
329.229
326.151
325.78
325.366
325.232
325.355
325.755
326.267
326.816
327.265
327.6
327.808
327.489
327.112
326.609
326.214
325.586
325.136
324.983
325.082
325.306
322.167
321.862
321.529
321.436
321.513
321.836
322.297
322.749
323.106
323.373
323.549
323.29
322.967
322.536
322.207
321.66
321.303
321.159
321.246
321.401
318.162
317.92
317.643
317.607
317.641
317.894
318.301
318.651
318.927
319.146
319.288
319.087
318.795
318.454
318.182
317.712
317.446
317.343
317.408
317.503
314.147
313.966
313.752
313.748
313.738
313.938
314.263
314.517
314.72
314.909
315.023
314.869
314.609
314.366
314.156
313.782
313.584
313.516
313.549
313.607
310.13
309.993
309.838
309.852
309.841
309.987
310.196
310.379
310.501
310.651
310.745
310.651
310.43
310.271
310.13
309.864
309.711
309.663
309.694
309.732
306.113
306.024
305.901
305.926
305.915
306.002
306.132
306.235
306.306
306.399
306.447
306.384
306.269
306.168
306.089
305.931
305.831
305.803
305.804
305.84
302.057
302.028
301.98
301.987
301.983
302.015
302.05
302.093
302.112
302.15
302.164
302.126
302.098
302.071
302.046
302
301.943
301.941
301.956
301.96
331.137
330.664
330.26
330.174
330.146
330.75
331.188
331.773
332.263
332.724
333.068
332.785
332.301
331.776
331.066
330.468
329.905
329.877
329.999
330.383
327.038
326.639
326.314
326.231
326.195
326.718
327.087
327.565
328.008
328.399
328.703
328.436
328.02
327.544
326.946
326.441
325.936
325.926
326.03
326.33
322.924
322.603
322.34
322.258
322.215
322.669
322.959
323.381
323.724
324.047
324.313
324.096
323.727
323.337
322.794
322.421
321.954
321.949
322.061
322.272
318.802
318.52
318.326
318.266
318.218
318.573
318.812
319.166
319.434
319.708
319.907
319.757
319.423
319.103
318.667
318.38
317.993
317.976
318.061
318.224
314.668
314.427
314.268
314.255
314.183
314.447
314.662
314.928
315.141
315.369
315.489
315.399
315.132
314.864
314.531
314.306
314.006
314.003
314.055
314.183
310.491
310.342
310.211
310.216
310.149
310.332
310.482
310.674
310.846
310.997
311.068
311.009
310.801
310.611
310.422
310.225
310.009
310.029
310.033
310.137
306.3
306.221
306.153
306.141
306.105
306.198
306.298
306.416
306.525
306.616
306.646
306.619
306.49
306.382
306.299
306.154
306.013
306.032
306.026
306.089
302.111
302.088
302.069
302.056
302.056
302.084
302.106
302.15
302.197
302.221
302.237
302.212
302.166
302.14
302.116
302.061
302.016
302.038
302.008
302.048
332.161
331.717
331.394
331.214
331.418
331.716
332.38
332.779
333.319
333.665
333.92
333.721
333.261
332.691
332.005
331.474
331.041
330.972
331.02
331.43
327.92
327.554
327.282
327.133
327.297
327.552
328.138
328.453
328.914
329.205
329.437
329.23
328.832
328.363
327.762
327.287
326.939
326.878
326.892
327.226
323.644
323.36
323.152
323.021
323.146
323.367
323.866
324.132
324.517
324.726
324.928
324.746
324.41
323.995
323.518
323.105
322.823
322.735
322.765
323.05
319.377
319.164
318.989
318.885
318.968
319.122
319.564
319.775
320.099
320.247
320.41
320.273
319.984
319.618
319.262
318.898
318.678
318.604
318.646
318.86
315.084
314.95
314.801
314.722
314.781
314.867
315.255
315.394
315.655
315.787
315.882
315.8
315.565
315.242
315.001
314.711
314.569
314.483
314.514
314.669
310.794
310.723
310.598
310.532
310.573
310.617
310.932
311.026
311.203
311.31
311.334
311.329
311.115
310.884
310.728
310.517
310.422
310.351
310.368
310.479
306.495
306.453
306.37
306.337
306.338
306.367
306.574
306.631
306.723
306.81
306.803
306.827
306.674
306.533
306.449
306.325
306.266
306.218
306.237
306.273
302.183
302.169
302.136
302.121
302.117
302.139
302.197
302.224
302.256
302.286
302.271
302.295
302.24
302.187
302.164
302.126
302.096
302.094
302.09
302.106
333.331
332.832
332.523
332.294
332.549
332.792
333.308
333.77
334.22
334.554
334.823
334.693
334.124
333.606
333.023
332.586
332.098
332.059
332.154
332.483
328.952
328.518
328.252
328.041
328.26
328.487
328.955
329.317
329.696
329.962
330.192
330.086
329.599
329.143
328.648
328.28
327.845
327.811
327.887
328.164
324.527
324.186
323.981
323.781
323.966
324.16
324.559
324.829
325.166
325.354
325.554
325.476
325.071
324.682
324.26
323.944
323.579
323.564
323.626
323.849
320.071
319.861
319.683
319.501
319.654
319.814
320.145
320.332
320.638
320.767
320.92
320.884
320.55
320.204
319.852
319.579
319.294
319.288
319.363
319.518
315.621
315.502
315.36
315.193
315.326
315.453
315.698
315.829
316.078
316.176
316.266
316.268
315.993
315.724
315.463
315.24
315.007
315.006
315.071
315.204
311.181
311.102
310.988
310.882
310.956
311.069
311.223
311.307
311.477
311.603
311.623
311.619
311.446
311.238
311.049
310.885
310.727
310.713
310.777
310.897
306.727
306.687
306.597
306.538
306.581
306.651
306.746
306.8
306.888
306.997
306.972
306.98
306.878
306.739
306.634
306.533
306.451
306.421
306.471
306.567
302.258
302.241
302.222
302.19
302.198
302.234
302.272
302.269
302.322
302.366
302.329
302.342
302.308
302.262
302.229
302.189
302.167
302.149
302.169
302.207
334.481
334.083
333.742
333.559
333.567
333.999
334.359
334.91
335.128
335.312
335.577
335.537
335.146
334.605
334.005
333.624
333.313
333.156
333.26
333.496
329.932
329.616
329.312
329.162
329.167
329.522
329.842
330.297
330.508
330.657
330.836
330.844
330.48
329.998
329.518
329.167
328.913
328.772
328.859
329.028
325.389
325.1
324.895
324.756
324.732
325.036
325.324
325.677
325.856
325.98
326.084
326.147
325.808
325.393
325.028
324.685
324.491
324.373
324.436
324.564
320.83
320.593
320.426
320.324
320.289
320.523
320.774
321.037
321.205
321.3
321.344
321.413
321.16
320.799
320.489
320.2
320.047
319.956
320.013
320.122
316.252
316.069
315.917
315.853
315.81
316.008
316.195
316.381
316.533
316.611
316.638
316.693
316.473
316.205
315.933
315.712
315.59
315.523
315.591
315.68
311.639
311.519
311.39
311.342
311.318
311.462
311.595
311.713
311.83
311.93
311.917
311.954
311.783
311.599
311.358
311.22
311.123
311.1
311.147
311.232
306.992
306.928
306.863
306.812
306.814
306.903
306.98
307.041
307.114
307.183
307.156
307.191
307.08
306.968
306.805
306.726
306.677
306.671
306.686
306.761
302.35
302.332
302.308
302.292
302.28
302.306
302.337
302.363
302.392
302.413
302.397
302.408
302.369
302.339
302.271
302.258
302.237
302.229
302.243
302.273
335.755
335.22
334.972
334.775
334.74
334.997
335.2
335.749
336.015
336.243
336.447
336.367
336.056
335.558
335.066
334.623
334.172
334.173
334.31
334.483
331.042
330.628
330.407
330.198
330.175
330.383
330.564
331.064
331.264
331.444
331.621
331.548
331.281
330.837
330.452
330.033
329.627
329.635
329.752
329.893
326.325
325.98
325.812
325.605
325.602
325.757
325.906
326.338
326.519
326.638
326.787
326.714
326.501
326.11
325.813
325.429
325.089
325.097
325.207
325.295
321.581
321.309
321.177
321
320.972
321.116
321.232
321.603
321.743
321.832
321.95
321.896
321.693
321.38
321.126
320.819
320.56
320.549
320.667
320.702
316.808
316.608
316.508
316.365
316.34
316.451
316.538
316.847
316.951
317.011
317.107
317.036
316.879
316.63
316.44
316.204
316.02
315.979
316.101
316.123
312.037
311.889
311.819
311.728
311.678
311.767
311.832
312.046
312.139
312.166
312.214
312.161
312.045
311.88
311.745
311.565
311.445
311.42
311.504
311.524
307.242
307.149
307.119
307.058
306.996
307.075
307.137
307.255
307.289
307.312
307.342
307.305
307.23
307.135
307.055
306.929
306.864
306.855
306.892
306.918
302.426
302.41
302.392
302.362
302.339
302.376
302.398
302.437
302.448
302.456
302.466
302.456
302.431
302.386
302.366
302.32
302.303
302.293
302.307
302.323
336.89
336.461
336.155
335.928
335.872
335.999
336.143
336.685
337.079
337.279
337.256
337.126
336.934
336.411
335.929
335.523
335.329
335.213
335.428
335.72
332.04
331.673
331.41
331.214
331.151
331.257
331.36
331.86
332.199
332.333
332.328
332.206
332.041
331.582
331.153
330.808
330.638
330.53
330.733
330.971
327.191
326.852
326.623
326.489
326.383
326.492
326.595
326.998
327.283
327.376
327.385
327.274
327.14
326.741
326.384
326.086
325.954
325.866
326.013
326.232
322.318
322.021
321.806
321.721
321.596
321.698
321.789
322.13
322.34
322.431
322.431
322.341
322.238
321.893
321.621
321.353
321.236
321.192
321.281
321.479
317.402
317.164
316.993
316.91
316.827
316.912
316.964
317.238
317.388
317.46
317.448
317.407
317.316
317.041
316.852
316.626
316.513
316.501
316.572
316.702
312.464
312.298
312.192
312.098
312.024
312.102
312.132
312.34
312.416
312.484
312.465
312.464
312.372
312.163
312.056
311.875
311.804
311.8
311.842
311.939
307.492
307.405
307.338
307.272
307.214
307.294
307.282
307.415
307.451
307.497
307.489
307.493
307.437
307.312
307.23
307.136
307.1
307.093
307.124
307.167
302.517
302.476
302.46
302.439
302.418
302.453
302.434
302.486
302.493
302.501
302.515
302.509
302.494
302.447
302.425
302.393
302.384
302.378
302.395
302.403
338.095
337.602
337.255
337.024
336.965
337.041
337.163
337.617
337.915
338.021
338.151
337.883
337.742
337.283
336.85
336.491
336.329
336.294
336.525
336.803
333.075
332.653
332.374
332.144
332.092
332.15
332.258
332.664
332.917
333.002
333.108
332.841
332.745
332.343
331.954
331.654
331.498
331.458
331.663
331.889
328.041
327.686
327.452
327.234
327.179
327.255
327.319
327.647
327.892
327.972
328.07
327.816
327.736
327.387
327.045
326.82
326.662
326.634
326.834
327.003
322.987
322.712
322.492
322.312
322.265
322.309
322.356
322.624
322.855
322.922
323.013
322.776
322.716
322.4
322.134
321.973
321.822
321.798
321.97
322.126
317.92
317.697
317.517
317.368
317.326
317.381
317.387
317.609
317.798
317.847
317.924
317.747
317.673
317.423
317.206
317.093
316.979
316.957
317.103
317.214
312.795
312.642
312.527
312.397
312.374
312.425
312.435
312.598
312.706
312.747
312.824
312.705
312.631
312.46
312.309
312.221
312.15
312.112
312.216
312.29
307.674
307.589
307.52
307.442
307.421
307.455
307.47
307.566
307.639
307.66
307.72
307.639
307.598
307.502
307.395
307.365
307.306
307.277
307.339
307.386
302.574
302.535
302.531
302.502
302.484
302.499
302.503
302.523
302.57
302.567
302.592
302.561
302.543
302.514
302.48
302.471
302.46
302.441
302.469
302.48
339.171
338.874
338.397
338.165
338.049
338.181
338.194
338.537
338.76
338.779
338.826
338.592
338.496
338.14
337.787
337.584
337.31
337.273
337.467
337.808
334.011
333.778
333.362
333.147
333.028
333.141
333.157
333.443
333.641
333.642
333.708
333.482
333.382
333.074
332.771
332.605
332.35
332.317
332.499
332.77
328.835
328.623
328.292
328.105
327.976
328.09
328.1
328.364
328.501
328.49
328.599
328.38
328.289
328.008
327.744
327.62
327.402
327.36
327.562
327.712
323.628
323.442
323.172
323.031
322.928
323.007
323.001
323.26
323.364
323.34
323.462
323.265
323.157
322.943
322.713
322.633
322.434
322.396
322.569
322.68
318.42
318.238
318.03
317.941
317.852
317.921
317.914
318.144
318.212
318.172
318.305
318.126
318.034
317.854
317.688
317.609
317.454
317.415
317.563
317.662
313.199
313.027
312.89
312.833
312.75
312.79
312.802
312.988
313.053
312.998
313.096
312.976
312.896
312.784
312.636
312.589
312.479
312.44
312.559
312.632
307.924
307.839
307.743
307.703
307.661
307.684
307.699
307.808
307.853
307.812
307.893
307.797
307.746
307.683
307.593
307.562
307.503
307.483
307.556
307.583
302.653
302.628
302.602
302.571
302.572
302.577
302.586
302.627
302.628
302.62
302.645
302.608
302.59
302.577
302.554
302.538
302.516
302.509
302.538
302.542
340.289
339.903
339.58
339.236
339.197
339.286
339.209
339.501
339.459
339.557
339.651
339.48
339.292
338.969
338.715
338.514
338.296
338.252
338.55
338.878
334.978
334.656
334.389
334.057
334.044
334.127
334.036
334.321
334.228
334.323
334.4
334.239
334.082
333.798
333.558
333.388
333.216
333.158
333.416
333.703
329.635
329.386
329.178
328.862
328.85
328.925
328.856
329.101
328.988
329.056
329.153
329.009
328.906
328.61
328.401
328.257
328.15
328.053
328.297
328.523
324.282
324.073
323.911
323.642
323.644
323.697
323.637
323.852
323.752
323.783
323.89
323.755
323.707
323.421
323.235
323.128
323.064
322.949
323.179
323.357
318.904
318.747
318.624
318.403
318.41
318.452
318.406
318.587
318.507
318.519
318.602
318.497
318.499
318.224
318.098
317.999
317.959
317.864
318.054
318.169
313.529
313.395
313.304
313.155
313.16
313.178
313.145
313.293
313.244
313.235
313.293
313.249
313.244
313.043
312.951
312.845
312.842
312.756
312.918
312.966
308.124
308.054
307.998
307.899
307.912
307.908
307.905
307.993
307.964
307.965
307.98
307.972
307.943
307.838
307.774
307.711
307.724
307.643
307.772
307.772
302.714
302.706
302.676
302.642
302.655
302.654
302.656
302.678
302.677
302.665
302.677
302.678
302.669
302.627
302.601
302.58
302.581
302.563
302.611
302.605
341.438
341.081
340.73
340.322
340.101
340.096
340.208
340.381
340.36
340.326
340.376
340.308
340.135
339.905
339.658
339.342
339.384
339.361
339.633
339.869
335.981
335.68
335.349
334.986
334.814
334.795
334.926
335.07
335.021
334.994
335.034
334.984
334.822
334.601
334.389
334.107
334.16
334.109
334.335
334.533
330.476
330.247
329.945
329.655
329.494
329.486
329.599
329.705
329.664
329.615
329.675
329.621
329.517
329.289
329.104
328.893
328.915
328.859
329.024
329.221
324.976
324.76
324.524
324.308
324.172
324.161
324.261
324.327
324.298
324.226
324.307
324.232
324.193
323.979
323.811
323.67
323.655
323.622
323.735
323.895
319.454
319.262
319.089
318.912
318.836
318.814
318.895
318.939
318.927
318.831
318.936
318.87
318.848
318.671
318.536
318.416
318.411
318.389
318.472
318.584
313.909
313.766
313.661
313.508
313.484
313.468
313.531
313.55
313.539
313.469
313.53
313.523
313.483
313.35
313.256
313.163
313.179
313.156
313.195
313.276
308.343
308.269
308.223
308.101
308.096
308.081
308.124
308.143
308.134
308.088
308.135
308.147
308.091
308.03
307.946
307.912
307.915
307.887
307.936
307.971
302.796
302.776
302.753
302.717
302.718
302.7
302.729
302.734
302.723
302.72
302.738
302.734
302.708
302.71
302.652
302.661
302.665
302.648
302.662
302.675
342.433
342.074
341.74
341.184
341.023
340.939
341.072
341.084
341.091
341.155
341.041
340.954
340.831
340.541
340.464
340.216
340.207
340.296
340.435
340.872
336.819
336.522
336.231
335.74
335.591
335.496
335.638
335.605
335.629
335.702
335.613
335.515
335.417
335.15
335.069
334.836
334.859
334.906
335.032
335.378
331.186
330.939
330.658
330.281
330.148
330.042
330.186
330.125
330.171
330.219
330.163
330.075
329.98
329.772
329.644
329.483
329.518
329.544
329.653
329.931
325.524
325.334
325.087
324.825
324.708
324.611
324.714
324.657
324.694
324.762
324.699
324.632
324.553
324.368
324.244
324.161
324.165
324.18
324.3
324.465
319.852
319.698
319.545
319.347
319.232
319.174
319.246
319.183
319.21
319.281
319.229
319.187
319.098
318.962
318.856
318.829
318.837
318.789
318.91
319.04
314.179
314.063
313.991
313.859
313.754
313.733
313.765
313.708
313.727
313.792
313.744
313.709
313.659
313.55
313.488
313.461
313.484
313.415
313.524
313.6
308.518
308.448
308.427
308.321
308.262
308.262
308.28
308.233
308.243
308.276
308.26
308.24
308.214
308.153
308.099
308.072
308.095
308.061
308.114
308.158
302.856
302.824
302.833
302.787
302.767
302.774
302.775
302.76
302.754
302.771
302.772
302.766
302.756
302.729
302.7
302.711
302.718
302.711
302.722
302.732
343.203
342.785
342.429
342.134
341.795
341.653
341.685
341.658
341.592
341.714
341.523
341.356
341.289
341.12
340.985
340.83
340.894
340.901
341.046
341.49
337.431
337.103
336.807
336.549
336.232
336.103
336.132
336.106
336.033
336.178
335.971
335.847
335.775
335.607
335.486
335.359
335.4
335.413
335.509
335.906
331.667
331.42
331.171
330.948
330.663
330.556
330.581
330.565
330.494
330.637
330.428
330.344
330.258
330.125
330
329.902
329.935
329.938
330.042
330.365
325.927
325.761
325.539
325.347
325.092
324.994
325.032
324.999
324.95
325.098
324.915
324.824
324.766
324.655
324.528
324.421
324.487
324.484
324.598
324.849
320.164
320.077
319.907
319.75
319.545
319.46
319.505
319.462
319.41
319.535
319.409
319.296
319.271
319.165
319.069
318.959
319.059
319.052
319.131
319.338
314.426
314.35
314.249
314.125
313.989
313.938
313.95
313.905
313.892
313.97
313.884
313.778
313.755
313.703
313.606
313.548
313.648
313.624
313.655
313.813
308.674
308.631
308.555
308.505
308.408
308.387
308.392
308.341
308.343
308.401
308.365
308.273
308.257
308.242
308.163
308.123
308.198
308.192
308.202
308.29
302.905
302.898
302.88
302.845
302.809
302.808
302.806
302.785
302.806
302.813
302.8
302.772
302.767
302.763
302.734
302.72
302.751
302.752
302.757
302.777
)
;

boundaryField
{
    hotSide
    {
        type            fixedGradient;
        gradient        nonuniform List<scalar> 
400
(
265.367
267.186
270.97
276.669
284.085
292.935
302.916
313.747
325.197
337.082
349.261
361.629
374.108
386.642
399.191
411.728
424.233
436.695
449.11
461.478
254.095
256.084
260.178
266.313
274.253
283.662
294.192
305.535
317.442
329.722
342.233
354.872
367.564
380.261
392.928
405.543
418.094
430.575
442.988
455.337
248.059
250.396
254.811
261.235
269.431
279.067
289.796
301.308
313.351
325.731
338.303
350.965
363.644
376.294
388.885
401.401
413.836
426.19
438.469
450.684
246.924
249.773
254.53
261.125
269.353
278.931
289.549
300.922
312.806
325.009
337.384
349.828
362.268
374.661
386.982
399.22
411.375
423.454
435.468
447.434
249.354
252.806
257.947
264.704
272.907
282.324
292.695
303.768
315.317
327.157
339.146
351.18
363.193
375.145
387.02
398.816
410.541
422.21
433.841
445.452
253.834
257.92
263.501
270.493
278.748
288.068
298.226
308.997
320.172
331.577
343.077
354.578
366.025
377.393
388.681
399.899
411.071
422.218
433.367
444.539
259.127
263.846
269.917
277.246
285.688
295.055
305.135
315.708
326.573
337.559
348.544
359.45
370.244
380.928
391.525
402.068
412.597
423.147
433.749
444.43
264.298
269.619
276.207
283.959
292.72
302.298
312.468
322.998
333.671
344.313
354.808
365.103
375.202
385.147
394.997
404.817
414.665
424.591
434.631
444.813
268.618
274.464
281.546
289.752
298.918
308.832
319.245
329.886
340.505
350.903
360.968
370.681
380.095
389.308
398.426
407.546
416.749
426.092
435.617
445.349
271.513
277.742
285.214
293.813
303.368
313.649
324.372
335.223
345.896
356.159
365.895
375.123
383.957
392.552
401.063
409.616
418.305
427.195
436.326
445.721
272.582
278.979
286.643
295.459
305.251
315.778
326.733
337.765
348.528
358.754
368.326
377.286
385.793
394.042
402.216
410.46
418.875
427.527
436.457
445.684
271.653
277.954
285.551
294.327
304.104
314.635
325.611
336.676
347.482
357.761
367.391
376.411
384.973
393.273
401.491
409.771
418.219
426.902
435.863
445.123
268.848
274.795
282.072
290.563
300.087
310.399
321.202
332.166
342.978
353.394
363.293
372.679
381.659
390.382
399.002
407.647
416.419
425.389
434.603
444.089
264.596
269.984
276.764
284.822
293.977
303.988
314.572
325.433
336.292
346.934
357.233
367.156
376.752
386.114
395.352
404.574
413.868
423.306
432.938
442.798
259.622
264.319
270.52
278.116
286.922
296.694
307.15
318.007
329.007
339.949
350.699
361.196
371.443
381.487
391.401
401.265
411.157
421.143
431.275
441.591
254.947
258.894
264.511
271.697
280.254
289.91
300.367
311.332
322.549
333.819
345.001
356.018
366.845
377.499
388.026
398.486
408.945
419.466
430.1
440.886
251.929
255.133
260.206
267.053
275.446
285.07
295.591
306.694
318.118
329.662
341.184
352.6
363.871
374.996
386.004
396.943
407.87
418.845
429.92
441.13
252.205
254.757
259.337
265.856
274.057
283.585
294.074
305.196
316.686
328.347
340.039
351.674
363.208
374.631
385.958
397.228
408.492
419.806
431.218
442.762
257.231
259.309
263.438
269.539
277.359
286.545
296.735
307.607
318.906
330.438
342.068
353.706
365.302
376.836
388.314
399.765
411.23
422.755
434.383
446.141
267.448
269.25
272.965
278.529
285.733
294.28
303.854
314.169
324.987
336.126
347.452
358.872
370.329
381.794
393.263
404.749
416.28
427.889
439.605
451.446
)
;
    }
    coldSide
    {
        type            mixed;
        refValue        uniform 300;
        refGradient     uniform 0;
        valueFraction   uniform 0.991591;
        source          uniform 0;
        value           nonuniform List<scalar> 
400
(
300.015
300.014
300.015
300.015
300.016
300.016
300.017
300.017
300.018
300.018
300.019
300.02
300.02
300.021
300.022
300.022
300.023
300.024
300.024
300.024
300.014
300.014
300.014
300.015
300.015
300.016
300.016
300.017
300.018
300.018
300.019
300.02
300.02
300.021
300.021
300.022
300.023
300.023
300.024
300.024