/*--------------------------------*- C++ -*----------------------------------*\
| =========                 |                                                 |
| \\      /  F ield         | OpenFOAM: The Open Source CFD Toolbox           |
|  \\    /   O peration     | Version:  2212                                  |
|   \\  /    A nd           | Website:  www.openfoam.com                      |
|    \\/     M anipulation  |                                                 |
\*---------------------------------------------------------------------------*/
FoamFile
{
    version     2.0;
    format      ascii;
    arch        "LSB;label=32;scalar=64";
    class       volScalarField;
    location    "0";
    object      T;
}
// * * * * * * * * * * * * * * * * * * * * * * * * * * * * * * * * * * * * * //

dimensions      [0 0 0 1 0 0 0];

internalField   nonuniform List<scalar> 
3200
(
346.332
345.544
345.228
345.252
345.833
346.606
347.434
348.218
349.132
349.428
349.541
349.276
348.804
348.062
346.99
345.969
345.299
344.946
345.066
345.706
340.089
339.466
339.223
339.236
339.733
340.45
341.17
341.86
342.688
342.926
343.025
342.852
342.441
341.82
340.894
340.007
339.417
339.098
339.203
339.713
333.897
333.402
333.219
333.217
333.643
334.267
334.896
335.45
336.189
336.378
336.47
336.369
336.032
335.518
334.744
333.974
333.472
333.184
333.281
333.653
327.713
327.328
327.211
327.184
327.536
328.082
328.591
329.036
329.645
329.791
329.882
329.831
329.567
329.16
328.519
327.864
327.463
327.207
327.321
327.561
321.557
321.266
321.17
321.147
321.448
321.851
322.258
322.624
323.074
323.188
323.275
323.252
323.044
322.769
322.24
321.718
321.395
321.212
321.306
321.461
315.396
315.196
315.131
315.112
315.349
315.616
315.9
316.185
316.496
316.58
316.649
316.631
316.5
316.31
315.911
315.528
315.304
315.191
315.257
315.324
309.24
309.123
309.085
309.089
309.228
309.383
309.543
309.723
309.918
309.946
310.012
310.003
309.922
309.826
309.557
309.326
309.22
309.125
309.175
309.207
303.103
303.073
303.035
303.055
303.095
303.16
303.207
303.26
303.329
303.338
303.358
303.359
303.335
303.296
303.208
303.135
303.093
303.055
303.078
303.086
346.335
345.67
345.247
345.366
345.862
346.763
347.642
348.53
349.422
349.871
350.008
349.771
349.133
348.406
347.242
346.129
345.346
344.943
345.04
345.72
340.099
339.565
339.239
339.379
339.775
340.565
341.367
342.119
342.934
343.287
343.43
343.254
342.688
342.099
341.112
340.154
339.491
339.111
339.221
339.739
333.887
333.465
333.213
333.359
333.689
334.361
335.049
335.679
336.397
336.67
336.798
336.675
336.232
335.754
334.908
334.1
333.553
333.195
333.301
333.693
327.7
327.346
327.167
327.321
327.588
328.148
328.716
329.212
329.833
330.041
330.133
330.054
329.708
329.333
328.641
327.996
327.555
327.235
327.315
327.614
321.529
321.261
321.131
321.266
321.485
321.901
322.351
322.71
323.245
323.383
323.465
323.433
323.155
322.863
322.333
321.848
321.498
321.233
321.305
321.528
315.378
315.189
315.097
315.192
315.366
315.64
315.97
316.211
316.635
316.714
316.775
316.795
316.567
316.362
315.99
315.626
315.392
315.191
315.257
315.416
309.221
309.121
309.072
309.135
309.235
309.4
309.586
309.742
310.006
310.045
310.074
310.079
309.974
309.83
309.614
309.384
309.274
309.121
309.177
309.26
303.087
303.057
303.04
303.06
303.096
303.148
303.212
303.277
303.354
303.376
303.377
303.377
303.35
303.291
303.234
303.148
303.121
303.049
303.076
303.107
346.423
345.756
345.413
345.464
346.137
347.137
348.091
349.047
349.93
350.451
350.639
350.437
349.646
348.811
347.777
346.621
345.704
345.245
345.331
345.957
340.181
339.652
339.384
339.436
340.012
340.896
341.752
342.559
343.358
343.793
344.014
343.818
343.149
342.44
341.531
340.54
339.746
339.389
339.437
339.94
333.963
333.565
333.367
333.387
333.882
334.668
335.372
336.041
336.743
337.096
337.322
337.144
336.619
336.015
335.241
334.398
333.767
333.439
333.465
333.872
327.777
327.462
327.339
327.32
327.734
328.398
328.984
329.501
330.106
330.386
330.602
330.425
330.037
329.539
328.906
328.226
327.697
327.411
327.443
327.785
321.599
321.357
321.272
321.27
321.552
322.108
322.568
322.953
323.433
323.664
323.851
323.694
323.41
323.035
322.544
322
321.569
321.342
321.381
321.644
315.439
315.261
315.201
315.237
315.39
315.821
316.131
316.401
316.752
316.938
317.081
316.942
316.758
316.477
316.136
315.742
315.41
315.265
315.303
315.468
309.295
309.168
309.135
309.172
309.233
309.514
309.702
309.835
310.077
310.203
310.28
310.189
310.064
309.906
309.72
309.459
309.249
309.166
309.192
309.294
303.116
303.058
303.07
303.078
303.106
303.188
303.262
303.285
303.385
303.423
303.457
303.418
303.371
303.331
303.258
303.178
303.091
303.077
303.083
303.115
346.576
345.986
345.748
345.9
346.503
347.648
348.674
349.731
350.645
351.261
351.454
351.267
350.464
349.635
348.394
347.134
346.217
345.756
345.758
346.45
340.325
339.848
339.673
339.822
340.33
341.359
342.241
343.14
343.959
344.508
344.708
344.512
343.845
343.174
342.089
341.014
340.205
339.822
339.827
340.374
334.111
333.702
333.584
333.713
334.136
335.047
335.765
336.524
337.26
337.728
337.933
337.726
337.158
336.638
335.733
334.809
334.137
333.802
333.799
334.233
327.907
327.552
327.484
327.609
327.932
328.718
329.286
329.893
330.522
330.908
331.102
330.927
330.435
330.042
329.315
328.55
328.013
327.726
327.729
328.057
321.722
321.42
321.378
321.481
321.728
322.383
322.809
323.271
323.793
324.085
324.212
324.097
323.695
323.398
322.869
322.249
321.853
321.611
321.613
321.847
315.533
315.299
315.279
315.349
315.525
316.033
316.317
316.637
317.024
317.224
317.304
317.228
316.954
316.736
316.374
315.938
315.664
315.477
315.47
315.605
309.358
309.172
309.184
309.22
309.328
309.637
309.786
309.991
310.224
310.366
310.399
310.349
310.199
310.067
309.834
309.586
309.429
309.303
309.302
309.379
303.138
303.08
303.092
303.087
303.124
303.234
303.282
303.342
303.422
303.472
303.494
303.473
303.409
303.377
303.301
303.205
303.163
303.122
303.123
303.145
347.125
346.36
346.089
346.36
347.072
348.144
349.234
350.455
351.432
352.202
352.447
352.2
351.599
350.563
349.279
347.988
347.013
346.44
346.338
347.002
340.804
340.174
339.95
340.194
340.821
341.771
342.704
343.778
344.658
345.332
345.528
345.325
344.835
343.949
342.856
341.771
340.875
340.418
340.316
340.83
334.488
333.997
333.823
334.017
334.568
335.383
336.163
337.064
337.841
338.442
338.583
338.424
338.005
337.286
336.368
335.434
334.667
334.305
334.237
334.613
328.19
327.808
327.716
327.84
328.306
328.983
329.629
330.347
330.997
331.514
331.633
331.487
331.142
330.568
329.817
329.08
328.455
328.126
328.093
328.374
321.907
321.619
321.59
321.661
322.029
322.569
323.078
323.651
324.133
324.575
324.622
324.532
324.243
323.809
323.228
322.682
322.195
321.913
321.907
322.118
315.649
315.441
315.436
315.48
315.728
316.152
316.509
316.925
317.259
317.59
317.613
317.555
317.333
317.036
316.634
316.243
315.883
315.684
315.675
315.832
309.4
309.282
309.268
309.298
309.462
309.72
309.93
310.183
310.369
310.575
310.589
310.544
310.418
310.235
309.995
309.743
309.536
309.447
309.435
309.513
303.152
303.113
303.111
303.122
303.18
303.261
303.335
303.411
303.474
303.546
303.551
303.526
303.489
303.441
303.346
303.267
303.198
303.166
303.174
303.183
347.716
347.076
346.752
346.966
347.857
348.893
350.006
351.268
352.266
353.182
353.474
353.244
352.608
351.538
350.164
348.919
347.875
347.158
347.235
347.704
341.319
340.773
340.515
340.708
341.515
342.409
343.394
344.494
345.341
346.17
346.424
346.26
345.723
344.829
343.632
342.537
341.656
341.038
341.103
341.465
334.921
334.49
334.277
334.463
335.169
335.908
336.765
337.675
338.406
339.14
339.343
339.214
338.786
338.023
337.023
336.121
335.362
334.859
334.907
335.157
328.548
328.218
328.063
328.213
328.806
329.395
330.119
330.827
331.473
332.091
332.236
332.153
331.805
331.164
330.356
329.639
329.026
328.591
328.615
328.784
322.194
321.94
321.857
321.956
322.431
322.893
323.462
323.971
324.505
324.995
325.089
325.061
324.788
324.273
323.657
323.106
322.637
322.282
322.306
322.416
315.853
315.693
315.632
315.703
316.03
316.374
316.794
317.137
317.533
317.895
317.943
317.947
317.704
317.356
316.938
316.541
316.199
315.957
315.968
316.03
309.513
309.447
309.4
309.441
309.61
309.843
310.093
310.282
310.53
310.766
310.781
310.788
310.633
310.413
310.183
309.953
309.754
309.602
309.598
309.636
303.196
303.171
303.152
303.164
303.225
303.299
303.385
303.447
303.52
303.605
303.615
303.612
303.559
303.494
303.411
303.342
303.278
303.226
303.218
303.231
348.354
347.77
347.602
347.791
348.559
349.663
350.864
352.121
353.257
354.247
354.671
354.446
353.704
352.532
351.199
349.871
348.782
348.099
348.082
348.452
341.862
341.389
341.252
341.454
342.107
343.085
344.131
345.223
346.236
347.112
347.459
347.303
346.659
345.666
344.527
343.39
342.442
341.826
341.836
342.116
335.387
335.023
334.914
335.092
335.644
336.46
337.369
338.329
339.153
339.919
340.246
340.088
339.575
338.744
337.786
336.864
336.035
335.489
335.524
335.699
328.907
328.66
328.569
328.714
329.186
329.827
330.609
331.411
332.064
332.721
332.99
332.848
332.431
331.766
330.973
330.244
329.557
329.117
329.157
329.28
322.48
322.282
322.227
322.342
322.709
323.193
323.852
324.468
324.979
325.503
325.692
325.596
325.256
324.749
324.12
323.569
323.009
322.707
322.732
322.82
316.052
315.925
315.876
315.96
316.266
316.569
317.057
317.5
317.849
318.228
318.383
318.304
318.051
317.724
317.259
316.865
316.46
316.239
316.26
316.319
309.638
309.552
309.525
309.58
309.765
309.952
310.251
310.5
310.704
310.961
311.027
311.005
310.839
310.674
310.376
310.155
309.91
309.761
309.782
309.813
303.236
303.2
303.196
303.204
303.269
303.341
303.443
303.518
303.574
303.673
303.697
303.688
303.638
303.579
303.48
303.416
303.336
303.275
303.286
303.293
349.132
348.598
348.371
348.674
349.368
350.469
351.691
352.993
354.264
355.387
355.715
355.429
354.651
353.492
352.141
350.852
349.653
349.175
348.999
349.446
342.528
342.108
341.902
342.203
342.803
343.781
344.871
345.989
347.1
348.101
348.366
348.121
347.467
346.474
345.353
344.234
343.162
342.773
342.602
342.991
335.952
335.624
335.446
335.727
336.226
337.08
338.026
338.963
339.904
340.768
340.961
340.785
340.255
339.419
338.507
337.545
336.612
336.296
336.149
336.479
329.391
329.136
329.004
329.226
329.644
330.346
331.144
331.929
332.712
333.42
333.542
333.439
332.974
332.29
331.594
330.808
330.032
329.757
329.642
329.919
322.85
322.653
322.572
322.74
323.063
323.597
324.228
324.868
325.484
326.025
326.105
326.058
325.669
325.127
324.615
324.007
323.407
323.194
323.105
323.32
316.316
316.182
316.122
316.259
316.476
316.846
317.335
317.807
318.23
318.617
318.67
318.625
318.34
317.945
317.623
317.178
316.745
316.595
316.525
316.685
309.796
309.706
309.691
309.773
309.888
310.116
310.439
310.713
310.959
311.197
311.218
311.191
311.02
310.781
310.586
310.339
310.063
309.97
309.947
310.028
303.283
303.256
303.256
303.269
303.311
303.394
303.497
303.59
303.679
303.761
303.759
303.754
303.684
303.62
303.548
303.484
303.372
303.343
303.338
303.372
349.966
349.425
349.153
349.463
350.306
351.318
352.547
353.925
355.224
356.239
356.621
356.501
355.596
354.38
353.019
351.683
350.753
350.199
350.01
350.324
343.25
342.811
342.591
342.87
343.631
344.527
345.586
346.802
347.916
348.839
349.153
349.063
348.3
347.268
346.092
344.93
344.128
343.656
343.479
343.724
336.569
336.211
336.044
336.255
336.944
337.725
338.595
339.658
340.586
341.383
341.645
341.606
340.952
340.111
339.113
338.107
337.415
337.025
336.875
337.071
329.906
329.647
329.49
329.678
330.244
330.876
331.594
332.475
333.228
333.907
334.122
334.112
333.561
332.894
332.064
331.266
330.668
330.361
330.235
330.369
323.264
323.056
322.94
323.073
323.53
324.012
324.595
325.28
325.848
326.412
326.57
326.604
326.15
325.645
324.987
324.365
323.878
323.646
323.55
323.64
316.634
316.479
316.412
316.491
316.823
317.168
317.585
318.083
318.49
318.881
319.005
319.045
318.703
318.361
317.871
317.451
317.054
316.924
316.847
316.92
309.992
309.892
309.86
309.903
310.106
310.304
310.568
310.864
311.101
311.341
311.447
311.444
311.24
311.055
310.749
310.499
310.234
310.171
310.114
310.177
303.351
303.313
303.312
303.322
303.384
303.444
303.553
303.656
303.718
303.792
303.84
303.836
303.773
303.715
303.607
303.515
303.421
303.4
303.381
303.415
350.911
350.328
350.068
350.352
351.11
352.205
353.436
354.715
356.05
356.969
357.385
357.271
356.518
355.272
353.977
352.626
351.634
351.073
351.079
351.323
344.07
343.573
343.38
343.667
344.306
345.285
346.349
347.464
348.649
349.472
349.821
349.741
349.092
347.995
346.91
345.729
344.881
344.416
344.436
344.593
337.254
336.851
336.71
336.938
337.481
338.328
339.254
340.216
341.199
341.913
342.217
342.172
341.613
340.706
339.796
338.784
338.051
337.7
337.712
337.797
330.477
330.148
330.055
330.217
330.681
331.381
332.136
332.936
333.742
334.34
334.586
334.564
334.095
333.377
332.65
331.798
331.189
330.928
330.943
330.965
323.699
323.458
323.397
323.47
323.876
324.419
325.007
325.669
326.277
326.718
326.921
326.955
326.577
325.994
325.454
324.787
324.293
324.102
324.116
324.124
316.931
316.755
316.742
316.762
317.074
317.446
317.874
318.365
318.819
319.066
319.248
319.31
319.013
318.584
318.219
317.734
317.376
317.25
317.257
317.266
310.172
310.052
310.057
310.074
310.271
310.484
310.72
311.031
311.335
311.452
311.561
311.608
311.447
311.185
310.966
310.674
310.433
310.357
310.382
310.373
303.409
303.374
303.372
303.385
303.442
303.512
303.596
303.699
303.807
303.841
303.874
303.895
303.843
303.752
303.686
303.579
303.503
303.472
303.493
303.49
351.725
351.3
350.956
351.14
351.781
352.937
354.222
355.408
356.59
357.587
358.105
358.064
357.215
356.123
354.719
353.642
352.648
351.964
352.092
352.38
344.784
344.432
344.133
344.334
344.87
345.907
347.013
348.07
349.112
349.981
350.44
350.431
349.711
348.748
347.557
346.622
345.725
345.19
345.294
345.522
337.846
337.584
337.331
337.499
337.987
338.849
339.81
340.706
341.598
342.334
342.733
342.76
342.144
341.304
340.345
339.554
338.759
338.342
338.426
338.601
330.926
330.751
330.553
330.677
331.084
331.792
332.589
333.325
334.074
334.652
334.986
335.057
334.551
333.82
333.061
332.442
331.751
331.438
331.496
331.657
324.03
323.912
323.774
323.852
324.172
324.729
325.34
325.966
326.528
326.953
327.238
327.297
326.899
326.314
325.759
325.267
324.748
324.515
324.534
324.672
317.153
317.071
316.982
317.035
317.262
317.676
318.083
318.555
318.951
319.26
319.466
319.52
319.232
318.806
318.427
318.054
317.713
317.568
317.534
317.644
310.292
310.251
310.202
310.231
310.36
310.632
310.855
311.159
311.382
311.559
311.689
311.727
311.562
311.293
311.08
310.845
310.637
310.584
310.533
310.604
303.433
303.432
303.428
303.429
303.461
303.56
303.626
303.737
303.813
303.882
303.913
303.924
303.876
303.782
303.71
303.638
303.566
303.538
303.529
303.549
352.548
352.165
351.875
352.179
352.746
353.743
354.91
356.185
357.346
358.198
358.518
358.482
357.783
356.864
355.641
354.466
353.596
353.06
353.075
353.469
345.462
345.178
344.936
345.209
345.694
346.598
347.618
348.753
349.774
350.512
350.778
350.797
350.172
349.392
348.322
347.322
346.562
346.119
346.138
346.464
338.406
338.211
338.027
338.239
338.675
339.443
340.309
341.292
342.164
342.779
343.018
343.048
342.523
341.859
340.968
340.108
339.465
339.115
339.12
339.399
331.415
331.268
331.116
331.28
331.656
332.275
333.003
333.795
334.518
334.992
335.247
335.294
334.845
334.287
333.553
332.856
332.318
332.047
332.058
332.289
324.42
324.328
324.215
324.31
324.607
325.117
325.693
326.29
326.845
327.222
327.453
327.505
327.137
326.725
326.103
325.573
325.168
324.962
324.968
325.162
317.436
317.377
317.292
317.365
317.593
317.952
318.365
318.773
319.189
319.449
319.634
319.685
319.422
319.121
318.629
318.291
318.012
317.86
317.868
318.009
310.472
310.458
310.404
310.436
310.555
310.795
311.035
311.268
311.517
311.693
311.786
311.846
311.666
311.489
311.19
310.981
310.836
310.732
310.746
310.847
303.507
303.502
303.486
303.504
303.54
303.622
303.696
303.776
303.857
303.913
303.942
303.974
303.912
303.849
303.749
303.679
303.633
303.606
303.587
303.646
353.609
353.109
352.89
353.122
353.595
354.56
355.645
356.751
357.989
358.685
359.029
358.953
358.414
357.546
356.429
355.307
354.448
354.003
354.03
354.374
346.385
345.991
345.815
346.019
346.47
347.299
348.247
349.228
350.333
350.933
351.252
351.172
350.733
349.983
349.025
348.065
347.288
346.919
346.962
347.24
339.196
338.896
338.747
338.919
339.331
340.012
340.858
341.7
342.665
343.131
343.458
343.375
343.017
342.37
341.577
340.763
340.092
339.786
339.856
340.048
332.045
331.808
331.683
331.816
332.175
332.722
333.444
334.148
334.952
335.311
335.602
335.545
335.254
334.712
334.088
333.42
332.849
332.612
332.682
332.826
324.905
324.727
324.667
324.744
325.017
325.433
326.027
326.587
327.204
327.491
327.709
327.684
327.437
327.025
326.549
326.047
325.595
325.404
325.481
325.572
317.791
317.667
317.643
317.669
317.848
318.168
318.596
319.015
319.436
319.651
319.823
319.799
319.627
319.347
318.993
318.645
318.33
318.19
318.252
318.306
310.667
310.609
310.609
310.617
310.699
310.942
311.161
311.426
311.68
311.806
311.91
311.898
311.804
311.629
311.415
311.219
311.033
310.947
310.983
311.009
303.57
303.553
303.567
303.564
303.577
303.664
303.736
303.839
303.908
303.948
303.992
303.993
303.969
303.902
303.829
303.772
303.708
303.679
303.679
303.693
354.486
354.082
353.822
354.039
354.529
355.31
356.354
357.358
358.537
359.163
359.586
359.452
358.961
357.98
357.074
356.228
355.38
355.047
355.124
355.33
347.148
346.811
346.62
346.806
347.262
347.959
348.875
349.761
350.797
351.342
351.7
351.596
351.189
350.363
349.601
348.868
348.108
347.84
347.888
348.072
339.837
339.585
339.426
339.583
339.987
340.589
341.386
342.146
343.042
343.485
343.798
343.734
343.378
342.706
342.038
341.432
340.782
340.547
340.619
340.776
332.572
332.354
332.252
332.371
332.723
333.248
333.882
334.523
335.267
335.604
335.868
335.849
335.551
335.007
334.461
333.97
333.437
333.227
333.307
333.435
325.328
325.158
325.093
325.175
325.475
325.88
326.373
326.863
327.461
327.743
327.931
327.937
327.695
327.289
326.847
326.463
326.066
325.893
325.981
326.047
318.09
317.97
317.943
317.975
318.213
318.477
318.866
319.206
319.624
319.843
319.98
319.994
319.807
319.53
319.203
318.931
318.664
318.526
318.606
318.646
310.861
310.796
310.802
310.793
310.937
311.113
311.347
311.542
311.794
311.929
312.016
312.029
311.914
311.736
311.553
311.401
311.235
311.14
311.194
311.206
303.652
303.609
303.621
303.614
303.652
303.727
303.804
303.866
303.953
303.995
304.036
304.04
303.994
303.932
303.876
303.826
303.773
303.736
303.754
303.754
355.392
355.019
354.766
354.873
355.278
356.095
357.042
358
358.915
359.612
359.856
359.886
359.325
358.529
357.864
357.044
356.248
355.898
355.925
356.361
347.928
347.643
347.414
347.55
347.902
348.637
349.449
350.297
351.113
351.727
351.965
351.993
351.535
350.84
350.294
349.561
348.887
348.553
348.582
348.961
340.486
340.28
340.101
340.228
340.531
341.167
341.84
342.599
343.292
343.818
344.04
344.06
343.706
343.106
342.666
342.004
341.472
341.137
341.184
341.518
333.079
332.935
332.799
332.912
333.135
333.705
334.245
334.876
335.466
335.881
336.097
336.089
335.814
335.335
334.949
334.434
334.011
333.703
333.757
334.063
325.71
325.59
325.5
325.596
325.764
326.235
326.653
327.157
327.621
327.912
328.122
328.089
327.875
327.537
327.201
326.829
326.511
326.262
326.295
326.54
318.365
318.276
318.225
318.281
318.412
318.747
319.061
319.408
319.757
319.938
320.099
320.075
319.93
319.701
319.454
319.194
318.971
318.792
318.808
318.976
311.034
310.981
310.952
310.97
311.053
311.247
311.448
311.642
311.876
311.969
312.063
312.074
311.976
311.85
311.687
311.526
311.404
311.302
311.29
311.402
303.693
303.684
303.669
303.679
303.7
303.768
303.838
303.897
303.98
304.017
304.035
304.046
304.006
303.97
303.922
303.856
303.822
303.79
303.783
303.825
356.402
356.018
355.706
355.797
356.211
356.887
357.677
358.599
359.385
360.04
360.2
360.278
359.905
359.172
358.393
357.77
357.214
356.819
356.953
357.408
348.787
348.514
348.241
348.34
348.712
349.3
350
350.825
351.52
352.094
352.254
352.319
352.022
351.367
350.706
350.219
349.713
349.35
349.471
349.857
341.234
341.019
340.801
340.885
341.231
341.701
342.313
343.036
343.643
344.129
344.248
344.319
344.097
343.525
342.962
342.574
342.169
341.829
341.943
342.266
333.707
333.536
333.375
333.453
333.745
334.128
334.617
335.22
335.743
336.111
336.246
336.286
336.132
335.667
335.196
334.879
334.575
334.265
334.36
334.649
326.206
326.058
325.944
326.014
326.28
326.562
326.92
327.391
327.82
328.103
328.211
328.24
328.134
327.786
327.422
327.151
326.934
326.67
326.764
326.988
318.713
318.61
318.535
318.576
318.791
318.982
319.235
319.55
319.894
320.075
320.178
320.203
320.152
319.884
319.596
319.422
319.25
319.042
319.132
319.32
311.243
311.174
311.128
311.146
311.279
311.399
311.546
311.732
311.944
312.054
312.136
312.152
312.109
311.952
311.782
311.693
311.574
311.42
311.505
311.598
303.771
303.746
303.728
303.735
303.776
303.819
303.868
303.936
304.002
304.045
304.071
304.084
304.056
304.01
303.962
303.932
303.892
303.826
303.863
303.895
357.443
356.928
356.659
356.674
357.115
357.828
358.396
359.292
359.832
360.406
360.651
360.745
360.492
359.807
359.074
358.463
357.97
357.755
358.029
358.363
349.699
349.264
349.068
349.081
349.476
350.096
350.612
351.415
351.901
352.396
352.637
352.708
352.519
351.918
351.301
350.765
350.356
350.172
350.394
350.692
341.99
341.64
341.485
341.498
341.855
342.362
342.841
343.529
343.949
344.388
344.586
344.646
344.49
344.007
343.484
343.043
342.696
342.534
342.711
342.98
334.318
334.046
333.933
333.943
334.259
334.643
335.081
335.638
335.975
336.363
336.528
336.572
336.454
336.064
335.633
335.275
335.013
334.835
335.003
335.211
326.658
326.47
326.364
326.391
326.671
326.944
327.297
327.73
327.989
328.301
328.436
328.461
328.382
328.076
327.732
327.468
327.29
327.124
327.284
327.416
319.033
318.891
318.802
318.85
319.061
319.254
319.518
319.799
320.004
320.24
320.334
320.349
320.298
320.087
319.841
319.647
319.531
319.41
319.523
319.595
311.422
311.352
311.268
311.329
311.459
311.561
311.733
311.897
312.013
312.167
312.219
312.233
312.211
312.077
311.947
311.802
311.73
311.663
311.747
311.774
303.821
303.808
303.777
303.796
303.843
303.882
303.932
303.991
304.027
304.084
304.108
304.101
304.09
304.052
304.014
303.955
303.939
303.914
303.95
303.932
358.557
357.757
357.659
357.654
358.027
358.648
359.056
359.862
360.507
360.827
361.269
361.175
360.964
360.403
359.884
359.28
358.933
358.751
358.988
359.524
350.655
349.972
349.915
349.922
350.297
350.826
351.19
351.919
352.46
352.757
353.142
353.083
352.925
352.447
351.993
351.463
351.196
351.022
351.218
351.669
342.816
342.239
342.212
342.204
342.565
343.002
343.319
343.979
344.412
344.697
345.006
344.977
344.846
344.448
344.063
343.61
343.391
343.256
343.42
343.79
334.984
334.539
334.523
334.512
334.835
335.183
335.452
336.017
336.352
336.618
336.845
336.855
336.749
336.408
336.099
335.738
335.542
335.468
335.579
335.871
327.186
326.858
326.84
326.812
327.11
327.359
327.567
328.03
328.293
328.526
328.669
328.696
328.629
328.359
328.108
327.826
327.675
327.629
327.71
327.938
319.416
319.186
319.178
319.145
319.381
319.548
319.674
320.025
320.232
320.413
320.499
320.523
320.477
320.291
320.092
319.903
319.803
319.775
319.835
319.968
311.656
311.516
311.519
311.5
311.645
311.74
311.806
312.022
312.152
312.25
312.311
312.325
312.315
312.195
312.069
311.972
311.911
311.892
311.935
312.004
303.905
303.855
303.863
303.863
303.902
303.935
303.958
304.026
304.079
304.104
304.138
304.131
304.132
304.094
304.044
304.021
303.99
303.98
304.008
304.026
359.5
358.869
358.625
358.57
358.842
359.347
359.907
360.612
360.994
361.357
361.732
361.763
361.514
360.997
360.538
359.976
359.81
359.708
359.991
360.427
351.461
350.936
350.752
350.697
350.958
351.41
351.908
352.547
352.882
353.19
353.548
353.585
353.406
352.941
352.536
352.051
351.935
351.857
352.08
352.452
343.484
343.049
342.877
342.873
343.09
343.469
343.923
344.46
344.769
345.041
345.346
345.394
345.284
344.838
344.512
344.092
344.021
343.97
344.117
344.463
335.541
335.185
335.033
335.049
335.244
335.527
335.957
336.379
336.643
336.856
337.123
337.168
337.105
336.702
336.456
336.121
336.08
336.035
336.126
336.406
327.63
327.338
327.207
327.259
327.411
327.618
327.982
328.304
328.515
328.681
328.884
328.928
328.874
328.567
328.398
328.139
328.09
328.069
328.133
328.329
319.739
319.512
319.442
319.477
319.586
319.708
319.998
320.237
320.377
320.469
320.634
320.683
320.663
320.438
320.341
320.116
320.086
320.08
320.138
320.243
311.85
311.705
311.683
311.703
311.761
311.815
312.004
312.166
312.247
312.277
312.387
312.427
312.423
312.274
312.243
312.077
312.081
312.072
312.112
312.163
303.975
303.917
303.922
303.93
303.938
303.959
304.017
304.073
304.109
304.113
304.154
304.165
304.167
304.12
304.111
304.042
304.054
304.044
304.063
304.07
360.362
359.646
359.371
359.371
359.583
359.877
360.541
361.125
361.483
361.686
362.09
362.21
361.966
361.605
361.074
360.7
360.503
360.376
360.622
361.233
352.153
351.556
351.343
351.37
351.558
351.893
352.432
352.971
353.251
353.452
353.836
353.973
353.74
353.415
352.985
352.649
352.473
352.353
352.556
353.091
344.011
343.53
343.351
343.435
343.566
343.881
344.311
344.847
345.066
345.219
345.561
345.714
345.511
345.221
344.887
344.583
344.431
344.326
344.484
344.955
335.947
335.559
335.39
335.518
335.6
335.891
336.206
336.693
336.877
336.996
337.29
337.425
337.251
337.016
336.763
336.501
336.374
336.294
336.414
336.796
327.918
327.617
327.495
327.63
327.664
327.923
328.134
328.538
328.666
328.767
329.018
329.122
328.985
328.8
328.606
328.393
328.31
328.246
328.326
328.639
319.935
319.696
319.633
319.752
319.761
319.963
320.112
320.395
320.447
320.522
320.745
320.828
320.734
320.588
320.454
320.287
320.239
320.175
320.256
320.467
311.971
311.809
311.768
311.878
311.859
311.992
312.096
312.258
312.249
312.318
312.463
312.508
312.453
312.371
312.282
312.186
312.186
312.095
312.17
312.294
304.017
303.965
303.935
303.989
303.967
304.017
304.062
304.108
304.102
304.131
304.175
304.196
304.171
304.139
304.123
304.082
304.096
304.047
304.078
304.119
)
;

boundaryField
{
    hotSide
    {
        type            fixedGradient;
        gradient        nonuniform List<scalar> 
400
(
502.914
501.008
501.4
504.021
508.624
514.861
522.362
530.795
539.889
549.443
559.318
569.431
579.75
590.288
601.098
612.271
623.923
636.173
649.114
662.788
488.512
486.917
487.779
491.007
496.303
503.251
511.423
520.448
530.031
539.96
550.093
560.35
570.705
581.183
591.855
602.83
614.252
626.271
639.007
652.517
481.057
480.055
481.47
485.201
490.944
498.283
506.786
516.077
525.854
535.9
546.07
556.287
566.53
576.831
587.27
597.968
609.077
620.753
633.126
646.259
480.071
479.928
481.995
486.164
492.166
499.636
508.185
517.459
527.166
537.09
547.086
557.077
567.047
577.036
587.127
597.445
608.134
619.341
631.186
643.736
483.817
484.708
487.55
492.225
498.499
506.062
514.577
523.724
533.229
542.882
552.542
562.14
571.668
581.175
590.753
600.526
610.632
621.206
632.358
644.16
490.294
492.314
496.064
501.408
508.127
515.94
524.541
533.631
542.947
552.286
561.518
570.586
579.503
588.338
597.201
606.228
615.56
625.329
635.645
646.582
497.794
500.982
505.754
511.952
519.348
527.661
536.58
545.797
555.043
564.109
572.875
581.309
589.46
597.439
605.392
613.485
621.875
630.703
640.083
650.098
504.931
509.265
515.119
522.313
530.597
539.661
549.159
558.738
568.084
576.965
585.267
592.994
600.256
607.232
614.131
621.162
628.514
636.343
644.769
653.877
510.541
515.902
522.792
531.016
540.3
550.291
560.579
570.732
580.353
589.159
597.031
604.028
610.348
616.268
622.079
628.046
634.39
641.281
648.844
657.16
513.644
519.779
527.501
536.609
546.811
557.715
568.843
579.663
589.673
598.512
606.049
612.409
617.899
622.902
627.794
632.89
638.437
644.612
651.536
659.285
513.52
520.031
528.2
537.825
548.604
560.122
571.852
583.192
593.556
602.516
609.93
615.97
621.02
625.54
629.957
634.618
639.779
645.62
652.261
659.771
509.848
516.244
524.353
533.971
544.792
556.392
568.238
579.721
590.253
599.401
607.018
613.265
618.519
623.231
627.827
632.653
637.97
643.962
650.751
658.409
502.819
508.618
516.176
525.288
535.646
546.833
558.345
569.627
580.16
589.564
597.693
604.645
610.707
616.248
621.639
627.201
633.188
639.792
647.143
655.323
493.17
497.994
504.653
512.949
522.573
533.128
544.145
555.139
565.671
575.418
584.229
592.135
599.313
606.028
612.571
619.222
626.221
633.76
641.98
650.973
482.124
485.742
491.343
498.74
507.628
517.61
528.242
539.078
549.727
559.899
569.436
578.313
586.625
594.549
602.31
610.142
618.268
626.879
636.124
646.101
471.354
473.675
478.213
484.795
493.103
502.716
513.174
524.035
534.922
545.556
555.768
565.502
574.8
583.782
592.624
601.532
610.716
620.371
630.652
641.658
463.009
464.067
467.627
473.532
481.428
490.839
501.262
512.235
523.378
534.414
545.172
555.576
565.639
575.449
585.151
594.933
605.004
615.566
626.784
638.758
459.616
459.579
462.279
467.573
475.071
484.246
494.555
505.522
516.767
528.02
539.108
549.95
560.541
570.946
581.29
591.744
602.515
613.813
625.808
638.594
463.398
462.567
464.52
469.128
476.014
484.658
494.529
505.163
516.199
527.372
538.516
549.54
560.429
571.229
582.041
593.018
604.349
616.227
628.813
642.188
475.073
473.783
475.09
478.893
484.883
492.625
501.66
511.579
522.049
532.824
543.737
554.696
565.67
576.686
587.82
599.195
610.961
623.273
636.256
649.974
)
;
    }
    coldSide
    {
        type            mixed;
        refValue        uniform 300;
        refGradient     uniform 0;
        valueFraction   uniform 0.991591;
        source          uniform 0;
        value           nonuniform List<scalar> 
400
(
300.026
300.026
300.026
300.026
300.027
300.027
300.027
300.028
300.028
300.029
300.029
300.029
300.03
300.031
300.031
300.032
300.032
300.033
300.033
300.034
300.026
300.026
300.026
300.026
300.026
300.027
300.027
300.027
300.028
300.028
300.029
300.029
300.03
300.03
300.031
300.031
300.032
300.032