/*--------------------------------*- C++ -*----------------------------------*\
| =========                 |                                                 |
| \\      /  F ield         | OpenFOAM: The Open Source CFD Toolbox           |
|  \\    /   O peration     | Version:  2212                                  |
|   \\  /    A nd           | Website:  www.openfoam.com                      |
|    \\/     M anipulation  |                                                 |
\*---------------------------------------------------------------------------*/
FoamFile
{
    version     2.0;
    format      ascii;
    arch        "LSB;label=32;scalar=64";
    class       volScalarField;
    location    "./ITHACAoutput/true/19.6";
    object      error;
}
// * * * * * * * * * * * * * * * * * * * * * * * * * * * * * * * * * * * * * //

dimensions      [0 0 0 1 0 0 0];

internalField   nonuniform List<scalar> 
3200
(
7.48281
7.49858
7.59908
7.64956
7.82341
7.89977
8.07565
8.26582
8.40256
8.46772
8.44776
8.47041
8.37293
8.35266
8.21551
8.11343
8.01798
7.88681
7.96791
7.93195
6.35535
6.36755
6.40698
6.54115
6.66001
6.76063
6.94196
7.06839
7.1655
7.23946
7.23905
7.19859
7.16
7.03573
6.92831
6.9073
6.78502
6.65793
6.70237
6.82946
5.2958
5.32396
5.30129
5.38458
5.50925
5.65003
5.74171
5.86816
5.99183
6.07792
6.03277
6.01492
5.97654
5.86732
5.73383
5.70022
5.67074
5.59011
5.65125
5.66286
4.23305
4.27156
4.31897
4.36212
4.46281
4.53775
4.61114
4.70453
4.80745
4.86319
4.90008
4.85726
4.76217
4.73773
4.65987
4.61741
4.59629
4.63395
4.53701
4.4617
3.29405
3.29141
3.2884
3.3865
3.37667
3.49241
3.59925
3.63531
3.68735
3.73512
3.70022
3.69791
3.6642
3.67825
3.64658
3.59033
3.5042
3.43993
3.47035
3.50423
2.35047
2.29947
2.35249
2.36337
2.42883
2.53466
2.52325
2.56888
2.57452
2.65506
2.63553
2.65312
2.62899
2.55623
2.50223
2.47899
2.52933
2.4479
2.53151
2.42414
1.3896
1.38897
1.44365
1.45774
1.4742
1.49056
1.56085
1.61078
1.61984
1.58478
1.54308
1.52886
1.60223
1.5751
1.52227
1.5094
1.53227
1.49902
1.49191
1.51
0.462227
0.482807
0.472106
0.434961
0.516621
0.462412
0.522335
0.517306
0.455999
0.453602
0.548511
0.561514
0.503935
0.459371
0.501518
0.554231
0.47435
0.493727
0.404619
0.463993
6.99491
7.00109
6.99435
7.09746
7.12267
7.30482
7.39463
7.58477
7.67411
7.78469
7.76328
7.71173
7.7469
7.62572
7.51801
7.39577
7.35659
7.29149
7.19364
7.27404
5.96348
5.81346
5.93786
6.02741
6.08527
6.17263
6.33399
6.50112
6.54028
6.65269
6.70065
6.68959
6.63853
6.53161
6.38892
6.32009
6.27184
6.21057
6.26659
6.19465
4.87731
4.94528
4.95644
5.01953
5.09317
5.11336
5.31708
5.37452
5.51082
5.52099
5.55316
5.50213
5.46294
5.38913
5.28884
5.25003
5.17975
5.15528
5.17354
5.15266
3.99883
3.94206
3.9604
3.95215
4.2147
4.16583
4.26589
4.35284
4.43274
4.49069
4.45449
4.47551
4.46019
4.46773
4.33798
4.30064
4.20575
4.17179
4.15922
4.20656
3.02501
3.00541
3.10078
3.0935
3.1481
3.27521
3.32797
3.36285
3.47767
3.47831
3.50841
3.45182
3.42237
3.41591
3.37184
3.31804
3.28191
3.20171
3.23552
3.16913
2.21826
2.14591
2.16316
2.25106
2.2411
2.29468
2.33365
2.40681
2.43629
2.54184
2.4174
2.44933
2.48687
2.35717
2.33108
2.4245
2.31343
2.31772
2.39098
2.31988
1.34943
1.26754
1.35766
1.33358
1.38985
1.31841
1.36454
1.46777
1.46271
1.49462
1.47683
1.42284
1.42859
1.43886
1.39051
1.46137
1.37074
1.36458
1.38074
1.34036
0.40543
0.457154
0.375716
0.528544
0.420136
0.405222
0.451204
0.553613
0.478779
0.490705
0.502206
0.487803
0.41665
0.435672
0.478301
0.445891
0.468285
0.429127
0.509324
0.472397
6.21874
6.13624
6.23905
6.23399
6.39979
6.47738
6.59538
6.64076
6.83361
6.915
6.92353
6.90362
6.78135
6.69203
6.68318
6.56598
6.56378
6.45557
6.49096
6.50021
5.29391
5.24893
5.24035
5.26356
5.33293
5.53127
5.62607
5.69272
5.82567
5.87484
5.87319
5.86532
5.7931
5.80411
5.66106
5.62805
5.50332
5.64239
5.58933
5.64762
4.45528
4.36233
4.42372
4.40209
4.49101
4.58963
4.66986
4.76849
4.83441
4.89883
4.94527
4.91821
4.89693
4.73305
4.70114
4.72958
4.69108
4.61771
4.68602
4.63351
3.56058
3.48458
3.57511
3.59381
3.59421
3.74395
3.76652
3.88541
4.0054
3.96948
4.0199
3.99019
3.85545
3.91075
3.78816
3.81222
3.80434
3.72625
3.77757
3.85997
2.75294
2.67239
2.71289
2.76103
2.75803
2.91794
2.96338
3.01502
3.03527
3.07153
3.05757
3.05757
3.00178
3.02214
2.94942
2.93434
2.91049
2.95601
2.91271
2.88027
1.89928
1.92588
1.95319
1.99777
1.87349
2.02368
2.09942
2.09726
2.19704
2.23738
2.19581
2.2093
2.17305
2.11893
2.1549
2.10306
2.03568
2.09697
2.04897
2.07009
1.17235
1.17311
1.22151
1.20272
1.18394
1.20697
1.21668
1.22449
1.29196
1.31716
1.27585
1.32861
1.22964
1.19627
1.28759
1.25659
1.21806
1.25157
1.24902
1.20756
0.378781
0.375994
0.326076
0.303446
0.394912
0.367998
0.437758
0.380418
0.425859
0.425619
0.411579
0.463318
0.506289
0.455146
0.353971
0.301202
0.412467
0.467814
0.399886
0.368866
5.49992
5.43928
5.42742
5.42688
5.46273
5.53719
5.68051
5.74554
5.83546
5.95112
5.9802
5.97105
5.91243
5.80398
5.74979
5.66802
5.65131
5.68991
5.76545
5.8735
4.75509
4.66766
4.54782
4.63761
4.73428
4.85127
4.76332
4.91199
5.07395
5.00138
5.06394
5.03792
5.02126
4.88337
4.88847
4.8823
4.87067
4.81581
4.90968
4.92358
3.83866
3.85991
3.79168
3.84428
3.91952
3.94581
4.08796
4.08458
4.20381
4.22857
4.2663
4.22138
4.1709
4.079
4.10166
4.05281
4.04028
4.06452
4.1262
4.14958
3.13246
3.12099
3.02792
3.09762
3.16878
3.22848
3.29526
3.33008
3.3776
3.42002
3.40191
3.39558
3.43843
3.38874
3.34607
3.33826
3.22595
3.25991
3.31236
3.34659
2.39433
2.46513
2.3509
2.43853
2.42488
2.53083
2.42534
2.58749
2.58122
2.68841
2.67184
2.67662
2.65331
2.55048
2.5463
2.50202
2.55152
2.47901
2.55014
2.54903
1.697
1.72921
1.66754
1.62048
1.65676
1.74818
1.738
1.82721
1.80479
1.81534
1.89568
1.87762
1.82657
1.83229
1.78072
1.79135
1.79176
1.79405
1.82365
1.84152
1.0267
1.05945
1.02963
0.982476
0.971625
1.16056
1.05431
1.06731
1.05121
1.15077
1.18717
1.14286
1.12049
1.07118
1.05381
1.10119
1.10807
1.10993
1.18766
1.04986
0.380118
0.356153
0.327308
0.319845
0.378133
0.395923
0.345794
0.366074
0.431581
0.355353
0.331735
0.304596
0.376247
0.361912
0.387481
0.388368
0.394972
0.341084
0.377325
0.391544
4.75259
4.77036
4.70008
4.57927
4.65807
4.75945
4.82902
4.89686
5.05767
5.08405
5.1147
5.03673
4.99292
4.92396
4.92563
4.86513
4.87734
4.89004
4.98792
5.07708
4.08121
4.02759
4.00041
4.00451
4.00991
4.00509
4.1046
4.16046
4.2139
4.33211
4.25736
4.27846
4.22414
4.15823
4.10636
4.15747
4.13792
4.13021
4.24598
4.33865
3.39674
3.31965
3.30256
3.35315
3.34191
3.32185
3.46854
3.53114
3.53803
3.60373
3.56414
3.57882
3.51491
3.55915
3.4384
3.40151
3.46235
3.48185
3.55685
3.62381
2.72189
2.70714
2.69616
2.71352
2.68822
2.74559
2.76974
2.78542
2.88596
2.873
2.86403
2.89436
2.91152
2.84691
2.87953
2.77328
2.76975
2.87271
2.83318
2.89347
2.07968
2.00354
2.06299
2.04514
2.09753
2.05015
2.13602
2.15949
2.24896
2.2224
2.21329
2.26029
2.21756
2.15615
2.18723
2.18961
2.19797
2.22244
2.22354
2.27615
1.47642
1.4601
1.44981
1.45563
1.5304
1.45419
1.48952
1.49577
1.5549
1.59369
1.59396
1.59253
1.58234
1.58666
1.56475
1.57488
1.55886
1.4495
1.57936
1.59943
0.886488
0.830116
0.845347
0.83944
0.862187
0.881341
0.906552
0.903354
0.91413
0.926627
0.866863
1.01185
0.927264
0.939992
0.909885
0.999401
0.903837
0.924439
0.934053
1.00605
0.274674
0.315409
0.34168
0.31538
0.304669
0.30547
0.276565
0.332547
0.291056
0.368793
0.307328
0.358643
0.261994
0.341584
0.344731
0.253398
0.319415
0.324691
0.309735
0.335376
4.26457
4.1145
4.01673
4.04305
3.93659
4.0497
4.04961
4.07205
4.17302
4.20793
4.20892
4.1998
4.11542
4.16232
4.04488
4.15561
4.12566
4.20003
4.38234
4.41357
3.52229
3.59778
3.44794
3.31312
3.31057
3.40073
3.3473
3.42017
3.55407
3.59234
3.56549
3.58553
3.62111
3.55845
3.54736
3.52803
3.52909
3.57825
3.70765
3.82124
2.98543
2.83113
2.78872
2.8091
2.80396
2.77505
2.88681
2.91676
2.99
2.97586
2.98823
2.9393
2.88118
2.98619
2.97163
2.87972
2.91881
2.93655
3.11534
3.17461
2.40251
2.3255
2.28322
2.16335
2.26906
2.21124
2.30606
2.27315
2.35813
2.41928
2.36403
2.42307
2.35344
2.33298
2.41106
2.27844
2.37959
2.42122
2.52881
2.49447
1.8022
1.76763
1.7552
1.74928
1.72002
1.72867
1.7276
1.80316
1.8698
1.89386
1.83244
1.864
1.8493
1.77391
1.85413
1.79169
1.83908
1.86701
1.87879
1.99767
1.22929
1.30924
1.23564
1.20315
1.18425
1.25663
1.22012
1.3057
1.35808
1.32443
1.31
1.28104
1.28624
1.4032
1.284
1.30973
1.24674
1.33085
1.35172
1.40491
0.835854
0.749516
0.735588
0.671067
0.713681
0.761985
0.815664
0.768069
0.746123
0.763027
0.794263
0.731078
0.791745
0.714227
0.749347
0.683909
0.811216
0.852792
0.799573
0.799399
0.225853
0.263532
0.249373
0.266783
0.266974
0.264987
0.275728
0.318668
0.213736
0.279413
0.281608
0.288726
0.317964
0.213769
0.245156
0.274418
0.243949
0.232063
0.250528
0.287683
3.68741
3.70633
3.49254
3.35134
3.35526
3.26847
3.33626
3.4112
3.44261
3.40808
3.40812
3.49839
3.44897
3.4436
3.45428
3.46256
3.5373
3.61292
3.7727
3.94904
3.11125
3.01865
2.87258
2.87202
2.82344
2.77317
2.80386
2.83914
2.84481
2.89133
2.94878
2.91212
2.92585
2.8949
2.91631
2.99821
2.98957
3.07383
3.2044
3.3547
2.60626
2.53291
2.45895
2.36689
2.26323
2.31781
2.29884
2.33022
2.3648
2.38031
2.39148
2.43638
2.42205
2.39473
2.42792
2.3431
2.52725
2.64309
2.6036
2.8293
2.06024
2.03818
1.92201
1.90798
1.8737
1.83579
1.82561
1.89294
1.96429
1.9569
1.95948
1.90671
1.96504
1.86641
1.88154
1.90623
1.99156
2.07101
2.10608
2.17562
1.56583
1.51361
1.45119
1.41652
1.45234
1.43435
1.4832
1.3955
1.48422
1.50892
1.47046
1.51277
1.44313
1.45913
1.48374
1.52981
1.54483
1.65083
1.60638
1.65956
1.11696
1.10932
1.02011
1.04578
1.00775
0.937074
1.0142
0.979479
1.07565
1.08944
1.10194
1.01564
1.01396
1.00772
1.03591
1.00685
1.10179
1.13154
1.13199
1.22404
0.668095
0.593756
0.596111
0.5964
0.608864
0.607514
0.655338
0.572079
0.539875
0.591845
0.648147
0.620377
0.58787
0.576714
0.606144
0.655177
0.669072
0.704996
0.677927
0.716634
0.26553
0.293781
0.237476
0.188702
0.167389
0.170328
0.189521
0.169962
0.136541
0.245305
0.271997
0.283177
0.251555
0.221417
0.242564
0.144733
0.177722
0.212254
0.188449
0.177796
3.44031
3.18524
2.98288
2.97601
2.80528
2.80221
2.81047
2.74044
2.76904
2.82502
2.88827
2.84499
2.82656
2.8401
2.8676
2.85927
3.00417
3.15851
3.30059
3.56938
2.827
2.72803
2.52028
2.44401
2.38428
2.24247
2.32398
2.35067
2.34621
2.3794
2.37389
2.29175
2.32947
2.39822
2.38896
2.3938
2.49159
2.71234
2.74798
2.94367
2.34962
2.18492
2.08616
1.89752
1.88704
1.88884
1.90994
1.92542
1.94777
1.974
1.94262
1.93351
1.92646
1.91162
1.93343
1.97255
2.05111
2.14565
2.2765
2.41953
1.78906
1.74041
1.65831
1.55684
1.57288
1.47806
1.45312
1.49169
1.54573
1.58963
1.60708
1.56018
1.57965
1.58881
1.63555
1.64265
1.68698
1.73222
1.82047
1.93436
1.43356
1.29573
1.29134
1.20791
1.20425
1.14762
1.22106
1.19635
1.21806
1.17043
1.23335
1.14027
1.18712
1.14645
1.22891
1.23534
1.25623
1.33169
1.39895
1.53372
0.983038
0.859811
0.901037
0.903892
0.856769
0.838932
0.782529
0.827105
0.781154
0.880084
0.790913
0.840001
0.827416
0.829888
0.897767
0.851832
0.876539
0.928358
1.01252
1.02277
0.571793
0.618963
0.519333
0.527021
0.520722
0.553247
0.487153
0.456766
0.467501
0.465226
0.532178
0.500028
0.469941
0.512429
0.48826
0.450386
0.498278
0.54602
0.593195
0.62535
0.250776
0.147605
0.119924
0.187846
0.105401
0.209599
0.140808
0.10622
0.123774
0.142171
0.218607
0.189961
0.131864
0.214597
0.0797186
0.239383
0.157119
0.123459
0.18582
0.218634
3.16549
2.96039
2.68696
2.47884
2.4504
2.33638
2.27946
2.32512
2.24823
2.3409
2.30122
2.26523
2.26111
2.33441
2.39082
2.48141
2.55706
2.67565
3.00635
3.19282
2.66481
2.36569
2.16636
2.09886
2.06806
1.92044
1.82875
1.93604
1.85041
1.90447
1.92742
1.9672
1.86641
1.90735
1.9913
2.07851
2.11192
2.31516
2.46366
2.68753
2.18723
2.00889
1.84448
1.71274
1.61162
1.53609
1.57024
1.47505
1.56866
1.57905
1.53915
1.62791
1.55252
1.57436
1.57647
1.67588
1.75623
1.82159
2.05405
2.2409
1.69089
1.56274
1.46365
1.31502
1.25409
1.22263
1.26208
1.27416
1.22317
1.20868
1.30815
1.1893
1.20546
1.31246
1.37761
1.37719
1.39326
1.42127
1.61306
1.72304
1.30795
1.24732
1.07381
1.00732
0.988154
0.96001
0.914147
0.893459
0.848228
0.935618
0.94877
0.885297
0.929241
1.02008
1.02602
0.995222
1.06164
1.11625
1.29415
1.28459
0.853084
0.900243
0.699527
0.696166
0.714265
0.662388
0.653541
0.632844
0.653203
0.62908
0.611281
0.722307
0.67856
0.668328
0.720343
0.691901
0.786822
0.785533
0.886735
0.962949
0.557732
0.546833
0.458876
0.39989
0.366376
0.33441
0.375494
0.356443
0.388414
0.382851
0.400431
0.391612
0.386431
0.378871
0.454747
0.466621
0.418272
0.446528
0.515269
0.540514
0.128352
0.091348
0.191943
0.165094
0.213856
0.171737
0.146638
0.100067
0.0742577
0.172164
0.105573
0.1646
0.201352
0.139575
0.193641
0.142155
0.145176
0.144709
0.10318
0.12509
2.99373
2.66864
2.4633
2.28739
2.08351
1.96195
1.90543
1.92509
1.87646
1.83469
1.93426
1.84891
1.9839
1.97508
2.0188
2.11929
2.3068
2.55662
2.75826
3.00839
2.49288
2.23906
2.07075
1.87533
1.6609
1.59816
1.61874
1.55986
1.52708
1.55159
1.54911
1.60925
1.58856
1.61317
1.68096
1.82915
1.85764
2.04682
2.21559
2.51002
1.96799
1.73362
1.66838
1.48617
1.45077
1.32138
1.24958
1.16223
1.19977
1.22525
1.22637
1.26539
1.28258
1.29723
1.27968
1.41237
1.53547
1.68241
1.90213
2.06488
1.57317
1.46172
1.24163
1.1767
1.01067
1.01581
1.03368
0.997113
0.926421
0.922078
0.99532
0.999703
1.02566
1.09731
1.05537
1.14655
1.23875
1.32148
1.49895
1.59603
1.18882
1.14207
1.03434
0.940466
0.779364
0.747095
0.725127
0.746708
0.747645
0.718553
0.769138
0.768912
0.776296
0.79724
0.85152
0.859899
0.890746
0.976214
1.17922
1.28219
0.802836
0.756547
0.624624
0.561788
0.575501
0.537583
0.558119
0.52662
0.455191
0.495104
0.532944
0.536991
0.477974
0.541885
0.536959
0.579605
0.587846
0.741398
0.760211
0.832399
0.588393
0.460152
0.336796
0.359776
0.372271
0.316478
0.289432
0.362876
0.30898
0.304124
0.296034
0.360806
0.313894
0.342156
0.335558
0.331909
0.425703
0.409357
0.469652
0.527894
0.16818
0.166477
0.123798
0.152671
0.111668
0.0563806
0.141351
0.11977
0.0894622
0.0905484
0.0788609
0.108105
0.101091
0.0852765
0.0846233
0.0338301
0.134864
0.0828866
0.104434
0.194164
3.03811
2.59948
2.37425
2.11445
1.90577
1.77236
1.72795
1.6727
1.57109
1.55382
1.55629
1.70438
1.69587
1.65437
1.76785
1.94561
2.16798
2.39931
2.6754
2.94581
2.40118
2.21078
1.94136
1.74719
1.54611
1.42234
1.38393
1.30381
1.2967
1.28516
1.21983
1.36975
1.30851
1.36946
1.40091
1.54772
1.81247
1.96348
2.1892
2.43571
1.92059
1.74571
1.59828
1.39267
1.1846
1.1187
1.0547
1.02846
1.05051
1.03473
1.02128
1.02637
1.05089
1.12523
1.12125
1.29146
1.37436
1.5668
1.83052
1.96081
1.56696
1.4185
1.27454
1.09006
0.994696
0.863711
0.85354
0.799714
0.76331
0.785537
0.79867
0.765926
0.842742
0.896077
0.8449
1.02
1.05362
1.29032
1.43373
1.46726
1.18804
0.997532
0.923158
0.879246
0.774078
0.644699
0.640626
0.564519
0.654824
0.587405
0.598862
0.590208
0.634252
0.560443
0.662008
0.795367
0.879467
0.925911
1.09407
1.11075
0.813539
0.722875
0.647809
0.574901
0.474716
0.419582
0.449154
0.431601
0.424945
0.37833
0.386383
0.413205
0.438119
0.438178
0.516874
0.486585
0.611461
0.650337
0.777883
0.804249
0.409432
0.448008
0.390717
0.356692
0.342072
0.326776
0.290127
0.2156
0.203241
0.176288
0.292815
0.293706
0.24703
0.177085
0.307104
0.301886
0.377032
0.374847
0.47122
0.463018
0.152538
0.082881
0.149518
0.122194
0.108421
0.125252
0.0897835
0.0843137
0.0718583
0.0273991
0.134649
0.0453178
0.0292813
0.122831
0.105066
0.0379949
0.221285
0.0894847
0.182347
0.132685
3.07187
2.72456
2.4545
2.14461
1.95811
1.76645
1.55536
1.52213
1.44822
1.38971
1.38904
1.43078
1.40538
1.61208
1.66909
1.84
2.08595
2.31939
2.66609
3.0065
2.53558
2.22707
2.03364
1.80032
1.57553
1.37552
1.22244
1.16391
1.16398
1.0513
1.10409
1.12094
1.13362
1.32281
1.36162
1.55877
1.62881
1.96495
2.20795
2.4952
2.0251
1.81628
1.51909
1.37586
1.18079
1.04464
1.01116
0.982276
0.910023
0.837794
0.863771
0.886995
0.94239
0.960725
1.10985
1.19667
1.28319
1.56435
1.82475
2.02118
1.59801
1.42911
1.25846
0.998355
0.982985
0.808906
0.765102
0.701897
0.635211
0.690497
0.698712
0.626743
0.681067
0.757666
0.819181
0.919646
1.0682
1.27349
1.39327
1.65032
1.22449
1.01875
0.915143
0.786996
0.664638
0.596818
0.566927
0.512121
0.510587
0.466335
0.522484
0.444968
0.5363
0.532659
0.601002
0.6855
0.830215
0.947425
1.08668
1.2208
0.868064
0.710719
0.724067
0.577125
0.397793
0.428603
0.398679
0.344506
0.35246
0.313585
0.311352
0.361809
0.377933
0.36705
0.479418
0.486997
0.589626
0.686743
0.777584
0.812712
0.449013
0.393038
0.407764
0.304394
0.346817
0.214568
0.282951
0.241387
0.261796
0.164414
0.151613
0.17662
0.271563
0.251269
0.273577
0.294977
0.282691
0.454332
0.525961
0.520094
0.178383
0.0793587
0.12637
0.117589
0.0633392
0.0889391
0.0531136
0.0663428
0.0740795
0.112576
0.0513336
-0.00308156
0.0820558
0.165776
0.0394075
0.120953
0.108659
0.151734
0.144515
0.13203
3.24055
3.01505
2.57927
2.20991
1.98346
1.82652
1.58216
1.51705
1.52296
1.33334
1.37022
1.45296
1.46688
1.60598
1.73634
1.93001
2.16825
2.51065
2.79084
3.12776
2.78189
2.43319
2.11754
1.83875
1.58499
1.44404
1.32927
1.2117
1.20818
1.11865
1.11617
1.05874
1.18435
1.20835
1.39099
1.56455
1.72564
1.97646
2.34248
2.63429
2.19244
1.94539
1.71819
1.47252
1.20536
1.1169
1.04146
0.97505
0.912374
0.841022
0.85559
0.855076
0.935189
1.07359
1.10412
1.24948
1.3494
1.67191
1.864
2.06082
1.72963
1.52724
1.34555
1.10566
1.01058
0.902946
0.820466
0.705528
0.651489
0.694914
0.707491
0.654325
0.760523
0.783418
0.817059
1.0081
1.12342
1.33839
1.51068
1.66852
1.30392
1.15611
1.04176
0.845826
0.647817
0.69834
0.594568
0.556797
0.447078
0.420326
0.518541
0.467982
0.547887
0.579595
0.639419
0.716674
0.803753
0.959602
1.1181
1.281
0.866851
0.844642
0.697051
0.601097
0.520926
0.440756
0.386733
0.344469
0.329344
0.363514
0.339893
0.385381
0.339223
0.433889
0.382418
0.448592
0.56306
0.644877
0.816589
0.882273
0.564552
0.452574
0.462864
0.35667
0.257094
0.298333
0.317612
0.17778
0.230269
0.209309
0.191103
0.139722
0.202331
0.186884
0.215755
0.309039
0.364244
0.397584
0.397382
0.535147
0.171783
0.196103
0.114295
0.091109
0.154658
0.109108
0.101918
0.0219729
0.0281887
-0.0110302
0.0388998
0.0587329
0.0697956
0.103911
0.121068
0.0607766
0.0875097
0.0915634
0.200734
0.209193
3.69302
3.22653
2.88837
2.55544
2.30702
2.02514
1.79462
1.73339
1.6153
1.54288
1.61249
1.56152
1.62643
1.73101
1.93261
2.16166
2.38672
2.7751
3.11571
3.49768
2.98432
2.76812
2.35145
2.08
1.89213
1.62321
1.39532
1.37192
1.27661
1.18551
1.27703
1.21926
1.33175
1.35645
1.51981
1.7294
2.0364
2.25735
2.64883
2.91713
2.5183
2.22183
1.92273
1.70171
1.44249
1.24653
1.18308
1.01714
1.02154
0.896331
0.94077
0.910234
1.01563
1.08544
1.24101
1.37062
1.61163
1.89917
2.11827
2.32034
1.89803
1.77916
1.49653
1.28822
1.12586
0.929439
0.825682
0.856625
0.80892
0.66599
0.684941
0.675578
0.814436
0.765812
0.975503
1.08734
1.24227
1.43501
1.71049
1.92629
1.45253
1.31067
1.07934
1.09867
0.817331
0.680769
0.682833
0.605483
0.610913
0.541575
0.581421
0.510243
0.494337
0.662408
0.707558
0.787368
0.908394
1.08371
1.27605
1.38903
1.03624
0.938724
0.794056
0.7124
0.568016
0.46605
0.468387
0.360178
0.354807
0.260275
0.395305
0.413789
0.361956
0.423327
0.484125
0.53348
0.651258
0.806053
0.877497
0.992442
0.61893
0.547214
0.478156
0.416591
0.324663
0.258601
0.265141
0.192055
0.283446
0.184025
0.257769
0.226235
0.242635
0.248461
0.256327
0.383045
0.36238
0.412578
0.553053
0.577164
0.235048
0.145069
0.0607455
0.112589
0.130109
0.117656
0.0454178
0.0339442
0.102862
0.0515767
0.138873
0.0682629
0.118603
0.0713753
0.0287901
0.0955967
0.150075
0.128964
0.167305
0.22179
4.20305
3.78698
3.26595
2.99053
2.66034
2.41639
2.18065
2.03409
1.84514
1.89624
1.71466
1.78751
1.96901
2.14244
2.32091
2.53545
2.86037
3.11573
3.6059
3.94836
3.47181
3.17079
2.79149
2.42928
2.1945
1.90109
1.73157
1.5992
1.54173
1.44519
1.46749
1.41423
1.62479
1.67908
1.79046
2.03554
2.34035
2.64357
2.90143
3.28641
2.82602
2.4836
2.26714
2.01987
1.69932
1.57198
1.43832
1.18079
1.14935
1.15486
1.20855
1.179
1.22672
1.37024
1.44194
1.64355
1.85046
2.10882
2.45448
2.7342
2.22072
2.06728
1.73175
1.50111
1.33168
1.19237
1.05795
0.945572
0.871304
0.946598
0.879646
0.898252
0.970583
1.06318
1.16693
1.29258
1.49308
1.67434
1.96806
2.13782
1.69714
1.56626
1.42285
1.14725
1.00545
0.900065
0.81841
0.66983
0.769926
0.592791
0.675623
0.696697
0.651967
0.809804
0.916264
1.00868
1.13512
1.32273
1.49482
1.64901
1.15124
1.05744
0.93918
0.788139
0.722146
0.53816
0.541781
0.553013
0.507405
0.406951
0.486467
0.39567
0.475196
0.539936
0.610146
0.674822
0.758386
0.845232
0.976705
1.13367
0.66122
0.653082
0.585164
0.492884
0.413609
0.339638
0.289257
0.280599
0.246003
0.247852
0.318747
0.325384
0.288505
0.345137
0.338711
0.399272
0.464967
0.408897
0.571178
0.671268
0.249416
0.228662
0.182201
0.17448
0.0907824
0.17079
0.142594
0.135539
0.140003
0.120034
0.0942215
0.0271887
0.0841503
0.15527
0.166803
0.114831
0.121338
0.178809
0.207385
0.222931
4.92253
4.40032
3.97602
3.53851
3.18704
2.90932
2.6237
2.52263
2.34579
2.32511
2.19277
2.34666
2.3784
2.58961
2.80147
3.05075
3.38591
3.69603
4.13128
4.59544
4.05291
3.68139
3.24133
2.92536
2.67882
2.32426
2.14743
2.02225
1.98195
1.83714
1.8437
1.84455
1.97221
2.11817
2.26952
2.48844
2.78644
3.07895
3.39405
3.7909
3.3169
3.03521
2.68949
2.33681
2.1168
1.9028
1.69024
1.61086
1.54621
1.51494
1.51691
1.48333
1.52198
1.63815
1.78848
1.99814
2.22002
2.5215
2.93354
3.10677
2.63837
2.35553
2.13493
1.8403
1.7089
1.48453
1.30491
1.24922
1.16306
1.05187
1.1629
1.10952
1.18084
1.25282
1.43882
1.5392
1.75403
1.98794
2.29916
2.44607
1.98413
1.81849
1.57867
1.37283
1.25399
1.13224
1.01236
0.936508
0.96527
0.843796
0.861405
0.906025
0.883058
0.977792
1.02605
1.20223
1.35299
1.49935
1.7683
1.90151
1.3616
1.25902
1.17174
1.01467
0.861188
0.848287
0.714383
0.66532
0.592189
0.568604
0.597061
0.606486
0.628667
0.671962
0.68405
0.805408
0.927855
1.13113
1.27929
1.3154
0.826752
0.745306
0.637015
0.617746
0.537803
0.400352
0.376825
0.385064
0.330335
0.334991
0.364895
0.40935
0.405311
0.430605
0.483071
0.429312
0.50102
0.631339
0.714948
0.725202
0.346181
0.2799
0.220783
0.207939
0.167063
0.135493
0.116286
0.0681182
0.149761
0.0914208
0.103007
0.136213
0.101774
0.113869
0.205748
0.13608
0.228847
0.206754
0.240872
0.248155
5.62907
5.25947
4.72106
4.2648
3.95515
3.57635
3.3491
3.11634
2.96381
2.87161
2.8925
2.88062
3.01955
3.10525
3.40876
3.71097
4.04476
4.42714
4.88532
5.35203
4.75296
4.45581
3.90346
3.46993
3.22464
2.91318
2.65141
2.61106
2.42925
2.37886
2.33065
2.32455
2.41467
2.56355
2.75895
3.04301
3.28928
3.7397
4.11381
4.47395
3.90688
3.58261
3.23728
2.84116
2.56162
2.3718
2.17767
1.97734
1.96751
1.91351
1.8779
1.91989
1.98146
2.15058
2.28607
2.48837
2.66819
3.02471
3.39737
3.72517
3.05316
2.82841
2.5387
2.21856
2.10418
1.86799
1.77002
1.58316
1.50298
1.45922
1.46541
1.5128
1.54942
1.69251
1.77754
1.93175
2.15681
2.37392
2.60292
2.92567
2.36731
2.16426
1.94441
1.74034
1.52732
1.47529
1.30523
1.15538
1.10391
1.15705
1.09261
1.11858
1.12519
1.214
1.30265
1.44431
1.62147
1.84017
2.0775
2.17977
1.63833
1.52082
1.38767
1.20502
1.09089
0.950176
0.874013
0.939491
0.763575
0.73326
0.73004
0.765567
0.826149
0.84177
0.953707
1.07544
1.12016
1.25722
1.40199
1.57812
0.930462
0.951339
0.819888
0.643469
0.599057
0.59725
0.507255
0.488837
0.493555
0.442388
0.483865
0.465298
0.488557
0.566666
0.585593
0.637155
0.676043
0.768042
0.85871
0.897041
0.37214
0.363899
0.311274
0.243157
0.220198
0.211619
0.187713
0.211265
0.141049
0.111812
0.0963799
0.152447
0.100274
0.165763
0.211009
0.179819
0.216131
0.275876
0.228575
0.346104
6.56138
6.08675
5.57941
5.03576
4.65777
4.31406
3.98907
3.88127
3.62806
3.65927
3.63479
3.68746
3.7236
3.91711
4.10208
4.45626
4.81117
5.29572
5.73514
6.22699
5.50144
5.1186
4.67011
4.31542
3.86265
3.63627
3.30587
3.14077
3.06284
3.02683
2.97352
3.01878
3.05493
3.2274
3.45799
3.7078
4.0696
4.3497
4.79526
5.19966
4.54057
4.15371
3.77205
3.49518
3.24217
2.91056
2.70408
2.61365
2.44109
2.38986
2.34305
2.36934
2.41361
2.60334
2.82438
2.94654
3.29909
3.58274
3.96459
4.26779
3.59036
3.30757
3.03743
2.83607
2.49778
2.26448
2.15288
2.02186
1.87532
1.88519
1.87501
1.97777
1.98226
2.1061
2.21982
2.42898
2.63059
2.87046
3.09906
3.41718
2.83062
2.51187
2.27382
2.10808
1.93486
1.78415
1.66397
1.54319
1.51804
1.44106
1.3939
1.4125
1.48239
1.63984
1.65663
1.81671
1.96687
2.16042
2.44145
2.58091
1.93477
1.77554
1.58217
1.42938
1.34456
1.2188
1.17188
1.03057
1.02766
0.930863
1.06425
0.978528
1.06591
1.02691
1.14844
1.20517
1.42334
1.49672
1.68332
1.84879
1.18702
1.08386
1.01329
0.898012
0.864047
0.725262
0.609794
0.606147
0.61709
0.591751
0.626439
0.596606
0.565185
0.689175
0.70118
0.777044
0.797273
0.95769
0.971199
1.13007
0.346971
0.377806
0.278449
0.248618
0.278142
0.197597
0.173348
0.232937
0.207573
0.232552
0.162371
0.212486
0.150821
0.273481
0.265305
0.23997
0.346299
0.2963
0.334988
0.387135
7.62739
7.06441
6.50656
6.05583
5.61512
5.22102
4.96482
4.68182
4.50103
4.46205
4.43773
4.45834
4.54971
4.74078
4.96792
5.21537
5.70408
6.15184
6.63871
7.16836
6.32544
5.86306
5.44255
4.9959
4.6836
4.31948
4.02622
3.87286
3.77489
3.64272
3.69349
3.66651
3.70175
3.91696
4.07081
4.30782
4.71106
5.16027
5.56149
6.02111
5.16727
4.88339
4.46005
4.10038
3.81636
3.51473
3.28687
3.08727
3.04163
2.96932
2.96031
2.9413
3.04724
3.17842
3.38507
3.54625
3.84888
4.22721
4.46239
4.89928
4.13605
3.83126
3.51614
3.34082
2.99028
2.7357
2.64002
2.44792
2.36916
2.37494
2.32682
2.37283
2.38569
2.51809
2.61132
2.85649
3.10923
3.34938
3.68653
3.8751
3.1046
2.96558
2.6597
2.44167
2.27121
2.16825
1.9918
1.85852
1.84709
1.78956
1.66482
1.79629
1.79024
1.90811
1.97037
2.17004
2.34308
2.58273
2.87125
2.98347
2.2348
2.05868
1.83269
1.67581
1.60584
1.44577
1.3983
1.25833
1.24026
1.14639
1.22244
1.23979
1.31669
1.28433
1.36495
1.49953
1.65493
1.79967
1.93814
2.08724
1.36832
1.23897
1.12929
1.0162
0.953803
0.84755
0.825251
0.77007
0.772987
0.712236
0.704206
0.680636
0.721247
0.764684
0.84543
0.853792
1.03966
1.0592
1.15287
1.25625
0.488146
0.39308
0.347473
0.291437
0.309992
0.230232
0.232806
0.241475
0.260965
0.220393
0.223315
0.262096
0.234612
0.255192
0.282377
0.31929
0.295578
0.312715
0.353964
0.391936
8.36983
7.80858
7.24466
6.7577
6.37362
5.94706
5.67139
5.43022
5.21284
5.13081
5.08876
5.10018
5.28986
5.40577
5.69715
5.9503
6.43849
6.91731
7.43274
7.90234
6.95242
6.49332
6.05246
5.58936
5.2031
4.93449
4.67543
4.41631
4.26385
4.24139
4.20619
4.23333
4.25763
4.44268
4.71104
5.00495
5.33303
5.78748
6.1592
6.61474
5.6901
5.28767
4.93067
4.54121
4.31619
3.98398
3.75076
3.57419
3.45894
3.42224
3.31202
3.42466
3.46596
3.63227
3.83486
4.02356
4.32704
4.66125
5.06827
5.44077
4.52457
4.23705
3.92865
3.54716
3.36518
3.06773
2.95405
2.81026
2.70298
2.59447
2.63117
2.65455
2.7862
2.83959
3.01198
3.25212
3.43438
3.74996
4.00868
4.32428
3.47336
3.14273
2.95195
2.771
2.57237
2.27018
2.27016
2.16546
2.03118
1.9616
1.95748
2.03749
2.16534
2.17559
2.25195
2.42242
2.6146
2.81816
3.05328
3.32332
2.41633
2.27659
2.06725
1.92678
1.84952
1.69388
1.55132
1.49706
1.46585
1.3283
1.35488
1.43836
1.39132
1.46788
1.57959
1.63884
1.79735
2.0325
2.12328
2.23705
1.46358
1.30967
1.23348
1.14188
1.03834
1.03272
0.861161
0.854564
0.828516
0.832329
0.840708
0.8575
0.851582
0.947193
0.879431
1.02124
1.08616
1.20851
1.31466
1.29593
0.497017
0.479062
0.415921
0.378283
0.335187
0.300913
0.290385
0.339859
0.248645
0.290719
0.264619
0.303387
0.304434
0.231944
0.313074
0.3759
0.351805
0.3959
0.401342
0.467088
)
;

boundaryField
{
    hotSide
    {
        type            calculated;
        value           nonuniform List<scalar> 
400
(
7.04048
6.5504
5.7699
5.04457
4.28857
3.78972
3.19956
2.9373
2.64517
2.45393
2.47669
2.48668
2.62943
3.05382
3.53362
4.22073
4.89275
5.7884
6.8156
7.51709
7.05681
6.55715
5.68796
4.98448
4.30687
3.64016
3.21896
2.6827
2.44051
2.12925
2.03844
2.13972
2.40426
2.58764
3.11783
3.69878
4.52339
5.31398
6.25282
6.95603
7.15792
6.55102
5.79136
4.9732
4.23715
3.54293
3.0057
2.48082
2.16753
1.92435
1.81361
1.87003
1.96882
2.24979
2.5971
3.27475
3.98522
4.80687
5.69517
6.39229
7.20905
6.65477
5.78693
4.97328
4.11694
3.56981
2.86503
2.47446
1.95988
1.74888
1.55422
1.56051
1.5998
1.91717
2.32196
2.83749
3.5292
4.26344
5.24464
5.90551
7.38358
6.68064
5.95338
5.00975
4.19634
3.46392
2.86949
2.30423
1.93192
1.54544
1.34595
1.37438
1.37369
1.66906
1.99205
2.48627
3.21978
3.88565
4.80411
5.52159
7.4606
6.86345
6.03161
5.08484
4.29831
3.5776
2.78323
2.30166
1.81835
1.42429
1.21292
1.18307
1.21707
1.38747
1.74835
2.20879
2.84118
3.54213
4.41018
5.09519
7.63709
6.95386
6.1502
5.22872
4.36842
3.57802
2.8515
2.31037
1.76185
1.36814
1.16884
0.972289
0.97298
1.15719
1.51284
1.92337
2.61412
3.2173
4.15412
4.81964
7.82778
7.14452
6.19608
5.29423
4.43672
3.60089
2.92684
2.24071
1.80784
1.38811
1.11387
0.939311
0.908101
1.09616
1.36647
1.82246
2.3815
3.10963
3.87124
4.57857
7.9649
7.23423
6.3893
5.38451
4.59787
3.70217
2.95853
2.26957
1.7312
1.33971
1.01246
0.865584
0.914174
0.978218
1.17764
1.64573
2.22907
2.8565
3.69053
4.36127
8.03027
7.34502
6.47088
5.50036
4.62442
3.73725
2.92416
2.32569
1.824
1.29805
0.995301
0.807163
0.72463
0.905872
1.22881
1.62511
2.13692
2.88776
3.65159
4.27927
8.0103
7.3236
6.47941
5.52943
4.65507
3.73824
2.9242
2.38894
1.78432
1.39762
0.997777
0.806501
0.761517
0.97549
1.04723
1.49277
2.15781
2.86328
3.62727
4.23722
8.03275
7.27186
6.4593
5.52009
4.57693
3.72895
3.01432
2.34552
1.74819
1.31216
1.14575
0.848142
0.844167
0.924434
1.12001
1.6466
2.14588
2.91591
3.64784
4.2486
7.93489
7.30665
6.33667
5.46112
4.53278
3.64427
2.96462
2.32682
1.74383
1.44692
1.13705
0.822566
0.857929
0.9892
1.30139
1.67824
2.28471
2.95196
3.73913
4.43821
7.9141
7.18496
6.24685
5.35219
4.46337
3.69074
2.95884
2.34
1.81679
1.43779
1.09527
1.02901
0.996799
1.09358
1.47463
1.88928
2.37026
3.14534
3.93008
4.55402
7.77634
7.07664
6.23741
5.29743
4.46449
3.57278
2.96904
2.36705
1.87279
1.48114
1.20841
1.08571
1.12689
1.29493
1.65287
2.10094
2.67359
3.33015
4.15707
4.84527
7.6736
6.95375
6.11957
5.21505
4.40341
3.68294
2.97679
2.35822
1.96293
1.58121
1.38578
1.25627
1.32024
1.52369
1.86715
2.34999
2.9756
3.68413
4.40436
5.09828
7.57747
6.9139
6.11673
5.19771