/*--------------------------------*- C++ -*----------------------------------*\
| =========                 |                                                 |
| \\      /  F ield         | OpenFOAM: The Open Source CFD Toolbox           |
|  \\    /   O peration     | Version:  2212                                  |
|   \\  /    A nd           | Website:  www.openfoam.com                      |
|    \\/     M anipulation  |                                                 |
\*---------------------------------------------------------------------------*/
FoamFile
{
    version     2.0;
    format      ascii;
    arch        "LSB;label=32;scalar=64";
    class       volScalarField;
    location    "0";
    object      relativeErrorField;
}
// * * * * * * * * * * * * * * * * * * * * * * * * * * * * * * * * * * * * * //

dimensions      [0 0 0 1 0 0 0];

internalField   nonuniform List<scalar> 
3200
(
0.0232249
0.0232611
0.0235565
0.0236949
0.0242145
0.0244321
0.0249583
0.0255308
0.0259419
0.0261371
0.0260755
0.0261514
0.0258617
0.0258145
0.0254086
0.0251121
0.0248361
0.0244484
0.024717
0.0246189
0.0199155
0.0199445
0.0200558
0.0204622
0.0208198
0.0211202
0.0216732
0.0220565
0.022351
0.0225772
0.022576
0.0224543
0.0223423
0.021966
0.021644
0.0215928
0.0212251
0.0208413
0.0209932
0.0214013
0.016754
0.0168365
0.0167561
0.0170098
0.0173935
0.0178277
0.0181074
0.0184981
0.0188818
0.0191498
0.0190075
0.0189545
0.0188397
0.0185036
0.0180921
0.0179964
0.0179138
0.017669
0.0178715
0.0179153
0.0135193
0.013638
0.0137835
0.0139147
0.014229
0.0144611
0.0146887
0.0149807
0.0153043
0.0154796
0.015597
0.0154629
0.0151642
0.0150919
0.0148503
0.014722
0.0146617
0.0147888
0.0144855
0.0142496
0.0106204
0.0106092
0.010596
0.0109081
0.0108723
0.0112408
0.0115807
0.0116934
0.0118583
0.0120106
0.0118984
0.0118923
0.0117863
0.0118349
0.011737
0.0115603
0.0112872
0.0110842
0.011186
0.011298
0.00765015
0.00748285
0.00765354
0.00768692
0.00789767
0.00823959
0.00820047
0.00834705
0.00836411
0.00862509
0.00856163
0.00861944
0.00854238
0.00830765
0.00813417
0.00806077
0.00822669
0.00796393
0.00823795
0.00788992
0.00456587
0.00456333
0.00474227
0.0047878
0.00484105
0.00489399
0.005124
0.00528728
0.00531652
0.0052012
0.00506435
0.00501792
0.0052592
0.0051708
0.00499811
0.00495666
0.00503259
0.00492416
0.00490152
0.00496149
0.00153332
0.00160153
0.00156596
0.00144267
0.00171342
0.00153355
0.00173219
0.00171545
0.00151209
0.00150412
0.00181883
0.00186198
0.00167111
0.00152339
0.00166324
0.00183816
0.00157332
0.00163767
0.00134217
0.00153918
0.0217047
0.0217121
0.0216761
0.0219792
0.0220402
0.0225867
0.0228484
0.0234221
0.0236878
0.0240237
0.0239576
0.023804
0.0239228
0.0235624
0.0232459
0.0228853
0.0227817
0.022597
0.0223093
0.0225708
0.0186832
0.0182047
0.0185831
0.018851
0.019019
0.0192793
0.0197712
0.0202825
0.020397
0.0207435
0.020893
0.0208627
0.0207112
0.0203881
0.0199548
0.0197529
0.0196154
0.0194366
0.0196237
0.0194074
0.015427
0.0156359
0.0156632
0.0158536
0.0160769
0.0161315
0.0167655
0.0169392
0.0173633
0.0173923
0.0174937
0.0173359
0.0172179
0.0169927
0.0166852
0.0165721
0.0163597
0.0162915
0.0163576
0.0162979
0.0127692
0.012584
0.0126372
0.012605
0.013436
0.013274
0.013587
0.0138589
0.0141096
0.0142921
0.0141769
0.0142457
0.0142007
0.0142298
0.0138225
0.01371
0.0134139
0.0133117
0.0132772
0.0134325
0.00975168
0.00968611
0.00999022
0.00996313
0.0101352
0.0105405
0.0107067
0.0108159
0.0111829
0.0111837
0.0112805
0.0110997
0.0110073
0.0109897
0.0108515
0.0106823
0.0105699
0.0103154
0.0104277
0.0102163
0.0072192
0.00698251
0.00703695
0.00732099
0.00728664
0.00745887
0.00758371
0.00781985
0.00791445
0.00825669
0.00785246
0.00795682
0.00807997
0.00766015
0.00757719
0.00788293
0.00752385
0.00753975
0.00777992
0.00754991
0.00443364
0.00416416
0.00445957
0.00437979
0.00456384
0.00432855
0.00447935
0.00481763
0.00480057
0.00490507
0.0048467
0.00466974
0.00468902
0.00472333
0.00456529
0.00479869
0.00450182
0.0044823
0.00453604
0.00440384
0.00134489
0.00151641
0.00124621
0.00175304
0.0013934
0.00134386
0.00149628
0.00183581
0.00158761
0.00162713
0.00166527
0.00161753
0.00138163
0.00144478
0.00158622
0.00147882
0.00155317
0.00142337
0.00168946
0.00156702
0.0192858
0.0190198
0.0193253
0.0192954
0.0197936
0.0200187
0.0203695
0.0204979
0.0210844
0.0213307
0.0213571
0.0213004
0.0209318
0.020668
0.0206548
0.0203076
0.0203162
0.019996
0.0201193
0.0201587
0.0165777
0.0164293
0.0163927
0.0164547
0.0166606
0.017269
0.0175545
0.0177535
0.0181616
0.0183113
0.0183062
0.0182852
0.0180666
0.01811
0.0176742
0.0175826
0.0172043
0.0176504
0.0174947
0.0176853
0.0140865
0.0137874
0.0139743
0.0138983
0.0141711
0.0144742
0.0147198
0.0150242
0.0152272
0.0154276
0.0155738
0.0154912
0.0154289
0.014919
0.0148259
0.0149239
0.0148107
0.0145871
0.0148104
0.01465
0.011366
0.01112
0.0114041
0.0114586
0.0114545
0.0119263
0.0119932
0.0123674
0.012746
0.01263
0.0127905
0.0126976
0.012272
0.0124524
0.0120671
0.0121493
0.0121299
0.0118863
0.012055
0.0123217
0.00887231
0.00861066
0.00873832
0.0088902
0.00887729
0.00938864
0.00953171
0.00969513
0.00975826
0.00987379
0.00982891
0.00982995
0.00965256
0.00972072
0.00948991
0.00944478
0.00937144
0.00952143
0.00938499
0.00928269
0.00617993
0.00626542
0.00635277
0.00649613
0.00609036
0.00657694
0.00682146
0.00681306
0.0071362
0.00726666
0.00713163
0.00717602
0.00705929
0.00688485
0.00700337
0.00683668
0.00661938
0.00682045
0.00666586
0.00673571
0.00385141
0.00385351
0.00401193
0.00394961
0.0038873
0.0039623
0.00399359
0.00401875
0.00423981
0.00432232
0.00418677
0.00436007
0.00403564
0.00392661
0.00422695
0.00412584
0.00399998
0.00411066
0.00410285
0.00396707
0.00125644
0.00124715
0.00108152
0.00100641
0.0013097
0.00122037
0.00145164
0.00126145
0.00141209
0.00141127
0.00136471
0.0015363
0.00167883
0.00150931
0.00117386
0.000998915
0.00136799
0.00155164
0.0013264
0.00122355
0.0170426
0.016846
0.0167982
0.0167845
0.0168829
0.0171008
0.0175318
0.0177227
0.0179929
0.0183456
0.0184352
0.0184109
0.0182375
0.0179129
0.0177573
0.0175174
0.0174786
0.0176106
0.0178562
0.0182003
0.0148798
0.0145997
0.0142167
0.0144883
0.0147808
0.0151366
0.0148536
0.0153098
0.0158091
0.0155801
0.015775
0.0156968
0.0156504
0.0152279
0.0152526
0.0152429
0.0152164
0.0150544
0.0153568
0.0154071
0.0121296
0.0121922
0.0119708
0.0121304
0.012361
0.0124373
0.012879
0.012863
0.0132346
0.0133104
0.0134292
0.0132899
0.0131349
0.0128508
0.0129285
0.0127814
0.0127489
0.0128322
0.0130333
0.0131121
0.00999448
0.00995486
0.00965412
0.00987199
0.0100942
0.0102798
0.0104882
0.0105954
0.0107439
0.0108775
0.0108199
0.0108011
0.0109402
0.0107858
0.0106543
0.0106341
0.010281
0.0103938
0.0105653
0.0106777
0.00771361
0.00793983
0.00756954
0.00784895
0.00780226
0.00814033
0.00779856
0.00831771
0.00829595
0.00863956
0.00858631
0.00860257
0.00852929
0.00820092
0.00819011
0.00805045
0.00821265
0.00798203
0.00821365
0.008212
0.00552024
0.00562406
0.00542225
0.00526793
0.00538449
0.00568017
0.0056458
0.00593446
0.00586082
0.00589462
0.0061555
0.00609731
0.00593236
0.0059521
0.00578591
0.0058219
0.00582473
0.00583362
0.00593122
0.00599034
0.00337235
0.00347957
0.00338118
0.00322583
0.00318971
0.00380938
0.00346016
0.00350241
0.00344928
0.00377577
0.00389521
0.00375002
0.00367692
0.00351552
0.00345898
0.00361505
0.00363822
0.00364487
0.00390064
0.00344844
0.0012608
0.00118127
0.00108555
0.00106074
0.00125399
0.00131292
0.00114663
0.00121383
0.00143099
0.00117823
0.00109992
0.00100995
0.00124756
0.00120008
0.00128492
0.00128793
0.0013099
0.00113124
0.0012515
0.0012987
0.0147109
0.0147584
0.0145317
0.0141484
0.0143817
0.0146847
0.0148899
0.0150912
0.0155808
0.0156589
0.0157534
0.0155163
0.0153872
0.0151827
0.0151974
0.015021
0.0150694
0.015119
0.0154315
0.0157153
0.0127591
0.012586
0.0124941
0.0124993
0.0125085
0.012486
0.0127891
0.0129572
0.0131193
0.0134849
0.0132522
0.0133203
0.0131555
0.0129562
0.0128017
0.0129688
0.0129157
0.0128995
0.0132684
0.0135639
0.0107246
0.0104774
0.0104185
0.0105727
0.0105317
0.0104631
0.01092
0.0111127
0.0111313
0.0113362
0.0112117
0.0112596
0.0110617
0.0112053
0.0108302
0.0107195
0.010917
0.0109841
0.0112261
0.0114416
0.0086788
0.00862925
0.00859086
0.00864251
0.00855821
0.00873716
0.0088106
0.00885758
0.00917515
0.00913285
0.00910433
0.00920185
0.00925859
0.00905608
0.00916337
0.00882901
0.00882162
0.00915342
0.009031
0.00922589
0.00669647
0.00644986
0.00663922
0.00657955
0.0067458
0.00659123
0.0068652
0.00693887
0.00722503
0.00713903
0.00710976
0.00726144
0.00712548
0.00692992
0.00703196
0.00704193
0.00707124
0.00715235
0.00715809
0.0073291
0.00480092
0.0047471
0.0047126
0.00473038
0.00497212
0.00472338
0.00483708
0.00485648
0.0050478
0.00517336
0.00517422
0.00516997
0.00513757
0.00515254
0.00508249
0.00511662
0.00506583
0.00471158
0.00513484
0.00520092
0.00291116
0.00272577
0.00277541
0.00275561
0.00282986
0.00289231
0.00297464
0.00296382
0.00299894
0.0030398
0.00284375
0.00331952
0.00304226
0.00308437
0.00298598
0.00328022
0.00296701
0.00303508
0.00306705
0.00330378
0.000910988
0.00104606
0.00113314
0.00104586
0.00101029
0.0010129
0.000917011
0.00110259
0.000964994
0.00122272
0.00101893
0.00118908
0.000868667
0.00113259
0.00114308
0.000840274
0.00105924
0.00107679
0.00102724
0.00111231
0.0131823
0.0127123
0.0124026
0.0124756
0.012139
0.0124796
0.0124719
0.0125348
0.012841
0.012946
0.0129491
0.0129234
0.0126683
0.0128191
0.0124648
0.0128144
0.0127305
0.0129686
0.0135398
0.0136429
0.0109987
0.0112297
0.0107563
0.0103298
0.0103157
0.0105906
0.0104188
0.0106411
0.0110542
0.0111714
0.0110879
0.011152
0.0112662
0.0110761
0.0110473
0.0109934
0.0110031
0.0111628
0.0115727
0.0119322
0.00941652
0.00892671
0.00878903
0.00884887
0.00882824
0.00873296
0.00908066
0.00917148
0.00939924
0.00935349
0.00939238
0.00923984
0.0090596
0.00939326
0.00935159
0.00906677
0.00919446
0.00925491
0.00982285
0.0100132
0.00765415
0.00740671
0.00726933
0.00688487
0.0072183
0.00703156
0.00733038
0.00722355
0.00749195
0.00768533
0.0075098
0.00769828
0.00747869
0.00741593
0.00766698
0.00724815
0.00757307
0.00770868
0.00805425
0.00794711
0.00579928
0.0056868
0.00564514
0.00562431
0.00552842
0.00555447
0.00554943
0.00579079
0.00600376
0.00608043
0.00588323
0.00598511
0.00593895
0.00569818
0.0059576
0.0057588
0.00591305
0.00600474
0.0060444
0.00642827
0.00399548
0.00425464
0.00401465
0.00390817
0.00384589
0.00407999
0.00396064
0.00423771
0.00440716
0.00429767
0.00425084
0.00415715
0.00417454
0.00455494
0.00416887
0.00425339
0.00404976
0.00432397
0.00439271
0.00456628
0.0027441
0.00246043
0.0024144
0.00220231
0.00234183
0.00249999
0.00267576
0.00251937
0.00244719
0.00250254
0.00260499
0.00239785
0.00259703
0.002343
0.00245853
0.00224414
0.00266225
0.0027991
0.00262475
0.00262442
0.000749
0.000873924
0.000826934
0.000884627
0.000885216
0.000878586
0.000914159
0.00105649
0.000708588
0.000926307
0.000933584
0.000957198
0.00105415
0.000708739
0.000812835
0.000909899
0.000808911
0.000769535
0.000830801
0.000954046
0.0113796
0.0114327
0.010767
0.0103252
0.0103307
0.0100573
0.0102602
0.0104858
0.0105788
0.0104709
0.010471
0.0107503
0.010602
0.0105903
0.0106291
0.0106611
0.0108981
0.0111381
0.0116374
0.012187
0.00970137
0.00940892
0.00894907
0.00894242
0.0087863
0.00862523
0.00871643
0.00882256
0.0088376
0.00898072
0.00915915
0.00904669
0.00909199
0.00899946
0.00907043
0.00933017
0.00930842
0.00957604
0.00998787
0.0104605
0.00821062
0.00797691
0.00774065
0.00744735
0.00711781
0.00728613
0.00722351
0.00731956
0.00742633
0.00747405
0.00750915
0.00765112
0.00760803
0.00752482
0.00763229
0.00736899
0.00795193
0.00832033
0.00819955
0.00891329
0.00655721
0.00648525
0.00611343
0.00606645
0.00595514
0.00583243
0.00579811
0.00601024
0.00623548
0.00621135
0.00621954
0.00605269
0.00623916
0.0059277
0.00597779
0.00605853
0.00633221
0.00658734
0.00670129
0.00692442
0.00503477
0.00486583
0.00466386
0.00455108
0.00466471
0.00460557
0.00476113
0.0044786
0.00476256
0.00484142
0.00471803
0.00485416
0.00463149
0.00468388
0.00476416
0.00491353
0.00496331
0.00530547
0.00516405
0.00533614
0.00362835
0.00360299
0.00331258
0.00339518
0.003271
0.00304095
0.0032906
0.00317742
0.003489
0.00353349
0.00357404
0.00329436
0.00328927
0.00326956
0.00336169
0.00326807
0.00357705
0.00367443
0.00367662
0.00397618
0.00219262
0.00194847
0.00195596
0.00195665
0.00199726
0.00199258
0.00214918
0.00187595
0.00177022
0.00194056
0.00212516
0.00203418
0.00192773
0.00189134
0.00198809
0.00214919
0.00219507
0.00231323
0.00222468
0.00235192
0.000880477
0.000974126
0.000787397
0.00062565
0.000554958
0.000564679
0.000628284
0.000563423
0.000452622
0.000813158
0.000901637
0.000938711
0.000833906
0.000734022
0.000804158
0.000479844
0.000589245
0.000703768
0.000624864
0.000589559
0.0105967
0.00980675
0.00917865
0.00915213
0.00862196
0.00860761
0.00862855
0.00840995
0.00849507
0.00866543
0.00885944
0.0087281
0.00867422
0.00871952
0.00880849
0.00878791
0.00923875
0.00971909
0.0101619
0.0109943
0.0088004
0.00848909
0.00783886
0.00759771
0.00740818
0.0069641
0.00721398
0.00729409
0.00727829
0.00738021
0.00736312
0.00710933
0.00722828
0.00744441
0.00741901
0.00743777
0.00774564
0.00843623
0.00855118
0.00916356
0.00739169
0.00687139
0.00655812
0.00596249
0.00592692
0.00593005
0.00599395
0.00604062
0.00610932
0.00619086
0.00609244
0.0060646
0.00604387
0.00599922
0.00607003
0.00619547
0.0064451
0.00674516
0.0071594
0.00761163
0.00568749
0.00553145
0.00526872
0.00494454
0.00499366
0.00469095
0.00461032
0.00473147
0.00490192
0.00504064
0.00509595
0.00494775
0.00501045
0.00504084
0.00519077
0.00521517
0.00535787
0.00550354
0.00578589
0.00614941
0.00460527
0.00416167
0.00414648
0.00387748
0.00386461
0.00368187
0.0039165
0.00383645
0.00390547
0.00375247
0.0039542
0.00365607
0.00380685
0.00367718
0.00394265
0.00396439
0.00403258
0.00427606
0.00449321
0.00492703
0.00319124
0.0027908
0.00292406
0.00293272
0.00277925
0.00272085
0.00253746
0.00268159
0.00253234
0.0028529
0.00256384
0.00272311
0.0026826
0.00269103
0.00291166
0.00276323
0.00284398
0.00301272
0.00328646
0.00332023
0.00187582
0.00203039
0.00170338
0.00172838
0.0017075
0.00181394
0.00159706
0.0014973
0.00153239
0.00152488
0.00174433
0.00163901
0.00154049
0.00167992
0.00160086
0.00147686
0.00163412
0.00179091
0.00194587
0.00205152
0.000831444
0.000489369
0.000397579
0.000622733
0.000349401
0.000694787
0.000466739
0.00035208
0.000410255
0.000471224
0.000724572
0.000629632
0.000437077
0.000711327
0.000264254
0.000793549
0.000520868
0.000409299
0.000616066
0.000724879
0.00972887
0.00909476
0.00825045
0.00760723
0.0075158
0.0071623
0.0069845
0.00712159
0.00688418
0.00716684
0.00704536
0.0069362
0.00692556
0.00715286
0.00732918
0.00761093
0.00784728
0.00821572
0.00923595
0.00981285
0.00827972
0.00734774
0.00672557
0.00651287
0.00641422
0.00595359
0.00566701
0.00599741
0.00573073
0.00589739
0.00596847
0.00609243
0.00578172
0.00591055
0.00617327
0.00644665
0.00655339
0.00718754
0.00765201
0.00835032
0.00686971
0.00630771
0.00578925
0.00537356
0.0050542
0.00481544
0.00492073
0.00462109
0.00491331
0.00494531
0.00482035
0.00509889
0.00486378
0.00493365
0.00494202
0.00525574
0.00551
0.00571741
0.00644951
0.00703828
0.00536828
0.00496023
0.00464423
0.0041712
0.00397659
0.00387557
0.00399942
0.00403672
0.00387451
0.00382827
0.00414333
0.00376722
0.00381909
0.00415907
0.00436683
0.00436692
0.00441937
0.00450975
0.00511994
0.00547036
0.00419739
0.00400207
0.0034445
0.00323037
0.00316804
0.00307702
0.00292935
0.0028625
0.00271722
0.00299695
0.00303908
0.00283596
0.00297714
0.00326882
0.00328858
0.0031907
0.00340454
0.00358064
0.00415232
0.00412242
0.00276729
0.00291988
0.00226846
0.00225713
0.00231536
0.0021468
0.00211777
0.00205042
0.00211617
0.00203792
0.00198026
0.00234005
0.00219854
0.00216568
0.00233463
0.00224286
0.00255105
0.00254736
0.00287607
0.00312368
0.00182886
0.00179298
0.00150442
0.00131088
0.00120088
0.00109598
0.0012305
0.00116797
0.00127265
0.00125439
0.00131199
0.00128313
0.00126623
0.00124156
0.00149036
0.00152946
0.00137114
0.00146393
0.00168948
0.0017724
0.000425483
0.000302808
0.000636244
0.000547224
0.000708823
0.0005692
0.000485996
0.000331638
0.000246097
0.000570561
0.000349876
0.000545502
0.000667314
0.000462589
0.000641798
0.000471172
0.000481203
0.000479676
0.00034203
0.00041467
0.00917826
0.00817843
0.0075455
0.0070031
0.00637563
0.00600072
0.00582532
0.00588332
0.00573324
0.00560485
0.00590904
0.00564907
0.00606305
0.00603826
0.00617461
0.0064851
0.00706251
0.00783135
0.00845308
0.0092232
0.00772889
0.00693967
0.0064153
0.00580729
0.00514096
0.00494465
0.00500643
0.00482281
0.0047204
0.0047956
0.00478793
0.00497441
0.00491154
0.0049892
0.00520086
0.00566175
0.00575252
0.00634115
0.0068669
0.00778205
0.00616984
0.00543357
0.00522721
0.00465454
0.00454194
0.00413537
0.00390939
0.00363511
0.00375182
0.0038311
0.00383461
0.00395702
0.00401155
0.00405846
0.00400487
0.00442172
0.00480894
0.00527118
0.00596173
0.00647362
0.00498705
0.00463269
0.00393401
0.00372708
0.00320021
0.00321551
0.0032712
0.00315476
0.00293064
0.00291666
0.00314833
0.00316245
0.00324509
0.00347255
0.00334073
0.00363046
0.00392363
0.00418699
0.00475068
0.0050595
0.00381062
0.00366013
0.00331408
0.00301257
0.0024959
0.00239199
0.00232116
0.00238982
0.00239253
0.00229927
0.00246114
0.00246058
0.00248452
0.00255199
0.00272633
0.00275381
0.0028533
0.00312786
0.00377916
0.0041099
0.00260209
0.00245176
0.00202389
0.00181997
0.00186406
0.00174094
0.00180717
0.00170496
0.00147357
0.00160271
0.0017252
0.00173838
0.00154747
0.0017546
0.00173892
0.00187735
0.00190439
0.00240226
0.00246363
0.00269791
0.00192842
0.001508
0.00110363
0.00117881
0.00121961
0.00103671
0.000948033
0.00118851
0.00101193
0.000995996
0.000969501
0.00118166
0.00102808
0.00112073
0.00109922
0.00108738
0.00139481
0.0013414
0.00153914
0.00173014
0.000557416
0.000551758
0.00041029
0.000505965
0.000370063
0.000186836
0.0004684
0.000396876
0.00029644
0.000300037
0.00026131
0.000358213
0.000334981
0.000282584
0.000280428
0.000112111
0.000446951
0.000274703
0.000346128
0.000643538
0.00928874
0.00794481
0.00725319
0.00645647
0.00581654
0.00540696
0.00526939
0.00509926
0.00478839
0.00473517
0.00474272
0.00519462
0.0051699
0.00504502
0.0053932
0.00593812
0.00661993
0.00732974
0.00817684
0.00900657
0.00742683
0.00683579
0.00600041
0.00539802
0.00477483
0.00439087
0.0042708
0.00402241
0.00399966
0.00396365
0.00376216
0.00422499
0.00403693
0.00422616
0.00432472
0.0047798
0.00559971
0.00606877
0.00676909
0.00753363
0.00600905
0.00546046
0.00499765
0.00435318
0.00370149
0.00349441
0.00329354
0.00321082
0.00327909
0.00322954
0.00318756
0.00320373
0.00328083
0.00351377
0.00350239
0.00403539
0.00429595
0.00489922
0.00572573
0.00613488
0.00495907
0.00448828
0.00403169
0.00344712
0.00314463
0.00272978
0.00269697
0.00252638
0.00241104
0.00248105
0.00252253
0.0024193
0.00266231
0.00283138
0.00267033
0.00322463
0.00333186
0.00408157
0.00453648
0.00464354
0.00380315
0.00319277
0.00295408
0.00281291
0.00247589
0.00206163
0.0020482
0.00180459
0.00209303
0.00187743
0.00191404
0.00188649
0.0020275
0.00179184
0.00211698
0.00254399
0.00281362
0.00296289
0.00350174
0.00355573
0.00263431
0.00234045
0.00209708
0.00186075
0.00153624
0.0013576
0.00145308
0.00139614
0.00137449
0.00122366
0.00124971
0.00133652
0.00141722
0.00141758
0.0016724
0.00157465
0.00197909
0.00210527
0.00251855
0.00260422
0.00134112
0.00146737
0.0012796
0.00116805
0.00112007
0.00106988
0.000949808
0.000705774
0.000665286
0.000577041
0.000958468
0.000961409
0.000808662
0.000579737
0.00100547
0.000988483
0.00123466
0.00122763
0.0015434
0.00151664
0.000505476
0.000274642
0.00049544
0.000404884
0.000359237
0.000414992
0.000297466
0.000279337
0.000238068
9.07725e-05
0.000446089
0.000150138
9.70111e-05
0.000406957
0.000348108
0.00012589
0.000733219
0.000296514
0.000604241
0.000439685
0.00936357
0.00830212
0.00747613
0.0065294
0.00595904
0.00537361
0.00472977
0.00462736
0.00440176
0.00422345
0.00422144
0.00434875
0.00427245
0.00490225
0.00507743
0.00559959
0.00635081
0.00706461
0.00812398
0.00916432
0.00782191
0.00686822
0.0062694
0.00554802
0.00485344
0.00423582
0.00376323
0.00358215
0.0035817
0.00323467
0.0033971
0.00344927
0.00348893
0.00407222
0.00419303
0.00480184
0.00501948
0.00605764
0.00680925
0.00769732
0.00632185
0.00566861
0.00473962
0.00429135
0.00368172
0.00325622
0.00315102
0.00306033
0.00283478
0.00260957
0.00269048
0.00276304
0.00293606
0.00299384
0.00345949
0.00373123
0.00400229
0.00488084
0.00569505
0.00630964
0.00504804
0.00451359
0.00397363
0.00315149
0.00310214
0.00255214
0.0024134
0.00221362
0.00200305
0.00217724
0.00220314
0.00197635
0.00214793
0.00238994
0.00258456
0.00290225
0.00337198
0.0040211
0.00440041
0.00521329
0.00391418
0.00325601
0.00292429
0.00251427
0.00212292
0.00190592
0.00181015
0.00163492
0.00162986
0.00148852
0.00166775
0.00142039
0.00171211
0.00170073
0.00191928
0.00218956
0.00265234
0.00302745
0.00347312
0.00390238
0.00280794
0.00229872
0.00234155
0.00186608
0.00128603
0.00138544
0.00128854
0.00111334
0.00113896
0.0010133
0.00100609
0.00116917
0.00122136
0.00118632
0.00154969
0.00157442
0.0019065
0.00222085
0.00251499
0.00262889
0.00146984
0.00128652
0.00133461
0.000996188
0.00113492
0.000702087
0.000925774
0.000789732
0.000856465
0.000537868
0.00049599
0.000577812
0.000888457
0.000822116
0.000895173
0.000965279
0.000925161
0.00148702
0.00172162
0.00170252
0.000590994
0.000262914
0.000418649
0.000389545
0.000209822
0.000294617
0.000175938
0.000219755
0.000245378
0.000372891
0.000170034
1.02073e-05
0.000271803
0.000549132
0.00013054
0.000400679
0.000359963
0.000502677
0.000478775
0.000437423
0.00984519
0.00915725
0.00783071
0.00670667
0.00601708
0.00553897
0.00479638
0.00459779
0.00461486
0.00403986
0.00415162
0.00440273
0.00444573
0.00486859
0.00526549
0.00585494
0.00658022
0.00762237
0.00847629
0.00950251
0.00855712
0.00748249
0.00650966
0.00565065
0.00486915
0.00443473
0.0040811
0.00371929
0.00370788
0.00343281
0.00342519
0.00324925
0.00363532
0.00370986
0.00427179
0.00480637
0.00530305
0.00607595
0.00720355
0.00810308
0.00682754
0.00605683
0.00534794
0.00458192
0.00374952
0.0034734
0.00323799
0.00303093
0.00283571
0.00261375
0.00265903
0.00265762
0.00290702
0.0033379
0.00343364
0.00388678
0.00419883
0.00520389
0.00580343
0.00641766
0.00545284
0.00481389
0.00424022
0.00348339
0.00318308
0.00284341
0.00258315
0.00222092
0.00205057
0.00218712
0.00222671
0.0020595
0.00239404
0.00246651
0.00257294
0.00317525
0.00353935
0.00421767
0.00476169
0.00526019
0.00416152
0.00368925
0.00332374
0.00269808
0.00206606
0.00222679
0.00189559
0.00177495
0.00142505
0.00133972
0.00165276
0.00149169
0.00174654
0.00184786
0.00203891
0.00228566
0.00256387
0.0030616
0.00356795
0.00408835
0.00280083
0.0027288
0.00225168
0.00194144
0.00168227
0.00142318
0.0012486
0.00111204
0.00106315
0.00117341
0.00109716
0.00124404
0.00109511
0.00140085
0.00123481
0.00144867
0.00181859
0.00208314
0.00263817
0.00285066
0.00184679
0.00148039
0.00151392
0.00116649
0.000840753
0.000975536
0.00103851
0.000581261
0.000752844
0.000684306
0.000624783
0.000456809
0.000661532
0.000611063
0.00070551
0.00101062
0.00119126
0.00130041
0.00129985
0.0017506
0.000568992
0.000649535
0.000378558
0.000301755
0.000512217
0.000361349
0.000337527
7.27675e-05
9.33513e-05
3.65281e-05
0.000128822
0.000194503
0.000231142
0.000344128
0.000400957
0.000201288
0.000289835
0.000303269
0.000664873
0.000692906
0.0111798
0.00976476
0.00873831
0.00772827
0.00697454
0.00612035
0.00542208
0.00523585
0.00487835
0.00465923
0.00486947
0.00471592
0.00491277
0.00522991
0.0058407
0.00653507
0.00721804
0.00839563
0.00942936
0.0105884
0.00915123
0.00848619
0.00720659
0.00637265
0.00579526
0.00497015
0.0042713
0.00419881
0.00390653
0.00362747
0.00390752
0.00373104
0.00407585
0.00415232
0.00465355
0.00529686
0.00623906
0.0069182
0.0081205
0.00894522
0.00782156
0.00689934
0.00596901
0.00528143
0.0044757
0.00386674
0.00366912
0.00315394
0.00316717
0.00277879
0.00291656
0.00282207
0.00314925
0.0033663
0.0038496
0.00425272
0.00500184
0.00589586
0.00657778
0.00720672
0.00597069
0.00559584
0.00470587
0.00404994
0.00353873
0.00292074
0.00259422
0.00269104
0.00254091
0.00209184
0.00215136
0.00212207
0.0025585
0.00240611
0.0030655
0.00341765
0.00390546
0.00451242
0.00537986
0.00605959
0.00462788
0.00417536
0.00343784
0.00349878
0.00260238
0.00216722
0.00217348
0.00192705
0.00194417
0.00172344
0.00185024
0.0016238
0.00157331
0.00210847
0.0022525
0.00250698
0.00289284
0.00345177
0.00406506
0.00442555
0.003344
0.00302903
0.00256191
0.00229816
0.00183216
0.00150309
0.00151047
0.00116141
0.00114403
0.000839198
0.00127457
0.00133421
0.00116715
0.00136516
0.00156138
0.00172076
0.00210092
0.00260062
0.00283147
0.00320267
0.00202315
0.00178863
0.00156279
0.00136147
0.00106095
0.000845012
0.000866327
0.000627495
0.000926056
0.000601222
0.000842151
0.000739142
0.000792751
0.000811826
0.000837583
0.00125174
0.0011843
0.00134846
0.00180772
0.00188663
0.000778347
0.000480379
0.000201146
0.000372807
0.000430806
0.000389562
0.000150377
0.000112386
0.000340562
0.000170763
0.000459788
0.000226009
0.000392684
0.000236321
9.53252e-05
0.000316532
0.00049693
0.000427038
0.00055401
0.000734444
0.0126749
0.0114172
0.00984326
0.00901019
0.00801278
0.00727585
0.00656434
0.00612186
0.00555237
0.0057057
0.00515934
0.00537894
0.00592599
0.0064493
0.00698836
0.00763661
0.00861801
0.00939051
0.0108713
0.0119069
0.0106105
0.00968837
0.00852705
0.00741846
0.00669961
0.00580235
0.00528375
0.00487893
0.00470299
0.0044082
0.0044762
0.00431405
0.00495699
0.00512357
0.00546469
0.00621433
0.00714689
0.0080752
0.00886534
0.0100439
0.00875236
0.00769039
0.00701847
0.00625143
0.00525808
0.00486295
0.0044486
0.00365151
0.0035539
0.00357071
0.00373673
0.00364559
0.00379353
0.00423805
0.00446067
0.0050855
0.00572712
0.00652836
0.00760023
0.00846799
0.00696944
0.0064869
0.00543295
0.0047084
0.00417614
0.00373856
0.00331655
0.00296388
0.00273084
0.00296668
0.00275685
0.0028153
0.00304228
0.00333295
0.00365879
0.00405351
0.00468323
0.00525284
0.00617555
0.00670925
0.0053973
0.00498045
0.00452375
0.00364693
0.00319565
0.00286029
0.00260046
0.00212814
0.00244598
0.00188317
0.00214631
0.00221334
0.00207139
0.00257312
0.00291177
0.00320591
0.00360836
0.00420544
0.00475329
0.00524421
0.0037102
0.00340761
0.00302617
0.0025392
0.00232631
0.00173344
0.00174494
0.00178098
0.00163402
0.00131048
0.00156654
0.00127419
0.00153037
0.001739
0.00196531
0.00217387
0.00244334
0.00272345
0.00314743
0.00365358
0.00215965
0.00213296
0.00191101
0.00160953
0.00135056
0.00110895
0.000944399
0.00091609
0.000803115
0.00080914
0.00104058
0.00106227
0.000941902
0.00112684
0.00110593
0.00130375
0.00151837
0.00133537
0.00186547
0.00219247
0.000825701
0.000756981
0.000603157
0.000577585
0.000300512
0.000565343
0.000472
0.000448642
0.000463414
0.000397312
0.000311873
8.99951e-05
0.000278542
0.00051396
0.000552144
0.000380119
0.000401666
0.000591931
0.000686545
0.000738021
0.014784
0.0132125
0.011935
0.0106185
0.00956103
0.00872557
0.00786709
0.00756264
0.00703156
0.00696908
0.00657243
0.00703415
0.00713026
0.00776488
0.00840211
0.00915218
0.0101606
0.0110945
0.0124046
0.0138017
0.0123424
0.0112087
0.00986638
0.00890223
0.00814991
0.00706953
0.00653036
0.00614867
0.00602546
0.00558485
0.00560479
0.00560774
0.00599652
0.00644137
0.00690306
0.00757071
0.00847949
0.00937209
0.0103339
0.0115445
0.0102416
0.00937015
0.00830107
0.0072109
0.00653056
0.00586916
0.00521261
0.0049671
0.00476728
0.00467063
0.0046767
0.00457341
0.00469303
0.00505197
0.00551655
0.00616449
0.00685051
0.00778256
0.00905629
0.00959274
0.00825953
0.00737303
0.00668136
0.0057582
0.0053461
0.00464338
0.00408097
0.00390634
0.00363663
0.00328882
0.00363598
0.00346924
0.00369252
0.00391809
0.00450042
0.00481522
0.00548826
0.00622135
0.0071966
0.00765752
0.00629764
0.00577126
0.00500946
0.00435563
0.00397801
0.00359131
0.00321069
0.00296986
0.00306087
0.00267559
0.00273143
0.00287301
0.00280036
0.00310107
0.00325449
0.00381383
0.00429269
0.00475777
0.00561197
0.0060354
0.00438195
0.00405149
0.00377024
0.00326452
0.00277041
0.00272865
0.00229774
0.00213979
0.00190449
0.0018286
0.00192012
0.00195047
0.0020219
0.0021613
0.00220036
0.00259097
0.00298519
0.00363957
0.00411672
0.00423326
0.00269799
0.00243209
0.00207858
0.00201558
0.00175463
0.00130611
0.00122929
0.00125612
0.00107755
0.00109272
0.00119027
0.0013353
0.00132217
0.00140473
0.00157597
0.00140067
0.00163473
0.00206006
0.00233302
0.0023666
0.00114571
0.000926333
0.00073067
0.000688148
0.000552864
0.00044838
0.00038481
0.000225412
0.000495573
0.00030252
0.000340861
0.000450742
0.000336785
0.000376814
0.000680871
0.000450332
0.00075734
0.000684241
0.00079717
0.000821287
0.0168335
0.0157247
0.0141112
0.012744
0.0118157
0.0106815
0.0100007
0.00930406
0.00884763
0.00857188
0.00863425
0.00859929
0.0090151
0.00927249
0.0101809
0.0110862
0.0120865
0.0132327
0.0146061
0.016005
0.0144204
0.0135162
0.011838
0.0105207
0.00977474
0.00882878
0.00803395
0.00791055
0.00735897
0.00720597
0.00705993
0.0070418
0.00731556
0.00776775
0.00836138
0.00922418
0.00997298
0.0113413
0.0124788
0.0135738
0.012025
0.0110252
0.00996046
0.00873987
0.00787841
0.0072933
0.00669529
0.00607861
0.00604786
0.0058816
0.00577214
0.00590147
0.00609128
0.00661201
0.00702966
0.00765313
0.00820781
0.00930643
0.0104551
0.0114657
0.0095331
0.0088302
0.00792442
0.00692392
0.00656591
0.005828
0.00552163
0.0049382
0.00468776
0.0045511
0.00457038
0.00471839
0.00483295
0.00527985
0.00554581
0.00602783
0.0067312
0.00741007
0.00812622
0.00913502
0.00749847
0.00685463
0.00615752
0.00551055
0.00483543
0.00467012
0.00413136
0.00365675
0.00349364
0.00366173
0.00345779
0.00354006
0.00356121
0.00384261
0.00412362
0.00457261
0.00513415
0.00582742
0.00657986
0.00690446
0.00526474
0.00488677
0.0044585
0.00387128
0.0035043
0.00305202
0.00280716
0.00301729
0.00245221
0.0023548
0.00234446
0.00245861
0.00265328
0.0027036
0.00306336
0.00345466
0.00359866
0.00403937
0.00450493
0.00507126
0.00303372
0.00310164
0.00267292
0.00209766
0.00195276
0.00194677
0.00165335
0.00159326
0.0016086
0.00144182
0.001577
0.0015165
0.00159235
0.001847