/*--------------------------------*- C++ -*----------------------------------*\
| =========                 |                                                 |
| \\      /  F ield         | OpenFOAM: The Open Source CFD Toolbox           |
|  \\    /   O peration     | Version:  2212                                  |
|   \\  /    A nd           | Website:  www.openfoam.com                      |
|    \\/     M anipulation  |                                                 |
\*---------------------------------------------------------------------------*/
FoamFile
{
    version     2.0;
    format      ascii;
    arch        "LSB;label=32;scalar=64";
    class       volScalarField;
    location    "0";
    object      relativeErrorField;
}
// * * * * * * * * * * * * * * * * * * * * * * * * * * * * * * * * * * * * * //

dimensions      [0 0 0 1 0 0 0];

internalField   nonuniform List<scalar> 
3200
(
0.00660981
0.00248737
0.0144052
0.00748663
0.0164585
0.014994
0.0105993
0.0116884
0.00876573
0.00993244
0.0089397
0.0166076
0.0119152
0.0154046
0.0151623
0.0138464
0.00741954
0.00411568
0.000353165
0.00552387
0.00697773
0.00597248
0.00371851
0.00369674
0.00907145
0.00482646
0.00937226
0.0146466
0.000330166
0.0132971
0.00489042
0.0125599
0.00376392
0.0121488
0.00893219
0.00634307
0.0077996
0.00620141
0.00166703
0.0059497
0.00616876
0.00136684
0.00489868
0.000549867
0.0071367
0.00702722
0.0109785
0.0103639
0.0134787
0.00937386
0.0105233
0.0136895
0.0066471
0.0116091
0.00813182
0.0125127
0.00579863
0.00699601
0.00273344
0.00477164
0.00155812
0.00389068
0.00348566
0.00646884
0.00821285
0.00578215
0.00938338
0.00619044
0.0149661
0.000154585
0.00659767
0.000887701
0.00309254
0.00169611
0.00128024
0.00776722
0.000944853
0.00297428
0.00140383
0.00108904
0.0069583
7.56592e-05
0.00508875
0.00123774
0.00836025
0.00463928
0.00231687
1.28918e-06
0.00758064
0.00516684
0.00756504
0.00516817
0.00291411
0.000573666
0.00703392
0.0021055
0.00322402
0.00568662
0.00514357
0.000889191
0.000741756
0.00114717
0.002416
0.00110149
0.00793554
0.00364476
0.00717433
0.000301895
0.00221318
0.00410916
0.00529156
0.00566459
0.00807431
0.00591732
0.00717794
0.00429832
0.00175253
0.00114819
0.00292791
0.00229539
0.00376785
0.00430526
0.000332547
0.00726253
0.0104358
0.00172317
0.00179699
0.00121843
0.0057426
0.00296766
0.00179179
0.000283034
0.001007
0.00598498
0.00241797
0.00557077
0.00260676
0.00201564
0.000609083
0.000938018
0.00192562
0.00352195
0.00362182
0.00354496
0.00451106
0.00787593
0.00156859
0.00209205
0.00151107
0.00272746
0.000742505
0.00920836
0.00424882
0.000200253
0.00348653
0.00361974
0.00620897
0.000942093
0.00156063
0.003559
0.00927586
0.00204801
0.00350016
0.00779804
0.0145296
0.00718099
0.00211863
0.0151499
0.0103239
0.000981561
0.00462113
0.0136816
0.0155307
0.0151662
0.00990072
0.0109487
0.000144249
0.00797278
0.000421272
0.00598163
0.00757348
0.00137423
0.00247846
0.000843981
0.00795539
0.00084267
0.0133305
0.000825783
0.0067593
0.000163773
0.00039976
0.00534403
0.00123007
0.0101888
0.000234625
0.00916129
0.00147959
0.00404159
0.00150407
0.00205729
0.00213512
0.00629046
0.0108998
0.00368924
0.00489623
0.0118495
0.00839957
0.00532092
0.00610765
0.00634451
0.00161381
0.00688697
0.00340914
0.00535904
0.00265115
0.0123175
0.00404365
0.00600432
0.00265411
0.00749665
0.01021
0.00268739
0.00073677
0.00551943
0.00375017
0.00347712
0.00580823
0.00621789
0.000668014
0.0080976
0.0067252
0.00339773
0.00549808
0.00994585
0.00614327
0.00390882
0.00546193
0.00266908
0.000921191
0.00165753
0.00677459
0.00414646
0.00431912
0.00482293
0.00441484
0.00586691
0.0150874
0.00119709
0.00737086
0.0033795
0.00312436
0.00578102
0.000368284
0.00302085
0.00801603
0.00774882
0.00913648
0.00343642
0.000293492
0.00555337
0.00682274
0.00482223
0.00260274
0.0127531
0.00517889
0.00106649
0.00336101
0.0102902
0.00439083
0.00041439
0.00818
0.00452174
0.00501775
0.00355583
0.00483729
0.00489804
0.00766002
0.00844663
0.00184655
0.00139704
0.00519865
0.00250233
0.00112732
0.00521567
0.000167928
0.000915879
0.00235034
0.000382595
0.000105962
0.00164702
0.00427238
0.00126766
0.00547924
0.00760114
0.00737638
0.000189546
0.0061999
0.0021588
0.00607612
0.0059793
0.00151883
0.00378012
0.00199239
0.00302212
0.004802
0.00302386
0.00621644
0.00182069
0.00251456
0.00433521
0.000884059
0.00335383
0.00508605
0.00239882
0.00241235
0.000250709
0.00654388
0.00416153
0.0114943
0.00664302
0.008489
0.00180724
0.00342626
0.00539823
0.00809381
0.00984398
0.0082914
0.00861294
0.00852499
0.0130291
0.00358606
0.0017343
0.00550516
0.00728065
0.00908293
0.00509839
0.0101025
0.00403286
0.00217801
0.00320058
0.0120228
0.00213579
0.0028681
0.007633
0.00228979
0.00833504
0.00814482
0.00531299
0.00705429
0.00680933
0.00468777
0.00116315
0.00741566
0.00607627
0.00695635
0.0102932
0.00185049
0.000735124
0.00642662
0.00851498
0.010645
0.000849441
0.00345163
0.00534786
0.00693862
0.00378884
0.00873337
0.0104914
0.00216564
0.00905468
0.000641167
0.00174213
0.00669199
0.00114744
0.00167669
0.00216043
0.0113069
0.00366945
0.0033944
0.00149327
0.0141802
0.00147971
0.0011054
0.000745776
0.00180556
0.0037142
0.00678361
0.007348
0.000843026
0.000371004
0.00255887
0.000983845
0.00937109
0.00420349
0.00796805
0.00085784
0.0119901
0.00124416
0.00250948
0.00617591
0.00377464
0.00195203
0.00363142
0.00369234
0.00627805
0.0070852
0.00260106
0.00928718
0.00584188
0.000460235
0.00322619
0.00773724
0.00110958
0.0047603
0.0034117
0.00211007
0.00182053
0.000425856
0.00125438
0.000189979
0.00992116
0.0059843
0.00260884
0.00128523
0.0017935
0.0015281
0.00424103
0.00809257
0.00182019
0.00269268
0.00448417
0.00280598
0.00827663
0.00490264
0.00907797
0.00212918
0.00265035
0.000730038
0.0010366
0.000160542
0.00424042
0.009606
0.0075563
0.00307995
0.00118445
0.00307852
0.000663122
0.00507771
0.00280227
0.00269655
0.00376523
0.000966899
0.000217823
0.00304555
0.00383337
0.00136535
0.00262398
0.00416527
0.00485818
0.00710213
0.00120055
0.00304555
0.00181733
0.00609894
0.00177448
0.00579937
0.00052036
0.0118925
0.00912207
0.00365445
0.00125423
0.00354055
0.00523094
0.0014731
0.00326632
0.00120925
0.000989373
0.00610139
0.00323188
0.00484764
0.00574361
0.00729322
0.000583367
0.000760731
0.0106495
0.000866381
0.00652355
0.0086272
0.00810598
0.0070995
0.00162241
0.0055427
0.00414333
0.00859087
0.00568304
0.00270148
0.00830627
0.00499926
0.00433395
0.0111689
0.00931775
0.00139504
0.000426593
0.00207296
0.0158663
0.000354731
0.00321744
0.000709862
6.90832e-06
2.45888e-07
0.00122861
0.00556908
0.000341232
0.000717404
0.000953983
0.00209237
0.00121861
0.00561514
0.000472351
0.00078449
0.00940175
0.00276369
0.00997687
0.00689482
0.00426052
0.0064572
0.0057286
0.00379989
0.00342639
0.0112683
0.00381597
0.00693121
0.00174065
0.00484352
0.00149617
0.00255251
0.00780867
0.000978839
0.000468626
0.00252207
0.00849897
0.00398611
0.00800541
0.000812763
0.00416466
0.00618507
0.00286716
0.00273695
0.00509037
0.00258361
0.00277085
0.00355696
0.00183766
8.83021e-05
0.00562755
0.00772741
0.0101353
0.0040222
0.000981161
0.00348828
0.00359771
0.00475174
0.00219702
0.00537591
0.00521489
0.00134508
0.00480258
0.00557266
0.00274759
0.00501852
0.00289014
0.0017443
0.00588043
0.00247843
0.00316383
0.00590856
0.00312168
0.00877471
0.000228644
0.00273291
0.00211759
0.00482915
0.00371407
0.00179507
0.00208474
0.00366007
1.77832e-05
0.000797575
0.00204337
0.00407439
0.00299249
0.000835383
0.0105931
0.00153024
0.00687673
0.00512474
0.000878439
0.00289206
0.00110531
0.00883496
0.0011219
0.00363986
0.000267137
0.00876427
0.00246656
0.000604398
0.00375155
0.0016929
6.88021e-05
0.00896615
0.00795972
0.00680939
0.00109562
0.00247162
0.00866916
0.00277804
0.0028715
0.00437601
0.00266807
0.00188372
0.00376875
0.000102918
0.00332005
0.00233111
0.00477039
0.00410868
0.00054232
0.00250527
0.000284716
0.00718724
0.00114562
0.00285169
0.00504944
0.002818
0.000748452
0.00338288
0.0048422
0.00486202
0.000806879
0.00126345
0.00562021
0.00671615
0.00173599
0.0050879
0.00144057
0.0118823
0.00151762
0.0115331
0.00407787
0.000333586
0.0028277
0.00210595
0.000181468
0.0108585
0.00566384
0.00714669
0.00202871
0.00853434
0.00164884
0.00225605
0.019894
0.00383215
0.000846286
0.00395989
0.0107303
0.00459594
0.00768257
0.00144604
0.00653522
0.000603508
0.00387895
0.00282959
0.00363008
0.00628063
0.00340369
0.00249202
0.00626975
0.000190024
0.00015332
0.0074591
0.00882008
0.00476406
0.00325362
0.00435324
0.00356099
0.000960425
0.00478839
0.00954275
0.00234489
0.0012127
0.00233979
0.0020258
0.000537109
0.00224807
0.00713527
0.00158087
0.0085174
0.00468979
0.000499087
0.00394653
0.0104828
0.00129708
0.00351615
0.008716
0.000582434
0.00622769
0.00569462
0.00459931
0.00203123
0.000780884
0.000174461
0.00117238
0.00756776
0.00543225
0.00585234
0.00654865
4.16402e-06
0.00275203
0.00184629
0.00540959
0.00437281
0.00680859
0.00388814
0.00131468
0.00408734
0.00410431
0.00113153
0.00426293
0.00113448
0.00160343
0.000251838
0.00226845
0.00195253
0.00370515
0.00539926
0.00362357
0.00168955
0.0050514
0.00303744
0.00753022
0.0038522
0.00116746
0.00806893
0.00203469
0.00650868
0.00163277
0.00312455
0.00191597
0.00560822
0.00335437
0.00455619
0.00137881
0.00161065
0.000994126
0.00554979
0.00123921
0.000379851
0.00203475
0.00157336
0.0013441
0.00070276
0.00820747
0.00276779
0.00284393
0.000568982
0.00411126
0.000618296
0.00260386
0.00121442
0.00438655
0.00514923
0.00296825
0.000887432
0.000721364
0.000240763
0.00201629
0.00141712
0.00330354
0.00375117
0.00265514
0.00645472
0.00101848
0.00332229
0.000616377
0.00599984
0.00324519
0.00829187
0.00519072
0.00312706
0.00515512
0.00400945
0.000657598
0.00146772
0.00439563
0.00362205
0.00166528
0.00174867
2.31558e-05
0.00188562
0.00646275
0.0148134
0.00601808
0.00385161
0.00282389
0.00230229
0.000784348
0.0039206
0.00426222
0.00444857
0.00134888
0.00259607
0.00265293
0.00514074
0.00492245
0.000867572
0.00314547
0.000231209
0.00351115
0.00468557
0.0078387
0.00961429
8.25139e-05
0.000830816
0.00105162
0.00753666
0.000223941
0.00463097
5.41557e-05
0.00161884
0.000989319
0.00125692
0.00448506
0.000523016
0.000315534
0.000341966
0.00628977
0.000283072
0.0079537
0.00131181
0.00818062
0.010502
0.00268399
0.00118389
2.94194e-05
0.0028359
0.00224225
0.00376468
0.00318295
0.00254038
0.00639708
0.00203815
0.000333025
0.000446061
0.00383358
0.00120231
0.00395944
0.0046968
0.00237901
0.00269508
0.00561174
0.0100067
0.00180612
0.00270585
0.0029719
0.00193532
0.00161426
0.000567809
0.000183641
0.000595466
0.000482181
0.000568613
0.00200469
0.00119531
0.00235042
0.00132739
0.000258771
0.00404291
0.00220073
0.00376234
0.00214852
0.00563041
0.00775172
0.00118467
0.00158806
0.00154483
0.00406221
0.00326744
0.0104122
0.00456318
0.00563717
0.000273764
0.0040919
1.24337e-05
0.00473184
0.00532506
0.00425842
0.00129919
0.00510026
0.0014486
0.00123916
5.09677e-05
0.00168543
0.0020664
0.00306509
0.000585625
0.00581582
0.00617311
0.000973142
0.00149517
0.00169743
0.00235711
0.00460599
0.00042075
0.000452375
0.00103506
0.000439475
0.00377703
0.00145854
0.00207429
0.00125057
0.00103349
0.00493885
0.00262449
5.38155e-05
0.00350754
0.00456062
0.000569385
0.00513772
0.00829531
0.00633968
0.00483219
0.0050411
0.00834512
0.0089435
0.006812
0.00696613
0.000602905
0.00265697
0.0059132
0.00942006
0.00066846
0.000619969
0.00396558
0.00257101
0.00294021
0.000225037
0.0047098
0.00590188
0.00632585
0.000301112
0.0015514
0.00290964
0.00381313
0.00107902
0.00251771
0.00265882
0.00333535
0.00313425
0.00331385
0.000790708
0.00611482
0.00609351
0.00526102
0.00322176
0.00205543
0.00287168
4.77329e-05
0.0078533
0.00209467
0.000213029
0.00571201
0.00873875
0.00184907
0.000237704
0.00179184
0.00569709
0.000222546
0.0050102
0.00404737
0.00388236
0.0137577
0.00304992
0.00935103
0.00612206
0.0019325
0.00188429
0.00463607
0.00212121
0.00194269
0.000985198
0.00732354
0.00107364
0.00153131
0.000125952
0.00306789
0.00154544
0.000672186
0.0026851
0.00720769
0.00885363
0.00382211
0.000250545
0.00613977
0.00286617
0.00324481
0.00354576
0.00429969
0.0015128
0.00536801
0.00217769
0.00813361
0.00462911
0.00351391
0.0064907
0.000123709
0.000433422
0.000641715
0.00358139
0.00194023
0.00212349
0.00539747
0.00398529
0.0015186
0.00211758
0.000671195
0.00390603
0.00605932
0.00220024
0.00263923
0.00220452
0.00641219
0.00478249
0.00524147
0.0018313
0.00301849
0.00376051
0.00642424
0.00349926
0.00265965
0.00212004
0.00399568
0.00515471
0.00248181
0.00204554
0.00236877
0.00469533
0.000811106
0.00310351
0.000656134
0.000512263
0.00169193
0.00126774
0.00358699
0.000939298
0.00183936
0.000123529
0.00452294
0.000950682
0.00033289
0.00217439
0.00570158
0.000118071
0.000207445
0.00406661
0.00256505
0.00579018
0.00151045
0.00389087
0.00382948
0.00120234
0.00395852
0.00208007
0.00289615
0.00612741
0.00218585
0.000932956
0.00337705
0.00251524
0.000495405
0.00684678
0.00542961
0.00187127
0.00411799
0.00380599
0.00346608
0.00206363
0.00474942
0.00706144
0.00149741
0.00665033
0.00309464
0.00138929
0.00699623
0.00128173
0.0014481
0.00329301
0.00245837
0.0059245
0.00360443
0.000273927
0.00673592
0.00152462
0.0026177
0.00343037
0.00467725
0.00281956
0.00539775
0.00388074
0.00359802
0.000817655
0.000218248
0.00757048
0.00374929
0.00628789
0.00156675
0.00185681
0.000649893
0.00134486
0.00348984
0.00583507
0.0125763
0.00171117
0.00426689
0.00217383
0.00530814
0.000536855
0.00036398
0.000268531
0.00522997
0.00633925
0.0109241
0.00367854
0.00607036
0.00622213
0.00327409
0.00224311
0.00365563
0.00096046
0.0129236
0.010632
0.00655836
0.000841973
0.000412495
0.00263756
0.0062743
1.77335e-05
0.00167593
0.00236245
0.00622092
0.00159291
0.00085681
0.00152253
0.00145541
0.00375776
0.000227855
0.00341804
0.000506314
0.00650649
0.000297242
0.0103106
0.00650441
0.00592819
0.00543903
0.00714883
0.000480466
0.00611832
0.00181493
0.00107209
0.00341
0.0025433
0.000364858
0.00654206
0.00353696
0.00134646
0.00821232
0.00156832
0.00331719
0.000748325
0.00700093
0.00237726
0.0101747
0.00231278
0.00322668
0.00192744
0.00338869
0.000888722
0.00116164
0.000583533
0.00596513
0.00722866
0.00386811
0.00493965
0.00180561
0.00726841
0.00777724
0.00255624
0.00241978
0.00730528
0.00388757
0.00174311
0.00781128
0.00803576
0.00216714
0.00351063
0.00240243
4.34178e-05
0.00150232
0.00259662
0.00374693
0.00270157
0.00895715
0.00374726
0.003434
0.00143407
0.00152131
0.00551756
0.00181293
0.00423871
0.00753438
0.00340227
0.00274612
0.000159634
0.000541326
0.00718897
0.00245526
0.00111589
0.00118442
0.00136045
0.00542247
0.00105443
0.00684412
0.00288686
0.00274615
0.00212576
0.000771607
0.000174299
0.00594312
0.00595794
0.00617175
0.0170674
0.00490797
0.00213582
0.00422817
0.0110713
0.00331333
0.00677184
0.00497276
0.00780844
0.000966267
0.00445961
0.00105476
0.000174958
0.000477968
0.000588029
0.0021498
0.00747288
0.00505536
0.0090589
0.00524908
0.00393744
0.00159408
0.000583483
0.000351847
0.00344687
0.000681874
0.00167485
0.00319279
0.00627146
0.00327764
0.00324174
0.00395913
0.00286216
0.0049874
0.00359945
0.00184597
0.00276571
0.00457287
0.00189701
0.00519626
0.00423547
0.0125303
0.00848119
0.00543928
0.00635133
0.000640489
0.000260902
0.00271704
0.00620459
0.00634872
0.00524619
0.00473355
0.00979987
0.00936641
0.00426354
0.00446951
0.00649182
0.00347354
0.00970061
0.0103256
0.0135791
0.00580304
0.00824503
0.000447754
0.000484404
0.00671357
0.00749545
0.00302362
0.000106399
0.00270149
0.00570918
0.00733513
0.00685633
0.00373155
0.00710388
0.000805758
0.00935061
0.00342988
0.000324837
0.00849543
0.00676301
0.00973968
0.00663896
0.00416754
0.00812002
0.00519205
0.000803446
0.00235777
0.000381799
0.00144719
0.00027367
0.00648821
0.00891969
0.000209066
0.00281429
0.00380775
0.00220494
0.000414022
0.00402331
0.00980877
0.0090229
0.00778849
0.00895287
0.00282368
0.00100083
0.00586106
0.000584499
0.00169533
0.00773961
0.00437631
0.00904731
0.00100688
0.00169165
0.00389226
0.00582339
0.00197842
0.00705223
0.000169185
0.0023136
0.0104388
0.0107145
0.0122384
0.00900368
0.00750404
0.00447767
0.00455411
0.00181553
0.000744079
0.00435064
0.00382973
0.00320514
0.00474793
0.00482204
0.00289888
0.000340943
0.0107156
0.00646792
0.00352855
0.0117572
0.00535288
0.00716189
0.0100503
0.00881408
0.00375056
0.00445814
0.000149517
0.00755146
0.00375596
0.0090285
0.00307826
0.00498448
0.000806921
0.000231401
0.00127325
0.00598598
0.00258899
0.00363249
0.00111033
0.00106398
0.00323561
0.00346971
4.24051e-05
0.00318854
7.42234e-06
0.00695901
0.00523015
0.00242853
0.00143652
0.000809401
0.000648775
0.00456935
0.00221125
0.00270152
0.00202754
0.00134056
0.00328601
0.00223083
0.00728481
0.00719022
0.00449994
0.00308442
0.00046608
0.00633643
0.00351209
0.00284509
0.00086124
0.00198741
0.00504453
0.00540064
0.00435609
0.00806211
0.000781489
0.00168975
0.00347199
0.00314859
0.00346902
0.000359616
0.0027765
0.00467118
0.000235926
0.00224293
0.0170228
0.01427
0.0111835
0.00640265
0.00185032
0.00284453
8.78209e-05
0.00561354
0.0108859
0.0164333
0.00605964
0.0091725
0.00670237
0.00704578
0.00800326
0.00796559
0.00800237
0.00127994
0.00645173
0.0110618
0.0143341
0.000238725
0.0114536
7.33395e-05
0.00234692
0.000109402
0.000122847
0.000611078
0.00427415
0.000312699
0.000629316
0.00236732
0.000858701
0.00859817
0.00259426
0.000564114
0.00136001
0.000665319
0.000942125
0.0097467
0.00206876
0.0138143
0.00077534
0.00635944
0.00528175
0.00373394
0.000463415
0.00570803
0.00810616
0.00280604
0.00379957
0.00402111
0.00565115
0.00512827
0.00819987
0.0113641
0.00292786
0.00821573
0.00976127
0.0131154
0.00260959
0.0146427
0.0044789
0.00293184
0.00687621
0.00239438
0.00226271
0.00698084
0.00587277
0.00695566
0.00401313
0.00030106
0.00809059
0.00605584
0.00384527
0.00105268
0.00528794
0.00051264
0.00400657
0.00107192
0.00837787
0.00768303
0.00132273
0.00239298
0.00213721
0.00558931
0.000287893
0.00753638
0.00459348
0.00433795
0.00407964
0.00994231
0.00683482
0.00387281
0.000906467
0.00369081
0.00922489
0.00258098
0.00572969
0.00483959
0.00366316
0.00498332
0.00696061
0.00405098
0.00403597
0.00275216
4.57783e-06
0.000200334
0.00336824
0.00577772
0.00228241
0.00337787
0.00508587
0.00276007
0.0102183
0.00142913
0.00713403
0.00358789
0.00466028
0.00321042
0.00900999
0.00405964
0.00420577
0.00631508
0.000276042
0.000186043
0.000764444
0.00668109
0.00561329
0.00145794
0.004611
0.000194125
0.00302922
0.00325537
0.000625957
0.00282687
0.00409289
0.00542465
0.00207167
0.00323354
1.50048e-05
0.00369724
0.00509701
0.00502471
0.00413361
0.0028157
0.00160916
0.0032153
0.00046474
0.00269909
0.00412714
0.0024445
0.00148644
0.00894264
0.00271207
0.00185032
0.000249973
0.00294693
0.00639317
0.00544891
0.0165762
0.0103535
0.00990913
0.0102471
0.00108146
0.0019236
0.00230186
0.00141027
0.0037041
0.0101191
0.01032
0.0039516
0.00406548
0.00765986
0.00736559
0.0101692
0.00712203
0.0062454
0.0118583
0.00925005
0.0100235
0.000872766
0.00153648
0.000284353
0.00674014
0.000531452
0.000470738
0.00283295
0.00297827
0.000358811
0.00026196
0.0105774
0.00117571
0.00527908
0.00151745
0.00514635
0.0026259
0.0066791
0.00176729
0.0160968
0.0150709
0.00714526
0.00552514
0.00485959
0.00143138
0.00043259
0.00399807
0.0024008
0.00177732
0.0102955
0.00434231
0.00257764
0.00157021
0.00710656
0.000235396
0.00722038
0.00680199
0.00854274
0.00435709
0.00658233
0.0053844
0.00602227
0.00656574
0.00316546
0.0014857
0.00376021
0.00257113
0.000493232
0.00564078
0.00394243
0.00678288
0.00599527
0.00542304
0.0115651
0.000718355
0.000757361
0.00556456
0.00437548
0.00375653
0.0153408
0.00467909
0.00283416
0.00936437
0.00418467
0.000379936
0.00277745
0.00613723
0.0111293
0.000592584
0.00389359
0.00860557
0.00676193
0.0088609
0.00035808
0.00127608
9.89983e-05
0.00184839
0.000139328
0.00382272
0.00395678
0.0110676
0.00913725
0.00210675
0.00713387
0.00317699
0.00078431
0.00338835
0.00373181
0.00416144
0.00496272
0.00156788
0.00665356
0.00721263
0.00645869
0.00292668
0.000268535
0.00595765
0.00553927
0.0113973
0.00825872
0.00215397
0.0046526
0.00390554
0.00453016
0.00205531
0.0018581
0.000415788
0.000878447
0.00826047
0.0014529
0.00318645
0.000709577
0.00337146
0.0042297
0.00549389
0.00695004
0.00139787
5.03655e-05
0.00771826
0.00539001
0.00292015
0.00306413
0.00584979
0.00898567
0.00332515
0.00378536
0.00245753
0.00714672
0.00381798
0.000554808
0.000785699
0.00217621
0.00653942
0.00354654
0.00948924
0.00302895
0.000858754
0.00175817
0.00250108
0.010047
0.0163369
0.0109734
0.00458164
0.0068444
0.00587939
0.00201257
0.0017544
0.000939776
0.00411156
0.00437082
0.00769737
0.00850851
0.0152373
0.00922255
0.00316398
3.78429e-06
0.000177682
0.00655239
0.0139495
0.0112249
0.00746192
0.00924882
0.0061355
0.00286087
0.00557053
0.00340239
0.00123936
0.00221921
0.00171871
0.00448871
0.0157289
0.0123864
0.00961708
0.00896283
0.00491007
0.00502455
0.00339831
0.0142613
0.000476861
0.00888156
0.0114634
0.0105872
0.00491233
0.00292525
0.00868222
0.00542258
0.0014647
0.00445153
0.012055
0.00601729
0.00542395
0.00413061
0.01044
0.000250453
0.000721104
0.0105194
0.00221301
0.00284254
0.00904464
0.0131131
0.00665346
0.00561415
0.00374302
0.00849394
0.00741127
0.00144029
0.000172597
0.000121015
0.00313782
0.00282281
0.00105532
0.00865142
0.0144453
0.00404365
0.00376317
0.0049672
0.00978247
0.00672128
0.00522197
0.00910762
0.0101655
0.0150383
0.00484625
0.00273024
0.0104274
0.00202648
0.00106204
0.000452882
0.0043909
0.00272129
0.00341679
0.00326498
0.00399387
0.00691124
0.0107393
0.00526621
0.00453347
0.000606743
0.00434539
0.0012867
0.00639728
0.00598254
0.0048384
0.00580075
0.0058261
0.00300311
0.00228501
0.00238787
0.0027889
0.002623
0.0120164
0.000269968
0.0081522
0.00439278
0.00919015
8.34662e-05
0.00539642
0.000572735
0.00544671
0.0096768
0.000109328
0.000129309
0.00337185
0.00181489
0.00844348
0.00266204
0.00795289
0.00456672
0.00995608
0.00600271
0.000752581
0.000728474
0.00696473
0.00142859
0.00166509
0.00326313
0.00913947
0.00107737
0.00272657
0.010652
0.00187352
0.00556598
0.00632006
0.00318361
0.00170733
0.00233759
0.000730643
0.00600156
0.00242769
0.00332167
2.1447e-06
0.000861554
0.00247802
0.000403238
0.00288556
0.000134738
9.17316e-05
0.00779028
0.00172594
0.00178205
0.0126106
0.00488413
0.00618395
0.00198137
0.000863941
0.00641498
0.00225096
0.00743386
0.00360276
0.00786834
0.00927739
0.00657394
0.00328504
0.0105085
0.00218302
0.00429052
0.00369056
0.00533728
0.00261915
0.0111632
0.0189393
0.00145126
0.00756523
0.00178571
0.00397478
0.000536387
0.00124772
0.000369037
0.0120041
4.96388e-05
0.000411016
0.000589265
0.000199586
0.00838316
0.00182249
0.0073193
0.00258251
0.00488374
0.00126093
0.011243
0.0143745
0.00914619
0.00264692
0.00133151
0.00149048
0.00298599
0.00092238
0.00526149
0.00325043
0.00191589
0.0050553
0.00769099
0.000228456
0.0100175
0.00635194
0.00425958
0.0082599
0.00192059
0.00557015
0.00626483
0.00624258
0.00542301
0.00983239
0.00113476
0.00419341
0.00329415
0.00475648
0.00455004
0.00729418
0.00138373
0.00404257
0.00316148
0.00905137
0.00682499
0.000282062
0.00100663
0.00296553
9.12999e-05
0.00532798
0.011306
0.00921698
0.00234849
0.00712606
0.00322845
0.00473802
0.00150459
0.00378783
0.002134
0.00605416
0.00433067
0.00473729
0.0043541
0.0027663
3.68114e-05
0.00951926
0.0011958
0.00118487
0.00789925
0.00986993
0.00841605
0.00823293
1.89921e-05
0.00302268
0.00529094
0.00516742
0.00154863
0.00239899
0.00215161
0.00679909
0.00405018
0.0065639
0.000873834
0.00213493
0.00305106
7.40796e-05
0.00188082
0.00671975
0.00802271
0.010202
0.00452246
0.00436818
0.000212101
0.000762067
0.0017032
0.00352337
0.00685456
0.0031612
0.000905979
0.00756132
0.00398216
0.00438529
0.00310762
0.00185424
0.000533222
0.00461516
4.98478e-05
0.00310274
0.00271825
0.0023969
0.00314839
0.00184398
0.00415779
0.00307809
0.00217275
0.000167655
3.88562e-06
0.00173581
0.00650343
0.00322022
0.00106088
0.00547179
0.00423056
0.000285063
0.00409438
0.000427022
0.00858829
0.00290287
0.00931543
0.00250024
0.00399846
0.0094161
0.00105942
0.00673516
0.00663568
0.00190692
1.04274e-05
0.00202948
0.00458112
0.000565254
0.00426652
0.000399651
0.00691355
0.00269712
0.00654839
0.00747262
0.00149705
0.00391416
0.00447171
0.00831366
0.0129234
0.0166366
0.0047627
0.00575384
0.00130494
0.00834037
0.00034178
0.00147252
0.00634958
0.00289164
0.000418592
0.00309765
0.00248746
0.00559076
0.000690523
0.00576219
0.00521034
0.00418635
0.00395915
0.00041614
0.0100439
0.00500785
0.0106847
0.00191408
0.00119992
0.00110777
0.00397203
0.00127999
0.00646375
0.00700418
0.00606262
0.00497347
0.00694735
0.00744996
0.00239335
0.00125128
0.00446013
0.00725674
0.00164822
0.00794987
0.00558818
0.0124602
0.00745145
0.00593475
0.000843399
0.00459216
0.00233652
0.00423322
0.0040791
0.00340868
9.76808e-05
0.00233512
0.00303972
0.00476462
0.00196048
0.00328595
0.00363926
0.00893161
0.00939085
0.00521582
0.0149039
0.00665658
0.00167055
0.00820157
0.00354791
0.00082888
0.00630564
0.00095361
0.00565141
0.0115886
0.0027137
0.00165774
0.00233754
0.0126315
0.000769667
0.00466624
0.000485163
0.00397318
0.0116892
0.0102271
0.00968485
0.00373868
0.000263643
0.001648
0.000693909
0.00808479
0.00411179
0.00038269
0.00262824
0.00489619
0.00152576
0.00384569
0.0037727
0.00397438
0.000795563
0.00598375
0.00019079
0.00366155
0.00299241
0.00310545
0.00919282
0.00284859
0.00208664
0.00267404
0.000961204
0.00238732
0.00554817
0.00300812
0.00271368
0.000388412
0.0016219
0.000435495
0.00215071
0.00481256
0.00794864
0.00187436
0.00116724
0.00207772
0.00286822
0.000906755
0.00227771
0.00718142
0.00277249
0.00183529
0.0106408
0.00180184
0.00324934
0.00569874
0.00110132
0.000141096
0.0047943
0.00167008
0.0047615
0.00237681
0.00334188
0.00078431
0.005591
0.00410845
0.00705794
0.00487717
0.00635027
0.0151381
0.00847807
0.00548267
0.000984569
0.00131603
0.00315429
0.00560932
0.00630678
0.000571909
0.00181281
0.00513918
0.00250753
0.00129822
0.00988395
0.00115537
0.00414847
0.00299819
0.00576556
0.00325895
0.0090707
0.00890921
0.000598637
0.00165085
0.000179053
0.00210271
0.000266618
0.00313748
0.000281244
0.0068222
0.00152204
0.000166501
0.00324172
0.000392422
0.00579336
0.00069201
0.000301842
0.000285699
0.00857322
0.000674352
0.00911026
0.00746114
0.00810506
0.00458407
0.00075113
0.000485908
0.00315051
0.0129221
0.0091261
0.00206255
0.00264806
0.00249364
0.00197805
0.00111533
0.00324496
0.00530421
0.00248815
0.00832893
0.0012598
0.00767469
0.00634246
0.00228156
0.00786595
0.00547804
0.00357648
0.00475057
0.00266852
0.00518879
0.000419932
0.00476797
0.00207575
0.0025102
6.41551e-05
0.00442018
0.0103742
0.000355174
0.00268894
0.00177435
0.00314902
0.00345394
0.00673935
0.00580988
0.00569229
0.00967574
0.00482
0.000661443
0.00423819
0.000316686
0.00238696
0.00332885
0.000560326
0.000994062
0.00134879
0.00652833
0.005313
0.00110388
0.00147206
0.000586517
0.00580879
0.00382978
0.00352699
0.00112166
0.00470408
0.00459352
0.00483424
0.00638304
0.00239993
0.00478627
0.000150341
0.00413205
0.00908044
0.00836661
0.00101848
0.00234779
0.000568458
0.00491103
0.00170442
0.00177941
0.00315427
0.000621222
0.00763992
0.00801361
0.000791839
0.00529273
0.00811497
0.00199463
0.00476326
0.00573814
0.00120518
0.000155549
6.60351e-05
0.0013044
0.00624196
0.00356649
0.00284655
0.00314707
0.00740591
0.00755377
0.00692236
0.0037333
0.0011274
0.00125069
0.0065113
0.00308804
0.00978572
0.0019038
0.00141793
0.00419477
0.00136144
0.0056932
0.00469527
0.0049208
0.00160735
0.00280909
0.00311791
0.000420143
0.00167066
0.0126497
0.00915849
0.0030111
0.000539466
0.0108014
0.00571066
0.002099
0.000896441
1.55652e-05
0.00136733
0.00310424
0.00492778
0.00123534
0.00015476
0.00964415
0.00607992
0.00096043
0.00478857
0.00556287
0.00433964
0.00415526
0.00430968
0.00507746
0.0116514
0.00843352
0.00718585
0.000163729
0.000236149
0.000770243
0.000468198
0.00357458
0.00240855
0.00165656
0.00177282
0.00378623
0.00652895
0.00246381
0.00244647
0.0011624
0.000239831
0.00406588
0.00345875
0.00131108
0.00699216
0.00826921
0.0107138
0.0008553
0.00186504
0.00366148
0.00865611
0.00531794
0.00131137
0.000538731
0.000778711
0.00183115
0.00260974
0.00764227
0.00243677
0.00292395
0.000326961
0.00198185
0.00404716
0.0053898
0.00344635
0.00380956
0.000392288
0.000735213
0.00177523
0.00355091
0.00166655
0.00333897
0.00250257
0.00303107
0.00392386
0.000524638
0.00199789
0.0076227
0.00281987
0.00492778
0.00510817
0.00227767
0.00504795
0.000176803
0.00864281
0.00218886
0.00578205
0.00401701
0.00297459
0.000674912
0.00037058
0.001685
0.000887122
0.00458439
0.00417851
0.000550735
0.00337737
0.00182518
0.00654825
0.00086041
0.000247148
0.00346499
0.00448759
0.00188705
0.00267722
0.00142759
0.00658671
0.00140519
0.00580716
0.00282808
0.000212437
0.00163816
0.00514923
0.00176839
0.00600596
0.00463914
0.00284122
0.00222267
0.00218712
0.00182294
0.00546071
0.00569341
0.0127893
0.00613559
0.0045453
0.00127214
0.00296364
0.00148012
0.00416685
0.000177762
0.00210768
0.0045777
0.00364788
0.000397068
0.00159509
1.81965e-05
0.00447638
0.00190231
0.00652781
0.00443814
0.00362
0.00145225
0.00431475
0.00420085
0.00610673
0.004787
7.95957e-05
0.000170945
0.00998084
0.000705468
0.00101383
5.69565e-05
0.00376121
0.00426492
0.0050567
0.00750821
0.00816533
0.00154484
0.000401775
0.00296947
0.00425648
0.00118112
0.00663341
0.000312805
0.00667862
0.00566722
0.000166005
0.00416348
0.000673095
0.000434813
0.00224796
0.00628767
0.0052776
0.00748719
0.000629192
0.00406999
0.00535319
0.00438651
0.00970604
0.00423824
0.00308848
0.00132375
0.00310179
0.00408323
0.00950342
0.00725395
0.000179005
0.000278408
7.19444e-05
0.00142557
0.000123862
0.00363168
0.00131623
0.000939221
0.00154417
0.000940102
0.00138984
0.00208271
0.00252743
0.000759041
0.00278577
0.000471603
0.00445534
0.00129037
0.0048677
0.0100509
0.00575853
0.00178422
0.00144656
0.00639594
0.0040393
0.00122162
0.000625549
0.0096853
0.000552372
0.00471503
0.0020145
0.00252169
0.00326429
0.000942073
0.00468033
0.00354713
0.00321861
0.00240912
0.00186415
0.00314485
0.00676972
0.00138555
0.00880577
0.00212814
0.00269745
0.00435127
0.00096304
0.00428245
0.00735801
0.00171561
0.00405642
0.00117185
0.000489596
0.00440321
0.00676749
0.00742071
0.00110855
0.00068277
0.00158295
0.00110468
0.011549
0.00511307
0.00174086