/*--------------------------------*- C++ -*----------------------------------*\
| =========                 |                                                 |
| \\      /  F ield         | OpenFOAM: The Open Source CFD Toolbox           |
|  \\    /   O peration     | Version:  2212                                  |
|   \\  /    A nd           | Website:  www.openfoam.com                      |
|    \\/     M anipulation  |                                                 |
\*---------------------------------------------------------------------------*/
FoamFile
{
    version     2.0;
    format      ascii;
    arch        "LSB;label=32;scalar=64";
    class       volScalarField;
    location    "0";
    object      stateMean;
}
// * * * * * * * * * * * * * * * * * * * * * * * * * * * * * * * * * * * * * //

dimensions      [0 0 0 1 0 0 0];

internalField   nonuniform List<scalar> 
3200
(
347.911
347.016
341.835
344.966
342.593
343.837
346.051
346.244
347.686
347.499
347.847
344.936
346.165
344.37
343.778
343.503
344.989
345.404
346.033
347.535
341.999
338.046
339.393
340.035
338.852
340.944
339.976
338.66
343.945
339.673
342.567
339.738
342.4
339.023
339.538
339.785
338.635
338.547
339.51
341.65
331.538
333.512
332.821
334.813
333.157
333.734
332.903
333.528
332.782
334.328
333.94
332.711
334.781
332.69
333.363
331.353
333.054
332.119
333.055
335.188
327.023
326.557
327.089
326.547
326.423
327.665
326.885
328.281
325.631
330.761
328.528
330.285
329.304
329.421
329.993
326.57
328.984
327.257
328.292
327.89
323.682
321.699
320.347
321.929
319.982
321.527
322.595
323.613
321.353
322.237
321.461
322.135
324.556
323.159
320.754
322.001
321.289
320.155
320.02
321.731
315.105
315.14
314.96
315.619
313.71
315.313
318.965
316.789
316.322
315.794
315.419
315.228
314.326
314.819
314.194
314.86
316.521
315.36
316.426
316.063
308.054
310.648
309.346
307.348
306.515
309.361
309.474
309.768
308.448
311.195
309.718
310.142
310.458
308.175
310.644
308.021
308.789
308.825
309.128
308.929
303.675
304.192
304.266
304.292
304.636
305.707
302.887
302.767
303.889
304.273
303.67
300.636
304.691
303.302
302.26
302.17
301.334
302.882
303.597
304.17
348.995
345.604
345.769
345.002
343.401
346.692
349.139
345.144
347.248
351.435
349.468
346.07
345.01
344.574
345.743
344.649
347.663
344.217
346.459
347.856
342.342
340.682
339.947
341.135
339.352
342.421
338.722
343.509
341.827
344.287
344.205
342.314
343.37
339.8
342.63
338.939
340.918
339.415
339.702
339.07
334.428
336.186
330.924
333.868
334.01
332.208
333.86
335.312
335.349
335.428
338.115
335.086
335.957
334.884
335.301
331.519
333.749
332.562
334.971
336.217
330.975
327.046
328.566
326.945
327.974
328.503
328.137
328.341
330.423
328.096
328.549
329.521
328.578
326.771
327.624
327.922
326.964
327.448
328.229
327.087
323.699
320.415
323.448
320.841
321.32
321.191
318.523
324.054
321.472
322.866
322.949
321.987
323.786
324.379
320.497
320.244
319.45
320.95
321.843
323.307
317.545
314.033
316.596
311.986
314.627
316.847
315.669
313.662
315.669
317.002
314.539
315.627
318.513
315.608
314.978
314.716
313.595
313.107
316.138
315.834
310.86
308.574
309.829
308.01
309.723
309.637
309.327
310.289
310.219
309.785
311.622
310.645
308.471
307.699
312.207
309.716
307.705
310.148
311.228
311.101
302.642
301.988
303.782
302.311
301.821
302.409
301.486
302.858
304.2
304.768
303.72
302.419
301.867
302.644
302.594
303.201
305.211
304.44
299.65
305.116
349.05
347.255
348.478
346.125
345.917
346.021
347.221
347.663
348.097
346.727
350.044
350.481
348.752
347.575
346.287
346.962
344.488
345.887
345.874
347.22
344.139
341.215
342.035
339.068
341.529
340.079
340.712
342.165
341.916
342.184
342.915
343.944
341.442
341.423
340.551
338.79
341.044
340.806
342.676
337.155
337.508
334.6
335.951
333.526
333.527
335.109
333.926
333.738
336.841
334.671
337.512
336.984
335.019
337.255
335.82
335.131
331.528
336.024
333.181
334.452
332.475
328.604
328.145
328.691
328.781
328.581
327.962
328.106
331.056
330.782
330.058
330.452
327.438
328.814
327.178
329.093
324.992
328.099
327.295
329.851
322.887
321.27
321.03
321.342
320.848
320.919
322.676
320.769
322.071
324.212
323.018
321.457
323.417
325.057
322.106
322.194
321.946
322.337
321.494
321.734
318.632
317.55
315.053
316.52
315.791
316.113
315.473
314.436
317.712
316.352
315.784
316.245
314.377
315.264
313.723
315.684
315.276
316.108
315.334
315.451
310.629
312.384
307.202
308.73
310.198
309.02
310.312
311.791
309.427
309.502
309.171
310.597
310.284
309.162
308.786
310.254
308.871
308.252
310.915
311.514
302.76
302.233
302.648
301.398
302.758
305.103
303.546
299.817
300.684
304.576
303.848
304.526
301.838
302.941
304.335
302.929
303.547
305.049
304.136
304.593
348.592
349.637
347.545
348.709
345.44
349.553
348.211
348.008
348.578
349.138
351.064
349.479
349.582
347.486
347.868
348.215
345.55
346.01
345.601
350.472
343.647
340.426
341.31
341.35
337.24
343.158
342.729
344.544
344.636
344.817
344.393
342.719
344.417
344.082
343.607
341.96
341.642
339.539
341.063
340.742
337.455
335.592
331.789
333.329
334.733
334.501
335.212
336.254
336.664
334.164
336.682
335.48
336.949
335.51
336.171
335.307
333.022
335.461
334.824
335.155
330.908
329.714
331.417
329.47
331.002
328.004
329.481
329.844
329.297
330.25
332.022
332.159
330.141
330.457
328.188
327.082
325.865
330.107
328.727
329.264
323.06
320.59
321.708
321.005
321.387
323.831
322.138
322.137
325.014
322.592
323.282
323.558
322.037
322.891
322.373
321.163
321.733
319.587
322.195
321.022
316.333
314.296
317.205
315.694
315.839
317.889
316.949
316.868
317.898
318.611
318.268
316.985
313.762
317.428
314.552
314.877
316.54
315.117
316.17
318.454
309.762
310.635
309.717
307.058
310.679
310.241
311.345
309.763
310.345
307.624
307.936
308.253
310.628
310.948
307.366
309.054
310.663
310.989
310.334
308.832
302.014
303.219
304.237
303.984
301.877
302.125
303.579
302.689
303.561
305.67
303.837
304.34
304.981
304.269
303.598
302.298
301.808
301.756
303.433
303.54
349.206
350.08
347.76
347.26
349.219
346.229
350.471
347.464
350.455
351.969
353.082
352.631
351.454
347.193
348.407
347.224
348.328
345.392
348.317
348.037
347.827
342.765
341.702
341.216
339.485
342.166
341.63
344.222
342.786
345.003
343.872
344.065
343.469
342.113
342.576
342.312
340.425
341.926
341.508
343.586
337.745
333.539
336.679
334.616
335.382
336.746
339.133
334.669
338.957
337.897
339.099
337.479
337.712
336.758
334.665
337.113
333.216
334.013
334.969
336.113
331.957
328.363
330.314
326.687
330.161
328.312
328.852
329.518
330.59
331.639
331.438
331.651
328.536
328.938
328.436
327.808
329.558
328.251
329.396
330.29
323.617
324.615
323.961
323.443
324.659
322.32
323.565
325.552
324.71
324.953
324.515
323.606
324.803
325.132
321.901
322.165
323.564
321.076
323.399
324.634
314.667
316.404
313.686
317.105
314.628
316.394
318.105
317.892
319.187
318.536
318.917
317.845
317.795
317.429
315.152
316.297
316.341
315.595
315.538
316.309
309.329
312.177
310.615
309.011
310.205
311.437
310.092
311.194
310.083
309.137
312.098
311.382
310.661
310.06
310.087
310.654
309.453
310.781
310.797
310.369
305.158
303.54
302.264
303.13
305.183
302.422
300.932
301.907
302.558
305.085
302.303
303.707
303.927
302.114
304.506
302.858
302.787
303.279
303.803
305.161
353.231
350.644
350.487
348.797
349.632
351.349
353.032
350.637
350.92
352.196
353.588
353.423
353.948
349.922
351.379
349.337
349.704
350.368
350.179
350.803
345.04
342.124
342.381
343.583
341.198
344.261
343.243
345.278
346.121
345.379
345.286
347.112
345.44
344.731
344.22
341.627
343.319
339.941
342.601
344.55
338.917
336.627
336.557
336.639
336.152
338.329
336.724
337.273
339.466
340.907
338.05
338.719
338.501
336.7
337.166
335.773
335.048
335.359
334.821
337.277
332.298
329.868
330.518
330.991
329.762
331.315
331.315
331.477
331.822
331.575
331.924
332.29
331.02
330.349
331.22
330.486
328.676
328.901
330.512
328.299
324.408
325.299
323.454
322.855
323.174
325.285
323.179
321.085
326.106
326.54
324.621
325.953
324.459
325.772
322.244
322.296
323.789
321.423
323.265
322.192
316.143
316.837
315.845
315.741
317.116
315.296
315.374
317.184
318.084
318.209
316.921
319.072
317.359
317.477
316.812
316.791
317.908
316.961
316.96
316.554
310.032
311.328
310.728
310.06
309.086
308.885
310.239
312.107
308.006
312.587
312.119
312.148
307.921
313.192
312.414
308.013
310.23
309.092
307.966
306.794
303.459
303.473
302.122
302.587
304.303
303.386
302.063
305.316
305.468
303.651
304.031
302.665
302.368
303.165
304.218
304.218
304.379
304.276
304.29
303.496
351.199
351.646
351.926
349.563
350.59
352.92
352.47
355.676
352.492
353.328
355.422
356.319
352.252
352.537
352.54
349.311
350.615
351.838
350.931
350.42
347.327
344.04
346.696
341.905
345.213
345.714
347.136
345.192
346.881
346.016
348.894
345.836
346.456
345.49
346.123
344.015
343.78
342.562
345.466
345.646
337.408
336.355
338.92
336.331
338.847
339.387
337.129
338.403
337.334
340.019
342.04
340.725
340.107
340.783
338.23
337.605
337.082
335.646
337.092
335.409
331.381
328.542
329.692
331.258
330.706
329.991
329.601
331.151
332.952
332.91
334.308
333.664
333.621
332.217
330.285
329.684
332.682
329.038
328.98
328.903
324.347
324.917
324.315
324.458
323.316
322.839
324.877
323.816
324.763
324.888
324.505
325.388
323.659
324.919
323.765
324.044
322.331
323.82
323.143
323.758
318.294
316.592
316.749
318.306
316.409
319.259
317.122
316.516
319.077
317.535
319.175
318.521
318.672
319.548
316.727
317.519
318.088
316.018
316.472
318.657
311.594
309.414
308.828
309.046
311.426
311.11
312.053
312.862
311.198
312.834
311.729
311.165
308.494
310.18
310.019
311.372
310.99
311.942
311.111
309.826
305.366
303.813
302.594
304.47
304.889
302.654
305.185
304.755
304.69
303.858
303.676
305.896
304.715
305.456
303.034
304.033
303.626
303.796
304.41
305.093
354.632
350.055
352.692
352.532
350.477
352.716
353.282
353.735
355.984
356.536
358.16
355.435
355.978
355.61
354.06
353.137
353.053
350.856
355.187
353.951
345.875
344.273
344.589
344.034
343.279
345.935
346.947
345.911
349.15
347.68
347.424
347.519
347.235
347.669
346.008
346.627
345.119
346.688
344.085
347.164
339.169
339.276
339.505
340.505
338.35
336.848
338.675
339.962
340.977
340.799
339.81
342.041
340.799
338.834
341.705
339.044
339.21
337.921
339.638
337.778
333.662
331.307
329.794
331.843
330.429
332.182
331.803
332.246
334.604
335.119
334.001
334.263
331.84
334.603
334.468
332.401
332.006
333.279
331.828
329.725
326.128
326.388
324.735
323.162
323.79
324.844
324.577
326.105
326.619
326.352
328.388
326.619
324.143
324.599
325.324
326.361
323.712
325.406
326.226
324.701
317.75
317.062
317.359
315.096
318.351
318.111
317.547
317.63
316.438
318.552
320.394
317.245
318.936
318.6
317.511
317.626
315.492
319.077
318.968
322.288
311.667
310.886
311.641
307.006
311.588
308.567
312.317
308.428
311.215
312.333
311.274
310.969
311.004
310.955
311.339
312.88
308.874
313.14
311.851
308.924
303.886
303.251
303.57
302.456
303.333
304.086
304.581
301.736
304.655
304.654
302.468
304.529
302.126
304.705
303.018
304.38
302.114
304.039
305.005
302.117
355.969
354.953
354.391
355.254
353.778
354.161
355.499
357.123
357.453
357.206
357.024
358.679
358.245
356.048
355.652
355.847
354.238
355.893
355.602
356.338
346.781
347.968
345.713
346.192
348.818
349.54
348.394
347.641
348.857
350.029
350.595
350.302
348.975
349.811
346.66
349.732
347.211
345.446
348.054
347.112
341.251
340.488
340.021
336.251
337.638
340.052
339.318
340.532
341.097
340.617
342.921
343.642
340.473
341.077
341.073
340.148
339.144
339.972
341.56
341.008
333.684
334.3
332.569
332.287
334.227
332.783
332.304
335.677
334.722
336.366
333.014
333.828
331.802
334.806
333.247
334.622
332.011
332.4
334.793
334.653
328.194
327.322
327.07
326.339
326.617
325.968
325.352
327.19
327.15
327.014
324.421
327.474
324.829
325.705
328.864
327.239
323.738
328.451
326.137
326.548
320.516
320.249
318.808
316.379
317.928
315.746
317.107
321.306
319.503
320.158
318.313
318.597
318.026
320.208
317.324
319.131
318.149
317.955
318.478
318.428
310.427
309.498
310.585
312.856
309.176
310.151
310.552
311.328
311.333
312.582
311.848
310.29
311.707
311.416
311.928
310.109
312.957
312.82
309.091
311.371
303.351
305.439
304.616
304.45
303.361
303.054
302.156
302.074
302.409
301.293
303.979
303.219
304.768
304.644
304.71
303.513
304.429
302.132
303.444
302.811
359.087
358.501
357.888
356.7
355.588
356.419
355.867
358.187
360.319
362.431
358.732
359.708
358.575
358.343
358.252
357.758
357.267
354.383
355.737
356.983
351.054
346.331
350.794
347.231
346.874
348.065
348.516
348.991
350.488
349.219
349.33
349.822
349.077
351.469
349.006
347.494
347.728
347.053
346.74
349.466
339.771
344.025
339.418
342.211
342.212
339.492
340.919
343.283
344.287
342.574
342.913
342.892
343.264
342.826
343.558
344.282
341.044
342.472
342.649
343.517
332.882
337.095
334
333.787
330.82
332.598
334.407
336.194
335.976
336.416
335.433
334.115
336.564
335.673
334.678
333.462
334.571
332.681
333.561
332.372
327.657
327.597
324.887
326.329
325.088
327.828
326.299
328.829
327.986
327.964
327.879
329.732
328.6
324.942
325.71
326.986
328.553
324.477
326.962
326.508
318.998
316.366
320.319
319.561
317.154
317.72
318.739
318.921
320.014
317.141
319.712
320.017
320.479
319.62
321.853
318.894
316.001
319.246
319.432
318.854
313.518
312.05
309.574
312.945
311.167
311.118
311.5
313.412
313.13
311.862
312.844
311.442
312.275
312.275
311.371
310.202
312.254
312.567
311.432
311.723
303.599
304.74
305.196
305.208
302.46
304.602
303.287
304.776
303.675
303.005
302.571
304.559
304.251
301.059
302.923
303.153
303.606
304.543
301.676
301.94
360.65
358.801
359.088
359.677
356.876
357.614
356.495
358.141
359.19
361.605
361.677
359.278
359.091
360.054
359.556
360.115
358.565
357.786
359.335
358.051
351.045
348.166
348.777
348.742
351.396
349.607
349.924
351.028
351.277
350.462
350.428
353.939
350.448
351.605
349.951
350.839
349.559
350.568
348.477
353.156
345.443
342.996
342.766
342.881
342.05
341.733
340.799
343.223
343.177
346.183
344.143
343.451
342.939
344.599
341.801
344.027
343.544
343.795
339.079
342.554
334.827
335.241
335.686
334.831
334.546
335.569
333.686
334.572
336.763
336.265
337.217
336.882
336.552
338.415
334.072
334.303
335.631
334.955
334.486
338.143
327.251
326.805
329.138
327.665
326.639
325.812
328.907
330.69
327.35
328.485
330.027
329.368
329.948
326.784
327.136
326.547
326.903
326.129
327.127
327.016
321.924
321.419
317.983
321.082
319.975
319.357
318.155
320.536
320.748
321.044
318.958
321.544
317.041
321.299
320.041
318.876
320.707
320.419
322.139
321.03
310.389
309.676
312.425
312.713
310.755
312.062
311.431
311.351
314.245
311.241
310.701
311.449
312.676
312.879
309.772
313.559
310.868
311.226
313.525
312.736
302.821
304.661
301.982
301.06
302.811
305
303.129
306.07
305.073
303.752
304.16
303.252
305.885
304.954
306.733
304.741
303.529
303.225
304.49
306.759
362.469
360.89
359.019
360.258
360.338
357.909
359.615
359.612
360.957
361.158
362.354
362.538
364.748
362.296
359.766
358.231
357.873
359.724
361.953
360.646
351.792
352.698
351.964
351.191
348.602
352.095
351.642
352.238
351.032
353.307
357.26
355.991
354.838
354.355
352.624
352.316
351.379
354.807
349.299
352.287
345.607
345.542
343.9
343.535
345.82
344.996
343.897
345.136
347.901
345.904
345.7
345.177
347.193
343.308
342.888
346.45
341.775
343.192
345.015
346.171
336.384
336.225
335.842
337.69
337.584
335.822
335.493
335.684
336.902
336.86
335.558
338.754
340.575
336.908
336.601
336.765
338.122
336.839
336.094
337.204
329.925
331.662
328.52
328.028
330.746
328.183
327.336
327.967
329.354
328.856
329.085
328.985
329.128
329.949
331.036
329.057
325.652
327.134
328.168
327.025
321.069
321.038
320.808
317.552
321.408
320.639
320.528
320.658
320.854
319.158
323.842
319.876
322.502
321.202
322.617
319.573
321.129
319.446
320.867
322.115
311.469
311.456
312.627
312.228
314.378
312.656
314.377
310.53
315.102
313.89
312.252
312.223
314.128
311.451
312.345
312.763
314.51
311.24
310.647
314.752
304.403
305.546
301.96
302.942
303.419
304.676
304.211
302.183
304.76
303.019
304.03
303.76
304.761
304.112
304.842
303.897
303.882
301.514
304.379
303.293
363.221
360.758
361.604
360.488
359.85
362.836
360.032
363.788
362.59
364.227
364.737
363.663
362.29
364.636
361.31
361.706
361.103
361.3
359.945
362.702
357.617
350.719
354.215
351.267
353.63
352.733
353.261
352.917
357.446
353.271
353.434
352.998
353.117
355.779
353.187
354.808
352.804
353.272
351.672
354.916
348.134
346.557
344.6
344.436
343.749
343.498
345.08
346.768
346.21
345.819
346.903
347.742
344.874
348.216
346.715
345.728
346.819
344.35
345.329
345.351
337.492
337.391
339.097
336.411
337.672
337.587
338.273
338.361
339.396
337.462
338.358
338.003
339.877
338.97
336.384
335.924
337.027
335.826
337.359
339.19
330.587
328.471
330.21
329.116
329.793
328.901
329.801
327.977
326.774
330.232
330.366
330.195
329.587
328.568
331.533
327.845
328.446
330.464
330.935
330.325
322.348
319.816
320.901
321.757
318.538
320.81
319.652
319.818
322.749
321.899
322.705
320.289
321.192
321.399
320.338
320.795
322.215
322.501
323.073
321.162
313.211
311.971
312.217
311.527
313.235
314.348
311.285
312.041
314.723
313.624
313.75
313.332
312.903
312.105
313.649
312.151
313.026
312.827
312.653
310.867
304.534
305.256
303.081
304.704
304.12
304.092
303.587
302.154
305.124
303.828
305.815
305.432
304.045
305.36
303.963
306.68
304.926
306.849
303.232
305.188
364.335
361.603
364.002
364.329
361.588
362.603
363.631
364.793
363.499
364.93
363.235
365.806
364.108
365.271
365.317
362.821
363.344
363.184
364.223
365.601
358.782
354.833
355.485
353.3
357.02
354.231
354.08
352.552
355.973
354.873
356.122
355.83
356.789
354.357
356.394
355.912
355.243
354.85
353.298
356.456
346.572
348.731
345.957
345.975
346.201
344.684
346.713
348.681
348.99
348.727
348.35
348.971
349.023
347.099
346.492
347.36
348.068
345.865
347.787
346.772
340.94
339.414
339.111
337.041
339.087
338.523
339.337
339.427
339.3
338.231
337.408
339.175
336.437
338.569
338.844
338.765
340.339
340.276
338.661
341.763
330.802
328.189
331.595
330.233
328.957
331.46
329.204
331.49
333.525
330.639
329.197
328.933
333.791
329.772
330.92
329.39
330.373
332.743
332.1
331.798
321.663
320.637
320.138
320.562
318.309
322.332
320.986
322.031
319.669
321.76
322.506
322.454
319.91
321.364
322.933
320.964
321.96
321.626
321.547
323.411
313.189
311.699
311.584
312.191
311.816
310.892
311.744
311.883
312.886
312.275
312.918
312.092
314.237
315.17
312.041
312.927
311.842
313.315
312.634
311.588
301.94
303.298
303.606
307.425
303.664
303.245
305.987
303.934
304.323
305.745
303.778
302.831
303.546
303.236
303.995
302.511
305.438
302.017
305.624
306.055
368.855
366.698
365.929
364.622
365.062
363.728
367.186
363.044
365.704
366.234
367.45
364.579
364.874
368.747
365.301
363.07
365.355
366.032
364.8
366.65
358.17
355.442
354.917
355.724
355.316
356.417
357.667
356.829
359.292
357.466
356.982
358.014
356.869
358.614
356.075
355.958
355.89
358.552
355.469
358.241
349.205
349.614
348.626
347.537
347.341
346.632
343.422
351.249
347.462
349.158
349.104
348.869
348.46
346.789
349.572
346.645
350.168
347.472
349.465
348.817
338.969
341.005
340.387
339.941
340.532
340.005
341.016
339.525
341.09
338.811
338.664
339.493
337.882
342.775
338.98
338.011
338.129
339.599
337.175
340.476
331.662
331.737
333.199
331.75
330.526
329.047
330.673
329.877
329.634
330.586
330.442
331.181
332.825
332.324
330.812
329.822
329.965
331.923
331.122
330.909
320.913
322.865
322.935
323.122
319.621
321.001
323.401
321.882
323.309
324.928
319.31
322.307
322.686
321.677
323.353
322.222
322.139
320.444
321.553
323.727
315.291
313.08
311.239
310.421
313.649
314.575
314.933
312.801
313.257
313.244
313.632
315.163
312.061
312.245
312.099
315.343
315.325
315.061
311.664
312.431
304.668
302.321
303.383
307.324
304.946
304.819
305.681
304.005
302.695
303.005
305.932
304.917
305.274
303.455
304.259
303.859
300.496
301.536
305.218
304.451
369.893
368.272
367.242
367.101
367.056
366.827
366.422
365.938
367.427
368.006
371.498
365.644
368.103
369.323
365.286
368.655
365.248
364.894
368.04
370.204
360.261
360.021
357.763
357.878
358.491
358.615
357.367
357.947
358.331
359.62
357.625
361.269
359.695
359.526
358.03
358.129
356.508
358.941
357.921
359.746
351.397
352.42
348.598
348.465
350.608
346.499
347.836
349.375
350.12
350.253
349.339
349.018
347.16
348.844
350.547
349.215
349.808
350.308
350.563
349.716
341.042
339.75
340.307
340.84
341.619
340.003
339.573
341.677
339.87
339.606
341.123
340.222
343.422
341.672
342.249
338.671
339.461
341.774
339.823
342.684
331.676
332.97
329.861
332.316
331.69
331.714
331.141
331.494
333.37
330.494
331.698
330.728
331.182
333.872
331.876
331.548
330.182
329.705
331.681
330.066
322.595
324.33
322.757
324.276
321.589
322.521
322.139
324.393
323.346
320.859
321.3
323.692
322.014
323.374
322.002
320.74
320.568
326.426
324.185
323.599
312.903
312.417
313.867
312.157
313.466
312.914
312.186
314.804
313.811
313.2
313.706
312.282
313.063
311.575
312.183
314.657
313.008
314.755
314.662
315.215
305.917
304.499
304.442
307.553
304.319
304.861
304.584
303.434
303.29
303.053
302.306
307.076
304.109
304.689
303.648
305.83
304.154
306.514
304.38
306.493
370.755
368.827
367.618
369.677
369.852
369.1
367.814
368.355
367.653
370.254
368.979
372.409
368.685
366.548
368.364
370.833
369.917
370.3
370.394
372.17
362.215
359.858
359.924
360.287
359.975
360.743
359.569
360.55
360.788
361.737
360.839
361.629
360.273
359.968
360.424
359.485
360.091
361.628
360.258
361.356
354.03
352.681
351.483
350.549
349.003
350.007
352.01
351.924
348.383
351.641
350.176
351.081
352.591
352.729
351.096
349.606
352.302
351.986
351.507
351.16
342.448
343.811
342.131
344.832
341.252
343.048
340.762
342.022
340.956
339.939
341.871
341.033
341.951
342.419
340.619
339.666
344.359
342.037
341.266
340.834
331.849
336.15
330.735
333.141
334.957
333.554
333.228
330.98
331.796
333.402
332.869
332.222
332.837
334.243
333.388
334.013
331.054
331.951
333.503
332.326
324.865
324.139
322.02
323.743
322.204
323.173
325.311
323.333
323.947
322.249
322.282
323.11
324.137
322.77
322.78
322.377
324.417
324.153
321.841
322.586
314.368
312.043
314.877
313.732
313.977
313.501
311.858
313.514
315.083
313.6
315.116
312.647
318.084
311.853
316.264
315.357
315.018
313.781
315.113
312.29
303.851
306.177
305.006
303.191
303.329
304.847
303.409
304.455
304.14
307.494
301.536
306.046
306.161
303.055
305.704
303.929
303.501
304.808
306.884
305.156
373.442
368.958
370.433
370.657
370.276
369.102
369.639
369.498
370.066
372.635
370.665
370.623
372.671
369.677
372.743
374.252
370.145
373.293
371.903
372.098
362.436
360.04
360.881
360.7
361.393
360.994
361.653
361.006
363.064
360.711
361.184
362.871
361.262
361.009
360.311
362.301
362.251
360.842
361.647
363.833
355.368
353.252
352.864
350.631
349.463
350.62
351.099
352.509
351.049
352.532
351.566
355.463
354.378
353.334
351.343
351.974
351.918
353.658
353.859
352.869
344.703
343.615
342.994
346.332
342.331
343.338
344.964
343.202
343.475
342.977
343.946
340.636
344.703
344.013
344.613
343.455
342.384
343.439
343.92
342.848
334.448
334.26
333.091
334.303
333.072
335.732
334.669
334.336
336.795
333.312
335.037
331.307
333.406
332.18
335.477
333.864
332.842
334.699
331.191
333.913
328.025
323.328
323.082
324.409
322.202
323.906
323.284
325.667
324.467
323.49
323.787
323.365
322.086
321.17
322.557
322.779
322.572
328.824
324.998
325.306
315.295
314.825
313.641
314.036
313.265
315.715
316.522
313.134
313.956
315.096
315.263
312.757
315.688
312.389
316.629
315.237
312.287
315.557
313.612
313.885
304.989
304.824
304.649
304.994
305.844
303.918
304.499
304.809
305.872
305.267
305.95
305.702
304.222
303.63
303.995
303.076
305.079
302.607
305.374
303.294
374.959
372.457
372.21
372.502
373.462
373.326
371.434
371.571
373.41
371.983
371.528
371.883
371.189
371.884
372.851
373.776
371.798
373.222
374.725
375.626
364.082
365.085
363.909
364.291
363.04
365.268
361.498
365.55
363.793
366.206
365.2
363.271
365.582
361.717
365.555
360.341
364.894
363.105
364.698
364.79
354.075
356.681
352.306
349.672
353.653
352.976
353.683
353.952
353.151
354.566
353.199
353.026
351.899
353.068
353.044
351.619
350.963
352.38
356.463
357.053
346.024
348.3
343.588
345.584
342.954
341.981
345.143
341.208
342.691
341.638
343.538
345.553
342.471
345.35
343.438
343.517
343.501
344.741
344.319
346.292
336.471
331.126
333.983
334.152
335.469
333.947
335.288
331.372
334.037
334.786
334.564
333.83
334.787
335.227
335.507
335.117
332.701
332.362
334.071
335.291
326.626
326.224
324.748
323.639
324.887
325.193
322.974
322.711
325.576
322.712
324.73
324.466
324.727
324.131
323.858
323.605
325.23
323.865
323.752
322.93
314.384
314.142
314.668
314.005
316.832
314.773
314.338
313.929
316.835
313.785
313.064
313.85
314.004
313.7
315.435
314.054
315.405
316.569
314.771
313.868
304.872
304.076
304.514
303.939
304.095
303.811
303.812
305.561
303.663
303.784
304.137
306.173
304.038
304.789
306.372
304.509
304.871
303.881
309.465
305.675
376.615
374.285
372.947
374.529
373.587
370.507
374.169
373.411
373.669
372.249
373.286
374.893
373.547
371.565
375.788
375.114
372.531
372.753
375.293
377.036
364.705
364.16
366.66
364.963
361.558
364.658
363.624
363.189
363.841
363.39
364.925
362.924
365.377
363.765
363.4
364.561
363.854
364.329
365.496
363.47
356.108
356.84
354.205
354
353.842
354.991
350.978
355.87
352.823
355.391
353.762
351.396
355.453
353.274
354.462
353.387
354.79
355.763
355.544
354.84
345.194
343.427
344.483
347.92
342.96
341.006
343.415
345.652
346.066
344.046
342.857
343.271
344.117
345.253
342.355
342.388
345.241
344.742
343.014
348.074
338.671
333.858
334.504
332.622
331.873
332.799
335.786
335.82
333.168
334.128
333.272
334.139
335.816
337.127
332.996
335.322
334.226
335.378
335.608
336.571
325.233
325.182
324.438
324.732
322.816
325.722
324.803
323.998
325.729
324.779
324.748
326.891
325.339
324.045
326.319
324.173
323.672
328.879
323.474
322.976
315.997
313.278
313.818
314.355
314.957
315.578
313.529
314.424
312.655
314.61
315.768
314.173
313.668
314.186
314.193
317.315
312.84
314.602
313.805
315.521
303.944
303.336
304.724
305.296
305.44
303.502
306.083
305.88
304.949
305.504
303.821
305.773
304.443
303.337
303.714
302.573
306.48
303.089
303.005
304.716
)
;

boundaryField
{
    hotSide
    {
        type            fixedGradient;
        gradient        nonuniform List<scalar> 
400
(
321.511
322.87
325.591
329.677
335.133
341.965
350.181
359.788
370.794
383.208
397.037
412.289
428.971
447.088
466.647
487.651
510.105
534.011
559.372
586.191
323.738
325.08
327.767
331.802
337.194
343.949
352.078
361.591
372.498
384.81
398.537
413.687
430.268
448.289
467.755
488.672
511.043
534.872
560.161
586.913
326.149
327.47
330.116
334.091
339.406
346.071
354.099
363.503
374.296
386.491
400.101
415.136
431.606
449.52
468.885
489.706
511.988
535.735
560.948
587.63
328.704
330
332.597
336.503
341.73
348.292
356.205
365.485
376.15
388.215
401.695
416.604
432.954
450.753
470.009
490.73
512.919
536.579
561.714
588.325
331.33
332.599
335.142
338.97
344.099
350.546
358.332
367.477
378.003
389.928
403.271
418.047
434.27
451.949
471.095
491.712
513.807
537.382
562.439
588.978
333.918
335.158
337.643
341.389
346.414
352.74
360.392
369.397
379.779
391.562
404.765
419.407
435.503
453.065
472.101
492.618
514.622
538.114
563.096
589.569
336.321
337.531
339.959
343.622
348.544
354.751
362.274
371.142
381.385
393.031
406.101
420.618
436.595
454.047
472.983
493.409
515.33
538.747
563.663
590.076
338.36
339.543
341.92
345.509
350.339
356.44
363.847
372.595
382.718
394.244
407.2
421.608
437.485
454.844
473.695
494.045
515.897
539.253
564.114
590.478
339.852
341.015
343.352
346.885
351.645
357.665
364.985
373.643
383.675
395.113
407.984
422.312
438.116
455.407
474.197
494.491
516.294
539.606
564.428
590.758
340.643
341.795
344.11
347.613
352.334
358.311
365.584
374.193
384.176
395.567
408.393
422.679
438.443
455.699
474.456
494.722
516.498
539.788
564.589
590.901
340.643
341.795
344.11
347.613
352.334
358.311
365.584
374.193
384.176
395.567
408.393
422.679
438.443
455.699
474.456
494.722
516.498
539.788
564.589
590.901
339.852
341.015
343.352
346.885
351.645
357.665
364.985
373.643
383.675
395.113
407.984
422.312
438.116
455.407
474.197
494.491
516.294
539.606
564.428
590.758
338.36
339.543
341.92
345.509
350.339
356.44
363.847
372.595
382.718
394.244
407.2
421.608
437.485
454.844
473.695
494.045
515.897
539.253
564.114
590.478
336.321
337.531
339.959
343.622
348.544
354.751
362.274
371.142
381.385
393.031
406.101
420.618
436.595
454.047
472.983
493.409
515.33
538.747
563.663
590.076
333.918
335.158
337.643
341.389
346.414
352.74
360.392
369.397
379.779
391.562
404.765
419.407
435.503
453.065
472.101
492.618
514.622
538.114
563.096
589.569
331.33
332.599
335.142
338.97
344.099
350.546
358.332
367.477
378.003
389.928
403.271
418.047
434.27
451.949
471.095
491.712
513.807
537.382
562.439
588.978
328.704
330
332.597
336.503
341.73
348.292
356.205
365.485
376.15
388.215
401.695
416.604
432.954
450.753
470.009
490.73
512.919
536.579
561.714
588.325
326.149
327.47
330.116
334.091
339.406
346.071
354.099
363.503
374.296
386.491
400.101
415.136
431.606
449.52
468.885
489.706
511.988
535.735
560.948
587.63
323.738
325.08
327.767
331.802
337.194
343.949
352.078
361.591
372.498
384.81
398.537
413.687
430.268
448.289
467.755
488.672
511.043
534.872
560.161
586.913
321.511
322.87
325.591
329.677
335.133
341.965
350.181
359.788
370.794
383.208
397.037
412.289
428.971
447.088
466.647
487.651
510.105
534.011
559.372
586.191
)
;
    }
    coldSide
    {
        type            mixed;
        refValue        uniform 300;
        refGradient     uniform 0;
        valueFraction   uniform 0.991591;
        source          uniform 0;
        value           nonuniform List<scalar> 
400
(
300.031
300.022
300.023
300.017
300.043
300.029
300.045
300.033
300.028
300.03
300.024
300.037
300.038
300.016
300.039
300.05
300.032
300.042
300.041
300.033
300.035
300.017
300.019
300.027
300.03
300.029
300.032
300.027
300.046
300.04
300.039
300.047
300.044
300.028
300.02
300.038
300.052
300.041