/*--------------------------------*- C++ -*----------------------------------*\
| =========                 |                                                 |
| \\      /  F ield         | OpenFOAM: The Open Source CFD Toolbox           |
|  \\    /   O peration     | Version:  2212                                  |
|   \\  /    A nd           | Website:  www.openfoam.com                      |
|    \\/     M anipulation  |                                                 |
\*---------------------------------------------------------------------------*/
FoamFile
{
    version     2.0;
    format      ascii;
    arch        "LSB;label=32;scalar=64";
    class       volScalarField;
    location    "0";
    object      stateMean;
}
// * * * * * * * * * * * * * * * * * * * * * * * * * * * * * * * * * * * * * //

dimensions      [0 0 0 1 0 0 0];

internalField   nonuniform List<scalar> 
3200
(
347.161
346.035
350.731
349.35
351.844
348.322
353.647
354.123
358.277
348.85
351.563
352.612
348.065
350.211
350.113
351.308
351.026
350.679
349.693
345.352
339.08
339.392
343.815
345.411
347
343.052
343.044
345.923
344.63
342.535
345.464
347.084
343.672
343.988
346.967
342.761
340.679
342.737
341.062
345.642
336.355
336.588
334.947
337.835
332.538
339.643
337.119
341.653
342.74
340.215
341.481
341.069
341.946
340.061
337.606
335.149
341.434
342.176
336.735
334.395
325.329
324.315
325.313
333.176
328.91
333.371
327.696
326.469
332.367
329.182
334.819
330.446
327.449
331.649
328.614
330.981
331.749
328.949
331.501
328.729
322.409
321.971
322.624
320.707
320.087
323.438
322.794
327.056
324.86
323.823
319.14
326.103
323.87
326.744
323.472
320.868
325.218
320.889
321.622
321.097
319.791
314.385
315.679
319.124
315.459
321.36
317.329
320.094
317.408
320.611
316.918
317.486
317.895
317.597
315.646
313.862
312.897
315.301
316.117
318.543
314.688
308.043
308.548
306.812
310.219
310.668
311.121
314.105
309.023
312.416
307.871
312.027
313.664
310.336
314.947
306.501
312.04
308.308
308.594
310.991
302.77
305.565
308.144
304.902
298.867
301.796
304.922
302.871
307.581
305.147
308.239
304.086
304.805
302.316
303.37
302.109
302.055
300.46
302.628
304.159
347.973
350.686
348.985
349.889
350.571
352.242
353.853
355.553
359.484
356.767
352.382
356.761
353.376
351.672
351.88
351.835
351.444
354.754
349.476
348.751
342.524
342.148
340.943
343.599
342.833
346.866
345.118
349.037
344.194
348.588
349.06
348.092
347.343
346.339
348.049
346.827
346.383
343.148
342.672
340.24
334.9
334.571
334.522
333.207
339.465
340.217
336.886
343.276
338.706
335.489
335.803
337.03
337.858
336.714
343.465
338.015
337.813
336.071
339.405
335.024
330.379
325.936
331.095
329.773
332.892
325.477
331.88
333.777
331.133
334.597
335.088
328.475
330.255
335.652
330.775
327.081
326.772
330.265
328.062
324.354
321.497
323.679
323.204
322.965
322.78
323.251
324.354
323.349
321.646
327.506
325.953
324.496
322.104
325.254
325.495
324.501
324.952
323.793
323.478
325.1
317.308
317.591
317.118
311.821
317.798
318.099
319.227
320.418
316.524
316.346
317.879
316.508
316.791
318.95
321.564
318.222
319.851
314.871
313.878
316.119
306.397
312.077
309.23
310.062
305.654
309.527
306.976
308.68
308.94
310.468
312.754
307.408
311.306
309.484
305.97
309.731
312.645
310.265
310.726
311.066
306.558
302.291
300.667
305.314
305.291
299.693
303.585
302.799
303.918
302.778
298.965
302.97
303.033
306.731
302.334
302.748
303.306
301.212
302.893
303.416
348.776
350.607
354.004
350.754
354.472
349.923
351.542
355.73
353.837
351.925
353.981
355.493
356.784
358.572
356.412
351.485
358.03
350.356
346.839
348.007
342.383
340.956
344.325
346.672
347.763
348.156
347.516
350.204
344.742
347.638
348.557
350.108
353.348
348.945
342.156
345.619
346.672
346.83
347.163
347.539
333.816
337.597
340.544
337.514
343.406
342.145
343.223
340.829
342.396
342.981
343.55
342.722
340.711
338.194
338.751
335.465
337.978
339.783
336.401
334.904
328.06
329.858
330.299
329.434
329.36
334.859
329.986
335.988
330.848
332.158
332.174
330.456
332.608
332.996
326.628
333.702
329.669
330.403
327.316
328.498
324.68
323.049
328.553
326.416
325.997
331.188
329.285
324.29
328.114
325.573
323.897
323.068
324.554
325.211
325.249
320.55
327.477
323.11
325.121
321.615
319.097
319.264
314.55
315.528
317.487
317.91
320.115
317.472
321.616
318.991
318.802
320.781
318.524
316.141
317.058
318.39
317.831
317.735
317.621
318.787
307.152
305.533
313.144
309.593
309.391
315.09
310.008
314.535
310.31
307.574
313.101
310.361
311.567
310.392
308.07
314.081
313.038
311.773
308.322
309.043
303.069
306.284
302.039
303.87
303.238
304.146
304.017
304.42
303.628
303.204
301.415
305.101
300.03
302.113
303.193
308.537
301.58
303.533
304.374
307.311
353.073
354.302
356.056
355.183
351.785
356.146
356.54
357.541
356.036
358.364
355.533
359.119
355.514
356.61
358.979
355.041
354.05
349.226
346.203
352.115
344.171
343.971
344.359
345.161
341.944
347.658
348.587
348.579
354.328
350.197
349.955
351.338
349.226
346.227
346.738
345.548
346.28
340.567
344.542
344.102
337.804
340.817
341.911
340.362
340.828
343.241
337.106
341.88
338.597
343.477
336.688
338.464
337.46
340.855
339.928
338.71
336.051
336.137
341.559
338.286
325.92
329.585
331.14
337.142
333.676
335.899
338.274
329.502
332.488
338.677
335.78
335.367
330.845
329.121
335.465
334.443
332.582
329.102
330.205
330.749
323.77
322.52
318.842
325.674
321.174
324.943
322.149
323.808
325.091
329.269
327.522
327.252
326.306
331.712
325.626
328.193
323.391
325.838
326.277
318.693
310.495
317.844
313.065
322.266
313.85
316.455
319.644
320.557
318.534
316.976
321.055
317.371
317.588
321.884
316.757
319.728
316.196
318.098
315.855
315.854
311.176
312.548
308.321
310.504
312.967
310.302
311.924
311.71
314.747
309.281
307.406
309.999
311.895
312.201
311.183
311.53
311.429
311.674
308.151
308.003
300.354
307.044
307.584
301.374
298.619
303.696
304.114
303.436
303.577
302.599
303.607
307.267
302.389
303.371
298.701
306.035
305.142
301.38
302.055
300.147
353.547
352.076
354.514
360.587
354.641
350.841
357.892
361.215
361.912
361.719
358.919
360.365
360.863
356.864
356.299
359.485
358.724
356.271
355.705
348.966
348.129
346.314
351.198
349.823
350.974
346.207
347.393
351.652
354.049
355.54
348.348
350.058
350.552
348.693
346.133
350.998
352.992
346.323
347.4
348.128
341.573
343.138
339.032
338.137
341.019
346.003
342.307
338.249
342.299
341.47
344.558
342.776
342.989
341.72
341.899
341.424
339.544
340.649
338.173
339.298
329.663
331.69
332.328
331.135
333.064
332.769
332.674
336.545
338.256
337.252
331.793
330.57
336.225
335.492
332.39
332.195
334.403
330.39
337.324
333.779
328.544
328.354
326.346
328.87
326.35
328.983
328.157
324.102
326.558
328.793
327.169
326.282
326.447
328.393
326.655
326.197
327.583
322.983
323.289
322.428
316.172
322.65
319.293
316.043
316.784
321.163
317.51
321.796
318.356
320.943
318.515
320.378
320.85
319.575
319.119
317.295
312.395
322.043
315.186
316.574
308.562
312.491
313.335
313.392
311.467
316.134
307.633
317.605
314.083
315.594
314.59
313.914
311.561
316.151
311.821
314.458
313.252
309.038
314.311
308.836
307.259
305.398
303.67
302.328
299.993
306.319
298.824
304.749
305.373
300.656
302.602
303.04
302.758
306.54
305.767
302.504
305.719
307.181
308.511
303.138
355.222
354.538
358.279
354.841
359.17
360.082
362.148
364.647
363.84
360.36
360.242
358.806
361.59
359.279
359.448
362.815
354.469
357.418
354.246
351.632
347.776
344.284
351.426
345.085
353.087
348.526
351.322
349.881
350.666
349.234
352.171
357.414
349.623
351.217
348.691
350.138
347.784
348.798
346
342.664
337.859
343.523
339.738
343.874
342.389
344.595
342.648
343.46
341.177
346.364
345.661
344.353
343.25
343.644
342.786
337.03
340.799
341.508
335.318
339.163
329.543
332.719
334.896
333.035
333.739
339.508
330.037
335.259
339.976
336.764
335.556
335.349
332.741
335.589
331.57
332.467
332.857
332.647
335.026
329.075
321.045
321.43
327.645
326.157
325.636
329.381
327.984
329.549
324.927
329.046
324.939
328.631
326.859
325.194
325.417
324.095
321.679
328.708
328.265
324.538
317.414
318.218
316.634
320.36
319.725
319.825
321.173
318.313
324.442
320.421
318.787
322.377
320.037
323.974
318.748
320.392
317.866
317.369
315.733
315.143
309.812
312.591
315.049
314.795
313.458
311.174
314.919
314.536
313.849
315.436
313.89
308.663
311.521
308.29
313.323
312.608
310.238
310.444
312.605
305.44
303.157
301.032
307.909
305.74
306.203
305.556
308.688
306.662
303.364
306.492
307.935
306.528
306.459
301.242
300.468
305.498
301.309
305.622
302.605
301.883
353.708
357.844
362.658
360.529
364.01
365.434
359.453
362.531
362.719
360.608
363.489
366.811
362.815
355.843
359.248
359.71
353.883
352.944
353.966
354.749
346.398
346.605
347.798
351.645
350.658
354.153
355.019
353.839
356.24
352.113
348.299
354.614
351.326
352.94
351.632
346.449
354.802
349.881
343.94
350.139
336.652
337.829
344.953
343.612
346.363
343.615
345.548
347.73
349.89
347.777
343.706
339.727
349.063
344.309
339.413
347.537
339.664
340.69
340.709
344.259
335.322
333.273
331.034
338.223
337.519
337.287
336.99
339.863
335.797
333.869
337.954
338.515
334.973
338.274
337.757
338.298
334.23
336.525
331.637
329.082
324.127
324.129
327.17
325.534
328.841
330.353
329.561
327.608
327.508
328.666
329.62
331.489
324.749
325.147
330.667
329.072
328.394
327.313
326.33
325.973
319.88
316.123
317.309
317.213
320.367
317.761
321.44
319.187
323.05
323.234
318.138
324.049
317.96
318.444
320.802
321.527
322.978
322.015
317.958
317.766
309.524
310.518
311.253
313.792
309.093
311.409
309.731
316.69
317.242
314.46
311.214
311.531
311.13
315.038
312.294
312.047
311.64
313.835
307.691
308.7
308.644
302.909
304.5
306.346
302.41
306.056
298.899
303.199
305.4
305.77
306.966
304.383
304.808
306.995
302.289
305.194
305.287
306.283
300.191
300.925
356.204
354.835
352.739
357.511
360.498
362.535
361.773
366.491
365.197
364.635
364.895
363.451
364.599
363.41
359.755
362.388
357.729
356.799
355.512
356.191
350.147
347.907
348.919
346.036
351.397
350.318
356.878
351.392
354.653
351.746
350.935
358.253
351.497
354.079
350.33
357.744
349.852
347.087
347.156
347.945
346.302
344.304
348.43
341.852
347.527
344.959
351.589
345.193
348.379
345.205
350.911
350.356
344.124
339.942
347.718
344.992
346.836
341.827
343.012
341.891
331.441
331.736
338.113
335.351
338.834
337.464
340.498
337.01
338.818
335.878
340.586
342.09
336.105
341.903
338.884
335.524
334.717
335.126
334.84
336.649
329.912
325.97
325.259
326.108
323.664
331.044
330.433
331.791
331.502
327.489
329.534
327.812
330.655
333.054
326.809
331.694
322.322
327.474
325.824
325.234
316.74
313.044
317.408
319.937
319.112
319.705
315.386
320.614
318.374
317.972
323.678
318.561
324.246
322.608
318.351
318.947
315.887
317.918
317.447
315.487
304.68
311.944
309.398
311.655
312.29
313.053
309.436
310.278
311.655
310.956
312.576
308.223
312.486
311.751
312.731
312.607
309.899
311.358
314.406
312.641
301.444
301.654
301.1
303.369
305.816
304.603
303.926
303.671
305.202
305.887
305.481
302.567
303.511
305.98
305.184
303.759
304.663
303.997
303.106
301.151
359.295
356.568
362.78
363.036
363.001
361.012
362.172
361.992
363.153
365.95
365.25
362.474
363.23
361.688
363.106
363.761
360.28
358.368
360.515
353.766
349.252
349.803
349.553
352.95
358.35
355.969
358.53
358.612
358.855
359.813
359.489
354.849
357.852
355.206
353.154
352.87
353.017
353.016
355.077
348.798
337.749
344.677
344.513
342.057
349.069
348.735
347.346
349.894
349.71
348.489
347.401
350.952
344.293
346.502
348.438
345.831
343.11
341.476
340.206
342.293
335.279
334.02
334.589
335.55
335.691
341.913
340.61
339.644
336.728
340.039
341.569
335.479
341.612
339.928
336.985
335.45
337.246
338.234
336.025
335.727
330.891
327.77
330.623
326.35
328.5
328.912
332.367
332.627
328.36
330.12
331.099
330.501
326.728
328.997
329.414
328.581
331.745
322.315
328.303
327.08
316.868
322.02
319.892
315.675
323.087
325.995
323.223
324.975
322.571
321.172
320.995
317.393
321.818
322.087
319.992
321.589
323.679
324.934
322.151
314.666
312.265
309.487
313.449
315.232
313.358
310.271
314.361
315.843
313.836
311.342
313.988
310.889
316.916
311.226
311.621
313.284
311.104
311.066
316.249
311.968
305.624
304.266
302.865
305.459
302.427
297.844
303.26
305.719
302.208
306.537
301.544
299.217
301.435
304.527
303.828
302.346
309.038
305.606
302.915
302.26
357.599
356.951
362.182
360.568
363.6
364.942
366.257
367.504
365.993
368.492
361.918
368.46
369.312
366.158
364.232
365.103
363.569
358.853
359.331
356.163
353.822
347.97
352.216
349.631
354.589
353.834
356.939
353.722
358.32
354.722
354.31
362.945
354.075
356.021
353.481
354.785
351.864
356.48
349.604
351.658
345.189
346.254
344.148
343.06
344.505
346.303
349.654
349.209
351.5
349.518
347.747
349.129
349.038
346.301
347.133
345.758
347.014
350.594
343.304
345.669
335.916
335.099
337.775
338.413
343.275
340.681
341.674
336.372
342.16
338.396
336.822
337.866
340.144
340.822
341.828
335.603
336.251
335.661
331.882
333.776
324.631
322.444
330.202
330.116
328.582
328.574
332.558
330.077
329.719
334.865
332.826
329.885
329.409
330.725
329.322
328.93
328.781
325.345
331.802
329.447
318.162
320.169
323.917
324.976
318.457
320.419
321.462
322.79
320.011
319.172
321.008
324.426
321.029
322.129
319.213
321.535
321.008
318.925
322.909
318.25
313.054
315.011
314.296
309.617
309.54
312.374
311.728
309.84
315.842
312.283
314.8
314.734
310.538
312.451
315.566
309.097
313.701
310.003
312.722
308.849
303.23
305.925
306.284
299.848
305.647
305.028
306.17
305.747
306.834
304.335
303.186
304.389
306.944
304.666
307.237
305.163
308.685
303.463
303.205
301.269
360.476
360.726
364.891
362.714
367.906
365.743
367.678
366.652
365.631
364.374
369.064
364.683
364.654
363.094
367.611
362.764
360.344
359.173
361.366
356.842
351.288
350.907
355.153
352.706
357.831
354.926
358.731
354.02
363.075
355.306
355.877
353.606
355.482
359.338
354.523
355.276
351.253
356.487
351.881
350.502
345.941
349.801
345.905
345.141
349.029
349.435
348.478
347.815
345.143
349.22
354.326
351.296
344.885
347.539
347.9
347.482
346.302
343.03
345.215
345.989
335.657
335.989
338.284
342.885
340.917
337.644
339.147
345.472
341.72
337.352
338.054
343.461
338.346
341.077
340.923
338.625
338.724
334.888
337.085
335.997
327.283
330.648
329.464
331.341
330.677
333.545
331.94
331.514
329.651
330.076
329.774
334.141
335.608
329.18
332.607
327.123
334.771
328.959
329.834
325.117
324.119
320.848
320.402
318.409
325.325
322.035
323.091
321.578
324.607
317.52
325.086
323.495
327.003
322.15
320.575
323.655
319.319
319.214
325.049
321.039
310.837
310.179
311.344
310.527
313.132
312.211
313.29
313.689
313.017
312.392
311.715
313.724
312.855
309.86
310.989
311.878
310.551
315.456
312.16
313.282
303.702
305.965
300.067
304.319
306.85
306.906
302.244
303.185
303.972
307.383
304.976
301.835
301.143
308.386
306.277
302.802
300.914
299.51
303.469
302.256
359.8
363.324
363.391
367.756
367.882
363.858
367.988
369.315
371.945
363.489
366.387
364.66
372.324
367.127
367.459
365.744
362.135
363.841
359.065
356.493
351.733
353.798
356.717
356.626
359.864
358.118
361.174
360.467
359.18
358.248
359.49
356.184
355.846
359.593
358.083
357.377
358.456
357.896
350.233
351.016
346.842
350.77
347.662
350.103
352.198
351.594
351.83
350.45
348.951
350.395
354.891
351.106
349.198
349.031
350.207
348.804
348.304
339.745
344.921
341.129
333.237
335.463
337.344
341.247
338.343
341.328
341.898
342.678
338.013
338.317
344.679
341.992
334.973
340.182
345.706
338.246
341.87
336.284
336.06
338.459
324.815
327.394
330.525
331.372
331.116
329.374
333.628
330.703
338.082
327.922
331.672
331.459
333.152
332.639
333.41
330.393
328.73
329.797
330.031
332.271
321.93
321.54
317.244
324.296
323.091
323.051
322.165
321.926
327.325
322.366
322.609
324.101
320.978
321.073
322.97
323.344
321.427
320.894
320.661
319.46
308.933
314.468
312.686
312.085
313.123
309.794
315.216
314.124
313.725
314.575
312.15
312.786
313.923
311.377
315.205
312.878
312.648
313.592
314.44
312.379
303.429
301.811
303.439
302.558
308.861
303.005
300.627
305.559
303.59
303.536
303.602
304.091
303.923
303.055
303.572
301.86
304.507
306.164
306.032
303.788
361.285
362.494
365.985
366.141
367.492
367.746
367.861
369.74
369.612
365.709
371.05
367.846
367.161
368.771
370.899
366.106
364.869
361.073
364.171
361.621
351.046
353.898
358.246
355.383
355.145
357.956
359.153
358.673
361.298
358.26
357.005
358.603
357.39
362.123
356.228
356.042
356.757
353.939
355.291
355.606
343.97
345.582
348.813
347.639
351.11
349.948
355.524
347.593
348.096
348.187
347.081
351.334
348.644
352.742
348.565
348.692
347.445
349.145
348.024
345.651
336.359
334.658
338.191
340.675
337.368
337.496
344.411
336.967
342.777
339.995
339.976
342.541
343.564
339.239
339.458
338.39
340.75
335.127
336.537
340.975
329.501
328.425
328.885
327.99
334.912
331.463
331.542
337.602
332.786
332.261
336.8
331.785
332.639
326.583
333.737
325.485
331.314
332.877
327.154
328.239
323.315
317.296
321.441
317.844
320.971
320.279
322.456
323.905
317.409
323.158
323.058
323.265
321.942
328.757
322.749
320.179
320.785
324.463
322.423
321.835
309.854
308.617
316.366
313.069
310.135
318.204
315.031
311.418
311.912
315.127
314
314.714
313.797
315.389
310.795
316.024
313.764
313.924
309.723
313.298
303.516
305.097
304.478
305.676
304.496
303.092
302.253
305.279
305.534
308.166
305.717
302.835
304.419
303.151
301.242
299.236
299.849
299.813
304.436
301.628
359.39
366.377
364.82
364.15
372.1
371.855
368.753
368.787
367.568
374.378
369.8
369.64
364.083
368.334
370.51
364.6
366.353
365.276
364.44
359.63
357.331
355.662
355.448
359.972
359.197
362.488
356.543
359.253
362.619
361.523
359.644
364.227
359.524
362.358
356.709
359.407
355.523
358.921
351.541
352.642
342.867
347.896
347.045
342.971
350.142
350.315
352.998
354.048
354.133
354.282
347.615
354.326
347.738
348.71
350.487
347.074
350.882
347.105
350.808
346.107
334.498
333.235
336.978
341.991
341.475
336.975
343.245
345.71
342.782
346.774
346.316
339.352
337.201
342.232
338.816
339.678
340.806
337.417
334.964
336.028
326.597
328.445
336.099
335.485
333.344
335.009
330.284
333.207
333.132
331.529
334.337
333.764
334.296
332.78
326.909
332.791
334.128
330.846
328.872
332.412
321.439
323.49
322.933
319.323
322.084
321.413
318.455
322.267
315.303
326.306
322.614
323.202
320.665
321.559
321.101
319.127
320.159
323.924
324.362
317.701
310.168
314.627
308.449
316.204
315.378
312.377
309.601
316.638
313.654
316.045
312.217
313.147
315.159
315.016
310.689
312.452
310.025
313.826
311.996
313.106
302.132
305.198
304.909
303.715
297.771
305.287
302.262
302.591
307.456
304.606
305.428
305.941
300.712
307.052
305.423
305.624
309.273
305.603
304.247
305.004
360.938
367.437
369.113
362.999
366.478
371.545
369.577
374.01
369.923
374.904
374.207
369.109
370.82
370.165
367.513
367.872
366.191
368.441
362.136
356.951
352.242
357.167
360.69
359.541
362.63
360.781
362.132
362.606
359.548
361.72
362.274
359.067
361.53
360.81
360.861
357.946
359.834
360.4
358.661
352.462
346.827
346.048
348.225
346.176
353.375
349.714
348.883
348.913
353.519
351.624
351.575
352.329
351.11
350.007
348.662
346.852
353.474
344.612
343.869
348.316
339.037
335.734
340.285
341.49
340.035
338.335
341.438
341.345
344.846
344.322
345.775
337.454
344.624
344.14
339.749
340.439
339.545
338.692
337.294
332.797
327.744
329.357
330.311
328.555
329.26
332.099
330.967
333.695
331.03
333.984
333.241
335.396
335.15
332.308
332.541
332.362
333.881
327.241
332.891
328.439
322.388
320.297
319.657
326.658
324.868
323.184
322.185
318.804
324.852
322.676
326.94
325.378
323.209
322.468
324.022
324.578
322.034
324.595
323.462
317.753
312.511
317.436
318.669
317.154
315.55
313.993
315.921
311.54
317.325
311.879
311.823
310.565
319.574
315.547
311.83
312.948
314.017
316.482
312.881
312.731
302.158
306.25
309.869
300.136
300.705
304.599
307.448
302.829
306.119
304.831
307.568
306.744
302.001
307.201
303.082
300.481
304.506
303.006
304.517
304.724
365.786
369.071
363.596
367.834
365.846
367.712
372.52
367.171
371.96
374.085
369.415
371.897
372.123
373.82
374.906
372.948
364.847
368.57
365.185
366.37
354.927
359.405
356.455
360.029
356.732
363.318
364.912
365.534
362.709
363.74
357.879
363.842
360.687
364.79
366.677
356.239
362.605
354.334
359.317
354.74
350.652
348.059
347.341
350.156
351.529
354.32
352.207
350.998
351.356
348.387
352.478
348.474
354.867
358.949
353.326
347.513
350.227
351.528
346.92
348.636
340.058
334.356
341.914
341.382
343.705
339.786
341.711
343.274
345.002
346.765
342.53
338.788
345.625
346.091
345.695
339.562
339.46
337.735
340.829
337.979
326.493
333.609
330.871
326.838
333.889
331.813
331.573
334.178
333.382
336.017
336.425
336.668
335.709
333.948
330.357
331.845
331.673
331.682
329.744
328.364
324.991
321.247
324.369
323.011
326.18
323.197
327.372
327.629
322.193
321.436
324.482
323.39
326.642
324.557
325.885
323.842
325.05
319.494
321.05
319.114
312.916
311.079
318.545
312.174
314.33
315.217
311.874
312.597
308.312
317.788
315.887
313.397
317.241
312.898
314.206
316.48
317.056
309.541
313.546
315.671
309.039
301.646
305.312
304.852
308.894
305.481
303.671
301.693
302.77
305.261
301.673
303.174
301.621
301.271
307.945
305.104
305.687
305.174
304.918
300.7
363.607
367.157
363.376
368.489
376.163
371.401
369.859
373.813
372.139
373.207
373.494
375.011
367.495
371.418
370.261
371.258
365.189
370.636
365.415
362.42
355.684
361.135
360.944
364.59
362.238
365.968
360.518
366.51
362.465
365.775
365.733
362.147
366.011
359.644
366.387
360.1
364.931
356.032
364.333
357.598
349.864
345.766
353.928
348.22
353.816
351.69
351.382
353.069
353.24
355.242
356.663
353.726
354.188
350.808
353.202
348.244
351.014
346.504
348.727
349.254
337.11
339.465
340.009
343.914
341.019
342.586
340.587
344.114
341.107
340.28
343.264
344.651
343.753
340.908
340.29
339.081
342.162
339.346
337.664
340.891
333.382
330.85
331.779
330.443
331.331
331.214
334.702
334.069
333.127
329.224
332.731
329.526
332.734
331.94
338.396
333.559
329.632
329.994
334.726
331.247
322.346
324.992
322.197
321.582
324.474
318.19
324.799
327.854
328.51
327.636
322.695
320.216
322.258
321.923
320.727
323.779
323.763
319.104
319.3
320.753
315.376
311.704
313.441
314.817
310.704
314.583
316.5
316.101
315.367
316.452
313.921
320.497
308.381
312.773
311.273
313.722
310.873
310.993
314.05
314.368
302.456
304.248
304.321
302.876
298.975
309.336
301.073
302.06
303.198
310.278
307.868
303.165
305.344
306.014
305.299
300.036
303.384
302.952
305.041
306.372
364.196
363.043
370.579
365.945
369.843
372.828
373.815
372.607
371.785
376.909
368.872
370.854
374.77
371.942
372.161
370.712
365.495
370.856
367.024
363.815
352.146
353.27
355.048
357.528
361.744
360.705
361.639
361.083
363.313
368.796
362.837
362.502
361.29
359.326
358.796
365.87
357.761
358.292
355.659
360.738
347.788
345.061
352.038
348.32
348.591
352.691
352.127
355.284
350.7
352.162
352.825
351.129
355.191
359.622
352.091
351.788
352.505
348.396
349.965
346.822
334.943
343.524
340.582
343.227
339.944
343.234
345.35
341.389
341.958
341.123
345.096
346.485
343.291
338.885
340.397
340.572
339.263
337.953
338.875
335.579
328.817
332.079
328.228
328.967
335.107
332.63
331.302
337.314
333.099
335.93
333.705
332.935
333.772
334.594
331.848
332.586
325.841
331.985
331.3
331.531
322.035
323.8
327.393
322.256
319.65
325.155
322.343
322.829
324.748
322.647
328.891
325.204
324.113
321.202
318.577
323.729
327.876
320.494
319.162
320.082
316.095
311.216
313.409
312.013
314.647
313.018
313.197
318.275
315.305
315.353
315.647
318.916
311.912
313.161
313.396
317.277
313.445
313.59
315.904
315.917
305.52
303.855
300.909
305.156
305.183
303.49
302.668
308.136
308.215
301.57
303.219
300.066
301.24
305.46
304.322
303.109
307.137
306.191
302.562
306.839
366.152
365.218
364.541
370.744
366.427
374.176
373.102
377.151
375.771
372.523
375.705
373.702
373.7
370.489
367.667
370.217
370.786
370.669
367.967
366.633
360.227
365.791
364.488
369.032
358.869
369.478
362.563
370.111
364.206
370.499
369.796
366.187
370.559
359.716
370.642
363.114
368.781
359.035
368.03
354.055
348.481
346.544
351.069
352.522
353.918
350.781
353.215
352.596
351.268
357.2
350.417
357.121
355.283
352.424
349.723
351.503
353.115
352.222
352.43
347.348
338.684
334.531
342.981
341.709
341.662
343.431
343.383
342.321
345.704
344.08
349.219
344.013
346.617
343.599
346.64
345.88
339.548
344.212
342.502
339.258
332.86
325.832
329.765
330.877
333.402
334.077
333.377
334.383
337.208
333.94
332.27
338.126
333.558
333.017
338.107
334.172
333.092
331.646
332.415
333.784
322.371
322.017
320.446
317.851
323.709
323.215
324.666
322.66
324.476
321.072
323.842
328.01
323.298
324.557
322.905
321.352
323.573
320.991
321.989
321.118
311.161
313.148
314.7
311.798
309.48
313.818
315.236
315.27
315.92
316.645
315.622
313.587
316.244
315.197
312.398
310.523
313.302
315.034
313.142
312.633
305.187
306.848
306.689
302.217
309.149
308.168
304.344
304.195
307.884
306.126
304.204
306.077
301.956
306.603
308.122
305.873
307.438
305.183
299.09
303.612
364.382
363.039
367.887
366.958
370.074
373.609
376.71
370.518
370.586
377.98
367.966
370.104
373.391
372.59
370.239
373.853
367.043
365.929
365.654
365.146
360.967
357.776
359.926
359.703
361.708
363.315
355.764
363.378
358.71
363.134
365.111
361.912
362.542
366.212
364.321
366.012
356.939
358.063
356.454
356.992
349.723
348.829
344.54
352.782
349.115
350.547
352.143
360.641
350.137
353.269
352.986
347.057
353.51
353.195
351.942
352.99
350.704
346.116
349.438
344.469
340.395
336.67
337.64
342.263
342.361
340.543
342.149
342.352
335.038
345.282
345.653
338.901
343.077
341.262
345.52
337.762
339.093
337.493
339.659
335.38
333.225
330.024
333.491
328.782
333.675
335.388
334.219
335.127
332.489
338.656
332.469
337.486
332.652
330.755
334.342
330.6
331.232
331.274
327.283
325.868
319.18
321.251
320.536
325.625
320.331
323.782
323.973
326.379
327.327
327.621
322.049
325.46
325.721
318.958
317.981
323.598
324.797
321.756
321.356
319.026
312.189
308.794
308.031
317.927
308.003
315.603
316.068
315.27
317.517
313.76
309.043
316.686
311.846
311.36
318.532
314.729
313.568
315.183
314.479
308.447
304.559
306.207
310.475
302.591
302.034
307.739
306.761
301.038
308.13
307.59
305.282
306.221
304.697
306.404
304.794
306.951
308.222
304.703
303.585
300.506
)
;

boundaryField
{
    hotSide
    {
        type            fixedGradient;
        gradient        nonuniform List<scalar> 
400
(
321.511
322.87
325.591
329.677
335.133
341.965
350.181
359.788
370.794
383.208
397.037
412.289
428.971
447.088
466.647
487.651
510.105
534.011
559.372
586.191
323.738
325.08
327.767
331.802
337.194
343.949
352.078
361.591
372.498
384.81
398.537
413.687
430.268
448.289
467.755
488.672
511.043
534.872
560.161
586.913
326.149
327.47
330.116
334.091
339.406
346.071
354.099
363.503
374.296
386.491
400.101
415.136
431.606
449.52
468.885
489.706
511.988
535.735
560.948
587.63
328.704
330
332.597
336.503
341.73
348.292
356.205
365.485
376.15
388.215
401.695
416.604
432.954
450.753
470.009
490.73
512.919
536.579
561.714
588.325
331.33
332.599
335.142
338.97
344.099
350.546
358.332
367.477
378.003
389.928
403.271
418.047
434.27
451.949
471.095
491.712
513.807
537.382
562.439
588.978
333.918
335.158
337.643
341.389
346.414
352.74
360.392
369.397
379.779
391.562
404.765
419.407
435.503
453.065
472.101
492.618
514.622
538.114
563.096
589.569
336.321
337.531
339.959
343.622
348.544
354.751
362.274
371.142
381.385
393.031
406.101
420.618
436.595
454.047
472.983
493.409
515.33
538.747
563.663
590.076
338.36
339.543
341.92
345.509
350.339
356.44
363.847
372.595
382.718
394.244
407.2
421.608
437.485
454.844
473.695
494.045
515.897
539.253
564.114
590.478
339.852
341.015
343.352
346.885
351.645
357.665
364.985
373.643
383.675
395.113
407.984
422.312
438.116
455.407
474.197
494.491
516.294
539.606
564.428
590.758
340.643
341.795
344.11
347.613
352.334
358.311
365.584
374.193
384.176
395.567
408.393
422.679
438.443
455.699
474.456
494.722
516.498
539.788
564.589
590.901
340.643
341.795
344.11
347.613
352.334
358.311
365.584
374.193
384.176
395.567
408.393
422.679
438.443
455.699
474.456
494.722
516.498
539.788
564.589
590.901
339.852
341.015
343.352
346.885
351.645
357.665
364.985
373.643
383.675
395.113
407.984
422.312
438.116
455.407
474.197
494.491
516.294
539.606
564.428
590.758
338.36
339.543
341.92
345.509
350.339
356.44
363.847
372.595
382.718
394.244
407.2
421.608
437.485
454.844
473.695
494.045
515.897
539.253
564.114
590.478
336.321
337.531
339.959
343.622
348.544
354.751
362.274
371.142
381.385
393.031
406.101
420.618
436.595
454.047
472.983
493.409
515.33
538.747
563.663
590.076
333.918
335.158
337.643
341.389
346.414
352.74
360.392
369.397
379.779
391.562
404.765
419.407
435.503
453.065
472.101
492.618
514.622
538.114
563.096
589.569
331.33
332.599
335.142
338.97
344.099
350.546
358.332
367.477
378.003
389.928
403.271
418.047
434.27
451.949
471.095
491.712
513.807
537.382
562.439
588.978
328.704
330
332.597
336.503
341.73
348.292
356.205
365.485
376.15
388.215
401.695
416.604
432.954
450.753
470.009
490.73
512.919
536.579
561.714
588.325
326.149
327.47
330.116
334.091
339.406
346.071
354.099
363.503
374.296
386.491
400.101
415.136
431.606
449.52
468.885
489.706
511.988
535.735
560.948
587.63
323.738
325.08
327.767
331.802
337.194
343.949
352.078
361.591
372.498
384.81
398.537
413.687
430.268
448.289
467.755
488.672
511.043
534.872
560.161
586.913
321.511
322.87
325.591
329.677
335.133
341.965
350.181
359.788
370.794
383.208
397.037
412.289
428.971
447.088
466.647
487.651
510.105
534.011
559.372
586.191
)
;
    }
    coldSide
    {
        type            mixed;
        refValue        uniform 300;
        refGradient     uniform 0;
        valueFraction   uniform 0.991591;
        source          uniform 0;
        value           nonuniform List<scalar> 
400
(
300.023
300.055
300.026
300.003
300.061
300.027
300.073
300.012
300.047
300.027
300.031
300.029
300.03
300.018
300.018
300.076
300.021
300.046
300.044
300.038
300.047
300.019
300.053
300.059
300.045
300.009
300.024
300.014
300.036
300.05
300.05
300.015
300.043
300.044
300.053
300.014
300.036
300.032
300.058
300.052
300.068