/*--------------------------------*- C++ -*----------------------------------*\
| =========                 |                                                 |
| \\      /  F ield         | OpenFOAM: The Open Source CFD Toolbox           |
|  \\    /   O peration     | Version:  2212                                  |
|   \\  /    A nd           | Website:  www.openfoam.com                      |
|    \\/     M anipulation  |                                                 |
\*---------------------------------------------------------------------------*/
FoamFile
{
    version     2.0;
    format      ascii;
    arch        "LSB;label=32;scalar=64";
    class       volScalarField;
    location    "0";
    object      stateMean;
}
// * * * * * * * * * * * * * * * * * * * * * * * * * * * * * * * * * * * * * //

dimensions      [0 0 0 1 0 0 0];

internalField   nonuniform List<scalar> 
3200
(
331.784
331.555
331.734
331.389
330.022
331.07
331.718
332.051
333.391
332.699
333.376
333.102
331.275
330.904
332.626
330.732
330.997
330.841
330.991
332.404
328.039
327.709
326.098
327.047
326.856
327.314
325.769
328.55
328.489
327.96
328.865
327.852
328.729
326.95
327.967
327.027
327.74
324.864
327.822
328.591
325.723
323.988
323.731
319.941
323.807
323.762
322.822
323.519
322.601
323.496
324.982
323.103
323.299
323.179
323.564
322.081
320.312
321.967
325.384
321.995
319.338
320.967
318.73
318.736
317.26
318.104
319.273
318.306
320.84
317.124
318.548
320.353
319.732
317.642
316.567
319.563
318.097
318.831
318.699
318.954
315.965
314.665
312.716
313.211
314.703
317.04
315.065
316.669
315.038
315.631
316
315.343
314.343
314.413
314.653
314.895
313.976
314.058
315.582
315.593
312.253
309.611
310.804
311.791
310.467
309.869
311.638
309.504
310.588
310.683
310.775
310.707
311.518
309.486
310.199
311.078
310.247
311.165
309.12
310.965
305.181
306.451
306.957
306.719
306.28
307.366
307.547
307.43
304.731
307.12
306.536
304.639
305.372
307.207
306.849
305.077
306.796
307.338
307.92
306.288
303.057
302.924
300.758
302.374
301.025
302.931
303.935
302.086
301.872
301.674
303.142
301.016
301.441
301.407
301.532
302.817
301.619
301.009
302.077
301.661
334.195
334.192
332.279
332.084
330.426
330.05
331.635
330.424
333.612
333.091
333.752
331.204
333.035
332.536
330.855
330.691
331.346
329.478
332.118
333.01
330.491
327.517
327.218
327.991
327.235
328.794
327.076
329.64
329.306
329.888
329.674
328.379
329.354
327.209
328.603
326.489
328.425
326.605
327.001
327.972
323.658
323.439
321.872
322.427
323.258
321.896
322.777
322.56
323.3
324.317
324.243
324.196
323.951
324.555
322.884
324.212
322.581
322.217
323.233
324.927
319.602
319.775
317.97
318.321
320.442
319.112
318.986
320.81
319.506
319.749
320.147
320.315
320.717
316.83
317.965
317.475
318.987
319.321
318.79
320.444
315.079
314.662
314.055
314.9
312.786
315.972
312.476
314.29
316.031
314.562
315.074
313.572
313.677
315.872
315.666
314.791
315.451
314.104
315.669
315.426
311.12
310.153
311.383
309.774
309.167
308.885
310.3
310.46
310.153
311.336
311.587
309.643
311.641
310.332
311.631
310.965
309.978
310.118
310.661
308.861
306.229
306.599
306.743
305.581
305.747
306.053
304.62
306.878
306.969
305.77
307.432
306.258
307.314
307.038
304.679
305.248
306.126
305.632
305.881
305.691
302.348
301.546
303.653
302.548
303.031
302.929
302.525
300.162
301.531
301.524
301.555
302.205
302.196
301.221
302.405
300.28
303.308
303.155
301.064
301.897
334.092
334.216
332.165
333.404
331.381
332.08
333.148
332.001
332.757
332.862
332.86
334.294
331.614
333.546
331.605
331.646
332.073
330.393
334.839
332.845
330.245
327.614
329.459
326.494
326.847
327.657
327.976
328.407
329.498
328.349
329.371
329.018
328.053
326.973
327.276
326.604
327.489
328.72
328.198
328.476
324.682
325.318
322.321
322.734
322.475
322.376
323.026
322.709
325.466
324.503
323.862
323.802
322.915
323.555
322.72
322.178
323.673
323.198
322.647
323.133
319.194
318.507
319.231
318.97
320.273
318.241
319.603
320.771
320.153
319.795
321.358
320.366
320.872
319.45
318.313
318.55
317.606
318.048
321.487
319.62
315.542
313.374
314.599
315.163
315.308
314.534
314.967
314.779
314.071
313.799
313.067
315.057
315.369
316.48
313.866
314.563
313.945
314.575
313.584
315.066
308.934
311.938
311.602
309.173
309.338
312.135
308.983
310.284
312.662
310.764
312.008
310.825
310.868
308.717
311.378
310.055
310.645
309.386
312.011
309.534
306.306
305.85
305.769
306.27
306.244
306.156
305.333
307.501
306.38
305.788
307.82
307.182
307.369
308.08
304.551
306.547
305.633
306.404
305.974
306.402
302.7
300.975
303.416
301.793
302.026
301.723
302.073
303.174
300.698
302.288
302.793
302.178
302.355
303.358
303.561
299.952
302.752
300.971
302.414
301.264
334.033
333.428
331.108
330.595
331.489
332.325
332.629
332.684
333.471
334.029
334.423
333.899
334.588
332.848
332.761
333.337
333.332
331.921
331.894
333.142
329.281
327.935
327.871
328.44
327.189
328.637
329.642
329.55
329.023
330.16
329.76
328.941
330.225
328.266
328.651
327.125
328.217
327.144
327.816
326.728
322.632
325.557
324.697
324.289
323.027
323.572
325.492
324.148
324.821
323.533
324.247
326.044
323.408
323.903
322.742
324.744
323.527
326.969
323.037
324.302
320.37
320.669
320.839
318.737
319
319.691
319.752
320.504
320.178
318.661
319.933
320.826
321.486
319.54
318.396
319.301
318.758
319.887
319.529
318.468
315.631
316.263
314.594
315.047
315.462
316.427
315.98
314.862
315.537
315.809
315.519
316.361
315.682
315.65
315.805
315.7
314.014
315.02
315.322
315.642
311.574
310.118
310.297
310.161
309.055
310.697
310.959
312.051
308.785
313.517
309.931
313.431
312.765
312.03
309.092
310.219
310.649
310.036
312.227
312.868
306.715
305.009
307.111
307.218
305.537
306.977
304.948
305.721
307.182
308.377
307.333
307.041
307.793
306.484
306.167
305.903
306.706
307.358
307.149
307.458
302.186
301.067
302.047
300.955
302.702
301.986
301.897
303.27
303.683
302.751
302.41
300.617
299.99
304.595
300.895
302.723
301.532
301.742
301.197
301.316
335.367
335.241
333.604
332.615
332.478
333.017
332.26
334.867
334.933
337.486
336.629
333.817
335.204
333.415
333.263
333.096
331.676
331.296
333.05
334.796
329.248
329.235
327.944
329.4
328.754
329.314
328.211
328.815
331.784
330.223
330.145
329.679
329.227
328.178
329.072
328.054
327.141
328.644
330.037
329.843
323.947
325.031
324.418
321.467
323.646
322.188
323.603
325.445
326.086
324.636
324.931
326.224
327.336
324.251
324.515
323.439
323.622
324.845
324.222
325.551
320.219
320.82
320.391
319.952
318.566
320.167
318.358
321.627
320.178
320.423
321.104
320.762
319.067
319.308
320.889
319.76
320.483
319.339
318.314
322.272
316.365
315.847
314.629
316.956
316.702
314.156
315.316
316.7
315.984
316.209
315.756
315.471
314.332
316.069
316.722
315.436
314.509
314.913
316.036
316.309
312.36
310.897
310.588
309.537
311.312
311.281
310.464
310.315
312.943
311.396
311.61
312.285
308.583
309.791
313.11
312.573
309.885
310.217
311.527
310.32
307.162
307.161
306.466
306.787
307.128
307.507
305.054
308.425
308.358
307.573
305.988
307.292
306.244
306.076
306.916
307.499
306.011
306.351
306.472
308.306
301.277
302.669
301.154
302.382
301.154
302.331
302.505
302.55
301.63
303.4
300.446
302.743
302.16
301.656
302.648
301.597
300.676
301.95
303.468
300.747
335.671
335.364
335.12
334.432
334.968
334.716
332.702
335.821
333.719
336.006
336.133
336.468
336.761
334.888
336.072
334.055
335.255
331.748
336.106
333.818
329.707
328.701
330.486
329.366
329.888
329.934
330.786
330.517
331.551
331.089
331.034
331.36
330.234
329.305
331.098
329.753
328.98
329.064
329.25
329.853
324.5
324.913
324.468
323.539
324.703
325.303
324.169
325.738
324.9
326.257
326.754
326.133
327.111
324.601
325.237
323.701
325.256
324.935
324.432
326.454
320.024
320.419
321.147
321.151
318.821
320.985
320.615
318.571
318.647
320.646
321.846
322.173
320.901
319.625
321.497
320.501
320.385
318.625
320.012
321.725
315.914
315.188
314.565
314.618
315.538
316.278
315.265
316.724
315.812
318.01
316.143
315.958
315.152
315.534
315.106
315.524
316.254
315.747
315.571
315.882
309.723
311.8
312
310.3
308.894
312.272
310.339
311.66
310.671
311.784
311.791
310.922
310.276
311.379
312.067
310.182
313.177
310.619
311.472
311.607
308.051
306.691
306.447
305.332
306.353
306.739
307.868
304.649
306.948
306.145
307.891
308.123
307.382
305.674
306.379
308.318
306.84
308.087
307.589
306.828
303.99
302.779
301.11
301.681
300.883
301.627
301.966
303.29
302.491
302.414
303.018
301.524
303.067
303.007
302.381
300.703
302.063
302.642
302.673
300.438
335.649
336.437
336.287
334.546
334.146
334.806
335.5
336.484
337.065
335.785
337.056
337.132
336.309
337.318
335.352
334.536
334.813
335.055
334.59
336.681
330.913
331.301
329.598
329.727
330.63
330.412
329.663
330.794
331.406
329.861
333.523
332.144
332.075
331.327
330.906
330.824
330.543
330.973
330.289
329.446
326.516
325.596
326.598
325.003
327.002
325.041
325.207
325.549
325.787
324.76
327.05
326.252
326.522
326.801
326.174
325.183
325.763
325.396
326.121
325.685
321.966
321.955
321.472
321.923
321.689
319.224
320.009
321.924
322.552
322.567
320.972
322.841
322.873
322.379
320.468
319.726
320.936
321.137
320.917
321.775
317.668
317.146
314.772
316.381
316.054
315.608
316.562
317.458
316.746
315.172
316.877
317.289
316.827
315.762
314.443
316.255
315.873
315.52
316.556
316.929
312.422
311.167
312.981
312.168
311.584
311.484
312.072
311.722
312.576
313.164
311.127
311.33
312.393
311.656
312.661
311.771
312.587
311.74
311.227
313.078
308.175
308.323
306.612
307.77
308.443
307.816
307.165
307.209
307.153
308.325
307.006
306.231
306.369
306.238
304.776
307.099
306.722
307.185
308.143
307.994
301.945
301.415
301.735
301.693
303.342
301.089
302.465
302.355
301.758
304.073
300.802
302.419
300.988
302.621
303.646
303.617
302.832
302.153
302.234
301.012
337.486
337.324
336.005
336.986
336.928
336.937
336.161
335.914
337.896
337.404
337.534
338.255
338.106
334.114
335.806
335.862
335.772
335.066
336.329
336.94
332.36
330.664
330.944
330.908
329.96
331.65
332.331
331.243
332.403
331.981
331.796
332.636
331.207
331.467
330.644
329.914
330.319
330.186
329.836
331.673
328.859
329.272
328.623
327.036
325.301
326.584
327.439
325.567
330.839
327.496
327.518
328.519
326.59
327.495
326.529
326.348
326.299
326.875
326.305
326.212
323.013
323.661
321.11
322.653
320.284
320.676
321.381
321.479
322.476
322.344
322.998
321.509
322.546
322.333
323.075
321.104
322.276
320.572
322.432
322.991
316.512
317.781
317.464
316.984
317.328
316.665
318.428
316.989
317.979
316.151
319.531
317.354
315.735
317.545
317.196
317.221
315.325
316.311
318.161
317.102
314.053
311.519
312.194
312.025
311.318
311.926
313.529
312.151
311.916
312.714
312.805
312.32
312.836
311.738
312.355
312.022
311.564
311.829
311.639
312.429
307.053
308.307
306.834
307.876
307.67
307.566
308.347
307.115
306.644
306.443
307.573
308.804
306.853
307.343
307.039
308.31
306.312
307.575
306.77
306.924
302.951
300.07
302.185
302.187
303.368
303.246
303.467
302.742
301.715
302.479
301.919
303.653
303.668
303.866
300.377
301.882
302.679
303.004
303.483
302.879
340.283
338.041
338.271
338.366
337.529
336.301
337.539
336.125
339.636
338.415
339.711
339.95
339.504
338.182
338.189
338.721
337.576
336.259
338.316
337.386
333.253
332.757
332.6
331.786
331.225
330.906
331.806
332.799
334.757
333.74
332.972
333.966
333.199
332.755
333.014
331.355
332.625
330.928
331.387
334.004
326.362
328.134
329.077
327.242
326.295
328.089
327.946
326.948
328.732
329.073
328.799
329.301
327.612
328.555
327.723
329.041
327.411
326.785
326.831
329.174
324.752
321.47
322.075
320.586
323.231
322.24
323.446
323.119
322.418
323.524
321.793
324.301
321.191
321.051
321.423
322.477
321.138
322.359
322.71
321.418
318.208
317.346
316.589
317.476
318.261
317.851
315.962
317.787
318.881
318.176
318.787
319.442
318.626
316.499
319.223
317.302
316.071
318.416
316.435
319.411
311.598
313.068
311.774
312.332
312.74
312.628
313.439
313.564
313.314
314.268
312.528
313.22
310.361
310.898
312.465
312.725
312.291
312.03
312.89
312.227
307.998
307.54
307
307.464
306.588
308.79
305.944
308.112
306.104
307.682
307.938
305.966
307.517
306.768
308.823
309.219
307.162
308.463
307.034
307.296
302.002
302.584
303.175
301.72
301.88
302.943
302.948
302.845
301.079
303.628
302.527
303.166
302.805
304.167
301.742
302.7
302.928
302.295
302.222
303.447
339.588
338.912
338.47
338.583
340.421
339.066
338.192
338.546
340.675
341.888
341.464
339.69
339.621
339.102
337.223
339.719
338.671
337.193
337.369
337.724
334.743
331.91
333.723
333.014
333.465
333.1
333.341
333.224
334.095
333.585
333.567
336.46
333.333
332.856
332.262
332.678
332.409
334.234
331.47
332.926
330.147
327.64
329.025
326.776
327.669
325.251
328.611
327.855
328.17
328.816
330.117
327.825
330.776
328.843
328.938
327.962
328.376
329.426
328.489
328.626
322.57
323.814
322.908
322.095
322.806
320.886
322.555
325.066
323.243
325.013
322.094
323.922
325.197
323.347
323.964
323.466
322.738
323.237
323.619
324.563
318.087
316.55
317.62
319.372
318.801
317.896
317.381
318.177
317.456
318.197
317.567
320.014
319.111
317.929
318.509
317.05
316.254
318.711
317.089
317.482
313.065
312.635
312.706
312.823
313.127
313.097
314.728
312.342
313.733
313.365
312.19
313.487
314.51
312.18
313.064
312.563
312.4
312.137
313.013
313.53
308.64
306.652
308.817
307.621
306.82
307.651
307.673
308.368
307.554
307.72
307.644
308.39
308.002
307.377
307.493
307.904
307.303
306.72
308.214
307.961
301.933
302.45
301.234
302.158
303.062
303.233
303.647
300.358
303.883
303.369
302.818
302.984
302.92
301.802
302.242
301.958
301.848
302.116
303.146
301.033
341.646
340.408
339.103
338.67
341.157
340.975
338.652
340.936
341.656
341.869
341.896
341.218
342.927
340.568
339.844
339.459
339.283
340.055
338.447
342.642
335.694
332.32
335.371
333.126
333.735
333.761
334.638
333.81
336.542
334.097
334.357
336.464
333.303
335.705
333.951
334.67
333.295
334.364
332.88
334.883
330.253
330.21
328.067
330.102
327.129
328.354
328.397
327.803
329.276
330.193
331.03
330.951
330.224
330.936
330.109
327.758
328.369
328.85
329.316
330.805
326.217
324.382
324.034
324.377
325.309
325.179
324.937
324.273
324.207
324.334
324.226
325.564
322.395
324.723
324.751
323.263
323.36
323.595
324.461
324.971
321.01
318.938
318.606
317.773
318.51
318.319
317.971
319.48
319.728
319.972
319.07
317.754
317.299
318.36
319.269
318.53
317.002
319.021
318.708
319.758
315.164
313.247
313.927
312.724
309.59
313.832
313.563
315.698
313.359
312.535
312
314.28
312.324
313.921
311.47
312.761
313.255
314.056
313.736
313.02
308.212
306.984
306.618
308.63
307.922
307.905
309.049
308.104
307.166
310.08
308.343
309.911
308.501
308.08
307.355
305.633
307.332
306.851
307.374
307.715
303.433
301.047
305.061
303.185
303.119
300.489
302.88
301.05
301.659
302.134
302.126
301.47
302.015
302.115
304.194
302.772
302.978
303.038
303.562
305.069
342.401
341.38
343.748
341.497
340.099
342.399
340.948
340.391
342.728
341.575
343.644
342.105
341.31
342.398
340.908
339.839
340.648
340.498
340.566
342.629
335.958
337.42
334.82
334.828
336.635
334.686
336.147
336.954
335.853
336.136
337.406
337.401
333.343
336.343
336.119
337.591
336.099
335.415
336.448
337.201
332.441
329.322
329.838
331.059
328.513
330.667
332.451
331.093
330.592
330.385
331.841
331.397
331.575
331.066
329.241
329.615
329.149
331.577
329.983
330.92
324.778
327.933
324.68
325.688
323.55
324.6
324.049
326.257
326.086
326.611
324.424
324.798
322.527
323.908
324.329
324.614
324.663
324.356
324.316
323.383
318.38
317.762
318.231
317.589
317.763
319.346
320.263
321.512
320.126
319.359
319.999
319.168
318.93
318.174
320.339
318.443
318.045
320.549
319.48
320.275
314.097
313.419
314.028
314.868
314.125
312.899
313.526
314.034
314.013
314.959
312.649
314.307
313.774
314.113
314.267
313.175
314.385
315.532
315.428
313.911
307.892
306.567
308.037
307.067
308.057
307.29
307.178
308.62
308.789
308.168
309.761
311.264
308.003
307.261
307.328
307.593
307.537
307.947
307.991
307.572
303.558
302.052
300.607
303.444
303.817
302.666
302.636
302.717
303.125
302.115
303.082
302.389
301.24
302.828
302.451
303.286
303.53
302.863
302.684
302.259
346.387
343.512
341.515
342.848
342.079
342.323
340.541
344.351
343.657
343.499
344.033
343.165
342.461
342.616
341.865
342.557
342.79
344.927
342.836
342.923
337.645
335.512
335.402
335.533
336.112
335.722
335.778
335.998
336.877
336.441
336.421
336.536
336.267
337.089
336.105
338.092
335.295
336.171
335.597
337.813
332.58
330.492
330.433
329.183
330.586
331.428
330.385
332.059
331.017
330.498
331.634
331.703
331.021
331.724
330.882
332.232
329.554
329.666
333.017
333.679
326.521
327.2
324.908
324.405
326.483
324.171
325.199
326.149
323.73
329.817
325.997
325.473
325.926
325.091
324.368
324.051
326.262
325.516
326.808
327.206
318.212
321.276
320.899
319.643
318.51
319.583
317.799
319.528
320.194
321.214
319.549
319.815
320.055
320.019
319.474
318.585
319.949
319.8
320.086
320.53
314.138
315.355
313.689
312.876
313.813
313.695
314.174
315.013
313.394
313.679
315.896
314.431
313.131
314.024
315.537
315.605
313.614
314.835
313.416
313.865
309.08
308.479
308.955
308.347
307.638
310.385
309.735
309.66
308.139
307.296
308.522
308.928
307.766
308.35
307.258
309.429
309.556
308.875
308.318
308.279
302.928
302.993
302.879
303.558
302.886
303.698
300.692
303.085
301.554
301.667
303.176
303.129
301.874
302.879
302.609
301.491
303.41
302.88
301.592
301.736
346.826
344.584
342.235
343.842
342.543
344.821
343.509
344.583
342.202
346.179
344.619
342.85
344.559
344.495
342.755
344.754
344.814
342.939
344.532
345.668
340.027
339.384
337.501
335.033
337.453
337.306
337.773
338.681
338.697
338.139
339.476
337.123
339.038
338.034
336.541
337.725
336.049
338.473
338.241
339.045
331.514
331.957
332.501
332.276
331.868
331.798
331.039
331.306
332.131
333.999
333.63
332.537
333.879
331.452
331.826
330.984
333.438
330.331
331.893
333.101
326.229
326.443
324.88
326.209
325.163
326.065
325.966
327.874
325.872
326.125
325.494
325.964
324.975
325.832
324.121
327.246
325.955
324.841
325.856
328.154
322.735
319.226
321.024
319.917
321.994
321.325
317.609
320.139
320.414
320.048
318.381
321.001
321.842
319.59
318.92
319.466
320.075
319.274
321.517
320.304
315.145
314.445
313.726
315.574
316.361
314.548
315.487
315.719
313.22
313.726
315.296
315.091
314.468
315.278
315.213
315.136
313.924
314.299
313.599
314.161
309.706
306.941
308.198
308.055
308.25
308.743
309.384
308.612
308.493
308.392
309.576
307.724
309.954
309.507
307.974
308.244
308.333
306.947
307.662
310.477
301.96
300.687
303.115
303.434
302.685
303.001
301.522
302.118
301.626
304.185
304.364
302.05
303.414
300.768
303.403
301.453
303.185
303.212
301.716
302.089
346.801
346.758
346.528
343.033
345.302
344.533
344.421
344.657
344.877
344.745
343.436
344.839
344.78
345.81
345.306
345.409
345.045
346.969
345.927
346.285
340.233
338.481
339.659
338.824
338.573
339.101
339.578
339.135
339.141
339.268
338.787
337.597
339.697
337.42
339.018
337.262
337.864
338.022
338.255
338.471
335.195
333.978
334.025
333.151
332.328
331.867
332.903
332.701
333.899
333.139
332.475
332.633
332.935
333.189
333.528
333.306
332.323
333.516
334.268
333.959
327.94
327.848
325.936
326.922
325.531
326.348
325.183
329.085
325.935
327.856
326.713
328.032
327.944
326.023
325.747
328.116
325.741
325.414
326.303
328.4
321.128
321.133
321.849
321.457
321.078
320.867
320.074
321.526
321.902
322.773
319.973
321.843
321.623
320.845
320.568
320.79
319.366
321.368
320.424
322.868
315.326
313.593
313.3
314.893
314.235
315.82
314.303
313.854
313.786
315.224
314.032
313.794
314.666
315.144
314.82
314.036
314.607
313.745
316.738
315.419
309.982
309.286
309.163
307.854
309.985
309.194
308.686
309.656
307.919
309.033
308.388
308.617
308.136
309.25
309.029
307.511
307.736
309.099
309.103
309.259
304.431
303.787
302.987
304.059
302
303.083
302.299
301.927
304.218
300.674
301.463
302.345
303.336
302.895
302.988
302.352
303.141
304.105
301.593
303.157
346.538
347.568
346.819
346.582
347.018
346.47
345.373
347.936
348.787
345.078
348.189
348.281
347.899
345.582
345.403
348.159
346.184
346.518
347.601
347.358
340.958
341.295
339.047
339.28
339.371
340.415
340.509
339.757
340.568
339.875
339.666
339.53
340.86
340.371
339.565
342.772
340.699
341.639
340.755
341.686
335.166
333.48
334.067
334.802
332.945
332.89
333.522
333.177
332.574
334.3
335.92
332.909
333.147
333.029
334.609
333.713
334.715
332.241
334.082
334.728
328.98
327.107
328.136
327.497
329.19
328.821
327.567
326.647
328.616
328.217
325.706
327.393
327.663
327.825
327.402
327.951
327.152
327.493
328.377
327.708
323.661
321.672
321.085
321.46
319.312
320.824
320.475
321.369
322.666
322.264
322.696
322.514
321.293
322.778
321.656
321.76
321.802
319.548
322.129
322.661
315.485
315.268
315.424
314.571
314.845
314.889
315.571
315.776
314.453
315.412
315.624
314.79
316.003
314.188
316.638
314.863
314.927
315.147
316.548
315.96
310.418
310.524
308.91
308.806
309.939
308.946
309.244
308.6
309.679
309.028
309.402
309.512
310.76
307.791
309.003
308.453
308.138
308.571
308.908
309.447
301.153
303.271
305.234
303.016
304.213
303.79
302.349
302.841
303.271
303.115
304.043
301.699
304.159
302.266
302.947
301.337
302.087
302.258
303.876
304.093
350.457
349.638
346.76
347.509
347.208
346.842
348.476
346.634
349.069
347.983
346.304
347.409
347.351
346.184
346.968
346.62
347.682
348.785
348.548
348.988
341.938
341.455
340.312
341.36
339.775
341.434
340.401
342.398
341.116
341.809
341.951
341.819
342.614
340.47
341.822
340.417
342.47
342.608
341.048
341.397
335.965
336.184
334.92
334.055
333.759
334.425
331.952
333.935
332.767
334.312
334.22
334.016
332.672
333.189
334.177
332.054
334.867
335.152
334.959
335.316
329.603
329.371
326.915
326.943
327.372
327.705
328.461
328.704
327.02
327.597
328.354
328.825
327.913
328.585
327.756
328.292
326.28
328.746
327.644
329.965
322.307
323.338
322.814
322.308
322.152
323.27
320.399
322.074
319.765
321.198
322.664
322.693
322.509
321.355
321.767
320.553
324.053
322.999
322.007
322.962
315.84
315.806
314.796
316.876
313.941
315.566
314.949
315.177
315.02
316.595
315.942
316.214
316.001
315.544
315.46
316.464
314.983
315.535
314.484
318.443
310.281
310.044
311.104
308.765
311.228
308.656
308.601
308.688
309.699
309.225
309.596
309.49
309.312
309.206
309.603
309.599
310.749
308.6
308.476
309.684
305.589
303.761
303.984
302.324
304.251
303.915
303.314
303.603
302.835
302.903
302.137
304.123
303.147
303.378
302.996
303.815
303.09
301.345
303.537
303.171
351.051
349.282
348.824
350.067
349.677
350.064
348.243
349.819
349.761
349.53
348.606
348.091
347.304
348.668
348.118
347.721
349.034
349.369
351.959
349.588
345.12
343.547
342.386
342.418
343.151
342.735
342.542
341.468
342.04
343.369
341.263
344.211
342.428
341.698
342.273
342.101
342.112
342.246
341.84
345.852
337.394
336.505
334.717
337.373
336.235
335.719
335.34
335.039
334.843
334.838
335.369
335.367
334.74
335.147
335.602
335.223
336.761
336.379
336.24
338.563
331.312
330.304
327.731
330.025
329.015
330.565
329.573
328.853
329.194
327.569
328.253
328.036
330.057
329.152
329.133
327.984
330.535
329.506
329.185
330.604
322.993
322.91
323.42
322.384
323.463
322.057
322.819
320.739
322.87
321.852
322.739
321.037
322.365
321.793
321.311
321.562
323.918
322.963
323.306
323.411
317.418
315.357
316.399
314.835
316.891
316.097
316.447
316.508
317.523
315.729
316.393
315.535
316.954
317.248
316.605
314.782
314.722
317.21
315.024
317.732
310.232
310.564
309.694
310.627
308.957
309.536
308.697
310.055
309.907
308.281
310.059
308.707
309.473
308.972
310.219
308.269
309.528
308.631
309.256
309.674
302.563
303.327
303.102
303.842
302.34
304.203
303.919
303.102
302.557
302.16
302.939
302.034
303.618
302.639
302.494
303.788
303.752
305.609
302.988
303.008
351.722
351.552
350.928
351.554
350.136
350.341
351.712
350.196
351.395
348.918
350.723
348.523
350.575
348.65
350.967
349.393
350.515
351.813
350.88
351.986
345.686
344.718
343.225
345.07
343.464
344.624
341.99
345.117
342.409
345.006
345.229
342.615
345.245
342.815
344.808
342.334
345.008
343.505
344.783
343.96
338.984
337.134
337.443
338.063
336.929
335.971
334.962
334.931
336.459
334.462
336.61
336.152
335.801
336.437
335.938
336.109
335.32
335.9
336.629
337.721
330.444
329.439
329.892
331.679
330.203
330.147
330.459
328.724
329.979
330.062
329.918
328.602
328.392
329.997
329.57
329.31
331.846
330.587
328.967
331.532
323.781
325.376
323.687
322.009
322.339
322.201
323.008
322.654
321.745
322.248
321.139
323.294
321.56
322.954
323.931
322.043
322.755
323.774
322.928
323.644
318.221
315.857
316.025
317.171
313.894
315.165
316.712
316.929
316.545
316.269
316.201
315.993
317.099
314.399
315.407
316.047
315.74
317.073
315.4
314.898
310.347
308.043
310.243
310.409
310.38
309.303
308.792
310.44
307.839
310.262
309.497
309.732
309.622
309.2
310.451
310.511
309.997
309.322
308.233
309.913
303.308
303.293
303.546
304.086
303.171
304.544
302.61
302.06
303.837
304.791
303.993
303.155
301.332
301.94
302.485
303.555
304.82
302.891
304.253
302.329
353.72
352.701
351.453
350.694
351.325
352.231
352.532
352.205
350.192
350.417
352.292
350.148
350.356
350.344
349.056
350.071
351.811
350.754
352.206
351.638
344.538
344.92
345.24
344.321
344.338
342.899
344.789
343.012
343.899
342.814
344.064
345.564
343.917
343.759
342.677
344.059
343.901
343.203
345.299
344.555
338.885
337.774
337.719
337.27
335.51
338.636
336.054
338.076
337.601
336.6
334.997
335.453
336.658
335.874
336.366
338.7
337.006
338.457
337.727
338.792
330.754
329.506
328.884
330.655
329.443
330.747
329.925
329.03
330.17
329.209
330.184
329.301
329.889
329.769
330.338
332.283
330.911
329.456
329.324
331.666
324.542
325.562
323.996
323.364
322.884
324.143
323.313
322.825
322.989
323.623
322.395
323.317
321.681
323.021
322.13
323.696
321.418
321.165
322.902
324.51
315.369
316.093
315.907
318.232
316.251
316.45
317.289
314.55
315.76
316.139
316.558
314.752
317.02
315.69
315.4
316.775
315.802
316.826
318.243
315.939
310.256
310.991
310.853
309.778
310.752
311.004
310.28
309.9
309.872
311.039
309.928
310.99
308.989
310.241
309.457
309.691
310.561
312.395
310.81
310.384
304.281
303.26
303.706
302.891
300.732
301.474
304.423
302.558
301.912
302.428
302.262
303.947
303.668
304.156
304.028
300.918
303.545
305.023
304.511
303.141
)
;

boundaryField
{
    hotSide
    {
        type            fixedGradient;
        gradient        nonuniform List<scalar> 
400
(
321.511
322.87
325.591
329.677
335.133
341.965
350.181
359.788
370.794
383.208
397.037
412.289
428.971
447.088
466.647
487.651
510.105
534.011
559.372
586.191
323.738
325.08
327.767
331.802
337.194
343.949
352.078
361.591
372.498
384.81
398.537
413.687
430.268
448.289
467.755
488.672
511.043
534.872
560.161
586.913
326.149
327.47
330.116
334.091
339.406
346.071
354.099
363.503
374.296
386.491
400.101
415.136
431.606
449.52
468.885
489.706
511.988
535.735
560.948
587.63
328.704
330
332.597
336.503
341.73
348.292
356.205
365.485
376.15
388.215
401.695
416.604
432.954
450.753
470.009
490.73
512.919
536.579
561.714
588.325
331.33
332.599
335.142
338.97
344.099
350.546
358.332
367.477
378.003
389.928
403.271
418.047
434.27
451.949
471.095
491.712
513.807
537.382
562.439
588.978
333.918
335.158
337.643
341.389
346.414
352.74
360.392
369.397
379.779
391.562
404.765
419.407
435.503
453.065
472.101
492.618
514.622
538.114
563.096
589.569
336.321
337.531
339.959
343.622
348.544
354.751
362.274
371.142
381.385
393.031
406.101
420.618
436.595
454.047
472.983
493.409
515.33
538.747
563.663
590.076
338.36
339.543
341.92
345.509
350.339
356.44
363.847
372.595
382.718
394.244
407.2
421.608
437.485
454.844
473.695
494.045
515.897
539.253
564.114
590.478
339.852
341.015
343.352
346.885
351.645
357.665
364.985
373.643
383.675
395.113
407.984
422.312
438.116
455.407
474.197
494.491
516.294
539.606
564.428
590.758
340.643
341.795
344.11
347.613
352.334
358.311
365.584
374.193
384.176
395.567
408.393
422.679
438.443
455.699
474.456
494.722
516.498
539.788
564.589
590.901
340.643
341.795
344.11
347.613
352.334
358.311
365.584
374.193
384.176
395.567
408.393
422.679
438.443
455.699
474.456
494.722
516.498
539.788
564.589
590.901
339.852
341.015
343.352
346.885
351.645
357.665
364.985
373.643
383.675
395.113
407.984
422.312
438.116
455.407
474.197
494.491
516.294
539.606
564.428
590.758
338.36
339.543
341.92
345.509
350.339
356.44
363.847
372.595
382.718
394.244
407.2
421.608
437.485
454.844
473.695
494.045
515.897
539.253
564.114
590.478
336.321
337.531
339.959
343.622
348.544
354.751
362.274
371.142
381.385
393.031
406.101
420.618
436.595
454.047
472.983
493.409
515.33
538.747
563.663
590.076
333.918
335.158
337.643
341.389
346.414
352.74
360.392
369.397
379.779
391.562
404.765
419.407
435.503
453.065
472.101
492.618
514.622
538.114
563.096
589.569
331.33
332.599
335.142
338.97
344.099
350.546
358.332
367.477
378.003
389.928
403.271
418.047
434.27
451.949
471.095
491.712
513.807
537.382
562.439
588.978
328.704
330
332.597
336.503
341.73
348.292
356.205
365.485
376.15
388.215
401.695
416.604
432.954
450.753
470.009
490.73
512.919
536.579
561.714
588.325
326.149
327.47
330.116
334.091
339.406
346.071
354.099
363.503
374.296
386.491
400.101
415.136
431.606
449.52
468.885
489.706
511.988
535.735
560.948
587.63
323.738
325.08
327.767
331.802
337.194
343.949
352.078
361.591
372.498
384.81
398.537
413.687
430.268
448.289
467.755
488.672
511.043
534.872
560.161
586.913
321.511
322.87
325.591
329.677
335.133
341.965
350.181
359.788
370.794
383.208
397.037
412.289
428.971
447.088
466.647
487.651
510.105
534.011
559.372
586.191
)
;
    }
    coldSide
    {
        type            mixed;
        refValue        uniform 300;
        refGradient     uniform 0;
        valueFraction   uniform 0.991591;
        source          uniform 0;
        value           nonuniform List<scalar> 
400
(
300.026
300.02
300.023
300.018
300.011
300.034
300.016
300.025
300.017
300.016
300.029
300.03
300.025
300.016
300.037
300.01
300.047
300.022
300.028
300.036
300.025
300.013
300.008
300.009
300.022
300.023
300.012
300.001
300.022
300.021
300.009
300.017
300.025
300.006
300.032
300.028
300.032
300.028
300.028