/*--------------------------------*- C++ -*----------------------------------*\
| =========                 |                                                 |
| \\      /  F ield         | OpenFOAM: The Open Source CFD Toolbox           |
|  \\    /   O peration     | Version:  2212                                  |
|   \\  /    A nd           | Website:  www.openfoam.com                      |
|    \\/     M anipulation  |                                                 |
\*---------------------------------------------------------------------------*/
FoamFile
{
    version     2.0;
    format      ascii;
    arch        "LSB;label=32;scalar=64";
    class       volScalarField;
    location    "0";
    object      stateMean;
}
// * * * * * * * * * * * * * * * * * * * * * * * * * * * * * * * * * * * * * //

dimensions      [0 0 0 1 0 0 0];

internalField   nonuniform List<scalar> 
3200
(
351.464
353.094
348.796
353.419
352.4
350.353
351.999
349.779
356.099
354.404
351.411
353.596
353.345
353.768
348.772
348.534
350.292
348.448
348.149
346.036
341.376
343.194
342.036
341.716
344.081
345.457
346.477
346.208
341.496
346.084
345.416
347.796
347.397
344.072
344.571
346.38
346.68
338.741
337.545
338.91
336.968
341.697
337.399
339.372
335.294
339.966
337.951
340.613
340.563
339.542
340.731
342.008
334.189
336.539
333.806
331.197
334.895
333.986
336.687
336.373
329.577
330.383
328.452
334.076
329.961
327.834
329.786
331.162
333.454
332.638
334.546
334.825
330.666
329.805
327.265
331.744
332.061
330.729
330.739
328.393
321.694
321.17
325.404
323.783
326.49
321.999
326.004
321.657
324.536
326.464
326.303
324.348
323.11
324.418
323.987
321.852
323.586
322.033
321.718
322.328
317.065
320.578
315.591
318.64
320.954
318.315
320.77
318.15
319.219
319.756
318.13
317.186
314.964
315.617
317.884
312.01
317.668
316.784
317.862
316.73
310.759
310.259
306.634
306.336
311.629
308.273
311.127
310.412
310.492
313.548
309.941
308.702
311.986
310.721
310.745
312.398
310.218
305.9
310.548
308.38
305.074
301.377
305.638
303.496
303.372
302.498
304.884
304.335
303.783
298.885
301.286
305.536
303.241
306.713
303.807
302.778
302.651
307.358
303.472
301.889
346.876
346.077
347.387
348.437
352.22
350.406
352.639
352.556
356.334
353.985
353.136
354.077
354.037
355.513
354.583
351.89
350.003
347.736
348.722
351.279
340.791
343.175
343.127
346.708
347.031
346.406
348.29
347.023
345.643
349.359
349.006
346.826
347.274
345.814
345.739
340.676
345.731
342.104
343.989
341.513
335.43
338.546
336.951
338.424
337.222
336.936
335.284
338.223
337.52
335.556
336.53
339.107
340.076
332.357
337.48
339.195
334.525
334.823
335.76
330.308
328.923
329.308
331.525
330.414
334.493
330.617
330.633
330.605
330.901
332.449
333.819
328.83
331.884
331.766
330.514
331.146
331.815
330.741
329.651
330.835
326.533
321.545
322.211
325.532
321.552
325.716
325.525
324.958
324.585
325.632
329.995
327.104
323.701
327.573
324.988
324.288
322.643
326.045
325.273
323.579
317.191
315.654
319.166
316.938
320.936
320.047
317.372
318.029
317.134
318.668
316.519
317.811
315.731
316.498
318.353
317.376
312.282
317.124
316.788
313.813
311.388
309.388
310.057
311.624
311.136
309.435
307.029
312.245
313.894
313.586
311.687
314.937
307.469
310.587
313.323
306.777
306.499
310.925
310.155
307.613
304.553
302.735
301.404
301.506
305.8
301.009
300.795
303.467
305.713
304.016
303.26
303.643
305.409
300.921
299.08
306.579
303.967
303.959
302.925
304.667
353.714
351.566
348.16
356.656
356.049
355.361
352.202
353.137
354.684
354.77
360.173
353.697
353.922
349.585
353.29
352.568
351.635
352.476
352.26
347.091
341.268
345.167
344.921
349.807
346.042
346.579
348.773
345.461
345.532
348.781
347.056
346.863
349.154
345.321
345.68
340.223
346.505
346.982
338.188
345.962
338.916
333.997
338.324
339.543
338.231
343.107
338.172
344.742
341.694
341.544
338.812
342.449
336.652
339.421
339.539
338.063
339.348
335.731
337
334.256
330.066
328.394
330.092
329.491
331.636
331.083
337.456
331.791
335.029
334.103
331.26
332.191
330.204
333.253
330.608
331.922
328.719
334.536
330.103
325.681
327.481
323.828
323.602
324.132
325.191
321.107
327.032
325.199
327.661
324.759
327.199
326.834
325.513
322.628
323.932
323.433
327.579
323.845
324.86
324.219
314.767
317.186
318.869
318.825
315.021
319.343
318.621
317.12
321.772
316.39
321.022
321.098
318.667
320.593
316.553
321.543
315.214
318.322
316.244
314.786
309.745
310.64
309.131
314.146
307.755
313.645
312.433
309.211
318.582
309.111
308.772
309.531
310.784
312.321
311.541
311.335
308.233
312.896
312.776
312.77
306.839
302.816
307.016
304.224
304.37
307.1
302.023
302.992
304.48
306.801
305.723
299.491
300.181
308.976
303.794
303.468
299.314
304.666
306.286
305.899
356.023
353.265
353.769
357.441
356.679
354.2
357.241
359.087
358.043
357.538
358.386
359.172
356.361
354.724
354.674
354.501
348.735
353.641
349.121
351.383
346.199
348.195
345.694
349.574
348.671
347.554
353.404
348.87
349.239
349.654
347.886
346.739
348.008
349.287
346.39
347.286
345.569
343.007
345.473
346.13
335.268
340.551
339.44
341.124
338.041
336.25
344.138
336.876
340.582
340.506
341.93
340.561
344.632
340.523
338.077
340.215
339.72
336.083
334.261
339.092
328.067
331.353
332.188
336.867
334.318
333.033
330.173
332.941
334.421
334.443
331.815
333.488
333.688
330.961
334.972
331.977
333.718
333.212
332.002
332.305
325.079
324.991
321.87
326.796
329.245
325.447
327.815
328.05
326.854
326.725
331.157
330.067
325.411
326.69
324.651
326.531
325.822
325.829
322.492
322.577
317.614
318.939
320.236
315.549
319.847
318.103
319.875
316.211
315.175
317.726
323.84
323.259
322.367
316.977
317.25
320.471
320.501
315.238
322.182
318.537
311.935
309.562
314.826
314.839
308.56
311.436
311.787
310.318
314.121
316.169
310.158
312.717
310.553
312.919
312.359
309.703
310.412
313.26
309.925
311.066
305.384
306.367
303.081
303.087
305.138
301.389
306.906
304.675
301.731
305.036
303.383
304.117
302.027
298.388
302.723
302.018
303.587
305.358
310.864
305.694
356.657
355.537
352.433
354.626
356.435
364.615
360.203
357.05
358.055
359.344
358.91
357.225
354.857
362.818
358.896
353.323
355.231
352.216
351.139
353.252
342.466
348.785
348.319
348.957
346.987
348.111
353.174
349.118
348.454
352.242
349.796
350.399
349.055
346.277
348.965
346.788
344.622
348.719
347.303
348.863
340.678
339.102
340.904
342.129
342.572
343.923
343.816
344.46
339.048
343.373
341.039
344.319
341.879
338.804
346.585
340.277
340.501
336.227
335.589
338.149
331.08
331.396
334.447
330.529
333.332
329.504
335.027
339.423
336.72
331.503
330.908
337.181
330.503
335.973
332.895
329.93
332.732
331.727
326.301
329.801
328.088
327.533
322.676
324.802
322.973
324.633
329.25
330.137
328.101
326.164
324.722
327.971
324.193
333.259
325.185
324.421
328.341
326.783
324.264
324.77
318.671
321.02
319.361
318.661
317.833
317.103
317.97
318.588
320.529
320.882
324.396
315.846
320.139
318.115
320.04
321.597
317.556
317.766
317.883
315.675
316.028
310.894
312.694
310.894
311.067
311.221
313.072
312.547
310.042
313.627
311.417
310.174
314.811
309.869
315.57
311.935
304.552
312.952
308.659
309.063
302.324
303.617
303.015
302.583
307.763
302.989
302.35
304.691
303.724
302.56
303.703
306.338
304.714
304.932
302.866
302.238
298.954
302.864
303.049
303.663
354.029
353.228
359.543
350.805
357.824
361.518
360.93
358.223
362.27
356.132
357.517
359.169
357.285
360.595
359.336
354.644
355.377
353.301
355.436
349.671
350.237
347
344.467
352.141
348.875
348.164
352.977
349.758
349.043
350.967
349.136
350.524
350.244
352.178
348.498
354.447
347.668
349.87
346.459
347.513
340.072
344.407
340.618
343.016
345.878
343.217
347.3
343.198
346.553
345.994
345.056
343.803
343.825
345.658
340.239
341.857
342.643
341.323
339.545
338.024
330.291
334.386
333.033
334.065
339.908
339.001
338.027
335.668
336.772
336.17
338.182
335.604
333.873
338.812
333.949
337.397
332.419
332.866
333.225
333.41
324.479
329.182
324.184
327.502
326.886
327.101
324.172
329.886
329.447
326.003
330.43
327.645
328.318
329.563
324.44
322.882
324.087
322.573
325.717
325.323
318.221
321.418
321.942
322.534
319.254
320.029
320.306
321.981
324.055
319.993
321.077
316.217
319.156
319.345
317.8
318.699
318.438
317.39
318.471
317.102
311.84
310.549
309.29
315.259
313.402
313.252
312.364
313.814
313.763
310.298
315.594
311.969
308.402
314.678
310.014
312.799
315.167
311.901
313.014
310.861
299.569
304.036
305.862
304.874
304.923
301.705
304.567
304.859
305.541
305.143
305.981
305.091
304.752
303.768
303.976
303.059
309.555
303.766
303.768
305.474
356.791
356.293
363.026
359.343
362.174
360.911
363.144
356.899
361.527
359.361
363.072
364.469
360.558
356.987
359.394
360.023
357.82
359.06
356.845
354.334
345.636
348.219
351.519
351.306
350.445
351.758
355.642
355.824
356.273
355.459
354.153
355.159
356.069
355.606
354.876
352.53
353.072
351.403
348.522
343.376
339.606
341.363
345.972
347.28
343.789
344.946
345.994
346.362
349.241
340.128
345.014
340.424
348.274
346.042
343.054
347.715
341.702
345.973
345.231
341.272
335.592
334.85
333.886
335.128
333.37
336.292
337.643
336.028
340.839
335.918
338.141
335.887
337.429
334.143
338.251
337.438
336.289
336.569
338.66
334.743
327.129
329.626
322.086
327.855
331.904
327.83
326.988
331.804
329.573
329.431
331.399
326.974
328.528
330.442
325.528
328.462
325.44
326.937
330.085
327.196
317.89
320.429
317.018
318.472
318.704
320.082
321.63
317.903
318.783
318.132
324.281
323.034
319.567
316.972
320.014
319.824
322.337
318.264
317.393
318.269
309.78
307.863
315.45
312.122
310.26
313.932
314.375
309.399
308.665
311.747
313.091
310.438
312.421
313.082
312.165
312.946
308.186
311.224
310.55
316.15
306.906
303.201
306.498
301.959
306.557
307.687
306.848
298.824
307.948
306.027
304.448
304.375
304.035
304.272
303.678
303.933
306.404
305.324
307.268
305.098
361.983
356.613
359.655
360.715
362.844
360.344
362.372
363.123
368.297
362.243
364.045
363.149
362.213
364.223
361.122
363.125
362.834
359.717
356.815
355.419
346.386
352.545
348.048
352.167
353.849
351.036
350.09
350.716
350.371
352.756
351.353
352.277
351.544
355.017
348.878
351.422
348.766
350.444
347.48
348.488
341.541
340.43
345.317
345.279
349.672
343.318
348.105
350.214
346.641
348.699
348.058
346.346
345.392
347.932
344.571
347.688
343.539
344.729
342.374
343.23
335.057
337.706
335.573
334.914
341.109
340.048
341.391
342.29
338.159
338.279
337.339
338.183
334.815
341.146
338.514
341.16
334.36
333.289
336.189
334.76
328.843
326.16
330.811
327.777
324.514
326.051
328.495
330.574
333.958
327.77
327.734
330.912
329.368
329.591
332.777
324.165
332.644
329.32
326.971
327.523
318.725
317.865
319.948
321.947
320.745
323.335
322.933
324.397
326.882
323.47
320.727
324.446
321.832
324.393
321.082
326.013
322.64
323.781
318.964
320.178
311.547
307.484
309.222
309.588
311.385
312.366
311.614
313.944
314.313
316.192
315.307
314.096
310.999
314.873
314.465
310.277
314.377
306.914
313.018
310.22
307.492
302.21
300.199
305.482
302.671
304.787
302.681
303.059
301.588
307.411
305.647
302.89
303.638
303.671
304.855
297.408
301.113
307.663
300.932
304.01
355.978
362.521
362.176
363.767
358.129
365.365
361.616
367.13
366.066
363.529
366.326
365.721
362.414
362.463
363.854
361.128
360.863
359.472
357.449
357.127
348.385
351.466
351.849
351.44
353.907
355.565
357.638
358.011
356.753
357.13
356.255
354.929
356.354
354.006
356.483
352.309
353.237
353.896
353.45
351.413
342.684
349.479
344.869
345.522
344.243
349.964
343.532
349.268
349.696
348.723
347.344
346.801
343.369
347.414
346.811
346.518
345.12
345.187
340.487
342.7
334.978
333.391
335.239
331.862
342.896
337.914
338.105
334.42
339.016
340.951
340.267
339.172
339.97
337.702
339.658
337.358
338.914
339.904
335.281
331.97
326.599
328.46
328.478
329.808
329.747
329.532
331.205
325.134
333.961
332.618
327.554
330.967
328.519
328.145
325.568
331.064
324.753
329.227
329.37
328.468
323.223
320.235
320.856
322.091
326.138
319.082
326.512
323.173
321.224
322.499
321.344
321.691
322.036
321.502
320.595
320.978
323.269
323.512
320.746
318.428
310.061
314.624
314.198
313.665
312.981
314.679
315.24
310.809
312.826
313.304
317.362
313.007
314.076
315.431
312.227
313.336
317.132
313.939
311.635
313.955
306.064
306.719
304.486
304.397
305.634
303.857
304.733
300.077
300.351
303.804
301.003
304.453
304.267
307.551
305.416
306.507
306.642
305.104
300.128
308.697
359.098
360.458
361.867
364.748
366.883
363.736
366.288
367.51
363.334
364.206
369.702
369.436
364.012
360.78
362.959
363.077
366.584
361.501
361.56
361.506
352.397
350.43
354.507
352.059
355.903
352.754
351.865
354.294
358.582
355.035
354.019
357.273
353.073
362.077
352.901
356.054
352.235
357.939
351.109
351.768
345.498
341.273
344.525
344.963
343.019
348.006
350.324
347.482
351.597
353.675
349.124
346.535
349.304
349.531
344.896
345.16
352.593
347.155
342.425
346.98
336.994
337.843
335.83
338.071
338.157
339.917
342.916
339.737
340.781
340.77
340.774
343.814
342.651
341.874
338.833
340.064
333.333
336.491
336.395
332.619
324.937
327.311
329.323
330.233
329.407
330.968
332.37
329.695
328.941
331.893
331.083
333.667
327.484
330.413
331.017
330.361
330.621
327.531
330.902
328.849
313.577
324.835
318.113
322.453
323.729
323.187
318.716
320.751
325.08
322.792
320.152
322.628
324.036
319.467
321.861
320.26
322.13
317.603
320.068
320.638
312.44
312.753
315.515
313.374
312.348
313.503
309.505
314.419
313.915
316.269
312.723
310.148
311.511
313.369
312.43
310.702
312.342
314.285
312.069
310.744
308.987
305.088
303.317
301.053
307.429
304.981
302.029
303.899
305.387
306.166
308.784
308.357
302.425
307.149
306.496
302.759
304.646
301.046
303.796
305.329
361.89
356.586
365.862
364.523
362.94
367.366
368.832
368.804
366.849
373.406
369.084
371.549
364.145
365.731
362.252
364.134
366.503
360.035
361.385
362.743
356.035
353.523
352.61
355.272
355.835
354.004
359.17
354.817
357.996
354.347
354.981
360.1
354.157
354.919
353.458
358.181
354.179
356.375
352.953
353.516
344.175
342.832
348.674
351.679
348.233
350.764
350.424
344.869
350.818
349.974
348.754
348.677
350.187
346.647
350.325
350.721
346.387
341.372
347.878
343.146
335.497
339.244
340.096
337.45
338.729
340.508
338.229
338.705
338.457
341.138
336.982
340.57
341.399
336.061
340.804
338.577
333.859
341.068
336.74
331.984
327.847
330.29
331.918
328.583
327.6
329.108
331.826
333.397
331.663
334.041
331.378
332.373
328.407
332.793
331.498
332.201
330.666
326.269
328.997
327.074
322.906
320.85
321.96
322.507
322.74
319.008
324.082
324.014
321.025
321.078
318.003
323.178
322.533
323.365
318.627
318.96
321.521
326.005
322.114
317.484
314.587
313.431
309.424
313.212
312.489
313.31
310.417
313.973
312.932
313.488
312.303
312.236
312.847
313.764
313.645
312.366
315.538
312.683
307.901
311.652
303.244
301.673
305.396
305.988
303.115
306.481
305.978
303.479
303.875
308.827
304.49
308.451
303.234
302.113
307.673
301.654
306.626
305.927
307.575
303.312
360.278
365.999
367.226
366.832
368.158
369.275
366.523
370.246
372.228
370.527
369.122
368.326
367.042
368.349
369.196
365.743
364.846
362.325
363.074
363.289
354.134
353.852
354.581
360.651
353.372
361.211
360.394
361.93
360.936
357.661
358.765
362.474
357.997
361.901
357.679
357.032
351.683
350.628
352.929
355.08
348.177
347.158
345.557
350.478
348.49
350.6
350.083
349.615
351.459
351.018
350.017
347.808
353.055
350.771
353.124
348.707
349.368
346.382
345.201
348.004
338.245
333.813
338.02
337.925
337.54
338.596
344.078
341.257
342.742
345.534
342.215
342.675
345.865
343.064
343.856
338.39
341.717
340.341
340.174
337.146
328.101
326.695
329.728
333.267
325.94
332.191
332.695
331.42
330.234
335.492
331.547
331.736
332.297
332.647
331.724
331.46
324.341
334.103
330.84
327.026
322.193
318.768
319.799
327.001
323.424
319.479
319.085
324.83
325.646
323.873
321.34
325.085
324.152
321.998
321.174
324.101
324.27
323.603
324.024
315.001
309.519
314.075
317.155
313.663
315.109
315.112
318.892
315.916
313.23
314.726
312.442
314.284
315.409
313.03
316.525
314.87
316.976
312.254
316.224
313.425
308.408
302.996
305.442
305.242
301.701
305.781
302.169
305.995
307.411
302.172
306.983
305.864
305.766
307.892
302.87
301.987
304.826
305.475
306.337
305.035
363.378
366.114
364.547
364.969
364.632
369.418
365.952
369.484
369.325
368.681
370.586
370.599
368.757
368.982
372.492
365.288
364.594
366.921
364.7
364.386
356.461
355.166
358.925
357.689
358.053
357.571
358.012
357.672
361.602
358.699
358.388
360.159
358.741
359.409
356.829
357.077
356.823
356.859
354.884
350.793
348.062
349.619
347.401
348.225
349.574
346.084
348.736
351.898
351.632
352.646
350.284
354.452
350.351
351.017
352.313
345.584
354.406
346.457
347.654
348.931
339.281
337.848
337.558
339.306
345.337
338.682
339.055
345.684
345.732
342.183
341.324
342.288
343.603
339.354
342.262
342.205
338.797
338.062
337.874
333.633
324.907
330.336
330.652
329.96
330.178
334.187
330.853
328.893
332.773
330.351
328.83
331.326
328.843
329.793
328.223
328.856
329.521
329.464
329.544
330.49
321.146
322.818
317.754
323.014
321.05
324.857
322.638
324.945
322.936
322.719
321.923
323.438
321.78
321.921
326.017
319.025
321.758
320.58
322.456
322.207
308.122
313.56
311.152
313.066
315.066
312.643
314.189
315.344
311.912
313.687
318.723
318.193
313.076
314.078
317.971
313.298
313.611
313.136
310.887
309.079
304.279
305.103
304.225
302.231
304.206
304.645
306.233
306.27
304.169
303.637
306.453
301.397
304.773
305.095
301.203
306.081
306.501
300.809
306.415
306.658
364.115
365.734
364.784
370.834
368.334
368.693
371.018
369.915
374.98
373.995
369.969
372.172
368.288
374.805
366.773
367.159
369.429
367.124
364.861
358.209
351.615
361.36
358.249
359.521
356.901
361.373
357.237
364.4
361.73
365.555
366.322
367.376
358.422
361.942
361.984
356.088
358.225
357.538
356.184
353.429
342.917
347.937
349.115
352.391
348.149
349.396
350.825
354.013
353.8
356.674
349.496
350.38
353.939
351.601
350.035
351.035
349.845
345.201
351.739
343.625
344.816
339.58
341.35
339.775
339.717
347.161
345.079
341.437
340.353
342.394
342.162
342.015
341.002
342.414
341.705
345.124
341.29
339.273
338.5
337.043
326.929
333.478
335.068
332.374
332.588
333.876
333.241
332.611
333.368
335.01
331.067
335.803
333.556
331.624
337.617
331.686
329.932
331.809
330.914
330.952
322.421
316.468
323.901
319.867
323.791
326.739
326.064
325.172
323.958
323.931
325.027
327.726
324.15
322.918
321.02
324.128
324.144
321.678
323.122
324.553
312.975
313.737
308.983
311.475
312.584
313.642
312.746
315.137
315.268
314.557
316.702
316.391
317.675
313.131
312.219
315.025
310.435
313.055
312.864
310.265
301.855
305.696
305.696
304.662
302.293
304.646
303.71
304.751
305.14
304.783
304.529
306.839
304.615
304.415
308.361
303.717
303.075
300.704
302.6
307.31
368.776
368.12
364.398
368.978
369.156
368.862
370.663
368.417
371.802
375.55
373.174
372.995
371.455
370.61
369.425
368.175
366.231
369.428
369.498
363.036
352.158
361.115
358.752
361.071
359.329
360.672
362.688
362.889
364.002
362.753
362.306
363.509
361.949
360.22
361.864
360.706
360.435
353.403
359.677
356.316
345.102
349.476
350.529
349.577
351.036
349.445
354.891
354.178
354.112
355.518
353.674
352.098
356.073
356.158
355.149
348.478
349.795
353.03
346.797
349.337
339.046
338.177
340.801
341.978
340.608
345.195
339.285
346.345
342.092
344.525
340.424
340.939
344.021
342.108
343.278
342.19
341.949
339.707
342.024
342.439
327.033
334.465
330.355
333.018
335.537
330.407
333.657
333.497
328.686
336.59
333.269
334.917
335.245
333.084
330.591
332.941
335.221
332.639
327.706
326.118
316.457
321.631
325.144
324.18
323.787
323.678
322.191
323.181
325.93
326.021
327.973
321.852
323.635
323.428
323.519
320.304
324.849
321.259
319.167
320.619
318.184
314.932
317.673
313.389
317.936
315.366
312.788
313.915
314.811
320.065
313.942
313.476
314.891
316.493
315.8
313.244
311.133
310.773
314.176
317.43
304.573
303.391
307.855
302.983
309.072
302.109
303.297
300.823
303.068
304.097
307.637
306.65
302.781
301.832
304.68
302.183
302.547
306.291
301.609
304.284
366.786
368.381
367.187
374.363
372.128
370.901
371.2
376.758
374.838
374.138
372.315
375.088
371.585
372.155
372.898
370.101
367.066
365.156
366.532
367.556
356.035
359.23
357.39
357.355
362.261
363.72
361.017
366.246
369.263
364.503
362.313
362.605
364.797
365.1
361.468
359.333
357.093
357.19
363.127
356.591
346.712
345.165
347.892
351.673
354.925
358.958
354.838
354.51
353.553
351.715
353.412
356.39
355.354
353.712
351.721
351.513
351.101
349.195
347.411
345.418
338.322
340.543
339.703
343.378
337.999
342.203
342.972
342.964
343.538
343.532
346.392
341.887
342.301
340.274
344.404
338.844
346.328
341.207
339.434
337.504
327.928
329.203
330.99
334.584
331.867
334.224
333.213
335.631
333.271
335.232
337.341
331.986
332.703
333.711
335.012
331.122
331.521
331.875
333.123
329.923
317.861
319.735
323.798
322.202
319.989
325.406
319.648
321.503
328.66
326.46
326.242
326.646
322.306
323.276
325.516
323.626
320.081
320.037
325.252
320.255
311.273
314.36
320.399
311.755
312.004
314.252
312.728
312.997
317.004
315.063
309.836
314.944
317.613
315.712
313.934
316.975
317.424
316.24
312.365
313.794
299.851
304.856
300.385
303.971
305.321
303.984
299.193
306.568
306.886
305.189
302.116
304.286
302.916
305.186
302.057
305.884
301.603
308.072
300.867
301.637
364.963
369.475
370.26
371.58
370.095
371.715
366.378
373.134
375.782
377.865
373.342
375.819
374.608
370.919
372.992
371.689
366.461
367.885
367.772
365.329
358.044
366.506
356.692
368.337
359.392
365.766
362.793
366.196
360.449
367.334
366.97
364.045
365.926
361.915
365.281
361.939
364.443
360.158
364.156
362.711
348.157
351.157
349.98
354.802
355.158
350.439
349.807
354.372
354.526
354.604
354.46
356.04
348.129
353.545
353.498
349.342
348.708
348.985
346.887
351.85
340.521
340.127
338.307
342.159
344.672
342.825
344.76
348.32
340.642
345.612
342.15
344.019
345.292
345.598
344.688
341.566
342.482
346.099
340.277
343.393
329.592
333.266
332.944
333.922
333.864
332.725
335.073
331.101
335.722
335.355
335.477
328.428
336.808
335.642
331.97
335.085
331.232
337.601
333.102
330.485
322.635
322.994
321.952
324.901
327.26
324.006
325.293
325.172
325.388
325
329.047
325.159
327.608
322.356
325.308
321.862
323.579
320.426
320.198
323.511
312.923
312.336
313.757
315.6
315.779
315.517
313.074
308.041
316.928
316.343
312.583
315.816
316.321
317.282
314.133
315.327
309.68
317.583
312.786
314.503
301.729
301.229
306.82
304.167
305.706
305.464
305.41
303.127
306.419
305.854
302.761
305.836
303.109
304.72
305.814
310.278
303.083
303.847
301.04
305.882
365.961
369.585
366.616
369.574
370.836
371.967
369.326
371.587
375.927
369.186
373.883
373.495
374.225
370.314
376.634
370.762
365.622
368.165
367.751
364.083
353.299
356.813
358.848
361.242
359.642
363.871
360.67
362.555
366.456
363.114
362.118
363.546
363.364
362.72
358.928
360.782
364.043
362.563
359.317
362.142
349.173
352.736
347.701
350.776
353.414
354.957
354.804
351.594
356.096
357.201
352.827
354.792
353.075
357.961
350.012
352.737
347.964
352.295
351.049
344.113
338.374
336.92
347.796
343.31
345.9
345.997
343.336
342.229
346.027
343.523
345.456
341.847
345.387
347.515
340.692
343.276
342.936
337.949
341.267
347.409
332.841
329.952
333.011
332.098
331.693
337.046
339.721
333.402
338.242
335.165
339.467
334.059
331.453
335.113
335.556
332.843
331.536
332.004
331.58
330.381
322.91
325.351
324.204
325.087
325.719
324.477
325.563
324.721
327.024
319.063
325.669
320.1
325.017
323.875
323.42
328.58
319.925
318.399
322.69
322.593
308.606
312.541
314.322
314.12
316.278
316.932
316.096
316.85
312.978
314.711
316.323
310.812
315.032
314.882
319.298
312.919
312.053
315.415
317.93
314.588
299.796
303.696
300.642
304.167
304.352
306.033
305.121
303.207
306.08
303.519
306.397
303.401
303.243
304.556
302.589
303.403
306.5
306.559
301.821
307.769
366.855
368.057
372.929
371.984
371.119
369.1
374.379
373.692
378.166
376.505
374.732
375.886
371.211
375.523
372.9
371.967
375.437
369.622
370.451
364.818
356.616
370.552
358.263
368.8
361.903
370.49
365.493
369.268
368.052
369.783
370.906
363.611
370.434
363.873
370.252
362.611
368.48
356.707
369.69
353.189
348.126
348.782
351.462
354.257
354.881
351.375
350.364
356.707
355.492
356.546
354.588
356.055
354.678
353.594
352.182
353.487
351.675
349.838
350.999
351.363
342.925
340.021
339.543
343.902
343.701
342.955
344.341
346.696
345.252
344.769
348.756
343.634
347.52
339.373
342.956
342.893
343.426
345.679
341.706
336.872
328.46
326.558
329.546
330.609
329.203
335.172
337.01
336.21
334.375
336.378
330.309
332.762
337.466
337.197
336.424
335.229
334.079
329.538
331.116
331.439
317.866
326.115
324.44
331.021
325.396
328.374
326.547
326.918
324.36
325.24
327.744
328.955
327.348
329.477
321.382
327.806
323.117
326.438
324.551
329.139
315.698
316.894
314.514
319.107
313.92
316.417
316.797
313.478
313.055
313.569
313.396
316.446
315.618
311.363
314.114
316.359
313.232
313.685
315.952
312.416
303.999
309.716
308.205
304.935
303.498
304.652
302.416
304.519
300.796
307.201
305.867
307.055
307.371
304.674
301.313
302.689
305.345
305.146
301.422
304.951
368.055
368.663
371.663
369.977
371.629
371.872
373.864
377.858
374.973
372.334
376.449
374.12
374.876
370.174
374.96
372.972
375.549
367.377
370.083
366.965
355.136
361.351
361.12
359.247
363.011
364.193
360.879
363.572
367.192
365.004
362.729
362.652
365.751
365.832
362.839
362.094
362.983
361.966
357.365
360.83
352.007
346.7
353.715
355.398
353.785
357.93
351.691
355.953
352.225
358.585
360.778
354.175
354.279
355.169
350.134
353.795
349.623
352.575
347.522
348.59
336.973
342.659
340.251
342.207
342.924
343.151
342.854
342.02
341.23
345.841
343.034
345.921
342.919
344.493
341.592
344.596
341.446
341.98
336.476
340.814
327.05
334.402
333.373
334.855
333.104
337.277
335.577
336.892
335.976
335.419
331.855
333.692
336.907
338.368
335.794
335.503
329.129
333.4
332.509
326.349
317.917
326.441
324.323
321.608
325.861
321.709
326.158
320.873
326.417
324.635
322.783
324.186
321.683
323.985
324.733
326.157
320.529
318.614
320.586
318.889
314.112
312.665
315.15
317.161
316.447
316.186
311.998
316.399
317.045
314.406
315.283
316.362
316.889
316.32
314.245
313.207
310.222
312.849
315.087
316.267
302.776
302.782
306.454
304.569
306.082
303.656
304.048
304.333
304.746
304.965
305.487
310.103
306.505
305.126
307.7
306.966
299.656
303.765
298.999
303.282
)
;

boundaryField
{
    hotSide
    {
        type            fixedGradient;
        gradient        nonuniform List<scalar> 
400
(
321.511
322.87
325.591
329.677
335.133
341.965
350.181
359.788
370.794
383.208
397.037
412.289
428.971
447.088
466.647
487.651
510.105
534.011
559.372
586.191
323.738
325.08
327.767
331.802
337.194
343.949
352.078
361.591
372.498
384.81
398.537
413.687
430.268
448.289
467.755
488.672
511.043
534.872
560.161
586.913
326.149
327.47
330.116
334.091
339.406
346.071
354.099
363.503
374.296
386.491
400.101
415.136
431.606
449.52
468.885
489.706
511.988
535.735
560.948
587.63
328.704
330
332.597
336.503
341.73
348.292
356.205
365.485
376.15
388.215
401.695
416.604
432.954
450.753
470.009
490.73
512.919
536.579
561.714
588.325
331.33
332.599
335.142
338.97
344.099
350.546
358.332
367.477
378.003
389.928
403.271
418.047
434.27
451.949
471.095
491.712
513.807
537.382
562.439
588.978
333.918
335.158
337.643
341.389
346.414
352.74
360.392
369.397
379.779
391.562
404.765
419.407
435.503
453.065
472.101
492.618
514.622
538.114
563.096
589.569
336.321
337.531
339.959
343.622
348.544
354.751
362.274
371.142
381.385
393.031
406.101
420.618
436.595
454.047
472.983
493.409
515.33
538.747
563.663
590.076
338.36
339.543
341.92
345.509
350.339
356.44
363.847
372.595
382.718
394.244
407.2
421.608
437.485
454.844
473.695
494.045
515.897
539.253
564.114
590.478
339.852
341.015
343.352
346.885
351.645
357.665
364.985
373.643
383.675
395.113
407.984
422.312
438.116
455.407
474.197
494.491
516.294
539.606
564.428
590.758
340.643
341.795
344.11
347.613
352.334
358.311
365.584
374.193
384.176
395.567
408.393
422.679
438.443
455.699
474.456
494.722
516.498
539.788
564.589
590.901
340.643
341.795
344.11
347.613
352.334
358.311
365.584
374.193
384.176
395.567
408.393
422.679
438.443
455.699
474.456
494.722
516.498
539.788
564.589
590.901
339.852
341.015
343.352
346.885
351.645
357.665
364.985
373.643
383.675
395.113
407.984
422.312
438.116
455.407
474.197
494.491
516.294
539.606
564.428
590.758
338.36
339.543
341.92
345.509
350.339
356.44
363.847
372.595
382.718
394.244
407.2
421.608
437.485
454.844
473.695
494.045
515.897
539.253
564.114
590.478
336.321
337.531
339.959
343.622
348.544
354.751
362.274
371.142
381.385
393.031
406.101
420.618
436.595
454.047
472.983
493.409
515.33
538.747
563.663
590.076
333.918
335.158
337.643
341.389
346.414
352.74
360.392
369.397
379.779
391.562
404.765
419.407
435.503
453.065
472.101
492.618
514.622
538.114
563.096
589.569
331.33
332.599
335.142
338.97
344.099
350.546
358.332
367.477
378.003
389.928
403.271
418.047
434.27
451.949
471.095
491.712
513.807
537.382
562.439
588.978
328.704
330
332.597
336.503
341.73
348.292
356.205
365.485
376.15
388.215
401.695
416.604
432.954
450.753
470.009
490.73
512.919
536.579
561.714
588.325
326.149
327.47
330.116
334.091
339.406
346.071
354.099
363.503
374.296
386.491
400.101
415.136
431.606
449.52
468.885
489.706
511.988
535.735
560.948
587.63
323.738
325.08
327.767
331.802
337.194
343.949
352.078
361.591
372.498
384.81
398.537
413.687
430.268
448.289
467.755
488.672
511.043
534.872
560.161
586.913
321.511
322.87
325.591
329.677
335.133
341.965
350.181
359.788
370.794
383.208
397.037
412.289
428.971
447.088
466.647
487.651
510.105
534.011
559.372
586.191
)
;
    }
    coldSide
    {
        type            mixed;
        refValue        uniform 300;
        refGradient     uniform 0;
        valueFraction   uniform 0.991591;
        source          uniform 0;
        value           nonuniform List<scalar> 
400
(
300.043
300.038
300.058
300.045
300.02
299.996
300.058
300.063
300.051
300.076
300.027
300.071
300.036
300.016
300.038
299.999
300.015
299.998
300.034
300.023
300.012
300.023
300.024
300.054
300.03
300.034
300.027
300.019
300.056
300.043
300.014
300.025
300.043
300.048
300.029