/*--------------------------------*- C++ -*----------------------------------*\
| =========                 |                                                 |
| \\      /  F ield         | OpenFOAM: The Open Source CFD Toolbox           |
|  \\    /   O peration     | Version:  2212                                  |
|   \\  /    A nd           | Website:  www.openfoam.com                      |
|    \\/     M anipulation  |                                                 |
\*---------------------------------------------------------------------------*/
FoamFile
{
    version     2.0;
    format      ascii;
    arch        "LSB;label=32;scalar=64";
    class       volScalarField;
    location    "0";
    object      stateMean;
}
// * * * * * * * * * * * * * * * * * * * * * * * * * * * * * * * * * * * * * //

dimensions      [0 0 0 1 0 0 0];

internalField   nonuniform List<scalar> 
3200
(
341.395
342.272
343.154
343.896
344.669
345.233
345.713
346.008
346.171
346.196
346.161
345.876
345.487
344.994
344.393
343.598
342.826
341.85
340.826
339.906
335.939
336.662
337.407
338.187
338.746
339.243
339.601
339.875
340.026
340.111
339.988
339.823
339.488
339.041
338.48
337.845
337.119
336.228
335.463
334.6
330.444
331.004
331.683
332.312
332.773
333.266
333.553
333.778
333.943
334.023
333.843
333.68
333.407
333.015
332.586
332.066
331.394
330.718
330.009
329.28
324.941
325.449
325.932
326.469
326.871
327.223
327.422
327.66
327.753
327.835
327.719
327.606
327.303
327.105
326.669
326.239
325.744
325.178
324.555
324.126
319.396
319.779
320.154
320.615
320.87
321.107
321.388
321.493
321.626
321.585
321.602
321.498
321.302
321.006
320.77
320.434
320.078
319.527
319.113
318.734
313.851
314.084
314.443
314.63
314.963
315.084
315.333
315.382
315.45
315.414
315.388
315.329
315.197
315.063
314.868
314.613
314.288
313.942
313.652
313.381
308.29
308.502
308.679
308.815
309.019
309.167
309.213
309.174
309.301
309.339
309.313
309.271
309.162
309.054
308.983
308.722
308.62
308.447
308.191
308.082
302.85
302.872
302.92
303.015
302.997
302.982
303.06
303.153
303.123
303.177
303.112
303.095
303.12
303.015
302.957
302.875
302.914
302.881
302.741
302.645
342.43
343.338
344.241
345.103
345.835
346.433
346.917
347.18
347.403
347.391
347.33
347.085
346.645
346.237
345.627
344.862
343.897
342.939
341.947
340.979
336.831
337.508
338.326
339.119
339.742
340.243
340.651
340.93
341.035
341.103
341.034
340.84
340.513
340.037
339.476
338.836
338.114
337.221
336.287
335.546
331.237
331.754
332.408
333.043
333.589
334.042
334.346
334.547
334.766
334.83
334.666
334.532
334.217
333.868
333.363
332.882
332.158
331.462
330.715
330.123
325.591
325.959
326.497
326.975
327.46
327.83
328.121
328.302
328.331
328.438
328.333
328.269
328.03
327.7
327.309
326.84
326.36
325.764
325.133
324.589
319.855
320.109
320.565
320.994
321.342
321.597
321.799
322.018
322.111
322.041
322.04
322
321.831
321.549
321.313
320.956
320.465
319.983
319.586
319.168
314.165
314.457
314.739
315.033
315.28
315.475
315.662
315.692
315.792
315.817
315.779
315.686
315.525
315.355
315.238
314.919
314.672
314.373
313.955
313.673
308.54
308.679
308.837
308.978
309.2
309.28
309.276
309.395
309.459
309.487
309.467
309.351
309.364
309.206
309.085
308.953
308.751
308.567
308.426
308.237
302.811
302.924
302.959
302.999
303.095
303.156
303.16
303.179
303.144
303.234
303.153
303.177
303.058
303.162
303.069
302.996
302.909
302.827
302.773
302.841
343.911
344.722
345.756
346.581
347.304
347.958
348.488
348.873
348.996
349.089
348.999
348.748
348.358
347.849
347.119
346.354
345.546
344.489
343.388
342.44
337.962
338.738
339.562
340.342
340.965
341.618
341.967
342.236
342.474
342.501
342.438
342.194
341.857
341.393
340.84
340.218
339.373
338.461
337.551
336.695
332.181
332.758
333.436
334.056
334.665
335.072
335.431
335.639
335.877
335.895
335.813
335.691
335.41
334.938
334.594
333.981
333.36
332.515
331.752
331.127
326.317
326.753
327.31
327.836
328.353
328.704
329.016
329.17
329.313
329.32
329.289
329.12
328.934
328.689
328.16
327.738
327.226
326.649
326.041
325.409
320.433
320.809
321.203
321.693
322.026
322.325
322.499
322.631
322.736
322.789
322.731
322.615
322.482
322.246
321.928
321.616
321.152
320.612
320.199
319.719
314.616
314.831
315.189
315.456
315.706
315.99
316.087
316.241
316.335
316.291
316.179
316.172
316.005
315.878
315.634
315.448
315.11
314.755
314.459
314.136
308.83
308.907
309.169
309.342
309.461
309.553
309.663
309.773
309.847
309.802
309.766
309.754
309.617
309.5
309.363
309.266
309.085
308.848
308.62
308.541
302.962
302.935
303.028
303.146
303.118
303.244
303.259
303.286
303.246
303.245
303.297
303.199
303.186
303.156
303.146
303.062
303.134
302.903
302.899
302.904
345.336
346.241
347.345
348.245
348.931
349.679
350.195
350.539
350.776
350.786
350.751
350.497
350.051
349.594
348.879
348.075
347.17
346.076
344.978
343.943
339.337
340.016
340.905
341.729
342.398
342.884
343.428
343.743
343.952
344.003
343.937
343.717
343.335
342.924
342.267
341.654
340.86
339.902
338.966
338.138
333.243
333.837
334.643
335.244
335.866
336.358
336.719
336.998
337.117
337.168
337.06
336.954
336.689
336.226
335.672
335.214
334.459
333.636
333.009
332.228
327.213
327.702
328.287
328.869
329.255
329.726
329.964
330.189
330.371
330.372
330.283
330.242
329.92
329.676
329.212
328.725
328.166
327.532
326.934
326.39
321.083
321.555
321.95
322.396
322.716
323.108
323.358
323.415
323.65
323.587
323.605
323.501
323.233
323.008
322.8
322.344
321.915
321.385
320.883
320.511
315.029
315.347
315.648
316.009
316.325
316.472
316.691
316.775
316.849
316.865
316.818
316.727
316.647
316.447
316.168
315.962
315.638
315.245
314.909
314.64
309.031
309.192
309.443
309.574
309.789
309.882
309.993
310.078
310.137
310.105
310.162
310.08
309.996
309.95
309.793
309.6
309.474
309.243
309.029
308.774
302.98
303.014
303.091
303.145
303.24
303.268
303.362
303.368
303.43
303.305
303.383
303.367
303.322
303.301
303.184
303.257
303.111
303.023
303.012
302.849
346.884
347.879
348.85
349.84
350.623
351.405
351.934
352.339
352.521
352.53
352.569
352.238
351.905
351.401
350.707
349.844
348.849
347.802
346.644
345.593
340.592
341.431
342.31
343.152
343.785
344.506
344.948
345.217
345.413
345.46
345.503
345.276
344.915
344.453
343.826
343.163
342.305
341.353
340.358
339.503
334.304
334.942
335.788
336.429
337.078
337.537
337.965
338.205
338.327
338.485
338.372
338.275
337.993
337.573
337.056
336.452
335.736
334.96
334.06
333.377
328.024
328.571
329.222
329.825
330.262
330.745
331.053
331.258
331.377
331.433
331.418
331.21
331.006
330.693
330.355
329.78
329.258
328.496
327.825
327.336
321.856
322.257
322.672
323.093
323.506
323.899
324.071
324.235
324.357
324.433
324.414
324.325
324.087
323.863
323.502
323.207
322.719
322.224
321.703
321.206
315.577
315.88
316.202
316.503
316.796
317.104
317.223
317.37
317.402
317.518
317.43
317.322
317.164
317.018
316.79
316.472
316.189
315.843
315.473
315.099
309.401
309.536
309.731
309.908
310.084
310.227
310.337
310.368
310.454
310.477
310.406
310.374
310.29
310.149
310.042
309.893
309.716
309.534
309.297
309.107
303.154
303.221
303.27
303.253
303.442
303.449
303.422
303.458
303.545
303.46
303.512
303.461
303.451
303.402
303.401
303.361
303.269
303.179
303.117
303.038
348.328
349.37
350.51
351.417
352.311
353.095
353.568
354.013
354.235
354.334
354.296
354.003
353.602
353.156
352.341
351.517
350.544
349.404
348.221
347.139
341.859
342.708
343.625
344.498
345.304
345.823
346.304
346.828
346.959
347.042
346.966
346.824
346.378
346
345.34
344.54
343.783
342.768
341.753
340.857
335.415
336.107
336.891
337.609
338.232
338.786
339.16
339.519
339.685
339.793
339.607
339.496
339.197
338.799
338.269
337.699
336.893
336.104
335.294
334.541
328.877
329.562
330.169
330.726
331.262
331.735
332.035
332.276
332.394
332.469
332.444
332.27
332.072
331.741
331.224
330.752
330.23
329.512
328.774
328.245
322.475
322.95
323.462
323.838
324.263
324.627
324.918
325.095
325.161
325.278
325.135
325.142
324.895
324.689
324.386
323.921
323.517
322.925
322.448
321.945
316.099
316.376
316.722
317.04
317.292
317.587
317.768
317.914
317.972
318.047
318.037
317.92
317.752
317.59
317.371
317.07
316.735
316.376
315.958
315.726
309.67
309.825
310.113
310.27
310.489
310.578
310.672
310.733
310.801
310.874
310.807
310.833
310.688
310.597
310.451
310.269
310.053
309.865
309.549
309.385
303.273
303.315
303.412
303.415
303.505
303.536
303.623
303.584
303.658
303.599
303.593
303.639
303.544
303.585
303.504
303.434
303.35
303.307
303.252
303.151
349.828
350.863
351.952
353.003
353.854
354.726
355.184
355.698
355.949
355.942
355.926
355.69
355.349
354.766
354.071
353.138
352.17
351.019
349.837
348.628
343.114
344.047
344.923
345.847
346.702
347.346
347.815
348.187
348.391
348.479
348.37
348.183
347.902
347.449
346.744
345.956
345.141
344.128
343.042
342.139
336.356
337.15
337.961
338.742
339.38
339.946
340.346
340.673
340.91
340.925
340.982
340.721
340.502
340.064
339.526
338.875
338.099
337.317
336.4
335.696
329.833
330.332
331.002
331.627
332.159
332.578
333.039
333.228
333.488
333.525
333.379
333.248
333.116
332.725
332.32
331.736
331.154
330.409
329.807
329.205
323.126
323.643
324.123
324.622
325.04
325.425
325.695
325.874
325.974
326
326.021
325.847
325.708
325.364
325.072
324.7
324.214
323.804
323.141
322.718
316.573
316.885
317.245
317.572
317.807
318.063
318.313
318.529
318.568
318.602
318.531
318.47
318.357
318.183
317.967
317.637
317.307
316.858
316.547
316.191
309.932
310.071
310.414
310.552
310.761
310.874
311.021
311.137
311.206
311.198
311.064
311.085
310.985
310.853
310.789
310.583
310.37
310.158
309.932
309.78
303.274
303.441
303.466
303.498
303.563
303.655
303.636
303.785
303.784
303.761
303.736
303.764
303.718
303.662
303.652
303.571
303.492
303.409
303.384
303.233
351.152
352.258
353.424
354.512
355.403
356.205
356.84
357.368
357.591
357.775
357.636
357.434
357.005
356.412
355.633
354.734
353.725
352.541
351.351
350.139
344.262
345.224
346.187
347.158
348.076
348.576
349.236
349.576
349.882
349.897
349.808
349.638
349.335
348.839
348.079
347.382
346.459
345.545
344.38
343.38
337.427
338.213
338.961
339.846
340.536
341.07
341.567
341.88
342.025
342.189
342.167
341.944
341.656
341.251
340.691
339.995
339.291
338.429
337.491
336.712
330.728
331.25
331.867
332.554
333.16
333.639
333.951
334.217
334.43
334.51
334.491
334.264
334.021
333.643
333.218
332.687
332.128
331.425
330.673
329.98
323.762
324.274
324.758
325.317
325.763
326.182
326.335
326.632
326.748
326.777
326.798
326.612
326.423
326.246
325.816
325.408
324.921
324.435
323.852
323.272
317.027
317.278
317.752
318.029
318.322
318.604
318.87
318.964
319.102
319.011
319.113
319.022
318.891
318.733
318.432
318.077
317.806
317.429
317.031
316.691
310.255
310.367
310.603
310.817
311.053
311.195
311.292
311.329
311.485
311.488
311.474
311.384
311.365
311.23
311.11
310.838
310.64
310.425
310.178
310.045
303.432
303.514
303.616
303.627
303.728
303.747
303.795
303.788
303.775
303.821
303.894
303.837
303.808
303.737
303.702
303.659
303.587
303.503
303.453
303.325
352.472
353.633
354.811
355.897
356.887
357.69
358.35
358.844
359.101
359.258
359.17
358.979
358.582
357.931
357.164
356.257
355.198
354.09
352.695
351.55
345.46
346.356
347.399
348.379
349.242
349.901
350.46
350.908
351.14
351.3
351.25
351.008
350.702
350.188
349.488
348.658
347.82
346.694
345.564
344.598
338.374
339.182
339.984
340.873
341.683
342.126
342.674
342.946
343.19
343.33
343.328
343.094
342.802
342.335
341.766
341.105
340.343
339.504
338.596
337.742
331.392
332.033
332.69
333.419
333.95
334.535
334.824
335.09
335.329
335.388
335.349
335.265
335.007
334.64
334.232
333.665
332.955
332.268
331.543
330.814
324.349
324.856
325.411
325.93
326.362
326.772
327.072
327.334
327.402
327.501
327.541
327.379
327.225
326.899
326.573
326.164
325.631
325.051
324.495
324.006
317.407
317.771
318.19
318.51
318.857
319.225
319.349
319.584
319.557
319.711
319.579
319.57
319.378
319.215
318.988
318.716
318.235
317.872
317.508
317.163
310.53
310.668
310.879
311.174
311.417
311.509
311.604
311.759
311.789
311.787
311.777
311.781
311.638
311.573
311.33
311.228
311.039
310.747
310.551
310.273
303.522
303.569
303.644
303.731
303.768
303.87
303.86
303.893
303.935
303.957
303.966
303.938
303.896
303.881
303.803
303.743
303.714
303.567
303.508
303.453
353.725
354.852
356.058
357.266
358.228
359.152
359.806
360.287
360.64
360.756
360.74
360.478
360.03
359.514
358.733
357.656
356.614
355.46
354.085
352.939
346.512
347.467
348.57
349.524
350.412
351.124
351.736
352.134
352.374
352.56
352.499
352.324
351.928
351.436
350.79
349.918
348.962
347.958
346.832
345.823
339.312
340.132
341.002
341.862
342.612
343.226
343.687
344.066
344.247
344.353
344.324
344.244
343.833
343.43
342.873
342.182
341.442
340.522
339.586
338.688
332.118
332.831
333.558
334.214
334.842
335.347
335.7
336.005
336.148
336.314
336.261
336.119
335.853
335.533
335.075
334.53
333.78
333.078
332.32
331.634
324.998
325.508
326.042
326.618
327.074
327.473
327.751
328.074
328.128
328.29
328.133
328.09
327.952
327.575
327.224
326.808
326.29
325.688
325.135
324.617
317.822
318.133
318.537
318.969
319.309
319.606
319.805
320.028
320.052
320.127
320.135
320.011
319.819
319.687
319.491
319.176
318.745
318.381
317.912
317.561
310.766
310.911
311.186
311.419
311.608
311.828
311.912
312.026
312.11
312.066
312.085
312.042
311.955
311.808
311.705
311.46
311.232
311.055
310.81
310.57
303.599
303.637
303.719
303.801
303.896
303.842
303.992
303.961
304.011
304.046
304.032
304.062
303.958
304.028
303.884
303.808
303.722
303.775
303.617
303.557
354.904
356.065
357.339
358.516
359.518
360.475
361.128
361.659
361.969
362.103
362.035
361.855
361.458
360.827
360.06
359.05
357.947
356.704
355.328
354.133
347.527
348.48
349.675
350.642
351.568
352.259
352.853
353.329
353.661
353.715
353.715
353.539
353.191
352.683
351.981
351.125
350.135
349.158
347.897
346.914
340.169
340.902
341.86
342.862
343.547
344.164
344.715
345.079
345.288
345.442
345.361
345.207
344.895
344.464
343.911
343.184
342.389
341.457
340.525
339.654
332.865
333.517
334.295
334.938
335.578
336.132
336.562
336.922
337.087
337.058
337.095
336.966
336.679
336.343
335.915
335.271
334.611
333.855
333.11
332.402
325.562
326.07
326.606
327.101
327.682
328.061
328.381
328.648
328.772
328.857
328.868
328.657
328.547
328.288
327.888
327.462
326.945
326.346
325.692
325.231
318.232
318.594
318.996
319.398
319.675
320.049
320.203
320.457
320.571
320.561
320.581
320.464
320.313
320.194
319.874
319.606
319.213
318.824
318.36
318.015
310.996
311.147
311.503
311.632
311.843
312.063
312.18
312.273
312.315
312.396
312.375
312.255
312.208
312.091
311.984
311.758
311.535
311.292
311.054
310.879
303.667
303.75
303.769
303.854
304.007
304.031
304.06
304.126
304.136
304.179
304.166
304.215
304.052
304.055
304.068
303.933
303.86
303.791
303.712
303.728
355.923
357.165
358.529
359.723
360.822
361.716
362.394
362.95
363.277
363.409
363.356
363.182
362.736
362.06
361.286
360.31
359.229
357.894
356.523
355.261
348.402
349.486
350.599
351.7
352.615
353.337
353.976
354.481
354.741
354.849
354.784
354.624
354.26
353.718
353.032
352.267
351.216
350.149
348.918
347.9
341.031
341.785
342.72
343.586
344.44
345.096
345.596
346.089
346.301
346.423
346.317
346.201
345.88
345.407
344.795
344.108
343.344
342.321
341.33
340.548
333.459
334.128
334.964
335.682
336.338
336.854
337.271
337.619
337.863
337.94
337.822
337.715
337.477
337.047
336.597
336.065
335.339
334.635
333.783
333.168
326.015
326.585
327.118
327.728
328.246
328.672
328.967
329.264
329.408
329.467
329.404
329.392
329.178
328.849
328.483
327.981
327.442
326.933
326.248
325.76
318.637
319.038
319.427
319.745
320.149
320.44
320.622
320.849
321.008
321.061
320.985
320.891
320.778
320.588
320.308
319.972
319.66
319.179
318.782
318.417
311.124
311.372
311.71
311.867
312.12
312.294
312.386
312.569
312.542
312.655
312.55
312.528
312.519
312.401
312.277
312
311.787
311.587
311.226
311.111
303.766
303.82
303.8
303.987
304.034
304.12
304.149
304.239
304.212
304.233
304.258
304.186
304.192
304.087
304.065
304
304.017
303.84
303.788
303.772
356.998
358.163
359.528
360.832
361.894
362.87
363.546
364.137
364.472
364.644
364.564
364.393
363.912
363.346
362.529
361.552
360.319
359.052
357.724
356.353
349.312
350.341
351.485
352.596
353.53
354.279
354.945
355.513
355.797
355.868
355.855
355.716
355.327
354.738
354.094
353.263
352.296
351.096
349.94
348.822
341.704
342.597
343.551
344.41
345.23
345.914
346.438
346.885
347.15
347.237
347.167
347.026
346.719
346.205
345.696
344.935
344.139
343.188
342.142
341.32
334.109
334.784
335.534
336.307
336.948
337.522
337.947
338.289
338.544
338.605
338.495
338.469
338.168
337.744
337.272
336.719
336.007
335.275
334.456
333.783
326.545
327.004
327.673
328.217
328.751
329.164
329.469
329.793
330.013
330.039
329.948
329.865
329.703
329.334
329.067
328.541
328.019
327.409
326.821
326.232
318.958
319.245
319.723
320.081
320.563
320.84
320.973
321.21
321.396
321.402
321.399
321.342
321.204
321.002
320.703
320.37
320.065
319.581
319.156
318.768
311.382
311.559
311.79
312.157
312.32
312.489
312.65
312.722
312.853
312.889
312.819
312.754
312.716
312.586
312.483
312.181
312.016
311.787
311.447
311.284
303.855
303.842
303.937
304.023
304.117
304.17
304.217
304.301
304.287
304.377
304.287
304.319
304.223
304.222
304.148
304.11
303.976
303.939
303.816
303.751
357.841
359.088
360.445
361.789
362.933
363.891
364.638
365.122
365.558
365.713
365.627
365.472
364.995
364.364
363.565
362.609
361.385
360.1
358.69
357.335
350.132
351.105
352.349
353.412
354.337
355.244
355.906
356.383
356.665
356.858
356.854
356.574
356.202
355.735
355.025
354.153
353.122
352.012
350.785
349.752
342.353
343.176
344.172
345.136
345.919
346.593
347.174
347.577
347.939
347.978
347.954
347.83
347.453
347.092
346.495
345.706
344.964
343.909
342.943
342.069
334.602
335.318
336.122
336.862
337.529
338.127
338.59
338.881
339.109
339.283
339.203
339.085
338.84
338.481
337.948
337.396
336.689
335.88
335.052
334.28
326.829
327.481
328.136
328.681
329.221
329.606
330.013
330.241
330.453
330.479
330.5
330.329
330.138
329.888
329.56
328.983
328.484
327.884
327.285
326.729
319.176
319.586
320.01
320.451
320.825
321.194
321.456
321.605
321.73
321.741
321.734
321.64
321.452
321.341
321.074
320.808
320.331
319.965
319.548
318.983
311.561
311.789
312.085
312.297
312.478
312.658
312.813
312.919
313.078
312.995
313.054
313.002
312.839
312.804
312.711
312.378
312.177
311.947
311.69
311.46
303.819
303.968
304.03
304.098
304.205
304.266
304.341
304.296
304.302
304.32
304.442
304.385
304.335
304.304
304.244
304.179
304.114
303.983
303.962
303.779
358.616
359.944
361.29
362.618
363.753
364.716
365.542
366.081
366.472
366.635
366.635
366.377
365.983
365.335
364.562
363.568
362.318
360.977
359.617
358.286
350.771
351.897
353.092
354.205
355.153
356.01
356.699
357.18
357.526
357.663
357.677
357.458
357.152
356.504
355.901
354.961
353.937
352.708
351.48
350.436
342.898
343.835
344.821
345.747
346.641
347.311
347.876
348.313
348.633
348.718
348.76
348.504
348.208
347.757
347.176
346.471
345.655
344.562
343.55
342.674
335.062
335.729
336.666
337.419
338.113
338.673
339.079
339.475
339.681
339.78
339.747
339.598
339.404
339.012
338.573
337.951
337.267
336.472
335.574
334.958
327.262
327.852
328.468
329.033
329.513
330.028
330.39
330.687
330.854
330.909
330.859
330.756
330.668
330.34
329.954
329.561
328.935
328.296
327.731
327.068
319.443
319.958
320.29
320.745
321.128
321.374
321.673
321.89
322.015
322.095
322.069
322.034
321.835
321.63
321.333
321.112
320.662
320.153
319.729
319.334
311.703
311.877
312.186
312.414
312.692
312.852
312.985
313.075
313.204
313.231
313.245
313.236
313.193
312.973
312.877
312.7
312.419
312.173
311.843
311.649
303.859
304.001
304.094
304.189
304.237
304.221
304.396
304.324
304.397
304.45
304.476
304.43
304.421
304.345
304.285
304.243
304.138
304.075
304.024
303.813
359.289
360.577
362.093
363.354
364.513
365.5
366.317
366.952
367.281
367.519
367.55
367.211
366.811
366.257
365.458
364.386
363.211
361.86
360.362
359.054
351.331
352.391
353.685
354.862
355.864
356.643
357.342
357.883
358.272
358.321
358.388
358.159
357.821
357.371
356.562
355.693
354.688
353.542
352.208
351.074
343.423
344.312
345.326
346.325
347.204
347.931
348.408
349.021
349.162
349.358
349.413
349.224
348.793
348.413
347.825
347.065
346.18
345.147
344.128
343.221
335.509
336.234
337.08
337.914
338.52
339.191
339.671
339.96
340.153
340.365
340.318
340.194
339.942
339.55
339.009
338.419
337.73
336.954
336.071
335.312
327.601
328.116
328.806
329.469
329.928
330.433
330.818
330.954
331.289
331.292
331.346
331.237
331.031
330.76
330.378
329.839
329.33
328.753
328.005
327.464
319.64
320.096
320.596
320.973
321.372
321.691
321.945
322.165
322.224
322.36
322.371
322.254
322.169
321.901
321.727
321.36
320.963
320.499
319.985
319.63
311.728
312.062
312.411
312.653
312.885
313.033
313.179
313.287
313.401
313.502
313.407
313.331
313.293
313.111
313.048
312.759
312.575
312.313
312.029
311.784
303.994
304.066
304.149
304.169
304.295
304.366
304.37
304.458
304.525
304.453
304.52
304.49
304.412
304.398
304.359
304.229
304.148
304.182
304.084
303.937
359.785
361.182
362.713
364.077
365.173
366.184
366.967
367.595
367.992
368.268
368.216
368.031
367.521
366.902
366.105
365.094
363.932
362.495
360.996
359.799
351.79
352.961
354.189
355.303
356.373
357.236
357.968
358.478
358.813
358.983
359.045
358.73
358.506
357.843
357.174
356.303
355.319
354.134
352.799
351.725
343.853
344.768
345.771
346.762
347.646
348.417
348.982
349.43
349.742
349.828
349.855
349.68
349.402
348.937
348.29
347.576
346.708
345.704
344.634
343.71
335.761
336.627
337.423
338.139
338.916
339.487
339.95
340.415
340.637
340.728
340.763
340.664
340.352
339.996
339.432
338.861
338.144
337.311
336.489
335.748
327.778
328.44
329.091
329.636
330.212
330.704
331.072
331.373
331.538
331.603
331.637
331.625
331.345
331.074
330.679
330.129
329.683
329.001
328.407
327.785
319.898
320.326
320.787
321.241
321.618
321.962
322.181
322.441
322.516
322.552
322.605
322.571
322.355
322.128
321.944
321.557
321.239
320.747
320.244
319.868
311.917
312.169
312.482
312.697
312.95
313.177
313.312
313.493
313.535
313.624
313.596
313.516
313.44
313.283
313.12
312.92
312.691
312.414
312.125
311.965
304.008
304.082
304.202
304.197
304.294
304.392
304.48
304.465
304.557
304.522
304.557
304.514
304.577
304.525
304.47
304.376
304.262
304.204
304.014
304.016
360.329
361.673
363.116
364.529
365.736
366.749
367.503
368.146
368.555
368.757
368.78
368.613
368.182
367.502
366.755
365.698
364.483
363.1
361.535
360.233
352.203
353.314
354.63
355.81
356.902
357.683
358.476
358.982
359.329
359.531
359.484
359.417
359.006
358.425
357.667
356.799
355.749
354.607
353.366
352.224
344.113
345.097
346.151
347.161
348.015
348.739
349.367
349.832
350.179
350.341
350.286
350.177
349.824
349.318
348.714
347.937
347.089
346.073
345.031
344.102
336.089
336.898
337.717
338.51
339.192
339.836
340.389
340.721
340.976
341.111
341.107
340.953
340.666
340.387
339.853
339.175
338.508
337.7
336.813
336.045
328.1
328.626
329.351
329.896
330.491
330.965
331.306
331.628
331.831
331.946
331.978
331.779
331.627
331.345
330.919
330.39
329.879
329.237
328.684
328.034
320.058
320.447
320.991
321.348
321.765
322.106
322.387
322.565
322.711
322.733
322.824
322.75
322.576
322.361
322.077
321.822
321.39
320.89
320.406
320.079
312.098
312.258
312.552
312.827
312.976
313.253
313.402
313.561
313.645
313.705
313.745
313.66
313.606
313.461
313.232
313.145
312.851
312.562
312.233
312.092
304.056
304.08
304.24
304.264
304.432
304.414
304.512
304.593
304.566
304.582
304.61
304.544
304.539
304.554
304.374
304.42
304.315
304.163
304.096
304.062
360.642
361.943
363.522
364.853
366.094
367.12
368.016
368.508
368.963
369.226
369.289
369.043
368.641
367.977
367.162
366.16
364.848
363.497
362.024
360.599
352.544
353.671
354.918
356.109
357.183
358.1
358.744
359.313
359.714
359.919
359.863
359.736
359.363
358.802
358.063
357.212
356.161
354.846
353.632
352.495
344.367
345.355
346.373
347.403
348.267
349.065
349.675
350.131
350.411
350.552
350.609
350.441
350.177
349.576
349.077
348.294
347.432
346.379
345.396
344.431
336.292
337.016
337.875
338.685
339.535
340.045
340.627
341.026
341.265
341.32
341.339
341.197
341.019
340.584
340.068
339.488
338.745
337.869
337.073
336.36
328.204
328.81
329.409
330.089
330.676
331.107
331.601
331.813
332.013
332.058
332.074
332.078
331.835
331.489
331.171
330.605
330.109
329.498
328.819
328.198
320.108
320.557
321.067
321.511
321.889
322.215
322.586
322.745
322.892
322.95
322.923
322.876
322.776
322.498
322.229
321.892
321.491
321.114
320.606
320.208
312.154
312.366
312.676
312.868
313.126
313.335
313.521
313.644
313.786
313.783
313.78
313.66
313.683
313.53
313.363
313.179
312.949
312.615
312.355
312.085
304.052
304.115
304.287
304.318
304.415
304.49
304.541
304.582
304.629
304.576
304.639
304.589
304.59
304.545
304.496
304.406
304.234
304.295
304.107
303.997
360.771
362.192
363.755
365.132
366.339
367.377
368.203
368.848
369.243
369.452
369.467
369.281
368.806
368.307
367.381
366.396
365.162
363.718
362.242
360.893
352.657
353.874
355.071
356.333
357.335
358.247
359.001
359.536
359.881
360.036
360.061
359.913
359.594
359.034
358.288
357.397
356.371
355.098
353.885
352.707
344.484
345.455
346.484
347.535
348.514
349.178
349.859
350.267
350.609
350.809
350.775
350.643
350.334
349.893
349.23
348.515
347.563
346.618
345.496
344.566
336.465
337.139
338.006
338.837
339.663
340.235
340.749
341.068
341.312
341.476
341.485
341.417
341.067
340.747
340.209
339.634
338.91
338.067
337.197
336.48
328.342
328.864
329.563
330.201
330.837
331.234
331.613
331.89
332.102
332.268
332.255
332.131
331.874
331.692
331.269
330.796
330.204
329.578
328.952
328.29
320.154
320.636
321.089
321.523
321.927
322.29
322.537
322.832
322.967
323.024
323.085
322.991
322.796
322.662
322.335
321.893
321.562
321.106
320.617
320.17
312.156
312.332
312.611
312.902
313.206
313.387
313.654
313.625
313.675
313.808
313.809
313.807
313.712
313.534
313.409
313.234
312.97
312.701
312.345
312.153
304.053
304.104
304.243
304.33
304.41
304.516
304.485
304.607
304.59
304.618
304.632
304.523
304.567
304.524
304.497
304.437
304.353
304.336
304.108
304.1
)
;

boundaryField
{
    hotSide
    {
        type            fixedGradient;
        gradient        nonuniform List<scalar> 
400
(
321.511
322.87
325.591
329.677
335.133
341.965
350.181
359.788
370.794
383.208
397.037
412.289
428.971
447.088
466.647
487.651
510.105
534.011
559.372
586.191
323.738
325.08
327.767
331.802
337.194
343.949
352.078
361.591
372.498
384.81
398.537
413.687
430.268
448.289
467.755
488.672
511.043
534.872
560.161
586.913
326.149
327.47
330.116
334.091
339.406
346.071
354.099
363.503
374.296
386.491
400.101
415.136
431.606
449.52
468.885
489.706
511.988
535.735
560.948
587.63
328.704
330
332.597
336.503
341.73
348.292
356.205
365.485
376.15
388.215
401.695
416.604
432.954
450.753
470.009
490.73
512.919
536.579
561.714
588.325
331.33
332.599
335.142
338.97
344.099
350.546
358.332
367.477
378.003
389.928
403.271
418.047
434.27
451.949
471.095
491.712
513.807
537.382
562.439
588.978
333.918
335.158
337.643
341.389
346.414
352.74
360.392
369.397
379.779
391.562
404.765
419.407
435.503
453.065
472.101
492.618
514.622
538.114
563.096
589.569
336.321
337.531
339.959
343.622
348.544
354.751
362.274
371.142
381.385
393.031
406.101
420.618
436.595
454.047
472.983
493.409
515.33
538.747
563.663
590.076
338.36
339.543
341.92
345.509
350.339
356.44
363.847
372.595
382.718
394.244
407.2
421.608
437.485
454.844
473.695
494.045
515.897
539.253
564.114
590.478
339.852
341.015
343.352
346.885
351.645
357.665
364.985
373.643
383.675
395.113
407.984
422.312
438.116
455.407
474.197
494.491
516.294
539.606
564.428
590.758
340.643
341.795
344.11
347.613
352.334
358.311
365.584
374.193
384.176
395.567
408.393
422.679
438.443
455.699
474.456
494.722
516.498
539.788
564.589
590.901
340.643
341.795
344.11
347.613
352.334
358.311
365.584
374.193
384.176
395.567
408.393
422.679
438.443
455.699
474.456
494.722
516.498
539.788
564.589
590.901
339.852
341.015
343.352
346.885
351.645
357.665
364.985
373.643
383.675
395.113
407.984
422.312
438.116
455.407
474.197
494.491
516.294
539.606
564.428
590.758
338.36
339.543
341.92
345.509
350.339
356.44
363.847
372.595
382.718
394.244
407.2
421.608
437.485
454.844
473.695
494.045
515.897
539.253
564.114
590.478
336.321
337.531
339.959
343.622
348.544
354.751
362.274
371.142
381.385
393.031
406.101
420.618
436.595
454.047
472.983
493.409
515.33
538.747
563.663
590.076
333.918
335.158
337.643
341.389
346.414
352.74
360.392
369.397
379.779
391.562
404.765
419.407
435.503
453.065
472.101
492.618
514.622
538.114
563.096
589.569
331.33
332.599
335.142
338.97
344.099
350.546
358.332
367.477
378.003
389.928
403.271
418.047
434.27
451.949
471.095
491.712
513.807
537.382
562.439
588.978
328.704
330
332.597
336.503
341.73
348.292
356.205
365.485
376.15
388.215
401.695
416.604
432.954
450.753
470.009
490.73
512.919
536.579
561.714
588.325
326.149
327.47
330.116
334.091
339.406
346.071
354.099
363.503
374.296
386.491
400.101
415.136
431.606
449.52
468.885
489.706
511.988
535.735
560.948
587.63
323.738
325.08
327.767
331.802
337.194
343.949
352.078
361.591
372.498
384.81
398.537
413.687
430.268
448.289
467.755
488.672
511.043
534.872
560.161
586.913
321.511
322.87
325.591
329.677
335.133
341.965
350.181
359.788
370.794
383.208
397.037
412.289
428.971
447.088
466.647
487.651
510.105
534.011
559.372
586.191
)
;
    }
    coldSide
    {
        type            mixed;
        refValue        uniform 300;
        refGradient     uniform 0;
        valueFraction   uniform 0.991591;
        source          uniform 0;
        value           nonuniform List<scalar> 
400
(
300.024
300.024
300.025
300.025
300.027
300.028
300.028
300.029
300.03
300.03
300.031
300.032
300.032
300.032
300.032
300.034
300.034
300.034
300.034
300.034
300.024
300.025
300.025
300.025
300.027
300.028
300.029
300.03
300.03
300.031
300.032
300.032
300.032
300.033
300.034
300.034
300.034
300.034