/*--------------------------------*- C++ -*----------------------------------*\
| =========                 |                                                 |
| \\      /  F ield         | OpenFOAM: The Open Source CFD Toolbox           |
|  \\    /   O peration     | Version:  2212                                  |
|   \\  /    A nd           | Website:  www.openfoam.com                      |
|    \\/     M anipulation  |                                                 |
\*---------------------------------------------------------------------------*/
FoamFile
{
    version     2.0;
    format      ascii;
    arch        "LSB;label=32;scalar=64";
    class       volScalarField;
    location    "./ITHACAoutput/true/9.8";
    object      error;
}
// * * * * * * * * * * * * * * * * * * * * * * * * * * * * * * * * * * * * * //

dimensions      [0 0 0 1 0 0 0];

internalField   nonuniform List<scalar> 
3200
(
-2.03925
-0.150884
2.0924
2.94809
4.82159
2.6154
3.45355
3.74178
3.51595
3.57817
1.69611
2.76607
4.38537
3.8384
3.28814
2.50107
3.19589
1.92599
-0.802768
-0.942236
-0.602792
-0.422103
1.88984
1.00564
2.60595
3.31221
2.23956
4.16013
3.70962
3.35869
2.83997
2.88894
2.33211
2.42422
2.46957
1.91838
3.28012
-0.132356
1.33154
-1.43716
0.220761
0.135854
0.509916
2.63868
2.38516
1.23498
1.31773
3.2449
3.35387
1.94445
3.58802
2.37089
2.96733
3.31698
1.15386
1.54032
2.64329
2.65969
-1.66768
-2.3976
-0.44609
-0.398943
2.21308
2.12793
2.03959
0.731791
0.619814
2.06851
4.08319
0.632279
2.52981
1.40611
0.459057
2.54967
1.89124
1.97101
2.49167
1.61269
1.42605
1.31482
0.304273
-2.77907
0.842804
0.379839
-0.314306
1.43292
2.6643
2.18741
0.975088
0.881478
0.274225
0.322748
3.32817
0.255176
1.5349
2.30859
-0.0762953
0.465917
-0.390249
1.23108
-0.27861
-0.224321
2.67787
-0.129181
0.432674
0.644182
1.32726
-0.303429
4.009
0.468633
-0.264294
1.67908
1.91642
0.778726
2.16158
0.191453
-0.295488
1.03802
1.12122
0.071079
0.0497914
0.187168
1.08994
0.449224
0.806853
0.105769
0.575034
0.807495
-0.582954
1.95608
2.16462
1.01946
0.890575
1.47994
1.14943
-0.812772
2.80672
0.964618
2.46629
1.83321
0.289167
0.37337
0.781577
2.59383
-1.08817
0.192477
0.879305
0.438731
-0.128256
-0.294791
-1.42592
1.53637
0.532143
0.47042
1.45407
1.13384
-1.01364
-0.523605
1.48475
-0.0961037
-0.618829
-0.316262
-0.428919
2.91046
2.19864
2.93894
1.83231
1.79206
2.96598
2.19612
3.18968
2.01144
2.28677
2.33802
5.3357
1.02174
1.5023
1.75272
0.192466
-0.544659
-1.28647
0.104459
0.509429
0.215915
2.76652
0.368151
1.61362
0.01607
4.96643
0.842813
-0.279949
0.8958
0.166416
4.96173
0.469747
1.43503
0.345474
2.06377
0.183413
0.169884
-1.08623
0.703844
-0.544591
2.8683
2.4465
2.72286
0.638872
3.14841
0.771772
1.31248
1.29258
0.189897
2.51995
1.80099
0.393028
0.651736
2.21457
0.67153
-0.304672
0.0789106
-1.59897
0.420842
3.53025
2.35202
3.33459
-0.368675
2.65427
2.6231
2.04413
2.39082
0.31852
2.1832
3.24031
0.0526538
1.15737
0.812585
1.92339
0.739333
1.7211
0.759249
-1.00656
0.229186
0.325406
1.39444
2.84365
1.17589
0.786382
-0.219071
-1.17546
1.67206
0.943149
3.92389
2.74139
1.8671
0.795818
4.01166
1.74846
0.0829566
0.418272
-1.38719
0.553237
-1.3387
-0.298715
0.880482
1.08846
1.9455
-0.824201
-0.232406
1.85008
2.11884
-0.796233
0.325416
0.0982122
2.42085
0.897584
0.945127
0.645712
1.26556
-1.19734
-0.887825
1.04779
-0.65804
-1.74502
1.66124
-0.0909982
0.663921
0.585748
3.57387
0.24754
-0.356905
0.880987
-0.333683
0.389118
1.74763
0.907378
0.590587
0.36746
0.998238
1.6345
0.175434
0.698493
0.171865
0.37369
-0.337334
-0.22622
-1.52508
0.902274
1.90035
-1.47534
0.606165
0.539894
-1.04826
0.514578
0.151934
-0.630919
0.815626
0.876146
-0.578462
0.920743
-0.910428
-1.60555
-1.50465
1.70403
0.819691
2.63421
2.15908
2.15104
3.70845
2.05122
1.85136
1.0589
0.352824
0.630278
1.27227
1.11907
1.45018
1.51462
1.63079
1.34016
-1.0449
-1.12594
-2.01452
1.07591
0.132069
3.28222
2.90328
1.35521
2.10407
1.1055
2.32665
2.43619
0.758046
1.51845
1.89205
2.75492
1.81432
1.5752
2.30997
-0.132422
0.569604
-2.01154
0.604725
0.430902
2.77262
2.06208
2.18004
2.62287
0.30016
0.0466503
1.08609
1.98744
3.16575
2.08675
1.0177
0.607238
1.48921
1.12987
0.955158
0.837592
-1.31656
-0.693916
0.142551
1.50701
0.422245
-0.238416
2.82607
2.36314
1.48277
0.657108
0.804844
2.07812
0.489067
-0.581007
2.18257
0.0206201
0.701391
2.45856
1.67255
0.0959173
-0.502311
-0.25017
-0.766834
-0.904262
1.80216
2.5762
3.49566
1.88507
1.38218
1.61494
0.907744
1.66715
1.64376
-0.376854
2.55076
-0.148824
1.50918
1.83497
0.29613
-0.764133
-0.522041
-0.175699
0.596948
0.189581
2.03036
1.63513
-1.34188
0.0758398
3.11882
0.956383
1.8637
-0.701251
1.21908
2.31982
0.313923
1
1.00117
-0.83158
0.307977
0.647764
-1.46463
0.551267
1.96644
-0.320352
-0.579045
1.64103
0.889967
2.05514
1.41816
0.296137
0.446111
0.3956
-0.372655
2.23593
1.03837
0.486987
0.854252
0.0630088
0.947364
0.907719
-0.298303
1.53827
0.0439725
-0.0103998
0.355265
-0.384382
-0.507527
0.188085
1.85968
-0.584101
-0.479092
2.16422
0.425677
-0.909622
-0.970237
1.10429
-0.00352366
1.68538
0.54331
-2.01065
0.533957
-1.67612
0.33131
0.969693
2.72099
1.71666
1.28073
1.1882
2.22103
1.08056
2.69443
1.40032
-0.165221
1.47457
1.24195
0.874921
3.52459
1.50789
1.74447
-1.0908
-0.804366
-1.87338
-0.105761
-1.41455
0.0903435
2.59058
0.587566
0.947504
0.0968839
-0.442726
0.257531
-0.392224
1.26345
0.232435
1.89564
-0.264433
1.70341
0.381837
0.486543
-0.55914
-1.44686
-2.02876
-0.747673
-0.194304
2.04787
3.42449
3.12184
1.64494
0.65652
3.27094
1.74679
1.55845
0.19301
-0.435745
1.55675
1.21225
2.70769
-0.952868
2.55974
-0.226695
0.379155
-1.35119
-0.732595
1.13523
1.25599
1.82427
2.43669
0.556281
0.127947
1.24054
0.934833
2.66339
1.77018
0.607409
0.333666
1.08062
0.51897
1.5768
0.775472
-0.377165
-2.12506
0.205806
-0.116131
1.87575
0.121109
2.05042
-0.604633
2.46952
0.701569
0.746066
0.989042
0.141103
-0.437595
-1.09454
0.0827447
1.97474
0.0747583
0.449472
-0.849713
0.349263
-0.868997
-1.81832
-1.41388
-1.01484
0.435884
0.642051
0.705942
2.00866
2.40562
0.737086
0.00514142
-0.81492
1.58246
-0.273004
2.10572
0.800361
0.0564766
-0.745431
1.13237
1.02656
1.18916
1.97643
1.25547
-0.358623
-0.238308
2.08973
2.48647
-0.498845
1.57526
0.218359
1.96057
-0.191173
0.026416
-0.128045
0.171564
0.610489
0.494341
-0.431263
-0.339531
0.0596112
0.167414
-0.484963
1.28086
-1.49958
-1.54417
0.166712
0.965839
0.345252
-0.251116
-1.5494
-1.37901
-1.1617
0.799236
1.10857
0.374602
-2.10837
0.334559
1.4667
0.702137
-0.288655
-1.18448
-2.15617
-0.713311
-0.751657
2.98104
2.95564
1.82446
0.662408
2.18834
0.558569
-0.253145
-0.0513689
-0.0850294
-0.921102
1.88419
2.57023
0.643984
1.67046
-1.71996
-0.149003
-1.37221
-1.99961
-1.77762
1.02554
-0.0804058
2.34261
0.7557
1.71516
0.206531
2.20769
2.34963
0.799255
-0.320837
1.4683
1.18341
1.46017
1.89772
1.07421
1.58083
-0.295871
-0.400076
-2.61822
-0.124673
-0.178332
1.07858
-0.266228
0.730201
0.36065
1.24066
0.83471
-0.972479
-0.516658
0.0957269
1.68334
0.958269
1.20656
2.43826
1.08667
-0.336113
-0.00543444
0.325695
-1.51606
0.950982
0.63981
-0.300851
1.05727
0.48975
1.67532
2.80201
1.6267
0.798032
1.10849
2.76278
-0.96803
1.66382
1.8202
1.6445
2.17643
1.62769
0.408485
0.488128
-0.971239
0.554498
-0.491344
2.00601
3.4222
1.95103
1.44932
-0.698454
0.723756
0.964072
0.00280714
1.47878
-2.07584
0.532759
0.207773
1.66823
1.51575
0.189095
-0.165446
0.589764
-2.27632
-1.89705
1.24587
-0.0329085
1.13575
0.922087
0.911475
0.189877
-0.605532
0.763347
0.785512
1.22584
0.697261
-0.767146
0.503317
0.337755
0.349148
0.279874
0.704902
-0.860793
1.29729
0.112012
1.91976
-0.858746
-0.905759
0.394062
0.241752
1.04607
-0.514808
0.391689
0.334675
0.22811
-0.547753
0.0619379
2.09208
0.811526
0.958122
-1.52862
-0.0395682
0.0375159
-0.0241368
-0.0300232
1.09838
0.707745
-0.0548456
0.751539
1.64597
0.48495
-1.9593
-0.124933
4.06325e-05
-0.0700884
-0.668807
-0.00663649
1.19853
-0.856994
-2.21744
-0.657609
0.532505
-1.82211
-3.18918
-3.0041
-0.262774
1.95712
-0.40904
-0.0135585
0.36294
1.32465
0.17946
1.49023
-2.31403
-1.33196
1.47884
0.349911
-0.919829
0.0806123
0.343869
-2.18124
-3.17608
-2.22701
-3.16104
0.148435
0.770723
-0.384627
0.790286
-0.233691
1.75988
0.421257
0.397689
-0.148962
0.153788
-0.840791
0.17951
2.66281
-0.425468
-0.80998
0.385169
-1.12663
0.298558
-0.81498
-1.59168
-0.152517
-0.682107
0.0413127
1.04988
0.319176
0.820188
1.71003
1.49026
-0.533357
0.324441
-0.872677
-0.455988
0.404129
0.53447
0.167726
1.22701
1.33376
0.709185
-0.513464
-0.847489
1.05313
0.504518
0.377122
1.84526
1.85578
0.576352
2.13671
-0.39815
0.34147
-0.797886
-0.321874
1.38315
-0.529377
0.379868
3.13196
0.016824
0.526698
-2.49858
0.169335
-1.02137
-1.79839
-2.69431
-0.250258
1.67666
2.03419
-0.922575
0.802975
1.00132
-0.618424
1.08934
-1.00661
2.00568
-2.19822
-0.884708
-0.087076
-0.289558
-0.868593
-1.16978
0.3176
-2.26135
-1.72987
1.19372
-0.0998684
1.45437
-0.00751108
2.49217
0.178491
1.14144
-0.579722
-0.399455
1.97003
1.00785
1.2918
1.83331
-0.132164
0.762557
0.383016
-0.988868
1.10544
0.0328033
1.6524
0.0301639
0.0836582
0.343345
-0.201206
1.56512
0.832537
1.59624
0.857382
-0.823137
0.429646
2.30277
0.589215
-0.104269
0.817962
0.151761
-1.48493
-0.843355
-1.18738
-1.1664
-1.07544
0.612745
-0.298476
0.505703
-0.768826
0.352004
1.27924
-1.113
-0.55877
-2.05083
0.143916
-0.118222
-0.245545
-2.18295
1.71938
0.728252
-1.52597
-0.51343
-1.45175
-2.57138
-3.09302
-0.419849
-0.688426
0.696314
-1.15955
1.48901
0.612554
-0.18706
-0.463991
-1.27003
-0.581789
-0.919758
-0.793804
0.970714
0.578978
-0.60509
-0.802312
-1.58072
-3.1805
-3.51405
-2.74517
0.699815
-0.711179
1.7386
0.820138
0.487242
1.35433
0.245245
0.600932
-0.282398
0.710088
-1.46658
-0.105915
-1.32861
-1.03036
-0.405043
-0.359067
-0.498451
-1.38597
-3.03581
-1.51723
-1.0262
0.326838
0.393662
0.593011
1.46786
-0.325524
0.334864
-1.23319
-1.05668
0.0362614
-1.13615
-0.46951
1.40254
-0.390061
0.27286
-0.359426
-1.5473
-3.22583
-0.960402
-0.759648
-0.462247
0.968284
0.211467
0.164942
0.797642
0.629019
-0.633384
-1.52125
-0.626998
1.94459
-0.387683
0.241091
-0.609424
0.0336306
-0.397836
-0.885224
0.492152
-2.63712
-1.13849
0.926553
-1.11554
0.655294
-0.396611
0.216
0.344661
1.05113
-0.473052
-1.6799
-0.818042
-0.318949
-1.28861
0.57239
0.771209
-0.106863
0.329092
1.07197
0.0168549
-0.790622
-0.550105
-0.927047
-1.24869
-0.0591817
1.29975
-0.368463
0.455454
1.28678
0.573569
0.628106
1.53076
1.32889
0.607253
-0.0253638
0.630702
0.276992
0.292625
0.0825365
0.813595
-0.784129
0.0445431
-0.624283
1.72502
0.83825
1.77767
-0.610949
0.736112
1.18431
-0.765403
-1.89827
0.264366
1.89575
-1.61659
-0.174719
0.815476
1.90223
0.0693264
0.129663
0.263598
-1.0993
-0.2977
1.19081
0.415591
-2.26654
0.0680605
-0.265585
0.160516
-1.36862
1.29051
-0.78246
0.315828
-0.974141
-0.684051
-0.42328
-1.19012
0.15524
0.834238
0.863176
-0.629711
-0.432216
-2.45188
-2.86048
0.440845
0.13329
-0.384475
2.06872
0.415415
-0.521322
-0.209063
-3.18571
-2.30161
-1.77538
-2.01524
-1.73086
0.358297
-2.16748
0.402371
-1.85101
-2.30885
-2.22682
-3.40241
-0.306403
-1.25088
-0.336911
0.444233
-0.102825
0.771454
-0.411082
-0.946236
0.00845563
0.062427
-0.897671
0.353775
-0.20114
0.0725684
-0.359501
-0.262322
0.505372
0.653897
-2.31177
-1.98979
-2.91818
-0.815994
-0.00522093
1.19422
0.383687
0.150445
1.79633
-2.50664
-1.92264
-0.809479
0.150746
-0.67953
0.284461
0.520205
-0.608138
-0.785275
1.16351
-2.43167
-0.60323
-0.839762
-0.588858
-0.223609
2.79778
1.78392
-1.01137
-0.162054
1.06566
-0.605298
-0.812068
-0.823305
-1.55255
-1.2585
-0.223832
-1.68491
-0.158799
-0.0804956
1.08925
2.14429
-0.693702
-1.53203
0.0794749
-0.273308
1.07298
0.0602756
3.28546
-0.149479
0.566974
-1.19215
0.212303
-1.22219
-0.18859
-1.04337
-2.39273
-0.438041
-1.16394
0.363928
0.349502
1.36681
-3.90425
0.362716
-0.299014
-0.627508
-1.16579
-1.79871
1.24294
0.0576833
-0.853338
1.03615
0.723721
-0.253004
0.284354
-0.707511
0.712788
1.07078
-0.233212
1.73422
0.579258
1.18178
1.79122
-2.38507
0.617657
1.22782
0.76538
-1.278
0.915176
-2.20904
-0.125555
1.0148
0.515689
-1.50787
-0.740061
-1.5028
0.0016801
-1.42908
0.142901
-1.20743
1.70482
1.13436
-0.490419
1.34488
-0.316274
-0.990451
-0.723151
2.80447
-0.536908
-1.31009
-1.26904
-0.998422
-0.886744
-0.258192
0.587105
0.0780473
-0.925789
-1.49413
1.11193
-0.187681
1.22801
-0.0568691
-2.30292
-3.2621
-0.999653
-3.4992
0.602139
-0.773886
0.348
-1.48385
-1.24244
-1.02156
-2.23076
-3.76933
-1.96954
-0.223785
-2.22912
-1.8183
-0.564166
-1.64003
-1.27041
-2.85685
-4.19392
-0.742415
-3.11589
-1.1452
-0.608381
1.25411
-0.721158
-0.0500908
0.530103
-2.77645
-0.305163
-1.92102
0.270989
-2.19108
-1.00988
0.794193
-1.55627
-0.561241
-2.15369
-1.16668
-2.23814
-2.52538
-0.889071
0.171854
-0.97076
0.483054
0.209698
0.430362
0.667961
-2.16421
-1.91534
-0.551743
-0.414812
-1.593
0.587704
-1.11625
-2.42584
-0.829678
-0.224281
-0.509049
-3.25327
-1.25868
-2.42799
0.134353
-2.34436
-1.71726
-2.12514
0.30557
-1.55851
-0.0162283
-1.54269
-1.96599
-2.25249
-1.26226
-1.16304
-1.16879
-0.605181
1.01292
-0.850911
-1.60883
-0.0339851
-2.44901
0.588962
-1.03471
-0.266959
0.912028
0.385228
0.727296
-1.251
-2.0951
-0.707006
-1.33174
-1.74817
0.497457
-0.457811
0.774486
0.964594
-0.886583
-0.282037
0.161135
0.290495
-0.832257
-1.01434
-0.136045
-0.780609
0.742071
1.43487
-0.929136
0.400925
-0.108335
-1.46416
1.0346
0.529544
-2.14344
-0.0392791
1.60702
2.01428
-1.17817
-1.26124
-1.71513
-1.06209
-1.52236
-0.96379
-0.874913
0.405659
1.14743
1.44103
-0.875116
-0.324534
-1.38968
-1.31488
1.08313
0.965424
2.03612
1.23579
0.414079
-1.61781
0.0439294
-0.320986
0.903965
-1.30188
0.355266
-0.152005
-1.06171
-0.0288241
-1.52413
1.02601
-1.14138
0.910274
1.38138
-1.54965
1.70863
-2.25741
0.0954925
-0.45013
-0.666075
-1.16147
1.07925
-0.0472351
-0.759551
0.189896
-3.5367
-3.26003
-0.734647
-0.100681
-0.904748
-0.236572
-0.959455
-1.24454
-0.668555
-3.7098
-2.07028
-3.13573
-2.24533
-1.83062
-1.02021
-0.405448
-2.82859
-1.61068
-1.77991
-3.85007
-1.25273
-0.115108
0.990437
-0.0320729
0.633686
0.396892
-1.90344
0.290786
-1.37703
-0.197377
0.283038
-3.33378
-0.339826
-1.61746
0.105119
-2.91139
-0.634456
-1.14858
0.052125
-1.8235
-1.70422
-0.228142
-0.0787671
-1.81319
0.313189
-0.449185
-0.497513
-3.22157
0.537761
-1.15077
-2.09603
-1.7467
-1.18852
-1.2552
-0.211079
-1.19726
-1.23306
-0.82776
-0.0660227
-1.95584
-1.23682
-0.921479
-1.95712
-1.64351
0.697144
1.03278
1.68803
-1.47459
-0.461093
-0.449135
-0.800449
-2.86978
-0.450079
1.84836
-1.15725
-1.03926
-0.558807
-1.10493
-1.957
-2.56949
-1.57923
-1.93294
-0.765034
-0.928057
-1.23661
0.0114421
0.126099
0.148343
1.09033
0.370654
1.40112
-0.26175
-1.0829
-0.829635
-0.666436
-0.912911
0.346691
-1.17173
-1.0298
-1.02599
-0.490784
-1.4239
-0.621666
0.685427
0.00904524
0.895141
-0.816629
-1.09447
0.0646631
0.0397664
-1.75888
-1.70229
-0.245504
-0.618902
-0.513637
-0.922146
-0.624107
0.110234
-0.27658
-0.0971057
-3.12805
-1.20145
0.421593
0.683108
1.03723
-0.640695
-0.850051
-0.211921
-0.634358
0.78803
1.48073
-0.649819
-0.371481
0.345175
-0.143315
-0.307695
0.00953395
-0.0448569
-0.71329
-1.32072
0.43632
-1.59653
-1.12328
0.987831
0.416552
-1.47863
-0.024723
1.90593
0.227886
-0.880809
-0.417767
0.381856
1.22721
0.00491337
-0.912969
-0.0106931
0.431046
0.118479
-3.51922
-1.80254
-3.96515
-2.72733
-1.91027
-1.05932
-1.44746
-0.862254
-0.728381
0.314206
-1.85716
-1.64122
-1.72967
-1.46008
-0.746226
-2.53379
-1.10693
-0.362032
-2.98905
-1.57521
-2.0451
-2.76782
-3.79594
-0.132864
-2.14813
0.313199
-0.227041
-0.525858
-2.70365
0.0434581
-1.78562
0.231823
-0.0321173
-1.90548
-0.26141
-2.93731
0.105354
-0.89338
-0.105398
-1.17451
-0.0849121
-2.77509
-1.91369
-1.42683
-0.594977
-0.227214
-1.15415
-1.49454
0.0224522
0.085021
-1.98952
-2.07619
-2.17952
-1.50431
-2.36116
-2.00441
-3.07256
0.28865
-0.991418
-0.200201
-0.754068
-3.3736
-4.15793
-0.807091
0.230754
-1.39769
0.152966
0.656037
1.49864
-2.73979
-0.918232
-0.154595
-2.00647
-1.65443
-0.758985
-0.200705
1.27082
0.509658
-1.32722
-0.0835852
-2.54978
0.317438
-0.998149
-1.76384
0.366348
-0.897992
0.965946
-0.511455
-1.54966
-0.194281
0.109369
0.441341
-0.433438
-1.67498
-0.118069
-0.0902038
-3.19498
0.999758
1.01837
1.41417
-0.763842
-1.79201
-0.115461
-1.11497
-0.155763
-1.316
1.34845
1.24596
0.533734
0.603828
-0.0341143
-1.08721
-2.55904
-1.27091
0.763681
0.493359
-1.1175
-0.311434
0.614304
-0.126363
-0.277012
-0.483709
-0.656585
-0.78502
0.254745
0.841401
-0.54852
-0.941234
-1.18465
-0.141368
-0.626203
0.246829
-0.250766
2.22122
0.699694
-1.11168
-1.25949
0.995247
0.492539
-1.62059
-0.569978
-0.986124
-1.49362
-0.0776774
-0.345633
-0.0137398
-0.995091
0.0552189
0.795299
1.89037
-0.395078
-0.217671
2.41974
0.626395
-0.256082
0.152305
0.891118
-0.105102
1.79194
0.32501
-0.806049
1.05651
-3.90199
-2.76443
0.0908458
-1.253
0.11572
-1.25675
0.927942
-1.71395
-1.8277
-0.80186
-1.78802
-1.26085
-2.08372
-1.73454
-3.5321
-1.03749
-0.739291
-2.40486
-1.95939
-3.70793
-2.3741
-1.22698
-1.78221
-1.61367
-1.68394
-2.12272
-2.01131
-0.583426
-1.36835
-2.18697
-1.51302
-1.76083
-0.817394
-2.81003
-0.912216
-0.85067
-2.08782
-0.747548
-2.71072
-2.51819
-2.55472
-1.83612
-1.36151
-1.31029
-0.21384
-0.385535
-1.43459
-1.71347
-1.73109
-1.60187
-1.60573
-1.68083
-2.67185
-2.12275
-0.46632
0.252255
-1.34229
-1.39059
-0.740052
-1.0003
-3.20114
-2.6907
-0.344024
-0.875904
-0.754432
-0.623182
-0.560215
1.4135
-1.16451
-0.880858
-1.86113
-0.507459
-1.09597
-1.13806
-0.646181
1.17434
0.51792
-0.485188
-0.0874931
-1.9954
-2.50775
-1.96811
0.463752
1.24806
0.589689
-1.9757
-0.932227
0.147303
-1.10848
-1.93536
0.919748
1.1506
-2.39578
-1.30696
-0.942167
0.475498
-0.256485
-0.473599
-1.14144
1.70759
0.268055
-3.10036
-0.174373
-0.788661
-2.20183
0.137218
-0.379646
-1.37791
-1.13673
-1.1566
0.752166
-1.22363
-0.240813
-1.98822
-0.208777
-1.69909
-0.533954
-0.337216
1.04804
-4.06494
-0.8008
-0.855759
-0.22763
-1.33862
0.467918
-1.47392
-0.262481
0.000309856
-0.164866
-1.50877
-1.33861
0.921351
0.473311
-1.00822
-0.645258
2.01869
0.529376
2.3286
-1.19347
-0.112588
1.72015
-0.76228
-0.492531
-1.5749
-1.09923
1.15801
1.04579
-0.608107
-0.698747
0.280446
1.01663
0.653866
-0.300578
-0.294942
0.461208
1.04771
0.583731
-0.66745
-0.100262
-0.474013
-2.51934
-3.52244
-0.411005
-1.76227
-0.382583
-0.50864
-1.47929
-0.578848
-0.567944
-0.787872
-3.66555
-2.94947
-2.92311
-4.64214
-0.628753
0.268555
-0.933217
-3.22335
-1.71435
-2.31012
-2.42222
-0.376222
-2.21236
-0.0851392
-0.853535
-0.139671
-1.53405
0.260976
-0.739962
0.239436
-0.188394
-1.02592
0.250202
-0.270694
0.25307
-2.14299
0.186264
-0.291315
0.609981
-0.399976
-1.38808
-2.16095
-0.258512
0.0358594
-0.517639
0.0336438
-0.437274
-3.19309
-1.20379
-1.17361
-1.21355
-0.928665
-1.79784
0.807002
-0.374099
-1.13238
1.10375
-2.63357
-1.54001
-1.90786
-1.23275
-1.35325
-0.409835
-0.961003
-1.12015
-0.323796
0.056474
-1.99103
-0.377926
-2.43262
-1.82755
-1.55721
-1.34437
-2.23809
1.34643
-0.0891879
0.346944
0.0321999
-1.34319
-1.37842
-1.97828
-0.864101
-0.281083
-2.19643
-1.99125
-0.88178
-0.732216
-0.980254
0.0597354
-0.590586
-0.0507259
-1.87143
-0.568137
-1.3489
0.395551
-0.509579
-0.117346
0.631948
-1.1927
-2.26459
-0.670534
-0.896359
-0.129969
-0.730661
-0.420286
1.12804
0.240854
-0.20982
-0.715453
0.975284
0.401701
0.519808
-0.790693
-0.495532
0.487141
1.93296
0.0168608
0.742928
-0.271157
-0.00885638
0.377547
-1.49967
0.603453
1.01201
1.1614
1.04788
2.3563
-0.532718
1.13128
-0.446946
-0.758937
-0.101925
0.388959
1.24254
-0.702344
1.92028
-0.530476
-1.91929
1.83424
0.889179
-0.033923
0.461935
0.0209878
-0.126993
1.23078
0.468369
0.37463
-1.27862
-0.707026
-1.49228
0.57298
-0.251035
0.672209
-0.129978
1.87492
-0.0656386
1.37845
-0.483225
0.699061
-2.82633
-2.93718
-2.38823
-1.39774
-0.324262
-2.19557
1.1005
-0.953138
-0.180718
-1.40094
-0.569767
-0.16941
-1.35095
-2.02079
-2.73372
-0.785131
0.727973
-0.414705
-1.90726
-1.67655
-3.57282
-3.32169
-1.76158
-1.52581
-0.713695
0.707778
0.613944
0.818407
-1.00028
-1.25907
-1.03426
-2.09496
-0.737783
-2.24775
-1.49742
-0.467282
-1.4248
-1.07091
-1.02243
-1.83091
-4.06226
-0.721033
-1.83848
-1.64254
-0.644522
1.6307
-0.0437
-0.0712933
0.116918
-0.832631
-2.26614
-1.26302
-1.11182
-1.85988
-1.70045
0.861709
1.66893
0.546857
-0.407463
-1.15673
-2.55087
-1.54869
0.277604
-0.562768
-1.24989
1.32481
0.277724
-1.74044
0.522178
-0.550538
1.72527
-2.34649
-0.249384
-0.134446
-0.292901
-0.881578
1.23228
1.32316
-0.0144621
-1.30097
-0.113943
-1.07844
-0.714988
-1.11746
0.0907376
0.539104
1.0832
-2.64329
-0.797742
1.54512
-0.720629
-0.5708
0.367531
-1.01312
-0.319789
-0.0746281
-0.18287
1.05828
-0.870137
0.399232
-1.49904
-1.56589
-0.963302
-2.59286
-0.942272
0.114155
0.921896
-0.945705
-0.491427
0.110333
-0.606774
0.685477
-0.0139116
-1.88684
-1.52356
-1.10422
0.298983
1.39468
0.858691
-0.485598
-0.8993
0.0821642
-0.840951
1.03365
1.08574
0.87696
-1.07547
-0.903596
-1.0399
1.3031
1.22556
0.362716
-1.06141
-0.525383
-0.674739
-1.63506
-0.734047
-0.686814
-0.531856
-1.60419
-1.08128
0.888133
-0.124026
-1.25192
1.06306
0.612299
3.47652
1.53188
0.354488
1.22229
0.0674352
-0.249325
0.34386
1.69132
-0.0162276
0.442446
0.156915
0.0568194
0.0440547
0.101895
1.44124
-1.5583
-2.12079
-0.0434098
-0.320605
-1.58263
-0.580555
-1.57167
-0.288473
-0.276345
-2.0078
-1.52811
-1.36251
-2.78755
-1.81023
0.772852
-1.59773
-1.89434
-1.27172
-0.809082
-3.12819
-2.38935
0.246162
-0.604421
-0.134345
1.99961
0.242825
-1.60078
0.594107
-2.39287
-0.403891
-0.106072
-0.90011
-0.388101
-0.951052
-0.190527
-1.30004
-0.45201
-1.64581
0.00546199
-2.81094
-1.72725
0.382013
-0.121987
-1.91165
0.156552
2.35784
-0.984574
0.880313
0.28932
-2.09508
0.165542
-2.10485
0.708763
-1.5066
-1.70688
0.496635
1.18274
0.360256
-1.54732
0.197178
-2.58152
-1.81616
-0.237092
-0.0269829
0.881844
0.462681
-1.09133
-1.24303
-1.19947
-1.88456
-0.497638
-1.04876
-0.54148
0.812846
0.107757
0.0612383
-0.396268
0.916284
-0.324954
-1.42852
-1.34304
-0.96977
-0.891531
0.393357
0.68174
1.1536
0.771709
0.665947
-0.503157
-1.04628
0.325462
-1.16131
0.617261
-0.742637
-0.0691257
0.215518
1.25282
-1.20299
-0.342305
-0.141561
-0.62415
1.29539
0.466347
-0.500587
1.01765
-1.34306
-1.27899
0.797024
1.21895
0.122275
1.52068
-0.534423
0.862
-1.21916
0.375151
0.492478
-0.855138
0.861274
-1.83897
-1.63416
-2.11676
-0.922006
0.918091
0.313352
-0.261685
0.822529
1.07459
0.537397
-0.082133
1.47737
2.49188
-0.160082
0.347478
2.55225
-1.66187
-0.905846
0.66689
0.441215
-0.786957
-0.696619
2.42884
0.647768
-1.97636
0.674522
-0.680668
-1.70339
1.09291
0.261535
1.10843
-0.473019
0.894022
-0.930006
2.19403
0.322231
-0.931933
2.20616
-0.191098
1.81352
0.0795964
0.522348
-1.71032
-0.394747
-2.09665
0.723967
-0.37738
1.55343
-0.450388
0.818742
-0.722144
-0.85124
-0.760704
0.643663
-1.64503
-0.492166
0.0382812
0.688127
0.129985
1.99363
-2.02172
-1.23623
-1.17402
-1.77807
-0.293368
-1.33075
0.528775
-0.575843
-0.732475
-1.6653
0.0171827
-0.502074
-1.28434
-0.955758
0.556679
-0.263037
0.894741
1.56751
0.0383048
-1.65178
-2.20208
-1.48557
-1.17775
-2.0498
0.314125
-0.891209
-0.0411185
0.92451
1.52921
0.881699
0.552395
0.335152
1.54616
-0.853941
0.499724
2.53843
0.285463
-0.299239
0.178729
1.45583
-0.134348
-1.11855
0.445465
0.800887
-0.356458
2.26025
-1.11869
-0.162665
-0.628994
1.72047
0.834809
-1.49699
0.131433
-0.630701
-2.12385
1.05939
0.96309
-0.576131
0.656649
-0.840701
1.14719
-1.65103
-0.314751
-2.37315
0.575094
0.320206
1.28968
1.22499
-1.43007
0.241959
0.799138
0.509407
0.16924
-0.880775
0.794536
0.961491
2.33576
0.0829383
1.19323
-1.10096
-1.76347
-1.20575
0.276286
0.700448
1.17117
-0.193106
0.973284
-0.21181
0.251548
-0.817953
1.20012
0.620248
0.0857038
-0.322396
0.0831735
1.73231
0.786034
-0.869053
1.80363
0.304316
-1.34463
0.164912
-1.95434
0.578972
0.372095
0.270189
-0.303501
1.74446
1.55421
-2.05616
1.61202
-0.383119
-0.809462
1.3351
0.186526
-0.562472
-1.09357
-0.62334
0.271915
1.51068
-0.0164103
-0.431632
0.736161
-1.37806
-0.819543
0.207212
1.1026
1.44711
-0.406123
-2.5108
0.651279
1.17444
-1.00849
0.44103
2.18855
0.192109
-1.27691
-0.165909
-1.02674
-0.910649
0.230068
-0.454111
-2.01789
-1.00831
-0.712124
1.28176
0.105449
1.54854
1.34959
0.81903
-0.570678
2.49827
2.04791
2.05039
-0.00673072
-0.529364
1.46845
0.398869
1.77142
0.964281
0.436645
-0.248643
-1.21912
-0.203638
0.543909
-0.191482
1.69632
-0.25604
1.81465
0.167417
1.74566
0.208016
0.0495826
1.69962
0.693921
1.39042
0.151072
0.462781
0.627977
0.286832
0.457232
-2.43304
-2.00995
-0.545296
-0.360546
1.32889
1.90554
1.14292
3.02112
2.30932
1.73286
1.38773
-0.00391782
0.587073
0.271326
0.436166
1.04174
0.744524
2.35257
1.28559
-0.576024
-0.783059
-1.32868
-1.23686
-1.41609
0.397302
0.574922
1.36711
2.56023
2.20379
1.72294
0.159662
1.62733
1.04295
2.05616
1.50588
3.92307
1.2177
1.58145
0.293061
-1.38539
-0.125138
0.37364
0.42473
0.988801
2.33697
0.315822
1.33266
-0.452854
0.816174
2.31278
2.44364
0.119996
0.803153
1.30002
2.06581
0.442707
2.54701
0.970455
-0.395493
0.133961
1.45351
-3.22773
-0.641244
1.00469
-0.554519
0.412606
-0.589967
2.5612
0.886539
0.401813
-0.190597
0.668938
1.64688
-0.0799622
0.0916179
1.18976
0.688826
-1.19924
-1.7543
0.276965
-1.19912
0.0469124
-1.02088
-1.55941
-0.0147121
-0.249236
0.159401
0.999351
-0.019626
1.15128
-0.902706
1.48011
-0.687952
-0.151995
-0.179087
2.14752
1.34828
-0.220474
-0.47472
0.262793
0.12449
1.18491
-0.47099
-0.501624
0.205867
-0.297494
1.48701
-0.57081
0.554741
-0.204895
0.235221
0.208822
-1.8214
1.24471
0.412796
-0.885288
1.8825
0.345827
0.504235
0.86538
0.242106
-1.58472
0.20193
-1.85274
1.14948
2.411
1.30571
4.03407
1.8016
1.75114
1.42622
2.2537
3.4403
2.42224
1.55813
1.29182
0.154215
1.11935
-0.667227
1.70933
-0.465776
-0.70743
-0.827754
-0.365983
0.391733
2.08208
1.8019
3.26059
2.78676
2.69405
1.45536
0.820184
1.16853
0.960034
0.343216
1.20672
0.963832
1.43428
1.85918
0.89999
-0.163919
-0.457037
0.054696
-0.559165
1.5969
2.48687
1.16303
1.30371
2.91582
-0.864317
0.0656508
2.75225
0.845795
2.06704
2.04832
1.96215
1.53859
1.21025
2.53992
0.949512
1.34182
-1.97798
-0.178885
0.280506
1.3739
2.60837
1.935
2.47936
1.40866
-0.292753
1.87501
0.898073
1.87381
-0.185161
0.0462506
0.982109
2.24105
2.14571
1.00153
2.08798
-0.272991
-0.814831
-0.265049
1.19026
0.451347
0.842461
0.306407
-0.95441
0.242779
0.432349
2.07641
1.35199
0.062235
1.08589
0.418764
1.72101
1.38525
1.1845
2.24175
0.432101
0.0441703
0.193678
-0.570961
1.03874
-1.03809
1.4172
0.276988
2.76168
0.160318
1.34508
1.7535
-0.556495
0.765698
0.481857
2.36293
0.614111
-0.387079
0.0259243
1.55167
-0.0809127
2.02624
-1.70742
0.306653
1.73026
1.06038
-0.114564
-0.0763675
0.703384
-0.728121
-0.39208
1.20181
0.155308
1.35839
1.99553
1.02455
-0.627387
0.115066
1.11644
1.63928
0.691793
0.232658
-0.769401
1.69321
-0.612621
-0.481815
0.443916
0.947372
-0.0952695
-1.3151
0.476431
-1.01321
1.32585
-1.29501
1.41243
-0.160949
0.741028
2.2248
-0.149408
-0.443978
-0.715269
1.32625
-2.43989
1.81603
0.0718209
1.15677
0.618151
3.20786
2.04805
3.30948
1.78176
3.03548
3.90431
0.700741
3.84981
2.17254
2.98821
2.98781
2.26165
1.15808
0.624859
0.173654
-0.246171
-0.208716
2.43429
0.428499
4.91742
0.0383421
2.24214
-0.142918
0.80101
0.456957
0.0302519
2.89722
0.212218
3.26044
0.0215663
2.75556
0.248279
2.44774
0.172589
-0.589475
-1.06075
0.735222
0.780564
2.32847
4.44345
2.0392
3.769
3.57881
0.940774
2.87104
0.761232
3.10823
0.125242
2.43882
3.49632
1.14999
2.9791
2.79502
2.8896
1.30003
-0.142059
0.938089
1.36529
0.272751
2.16598
2.48204
0.694773
0.791842
1.25005
1.70302
1.61252
-0.12332
1.64372
1.39088
0.843687
1.29966
2.16301
1.22169
2.47424
-0.209501
0.650031
-0.944791
0.386006
2.5646
1.69917
0.784021
0.73196
1.14512
2.8202
1.37879
1.67657
1.89414
1.38942
0.468098
2.75089
1.72132
2.70686
1.62403
-0.0143585
1.62193
-0.2832
1.258
1.9989
1.353
0.469309
0.0814724
0.97831
1.18419
1.62598
1.52313
0.702988
0.786266
-0.527661
2.09785
1.57463
1.24631
0.775164
1.06117
0.852059
1.22262
0.316261
-1.42752
0.265213
-0.517023
1.37153
-0.11418
0.340627
1.31244
-1.14422
0.91088
2.80013
1.00927
2.18265
0.00401213
0.912674
-0.422551
2.05372
0.822386
1.23035
1.24418
-0.416372
0.431406
0.0551329
-0.88078
1.26066
-1.66632
0.446972
0.996052
0.660963
-0.787534
-0.485544
-1.16336
-0.30131
0.938591
2.10114
1.93065
0.977443
0.402661
-2.10837
-0.970004
0.233388
-0.903405
2.46978
2.50514
2.81876
2.71824
3.08511
3.90729
3.41143
3.97597
2.0293
3.71858
2.42998
4.39094
1.95858
2.56205
1.755
2.22749
1.78474
1.12642
1.57818
-0.411462
2.27315
2.13355
2.61024
2.54112
2.39767
2.78804
1.98791
4.10679
3.56698
4.56116
2.74028
4.85682
2.6993
3.7019
1.63597
1.53645
1.82686
-1.51441
-0.580934
-0.846084
0.220364
1.96656
0.94949
1.62043
2.4718
2.95472
4.54537
1.32406
3.49376
2.06808
2.65677
3.06283
0.600696
2.18662
2.75373
2.85183
0.0105423
3.01759
1.82571
0.108628
2.70463
2.43168
2.75367
0.908476
3.35375
2.57553
1.31484
2.26327
3.0353
2.08076
1.33136
2.46812
2.35556
1.97505
2.89997
1.84639
1.73038
-1.76782
2.28283
2.29724
2.00337
1.44861
2.02948
1.48591
2.60009
1.76562
1.34758
2.30384
0.133475
2.15829
1.95781
1.57555
0.983484
0.890945
2.7926
2.01294
1.08408
1.11694
0.71386
-0.843711
-1.42525
1.3754
1.13819
1.8274
1.05999
3.10572
0.408193
1.07979
1.69489
-0.689365
2.2227
1.02596
1.94598
1.38919
1.24676
-0.768153
1.45796
0.883043
-0.00983048
-0.272932
-1.16519
1.34352
0.310858
0.849778
2.30934
1.20887
0.534228
-0.522289
2.98911
0.754451
1.05451
2.7718
0.482526
0.407495
0.761771
-0.0407652
0.683857
1.21858
-0.701746
1.01301
-1.49812
-0.646242
-1.40363
1.35031
0.118014
1.40262
0.448632
0.844191
-0.988294
0.742565
2.45194
-0.240113
0.0505838
0.564787
1.87561
-0.453634
-0.45033
-1.50325
)
;

boundaryField
{
    hotSide
    {
        type            calculated;
        value           nonuniform List<scalar> 
400
(
-1.68645
-0.266367
-1.25374
-1.32522
-1.80641
-2.8407
-2.22425
-2.10609
-2.91754
-3.19316
-3.62236
-3.55957
-2.17685
-2.59411
-1.21408
-1.36432
-1.66945
-1.23315
-2.08446
0.593427
0.226601
0.0606977
-1.12872
0.705764
-0.340709
-2.63363
-2.72487
-2.4947
-0.636199
-2.89873
-2.36791
-2.40652
-3.16557
-2.03185
-1.76428
-0.0374387
-0.649482
0.563044
2.18021