/*--------------------------------*- C++ -*----------------------------------*\
| =========                 |                                                 |
| \\      /  F ield         | OpenFOAM: The Open Source CFD Toolbox           |
|  \\    /   O peration     | Version:  2212                                  |
|   \\  /    A nd           | Website:  www.openfoam.com                      |
|    \\/     M anipulation  |                                                 |
\*---------------------------------------------------------------------------*/
FoamFile
{
    version     2.0;
    format      ascii;
    arch        "LSB;label=32;scalar=64";
    class       volScalarField;
    location    "0";
    object      stateMean;
}
// * * * * * * * * * * * * * * * * * * * * * * * * * * * * * * * * * * * * * //

dimensions      [0 0 0 1 0 0 0];

internalField   nonuniform List<scalar> 
3200
(
338.811
337.393
335.749
335.546
334.345
337.213
336.984
337.21
337.811
337.947
339.829
338.561
336.567
336.6
336.54
336.666
335.298
335.915
338.045
337.714
332.592
332.809
331.014
332.463
331.445
331.311
332.91
331.434
332.208
332.73
333.249
333.029
333.262
332.726
332.153
332.133
330.189
333.036
331.055
333.426
326.935
327.349
327.411
325.76
326.506
328.139
328.501
326.949
327.113
328.667
327.023
328.096
327.227
326.502
328.22
327.351
325.756
325.261
329.153
329.554
322.726
322.944
320.687
321.163
321.653
323.355
323.831
322.688
320.897
324.466
322.568
323.574
324.298
321.901
322.196
321.722
320.799
321.287
321.119
320.965
317.065
320.352
317.006
317.772
318.779
317.338
316.389
317.104
318.49
318.675
319.282
319.142
315.963
318.798
317.236
316.156
318.228
317.383
317.963
316.138
312.711
312.8
310.094
313.118
312.779
312.787
312.306
314.106
309.917
313.522
314.255
312.247
311.887
312.854
311.269
313.021
313.284
311.734
311.455
312.361
307.425
307.374
306.589
307.36
307.136
307.969
307.621
307.49
308.955
306.455
306.246
307.353
307.406
306.716
306.926
308.756
305.002
306.714
305.095
305.642
302.218
302.163
301.793
300.025
303.752
302.516
301.869
302.344
302.935
303.115
304.246
301.271
302.251
302.278
301.254
301.53
303.633
303.099
301.051
302.603
337.517
337.68
338.387
335.696
337.073
336.986
338.695
339.244
338.44
339.405
338.411
339.395
338.749
338.189
334.589
338.25
337.104
336.205
337.172
337.443
333.385
332.389
332.497
333.35
331.375
334.339
333.614
335.651
331.021
335.313
336.436
335.091
335.501
330.266
334.237
332.707
333.221
330.942
332.31
331.929
328.335
326.872
328.553
325.613
326.522
326.722
329.246
327.108
329.754
329.356
329.375
330.336
327.736
328.084
329.052
328.316
326.266
327.336
327.881
327.17
323.955
322.198
319.442
321.006
320.421
324.516
321.852
322.185
322.985
322.754
324.826
322.846
321.568
324.453
322.99
322.943
321.435
322.233
320.898
321.597
318.436
317.402
317.579
316.81
315.67
317.641
318.31
319.55
320.677
317.92
318.649
315.578
316.59
317.229
318.021
314.502
316.456
317.821
317.213
318.816
311.921
313.956
313.111
312.147
312.16
311.518
314.488
314.063
312.103
311.899
314.814
313.628
313.733
311.243
312.566
312.303
312.381
311.546
313.814
313.362
306.453
308.244
309.448
306.171
308.055
307.43
307.628
304.741
308.14
308.783
307.545
308.722
307.926
306.466
307.187
307.373
307.465
306.705
305.952
307.326
301.818
302.372
302.209
302.963
302.897
304.239
301.853
300.888
304.288
302.22
302.286
303.861
302.273
302.603
303.345
301.855
301.75
303.161
301.623
303.426
338.757
339.114
336.489
338.009
336.847
337.962
338.558
337.497
339.515
339.905
340.697
341.213
340.575
339.437
339.002
338.031
337.314
336.562
336.269
338.196
333.444
334.721
332.134
333.628
331.043
331.975
334.032
333.711
335.022
333.964
333.855
335.369
334.297
333.495
332.123
332.511
332.185
330.9
332.838
331.748
329.447
327.152
327.751
325.873
327.061
327.411
327.397
330.082
330.598
329.697
328.796
327.479
328.295
329.002
328.984
327.634
327.516
327.227
326.919
328.752
323.203
322.625
321.607
323.072
324.122
321.44
322.254
323.429
324.47
324.435
323.162
324.638
325.493
322.434
324.245
323.183
321.035
321.441
322.672
323.011
317.798
318.514
318.919
316.508
316.038
315.414
317.298
318.03
317.964
318.759
318
317.935
319.789
316.632
319.059
317.105
316.475
317.719
318.511
318.07
312.736
312.103
312.702
311.072
311.684
314.873
313.65
310.77
313.052
312.207
314.772
312.789
311.569
313.412
312.531
312.318
313.934
312.584
312.052
314.025
307.001
305.67
308.071
308.456
306.366
307.245
306.196
306.932
308.125
308.013
308.063
308.794
306.114
307.213
307.648
307.153
307.814
306.804
306.728
307.85
300.995
302.517
302.609
302.287
303.069
303.236
302.579
300.94
303.408
303.316
300.673
302.398
303.71
303.737
301.624
302.689
300.957
302.056
304.572
301.999
339.207
337.648
337.578
336.445
338.083
339.137
339.799
339.244
340.731
339.301
340.595
341.977
339.99
339.745
339.543
336.275
337.658
336.804
339.07
338.335
334.522
333.134
334.934
333.964
332.011
334.549
334.681
335.945
336.785
336.242
336.892
335.079
335.81
333.733
335.401
332.899
333.672
333.032
333.587
334.096
329.744
328.778
328.638
326.848
325.935
326.689
328.581
329.918
327.557
329.215
329.404
330.635
331.011
328.669
328.599
326.651
329.849
325.884
328.257
327.336
324.09
323.725
322.194
322.443
322.253
322.01
324.23
324.943
324.037
324.452
322.724
323.508
324.464
324.452
323.366
323.558
322.122
322.554
323.369
324.864
317.521
318.037
316.307
318.349
316.714
319.657
316.845
318.835
318.951
318.793
319.641
320.135
320.632
319.232
317.077
318.689
318.021
319.033
317.572
318.596
314.506
314.239
314.027
312.781
312.785
312.926
311.811
311.572
313.356
314.148
314.968
312.511
314.251
311.714
312.832
313.371
313.962
311.88
311.798
311.499
305.653
306.456
308.182
308.184
305.982
305.71
308.808
306.828
308.254
306.547
308.699
308.446
308.531
308.137
307.586
307.578
308.377
308.163
307.651
307.462
303.044
301.305
304.124
304.209
302.54
301.782
302.441
303.069
304.39
304.232
304.015
302.042
301.709
302.411
304.856
302.372
301.198
301.922
302.875
303.743
340.196
339.187
339.777
336.64
337.274
338.999
340.704
339.634
341.593
342.579
342.377
342.237
342.743
339.482
338.253
339.586
337.951
340.745
338.623
339.412
335.091
335.237
332.908
334.529
332.634
334.734
334.245
336.147
334.431
334.439
335.99
336.96
334.886
334.777
334.03
333.079
333.375
332.353
333.755
333.491
330.709
328.521
328.974
328.153
329.943
329.381
330.147
329.6
330.246
332.18
331.725
330.985
329.158
329.55
328.904
327.239
328.145
329.132
328.401
327.765
324.563
322.341
322.978
324.275
323.282
324.203
323.343
322.487
323.859
324.792
324.482
322.723
326.257
323.354
322.873
322.694
321.798
321.99
322.884
322.559
318.938
317.601
318.899
316.679
315.546
317.293
318.047
320.405
319.136
318.976
319.937
318.381
321.783
318.963
319.036
317.3
317.169
318.219
318.32
317.377
315.135
314.89
311.927
313.404
312.437
312.848
313.039
313.911
314.816
313.504
313.481
312.984
313.404
314.717
313.267
313.235
313.022
312.893
312.288
313.72
306.435
307.7
306
308.898
309.066
307.884
308.144
307.431
309.057
308.185
308.242
308.314
309.025
308.324
306.186
307.348
307.081
309.449
307.852
307.694
302.617
302.65
301.558
301.988
302.792
302.024
301.166
302.358
304.824
303.001
302.876
302.935
303.512
302.819
301.577
303.594
304.913
303.314
302.087
304.415
341.869
342.102
339.889
338.239
341.185
341.353
341.49
340.958
342.415
341.267
345.071
343.926
340.804
341.503
342.259
340.695
339.852
341.807
342.274
340.907
336.808
333.853
333.686
335.335
334.663
336.174
334.625
336.335
336.627
337.315
337.012
337.866
336.576
333.722
336.365
336.263
334.565
335.584
333.702
334.462
330.155
329.009
329.922
329.616
329.032
330.175
330.049
329.473
329.92
332.062
331.205
332.283
331.639
330.465
329.96
329.914
328.43
327.906
328.147
329.076
324.281
322.617
323.478
323.947
322.826
323.152
324.739
323.434
326.154
325.513
326.652
326.078
324.188
325.844
324.628
321.539
324.307
323.456
326.169
323.265
319.289
320.248
321.387
319.207
317.55
317.455
320.651
319.124
319.07
320.765
319.058
321.078
317.921
321.926
320.374
319.314
319.247
319.562
319.62
317.95
315.336
314.933
312.183
313.666
312.305
313.954
311.624
314.08
313.22
314.995
314.814
312.391
313.25
312.824
312.113
313.891
312.803
312.994
314.192
311.97
307.829
306.287
308.012
308.072
307.929
308.585
306.921
307.739
307.037
307.809
309.489
308.203
306.269
307.897
308.488
307.454
308.004
309.527
308.782
309.049
303.803
303.737
302.084
303.033
302.268
303.581
302.494
301.596
304.008
303.465
304.957
302.751
302.993
303.092
304.995
301.055
302.007
304.223
303.175
304.089
342.023
342.945
340.775
341.584
340.748
343.134
340.967
342.245
343.335
343.764
344.57
343.73
343.778
343.25
341.003
340.865
341.501
341.157
341.433
342.633
337.833
337.402
334.391
336.271
334.295
335.673
336.423
335.904
337.263
337.038
337.921
336.798
338.725
337.016
337.822
337.064
335.965
335.45
335.155
335.705
332.168
330.93
330.805
329.847
330.182
330.371
329.848
331.936
331.486
333.165
332.989
331.785
332.746
331.786
329.561
330.966
329.901
330.138
330.96
332.358
324.861
324.886
324.887
323.78
324.866
325.229
324.884
325.293
326.727
327.706
326.812
324.149
326.31
325.441
326.003
325.043
325.146
325.31
323.634
326.538
319.77
317.879
320.153
318.634
319.941
319.574
319.669
319.15
320.808
322.085
321.223
320.654
321.49
319.442
319.019
319.651
318.96
317.965
318.789
319.423
313.886
314.385
314.872
313.862
312.685
314.529
313.866
313.167
313.976
313.972
313.069
313.221
313.847
314.346
313.53
313.708
313.51
313.54
312.644
314.12
307.974
308.716
306.466
307.461
306.63
309.125
307.874
307.506
309.512
310.675
308.513
306.851
310.307
308.785
307.699
306.506
308.23
308.061
307.828
309.118
302.987
301.523
302.331
305.05
302.752
303.121
302.726
304.283
301.642
303.726
302.628
303.907
303.598
303.31
304.045
302.665
301.949
301.884
303.344
303.121
342.811
343.599
340.774
341.592
342.624
340.665
342.767
344.075
344.031
347.148
346.264
345.597
345.569
344.913
342.376
344.407
341.323
343.066
343.048
342.586
338.509
335.735
337.091
336.618
336.283
337.258
336.772
338.276
339.042
338.209
338.155
338.994
337.511
337.744
337.082
337.087
336.543
335.335
334.775
337.419
331.791
332.986
331.23
330.792
329.97
331.142
331.704
330.33
334.829
334.347
333.233
332.171
332.806
331.57
331.006
331.772
331.572
329.25
332.5
330.404
325.289
325.253
325.17
322.453
323.775
326.867
326.286
325.28
327.111
327.401
327.412
328.059
327.604
326.348
327.541
325.718
325.331
323.857
322.52
325.143
320.592
319.145
319.717
318.608
319.86
316.866
320.508
319.965
321.848
320.509
321.943
320.845
321.575
322.752
320.589
321.084
319.317
319.094
317.857
322.964
313.278
314.057
314.542
315.25
316.054
313.176
314.51
315.545
313.744
314.103
315.08
314.496
315.4
313.855
313.348
314.488
312.35
313.335
312.576
311.85
310.587
307.654
307.138
307.702
309.848
307.754
310.967
308.958
307.871
308.397
310.421
309.626
310.335
308.756
310.098
308.427
309.674
306.661
307.138
308.692
301.406
303.09
303.796
303.563
300.07
303.444
304.247
304.231
303.978
303.876
303.247
302.393
302.884
303.863
304.401
301.762
303.028
301.578
302.831
305.054
344.665
342.762
345.709
342.085
343.941
343.278
345.523
345.623
345.648
346.986
348.524
346.596
344.605
346.268
345.444
343.731
344.327
343.48
344.619
345.597
336.757
339.434
337.85
337.726
336.28
338.652
338.339
338.055
341.573
339.213
340.829
338.526
340.776
339.299
337.137
339.09
337.679
338.859
337.485
338.253
333.096
331.712
330.977
332.469
331.366
331.975
332.058
332.07
335.082
334.926
333.563
333.333
334.331
331.9
333.301
334.275
332.328
331.373
331.332
333.824
326.34
327.711
325.415
328.179
327.839
328.522
326.338
328.408
327.011
328.615
329.038
329.247
328.111
327.807
327.566
326.727
324.822
326.4
326.892
325.115
322.001
319.118
320.949
320.403
319.447
320.188
320.038
322.175
323.133
321.805
322.43
322.786
320.427
321.223
319.799
319.394
321.023
320.196
319.546
319.262
314.826
315.118
314.387
315.19
313.827
313.287
315.788
314.572
315.162
316.56
314.061
314.524
317.116
314.898
313.115
312.555
315.587
315.512
315.819
315.056
309.936
309.444
309.443
308.257
307.612
307.41
309.808
309.326
310.44
310.391
307.993
308.085
306.965
307.697
308.437
310.377
308.619
308.889
307.576
309.716
302.467
302.996
303.935
302.934
304.461
301.942
304.137
302.109
301.654
304.594
301.335
305.292
302.924
303.446
303.634
304.098
301.826
302.92
303.604
302.632
346.123
346.183
344.078
343.888
345.136
344.891
345.992
346.59
346.238
349.395
347.755
348.705
347.59
346.864
345.674
344.636
346.616
344.954
344.703
346.436
338.297
337.444
336.701
338.107
337.826
338.429
341.058
339.134
340.995
339.916
339.436
342.952
339.765
340.772
338.721
341.371
338.709
338.84
337.277
338.868
333.148
331.908
332.064
334.124
332.323
333.395
333.721
336.674
333.077
334.852
335.797
335.362
334.641
334.478
333.157
333.833
333.544
332.813
331.746
333.4
327.033
326.907
328.192
328.145
326.07
325.988
325.56
328.91
328.029
328.087
328.438
330.438
327.885
325.4
328.178
327.806
327.06
327.34
327.943
328.365
321.689
322.189
321.214
321.583
322.099
321.048
321.11
321.234
320.395
321.169
320.139
321.747
322.465
322.066
321.725
321.775
320.308
321.621
321.286
321.136
314.884
315.92
315.256
314.096
314.92
314.175
316.013
316.394
315.309
315.373
317.172
317.076
315.546
315.815
315.584
315.851
315.405
314.524
314.773
314.49
311.782
309.917
308.376
308.204
307.939
309.701
309.986
309.41
309.877
308.478
307.785
309.893
309.569
308.791
309.203
309.284
308.877
308.843
309.429
309.975
302.466
304.52
304.074
301.992
302.593
304.517
303.089
301.179
302.872
303.988
303.525
302.718
301.858
303.059
303.951
303.021
302.549
302.833
306.442
304.705
347.876
346.953
346.526
346.087
346.884
346.686
346.898
346.14
348.513
348.402
348.491
348.116
347.2
348.704
346.931
345.799
348.017
346.191
346.271
346.679
341.991
338.594
340.946
338.842
339.736
340.371
342.848
340.347
342.351
340.424
340.688
342.47
340.651
343.081
339.74
340.402
339.26
339.973
338.546
340.97
334.335
334.069
333.521
333.454
334.681
335.306
334.042
334.187
336.41
336.573
336.677
335.924
336.633
336.068
336.884
333.238
334.218
333.126
333.396
335.795
330.755
327.582
326.776
328.651
327.345
327.075
326.439
330.848
329.147
328.447
330.298
329.883
328.867
328.139
326.46
326.988
328.58
327.091
329.325
326.28
321.732
322.634
320.684
322.14
320.466
322.124
323.324
322.101
321.892
321.609
322.483
323.676
322.025
321.864
324.808
320.432
320.224
319.636
321.634
322.526
314.954
316.051
315.22
316.517
313.989
314.22
315.048
315.072
315.777
316.865
318.337
317.014
314.912
315.089
316.583
315.648
314.587
315.19
315.213
315.323
309.58
309.765
308.802
308.298
309.77
310.24
310.553
309.566
310.091
309.239
309.737
307.244
308.725
310.48
310.558
308.226
308.646
310.678
309.55
309.909
304.486
303.09
303.383
303.079
304.087
303.063
302.347
301.271
303.569
303.399
300.761
302.548
303.417
302.99
302.227
303.197
301.273
302.712
303.818
301.935
349.28
348.435
345.943
347.666
346.672
348.398
346.527
349.426
349.722
348.791
349.777
349.155
349.796
349.19
350.673
347.825
347.152
348.439
347.63
349.086
341.844
340.946
341.813
341.974
342.369
343.114
343.274
342.068
343.011
343.912
343.238
343.404
342.302
344.073
341.903
341.536
342.448
340.779
342.43
341.988
336.058
335.545
335.334
335.56
334.739
335.17
336.449
336.915
337.067
337.007
337.011
337.017
337.874
337.137
335.25
334.273
335.592
335.363
334.449
334.503
330.686
330.341
328.209
328.968
329.071
329.152
329.278
327.458
330.146
329.918
330.898
329.488
329.967
329.856
329.175
327.143
327.574
328.35
327.737
329.48
323.933
323.521
321.255
320.648
321.481
324.212
323.314
322.355
323.695
324.566
321.711
321.436
324.898
323.689
323.178
321.596
322.152
322.193
322.694
319.717
315.066
318.524
315.717
316.458
317.996
315.775
316.397
317.48
317.3
317.351
315.442
317.387
316.343
318.005
316.121
317.493
316.203
315.88
314.376
319.399
310.021
310.13
309.573
310.76
309.028
311.041
309.892
309.681
309.882
311.245
311.075
308.796
309.208
310.638
310.212
307.477
308.892
307.016
310.467
309.333
301.372
303.872
303.627
304.734
304.284
302.05
302.183
303.855
303.958
302.985
302.248
302.605
303.548
303.524
302.747
302.137
302.575
303.801
303.21
303.566
349.509
350.784
348.007
349.707
348.67
349.117
350.371
349.702
349.855
350.16
353.038
352.236
352.046
353.534
349.237
348.018
348.878
350.819
348.976
349.3
343.293
341.478
343.602
341.777
342.843
342.407
344.047
342.452
343.595
342.69
343.117
343.881
342.463
342.784
342.014
344.132
341.506
341.681
340.492
341.271
336.079
337.043
335.384
335.345
336.15
335.834
336.513
339.438
337.569
337.601
337.641
337.294
338.043
335.269
336.242
336.764
334.277
337.759
336.422
336.599
329.692
329.966
329.221
329.981
330.346
329.742
329.533
331.718
330.203
332.309
331.704
331.382
331.071
331.827
328.072
329.315
328.673
328.779
329.956
329.837
324.163
323.167
322.738
324.815
324.77
323.811
323.793
324.149
323.185
323.876
323.336
325.116
323.737
324.41
322.533
323.289
322.736
321.825
323.496
324.45
316.548
316.857
316.201
316.918
316.721
315.28
316.262
316.79
317.349
315.688
316.261
316.114
317.371
316.999
315.921
314.368
316.17
315.328
316.232
315.886
309.169
311.096
309.059
308.72
308.64
308.817
307.566
310.501
308.87
310.465
310.777
310.103
309.579
308.679
310.567
307.881
310.262
311.581
307.762
308.658
303.236
302.756
303.219
303.391
302.056
302.84
302.952
304.622
304.061
304.852
302.787
303.605
302.671
303.457
301.433
303.353
301.886
303.723
302.519
306.028
351.683
351.385
350.703
349.948
352.132
349.126
351.436
350.871
352.238
351.482
351.081
352.188
352.711
353.217
351.012
349.208
350.039
351.212
350.674
352.319
345.719
344.372
344.402
343.866
342.715
343.061
343.079
345.077
345.462
345.303
346.364
344.941
346.325
345.394
344.142
344.848
344.223
343.898
344.441
346.459
336.707
338
338.029
337.265
335.218
337.106
337.321
337.285
338.342
339.831
338.828
338.621
339.262
338.95
336.2
335.18
336.073
336.793
337.319
338.537
331.07
329.385
330.408
331.286
328.899
330.12
332.292
330.155
331.315
329.085
333.156
331.013
330.811
330.845
331.28
328.992
328.713
329.859
330.964
329.635
324.09
323.836
324.379
323.32
323.018
322.61
326.455
324.707
322.433
324.734
324.584
323.61
324.922
324.132
323.768
323.74
322.353
324.132
322.722
324.511
318.035
317.509
319.24
317.696
316.744
316.033
317.986
317.601
317.048
317.791
316.499
317.172
318.997
318.564
318.059
316.559
315.359
315.788
317.032
317.368
309.82
310.789
308.975
308.987
309.258
311.269
311.149
311.327
309.013
309.105
309.968
311.377
310.812
310.92
311.829
310.869
310.76
310.541
311.552
310.983
302.433
303.46
304.609
302.315
302.787
299.942
301.904
303.096
302.238
303.398
303.714
303.116
301.759
303.452
302.977
303.242
303.321
303.313
303.234
301.88
352.201
352.996
351.201
351.77
353.316
352.576
353.798
352.7
352.818
354.618
354.138
353.905
355.2
354.036
351.222
353.331
353.343
352.43
351.684
353.771
346.435
343.996
345.09
344.873
342.984
344.969
347.013
344.979
348.079
346.149
345.851
346.586
345.961
346.363
345.403
346.284
345.191
346.132
344.237
346.857
339.111
337.164
337.874
339.878
338.017
336.009
339.521
337.792
338.479
340.912
338.651
340.873
337.963
340.043
340.074
337.677
336.783
337.392
339.093
337.187
333.249
332.613
331.202
331.167
330.428
331.005
332.697
332.961
332.995
333.722
332.335
332.845
332.259
330.793
331.36
331.249
331.536
330.049
331.122
332.096
325.248
324.975
325.027
323.878
323.721
323.372
323.862
324.055
325.285
325.859
324.488
325.943
324.104
325.377
324.595
324.187
323.018
325.338
324.347
324.047
317.732
315.884
316.806
317.87
316.445
318.894
318.907
316.893
316.515
317.634
316.235
318.268
316.828
318.847
317.176
316.971
318.224
316.411
319.018
318.742
312.403
311.251
309.466
310.13
310.761
309.729
309.523
310.099
310.744
309.198
308.183
310.822
310.289
308.046
312.214
311.405
309.776
309.943
311.116
310.983
301.021
302.816
305.459
302.827
304.202
305.242
302.461
303.305
302.468
304.053
302.686
304.506
301.373
303.232
304.471
301.315
303.693
301.669
303.384
302.928
354.384
353.283
355.243
352.688
354.046
352.353
354.563
353.46
355.118
355.307
355.217
353.752
355.924
354.605
353.868
352.981
353.282
351.152
354.91
353.91
346.983
347.768
346.506
347.774
346.137
347.448
347.783
348.861
347.28
347.851
348.633
348.253
346.639
347.314
345.977
345.098
346.405
347.865
348.192
347.295
340.056
341.078
338.902
340.302
339.64
338.849
338.396
339.165
339.581
339.842
338.631
340.987
339.547
337.387
339.489
339.898
339.232
337.76
339.162
339.997
331.445
331.21
332.521
330.064
333.597
332.784
333.374
331.125
332.08
334.448
332.82
333.546
334.969
331.686
331.658
333.054
331.667
333.006
330.864
333.541
325.172
327.323
324.494
324.873
324.023
324.199
326.951
325.357
324.854
325.172
325.512
326.534
324.804
324.56
323.088
325.23
324
326.17
326.713
326.063
317.513
317.155
316.769
318.221
317.141
318.405
318.011
319.136
317.157
317.757
318.291
318.679
318.235
316.531
317.407
318.983
316.224
317.636
319.2
317.624
312.65
310.156
310.414
310.569
311.194
309.194
309.426
313.069
309.424
311.432
311.858
309.701
310.826
311.542
312.032
311.513
310.567
309.275
310.751
311.128
302.851
304.978
304.437
303.428
302.549
302.221
304.088
306.204
303.05
302.531
304.713
303.26
301.504
303.49
304.945
303.818
304.662
304.528
303.37
304.041
356.833
356.02
355.961
354.209
355.619
354.389
354.774
355.453
356.947
353.932
354.382
354.326
356.279
356.653
354.47
355.325
353.72
354.285
354.575
355.064
348.884
348.035
347.491
348.436
346.751
348.889
346.979
348.756
347.267
348.852
349.01
347.313
348.229
347.404
348.482
347.984
347.617
347.748
347.374
350.098
342.457
341.13
341.119
339.606
339.2
340.12
338.379
339.2
339.853
340.237
341.629
340.999
341.238
340.964
340.221
340.361
338.582
339.472
341.161
341.23
334.503
334.522
334.842
333.174
333.136
332.473
331.392
331.837
332.381
333.976
332.509
333.061
331.985
332.446
329.917
332.493
331.99
333.133
334.67
333.299
325.482
325.516
325.061
323.826
325.956
325.039
326.912
325.713
324.265
324.159
326.483
325.775
325.229
324.393
325.929
323.725
325.193
326.445
325.807
324.402
321.73
319.204
317.635
319.276
318.386
319.461
316.372
318.096
318.616
319.227
318.367
317.371
319.063
318.841
317.681
318.11
319.92
320.394
318.286
319.701
311.077
312.181
312.766
311.27
311.551
311.186
310.383
311.432
310.282
312.347
309.964
312.121
311.564
311.561
309.197
309.954
311.475
311.682
310.897
311
302.546
304.214
304.26
303.568
304.087
302.318
304.388
303.272
304.039
303.603
303.629
305.655
302.582
303.404
304.69
301.908
303.428
303.254
302.878
303.489
358.595
356.989
359.261
356.48
355.429
356.728
354.167
356.532
356.677
357.049
356.221
354.988
355.912
356.643
356.742
357.686
356.51
358.075
355.482
357.476
350.264
350.538
350.264
349.697
348.191
348.639
347.325
347.915
348.089
349.37
350.005
349.614
349.742
350.243
349.234
349.309
348.655
348.039
348.81
349.721
342.499
342.114
342.886
340.892
340.158
341.624
341.606
340.092
343.941
343.046
340.36
342.231
340.941
340.862
340.825
341.106
341.279
339.787
341.219
340.7
336.452
334.755
334.424
333.464
332.357
333.147
332.704
333.854
335.612
333.473
334.45
333.445
335.448
335.137
334.1
332.724
332.692
333.703
332.488
334.747
327.678
327.207
325.852
326.694
326.402
327.029
328.368
327.233
327.088
325.467
326.191
327.458
326.39
326.995
325.614
325.859
325.961
324.8
326.51
326.819
319.027
319.847
318.308
320.459
318.075
319.28
316.851
319.498
318.344
317.951
320.261
318.923
319.176
317.25
318.943
319.879
319.395
317.795
319.357
317.195
313.262
311.281
309.9
310.615
311.832
311.832
311.087
312.545
312.228
310.644
311.691
310.478
309.821
310.765
312.383
311.602
310.559
309.991
310.896
311.322
304.644
302.193
304.513
304.397
303.485
302.995
304.049
305.278
303.493
304.985
302.646
305.264
302.551
304.115
303.201
301.704
304.064
304.344
304.601
302.549
361.554
357.465
359.409
358.527
359.259
356.846
358.158
357.017
358.629
357.419
356.55
359.71
356.476
358.033
357.066
356.889
357.422
358.323
358.656
358.94
351.596
351.7
349.23
351.413
347.092
352.124
350.052
352.542
351.671
352.053
352.48
349.575
352.187
349.034
352.14
349.253
351.593
349.216
351.318
351.939
344.597
342.918
343.018
341.62
339.648
342.182
340.564
340.843
343.544
341.645
343.755
341.377
344.297
341.894
340.725
342.941
340.969
341.004
340.763
342.236
335.822
334.837
334.529
335.743
333.967
333.758
335.637
335.613
335.206
334.779
334.869
336.579
334.761
334.941
335.396
334.833
333.853
334.672
333.301
335.89
327.142
328.809
327.571
325.487
326.445
327.443
327.566
327.21
325.575
327.036
326.738
326.501
326.966
327.83
325.476
326.423
325.345
326.333
327.878
326.17
320.161
318.672
317.997
318.711
319.66
320.108
319.262
319.097
318.683
318.801
319.621
319.523
320.809
318.142
318.614
318.883
319.289
318.935
319.078
318.655
311.632
313.406
311.753
312.576
310.726
312.248
311.824
310.877
313.35
311.304
309.415
311.197
310.006
312.161
311.221
312.521
310.005
311.196
310.748
310.704
304.422
303.585
303.975
304.924
302.796
305.735
303.632
303.091
303.432
304.884
304.582
305.256
304.388
303.14
301.968
302.126
303.066
303.627
306.124
304.976
360.522
361.815
358.63
358.785
358.652
358.918
358.692
357.982
358.556
358.031
359.978
358.248
359.459
357.386
359.677
358.909
359.535
358.873
359.127
359.629
351.117
353.239
350.719
351.024
350.705
350.918
351.184
350.892
351.76
349.676
350.216
349.187
350.94
348.725
350.76
349.613
351.522
351.456
351.001
354.209
345.203
345.579
344.652
343.045
344.198
343.649
342.902
342.502
340.97
344.221
342.051
343.447
342.8
342.311
344.668
342.96
342.258
342.02
344.722
341.604
334.71
336.517
334.034
334.423
334.211
336.157
333.798
334.644
335.953
335.029
334.257
335.187
335.889
334.684
334.709
334.99
333.955
334.893
334.896
338.304
326.156
326.21
326.592
327.237
326.743
327.364
326.317
327.205
327.66
326.723
328.894
326.85
327.013
327.341
327.867
327.881
325.893
326.582
327.423
327.322
319.617
321.224
321.867
319.132
319.431
318.798
319.613
317.605
320.33
319.672
319.057
321.427
318.488
319.647
318.679
319.18
319.26
321.21
318.922
319.448
312.225
312.517
313.447
310.977
312.047
311.542
310.112
311.235
311.926
312.99
309.479
311.706
311.389
309.649
311.909
311.951
311.559
312.323
311.56
310.996
304.797
303.092
305.616
304.777
305.547
302.804
304.046
302.769
303.728
303.336
305.168
303.434
301.72
304.404
304.103
303.578
302.255
304.572
304.555
305.598
)
;

boundaryField
{
    hotSide
    {
        type            fixedGradient;
        gradient        nonuniform List<scalar> 
400
(
321.511
322.87
325.591
329.677
335.133
341.965
350.181
359.788
370.794
383.208
397.037
412.289
428.971
447.088
466.647
487.651
510.105
534.011
559.372
586.191
323.738
325.08
327.767
331.802
337.194
343.949
352.078
361.591
372.498
384.81
398.537
413.687
430.268
448.289
467.755
488.672
511.043
534.872
560.161
586.913
326.149
327.47
330.116
334.091
339.406
346.071
354.099
363.503
374.296
386.491
400.101
415.136
431.606
449.52
468.885
489.706
511.988
535.735
560.948
587.63
328.704
330
332.597
336.503
341.73
348.292
356.205
365.485
376.15
388.215
401.695
416.604
432.954
450.753
470.009
490.73
512.919
536.579
561.714
588.325
331.33
332.599
335.142
338.97
344.099
350.546
358.332
367.477
378.003
389.928
403.271
418.047
434.27
451.949
471.095
491.712
513.807
537.382
562.439
588.978
333.918
335.158
337.643
341.389
346.414
352.74
360.392
369.397
379.779
391.562
404.765
419.407
435.503
453.065
472.101
492.618
514.622
538.114
563.096
589.569
336.321
337.531
339.959
343.622
348.544
354.751
362.274
371.142
381.385
393.031
406.101
420.618
436.595
454.047
472.983
493.409
515.33
538.747
563.663
590.076
338.36
339.543
341.92
345.509
350.339
356.44
363.847
372.595
382.718
394.244
407.2
421.608
437.485
454.844
473.695
494.045
515.897
539.253
564.114
590.478
339.852
341.015
343.352
346.885
351.645
357.665
364.985
373.643
383.675
395.113
407.984
422.312
438.116
455.407
474.197
494.491
516.294
539.606
564.428
590.758
340.643
341.795
344.11
347.613
352.334
358.311
365.584
374.193
384.176
395.567
408.393
422.679
438.443
455.699
474.456
494.722
516.498
539.788
564.589
590.901
340.643
341.795
344.11
347.613
352.334
358.311
365.584
374.193
384.176
395.567
408.393
422.679
438.443
455.699
474.456
494.722
516.498
539.788
564.589
590.901
339.852
341.015
343.352
346.885
351.645
357.665
364.985
373.643
383.675
395.113
407.984
422.312
438.116
455.407
474.197
494.491
516.294
539.606
564.428
590.758
338.36
339.543
341.92
345.509
350.339
356.44
363.847
372.595
382.718
394.244
407.2
421.608
437.485
454.844
473.695
494.045
515.897
539.253
564.114
590.478
336.321
337.531
339.959
343.622
348.544
354.751
362.274
371.142
381.385
393.031
406.101
420.618
436.595
454.047
472.983
493.409
515.33
538.747
563.663
590.076
333.918
335.158
337.643
341.389
346.414
352.74
360.392
369.397
379.779
391.562
404.765
419.407
435.503
453.065
472.101
492.618
514.622
538.114
563.096
589.569
331.33
332.599
335.142
338.97
344.099
350.546
358.332
367.477
378.003
389.928
403.271
418.047
434.27
451.949
471.095
491.712
513.807
537.382
562.439
588.978
328.704
330
332.597
336.503
341.73
348.292
356.205
365.485
376.15
388.215
401.695
416.604
432.954
450.753
470.009
490.73
512.919
536.579
561.714
588.325
326.149
327.47
330.116
334.091
339.406
346.071
354.099
363.503
374.296
386.491
400.101
415.136
431.606
449.52
468.885
489.706
511.988
535.735
560.948
587.63
323.738
325.08
327.767
331.802
337.194
343.949
352.078
361.591
372.498
384.81
398.537
413.687
430.268
448.289
467.755
488.672
511.043
534.872
560.161
586.913
321.511
322.87
325.591
329.677
335.133
341.965
350.181
359.788
370.794
383.208
397.037
412.289
428.971
447.088
466.647
487.651
510.105
534.011
559.372
586.191
)
;
    }
    coldSide
    {
        type            mixed;
        refValue        uniform 300;
        refGradient     uniform 0;
        valueFraction   uniform 0.991591;
        source          uniform 0;
        value           nonuniform List<scalar> 
400
(
300.019
300.015
300.008
300.026
300.022
300.032
300.025
300.012
300.021
300.021
300.038
300.012
300.027
300.02
300.009
300.024
300.021
300.039
300.037
300.04
300.018
300.02
300.021
300.011
300.022
300.031
300.013
300.026
300.025
300.038
300.026
300.033
300.023
300.029
300.024
300.042
300.035
300.018