/*--------------------------------*- C++ -*----------------------------------*\
| =========                 |                                                 |
| \\      /  F ield         | OpenFOAM: The Open Source CFD Toolbox           |
|  \\    /   O peration     | Version:  2212                                  |
|   \\  /    A nd           | Website:  www.openfoam.com                      |
|    \\/     M anipulation  |                                                 |
\*---------------------------------------------------------------------------*/
FoamFile
{
    version     2.0;
    format      ascii;
    arch        "LSB;label=32;scalar=64";
    class       volScalarField;
    location    "0";
    object      stateMean;
}
// * * * * * * * * * * * * * * * * * * * * * * * * * * * * * * * * * * * * * //

dimensions      [0 0 0 1 0 0 0];

internalField   nonuniform List<scalar> 
3200
(
341.668
342.526
343.445
344.279
344.972
345.649
346.166
346.531
346.728
346.778
346.764
346.588
346.243
345.789
345.214
344.425
343.681
342.663
341.77
340.812
336.205
336.976
337.697
338.526
339.11
339.626
340.031
340.465
340.57
340.599
340.546
340.428
340.21
339.819
339.288
338.688
338.001
337.067
336.288
335.471
330.683
331.331
332.004
332.535
333.139
333.588
333.952
334.24
334.451
334.407
334.429
334.315
334.079
333.718
333.239
332.743
332.177
331.552
330.813
330.18
325.149
325.654
326.16
326.708
327.172
327.531
327.853
328.069
328.161
328.304
328.216
328.119
327.989
327.661
327.383
326.888
326.347
325.81
325.249
324.702
319.574
319.978
320.397
320.795
321.133
321.487
321.715
321.88
321.916
322.021
321.994
321.913
321.784
321.57
321.291
320.849
320.548
320.062
319.646
319.288
314.059
314.295
314.66
314.898
315.131
315.347
315.545
315.657
315.679
315.716
315.761
315.66
315.568
315.359
315.259
315.018
314.733
314.459
314.078
313.786
308.415
308.589
308.736
308.944
309.067
309.251
309.366
309.437
309.426
309.486
309.479
309.399
309.422
309.295
309.128
309.029
308.802
308.622
308.486
308.299
302.807
302.872
303.017
303.004
303.015
303.015
303.137
303.17
303.197
303.238
303.195
303.143
303.148
303.15
303.071
303.007
303.017
302.843
302.862
302.829
342.282
343.261
344.184
345.055
345.826
346.493
346.959
347.352
347.522
347.584
347.586
347.366
347.024
346.614
346.015
345.289
344.379
343.484
342.414
341.596
336.778
337.437
338.377
339.151
339.746
340.326
340.719
341.068
341.266
341.375
341.283
341.073
340.798
340.439
339.903
339.278
338.515
337.757
336.843
336.037
331.157
331.759
332.478
333.097
333.7
334.123
334.487
334.754
334.951
334.989
334.975
334.866
334.548
334.269
333.845
333.365
332.645
331.937
331.241
330.547
325.551
326.007
326.587
327.194
327.576
327.954
328.201
328.486
328.675
328.637
328.625
328.558
328.402
328.07
327.75
327.295
326.795
326.148
325.518
325.139
319.909
320.26
320.695
321.102
321.51
321.789
322.039
322.24
322.256
322.309
322.256
322.197
322.094
321.865
321.566
321.206
320.856
320.371
319.95
319.512
314.208
314.433
314.825
315.105
315.311
315.599
315.699
315.871
315.935
315.997
315.966
315.933
315.739
315.663
315.497
315.149
314.862
314.593
314.25
313.987
308.557
308.751
308.901
309.043
309.292
309.374
309.475
309.533
309.587
309.597
309.608
309.613
309.496
309.384
309.292
309.149
308.99
308.798
308.64
308.415
302.856
302.914
302.98
302.978
303.094
303.149
303.195
303.241
303.192
303.206
303.288
303.213
303.224
303.148
303.039
303.085
302.981
302.966
302.922
302.891
343.261
344.198
345.052
346.058
346.832
347.494
348.029
348.379
348.622
348.66
348.647
348.406
348.14
347.592
346.979
346.228
345.365
344.498
343.293
342.433
337.566
338.326
339.152
339.969
340.667
341.232
341.635
341.91
342.073
342.238
342.178
342.015
341.743
341.294
340.761
340.148
339.391
338.529
337.658
336.882
331.87
332.522
333.19
333.822
334.385
334.898
335.185
335.572
335.741
335.749
335.699
335.572
335.335
335.019
334.515
333.936
333.384
332.649
331.904
331.191
326.061
326.596
327.148
327.661
328.157
328.525
328.887
329.071
329.249
329.276
329.203
329.184
328.945
328.668
328.254
327.889
327.298
326.717
326.162
325.535
320.383
320.674
321.128
321.589
321.913
322.244
322.443
322.634
322.714
322.759
322.779
322.684
322.48
322.301
322.016
321.644
321.269
320.74
320.439
319.925
314.467
314.849
315.129
315.391
315.657
315.879
316.101
316.158
316.252
316.285
316.275
316.26
316.102
315.995
315.786
315.516
315.222
314.833
314.582
314.238
308.678
308.91
309.093
309.301
309.357
309.562
309.647
309.673
309.782
309.756
309.771
309.775
309.673
309.639
309.434
309.274
309.099
308.949
308.755
308.553
302.945
302.899
303.03
303.061
303.168
303.23
303.227
303.291
303.284
303.29
303.27
303.221
303.169
303.191
303.195
303.167
303.092
303.077
302.916
302.883
344.272
345.205
346.135
347.098
347.867
348.568
349.119
349.423
349.722
349.814
349.732
349.556
349.204
348.709
348.087
347.282
346.452
345.468
344.389
343.421
338.487
339.204
340.074
340.839
341.632
342.199
342.544
342.882
343.059
343.184
343.148
342.965
342.688
342.209
341.664
341.006
340.287
339.423
338.415
337.67
332.553
333.244
333.967
334.64
335.217
335.678
336.052
336.271
336.494
336.567
336.515
336.494
336.181
335.755
335.278
334.699
334.106
333.306
332.575
331.959
326.665
327.193
327.807
328.363
328.852
329.201
329.54
329.737
329.852
330.031
329.934
329.887
329.668
329.324
328.912
328.506
327.945
327.361
326.726
326.236
320.732
321.107
321.612
322.055
322.438
322.737
322.947
323.181
323.329
323.374
323.308
323.207
323.102
322.794
322.551
322.136
321.734
321.253
320.786
320.378
314.82
315.155
315.441
315.773
315.997
316.299
316.425
316.561
316.604
316.654
316.721
316.623
316.45
316.34
316.087
315.839
315.529
315.232
314.864
314.557
308.941
309.053
309.308
309.427
309.576
309.777
309.9
309.933
309.982
310.069
309.966
309.969
309.878
309.821
309.66
309.519
309.298
309.174
308.985
308.767
302.912
303.026
303.133
303.193
303.239
303.274
303.271
303.388
303.262
303.33
303.359
303.334
303.295
303.317
303.273
303.221
303.129
303.062
302.997
302.949
345.287
346.295
347.248
348.264
348.956
349.64
350.209
350.6
350.81
350.864
350.859
350.689
350.272
349.706
349.17
348.325
347.37
346.428
345.314
344.35
339.339
340.003
340.945
341.719
342.439
343.064
343.571
343.897
344.083
344.131
344.031
343.899
343.59
343.158
342.628
341.908
341.081
340.288
339.357
338.528
333.264
333.872
334.603
335.357
335.969
336.508
336.823
337.063
337.33
337.373
337.337
337.177
336.945
336.544
336.166
335.479
334.846
334.172
333.248
332.68
327.273
327.734
328.386
328.909
329.429
329.828
330.157
330.356
330.558
330.561
330.625
330.392
330.272
329.882
329.556
329.07
328.568
327.948
327.306
326.73
321.221
321.591
322.149
322.555
322.908
323.194
323.467
323.7
323.771
323.869
323.838
323.725
323.458
323.316
323.084
322.666
322.201
321.734
321.228
320.861
315.144
315.437
315.772
316.143
316.375
316.597
316.776
316.92
316.988
317.017
316.987
316.984
316.82
316.635
316.395
316.212
315.925
315.571
315.149
314.935
309.114
309.294
309.486
309.606
309.882
309.941
310.114
310.159
310.237
310.211
310.219
310.257
310.096
310.017
309.891
309.749
309.557
309.331
309.112
308.936
303.029
303.12
303.196
303.237
303.213
303.367
303.403
303.434
303.436
303.441
303.434
303.371
303.399
303.351
303.378
303.257
303.258
303.114
303.041
302.929
346.278
347.183
348.215
349.201
350.022
350.727
351.239
351.611
351.857
352.033
351.901
351.67
351.337
350.824
350.09
349.313
348.458
347.376
346.261
345.315
340.098
340.99
341.764
342.659
343.339
343.964
344.414
344.804
344.972
345.084
345.066
344.887
344.552
344.07
343.518
342.784
342.023
341.111
340.12
339.353
334.02
334.665
335.392
336.119
336.725
337.223
337.595
337.864
338.115
338.16
338.233
338.037
337.686
337.324
336.83
336.243
335.558
334.802
333.986
333.279
327.843
328.357
328.98
329.613
330.01
330.52
330.819
331.004
331.167
331.226
331.258
331.112
330.904
330.539
330.163
329.668
329.161
328.521
327.904
327.331
321.661
322.12
322.588
322.964
323.458
323.719
323.981
324.136
324.285
324.245
324.25
324.18
323.981
323.791
323.458
323.052
322.605
322.233
321.665
321.343
315.446
315.805
316.083
316.502
316.712
316.927
317.127
317.276
317.338
317.429
317.349
317.289
317.193
316.996
316.789
316.558
316.219
315.816
315.464
315.149
309.207
309.573
309.632
309.901
310.029
310.169
310.295
310.347
310.433
310.469
310.43
310.345
310.275
310.237
310.047
309.876
309.807
309.54
309.3
309.124
303.134
303.236
303.233
303.238
303.386
303.443
303.453
303.487
303.506
303.476
303.541
303.456
303.472
303.447
303.46
303.306
303.28
303.163
303.141
303.088
347.1
348.143
349.151
350.105
351.036
351.675
352.287
352.61
352.911
352.985
352.905
352.723
352.261
351.788
351.169
350.282
349.276
348.242
347.193
346.194
340.95
341.711
342.639
343.509
344.277
344.869
345.342
345.627
345.844
345.951
345.915
345.626
345.434
344.933
344.321
343.657
342.83
341.946
341.016
340.02
334.657
335.288
336.09
336.81
337.403
337.949
338.385
338.695
338.902
338.945
338.87
338.709
338.429
338.04
337.524
336.977
336.279
335.489
334.66
333.926
328.326
328.927
329.539
330.113
330.633
331.094
331.353
331.614
331.808
331.859
331.841
331.662
331.526
331.166
330.776
330.285
329.684
329.125
328.427
327.816
322.082
322.533
322.988
323.515
323.844
324.178
324.488
324.584
324.732
324.812
324.786
324.692
324.505
324.202
324.012
323.546
323.104
322.63
322.116
321.645
315.808
316.088
316.504
316.739
317.04
317.258
317.514
317.654
317.652
317.738
317.723
317.637
317.559
317.361
317.158
316.803
316.538
316.18
315.826
315.555
309.495
309.665
309.819
310.057
310.221
310.403
310.509
310.498
310.745
310.701
310.649
310.574
310.534
310.412
310.32
310.159
309.938
309.714
309.477
309.311
303.219
303.2
303.324
303.332
303.473
303.541
303.484
303.506
303.591
303.55
303.618
303.591
303.585
303.415
303.489
303.463
303.332
303.257
303.175
303.101
348.045
349.006
350.072
350.996
351.911
352.606
353.148
353.61
353.873
353.951
353.843
353.605
353.317
352.778
351.994
351.197
350.184
349.219
347.9
346.978
341.655
342.418
343.424
344.2
344.906
345.643
346.07
346.38
346.68
346.791
346.727
346.465
346.198
345.766
345.205
344.416
343.613
342.634
341.63
340.68
335.345
335.916
336.673
337.468
338.106
338.602
339.028
339.363
339.543
339.563
339.586
339.331
339.148
338.728
338.208
337.665
336.905
336.097
335.283
334.576
328.853
329.413
330.031
330.591
331.177
331.601
331.923
332.25
332.377
332.404
332.324
332.244
332.024
331.702
331.31
330.815
330.198
329.587
328.956
328.266
322.504
322.862
323.406
323.795
324.253
324.655
324.924
325.074
325.243
325.276
325.198
325.134
324.949
324.682
324.361
323.964
323.494
323.047
322.468
322.027
316.071
316.374
316.662
317.028
317.398
317.584
317.741
317.909
318.046
318.064
318.016
317.881
317.75
317.604
317.367
317.151
316.859
316.382
316.087
315.768
309.656
309.797
310.004
310.284
310.388
310.548
310.668
310.779
310.804
310.768
310.802
310.791
310.744
310.623
310.439
310.266
310.082
309.925
309.68
309.559
303.198
303.378
303.397
303.471
303.484
303.55
303.479
303.546
303.684
303.585
303.6
303.615
303.603
303.489
303.542
303.412
303.345
303.326
303.257
303.17
348.71
349.771
350.859
351.842
352.716
353.491
354.06
354.503
354.697
354.745
354.809
354.512
354.079
353.599
352.809
352.039
350.966
349.972
348.746
347.731
342.298
343.177
344.106
344.958
345.697
346.342
346.838
347.162
347.451
347.546
347.473
347.297
346.957
346.502
345.81
345.189
344.287
343.327
342.404
341.335
335.801
336.535
337.332
338.009
338.723
339.217
339.631
340.014
340.135
340.216
340.151
339.985
339.84
339.318
338.793
338.198
337.451
336.68
335.921
335.038
329.331
329.93
330.462
331.178
331.662
332.109
332.507
332.748
332.913
332.914
332.895
332.708
332.49
332.186
331.8
331.28
330.721
330.104
329.347
328.714
322.822
323.205
323.788
324.219
324.631
324.99
325.269
325.46
325.517
325.685
325.591
325.525
325.326
325.073
324.778
324.414
323.884
323.419
322.809
322.347
316.381
316.642
316.976
317.349
317.564
317.889
318.036
318.176
318.302
318.285
318.372
318.181
318.13
317.905
317.642
317.385
317.136
316.674
316.288
316.014
309.849
310.006
310.194
310.377
310.512
310.8
310.864
310.926
310.987
311.027
311.005
310.997
310.877
310.764
310.615
310.482
310.244
310.044
309.843
309.588
303.271
303.249
303.418
303.489
303.546
303.588
303.692
303.691
303.708
303.65
303.694
303.615
303.604
303.611
303.503
303.52
303.463
303.328
303.308
303.139
349.445
350.395
351.558
352.601
353.475
354.246
354.812
355.277
355.481
355.607
355.55
355.319
354.878
354.377
353.591
352.777
351.819
350.592
349.444
348.321
343.011
343.794
344.739
345.592
346.327
347.005
347.535
347.873
348.116
348.265
348.178
347.976
347.66
347.087
346.51
345.802
344.886
343.936
342.882
341.947
336.316
337.038
337.956
338.605
339.231
339.815
340.237
340.595
340.783
340.844
340.869
340.622
340.244
339.916
339.372
338.809
338.057
337.204
336.294
335.533
329.752
330.335
331.002
331.617
332.141
332.556
332.966
333.214
333.345
333.422
333.411
333.324
332.985
332.649
332.232
331.776
331.085
330.454
329.688
329.121
323.19
323.608
324.087
324.53
324.975
325.323
325.702
325.853
325.979
325.985
325.997
325.886
325.716
325.397
325.138
324.684
324.235
323.705
323.253
322.681
316.517
316.837
317.254
317.587
317.891
318.09
318.329
318.418
318.543
318.568
318.613
318.415
318.308
318.148
317.942
317.692
317.36
316.934
316.586
316.221
309.999
310.117
310.409
310.493
310.733
310.891
310.96
311.089
311.071
311.158
311.188
311.055
311.091
310.914
310.78
310.604
310.413
310.226
309.937
309.737
303.349
303.411
303.481
303.539
303.568
303.68
303.674
303.744
303.675
303.771
303.724
303.718
303.743
303.676
303.632
303.55
303.466
303.36
303.361
303.251
350.051
351.111
352.22
353.285
354.222
354.999
355.499
355.956
356.233
356.346
356.238
355.996
355.581
355.025
354.32
353.411
352.476
351.232
350.095
348.901
343.399
344.313
345.291
346.226
347.001
347.615
348.091
348.584
348.731
348.782
348.729
348.615
348.252
347.718
347.142
346.352
345.495
344.487
343.403
342.556
336.842
337.5
338.343
339.088
339.835
340.308
340.695
341.032
341.297
341.31
341.31
341.079
340.846
340.44
339.817
339.284
338.523
337.694
336.782
336.037
330.112
330.798
331.359
332.078
332.479
333.021
333.393
333.621
333.782
333.824
333.839
333.654
333.396
333.095
332.638
332.122
331.54
330.87
330.219
329.448
323.479
323.814
324.443
324.919
325.362
325.682
326.01
326.153
326.286
326.363
326.332
326.244
326
325.733
325.404
325.047
324.503
323.955
323.392
322.981
316.774
317.041
317.503
317.779
318.143
318.332
318.45
318.669
318.836
318.896
318.748
318.709
318.537
318.426
318.22
317.967
317.528
317.137
316.792
316.4
310.105
310.272
310.477
310.728
310.884
311.027
311.138
311.326
311.363
311.351
311.279
311.214
311.213
311.021
310.991
310.724
310.51
310.283
310.128
309.881
303.419
303.441
303.479
303.608
303.651
303.716
303.747
303.759
303.837
303.768
303.757
303.791
303.745
303.744
303.676
303.57
303.551
303.484
303.375
303.345
350.61
351.611
352.752
353.856
354.794
355.556
356.159
356.592
356.826
356.955
356.853
356.598
356.259
355.636
354.866
354.013
352.973
351.818
350.598
349.506
343.955
344.758
345.804
346.755
347.531
348.218
348.697
349.128
349.251
349.429
349.317
349.094
348.796
348.243
347.562
346.857
345.911
345.058
343.857
342.958
337.198
337.902
338.69
339.455
340.148
340.771
341.224
341.536
341.743
341.742
341.78
341.608
341.277
340.833
340.295
339.72
338.945
338.1
337.245
336.449
330.452
331.011
331.718
332.402
332.847
333.427
333.716
334.045
334.144
334.213
334.169
334.06
333.722
333.469
333.042
332.483
331.821
331.157
330.462
329.905
323.716
324.152
324.681
325.214
325.603
325.972
326.224
326.502
326.618
326.618
326.571
326.518
326.301
326.025
325.711
325.3
324.854
324.364
323.71
323.242
316.957
317.228
317.663
318.007
318.272
318.524
318.789
318.941
318.959
319.036
318.958
318.915
318.825
318.584
318.354
318.12
317.771
317.312
316.94
316.577
310.183
310.381
310.587
310.818
310.948
311.156
311.317
311.36
311.363
311.452
311.402
311.375
311.275
311.186
310.997
310.845
310.663
310.427
310.183
309.962
303.405
303.481
303.564
303.577
303.704
303.73
303.756
303.863
303.783
303.776
303.821
303.847
303.777
303.733
303.684
303.666
303.565
303.48
303.38
303.382
351.068
352.136
353.28
354.357
355.378
356.033
356.726
357.088
357.334
357.446
357.431
357.111
356.725
356.197
355.385
354.549
353.498
352.278
350.961
349.907
344.294
345.158
346.167
347.121
347.936
348.598
349.173
349.476
349.758
349.81
349.738
349.562
349.174
348.648
348.034
347.25
346.344
345.376
344.314
343.346
337.556
338.267
339.132
339.904
340.545
341.179
341.594
341.891
342.11
342.158
342.171
341.962
341.704
341.282
340.72
340.057
339.31
338.391
337.507
336.806
330.694
331.286
332.042
332.646
333.187
333.715
334.076
334.352
334.427
334.572
334.5
334.304
334.115
333.809
333.243
332.769
332.192
331.406
330.789
330.103
323.947
324.366
324.894
325.388
325.868
326.233
326.489
326.639
326.818
326.877
326.843
326.693
326.504
326.347
325.947
325.494
325.036
324.493
323.962
323.391
317.06
317.465
317.757
318.101
318.466
318.698
318.915
319.12
319.277
319.224
319.151
319.045
319.056
318.774
318.516
318.257
317.87
317.589
317.136
316.73
310.299
310.47
310.709
310.888
311.158
311.222
311.351
311.481
311.475
311.524
311.523
311.478
311.405
311.298
311.2
310.935
310.75
310.572
310.328
310.047
303.507
303.499
303.592
303.671
303.673
303.715
303.784
303.911
303.884
303.836
303.849
303.831
303.825
303.738
303.755
303.618
303.657
303.542
303.47
303.4
351.489
352.491
353.71
354.73
355.626
356.528
357.099
357.605
357.874
357.894
357.769
357.569
357.161
356.56
355.787
354.952
353.898
352.75
351.444
350.367
344.71
345.536
346.487
347.559
348.284
348.934
349.473
349.917
350.161
350.26
350.103
349.93
349.497
349.1
348.491
347.639
346.645
345.735
344.624
343.625
337.84
338.529
339.343
340.223
340.864
341.507
341.87
342.261
342.473
342.485
342.46
342.223
341.934
341.552
341.025
340.376
339.546
338.752
337.766
337.042
330.995
331.539
332.257
332.958
333.457
333.952
334.272
334.591
334.752
334.827
334.737
334.648
334.333
333.998
333.582
333.022
332.417
331.718
330.955
330.247
324.14
324.599
325.063
325.666
325.989
326.357
326.713
326.902
327.034
327.054
327.03
326.989
326.716
326.51
326.155
325.783
325.26
324.635
324.147
323.66
317.194
317.521
317.963
318.343
318.622
318.852
319.128
319.269
319.319
319.341
319.345
319.229
319.104
318.97
318.669
318.377
318.09
317.608
317.268
316.888
310.386
310.574
310.76
311.015
311.182
311.346
311.491
311.5
311.61
311.564
311.592
311.619
311.48
311.395
311.235
311.061
310.868
310.617
310.249
310.155
303.502
303.541
303.599
303.798
303.843
303.806
303.784
303.89
303.957
303.899
303.937
303.854
303.889
303.81
303.769
303.744
303.609
303.586
303.461
303.424
351.704
352.783
354.035
355.105
356.088
356.818
357.454
357.83
358.141
358.228
358.111
357.922
357.586
356.871
356.185
355.211
354.187
353.001
351.737
350.559
344.897
345.785
346.824
347.781
348.564
349.313
349.781
350.245
350.447
350.474
350.464
350.218
349.882
349.419
348.785
347.94
347.048
345.96
344.895
343.942
338.066
338.794
339.658
340.471
341.169
341.705
342.109
342.455
342.708
342.75
342.67
342.568
342.236
341.903
341.275
340.55
339.847
338.912
338.013
337.222
331.081
331.725
332.455
333.097
333.684
334.119
334.482
334.748
334.953
335.047
334.915
334.846
334.547
334.212
333.702
333.275
332.625
331.937
331.134
330.539
324.256
324.706
325.322
325.725
326.216
326.59
326.831
327.045
327.229
327.212
327.16
327.141
326.896
326.652
326.266
325.93
325.366
324.831
324.233
323.764
317.337
317.633
318.044
318.417
318.723
319.008
319.22
319.29
319.418
319.513
319.49
319.421
319.235
319.083
318.787
318.519
318.178
317.706
317.353
317.043
310.418
310.667
310.871
310.995
311.199
311.38
311.519
311.597
311.754
311.658
311.715
311.595
311.518
311.486
311.272
311.099
310.883
310.642
310.395
310.215
303.508
303.578
303.6
303.686
303.77
303.88
303.854
303.861
303.958
303.947
303.911
303.903
303.862
303.798
303.755
303.746
303.692
303.58
303.47
303.471
351.962
352.977
354.2
355.256
356.257
357.04
357.701
358.199
358.398
358.518
358.38
358.17
357.674
357.217
356.386
355.453
354.396
353.194
351.941
350.767
345.087
345.99
346.979
347.984
348.813
349.467
350.069
350.43
350.586
350.686
350.609
350.385
350.1
349.63
348.916
348.102
347.14
346.208
345.097
344.134
338.202
338.971
339.795
340.592
341.15
341.886
342.296
342.665
342.852
342.937
342.861
342.735
342.38
341.975
341.454
340.688
339.912
339.102
338.168
337.47
331.298
331.86
332.63
333.234
333.863
334.302
334.616
334.987
335.047
335.13
335.11
334.943
334.74
334.344
333.858
333.4
332.754
332.033
331.274
330.709
324.388
324.824
325.335
325.883
326.353
326.631
326.957
327.222
327.329
327.396
327.393
327.19
327.023
326.767
326.393
325.957
325.441
324.912
324.337
323.854
317.408
317.701
318.114
318.482
318.807
319.105
319.286
319.376
319.535
319.499
319.491
319.474
319.39
319.153
318.952
318.568
318.188
317.856
317.427
317.066
310.457
310.679
310.915
311.104
311.352
311.469
311.514
311.66
311.719
311.738
311.709
311.67
311.516
311.491
311.306
311.126
310.925
310.73
310.484
310.223
303.515
303.626
303.571
303.691
303.831
303.804
303.911
303.969
303.904
303.89
303.875
303.862
303.866
303.772
303.752
303.782
303.676
303.581
303.449
303.435
352.129
353.18
354.354
355.491
356.422
357.184
357.815
358.235
358.574
358.688
358.552
358.333
357.82
357.307
356.524
355.611
354.536
353.288
352.031
350.932
345.195
346.169
347.108
348.065
348.981
349.612
350.121
350.514
350.764
350.895
350.765
350.613
350.193
349.714
349.022
348.25
347.282
346.229
345.199
344.218
338.299
338.989
339.888
340.638
341.364
342.031
342.427
342.738
342.984
343.047
342.991
342.86
342.517
342.102
341.547
340.848
340.083
339.212
338.263
337.481
331.386
331.983
332.698
333.327
333.87
334.366
334.791
335.001
335.185
335.242
335.245
335.056
334.869
334.441
334.084
333.449
332.743
332.081
331.439
330.712
324.379
324.862
325.43
325.943
326.336
326.778
327.072
327.237
327.439
327.431
327.394
327.323
327.078
326.82
326.504
326.039
325.603
324.984
324.355
323.899
317.496
317.831
318.169
318.486
318.87
319.107
319.28
319.506
319.607
319.563
319.688
319.473
319.393
319.177
318.955
318.635
318.229
317.908
317.477
317.055
310.509
310.7
310.972
311.171
311.343
311.507
311.649
311.672
311.745
311.754
311.748
311.685
311.592
311.55
311.345
311.194
311.019
310.691
310.465
310.29
303.544
303.612
303.703
303.746
303.77
303.839
303.857
303.863
303.868
303.984
303.907
303.889
303.824
303.874
303.794
303.85
303.642
303.657
303.524
303.373
352.13
353.2
354.473
355.524
356.506
357.254
357.905
358.353
358.594
358.688
358.64
358.31
357.86
357.308
356.612
355.651
354.63
353.344
352.147
350.914
345.201
346.167
347.233
348.152
348.973
349.687
350.277
350.587
350.881
350.926
350.9
350.644
350.311
349.758
349.13
348.239
347.338
346.237
345.24
344.27
338.322
339.042
339.945
340.713
341.506
342.018
342.469
342.839
343.033
343.056
343.093
342.87
342.606
342.133
341.535
340.898
340.112
339.267
338.235
337.481
331.372
331.978
332.671
333.361
333.969
334.453
334.808
335.061
335.24
335.227
335.211
335.12
334.871
334.532
334.041
333.432
332.838
332.142
331.356
330.735
324.411
324.875
325.424
325.97
326.447
326.774
327.065
327.32
327.41
327.472
327.405
327.27
327.092
326.848
326.492
326.054
325.578
325.045
324.403
323.958
317.451
317.769
318.22
318.546
318.908
319.151
319.357
319.452
319.598
319.598
319.58
319.545
319.362
319.182
318.982
318.595
318.331
317.861
317.428
317.131
310.463
310.665
310.998
311.147
311.333
311.503
311.64
311.682
311.823
311.857
311.766
311.738
311.607
311.539
311.376
311.195
311.002
310.686
310.502
310.248
303.512
303.597
303.741
303.819
303.766
303.9
303.87
303.954
303.918
303.95
303.955
303.921
303.916
303.879
303.819
303.741
303.657
303.634
303.472
303.467
352.08
353.217
354.403
355.564
356.464
357.222
357.855
358.389
358.568
358.641
358.681
358.343
357.958
357.32
356.529
355.666
354.551
353.354
352.024
350.899
345.237
346.135
347.193
348.102
348.921
349.738
350.163
350.542
350.785
350.842
350.846
350.629
350.256
349.702
349.057
348.269
347.385
346.278
345.128
344.227
338.353
339.092
339.974
340.773
341.453
342.059
342.547
342.811
342.981
343.041
342.986
342.871
342.57
342.087
341.508
340.899
340.15
339.171
338.332
337.535
331.364
331.952
332.663
333.351
333.985
334.434
334.799
335.092
335.229
335.327
335.223
335.085
334.835
334.454
334.073
333.391
332.832
332.155
331.367
330.703
324.387
324.923
325.508
325.901
326.414
326.826
327.047
327.28
327.333
327.465
327.409
327.273
327.163
326.885
326.515
326.052
325.53
324.985
324.431
323.903
317.472
317.82
318.269
318.578
318.881
319.175
319.279
319.542
319.58
319.601
319.664
319.524
319.42
319.177
318.888
318.625
318.238
317.927
317.428
317.114
310.473
310.715
310.959
311.212
311.365
311.476
311.652
311.735
311.779
311.771
311.788
311.71
311.631
311.523
311.348
311.161
311.037
310.721
310.49
310.303
303.507
303.575
303.617
303.729
303.784
303.788
303.86
303.899
303.921
303.96
303.932
303.958
303.874
303.81
303.814
303.743
303.721
303.568
303.508
303.389
352.153
353.159
354.374
355.431
356.34
357.138
357.792
358.151
358.503
358.637
358.576
358.252
357.869
357.271
356.494
355.542
354.459
353.265
352.024
350.915
345.151
346.114
347.191
348.09
348.926
349.588
350.188
350.55
350.766
350.788
350.821
350.564
350.2
349.784
349.032
348.204
347.343
346.238
345.134
344.171
338.307
338.994
339.877
340.676
341.37
342.08
342.417
342.792
342.954
343.068
343.023
342.847
342.529
342.118
341.576
340.864
340.077
339.112
338.222
337.422
331.337
331.885
332.649
333.351
333.861
334.346
334.772
335.037
335.233
335.212
335.229
335.055
334.749
334.51
334.01
333.474
332.769
332.05
331.34
330.66
324.413
324.851
325.438
325.928
326.433
326.806
327.071
327.248
327.337
327.428
327.449
327.263
327.076
326.805
326.498
325.993
325.605
325.044
324.386
323.911
317.358
317.791
318.202
318.616
318.868
319.106
319.267
319.441
319.619
319.65
319.588
319.438
319.308
319.205
318.882
318.664
318.245
317.867
317.401
317.174
310.517
310.647
310.932
311.156
311.286
311.49
311.635
311.699
311.741
311.721
311.752
311.749
311.697
311.549
311.368
311.221
310.987
310.728
310.453
310.231
303.508
303.554
303.661
303.724
303.779
303.805
303.861
303.939
303.959
303.995
303.984
303.913
303.875
303.864
303.834
303.694
303.716
303.522
303.494
303.445
)
;

boundaryField
{
    hotSide
    {
        type            fixedGradient;
        gradient        nonuniform List<scalar> 
400
(
321.511
322.87
325.591
329.677
335.133
341.965
350.181
359.788
370.794
383.208
397.037
412.289
428.971
447.088
466.647
487.651
510.105
534.011
559.372
586.191
323.738
325.08
327.767
331.802
337.194
343.949
352.078
361.591
372.498
384.81
398.537
413.687
430.268
448.289
467.755
488.672
511.043
534.872
560.161
586.913
326.149
327.47
330.116
334.091
339.406
346.071
354.099
363.503
374.296
386.491
400.101
415.136
431.606
449.52
468.885
489.706
511.988
535.735
560.948
587.63
328.704
330
332.597
336.503
341.73
348.292
356.205
365.485
376.15
388.215
401.695
416.604
432.954
450.753
470.009
490.73
512.919
536.579
561.714
588.325
331.33
332.599
335.142
338.97
344.099
350.546
358.332
367.477
378.003
389.928
403.271
418.047
434.27
451.949
471.095
491.712
513.807
537.382
562.439
588.978
333.918
335.158
337.643
341.389
346.414
352.74
360.392
369.397
379.779
391.562
404.765
419.407
435.503
453.065
472.101
492.618
514.622
538.114
563.096
589.569
336.321
337.531
339.959
343.622
348.544
354.751
362.274
371.142
381.385
393.031
406.101
420.618
436.595
454.047
472.983
493.409
515.33
538.747
563.663
590.076
338.36
339.543
341.92
345.509
350.339
356.44
363.847
372.595
382.718
394.244
407.2
421.608
437.485
454.844
473.695
494.045
515.897
539.253
564.114
590.478
339.852
341.015
343.352
346.885
351.645
357.665
364.985
373.643
383.675
395.113
407.984
422.312
438.116
455.407
474.197
494.491
516.294
539.606
564.428
590.758
340.643
341.795
344.11
347.613
352.334
358.311
365.584
374.193
384.176
395.567
408.393
422.679
438.443
455.699
474.456
494.722
516.498
539.788
564.589
590.901
340.643
341.795
344.11
347.613
352.334
358.311
365.584
374.193
384.176
395.567
408.393
422.679
438.443
455.699
474.456
494.722
516.498
539.788
564.589
590.901
339.852
341.015
343.352
346.885
351.645
357.665
364.985
373.643
383.675
395.113
407.984
422.312
438.116
455.407
474.197
494.491
516.294
539.606
564.428
590.758
338.36
339.543
341.92
345.509
350.339
356.44
363.847
372.595
382.718
394.244
407.2
421.608
437.485
454.844
473.695
494.045
515.897
539.253
564.114
590.478
336.321
337.531
339.959
343.622
348.544
354.751
362.274
371.142
381.385
393.031
406.101
420.618
436.595
454.047
472.983
493.409
515.33
538.747
563.663
590.076
333.918
335.158
337.643
341.389
346.414
352.74
360.392
369.397
379.779
391.562
404.765
419.407
435.503
453.065
472.101
492.618
514.622
538.114
563.096
589.569
331.33
332.599
335.142
338.97
344.099
350.546
358.332
367.477
378.003
389.928
403.271
418.047
434.27
451.949
471.095
491.712
513.807
537.382
562.439
588.978
328.704
330
332.597
336.503
341.73
348.292
356.205
365.485
376.15
388.215
401.695
416.604
432.954
450.753
470.009
490.73
512.919
536.579
561.714
588.325
326.149
327.47
330.116
334.091
339.406
346.071
354.099
363.503
374.296
386.491
400.101
415.136
431.606
449.52
468.885
489.706
511.988
535.735
560.948
587.63
323.738
325.08
327.767
331.802
337.194
343.949
352.078
361.591
372.498
384.81
398.537
413.687
430.268
448.289
467.755
488.672
511.043
534.872
560.161
586.913
321.511
322.87
325.591
329.677
335.133
341.965
350.181
359.788
370.794
383.208
397.037
412.289
428.971
447.088
466.647
487.651
510.105
534.011
559.372
586.191
)
;
    }
    coldSide
    {
        type            mixed;
        refValue        uniform 300;
        refGradient     uniform 0;
        valueFraction   uniform 0.991591;
        source          uniform 0;
        value           nonuniform List<scalar> 
400
(
300.024
300.024
300.025
300.024
300.025
300.026
300.027
300.027
300.028
300.028
300.029
300.029
300.029
300.029
300.03
300.03
300.03
300.03
300.029
300.029
300.024
300.025
300.024
300.025
300.026
300.027
300.027
300.028
300.027
300.029
300.029
300.029
300.029
300.03
300.03
300.03
300.03
300.03