/*--------------------------------*- C++ -*----------------------------------*\
| =========                 |                                                 |
| \\      /  F ield         | OpenFOAM: The Open Source CFD Toolbox           |
|  \\    /   O peration     | Version:  2212                                  |
|   \\  /    A nd           | Website:  www.openfoam.com                      |
|    \\/     M anipulation  |                                                 |
\*---------------------------------------------------------------------------*/
FoamFile
{
    version     2.0;
    format      ascii;
    arch        "LSB;label=32;scalar=64";
    class       volScalarField;
    location    "./ITHACAoutput/true/0.3";
    object      error;
}
// * * * * * * * * * * * * * * * * * * * * * * * * * * * * * * * * * * * * * //

dimensions      [0 0 0 1 0 0 0];

internalField   nonuniform List<scalar> 
3200
(
0.858118
1.14258
1.59248
2.24196
3.04811
3.86394
4.75753
5.58372
6.16241
6.38678
6.44302
6.1426
5.58167
4.78532
3.93669
3.1035
2.27298
1.62066
1.22014
0.98432
0.717928
0.896251
1.34064
1.92308
2.52273
3.22793
3.97026
4.60137
5.18257
5.47574
5.44096
5.23789
4.63579
4.05455
3.28596
2.60444
1.93338
1.3865
0.958702
0.736105
0.603174
0.768677
1.0605
1.53586
2.13359
2.66632
3.23992
3.8849
4.20583
4.46789
4.47703
4.25859
3.75821
3.36885
2.78242
2.06783
1.57961
1.09691
0.742099
0.617273
0.411703
0.546954
0.828169
1.21111
1.70745
2.17913
2.59833
3.02617
3.3219
3.53269
3.56029
3.39123
3.10913
2.64397
2.14241
1.66542
1.28935
0.914358
0.568129
0.471881
0.377138
0.373872
0.706862
0.965369
1.30466
1.65563
1.92966
2.27302
2.51105
2.70396
2.68431
2.55503
2.28879
2.04876
1.71303
1.26393
0.950541
0.664693
0.444807
0.328042
0.252202
0.256786
0.539242
0.617952
0.908956
1.17062
1.38554
1.64496
1.71849
1.85807
1.92564
1.86294
1.59977
1.35733
1.11166
0.885838
0.627892
0.516271
0.268108
0.279229
0.12452
0.178492
0.270779
0.352625
0.572618
0.713115
0.815372
0.956493
1.08668
1.14142
1.16743
1.12269
0.933225
0.865508
0.686884
0.570288
0.417226
0.278113
0.225867
0.110536
0.09136
0.0434259
0.0675533
0.12934
0.155259
0.212706
0.258069
0.341728
0.343325
0.343893
0.413509
0.336299
0.43977
0.305688
0.246717
0.201538
0.163387
0.10965
0.0510487
0.0269788
0.261525
0.475605
0.978647
1.567
2.30981
3.18191
4.05235
4.7645
5.32024
5.63942
5.67655
5.34488
4.82779
3.99904
3.2064
2.42514
1.63742
0.997807
0.556929
0.315788
0.252286
0.418906
0.754125
1.35982
1.94223
2.70588
3.34025
4.04093
4.46941
4.83505
4.80997
4.5501
4.04551
3.45161
2.72436
2.02851
1.38027
0.898495
0.526237
0.288033
0.143106
0.28516
0.682651
1.11371
1.64723
2.21184
2.78298
3.27809
3.71246
3.96309
3.94427
3.72097
3.34763
2.79244
2.25184
1.57652
1.18194
0.703794
0.392231
0.273158
0.188929
0.332819
0.551344
0.897197
1.34813
1.82126
2.22224
2.60995
2.97355
3.23494
3.1489
3.06034
2.71114
2.15704
1.84114
1.28378
0.934512
0.655128
0.314639
0.212947
0.0489257
0.233849
0.376766
0.669865
1.02661
1.30256
1.70078
1.97525
2.27462
2.43672
2.43028
2.24596
2.10885
1.70812
1.33426
1.04373
0.692494
0.483722
0.259676
0.165114
0.110284
0.188913
0.278035
0.443954
0.707691
0.96429
1.18853
1.42908
1.6285
1.71548
1.72312
1.60867
1.44973
1.17525
0.948163
0.725538
0.512992
0.346866
0.226391
0.161315
0.0295097
0.0963118
0.129826
0.253551
0.32987
0.587028
0.693601
0.766932
0.932648
0.959429
0.988096
0.913443
0.851249
0.718607
0.53612
0.509594
0.262731
0.187715
0.145478
0.0698892
0.0267303
-0.0313394
0.0601006
0.149601
0.118095
0.158704
0.21503
0.279888
0.361844
0.31477
0.376223
0.339041
0.239821
0.295224
0.22093
0.144772
0.0496305
0.013501
0.0171892
0.00458057
-0.432394
-0.210048
0.169675
0.740154
1.46228
2.25801
2.97871
3.77718
4.30872
4.55698
4.5622
4.31063
3.75101
2.99147
2.30192
1.47363
0.794354
0.262392
-0.198567
-0.395733
-0.348799
-0.205994
0.0818296
0.595246
1.18917
1.83463
2.56008
3.1845
3.55956
3.95744
3.88787
3.68747
3.20512
2.62817
1.9633
1.2905
0.707047
0.165628
-0.162063
-0.317329
-0.280824
-0.0931608
0.104157
0.479575
1.08327
1.58922
2.15021
2.63082
3.03802
3.258
3.21623
2.98726
2.64926
2.09105
1.65047
1.06143
0.538971
0.215817
-0.144531
-0.151777
-0.268251
-0.0890185
0.053107
0.376117
0.792134
1.19782
1.70289
2.15339
2.39675
2.60972
2.58461
2.42294
2.16643
1.70611
1.22543
0.839679
0.436515
0.182137
-0.0289141
-0.204281
-0.209936
-0.0972844
0.102447
0.345682
0.628027
1.00317
1.29131
1.55915
1.86387
1.98086
1.97834
1.87387
1.65115
1.27099
1.02743
0.54435
0.329121
0.118059
0.0241598
-0.148206
-0.110749
-0.0480354
0.024293
0.253307
0.427899
0.719499
0.892252
1.14955
1.34652
1.31883
1.4128
1.31912
1.16585
0.95018
0.706395
0.488047
0.291072
0.0333836
-0.041645
-0.0579874
-0.0426318
-0.0215257
0.0617104
0.158664
0.294678
0.408024
0.519757
0.68764
0.822507
0.878538
0.833323
0.757176
0.644764
0.623231
0.379992
0.251091
0.191847
0.0108633
-0.0153665
-0.0332391
-0.00155569
0.000735218
-0.0207628
0.0588324
0.122803
0.131345
0.220205
0.271652
0.304746
0.32896
0.268745
0.298456
0.265751
0.142835
0.16025
0.030578
0.0184906
0.00727171
0.0021858
-0.0303921
-1.11957
-0.911093
-0.6138
-0.0749147
0.506329
1.28527
2.02695
2.70236
3.2104
3.4753
3.49275
3.21403
2.74552
2.05449
1.28125
0.62029
0.0465109
-0.547784
-0.820463
-1.08057
-0.903258
-0.833796
-0.543046
-0.0413955
0.493784
1.1073
1.75337
2.26748
2.70251
2.95589
3.02556
2.77818
2.25867
1.76328
1.11573
0.502476
0.0841337
-0.43733
-0.748208
-0.825342
-0.709802
-0.667422
-0.420945
-0.040149
0.373146
0.898935
1.38157
1.87944
2.33681
2.4589
2.43904
2.23345
1.97476
1.43169
0.948047
0.474186
0.00888497
-0.353373
-0.62934
-0.719544
-0.605566
-0.498979
-0.311027
-0.00214792
0.267911
0.699851
1.18162
1.58686
1.83628
1.97565
1.96245
1.80712
1.5634
1.14482
0.758853
0.358997
-0.0341253
-0.270476
-0.458607
-0.587234
-0.52998
-0.413442
-0.255066
-0.0137382
0.301257
0.583146
0.843027
1.11178
1.4354
1.50005
1.52648
1.43733
1.16049
0.859161
0.553502
0.301185
-0.0357819
-0.239257
-0.38529
-0.428539
-0.353903
-0.254999
-0.195318
-0.0160436
0.169554
0.419608
0.648403
0.796385
0.933201
1.05807
0.977432
1.04397
0.880432
0.663198
0.407426
0.265936
-0.0311439
-0.123877
-0.220809
-0.284915
-0.184957
-0.13139
-0.112909
-0.0829267
0.0738914
0.239666
0.358702
0.516115
0.552707
0.686637
0.629602
0.589363
0.521817
0.331055
0.208873
0.0706737
0.0303463
-0.00305331
-0.124285
-0.186543
-0.0540812
-0.0616624
-0.0270225
-0.0135985
0.0801101
0.0243917
0.147933
0.15935
0.225126
0.213856
0.224595
0.155928
0.154858
0.155249
0.0482316
0.0722777
0.0638564
0.0571779
-0.0697673
-0.0506998
-1.70516
-1.59077
-1.2339
-0.8211
-0.303608
0.36741
1.07452
1.67472
2.0799
2.39273
2.3547
2.21294
1.73922
1.13303
0.399534
-0.173535
-0.803338
-1.18896
-1.53239
-1.61002
-1.32412
-1.26175
-1.05681
-0.708097
-0.318474
0.371349
0.896871
1.37657
1.78866
2.04599
1.96719
1.80825
1.4787
0.955018
0.396556
-0.222655
-0.585136
-1.03098
-1.31927
-1.34434
-1.10846
-1.03934
-0.880256
-0.579724
-0.228724
0.320494
0.754718
1.14806
1.49904
1.72805
1.68262
1.45499
1.26736
0.723039
0.255094
-0.200532
-0.54343
-0.829716
-0.994616
-1.10736
-0.880046
-0.916736
-0.69739
-0.47558
-0.156434
0.144908
0.686902
0.974839
1.19996
1.38476
1.33638
1.23976
1.07836
0.619015
0.28751
-0.0916464
-0.332011
-0.7352
-0.736798
-0.883972
-0.690095
-0.624441
-0.631112
-0.343202
-0.112006
0.159496
0.520481
0.740028
0.980141
1.03287
1.05046
0.937775
0.723707
0.482059
0.168654
-0.0870039
-0.380557
-0.45147
-0.626123
-0.699128
-0.512076
-0.499162
-0.40289
-0.258975
-0.0528901
0.160183
0.265534
0.53427
0.672383
0.742687
0.707463
0.672433
0.495744
0.345717
0.115203
-0.0377634
-0.191274
-0.34037
-0.48175
-0.493805
-0.281877
-0.210997
-0.26354
-0.154574
0.00908479
0.097745
0.242898
0.274442
0.408099
0.388128
0.464008
0.364955
0.341738
0.221082
0.0802692
-0.0166069
-0.18414
-0.258841
-0.273756
-0.269127
-0.128792
-0.0521006
-0.119507
-0.0724039
-0.0365084
0.047915
0.0245538
0.0848389
0.164495
0.129918
0.0859706
0.0973986
0.106336
0.0111395
0.021048
-0.0188235
-0.0248767
-0.061591
-0.0925514
-0.100111
-2.10984
-2.10565
-1.93696
-1.45884
-0.987155
-0.318935
0.137187
0.71093
1.12766
1.41196
1.31267
1.13924
0.723798
0.197861
-0.333378
-0.97132
-1.41413
-1.80541
-2.00096
-2.0148
-1.76599
-1.7442
-1.57365
-1.22607
-0.806635
-0.320361
0.106688
0.602961
0.976461
1.13475
1.15322
1.04753
0.657361
0.120987
-0.281888
-0.742758
-1.15654
-1.54576
-1.76542
-1.74219
-1.48306
-1.4261
-1.19813
-1.00818
-0.717252
-0.262376
0.127885
0.496921
0.765003
0.940743
0.947811
0.83824
0.526216
0.110843
-0.234851
-0.708549
-1.00574
-1.27017
-1.39622
-1.43439
-1.1849
-1.1461
-0.961714
-0.814756
-0.558092
-0.205442
0.0887349
0.379922
0.616133
0.745909
0.77835
0.717575
0.464747
0.135868
-0.211442
-0.512871
-0.809674
-1.02291
-1.13073
-1.12775
-0.923458
-0.889057
-0.698404
-0.588221
-0.369381
-0.152591
0.129867
0.32033
0.485935
0.615816
0.513255
0.493284
0.370595
0.0950346
-0.202027
-0.44316
-0.557004
-0.824775
-0.872478
-0.849715
-0.608638
-0.676132
-0.554577
-0.464757
-0.288194
-0.135183
0.0761615
0.239199
0.350509
0.458622
0.380009
0.331665
0.183259
0.0909105
-0.0513031
-0.305282
-0.47093
-0.528793
-0.607279
-0.655604
-0.331957
-0.360518
-0.253858
-0.24959
-0.198947
-0.111416
0.015137
0.173682
0.287526
0.256749
0.257817
0.206112
0.113626
0.0605287
-0.0957727
-0.163451
-0.239915
-0.31825
-0.340958
-0.351405
-0.0932977
-0.112678
-0.0600875
-0.0694857
-0.0818364
-0.0705323
-0.00608471
0.0306519
0.0983029
0.0897733
0.138294
0.104132
0.134392
0.0327287
-0.0259167
-0.070414
-0.123006
-0.0748335
-0.104511
-0.155606
-2.41695
-2.47959
-2.38471
-2.03523
-1.62066
-1.13864
-0.666729
-0.162058
0.190884
0.400853
0.443935
0.230318
-0.0639574
-0.605168
-1.01997
-1.56047
-1.9323
-2.26232
-2.40261
-2.40101
-2.0183
-2.08826
-1.94829
-1.75866
-1.38569
-0.968702
-0.488138
-0.1259
0.175531
0.306633
0.382599
0.203228
-0.136383
-0.545738
-0.943683
-1.33758
-1.67801
-1.94777
-2.0402
-2.03968
-1.71301
-1.77526
-1.59502
-1.44385
-1.11862
-0.847229
-0.407725
-0.0997637
0.143071
0.301624
0.284752
0.242126
-0.0470222
-0.447959
-0.780815
-1.16454
-1.38492
-1.54832
-1.69106
-1.71531
-1.37085
-1.32353
-1.2759
-1.08813
-0.955892
-0.634213
-0.316094
-0.0216767
-0.00648223
0.268836
0.296364
0.0785243
-0.0150031
-0.36221
-0.619787
-0.890544
-1.07857
-1.27698
-1.36251
-1.29048
-1.07739
-1.07061
-1.00922
-0.860098
-0.665921
-0.399996
-0.237424
-0.0564995
0.0689901
0.128711
0.117129
0.145615
-0.0567941
-0.270893
-0.361701
-0.67497
-0.886988
-0.934835
-1.02566
-1.05151
-0.729405
-0.7238
-0.703392
-0.622793
-0.552705
-0.323064
-0.168944
-0.0696417
0.0382586
0.113811
0.104199
0.0600265
-0.0209658
-0.200817
-0.343906
-0.425029
-0.585991
-0.728232
-0.747006
-0.725242
-0.447707
-0.421347
-0.32547
-0.341091
-0.252296
-0.243011
-0.110845
-0.0141119
0.0479759
0.147043
0.141553
0.108884
-0.101661
-0.17085
-0.157559
-0.259375
-0.383183
-0.399615
-0.436482
-0.450822
-0.0907713
-0.164785
-0.138304
-0.115869
-0.0630832
-0.0233274
-0.0478525
-0.0238742
0.00211369
0.0456475
0.0590838
0.0493863
0.0136796
-0.040213
-0.0416554
-0.10688
-0.0744583
-0.142856
-0.1086
-0.101865
-2.66051
-2.72592
-2.70984
-2.42135
-2.16291
-1.80745
-1.30569
-0.928721
-0.591005
-0.409483
-0.419768
-0.622836
-0.859773
-1.28148
-1.77041
-2.04396
-2.4132
-2.54254
-2.72232
-2.56113
-2.19298
-2.28836
-2.22724
-2.14052
-1.77726
-1.41559
-1.14369
-0.755204
-0.518
-0.396751
-0.370617
-0.499953
-0.739577
-1.03729
-1.4085
-1.70351
-1.98009
-2.19919
-2.24782
-2.16353
-1.89735
-1.85171
-1.88273
-1.65715
-1.50549
-1.15944
-0.949687
-0.648822
-0.422479
-0.351176
-0.365202
-0.512807
-0.602855
-0.939769
-1.1621
-1.49189
-1.69557
-1.86052
-1.89046
-1.811
-1.5267
-1.51117
-1.53474
-1.36686
-1.18015
-0.95456
-0.750023
-0.517182
-0.299351
-0.257657
-0.256917
-0.324649
-0.444434
-0.686189
-0.945305
-1.13109
-1.33885
-1.45139
-1.46564
-1.47958
-1.20253
-1.15044
-1.11958
-1.07383
-0.953769
-0.752455
-0.543727
-0.354095
-0.250406
-0.237529
-0.227005
-0.186181
-0.375845
-0.490645
-0.69685
-0.939224
-1.01253
-1.13465
-1.1341
-1.13541
-0.760027
-0.831836
-0.828579
-0.713875
-0.597421
-0.529174
-0.366539
-0.272093
-0.121406
-0.108195
-0.0894948
-0.170561
-0.269596
-0.409471
-0.461061
-0.661006
-0.688012
-0.761078
-0.805513
-0.85446
-0.450665
-0.505546
-0.489581
-0.463746
-0.34551
-0.348687
-0.243384
-0.203965
-0.190593
-0.123058
-0.124727
-0.0657756
-0.0954791
-0.213377
-0.270219
-0.310013
-0.395692
-0.457349
-0.553654
-0.478082
-0.129414
-0.188219
-0.203682
-0.172627
-0.152606
-0.174657
-0.0897702
-0.00953213
-0.0259856
-0.0236684
-0.00701351
0.0254969
-0.0149833
-0.0284154
-0.119144
-0.0753721
-0.121949
-0.110945
-0.202701
-0.175034
-2.66402
-2.85502
-2.82525
-2.6786
-2.52058
-2.21884
-1.80751
-1.51517
-1.28153
-1.13148
-1.13788
-1.21851
-1.54002
-1.79961
-2.14334
-2.43049
-2.64129
-2.81844
-2.76589
-2.64188
-2.26465
-2.39431
-2.4142
-2.29435
-2.13009
-1.90972
-1.53094
-1.25329
-0.981951
-0.923736
-0.961321
-1.01555
-1.30446
-1.50803
-1.82131
-2.10452
-2.26902
-2.34134
-2.32553
-2.20908
-1.90614
-1.94192
-1.89296
-1.86541
-1.69227
-1.54737
-1.2828
-1.08371
-0.833565
-0.777617
-0.755143
-0.840752
-1.03709
-1.25765
-1.60172
-1.67633
-1.95367
-1.9071
-1.92286
-1.86984
-1.49061
-1.55762
-1.62134
-1.49771
-1.43957
-1.21374
-1.07799
-0.846254
-0.757759
-0.615513
-0.603587
-0.684801
-0.86478
-0.960406
-1.20457
-1.43547
-1.55594
-1.55969
-1.47626
-1.48827
-1.16174
-1.22699
-1.17871
-1.14954
-1.04515
-0.898775
-0.814479
-0.700162
-0.54294
-0.500485
-0.425628
-0.519228
-0.669981
-0.779517
-0.894393
-1.01542
-1.17924
-1.23715
-1.19979
-1.16708
-0.786805
-0.826255
-0.839056
-0.819519
-0.676533
-0.626124
-0.531387
-0.474017
-0.360889
-0.347444
-0.356813
-0.418179
-0.516105
-0.48959
-0.675566
-0.832355
-0.832358
-0.802108
-0.889875
-0.742336
-0.48061
-0.493219
-0.526493
-0.459207
-0.492739
-0.469912
-0.307222
-0.2403
-0.31084
-0.232672
-0.177925
-0.181688
-0.337013
-0.30978
-0.321174
-0.398524
-0.500509
-0.594321
-0.457185
-0.467406
-0.190462
-0.125294
-0.106174
-0.126384
-0.130601
-0.170877
-0.088624
-0.0905519
-0.116826
-0.0486821
0.00264563
-0.0570121
-0.139534
-0.114469
-0.158281
-0.0727818
-0.146745
-0.133218
-0.174143
-0.152261
-2.59652
-2.76855
-2.81508
-2.85357
-2.6952
-2.49794
-2.25382
-2.02778
-1.84411
-1.67134
-1.66509
-1.80258
-1.99477
-2.20852
-2.48037
-2.70288
-2.825
-2.89261
-2.74874
-2.55607
-2.11438
-2.30299
-2.43416
-2.34754
-2.26948
-2.12702
-1.88218
-1.74642
-1.50339
-1.42512
-1.46689
-1.47178
-1.7015
-1.89415
-2.08832
-2.29208
-2.30048
-2.35858
-2.26134
-2.00491
-1.81383
-1.97272
-1.95732
-1.93983
-1.91748
-1.80651
-1.58478
-1.37517
-1.2407
-1.08199
-1.17743
-1.23879
-1.42194
-1.4975
-1.70508
-1.84657
-1.95747
-1.98899
-1.87591
-1.74936
-1.46172
-1.52731
-1.6433
-1.58246
-1.53223
-1.35268
-1.22726
-1.16342
-0.983754
-0.890257
-0.952934
-0.951238
-1.05889
-1.25606
-1.3182
-1.52494
-1.52675
-1.61995
-1.49579
-1.40502
-1.19849
-1.20336
-1.2161
-1.26008
-1.13176
-1.1205
-1.01371
-0.853757
-0.802489
-0.775413
-0.695396
-0.792451
-0.80193
-0.906601
-1.05739
-1.20702
-1.2261
-1.24018
-1.1735
-1.13713
-0.732302
-0.844992
-0.833699
-0.873753
-0.838077
-0.741532
-0.682952
-0.607374
-0.531184
-0.465002
-0.464693
-0.562891
-0.612798
-0.647126
-0.791154
-0.782646
-0.928137
-0.910282
-0.813272
-0.719735
-0.517767
-0.492385
-0.492602
-0.509778
-0.464296
-0.490362
-0.40739
-0.372359
-0.336509
-0.268191
-0.302836
-0.401151
-0.377367
-0.423222
-0.476883
-0.47592
-0.464495
-0.408731
-0.460849
-0.472916
-0.197941
-0.142007
-0.194789
-0.124656
-0.149935
-0.136633
-0.194269
-0.0584667
-0.103025
-0.171504
-0.0486722
-0.191596
-0.118268
-0.178262
-0.145243
-0.15177
-0.206337
-0.186983
-0.18277
-0.125949
-2.24347
-2.58042
-2.79852
-2.80869
-2.74949
-2.68289
-2.41036
-2.24113
-2.13617
-2.01597
-2.05634
-2.14902
-2.29803
-2.3362
-2.57629
-2.70358
-2.77304
-2.7373
-2.50771
-2.24875
-1.94891
-2.08212
-2.37515
-2.3953
-2.37682
-2.28246
-2.01838
-1.92778
-1.77363
-1.70956
-1.71164
-1.7604
-1.96006
-2.07411
-2.14463
-2.27237
-2.369
-2.29783
-2.12284
-1.90578
-1.56661
-1.7531
-1.90761
-1.91303
-1.90749
-1.87012
-1.69258
-1.55094
-1.49058
-1.41495
-1.42387
-1.52635
-1.5895
-1.67968
-1.78183
-1.94276
-2.02404
-1.91812
-1.70706
-1.57304
-1.29957
-1.50536
-1.55927
-1.58019
-1.54142
-1.48608
-1.34385
-1.23442
-1.26237
-1.17635
-1.14462
-1.1548
-1.24895
-1.27128
-1.42308
-1.51321
-1.55822
-1.48967
-1.44369
-1.2954
-0.978733
-1.05328
-1.15282
-1.16724
-1.23913
-1.09684
-1.00783
-0.932429
-0.967311
-0.894065
-0.793375
-0.892814
-0.977747
-0.965019
-1.16684
-1.23421
-1.20182
-1.12132
-1.14995
-1.04752
-0.668336
-0.778136
-0.830904
-0.813712
-0.794385
-0.746273
-0.72654
-0.695607
-0.644982
-0.646764
-0.592365
-0.619927
-0.685
-0.714493
-0.732878
-0.774749
-0.827018
-0.805116
-0.788341
-0.647748
-0.35263
-0.467062
-0.470551
-0.478214
-0.475027
-0.422432
-0.376507
-0.425336
-0.331178
-0.355465
-0.357614
-0.372417
-0.400438
-0.457981
-0.375381
-0.521117
-0.497122
-0.444369
-0.415538
-0.409696
-0.156746
-0.154812
-0.176735
-0.202438
-0.19563
-0.165606
-0.149853
-0.0924544
-0.134875
-0.148516
-0.175258
-0.123896
-0.190529
-0.104799
-0.164583
-0.206785
-0.231996
-0.140176
-0.171274
-0.130119
-1.88697
-2.18728
-2.40958
-2.57898
-2.58107
-2.53163
-2.4291
-2.37434
-2.28643
-2.11864
-2.19804
-2.21245
-2.3302
-2.36264
-2.54473
-2.58773
-2.54945
-2.38864
-2.16591
-1.81676
-1.58696
-1.86728
-2.09129
-2.15079
-2.24374
-2.18769
-2.03262
-1.98739
-1.88398
-1.82032
-1.85907
-1.86223
-1.96475
-2.10025
-2.15445
-2.18006
-2.20933
-2.05971
-1.83062
-1.56447
-1.34974
-1.47611
-1.7091
-1.80803
-1.86746
-1.84344
-1.71129
-1.53292
-1.52057
-1.52822
-1.60767
-1.55063
-1.62595
-1.75168
-1.73087
-1.83776
-1.81464
-1.73181
-1.47189
-1.26842
-1.03657
-1.22382
-1.31192
-1.46817
-1.45565
-1.39545
-1.38915
-1.28065
-1.20356
-1.22622
-1.19647
-1.16273
-1.25128
-1.3828
-1.39605
-1.38065
-1.43247
-1.34216
-1.19422
-1.06928
-0.824027
-0.932842
-1.04105
-1.08455
-1.13539
-1.12447
-0.992968
-0.915917
-0.93814
-0.960831
-0.877735
-0.934624
-0.974499
-1.09324
-1.13864
-1.08028
-1.15867
-1.05235
-0.870888
-0.792952
-0.607555
-0.588015
-0.708872
-0.746639
-0.794712
-0.829265
-0.734404
-0.763336
-0.678442
-0.648169
-0.64599
-0.65072
-0.728238
-0.714768
-0.749838
-0.801198
-0.811246
-0.7349
-0.619049
-0.565667
-0.355598
-0.381124
-0.4145
-0.457824
-0.49448
-0.435321
-0.463136
-0.357787
-0.377153
-0.430445
-0.349619
-0.421281
-0.420172
-0.507994
-0.470812
-0.417876
-0.503808
-0.435861
-0.400838
-0.304167
-0.0974572
-0.160357
-0.137144
-0.163415
-0.191122
-0.126549
-0.186172
-0.153075
-0.15574
-0.0780528
-0.0735312
-0.164436
-0.145942
-0.175466
-0.199964
-0.146619
-0.259195
-0.165315
-0.070984
-0.0337555
-1.28001
-1.59529
-1.9839
-2.16673
-2.31768
-2.31236
-2.29926
-2.2625
-2.16581
-2.16783
-2.10421
-2.12489
-2.17012
-2.26838
-2.34796
-2.29559
-2.10409
-1.93659
-1.62353
-1.22092
-1.01366
-1.34602
-1.66468
-1.77861
-1.87772
-1.99033
-1.95754
-1.92464
-1.80006
-1.79741
-1.79667
-1.81796
-1.85532
-1.93487
-1.94407
-1.94728
-1.76509
-1.60442
-1.30465
-1.09109
-0.865749
-1.12643
-1.32793
-1.51624
-1.58511
-1.61806
-1.61875
-1.5621
-1.5183
-1.47355
-1.43362
-1.45245
-1.50508
-1.61315
-1.62559
-1.61944
-1.52675
-1.27824
-1.09158
-0.923427
-0.674737
-0.950826
-1.17148
-1.24352
-1.28672
-1.31501
-1.28523
-1.25769
-1.2113
-1.10732
-1.25388
-1.25721
-1.22538
-1.31664
-1.29352
-1.19276
-1.21949
-1.1187
-0.859288
-0.659083
-0.603331
-0.719535
-0.791114
-0.927784
-0.940573
-0.958023
-0.945034
-0.986022
-0.926526
-0.923894
-0.946403
-0.863584
-0.933355
-0.891857
-0.960365
-0.977731
-0.968178
-0.723432
-0.661914
-0.533596
-0.374402
-0.525862
-0.584818
-0.671113
-0.684788
-0.624085
-0.661892
-0.635592
-0.656769
-0.703919
-0.640842
-0.641326
-0.648919
-0.653915
-0.692063
-0.738653
-0.643451
-0.603736
-0.448198
-0.310936
-0.189806
-0.281077
-0.392681
-0.403535
-0.400423
-0.41668
-0.393316
-0.458964
-0.402141
-0.482738
-0.402897
-0.38169
-0.367089
-0.40857
-0.436828
-0.477851
-0.40052
-0.347059
-0.264563
-0.321951
-0.0553012
-0.0685276
-0.130182
-0.0410979
-0.135969
-0.124056
-0.116154
-0.147768
-0.151854
-0.116312
-0.146876
-0.0695637
-0.172832
-0.0653495
-0.151693
-0.172073
-0.147351
-0.174161
-0.122966
-0.150071
-0.434723
-0.827924
-1.27677
-1.6013
-1.83483
-1.8809
-1.87318
-1.95663
-1.91887
-1.85419
-1.91195
-1.79549
-1.86497
-1.9406
-1.91192
-1.69937
-1.61044
-1.24062
-0.900606
-0.441869
-0.440382
-0.81322
-1.08284
-1.35273
-1.53774
-1.58106
-1.63741
-1.5486
-1.6252
-1.55486
-1.56813
-1.64439
-1.58989
-1.61141
-1.54311
-1.49734
-1.2807
-1.05785
-0.734444
-0.3904
-0.289056
-0.676139
-0.915027
-1.08788
-1.2464
-1.27808
-1.27138
-1.2706
-1.30327
-1.29258
-1.2756
-1.30615
-1.3549
-1.31882
-1.25384
-1.17603
-1.0777
-0.937984
-0.613527
-0.231663
-0.236628
-0.464153
-0.766919
-0.908652
-0.971231
-0.984536
-1.03654
-1.07402
-1.11847
-1.05519
-1.0439
-0.998869
-1.06802
-1.06594
-0.996018
-0.973445
-0.900543
-0.657258
-0.48196
-0.221389
-0.141277
-0.381466
-0.528907
-0.667804
-0.812217
-0.755957
-0.814185
-0.748842
-0.781701
-0.790261
-0.839353
-0.80566
-0.829325
-0.745784
-0.759502
-0.771161
-0.592583
-0.471509
-0.336491
-0.218885
-0.124967
-0.273319
-0.356585
-0.400497
-0.518165
-0.616309
-0.56713
-0.605151
-0.497971
-0.634158
-0.532691
-0.608772
-0.602968
-0.592519
-0.571512
-0.523291
-0.480897
-0.399137
-0.254186
-0.146704
-0.0306811
-0.118686
-0.261363
-0.258662
-0.271784
-0.325342
-0.345227
-0.313402
-0.320083
-0.31388
-0.336211
-0.368752
-0.347375
-0.396997
-0.316913
-0.29272
-0.289125
-0.15125
-0.156079
-0.0426275
-0.0245874
-0.0155695
-0.0990466
-0.0682483
-0.115244
-0.13702
-0.0719485
-0.177479
-0.156963
-0.0751639
-0.10576
-0.087078
-0.149424
-0.178111
-0.0970721
-0.0379257
-0.0951835
-0.0348866
-0.033082
-0.016832
0.47651
0.0126916
-0.452702
-0.77044
-1.02552
-1.2425
-1.30308
-1.36705
-1.36511
-1.29974
-1.42634
-1.3557
-1.34988
-1.26774
-1.22495
-1.04218
-0.778434
-0.502559
0.0420359
0.575429
0.460441
0.104576
-0.336759
-0.747656
-0.887094
-1.04114
-1.14568
-1.10456
-1.16406
-1.11809
-1.16242
-1.15365
-1.10839
-0.976609
-1.06091
-0.882177
-0.620023
-0.328777
0.0555327
0.508383
0.362553
0.0159084
-0.253313
-0.463972
-0.707342
-0.816993
-0.838571
-0.9578
-0.956192
-0.93941
-0.951292
-0.917554
-0.90594
-0.916534
-0.747776
-0.679234
-0.47661
-0.188067
0.127671
0.413373
0.211341
0.0399944
-0.191306
-0.434471
-0.527396
-0.574392
-0.724758
-0.788597
-0.705782
-0.813932
-0.804359
-0.792994
-0.695521
-0.791105
-0.66338
-0.568529
-0.382235
-0.242106
0.154173
0.276543
0.230221
0.0261421
-0.207425
-0.333589
-0.454734
-0.526198
-0.526384
-0.551537
-0.537086
-0.574645
-0.564423
-0.529651
-0.524041
-0.533222
-0.519581
-0.379003
-0.322576
-0.13371
-0.0422869
0.251288
0.176434
0.0943096
-0.0661622
-0.263095
-0.318542
-0.37095
-0.384395
-0.377058
-0.399867
-0.369742
-0.313962
-0.428795
-0.384809
-0.406493
-0.296089
-0.317336
-0.269225
-0.161361
0.00922803
0.154517
0.0391764
-0.00904401
-0.0518467
-0.165676
-0.203063
-0.208223
-0.189696
-0.213029
-0.229811
-0.276825
-0.215114
-0.229272
-0.227528
-0.221555
-0.207723
-0.188072
-0.100196
-0.0566089
-0.0148702
0.16667
0.0534002
-0.0333065
0.010152
0.0115233
-0.0874323
-0.0950812
-0.114007
-0.0701387
-0.0411274
-0.0851569
0.0143144
-0.0516457
-0.111299
-0.100826
-0.059861
-0.0466604
-0.00252816
0.0435158
0.0770245
0.016618
1.70987
1.12914
0.651029
0.228581
-0.112431
-0.34937
-0.481873
-0.589074
-0.638095
-0.706515
-0.621699
-0.588638
-0.569079
-0.415406
-0.343644
-0.151908
0.218971
0.625856
1.20033
1.72306
1.40446
0.959579
0.592057
0.210444
-0.117476
-0.268976
-0.458308
-0.484399
-0.513349
-0.481833
-0.50303
-0.509039
-0.507018
-0.360422
-0.226806
-0.0444416
0.275628
0.510031
0.969831
1.43898
1.1384
0.856126
0.425426
0.104169
-0.0485838
-0.224392
-0.283403
-0.408869
-0.430948
-0.429243
-0.406616
-0.42207
-0.372144
-0.304247
-0.219728
-0.0794158
0.195426
0.492772
0.779705
1.28305
0.952676
0.600291
0.356446
0.104146
0.0124286
-0.201422
-0.172553
-0.307213
-0.373418
-0.363877
-0.383483
-0.277282
-0.305726
-0.268396
-0.105322
-0.0777817
0.113373
0.379634
0.683559
1.01708
0.713936
0.491281
0.296543
0.0420668
-0.032105
-0.121953
-0.167158
-0.197686
-0.296054
-0.28226
-0.252188
-0.281882
-0.228188
-0.159665
-0.147668
0.0663107
0.100473
0.261223
0.499094
0.720722
0.541925
0.344035
0.249381
0.10796
-0.000673194
-0.0676373
-0.190073
-0.142464
-0.172695
-0.197727
-0.195049
-0.120815
-0.177083
-0.179778
-0.0886672
-0.0477029
0.0667145
0.181578
0.310082
0.465634
0.240267
0.241484
0.0781028
0.0619414
0.00581612
-0.0224925
-0.0629771
-0.105765
-0.120585
-0.0748189
-0.0926996
-0.0747921
-0.0579722
-0.0806199
-0.0968219
0.0514719
0.10389
0.147236
0.207336
0.31339
0.159105
0.0753194
0.102416
-0.0141703
-0.0457548
0.0055293
0.00082793
-0.0328659
-0.0143654
-0.0620642
-0.0870637
-0.0632465
-0.00645
-0.0242998
-0.0784125
0.0273435
-0.0396346
0.0147896
0.0539225
0.0784958
3.00709
2.3696
1.87963
1.40486
1.04961
0.736636
0.572134
0.418968
0.318268
0.3325
0.304953
0.31468
0.39568
0.557141
0.725676
1.04433
1.33174
1.91364
2.44783
3.09344
2.52793
2.06064
1.61973
1.20581
0.882246
0.590622
0.510608
0.416206
0.263539
0.245962
0.255221
0.303741
0.367773
0.486342
0.636996
0.912231
1.18417
1.65366
2.14133
2.60848
2.0886
1.72893
1.33231
1.00758
0.66168
0.560281
0.434897
0.283696
0.275555
0.282488
0.25863
0.263966
0.293401
0.484079
0.597552
0.703242
1.04384
1.32915
1.8199
2.12484
1.63836
1.4417
1.01235
0.829253
0.572242
0.387146
0.387341
0.231669
0.202054
0.179987
0.182343
0.272202
0.219827
0.309055
0.506125
0.645062
0.810119
1.08051
1.45861
1.75063
1.29656
1.0479
0.877533
0.646042
0.447741
0.409148
0.290857
0.155771
0.159147
0.102812
0.132418
0.219516
0.157008
0.295363
0.33028
0.445647
0.59651
0.874816
1.1035
1.31639
0.919033
0.759636
0.561689
0.510297
0.336657
0.242059
0.199178
0.166365
0.179983
0.157165
0.148701
0.0791566
0.127731
0.20486
0.225499
0.321868
0.561093
0.560364
0.729419
0.926216
0.579492
0.465153
0.332632
0.242016
0.144035
0.157985
0.109898
0.113403
0.067275
0.102662
0.0300592
0.0315168
0.055485
0.13955
0.0994548
0.169942
0.286624
0.380299
0.426174
0.516339
0.161616
0.184785
0.152434
0.0301951
0.0316459
0.0540221
0.116164
0.0288945
0.0335047
0.0233962
0.0220683
0.0100465
-0.03771
0.0230413
0.0435909
0.0538659
0.114943
0.10113
0.154547
0.188411
4.47802
3.89
3.252
2.70244
2.28449
2.03133
1.77345
1.66009
1.46743
1.46847
1.39312
1.52492
1.61568
1.77318
2.05881
2.36909
2.75065
3.29098
3.91917
4.47494
3.84054
3.29179
2.82559
2.21758
1.9555
1.7435
1.53511
1.38156
1.23259
1.21273
1.24688
1.28007
1.35072
1.5306
1.70432
1.96417
2.38593
2.82198
3.34194
3.84519
3.18438
2.67631
2.26743
1.94507
1.64354
1.41334
1.29678
1.14933
1.07724
0.979921
0.993056
1.06232
1.11309
1.21694
1.46184
1.64165
1.93927
2.3048
2.69958
3.15764
2.5335
2.18701
1.82829
1.52159
1.27936
1.10348
1.02347
0.894349
0.839712
0.834355
0.803165
0.905371
0.959165
0.985403
1.19675
1.28931
1.54579
1.83606
2.26308
2.51931
1.92542
1.692
1.41071
1.12232
1.02962
0.885
0.771895
0.642455
0.639376
0.604808
0.609751
0.662966
0.779166
0.808558
0.874718
1.03324
1.19076
1.42228
1.70446
1.91613
1.30314
1.15861
0.951091
0.870316
0.707338
0.553501
0.497599
0.506602
0.434369
0.469899
0.448837
0.460421
0.511509
0.590882
0.612301
0.695626
0.889945
1.00974
1.16545
1.38703
0.799299
0.64141
0.613103
0.499171
0.424199
0.394755
0.345012
0.313374
0.262075
0.260328
0.237097
0.341764
0.314495
0.325415
0.383423
0.409589
0.478354
0.586271
0.779136
0.782271
0.237716
0.19244
0.256105
0.168967
0.0834888
0.132177
0.10555
0.109803
0.0836117
0.109925
0.0944972
0.0768974
0.161942
0.08853
0.126183
0.173285
0.166674
0.271389
0.226248
0.296614
6.04867
5.4243
4.7674
4.1704
3.70883
3.34804
3.06536
2.88407
2.74566
2.72074
2.73912
2.77269
2.84101
3.15763
3.30088
3.75692
4.17337
4.72174
5.37944
6.0685
5.10483
4.50148
3.97056
3.52676
3.16268
2.801
2.5639
2.41523
2.35774
2.30591
2.21329
2.34026
2.47497
2.66983
2.88549
3.15357
3.5282
4.03785
4.57659
5.07274
4.17592
3.75575
3.30442
2.82915
2.54835
2.2919
2.10837
2.05672
1.89565
1.86593
1.87288
1.91318
2.01118
2.09926
2.35345
2.60286
2.92641
3.35556
3.77125
4.17265
3.34702
2.96447
2.6309
2.36485
2.01687
1.91508
1.70897
1.49293
1.46571
1.47178
1.45012
1.51174
1.57254
1.74703
1.91002
2.00206
2.35167
2.64906
3.01886
3.43095
2.51686
2.31553
1.98051
1.75426
1.52144
1.44062
1.3453
1.22172
1.11695
1.10526
1.13777
1.1667
1.22132
1.29146
1.40891
1.59995
1.74449
2.03628
2.33049
2.51465
1.81969
1.59725
1.44183
1.20553
1.04898
1.13774
0.946179
0.859141
0.761271
0.827699
0.773266
0.846493
0.889815
0.889154
1.04984
1.09674
1.27533
1.42436
1.64844
1.78798
1.00724
0.919443
0.875535
0.799043
0.624368
0.651669
0.548006
0.495343
0.489482
0.502801
0.504939
0.483073
0.52426
0.565071
0.656226
0.613982
0.762586
0.891241
0.910582
1.07465
0.337154
0.286932
0.315705
0.279846
0.242898
0.243661
0.123847
0.204314
0.204644
0.191157
0.126924
0.161509
0.151974
0.278871
0.178868
0.163425
0.267295
0.281192
0.26191
0.362525
7.32496
6.68936
6.01408
5.38475
4.84915
4.58066
4.19728
4.01444
3.91634
3.8379
3.81976
3.87844
4.00406
4.23371
4.54482
4.91941
5.46162
6.01214
6.74375
7.30889
6.10706
5.55301
4.95379
4.45703
4.07172
3.7744
3.56906
3.31938
3.20981
3.12747
3.1825
3.24167
3.29697
3.48685
3.73953
4.10825
4.47661
5.08622
5.60272
6.18012
4.92536
4.53063
4.03333
3.63129
3.31521
3.06683
2.86247
2.72395
2.70027
2.57792
2.54476
2.60937
2.73227
2.80676
3.0907
3.35685
3.72388
4.12942
4.55003
5.05536
3.93413
3.62419
3.21488
2.88946
2.63025
2.46293
2.32124
2.15031
2.05659
1.99997
1.99197
2.06192
2.13752
2.22069
2.38034
2.64229
2.95103
3.26989
3.60982
3.92676
2.98278
2.75129
2.49076
2.14868
2.03413
1.84452
1.69829
1.54977
1.53954
1.4799
1.53119
1.49582
1.62829
1.70276
1.84151
2.00178
2.17411
2.49479
2.7097
3.01242
2.09814
1.95154
1.71205
1.59267
1.38706
1.21073
1.19478
1.17242
1.07401
1.12772
1.06497
1.09292
1.1234
1.18377
1.23041
1.36337
1.5081
1.74132
1.95587
2.14016
1.24042
1.11452
1.04066
0.908937
0.79434
0.752392
0.621701
0.722729
0.626462
0.638972
0.637631
0.685131
0.616507
0.756581
0.747576
0.901927
0.990403
1.01092
1.17082
1.2383
0.434247
0.400494
0.316379
0.243816
0.244343
0.190223