/*--------------------------------*- C++ -*----------------------------------*\
| =========                 |                                                 |
| \\      /  F ield         | OpenFOAM: The Open Source CFD Toolbox           |
|  \\    /   O peration     | Version:  2212                                  |
|   \\  /    A nd           | Website:  www.openfoam.com                      |
|    \\/     M anipulation  |                                                 |
\*---------------------------------------------------------------------------*/
FoamFile
{
    version     2.0;
    format      ascii;
    arch        "LSB;label=32;scalar=64";
    class       volScalarField;
    location    "0";
    object      relativeErrorField;
}
// * * * * * * * * * * * * * * * * * * * * * * * * * * * * * * * * * * * * * //

dimensions      [0 0 0 1 0 0 0];

internalField   nonuniform List<scalar> 
3200
(
0.0023834
0.00316414
0.00439404
0.00616197
0.00834419
0.0105362
0.0129262
0.0151249
0.0166556
0.0172419
0.0173937
0.0166021
0.0151193
0.0130017
0.0107346
0.00849582
0.00624723
0.00447177
0.00337895
0.00273392
0.00202963
0.00252745
0.00376883
0.00538796
0.00704367
0.00898222
0.0110135
0.0127308
0.0143115
0.0151058
0.0150099
0.0144642
0.012826
0.0112473
0.0091437
0.00727181
0.00541683
0.00389774
0.00270356
0.00208102
0.00173935
0.00221202
0.00304374
0.00439551
0.00608833
0.00758676
0.00919462
0.0110005
0.0118901
0.0126202
0.012646
0.0120392
0.0106418
0.00956051
0.0079171
0.00590069
0.00452072
0.00314824
0.00213554
0.00178
0.00121358
0.00160956
0.00243184
0.00354797
0.00498999
0.00635348
0.00755929
0.00878795
0.00963392
0.0102381
0.010318
0.00983498
0.00902885
0.00769205
0.00624642
0.00486714
0.00377717
0.00268492
0.00167187
0.00139096
0.00113878
0.00112746
0.00212801
0.0029009
0.00391304
0.00495653
0.00576706
0.00678347
0.00748603
0.00805669
0.00799812
0.00761714
0.00683053
0.006123
0.00512834
0.00379087
0.00285634
0.00200106
0.00134137
0.000990538
0.00078167
0.000795135
0.0016677
0.00190857
0.00280351
0.0036057
0.00426243
0.00505522
0.00527717
0.00570351
0.00591092
0.00572076
0.00491632
0.00417563
0.00342412
0.0027322
0.00193927
0.00159666
0.000830192
0.000865438
0.000396869
0.000568561
0.000861883
0.00112147
0.0018196
0.00226419
0.00258689
0.00303267
0.00344385
0.00361642
0.00369883
0.00355796
0.0029589
0.00274595
0.0021809
0.00181219
0.00132693
0.000885224
0.000719467
0.000352297
0.000299896
0.000142521
0.000221648
0.000424256
0.000509129
0.000697311
0.000845801
0.00111974
0.00112479
0.00112655
0.00135461
0.00110177
0.001441
0.00100187
0.000808808
0.000660888
0.000535936
0.00035977
0.000167539
8.85598e-05
0.000726243
0.00131688
0.00269998
0.00430647
0.00632278
0.00867639
0.0110106
0.0129068
0.0143809
0.0152261
0.0153264
0.0144475
0.0130783
0.0108658
0.00874317
0.00663849
0.0045
0.00275284
0.00154206
0.000876929
0.000713113
0.00118116
0.00211977
0.00380956
0.00542262
0.00752949
0.00926616
0.0111809
0.0123432
0.0133397
0.0132705
0.012566
0.0111936
0.00957509
0.0075809
0.00566351
0.00386686
0.00252558
0.0014838
0.000814157
0.000412613
0.000820508
0.0019591
0.00318715
0.00470031
0.00629355
0.00789807
0.00928281
0.0104961
0.0111953
0.0111421
0.0105201
0.00947972
0.00792491
0.00640735
0.00449853
0.0033824
0.00201977
0.00112859
0.00078759
0.000556844
0.000979315
0.00161884
0.00262821
0.00393977
0.00531006
0.00646527
0.00757956
0.00862418
0.00937579
0.00912642
0.00887589
0.00787343
0.00627559
0.005368
0.00375171
0.00273752
0.00192357
0.000925821
0.000627636
0.00014772
0.000705146
0.00113419
0.00201283
0.00307903
0.00389949
0.00508311
0.00589505
0.00678148
0.00726081
0.00724162
0.00669605
0.00629377
0.00510502
0.00399442
0.00313037
0.00208082
0.00145615
0.000783024
0.000498524
0.00034179
0.000584933
0.000859835
0.00137113
0.0021827
0.00297017
0.00365639
0.00439187
0.00500099
0.00526602
0.00528949
0.00494011
0.00445535
0.00361555
0.0029205
0.00223775
0.00158435
0.0010727
0.000700978
0.000499943
9.40492e-05
0.000306778
0.000413222
0.000806367
0.00104821
0.00186385
0.00220057
0.00243169
0.00295575
0.00303989
0.00313072
0.00289488
0.00269903
0.0022799
0.00170221
0.00161931
0.000835562
0.000597475
0.000463387
0.000222741
8.77429e-05
0.000102852
0.000197193
0.000490712
0.000387257
0.000520275
0.000704746
0.000917112
0.00118547
0.00103116
0.00123248
0.00111076
0.000785824
0.000967578
0.000724272
0.000474737
0.000162795
4.42975e-05
5.64133e-05
1.50359e-05
0.00120029
0.000581403
0.000467991
0.00203373
0.00400235
0.00615697
0.00809393
0.0102336
0.0116489
0.0123063
0.0123204
0.0116541
0.0101627
0.0081286
0.0062767
0.00403342
0.00218265
0.00072372
0.000549626
0.00109853
0.000985606
0.000580666
0.000229963
0.00166732
0.00331981
0.00510502
0.00710225
0.00881225
0.00983209
0.0109205
0.0107285
0.0101854
0.0088693
0.00729115
0.00546306
0.00360268
0.00198049
0.000465458
0.00045683
0.00089668
0.000809474
0.000267994
0.000298856
0.00137222
0.0030908
0.00452186
0.00610252
0.00745059
0.00859044
0.00920494
0.00908691
0.00844693
0.00750282
0.00593464
0.00469614
0.0030285
0.00154218
0.000619239
0.000415769
0.000437497
0.000790462
0.000261884
0.000155907
0.00110165
0.00231477
0.00349229
0.00495448
0.00625416
0.00695206
0.00756473
0.00749194
0.00702802
0.00629204
0.00496384
0.00357281
0.0024537
0.00127856
0.000534702
8.50627e-05
0.000601958
0.000633745
0.000293305
0.000308361
0.00103862
0.00188348
0.00300316
0.00385942
0.0046535
0.00555736
0.00590305
0.00589554
0.00558719
0.00492808
0.0037987
0.00307579
0.00163253
0.000988863
0.000355351
7.284e-05
0.000447399
0.000343187
0.000148717
7.51202e-05
0.000782276
0.0013197
0.00221615
0.00274497
0.00353297
0.00413531
0.00404873
0.00433719
0.00405116
0.00358307
0.00292318
0.00217579
0.00150521
0.000898903
0.000103231
0.000128932
0.000179691
0.00013586
6.85605e-05
0.000196406
0.000504578
0.000936363
0.00129549
0.00164904
0.00218033
0.0026068
0.00278372
0.00264045
0.00239974
0.00204439
0.00197733
0.00120649
0.000797862
0.000610108
3.45747e-05
4.89432e-05
0.000105927
5.10647e-06
2.41285e-06
6.81226e-05
0.000192976
0.000402693
0.000430585
0.00072171
0.000890135
0.000998422
0.00107766
0.0008804
0.000977813
0.000870797
0.000468133
0.000525343
0.000100271
6.06508e-05
2.38584e-05
7.17339e-06
9.97605e-05
0.00310609
0.00252062
0.00169228
0.000205782
0.00138561
0.00350437
0.0055081
0.00732278
0.00868172
0.00938795
0.00943507
0.00869152
0.00743973
0.00558293
0.00349342
0.00169747
0.00012776
0.00151027
0.00226988
0.0029979
0.00255111
0.00234934
0.00152557
0.000115922
0.00137828
0.00308099
0.00486452
0.00627553
0.00746634
0.00815877
0.00835108
0.0076754
0.00625115
0.004892
0.00310445
0.00140254
0.000235603
0.00122858
0.00210819
0.00233105
0.00204516
0.00191926
0.00120745
0.000114855
0.00106453
0.00255766
0.00392119
0.00532328
0.00660884
0.00694864
0.00689254
0.00631653
0.00559328
0.00406347
0.00269739
0.00135278
2.54173e-05
0.00101363
0.00180975
0.00207323
0.00178384
0.00146752
0.000912864
6.29017e-06
0.000782799
0.00204037
0.00343797
0.0046092
0.00532711
0.00572771
0.00568946
0.00524254
0.00454106
0.00333092
0.00221239
0.00104894
9.99356e-05
0.000793846
0.00134878
0.00172983
0.00159946
0.00124621
0.000767585
4.12714e-05
0.000903406
0.00174571
0.00251967
0.00331849
0.00428031
0.00447081
0.00454961
0.00428608
0.0034639
0.00256789
0.00165696
0.000903189
0.000107493
0.000720013
0.00116135
0.00129331
0.00109646
0.000789337
0.000603891
4.95416e-05
0.000522896
0.00129242
0.00199482
0.00244771
0.0028662
0.00324851
0.00300094
0.00320641
0.00270603
0.00204033
0.0012549
0.000820133
9.617e-05
0.000383006
0.000683502
0.000882724
0.000589354
0.000418438
0.000359324
0.000263705
0.000234786
0.000760938
0.00113807
0.00163653
0.00175179
0.0021758
0.00199506
0.00186797
0.00165461
0.00105035
0.00066317
0.000224562
9.65005e-05
9.71694e-06
0.000395813
0.000594408
0.000177512
0.000202358
8.8658e-05
4.46033e-05
0.000262691
7.99622e-05
0.000484843
0.000522154
0.000737577
0.000700599
0.000735782
0.000510865
0.000507436
0.000508821
0.000158116
0.000237008
0.00020945
0.000187594
0.000228955
0.000166413
0.00472712
0.00439804
0.00340003
0.00225451
0.000830618
0.00100165
0.00292002
0.00453885
0.00562603
0.0064656
0.00636283
0.00598591
0.00471367
0.00307901
0.00108922
0.00047476
0.00220574
0.0032762
0.00423662
0.00446338
0.00373731
0.00355308
0.00296744
0.00198218
0.000888728
0.00103314
0.00248832
0.00381034
0.00494272
0.00564883
0.00543125
0.00499685
0.00409305
0.00264964
0.00110327
0.000621338
0.00163798
0.00289492
0.00371506
0.00379437
0.00319205
0.00298729
0.00252392
0.0016579
0.000652381
0.000911789
0.0021421
0.00325211
0.00424031
0.00488443
0.00475604
0.00411569
0.00359005
0.00205218
0.000725729
0.00057197
0.00155411
0.00237901
0.00285874
0.00318888
0.00259121
0.00269506
0.00204615
0.00139237
0.000457002
0.000422437
0.0019986
0.00283179
0.00348165
0.00401539
0.00387509
0.00359714
0.00313249
0.00180107
0.000838149
0.000267733
0.00097204
0.00215708
0.00216607
0.00260277
0.00208194
0.0018816
0.00189874
0.00103081
0.000335837
0.000477437
0.00155565
0.00220903
0.0029231
0.00307885
0.00313128
0.00279675
0.00216031
0.00144081
0.00050485
0.000260872
0.00114301
0.00135828
0.00188667
0.00210919
0.00158611
0.00154477
0.00124543
0.000799579
0.000163094
0.000493353
0.000816922
0.00164218
0.00206531
0.00228045
0.0021723
0.00206547
0.00152376
0.00106361
0.000354816
0.000116449
0.000590555
0.00105216
0.00149089
0.00152951
0.00089804
0.000671868
0.000838601
0.000491496
2.88647e-05
0.000310331
0.000770658
0.000870243
0.00129353
0.00122997
0.00147043
0.00115678
0.00108364
0.000701439
0.000254847
5.27645e-05
0.000585507
0.000823647
0.000871708
0.000857419
0.000422713
0.000170971
0.000392073
0.000237479
0.000119714
0.000157076
8.0474e-05
0.000278002
0.000538943
0.000425624
0.000281649
0.000319112
0.000348445
3.65092e-05
6.90002e-05
6.17235e-05
8.15936e-05
0.000202066
0.000303712
0.000328579
0.00584331
0.00581648
0.00533342
0.00400328
0.00269959
0.000869301
0.00037279
0.00192698
0.00305096
0.00381648
0.0035481
0.00308228
0.00196186
0.000537664
0.000908666
0.00265629
0.00388058
0.0049712
0.00552731
0.00558011
0.00498029
0.00490799
0.0044159
0.00343046
0.0022502
0.000891117
0.000295987
0.00166915
0.00269883
0.00313372
0.00318472
0.00289525
0.00181974
0.000335657
0.0007841
0.00207201
0.00323592
0.00433765
0.00496769
0.00491319
0.00426778
0.00409631
0.00343352
0.00288201
0.00204518
0.000746322
0.000362958
0.00140774
0.00216429
0.00265961
0.00267959
0.00237149
0.00149073
0.000314592
0.000668028
0.00202037
0.00287503
0.00363996
0.00401049
0.00412773
0.00348678
0.00336758
0.00282043
0.00238457
0.00163
0.000598825
0.000258173
0.00110369
0.00178793
0.00216327
0.00225735
0.0020823
0.00135011
0.000395306
0.000616314
0.00149792
0.00236969
0.00299989
0.00332243
0.00331861
0.00278469
0.00267787
0.00210047
0.00176625
0.00110734
0.000456717
0.000388144
0.000956252
0.00144936
0.00183591
0.00153015
0.00147128
0.0011063
0.000284038
0.000604685
0.00132851
0.00167251
0.00248053
0.00262793
0.00256232
0.00188457
0.00209182
0.0017139
0.00143464
0.000888563
0.00041632
0.000234308
0.000735245
0.00107671
0.00140835
0.00116694
0.00101883
0.000563297
0.000279683
0.000157997
0.00094125
0.00145369
0.00163421
0.00187881
0.00203
0.00105738
0.00114777
0.000807666
0.000793521
0.000632053
0.000353719
4.80254e-05
0.000550748
0.000911399
0.000813675
0.000817059
0.000653331
0.000360311
0.000192041
0.000304055
0.000519282
0.000762759
0.00101254
0.0010855
0.00111933
0.000306194
0.000369735
0.000197123
0.000227898
0.000268339
0.000231217
1.99423e-05
0.000100442
0.00032208
0.000294113
0.000453076
0.000341178
0.00044038
0.000107267
8.49594e-05
0.000230885
0.000403432
0.000245498
0.000342937
0.000510685
0.00668589
0.00684206
0.00656025
0.00558082
0.0044296
0.00310241
0.00181146
0.000439264
0.000516518
0.00108371
0.00120018
0.000623223
0.000173359
0.00164421
0.00277908
0.00426508
0.00529858
0.00622357
0.00662964
0.0066418
0.00568599
0.00587067
0.00546285
0.00491743
0.00386368
0.00269371
0.00135406
0.000348525
0.000485201
0.000846941
0.00105676
0.000561762
0.000377544
0.00151384
0.00262414
0.00372955
0.0046919
0.00546138
0.00573557
0.00574621
0.00492521
0.00509522
0.0045678
0.00412514
0.00318836
0.00240929
0.00115705
0.000282622
0.000404804
0.000852851
0.000805147
0.000685068
0.00013321
0.00127123
0.00222043
0.00331923
0.00395679
0.00443406
0.00485358
0.00493182
0.0040311
0.00388642
0.00373977
0.00318322
0.0027909
0.00184821
0.000919578
6.29717e-05
1.88119e-05
0.000779761
0.000859604
0.000227883
4.35846e-05
0.00105374
0.00180617
0.00260011
0.00315524
0.00374293
0.00400089
0.00379477
0.00324707
0.00322306
0.00303393
0.0025817
0.00199578
0.00119702
0.000709553
0.000168662
0.000205783
0.000383754
0.000349222
0.000434338
0.000169542
0.000809576
0.00108242
0.0020229
0.00266241
0.00281031
0.00308775
0.00316906
0.0022576
0.00223848
0.00217312
0.00192198
0.00170378
0.000994809
0.000519719
0.000214063
0.000117529
0.000349518
0.000319999
0.0001844
6.44443e-05
0.000617768
0.00105899
0.0013102
0.00180841
0.00224986
0.00231024
0.00224471
0.00142572
0.00134113
0.0010353
0.00108426
0.000801445
0.000771442
0.000351667
4.47489e-05
0.000152077
0.000466017
0.000448619
0.000345146
0.000322367
0.000542038
0.000500172
0.000823934
0.00121806
0.00127115
0.0013893
0.00143564
0.000297878
0.000540673
0.000453686
0.000380005
0.000206839
7.64692e-05
0.000156832
7.82321e-05
6.92536e-06
0.000149551
0.000193571
0.000161811
4.48259e-05
0.000131794
0.00013655
0.000350442
0.000244194
0.000468621
0.000356327
0.000334284
0.00734915
0.00751201
0.00744623
0.00663334
0.00590735
0.00492212
0.00354633
0.00251695
0.00159919
0.0011071
0.00113491
0.00168532
0.0023301
0.00348059
0.00482124
0.00558248
0.00661101
0.00698651
0.00750207
0.00707462
0.00617049
0.00642599
0.00623887
0.00598028
0.00495235
0.0039346
0.00317161
0.00209033
0.00143183
0.0010959
0.00102371
0.00138194
0.00204708
0.00287654
0.00391489
0.00474684
0.00553207
0.00616031
0.00631215
0.00608765
0.00544956
0.00530961
0.00538727
0.00473128
0.00428869
0.00329584
0.00269439
0.00183785
0.00119534
0.000992992
0.00103265
0.0014509
0.00170764
0.00266625
0.00330342
0.00424997
0.00484098
0.00532371
0.00542071
0.00520155
0.00448555
0.00443395
0.00449536
0.00399634
0.00344413
0.00278087
0.00218152
0.0015023
0.000868722
0.000747354
0.000745207
0.000942138
0.00129098
0.00199585
0.0027539
0.00330094
0.00391444
0.00425124
0.00430034
0.00434713
0.00362177
0.00346126
0.0033639
0.00322179
0.00285745
0.00225121
0.0016247
0.00105696
0.000746896
0.00070821
0.000676834
0.000555329
0.00112189
0.00146608
0.00208485
0.00281388
0.0030379
0.00340918
0.00341212
0.00341965
0.00235123
0.00257144
0.00255887
0.00220235
0.00184115
0.00162918
0.00112745
0.000836307
0.000372951
0.000332274
0.000274844
0.000523953
0.000828632
0.0012595
0.00141948
0.00203711
0.00212256
0.00235041
0.00249007
0.00264337
0.00143471
0.00160869
0.00155696
0.00147386
0.00109738
0.00110678
0.000772102
0.000646754
0.00060415
0.000390007
0.000395297
0.000208498
0.000302755
0.000676912
0.000857716
0.000984634
0.00125757
0.00145446
0.00176178
0.001522
0.000424644
0.000617504
0.000668096
0.000566108
0.000500342
0.000572517
0.000294206
3.12348e-05
8.514e-05
7.75427e-05
2.29778e-05
8.35385e-05
4.90973e-05
9.31265e-05
0.000390548
0.000247119
0.000399915
0.000363912
0.000665017
0.000574338
0.00734654
0.00785569
0.00775281
0.00732956
0.00687766
0.00603798
0.00490671
0.00410488
0.00346692
0.00305869
0.00307598
0.00329643
0.0041722
0.00488527
0.00583253
0.00663185
0.00722745
0.00773411
0.00761046
0.00728549
0.00636301
0.0067146
0.00675464
0.0064036
0.00593059
0.00530463
0.00424355
0.00346792
0.00271373
0.00255119
0.002655
0.00280658
0.00360951
0.00418006
0.00505906
0.00585939
0.00633288
0.00655079
0.00652171
0.00620687
0.00546814
0.00556203
0.00541114
0.00532132
0.00481741
0.0043962
0.00363803
0.00306889
0.00235804
0.00219856
0.00213502
0.00237837
0.0029369
0.00356671
0.00455061
0.00477204
0.00557308
0.00545154
0.00550744
0.005364
0.00437514
0.00456601
0.00474512
0.00437584
0.00419878
0.00353434
0.00313442
0.00245764
0.00219872
0.00178517
0.00175058
0.00198703
0.00251144
0.00279253
0.00350762
0.00418682
0.00454595
0.00456471
0.00432751
0.00436826
0.00349617
0.0036889
0.00353925
0.00344706
0.0031298
0.00268801
0.0024331
0.0020896
0.00161927
0.00149212
0.00126894
0.00154855
0.00199953
0.00232865
0.00267491
0.00304076
0.0035361
0.00371474
0.00360712
0.00351226
0.00243269
0.00255285
0.00259002
0.00252724
0.00208427
0.00192717
0.0016342
0.00145676
0.00110854
0.00106696
0.00109573
0.00128451
0.0015861
0.00150566
0.00207935
0.00256433
0.00256684
0.00247596
0.00274941
0.0022952
0.00152951
0.00156896
0.00167386
0.00145907
0.00156467
0.00149133
0.000974511
0.000761908
0.000985266
0.000737381
0.000563876
0.000575894
0.00106855
0.000982625
0.00101929
0.0012655
0.0015903
0.0018895
0.00145433
0.00148749
0.000624885
0.000411014
0.000348226
0.000414427
0.000428166
0.000560096
0.000290438
0.000296713
0.000382764
0.000159492
8.66759e-06
0.000186793
0.000457214
0.000375137
0.000518808
0.000238609
0.00048119
0.000436924
0.000571261
0.000499551
0.00714662
0.00760414
0.00771246
0.00779731
0.00734534
0.00679084
0.00611354
0.00549037
0.00498654
0.00451627
0.00449938
0.00487424
0.00540097
0.00599066
0.00674306
0.00736627
0.00771925
0.00792486
0.00754974
0.00703527
0.0059309
0.00644854
0.006801
0.00654404
0.00631215
0.00590321
0.00521365
0.00482994
0.00415311
0.00393455
0.00404989
0.00406578
0.00470569
0.00524681
0.0057958
0.006375
0.00641287
0.00658983
0.00633192
0.00562383
0.00519603
0.00564283
0.00558851
0.0055279
0.00545374
0.00512873
0.00449189
0.00389254
0.00350854
0.0030582
0.00332795
0.00350316
0.00402494
0.0042445
0.00484078
0.00525204
0.00557815
0.00567893
0.00536591
0.00501132
0.00428538
0.00447234
0.00480473
0.00461949
0.00446582
0.00393656
0.00356676
0.0033775
0.00285365
0.00258138
0.00276311
0.00275933
0.00307403
0.00365047
0.00383623
0.00444455
0.00445687
0.00473644
0.00438004
0.00411914
0.00360352
0.0036148
0.00364874
0.00377598
0.00338722
0.00334958
0.00302714
0.00254726
0.00239281
0.00231132
0.00207281
0.00236287
0.00239263
0.00270728
0.00316091
0.00361249
0.00367414
0.00372099
0.0035251
0.00341902
0.00226269
0.00260914
0.00257205
0.00269318
0.00258088
0.00228161
0.00209974
0.0018662
0.00163136
0.00142777
0.00142682
0.00172874
0.00188286
0.0019896
0.00243429
0.00241018
0.00286081
0.00280832
0.00251119
0.00222386
0.0016471
0.00156572
0.00156558
0.00161927
0.00147398
0.00155591
0.00129203
0.00118047
0.00106652
0.000849871
0.000959656
0.00127139
0.00119634
0.00134224
0.00151314
0.00151088
0.00147543
0.00129902
0.00146544
0.00150442
0.000649333
0.000465779
0.000638787
0.000408716
0.000491505
0.00044782
0.00063662
0.00019157
0.000337534
0.000561862
0.000159454
0.000627716
0.000387513
0.000584164
0.000476038
0.000497521
0.000676529
0.000613191
0.000599481
0.000413168
0.00616136
0.00707289
0.00765272
0.00766184
0.00748233
0.00728451
0.00653128
0.00606266
0.00577191
0.00544376
0.00555278
0.00580663
0.0062166
0.00633035
0.00699508
0.00735739
0.00756458
0.00748529
0.00687359
0.00617584
0.00545643
0.00581973
0.00662535
0.00666749
0.00660229
0.00632772
0.00558579
0.00532741
0.00489641
0.00471702
0.00472276
0.00485991
0.00541662
0.00574004
0.00594562
0.00631215
0.00659429
0.00640966
0.00593353
0.00533565
0.0044806
0.00500709
0.00543909
0.00544481
0.00541948
0.00530443
0.00479372
0.00438722
0.00421283
0.00399727
0.00402245
0.00431392
0.00449628
0.00475719
0.005054
0.00551967
0.00576078
0.00546906
0.00487558
0.004499
0.00380498
0.00440262
0.00455387
0.0046082
0.0044886
0.00432148
0.0039031
0.00358167
0.00366017
0.00340946
0.00331751
0.00334826
0.00362383
0.00369233
0.00413831
0.00440644
0.00454411
0.00435061
0.00422225
0.00379277
0.00293971
0.0031609
0.00345578
0.00349498
0.00370599
0.00327688
0.00300804
0.0027808
0.0028832
0.0026641
0.00236407
0.00266115
0.00291595
0.00288027
0.00348601
0.00369128
0.00359851
0.00336135
0.00345098
0.00314633
0.00206348
0.00240099
0.00256177
0.00250666
0.00244508
0.00229519
0.00223293
0.00213664
0.00198032
0.00198537
0.00181838
0.0019034
0.00210405
0.00219591
0.002254
0.00238464
0.00254765
0.00248226
0.00243248
0.00199992
0.00112126
0.00148455
0.0014949
0.00151846
0.00150757
0.00134001
0.00119381
0.00134816
0.00104945
0.00112626
0.00113307
0.00118013
0.00126924
0.00145215
0.00119076
0.00165385
0.0015785
0.00141172
0.00132078
0.00130271
0.000514116
0.000507706
0.000579503
0.000663665
0.00064123
0.00054273
0.000491029
0.000302913
0.000441857
0.000486524
0.000574128
0.000405891
0.000624238
0.0003434
0.000539375
0.000677794
0.000760566
0.000459627
0.000561691
0.000426781
0.00516948
0.00598131
0.00657494
0.0070214
0.00701163
0.00686313
0.0065731
0.00641531
0.00617121
0.00571519
0.00592939
0.00597155
0.00629606
0.00639325
0.00689863
0.00702974
0.00694103
0.00651779
0.00592286
0.00497712
0.00443359
0.00520868
0.00582266
0.00597672
0.00622316
0.00605683
0.00561856
0.00548643
0.00519617
0.0050182
0.00512501
0.00513618
0.00542394
0.00580551
0.00596481
0.00604654
0.00613941
0.00573474
0.00510643
0.00437075
0.00385338
0.00420877
0.00486537
0.00513856
0.00529888
0.00522278
0.00484183
0.00433241
0.00429413
0.00431399
0.00453827
0.00437904
0.00459533
0.00495613
0.00490384
0.00521461
0.00515734
0.00493003
0.00419673
0.00362123
0.00303045
0.00357417
0.0038265
0.00427641
0.00423433
0.00405411
0.00403133
0.00371311
0.00348733
0.0035518
0.00346562
0.00336902
0.00362794
0.00401292
0.00405586
0.00401617
0.00417245
0.00391469
0.00348771
0.00312606
0.00247215
0.00279635
0.00311755
0.00324434
0.00339287
0.00335693
0.00296175
0.00272998
0.00279479
0.00286164
0.00261416
0.00278432
0.00290459
0.00326084
0.00339924
0.0032282
0.00346606
0.00315138
0.00261063
0.00237892
0.00187424
0.0018129
0.0021839
0.00229847
0.0024446
0.00254906
0.00225603
0.00234369
0.00208227
0.00198897
0.00198229
0.00199718
0.00223592
0.0021957
0.00230491
0.00246455
0.00249736
0.00226409
0.00190858
0.00174502
0.0011301
0.00121079
0.00131623
0.00145311
0.00156872
0.00138043
0.00146806
0.00113376
0.00119486
0.00136353
0.0011075
0.00133466
0.00133145
0.00161026
0.00149298
0.0013257
0.00159907
0.00138407
0.00127342
0.000966654
0.000319595
0.0005258
0.000449614
0.000535656
0.000626375
0.000414683
0.000609975
0.000501483
0.000510172
0.000255675
0.000240863
0.00053866
0.000478113
0.0005749
0.000655251
0.000480523
0.000849611
0.000541973
0.000232752
0.000110696
0.003497
0.00435103
0.00540012
0.00588569
0.00628311
0.00625694
0.00621121
0.0061037
0.0058373
0.00583984
0.00566848
0.00572701
0.00585448
0.0061278
0.00635326
0.00622324
0.00571553
0.00527134
0.00442804
0.00333557
0.00282516
0.00374617
0.00462505
0.00493282
0.00519866
0.00550148
0.00540308
0.00530609
0.00495855
0.00494913
0.0049471
0.00500784
0.00511499
0.00534052
0.00537361
0.00539122
0.00489532
0.00445763
0.00363102
0.00304098
0.00246665
0.00320555
0.00377349
0.00430209
0.00449088
0.00457791
0.00457428
0.00440985
0.00428319
0.00415547
0.00404285
0.00409744
0.00424888
0.00455846
0.00459922
0.00458814
0.00433192
0.00363229
0.00310639
0.00263098
0.00196934
0.00277249
0.0034118
0.00361712
0.00373824
0.00381607
0.00372591
0.00364309
0.00350671
0.00320472
0.00362888
0.00363963
0.0035495
0.00381696
0.00375373
0.00346525
0.0035472
0.0032581
0.00250558
0.00192365
0.00180768
0.00215424
0.00236631
0.0027724
0.00280793
0.00285746
0.00281649
0.00293676
0.0027583
0.00274981
0.00281681
0.00257092
0.00277989
0.00265801
0.00286445
0.00291885
0.00289311
0.00216386
0.00198172
0.00159874
0.00115389
0.00161981
0.00180019
0.00206435
0.00210495
0.00191711
0.00203208
0.00195042
0.00201474
0.00215901
0.00196554
0.00196737
0.00199131
0.00200758
0.00212593
0.00227052
0.00197926
0.00185842
0.00138058
0.00095829
0.000602858
0.000892459
0.00124629
0.00128019
0.00126977
0.00132079
0.00124629
0.00145389
0.00127363
0.00152873
0.00127589
0.00120886
0.00116285
0.00129463
0.00138465
0.0015153
0.00127062
0.0011015
0.000840024
0.00102258
0.000181315
0.000224654
0.000426715
0.000134692
0.000445551
0.000406457
0.000380519
0.00048404
0.000497388
0.000380959
0.000481066
0.000227852
0.000566143
0.000214085
0.000497008
0.000563856
0.000482918
0.000570871
0.000403119
0.000492036
0.00118405
0.00225151
0.00346578
0.00433858
0.00496224
0.00507822
0.00504985
0.00526848
0.00516243
0.00498621
0.00514155
0.00483049
0.00502169
0.00523162
0.00516198
0.00459589
0.00436334
0.00336765
0.00244917
0.00120351
0.00122415
0.00225758
0.00300134
0.0037433
0.00424856
0.00436185
0.00451149
0.00426234
0.00446988
0.0042748
0.00431126
0.00452266
0.00437598
0.00443985
0.00425715
0.00413693
0.00354398
0.00293207
0.00203889
0.00108522
0.000821724
0.00192002
0.0025949
0.00308084
0.00352505
0.00361014
0.00358728
0.00358191
0.00367171
0.00364042
0.0035926
0.00367983
0.00381956
0.00372113
0.00354166
0.00332604
0.00305201
0.00266
0.00174222
0.000658567
0.000689371
0.00135103
0.00222984
0.00263894
0.00281756
0.00285322
0.00300121
0.00310748
0.0032344
0.00305059
0.00301797
0.00288854
0.00309012
0.00308633
0.0028865
0.00282398
0.00261539
0.001911
0.00140286
0.000644974
0.000422677
0.0011405
0.00157995
0.00199308
0.00242197
0.00225238
0.00242414
0.0022283
0.00232513
0.00235011
0.0024961
0.0023964
0.0024678
0.00222049
0.00226294
0.00229954
0.00176858
0.00140848
0.00100603
0.000654869
0.000384737
0.000841054
0.00109659
0.00123083
0.00159144
0.00189176
0.0017399
0.00185577
0.00152664
0.00194385
0.00163283
0.00186632
0.00184908
0.00181779
0.00175425
0.00160719
0.00147792
0.00122745
0.000782179
0.00045166
9.73857e-05
0.00037661
0.000829029
0.000820134
0.000861404
0.00103078
0.00109343
0.000992379
0.00101335
0.000993617
0.00106431
0.00116743
0.00109995
0.0012574
0.00100408
0.00092776
0.000916724
0.000479756
0.000495266
0.000135305
8.05962e-05
5.10308e-05
0.000324593
0.00022363
0.000377572
0.000448858
0.000235668
0.000581279
0.000514055
0.000246154
0.000346352
0.000285181
0.000489394
0.000583405
0.000317995
0.000124255
0.000311889
0.000114329
0.00010843
5.51744e-05
0.00129352
3.44034e-05
0.00122509
0.00208139
0.00276593
0.00334604
0.0035045
0.00367259
0.00366461
0.00348777
0.00382749
0.00363935
0.00362645
0.00340945
0.00329878
0.00281086
0.00210298
0.00136001
0.000113947
0.00156205
0.00127621
0.000289505
0.000930925
0.00206374
0.00244513
0.00286595
0.00315006
0.00303418
0.0031955
0.0030683
0.00318995
0.00316694
0.00304468
0.00268521
0.00292038
0.00243158
0.00171144
0.00090886
0.000153735
0.00140909
0.00102813
4.5068e-05
0.000716748
0.00131116
0.00199648
0.00230339
0.0023619
0.00269557
0.00268955
0.00264159
0.002675
0.00258087
0.00254963
0.00258149
0.00210824
0.00191715
0.00134687
0.000532136
0.000361689
0.00117225
0.00061446
0.000116186
0.000555194
0.00125959
0.00152746
0.00166203
0.00209541
0.0022785
0.00203828
0.00235005
0.00232242
0.00229015
0.00200957
0.00228724
0.00191952
0.00164659
0.00110815
0.000702621
0.000447883
0.000804031
0.000687689
7.80388e-05
0.000618712
0.000994225
0.00135421
0.00156589
0.00156544
0.0016394
0.00159587
0.00170715
0.00167678
0.00157378
0.00155767
0.00158578
0.0015462
0.00112868
0.000961401
0.000398834
0.000126234
0.000750617
0.000542563
0.000289884
0.000203249
0.000807746
0.000977414
0.00113762
0.0011783
0.00115537
0.00122494
0.0011325
0.000961653
0.00131356
0.00117912
0.00124604
0.000908036
0.000973712
0.000826567
0.0004957
2.83647e-05
0.000475166
0.000124263
2.86785e-05
0.000164348
0.000524979
0.000643221
0.000659351
0.00060051
0.000674219
0.000727217
0.000875914
0.000680651
0.000725509
0.000720108
0.000701367
0.000657767
0.000595735
0.000317493
0.000179443
4.71532e-05
0.000528657
0.000175
0.00010914
3.32623e-05
3.77504e-05
0.000286395
0.000311414
0.000373365
0.000229681
0.000134671
0.000278836
4.68708e-05
0.000169113
0.000364466
0.000330197
0.000196059
0.000152842
8.28228e-06
0.000142577
0.000252396
5.44595e-05
0.00462473
0.00305001
0.00175586
0.00061554
0.000302311
0.000938123
0.00129237
0.00157837
0.00170857
0.00189112
0.00166409
0.00157614
0.00152479
0.00111411
0.000922748
0.000408461
0.000589663
0.00168797
0.00324232
0.0046604
0.00388055
0.00264839
0.00163189
0.000579268
0.000322949
0.000738549
0.00125711
0.00132757
0.00140609
0.00131937
0.00137741
0.00139429
0.00138956
0.000988615
0.00062276
0.000122172
0.000758694
0.0014058
0.00267668
0.00397592
0.00321969
0.00241911
0.00120076
0.000293681
0.00013682
0.000631289
0.000796601
0.00114846
0.00120987
0.00120478
0.00114127
0.00118495
0.0010453
0.000855191
0.000618167
0.000223649
0.000550959
0.00139084
0.00220317
0.0036288
0.00276376
0.00174016
0.00103234
0.000301345
3.59293e-05
0.000581798
0.000498046
0.000886206
0.00107674
0.00104901
0.00110553
0.000799538
0.000881915
0.000774683
0.000304218
0.000224856
0.000328042
0.0010995
0.00198155
0.00295061
0.0021289
0.00146411
0.000883111
0.000125183
9.54701e-05
0.00036241
0.000496463
0.000586862
0.000878598
0.000837523
0.000748291
0.000836539
0.000677411
0.000474209
0.000438829
0.000197187
0.000298987
0.000777925
0.00148739
0.00214913
0.00166441
0.00105619
0.000765197
0.000331084
2.06343e-06
0.000207218
0.000582078
0.000436133
0.000528556
0.000605096
0.0005969
0.000369771
0.000542114
0.000550548
0.000271647
0.000146216
0.000204595
0.000557152
0.000951954
0.0014301
0.00076151
0.00076517
0.000247397
0.00019614
1.8411e-05
7.11794e-05
0.000199245
0.000334548
0.00038137
0.000236609
0.000293156
0.000236543
0.000183373
0.000255063
0.000306401
0.000162935
0.00032897
0.000466382
0.000656969
0.000993267
0.00052127
0.000246745
0.000335477
4.64113e-05
0.000149841
1.8106e-05
2.71085e-06
0.000107603
4.70304e-05
0.000203184
0.000285027
0.00020706
2.11174e-05
7.95638e-05
0.000256765
8.95467e-05
0.000129813
4.84449e-05
0.000176649
0.000257174
0.00810161
0.00637646
0.00505091
0.00376983
0.00281276
0.00197162
0.00152969
0.00111922
0.000849707
0.000887429
0.000813906
0.000840128
0.00105701
0.00148961
0.00194228
0.0027986
0.00357362
0.00514231
0.00658696
0.00833425
0.00696114
0.0056686
0.00445033
0.00330904
0.00241826
0.00161718
0.00139681
0.00113772
0.000720022
0.000671821
0.000697109
0.000829859
0.00100532
0.00133042
0.00174416
0.00250046
0.00324965
0.00454357
0.00589058
0.00718294
0.00589023
0.00487178
0.00375034
0.00283332
0.0018588
0.00157251