/*--------------------------------*- C++ -*----------------------------------*\
| =========                 |                                                 |
| \\      /  F ield         | OpenFOAM: The Open Source CFD Toolbox           |
|  \\    /   O peration     | Version:  2212                                  |
|   \\  /    A nd           | Website:  www.openfoam.com                      |
|    \\/     M anipulation  |                                                 |
\*---------------------------------------------------------------------------*/
FoamFile
{
    version     2.0;
    format      ascii;
    arch        "LSB;label=32;scalar=64";
    class       volScalarField;
    location    "0";
    object      stateMean;
}
// * * * * * * * * * * * * * * * * * * * * * * * * * * * * * * * * * * * * * //

dimensions      [0 0 0 1 0 0 0];

internalField   nonuniform List<scalar> 
3200
(
321.013
321.405
321.661
321.909
322.052
322.321
322.427
322.565
322.506
322.615
322.541
322.392
322.26
322.106
321.883
321.639
321.317
320.901
320.558
320.219
318.419
318.686
319.01
319.286
319.431
319.622
319.788
319.781
319.802
319.768
319.817
319.574
319.544
319.423
319.15
318.977
318.612
318.34
318.092
317.782
315.809
315.945
316.207
316.512
316.583
316.719
316.886
316.946
316.908
316.936
316.864
316.882
316.787
316.509
316.4
316.213
315.966
315.635
315.408
315.21
313.034
313.2
313.346
313.568
313.724
313.774
313.893
313.97
314.017
313.963
313.991
313.888
313.772
313.728
313.538
313.41
313.163
312.965
312.73
312.48
310.195
310.32
310.487
310.625
310.751
310.766
310.874
311.005
310.988
310.939
310.937
310.859
310.824
310.751
310.657
310.491
310.327
310.181
309.924
309.784
307.317
307.464
307.588
307.685
307.8
307.743
307.767
307.875
307.863
307.821
307.923
307.838
307.771
307.723
307.57
307.523
307.476
307.252
307.249
306.984
304.459
304.44
304.517
304.62
304.667
304.674
304.683
304.762
304.748
304.679
304.73
304.675
304.64
304.676
304.662
304.495
304.549
304.33
304.34
304.273
301.464
301.445
301.493
301.558
301.566
301.612
301.575
301.603
301.548
301.545
301.602
301.579
301.579
301.535
301.533
301.562
301.422
301.435
301.448
301.335
321.753
322.059
322.388
322.697
322.937
323.149
323.286
323.356
323.438
323.399
323.34
323.253
323.137
322.963
322.73
322.429
322.193
321.7
321.315
321.033
319.078
319.28
319.57
319.894
320.063
320.245
320.298
320.529
320.513
320.5
320.447
320.398
320.259
320.093
319.907
319.595
319.294
318.993
318.706
318.407
316.257
316.458
316.761
316.995
317.199
317.298
317.399
317.5
317.522
317.463
317.486
317.395
317.34
317.138
316.949
316.825
316.509
316.228
315.967
315.692
313.384
313.639
313.779
314.075
314.134
314.274
314.344
314.355
314.463
314.423
314.386
314.348
314.258
314.158
313.968
313.819
313.575
313.416
313.196
312.985
310.529
310.638
310.8
310.93
311.06
311.138
311.266
311.243
311.296
311.304
311.276
311.18
311.192
311.052
310.93
310.791
310.608
310.395
310.293
310.106
307.651
307.699
307.798
307.905
307.985
307.947
308.085
308.109
308.066
308.188
308.189
308.063
308.023
307.907
307.802
307.785
307.647
307.515
307.419
307.286
304.558
304.675
304.741
304.711
304.733
304.835
304.847
304.855
304.868
304.926
304.859
304.823
304.78
304.767
304.676
304.674
304.608
304.556
304.409
304.358
301.589
301.569
301.593
301.525
301.58
301.705
301.634
301.623
301.587
301.629
301.579
301.618
301.644
301.607
301.577
301.597
301.567
301.498
301.516
301.474
322.751
323.04
323.446
323.815
324.001
324.215
324.469
324.54
324.567
324.62
324.46
324.453
324.347
324.149
323.854
323.568
323.23
322.845
322.375
322.054
319.917
320.183
320.499
320.743
321.006
321.148
321.367
321.401
321.476
321.491
321.531
321.329
321.213
321.029
320.846
320.577
320.309
319.95
319.541
319.238
316.983
317.184
317.441
317.668
317.948
318.016
318.238
318.266
318.376
318.356
318.337
318.238
318.162
317.945
317.725
317.544
317.291
317.047
316.693
316.411
313.96
314.194
314.382
314.654
314.717
314.915
314.996
315.068
315.061
315.084
315.082
315.007
314.865
314.863
314.633
314.433
314.284
314.035
313.763
313.584
311.007
311.119
311.238
311.336
311.584
311.665
311.736
311.772
311.794
311.824
311.818
311.73
311.621
311.58
311.473
311.336
311.161
310.905
310.703
310.628
307.904
307.941
308.07
308.111
308.318
308.427
308.49
308.406
308.503
308.562
308.51
308.469
308.331
308.355
308.216
308.148
307.998
307.816
307.707
307.598
304.8
304.816
304.835
304.94
304.948
304.991
305.078
305.143
305.083
305.122
305.094
305.146
305.038
305.021
304.958
304.857
304.787
304.725
304.635
304.577
301.641
301.648
301.633
301.666
301.624
301.684
301.697
301.719
301.799
301.721
301.628
301.669
301.639
301.663
301.636
301.641
301.612
301.62
301.481
301.512
323.846
324.17
324.56
324.874
325.182
325.458
325.603
325.761
325.763
325.85
325.773
325.674
325.599
325.303
325.044
324.727
324.459
324.095
323.636
323.238
320.83
321.106
321.435
321.798
322.068
322.181
322.288
322.525
322.534
322.634
322.473
322.499
322.323
322.185
321.931
321.617
321.345
321.004
320.667
320.33
317.741
317.97
318.286
318.567
318.716
318.978
319.057
319.217
319.268
319.244
319.278
319.12
319.032
318.913
318.721
318.493
318.2
317.902
317.534
317.374
314.643
314.765
315.082
315.318
315.491
315.539
315.811
315.793
315.827
315.885
315.864
315.791
315.7
315.529
315.336
315.237
314.984
314.792
314.513
314.236
311.435
311.593
311.716
311.931
312.129
312.202
312.255
312.342
312.43
312.411
312.371
312.356
312.253
312.151
311.987
311.855
311.687
311.482
311.243
311.143
308.194
308.271
308.491
308.543
308.649
308.757
308.843
308.866
308.905
308.925
308.899
308.894
308.788
308.749
308.648
308.453
308.44
308.292
308.104
307.975
304.944
304.971
305.088
305.174
305.218
305.195
305.344
305.361
305.277
305.334
305.355
305.268
305.325
305.27
305.191
305.177
304.99
304.947
304.891
304.774
301.661
301.654
301.705
301.735
301.739
301.807
301.755
301.781
301.79
301.856
301.819
301.804
301.776
301.752
301.75
301.68
301.719
301.636
301.626
301.604
324.89
325.322
325.723
326.122
326.414
326.677
326.892
327.03
327.158
327.13
327.119
327.01
326.849
326.604
326.381
326.076
325.657
325.275
324.827
324.411
321.808
322.119
322.388
322.768
323.123
323.315
323.498
323.66
323.698
323.702
323.686
323.65
323.441
323.244
323.07
322.817
322.488
322.02
321.659
321.213
318.526
318.909
319.183
319.442
319.727
319.829
320.049
320.145
320.207
320.165
320.262
320.121
320.055
319.883
319.639
319.424
319.115
318.818
318.441
318.211
315.205
315.499
315.838
316.021
316.194
316.297
316.516
316.511
316.615
316.656
316.646
316.605
316.449
316.302
316.098
315.957
315.741
315.493
315.134
314.967
311.965
312.115
312.353
312.497
312.669
312.714
312.871
312.965
312.996
312.966
312.986
312.936
312.852
312.726
312.604
312.441
312.364
312.135
311.906
311.691
308.623
308.766
308.832
308.952
309.105
309.117
309.284
309.316
309.322
309.321
309.299
309.282
309.176
309.152
309.05
308.949
308.779
308.717
308.496
308.415
305.191
305.275
305.343
305.45
305.483
305.51
305.551
305.577
305.636
305.654
305.615
305.552
305.577
305.508
305.47
305.389
305.373
305.191
305.101
305.091
301.698
301.776
301.776
301.798
301.844
301.862
301.887
301.871
301.865
301.886
301.871
301.85
301.838
301.864
301.877
301.872
301.75
301.735
301.746
301.611
326.026
326.47
326.94
327.325
327.635
327.935
328.103
328.289
328.402
328.454
328.51
328.382
328.202
327.95
327.7
327.423
326.988
326.535
326.002
325.568
322.656
323.107
323.466
323.761
324.093
324.433
324.585
324.743
324.854
324.847
324.79
324.757
324.615
324.357
324.142
323.898
323.513
323.127
322.782
322.363
319.325
319.678
320.001
320.412
320.546
320.81
320.967
321.128
321.196
321.108
321.155
321.09
320.918
320.789
320.578
320.372
320.006
319.743
319.385
319.034
315.893
316.137
316.461
316.759
316.883
317.043
317.254
317.365
317.416
317.356
317.469
317.354
317.306
317.055
316.973
316.716
316.591
316.235
316
315.684
312.498
312.673
312.848
313.02
313.206
313.431
313.575
313.569
313.62
313.589
313.652
313.61
313.486
313.329
313.25
313.075
312.935
312.713
312.462
312.296
308.907
309.104
309.164
309.364
309.487
309.612
309.669
309.722
309.678
309.774
309.787
309.723
309.68
309.605
309.434
309.323
309.259
309.107
308.989
308.731
305.392
305.464
305.582
305.61
305.71
305.742
305.798
305.9
305.895
305.908
305.813
305.96
305.852
305.755
305.739
305.679
305.608
305.509
305.366
305.275
301.775
301.883
301.938
301.98
301.929
301.953
301.966
301.947
301.966
302.005
301.995
302.002
301.951
301.955
301.946
301.922
301.844
301.782
301.75
301.746
327.098
327.53
328.013
328.484
328.841
329.216
329.361
329.693
329.72
329.816
329.733
329.656
329.454
329.29
328.917
328.632
328.255
327.709
327.28
326.778
323.646
324.088
324.468
324.878
325.187
325.465
325.716
325.835
325.957
326.038
325.981
325.82
325.757
325.543
325.356
324.958
324.672
324.254
323.786
323.459
320.117
320.476
320.831
321.153
321.475
321.72
321.849
322.067
322.108
322.162
322.136
322.016
321.951
321.778
321.58
321.323
320.955
320.67
320.224
319.869
316.659
316.844
317.124
317.419
317.692
317.831
318.056
318.113
318.217
318.263
318.191
318.173
318.071
317.858
317.726
317.606
317.256
316.967
316.658
316.443
312.925
313.218
313.467
313.663
313.713
313.991
314.056
314.167
314.13
314.276
314.226
314.239
314.082
314
313.832
313.718
313.511
313.232
312.951
312.79
309.373
309.452
309.661
309.779
309.906
309.956
310.044
310.129
310.169
310.238
310.183
310.167
310.102
310.053
309.911
309.826
309.712
309.436
309.266
309.206
305.595
305.711
305.736
305.907
305.971
306.05
306.073
306.081
306.175
306.193
306.138
306.173
306.152
306.102
305.969
305.905
305.798
305.747
305.598
305.514
301.888
301.892
301.968
301.923
302.056
302.016
302.067
302.042
302.005
302.088
302.14
302.056
302.045
302.044
301.979
301.99
301.923
301.934
301.909
301.934
328.194
328.712
329.148
329.603
330.144
330.401
330.643
330.87
330.985
331.001
330.988
330.909
330.747
330.508
330.281
329.96
329.393
328.952
328.471
327.963
324.568
325.122
325.458
325.817
326.174
326.501
326.785
326.942
327.042
327.085
327.07
326.97
326.826
326.581
326.356
326.116
325.661
325.324
324.807
324.366
320.968
321.334
321.677
322.054
322.344
322.595
322.738
322.937
323.03
323.08
323.064
322.974
322.993
322.705
322.525
322.214
321.834
321.518
321.14
320.732
317.237
317.588
317.833
318.145
318.322
318.674
318.71
318.859
318.878
318.934
318.978
318.955
318.802
318.675
318.535
318.285
317.994
317.695
317.414
317.128
313.499
313.672
313.977
314.152
314.407
314.5
314.648
314.753
314.827
314.795
314.861
314.789
314.592
314.574
314.393
314.274
314.096
313.827
313.576
313.346
309.732
309.889
309.952
310.146
310.316
310.377
310.492
310.583
310.61
310.592
310.675
310.571
310.663
310.529
310.374
310.254
310.081
309.915
309.821
309.559
305.829
305.953
305.971
306.172
306.175
306.323
306.326
306.393
306.365
306.451
306.384
306.408
306.368
306.328
306.266
306.193
306.09
305.951
305.861
305.755
301.943
302.028
301.98
302.041
302.093
302.065
302.193
302.13
302.119
302.133
302.101
302.089
302.112
302.181
302.113
302.062
302.06
302.045
302.037
301.861
329.128
329.631
330.282
330.791
331.218
331.564
331.871
332.035
332.145
332.261
332.244
332.202
332.008
331.787
331.433
331.086
330.62
330.251
329.573
329.008
325.492
325.897
326.422
326.843
327.279
327.544
327.735
328.011
328.112
328.133
328.151
328.054
327.962
327.684
327.402
327.158
326.82
326.315
325.816
325.372
321.782
322.095
322.476
322.767
323.166
323.436
323.651
323.87
323.911
324.011
323.958
323.916
323.793
323.585
323.352
323.076
322.793
322.345
321.968
321.642
317.873
318.227
318.473
318.845
319.104
319.237
319.447
319.548
319.625
319.72
319.71
319.635
319.531
319.445
319.216
319.014
318.755
318.388
318.123
317.776
314.009
314.222
314.447
314.711
314.938
315.096
315.244
315.407
315.384
315.437
315.345
315.327
315.32
315.193
315.035
314.844
314.599
314.351
314.06
313.896
309.987
310.195
310.286
310.533
310.7
310.793
310.872
310.993
311.025
311.049
311.045
310.968
310.984
310.85
310.753
310.571
310.474
310.296
310.109
310.043
306.039
306.104
306.227
306.338
306.445
306.57
306.565
306.64
306.679
306.685
306.672
306.684
306.642
306.481
306.509
306.339
306.356
306.173
306.07
305.981
302.002
302.023
302.11
302.098
302.215
302.193
302.145
302.197
302.244
302.236
302.24
302.214
302.122
302.125
302.189
302.173
302.102
302.118
302.013
302.023
330.192
330.7
331.248
331.78
332.323
332.698
332.977
333.174
333.435
333.422
333.417
333.414
333.251
332.982
332.646
332.269
331.729
331.313
330.704
330.154
326.376
326.909
327.299
327.786
328.222
328.541
328.818
328.956
329.192
329.213
329.196
329.129
329.032
328.77
328.493
328.1
327.764
327.287
326.749
326.32
322.46
322.836
323.267
323.602
324.054
324.313
324.591
324.631
324.817
324.904
324.854
324.781
324.675
324.502
324.188
323.949
323.603
323.18
322.852
322.386
318.472
318.785
319.148
319.433
319.776
319.99
320.09
320.37
320.415
320.443
320.465
320.42
320.302
320.161
319.922
319.707
319.457
319.114
318.8
318.454
314.494
314.643
314.914
315.161
315.447
315.619
315.733
315.871
315.928
315.964
315.976
315.88
315.778
315.746
315.553
315.309
315.159
314.918
314.685
314.44
310.332
310.604
310.72
310.91
311.098
311.193
311.284
311.366
311.375
311.516
311.421
311.39
311.434
311.341
311.178
311.038
310.872
310.684
310.469
310.343
306.257
306.348
306.414
306.571
306.592
306.791
306.808
306.825
306.942
306.944
306.974
306.887
306.834
306.794
306.712
306.67
306.529
306.446
306.33
306.22
302.088
302.095
302.183
302.222
302.245
302.252
302.236
302.264
302.346
302.315
302.374
302.273
302.322
302.284
302.292
302.221
302.225
302.191
302.155
302.07
331.114
331.716
332.303
332.839
333.35
333.829
334.159
334.421
334.501
334.621
334.635
334.617
334.378
334.161
333.891
333.413
332.922
332.315
331.742
331.268
327.207
327.686
328.212
328.731
329.197
329.521
329.83
330.009
330.094
330.226
330.264
330.078
329.994
329.797
329.478
329.134
328.717
328.195
327.788
327.226
323.159
323.656
324.014
324.439
324.87
325.113
325.332
325.531
325.661
325.665
325.696
325.615
325.556
325.367
325.125
324.793
324.445
323.973
323.573
323.172
319.082
319.474
319.759
320.086
320.386
320.653
320.78
320.982
321.07
321.114
321.162
321.132
320.948
320.865
320.652
320.373
320.046
319.747
319.375
319.049
314.911
315.137
315.442
315.709
315.919
316.112
316.305
316.395
316.511
316.555
316.477
316.453
316.41
316.294
316.118
315.957
315.698
315.367
315.182
314.853
310.747
310.796
311.057
311.26
311.352
311.569
311.692
311.768
311.853
311.837
311.875
311.821
311.734
311.618
311.549
311.343
311.279
311.035
310.84
310.681
306.365
306.576
306.639
306.779
306.833
306.996
307.039
307.067
307.046
307.093
307.153
307.114
307.11
307.068
306.949
306.874
306.757
306.673
306.58
306.442
302.093
302.196
302.249
302.219
302.288
302.317
302.385
302.376
302.389
302.387
302.336
302.352
302.349
302.39
302.338
302.301
302.273
302.269
302.24
302.161
332.074
332.652
333.246
333.852
334.341
334.828
335.192
335.463
335.646
335.788
335.784
335.704
335.513
335.205
334.922
334.504
334.036
333.41
332.778
332.234
328.003
328.492
329.01
329.562
330.042
330.39
330.679
330.931
331.096
331.149
331.183
331.028
330.947
330.726
330.427
329.988
329.587
329.155
328.61
328.122
323.872
324.248
324.71
325.205
325.525
325.86
326.118
326.373
326.41
326.473
326.533
326.492
326.428
326.167
325.928
325.536
325.246
324.8
324.342
323.969
319.624
319.954
320.328
320.736
320.958
321.237
321.496
321.668
321.745
321.844
321.837
321.75
321.645
321.475
321.309
321.085
320.662
320.37
320.029
319.734
315.361
315.553
315.845
316.144
316.393
316.626
316.741
316.836
317.055
317.074
317.08
316.94
316.916
316.825
316.64
316.36
316.197
315.864
315.584
315.422
310.976
311.182
311.388
311.676
311.827
311.945
312.046
312.157
312.169
312.261
312.223
312.157
312.116
312.098
311.949
311.735
311.601
311.411
311.211
310.969
306.604
306.686
306.834
306.951
307.075
307.105
307.272
307.258
307.348
307.383
307.377
307.406
307.291
307.248
307.167
307.127
306.969
306.83
306.658
306.609
302.199
302.269
302.364
302.364
302.326
302.424
302.347
302.443
302.516
302.493
302.461
302.519
302.441
302.382
302.423
302.396
302.298
302.352
302.257
302.222
332.933
333.538
334.218
334.852
335.355
335.828
336.115
336.438
336.641
336.831
336.808
336.677
336.542
336.287
335.962
335.513
334.94
334.419
333.782
333.141
328.752
329.262
329.842
330.434
330.8
331.239
331.543
331.807
331.95
332.112
332.097
332.026
331.882
331.62
331.355
330.891
330.462
330.011
329.462
328.998
324.576
324.909
325.414
325.853
326.303
326.591
326.936
327.078
327.233
327.352
327.263
327.222
327.133
326.963
326.726
326.335
326.028
325.527
325.08
324.71
320.215
320.452
320.836
321.252
321.568
321.839
322.086
322.222
322.366
322.419
322.437
322.426
322.364
322.178
321.922
321.675
321.351
320.996
320.614
320.289
315.8
315.976
316.312
316.632
316.859
317.024
317.271
317.335
317.464
317.513
317.485
317.447
317.413
317.299
317.066
316.915
316.636
316.358
316.077
315.789
311.293
311.553
311.749
311.937
312.089
312.217
312.345
312.529
312.488
312.612
312.51
312.535
312.5
312.364
312.251
312.146
311.939
311.749
311.557
311.293
306.779
306.919
307.077
307.145
307.295
307.344
307.471
307.459
307.519
307.492
307.609
307.614
307.532
307.435
307.292
307.288
307.197
306.994
306.957
306.837
302.248
302.375
302.391
302.452
302.438
302.448
302.481
302.498
302.568
302.546
302.529
302.539
302.514
302.513
302.415
302.466
302.439
302.319
302.287
302.286
333.724
334.302
335.071
335.655
336.26
336.808
337.177
337.411
337.594
337.768
337.764
337.767
337.569
337.255
336.884
336.498
335.973
335.386
334.667
334.082
329.44
329.992
330.637
331.09
331.61
332.101
332.479
332.642
332.873
332.985
332.943
332.849
332.756
332.428
332.201
331.857
331.408
330.943
330.288
329.681
325.077
325.433
326.009
326.553
326.893
327.237
327.587
327.827
327.874
328.035
328.083
327.985
327.875
327.686
327.359
327.121
326.732
326.219
325.704
325.291
320.522
321.001
321.39
321.794
322.128
322.482
322.607
322.854
322.947
322.957
323.04
322.986
322.951
322.771
322.524
322.212
321.946
321.556
321.177
320.852
316.209
316.353
316.657
316.983
317.242
317.535
317.682
317.847
317.909
318.026
317.988
317.965
317.919
317.762
317.559
317.343
317.078
316.835
316.488
316.182
311.591
311.713
311.924
312.233
312.391
312.597
312.696
312.76
312.86
312.961
312.9
312.849
312.815
312.705
312.637
312.502
312.275
312.085
311.845
311.656
306.992
307.075
307.201
307.355
307.424
307.592
307.576
307.716
307.679
307.865
307.8
307.724
307.682
307.613
307.615
307.497
307.386
307.239
307.099
307.059
302.315
302.347
302.432
302.476
302.464
302.493
302.599
302.602
302.574
302.563
302.582
302.508
302.633
302.591
302.567
302.489
302.518
302.434
302.368
302.292
334.397
335.147
335.765
336.48
337.104
337.66
337.945
338.384
338.619
338.691
338.698
338.67
338.485
338.223
337.858
337.429
336.855
336.184
335.522
334.938
330.063
330.659
331.279
331.811
332.383
332.809
333.142
333.398
333.625
333.772
333.785
333.703
333.593
333.27
332.99
332.632
332.109
331.527
330.929
330.475
325.611
326.02
326.524
327.141
327.505
327.85
328.224
328.438
328.565
328.739
328.695
328.714
328.545
328.291
328.058
327.732
327.285
326.888
326.316
325.884
321.076
321.373
321.84
322.291
322.564
322.966
323.18
323.286
323.518
323.6
323.557
323.597
323.386
323.263
323.037
322.742
322.403
322.042
321.643
321.326
316.453
316.756
316.985
317.419
317.727
317.86
318.161
318.254
318.367
318.464
318.454
318.381
318.326
318.173
317.96
317.779
317.553
317.21
316.959
316.659
311.766
311.952
312.277
312.472
312.639
312.939
312.99
313.081
313.17
313.15
313.118
313.187
313.077
313.028
312.873
312.756
312.599
312.416
312.131
311.963
307.108
307.26
307.321
307.514
307.635
307.727
307.835
307.898
307.989
307.933
307.926
307.888
307.879
307.838
307.77
307.673
307.557
307.434
307.257
307.223
302.395
302.434
302.459
302.509
302.564
302.585
302.643
302.624
302.69
302.68
302.69
302.652
302.614
302.604
302.668
302.589
302.574
302.505
302.471
302.434
335.129
335.773
336.592
337.313
337.855
338.44
338.75
339.153
339.402
339.496
339.518
339.502
339.269
339.155
338.764
338.263
337.627
336.984
336.335
335.705
330.67
331.257
331.901
332.477
332.965
333.543
333.844
334.095
334.354
334.457
334.505
334.411
334.282
334.058
333.76
333.281
332.834
332.285
331.69
331.084
326.089
326.602
327.048
327.623
328.127
328.426
328.803
328.967
329.257
329.264
329.323
329.225
329.099
328.997
328.64
328.372
327.917
327.423
326.941
326.538
321.448
321.773
322.283
322.734
323.143
323.374
323.641
323.869
323.987
324.016
324.118
324.06
323.946
323.841
323.554
323.327
322.836
322.601
322.144
321.713
316.782
317.063
317.437
317.756
318.122
318.32
318.466
318.667
318.736
318.755
318.876
318.803
318.65
318.561
318.374
318.163
317.912
317.639
317.225
316.975
312.025
312.191
312.496
312.694
312.921
313.089
313.21
313.323
313.461
313.494
313.474
313.429
313.422
313.24
313.203
313.074
312.784
312.56
312.389
312.151
307.159
307.323
307.515
307.575
307.782
307.856
308.015
308.062
308.102
308.057
308.134
308.068
308.067
308.015
307.944
307.822
307.734
307.584
307.415
307.294
302.413
302.46
302.506
302.538
302.583
302.619
302.669
302.668
302.666
302.752
302.749
302.741
302.709
302.656
302.661
302.624
302.579
302.533
302.568
302.439
335.713
336.447
337.244
337.91
338.583
339.08
339.52
339.859
340.126
340.258
340.306
340.242
340.095
339.832
339.432
338.969
338.381
337.73
336.946
336.37
331.16
331.767
332.394
333.049
333.623
334.107
334.506
334.699
335
335.122
335.067
335.091
334.914
334.719
334.348
334.038
333.457
332.853
332.28
331.77
326.541
327.069
327.558
328.172
328.547
328.993
329.322
329.582
329.813
329.853
329.894
329.876
329.753
329.515
329.189
328.881
328.34
327.975
327.436
327.032
321.846
322.185
322.682
323.074
323.632
323.823
324.083
324.265
324.495
324.479
324.539
324.511
324.447
324.272
323.967
323.746
323.393
322.921
322.524
322.197
316.977
317.304
317.651
318.073
318.344
318.586
318.799
319.008
319.11
319.158
319.152
319.054
319.111
318.97
318.761
318.51
318.315
317.924
317.579
317.291
312.174
312.457
312.729
312.887
313.128
313.342
313.499
313.677
313.666
313.72
313.748
313.739
313.689
313.554
313.415
313.267
313.05
312.838
312.628
312.417
307.28
307.46
307.688
307.844
307.971
308.05
308.113
308.246
308.192
308.251
308.217
308.251
308.193
308.146
308.005
308.018
307.89
307.673
307.593
307.46
302.554
302.469
302.596
302.666
302.622
302.675
302.718
302.76
302.779
302.802
302.78
302.718
302.717
302.738
302.748
302.622
302.573
302.645
302.56
302.44
336.289
336.928
337.73
338.49
339.129
339.666
340.135
340.564
340.816
340.888
340.978
340.981
340.753
340.496
340.114
339.595
339.082
338.459
337.617
336.994
331.61
332.249
332.929
333.548
334.14
334.536
335.004
335.342
335.625
335.701
335.663
335.678
335.552
335.306
334.946
334.543
334.004
333.444
332.796
332.24
326.904
327.449
328.002
328.476
329.094
329.446
329.79
330.041
330.212
330.377
330.436
330.407
330.222
330.002
329.706
329.35
328.898
328.433
327.853
327.454
322.111
322.499
322.979
323.471
323.835
324.18
324.475
324.705
324.854
324.891
324.946
324.877
324.849
324.649
324.468
324.177
323.79
323.353
322.886
322.515
317.249
317.574
317.987
318.318
318.682
318.873
319.13
319.228
319.386
319.436
319.433
319.506
319.389
319.312
319.017
318.878
318.506
318.196
317.882
317.607
312.43
312.608
312.914
313.157
313.364
313.503
313.768
313.861
313.901
313.891
313.931
313.9
313.866
313.783
313.654
313.436
313.361
313.142
312.801
312.567
307.568
307.667
307.754
307.902
308.07
308.137
308.235
308.256
308.335
308.347
308.395
308.337
308.347
308.295
308.254
308.098
308.008
307.878
307.757
307.554
302.507
302.533
302.563
302.693
302.721
302.687
302.839
302.753
302.809
302.822
302.78
302.862
302.769
302.754
302.8
302.725
302.682
302.679
302.636
302.564
336.598
337.343
338.184
338.968
339.6
340.252
340.674
340.983
341.312
341.445
341.479
341.507
341.272
341.065
340.631
340.181
339.62
338.916
338.122
337.518
331.998
332.634
333.3
334.004
334.575
335.021
335.41
335.816
336.021
336.15
336.133
336.159
336.007
335.751
335.436
335
334.449
333.898
333.246
332.664
327.181
327.735
328.241
328.899
329.399
329.783
330.159
330.419
330.665
330.755
330.768
330.736
330.585
330.323
330.083
329.706
329.259
328.75
328.229
327.763
322.38
322.841
323.27
323.82
324.11
324.535
324.895
325.074
325.171
325.26
325.265
325.172
325.193
325.027
324.749
324.431
324.004
323.694
323.231
322.823
317.465
317.828
318.203
318.531
318.779
319.051
319.386
319.576
319.668
319.738
319.775
319.74
319.626
319.572
319.322
319.029
318.807
318.463
318.066
317.861
312.607
312.748
313.086
313.244
313.492
313.653
313.865
314.02
314.036
314.081
314.11
314.168
314.053
313.926
313.812
313.603
313.474
313.232
312.988
312.74
307.574
307.673
307.83
307.951
308.153
308.304
308.293
308.426
308.422
308.572
308.438
308.426
308.381
308.352
308.368
308.247
308.068
308.004
307.761
307.653
302.546
302.56
302.564
302.723
302.744
302.749
302.788
302.851
302.822
302.821
302.83
302.892
302.818
302.73
302.789
302.737
302.714
302.57
302.635
302.528
336.986
337.653
338.517
339.31
339.915
340.56
340.989
341.385
341.692
341.876
341.866
341.781
341.71
341.377
340.94
340.529
339.94
339.207
338.468
337.837
332.276
332.811
333.574
334.235
334.876
335.281
335.744
336.042
336.349
336.441
336.479
336.439
336.28
335.983
335.721
335.252
334.752
334.14
333.532
332.905
327.42
327.925
328.573
329.093
329.609
329.975
330.432
330.695
330.89
330.983
330.992
330.974
330.77
330.599
330.344
329.932
329.55
328.974
328.416
328.023
322.545
322.961
323.458
323.913
324.388
324.791
324.981
325.205
325.354
325.432
325.514
325.479
325.324
325.139
324.915
324.584
324.315
323.768
323.351
323.054
317.582
317.884
318.256
318.611
318.99
319.303
319.496
319.625
319.788
319.796
319.904
319.879
319.796
319.627
319.415
319.25
318.954
318.618
318.302
317.952
312.616
312.818
313.061
313.303
313.569
313.801
313.901
314.101
314.171
314.206
314.3
314.192
314.18
314.072
313.995
313.763
313.576
313.299
313.103
312.899
307.546
307.752
307.932
307.998
308.196
308.266
308.422
308.459
308.52
308.51
308.526
308.568
308.533
308.475
308.355
308.246
308.171
308.003
307.888
307.719
302.612
302.537
302.703
302.697
302.821
302.735
302.823
302.8
302.77
302.879
302.895
302.834
302.849
302.866
302.801
302.828
302.762
302.675
302.672
302.609
)
;

boundaryField
{
    hotSide
    {
        type            fixedGradient;
        gradient        nonuniform List<scalar> 
400
(
321.511
322.87
325.591
329.677
335.133
341.965
350.181
359.788
370.794
383.208
397.037
412.289
428.971
447.088
466.647
487.651
510.105
534.011
559.372
586.191
323.738
325.08
327.767
331.802
337.194
343.949
352.078
361.591
372.498
384.81
398.537
413.687
430.268
448.289
467.755
488.672
511.043
534.872
560.161
586.913
326.149
327.47
330.116
334.091
339.406
346.071
354.099
363.503
374.296
386.491
400.101
415.136
431.606
449.52
468.885
489.706
511.988
535.735
560.948
587.63
328.704
330
332.597
336.503
341.73
348.292
356.205
365.485
376.15
388.215
401.695
416.604
432.954
450.753
470.009
490.73
512.919
536.579
561.714
588.325
331.33
332.599
335.142
338.97
344.099
350.546
358.332
367.477
378.003
389.928
403.271
418.047
434.27
451.949
471.095
491.712
513.807
537.382
562.439
588.978
333.918
335.158
337.643
341.389
346.414
352.74
360.392
369.397
379.779
391.562
404.765
419.407
435.503
453.065
472.101
492.618
514.622
538.114
563.096
589.569
336.321
337.531
339.959
343.622
348.544
354.751
362.274
371.142
381.385
393.031
406.101
420.618
436.595
454.047
472.983
493.409
515.33
538.747
563.663
590.076
338.36
339.543
341.92
345.509
350.339
356.44
363.847
372.595
382.718
394.244
407.2
421.608
437.485
454.844
473.695
494.045
515.897
539.253
564.114
590.478
339.852
341.015
343.352
346.885
351.645
357.665
364.985
373.643
383.675
395.113
407.984
422.312
438.116
455.407
474.197
494.491
516.294
539.606
564.428
590.758
340.643
341.795
344.11
347.613
352.334
358.311
365.584
374.193
384.176
395.567
408.393
422.679
438.443
455.699
474.456
494.722
516.498
539.788
564.589
590.901
340.643
341.795
344.11
347.613
352.334
358.311
365.584
374.193
384.176
395.567
408.393
422.679
438.443
455.699
474.456
494.722
516.498
539.788
564.589
590.901
339.852
341.015
343.352
346.885
351.645
357.665
364.985
373.643
383.675
395.113
407.984
422.312
438.116
455.407
474.197
494.491
516.294
539.606
564.428
590.758
338.36
339.543
341.92
345.509
350.339
356.44
363.847
372.595
382.718
394.244
407.2
421.608
437.485
454.844
473.695
494.045
515.897
539.253
564.114
590.478
336.321
337.531
339.959
343.622
348.544
354.751
362.274
371.142
381.385
393.031
406.101
420.618
436.595
454.047
472.983
493.409
515.33
538.747
563.663
590.076
333.918
335.158
337.643
341.389
346.414
352.74
360.392
369.397
379.779
391.562
404.765
419.407
435.503
453.065
472.101
492.618
514.622
538.114
563.096
589.569
331.33
332.599
335.142
338.97
344.099
350.546
358.332
367.477
378.003
389.928
403.271
418.047
434.27
451.949
471.095
491.712
513.807
537.382
562.439
588.978
328.704
330
332.597
336.503
341.73
348.292
356.205
365.485
376.15
388.215
401.695
416.604
432.954
450.753
470.009
490.73
512.919
536.579
561.714
588.325
326.149
327.47
330.116
334.091
339.406
346.071
354.099
363.503
374.296
386.491
400.101
415.136
431.606
449.52
468.885
489.706
511.988
535.735
560.948
587.63
323.738
325.08
327.767
331.802
337.194
343.949
352.078
361.591
372.498
384.81
398.537
413.687
430.268
448.289
467.755
488.672
511.043
534.872
560.161
586.913
321.511
322.87
325.591
329.677
335.133
341.965
350.181
359.788
370.794
383.208
397.037
412.289
428.971
447.088
466.647
487.651
510.105
534.011
559.372
586.191
)
;
    }
    coldSide
    {
        type            mixed;
        refValue        uniform 300;
        refGradient     uniform 0;
        valueFraction   uniform 0.991591;
        source          uniform 0;
        value           nonuniform List<scalar> 
400
(
300.012
300.013
300.014
300.014
300.014
300.015
300.016
300.016
300.017
300.018
300.018
300.018
300.019
300.019
300.02
300.02
300.021
300.021
300.021
300.022
300.012
300.013
300.014
300.014
300.015
300.016
300.016
300.017
300.017
300.018
300.018
300.019
300.02
300.02
300.02
300.021
300.021
300.021
300.022