/*--------------------------------*- C++ -*----------------------------------*\
| =========                 |                                                 |
| \\      /  F ield         | OpenFOAM: The Open Source CFD Toolbox           |
|  \\    /   O peration     | Version:  2212                                  |
|   \\  /    A nd           | Website:  www.openfoam.com                      |
|    \\/     M anipulation  |                                                 |
\*---------------------------------------------------------------------------*/
FoamFile
{
    version     2.0;
    format      ascii;
    arch        "LSB;label=32;scalar=64";
    class       volScalarField;
    location    "./ITHACAoutput/true/13.8";
    object      error;
}
// * * * * * * * * * * * * * * * * * * * * * * * * * * * * * * * * * * * * * //

dimensions      [0 0 0 1 0 0 0];

internalField   nonuniform List<scalar> 
3200
(
-2.20834
-1.56825
2.28682
1.86546
1.9386
1.60654
1.06395
0.986925
1.82919
2.3197
2.20363
2.27728
1.04659
0.770673
2.36984
1.7422
1.29488
0.0196881
-0.235152
-1.68892
-1.29089
-1.36655
1.05467
1.79155
0.592195
1.36984
1.68089
2.36289
0.886077
0.703261
1.24832
1.54718
2.228
-0.132981
1.06876
1.51041
0.814306
0.855542
-1.01165
0.336875
-0.277677
-0.613664
0.850108
2.6926
1.47543
0.601441
1.17108
1.34801
0.308461
2.25401
0.94738
0.210769
1.7857
1.72533
1.46686
0.518323
2.31073
-0.0460719
0.687554
-1.82228
-1.75769
-0.310759
1.18404
-0.607108
3.03619
1.31476
0.0848553
1.80024
2.05586
1.963
0.836977
1.06843
-0.570914
1.05638
0.936263
0.703123
0.737201
-0.41891
0.0118057
-0.336652
-0.629515
-0.539931
1.45129
0.0388015
-0.522555
1.70595
1.41476
1.10083
0.496954
1.49281
-0.591896
0.720893
1.79969
0.84203
0.364362
0.331661
1.39361
-0.201448
0.298485
-0.187698
-0.397392
2.12199
1.3818
0.494546
1.58818
0.459723
1.01842
1.08203
1.05776
0.992904
-0.401318
0.120966
0.00991957
1.08823
1.66892
0.724886
0.333165
0.332096
0.175707
0.430967
0.0161035
-0.642377
0.0242286
-0.00844307
1.06307
-0.0909686
0.299164
1.03379
0.752291
1.57204
0.496052
0.839903
0.316188
-1.042
0.306892
0.231705
0.649562
0.0880209
-1.04449
-1.08519
0.665021
-0.525749
-0.719263
0.75208
-0.0365815
-0.714219
-0.293017
0.949746
0.143016
2.17534
-0.209952
1.45234
0.619221
0.0343588
0.630357
-0.18212
-0.00858899
1.60087
0.0524551
0.0179468
-1.89797
0.681478
-0.121778
0.653263
1.55497
0.967102
2.79041
0.833959
1.0317
0.223622
1.15938
0.72084
0.588843
1.86888
1.74464
0.701501
0.10738
0.10227
1.34665
-2.43445
-0.937158
-0.0694674
0.856511
0.229939
1.56308
-0.0885686
1.12453
0.230527
0.707616
-0.0199977
0.265571
0.685292
0.17122
0.914193
0.0460596
1.03425
0.27864
1.64889
-0.0197216
-1.41416
-0.977062
-0.0664527
0.873497
-0.194588
1.70047
0.695451
0.937297
2.104
1.41393
0.241857
2.17807
3.14799
0.557607
0.925969
-0.0605117
0.913176
0.32793
-0.112448
-0.381372
-1.2283
-0.373892
-1.25042
1.07651
0.955151
0.152097
1.02708
2.24827
0.123753
0.831196
3.53084
-0.577884
1.99192
-0.197336
0.841723
-0.219599
0.655559
-0.00161812
0.0695926
0.959533
-0.447386
-1.97578
-2.07593
-0.296877
0.370899
1.08606
1.50269
0.276645
1.19315
0.56898
0.758743
1.43544
0.830056
0.263118
1.10989
-0.188079
-0.207434
0.634831
0.682131
-0.344433
-1.26385
0.338738
-0.30576
-0.9812
1.05113
0.844908
-1.05011
-0.265825
1.71979
1.40854
0.335844
1.49555
0.980215
0.63815
0.0368974
0.271587
0.30399
2.35504
0.608565
-1.19245
-0.466762
0.802251
0.450611
-0.637395
1.33722
1.31986
-0.0718322
-0.40186
0.26541
0.0359831
1.06738
-0.647123
0.455389
0.423014
-0.091501
1.65334
1.14507
0.133935
-0.44023
1.56787
-1.42389
-1.5429
-0.720969
1.22268
0.0691839
-1.29005
-0.543288
-1.00717
-0.817377
0.511243
0.240268
-2.80144
1.53776
0.754136
1.6525
0.154785
-1.11245
1.49122
-0.508642
-0.761925
-0.439245
-2.67316
0.591759
-1.41427
1.25157
0.609531
2.50425
1.02349
-0.292229
2.74326
0.449437
1.30805
1.97228
2.09362
0.300032
1.23402
0.788881
1.13077
0.547005
-0.463841
-1.5344
-1.42722
-0.427082
-0.178984
1.44939
1.32065
2.37747
1.96277
0.833904
1.56581
1.27492
1.91161
0.714179
-0.440834
0.337598
1.23334
2.831
0.988575
-0.619307
-1.6166
-0.0247676
-1.3051
-0.230677
-0.224452
2.0234
0.433833
1.13141
0.4326
1.20146
1.23548
1.25188
0.125315
-0.408274
1.37528
2.66808
-0.674624
0.542972
0.653386
0.678366
-1.15994
-1.54914
-0.578775
-0.872465
3.09542
1.26831
1.53205
1.29395
0.905614
1.50025
0.735442
1.13372
0.697951
0.72049
1.3128
1.87702
0.651783
1.62335
0.0747771
1.78767
-0.552123
-1.16565
0.708898
1.16301
2.50785
1.07327
1.82292
1.51612
1.64408
0.171278
2.12558
0.561131
3.16286
-1.28461
-0.713893
0.777547
1.60839
1.09923
0.253141
-0.868229
0.566228
-0.55756
-1.36627
-0.299255
1.51316
-0.363075
0.890697
0.960876
0.946003
-0.0982989
-0.0225523
0.496498
-0.753616
-0.30486
1.09572
0.84225
1.1164
1.69241
0.294991
0.0735643
0.57568
-0.204207
0.0753476
0.813227
1.16487
0.201599
0.615764
-1.39952
0.344417
-0.147265
0.240345
0.287279
0.192895
-0.432087
0.815978
0.104221
0.48146
0.390726
1.76218
1.35961
-1.05338
-0.0318194
-0.446112
1.00642
-0.765932
-0.261307
0.703447
0.449503
-1.90202
-0.13544
-0.906786
0.575625
0.840169
0.759803
-0.151849
0.529385
0.669545
0.884746
0.328688
0.79133
-0.711584
0.0971669
-0.393897
-1.03548
0.0997192
1.58692
1.25332
0.681417
1.45515
1.38629
0.736568
0.725378
2.24751
2.67253
-0.548014
1.47596
1.86352
2.0671
-0.53213
0.093132
1.39226
-0.438881
-1.98561
-0.179833
1.15334
0.162208
1.19314
0.24762
1.48171
0.000133745
1.18757
-0.110132
0.126739
1.38398
0.00700656
0.505217
-0.103654
0.65325
-0.0895778
-0.340614
-0.145192
-0.407381
-1.11608
-1.51668
-0.487538
1.34431
0.898473
0.493778
1.76932
0.653411
-0.0124023
1.29265
2.26595
2.24875
-0.346832
0.871402
1.71532
-0.373189
0.559607
0.832098
0.260756
-0.00582443
-1.19901
0.439385
-0.131668
0.394454
1.11311
0.340005
1.794
2.10903
1.13405
1.25767
1.3803
-0.0635863
-0.099742
-0.511011
0.295999
2.24568
0.503054
0.577185
-0.273321
-0.0309549
-0.219179
-1.04167
0.666322
-0.430933
-0.0873032
0.502512
2.21935
0.706175
0.496425
-0.606033
0.627826
1.33835
-0.575023
0.0898732
0.909711
1.83052
1.79625
1.24792
-0.439077
-1.99466
-0.374588
0.427136
0.819317
0.118138
1.22012
-0.481838
-0.22827
0.129237
0.0634609
0.943686
-1.16777
0.692278
1.1476
-0.581632
1.00748
1.27053
0.598662
1.47699
-0.504036
-1.47136
-0.390311
-0.4795
1.02753
0.148597
-0.10078
1.2391
-0.714479
0.458126
-1.52957
-0.493648
0.810426
0.877928
0.97187
0.642163
-0.0575603
0.215483
0.449553
-1.02273
-0.0828541
-0.19657
1.39848
-1.12676
-0.0430395
0.491801
-0.638813
-0.906965
-0.787073
0.43442
0.518778
0.120487
-0.099224
0.520738
-1.05481
0.716323
1.41938
-0.220344
0.932726
0.537028
-0.418774
-0.0972024
-1.49901
-2.25329
-0.424553
1.26018
1.25787
0.756815
1.37184
0.589078
0.296061
-1.05654
0.675575
-0.975373
0.979393
-0.20017
1.9196
2.39788
-0.770128
-0.993764
-0.0118163
-3.07013
-1.42777
-0.927375
-1.0563
1.84084
0.0341493
1.29452
1.5314
1.45252
1.52954
0.69318
1.61352
-0.291802
1.98921
-0.575435
0.752143
1.8322
2.1383
0.576506
-1.08972
-0.485368
-1.40044
-1.1475
-0.45534
-1.44482
1.30603
2.37155
1.05336
0.679465
0.0158643
0.154152
-0.900932
-0.631174
-0.844372
1.0488
0.408682
0.375102
-0.0839755
0.197815
-1.11747
-0.896399
-1.56954
-0.363191
-0.32541
1.08644
0.872684
0.716121
0.6453
0.538357
-1.09234
1.4663
1.44852
0.443613
-0.664466
0.525363
0.531327
1.05233
0.443286
1.21891
-0.114964
-1.26805
-0.714856
-0.671429
-0.427909
0.826059
-0.695263
1.417
0.961846
2.75688
0.0557212
1.50458
0.528301
0.12127
-0.876651
1.56476
0.682304
-1.09727
0.0721105
-0.119885
0.580847
-0.581661
0.882278
0.455805
0.260228
-0.263634
0.79007
0.895882
1.50114
1.35874
0.263865
-0.119392
1.90321
-0.114032
1.32521
1.3917
1.2079
0.532266
0.804544
-0.0984506
1.12053
0.450896
0.285328
-0.230108
0.204092
1.73995
1.7733
0.339628
0.228211
-0.264449
0.451071
1.23857
-1.08679
-0.321263
0.0164293
1.48411
0.467405
0.208094
1.28762
1.90893
-0.0360304
-0.424024
-0.299308
-0.0419841
0.50944
-0.779127
-0.822685
-0.0495948
0.121037
-0.137399
0.609796
-0.957847
0.580379
0.431607
-0.874639
-0.0438872
0.440865
0.950928
0.814325
-1.2359
1.01911
-0.426797
-1.14325
-1.09784
-1.9641
-0.643251
0.782629
1.1583
1.78741
-0.580037
-0.653244
0.0707933
0.0897647
0.283729
0.613899
-0.230882
-0.39732
0.236436
1.6797
-1.27205
-1.49957
-4.44908
-2.29366
0.128877
-1.26354
-0.23455
0.596374
0.295038
1.50354
0.0427234
-0.937062
0.261571
-0.288578
1.05461
-0.0206576
0.30681
-0.176363
0.49291
-0.00819075
-1.36401
-0.533767
-1.39162
-1.71243
-0.671685
0.28102
1.85018
0.466359
1.0596
-0.244926
0.838828
0.153743
0.684674
-0.314602
-0.580096
-0.107124
-0.652185
-0.222401
-0.370833
0.312906
-1.01833
0.602158
-1.08035
-1.30694
-0.45747
0.927476
0.804817
0.774097
0.0671838
1.2679
1.00187
1.17028
0.0885108
-1.5061
-0.152233
-0.532704
-0.353996
0.278183
0.712952
0.680415
-0.787929
0.0273013
0.194917
-0.180494
0.736293
-0.926066
0.061934
2.6733
0.479576
0.254203
-0.300618
-0.0715665
0.206901
-1.19198
-1.81652
-0.593689
0.852184
-0.141601
-0.143479
0.400508
0.191001
-1.74042
-0.590072
-0.570027
-1.69545
0.108395
0.43518
0.68029
0.0114464
-1.54877
-0.0204086
0.445698
0.211989
0.788109
1.11337
0.653337
0.0881039
-0.192216
1.28053
0.0514486
-0.824626
-0.326801
0.329209
-0.583422
-0.362754
-0.870403
1.26044
-0.140103
1.42427
1.1503
-0.0233436
-0.802688
0.263307
0.789729
0.448205
0.13952
1.09107
-0.180765
0.106207
0.611418
0.9813
1.59111
-0.874963
0.580314
0.410792
-0.527729
-0.0894716
0.520389
0.591534
-1.00636
1.09257
0.13432
-0.19558
-0.0278577
-0.170808
-0.0507793
0.0512692
0.593832
1.05184
-0.583311
0.638098
0.814984
-0.282671
-4.35345
-2.1372
-1.26825
0.393764
-0.350818
-0.284252
-0.0346928
0.31947
-0.112495
0.0476211
-0.539776
-0.204116
-0.826723
0.695587
0.931677
-0.494503
0.276698
0.0623384
0.0897248
-2.42422
-4.00828
-0.552963
-0.464298
0.844464
0.0282729
-0.319698
-0.486625
0.918965
-0.639917
-0.26343
-1.38898
-0.438729
-0.174954
-0.841579
-0.137567
0.272718
-1.24997
-0.557327
-1.65821
-2.71378
-0.458536
-0.781316
-0.321629
0.399755
0.784996
2.09496
0.199117
-0.280397
0.419197
0.448332
-1.4872
2.10525
-1.03936
0.233204
-0.504579
1.5628
-0.268205
-0.497703
-3.36659
-1.40189
-1.9547
-0.767994
-0.931102
-0.96205
1.95417
-0.357647
-1.56635
-0.218077
-0.397595
0.169999
-0.230476
0.208045
0.105387
-0.749561
0.997768
-0.412494
0.103639
-0.468223
-1.09844
-1.10966
-1.38024
0.336456
-0.129502
-0.0556931
0.251355
-0.298438
-0.0423068
1.56765
-0.9254
0.355848
0.689228
-1.15352
1.50612
0.709788
0.934844
0.316775
1.11828
0.12932
-0.0739715
-1.09975
0.827823
0.184847
1.46229
0.903736
0.545186
0.661227
1.26412
1.25794
0.402561
1.08466
0.563011
1.4439
-1.36076
0.483111
0.677983
0.410774
0.166093
-1.15764
-0.297543
-1.47929
0.0842351
-0.639964
-0.333366
0.169736
0.639767
0.667917
1.31183
1.26638
0.522988
-1.38774
2.1976
-0.38534
0.362517
-0.122957
0.0154627
-0.633767
-0.61526
0.171731
0.472712
-1.25342
-0.432128
-0.0841594
0.149566
0.907406
-0.0729565
0.206882
-0.258408
0.00206313
-0.315759
-0.398497
-0.710805
1.21443
0.471523
-0.235424
0.129322
-0.466597
0.14392
-1.00141
0.0648952
-0.969373
-2.5875
-1.67631
-1.30205
-1.86581
1.00357
0.676608
-0.490284
-1.50271
-0.743279
0.692122
-0.217188
-0.786931
0.213133
-0.928311
-0.957648
-0.216653
0.26723
-0.678946
-2.17743
-1.08676
-1.41039
0.261877
-1.61651
-0.522832
1.23875
0.106859
-0.0412124
0.164157
-0.103619
0.277266
-0.103059
-0.987237
-0.0725057
-1.4254
0.357163
-0.127925
0.0369814
-1.40361
0.381404
-2.63573
-1.47284
-1.41912
-1.56233
-0.917266
0.919516
-0.761482
-0.487374
-0.304067
1.65049
-1.42397
0.545221
-0.460239
0.147218
-0.64664
-0.349268
0.54024
-1.1953
0.252526
-4.3107
-1.5442
-0.479345
-1.0471
-0.0576651
-0.878164
0.488464
-1.15489
-0.716205
-0.0994884
0.319441
-1.12733
-1.43544
-0.0120003
-0.845469
0.721028
-0.59987
-0.465792
1.06135
0.409336
-2.35047
-1.33121
-0.34834
-1.41579
-0.30714
-0.245908
0.472142
1.08149
0.204988
-0.322058
0.669199
-0.125212
0.885358
-1.34085
0.599921
0.589527
0.677531
0.955652
-0.211052
-1.48213
-0.517084
-1.12256
-1.65218
-1.46612
1.4636
1.52452
0.259192
0.646627
-0.461395
0.330539
-1.16936
-0.241078
-1.38235
0.0476052
2.45564
1.08637
0.164484
-0.835507
0.316535
-0.776464
-0.180756
0.211842
0.398578
-0.511707
-0.193694
0.814772
0.377532
0.561245
0.29403
-0.558964
-0.714967
-0.543735
0.636272
-0.895612
-0.190316
-1.11464
-0.819658
-0.423675
0.880702
-0.183222
2.24106
-0.038184
0.880557
-1.05312
0.328482
0.219997
0.339745
-0.367718
0.930237
0.628982
0.808212
-0.217301
1.13243
0.679878
0.699105
-0.0576998
-0.103957
0.293754
-0.907702
0.801124
0.292097
-0.817473
-2.76696
-3.29157
-1.65983
-1.93707
-0.534188
0.245695
0.761843
0.0525253
-1.3826
-1.48678
-1.96051
0.676254
-1.3695
0.223233
-1.32213
-0.301649
0.303514
-1.02213
-0.580152
-3.56472
-3.09327
-0.278454
-2.25009
0.253115
1.54594
1.81928
1.68179
-0.0388674
-1.71317
-0.956441
0.0408497
-0.946959
-0.520971
-0.198115
-1.36836
-1.69856
-0.148243
-1.85862
-1.33944
-1.40149
-2.38628
-0.203577
-0.857432
1.35987
-0.0247843
-0.503771
0.21903
0.443192
0.783603
-0.663689
-0.883115
-0.179477
-1.08292
-0.970621
-0.527213
-0.479319
-1.64338
-0.720001
-1.09528
-0.531775
-1.30895
-0.929638
0.537284
0.713843
0.568092
1.78111
0.0111437
0.360901
-0.0669226
0.422472
-0.856668
-0.234842
1.13813
0.989796
0.0469797
0.0177189
-0.820455
0.67048
-1.92894
-1.07416
-0.96137
-1.60668
-0.899565
0.533766
-0.459997
-0.395684
1.10775
-0.621116
0.440572
-1.25165
1.3578
-0.676731
-1.45805
0.420626
-0.168571
-0.812329
0.0285968
-1.39165
0.313252
-1.63693
1.2949
-1.14408
-0.275238
0.957397
0.576918
1.2142
-0.584143
1.08795
-0.253347
0.898825
-1.88177
1.11552
-1.30732
-0.814973
0.223769
0.538058
0.293996
-0.524242
-0.642687
-0.967018
-0.367136
-1.25113
0.85382
0.97727
0.605166
0.129357
1.06692
-0.414283
-0.497364
-0.107524
1.0247
-0.158023
0.142002
-0.670247
0.182532
-0.790292
-1.15204
-0.556073
-0.484384
0.574752
0.578724
-1.31093
0.88833
-0.492023
0.200479
0.2642
1.25702
-0.533078
-1.921
1.47928
1.43474
-0.91417
0.419645
0.850879
-0.4878
-1.64911
-1.55097
0.953455
1.05055
-0.337488
-2.88864
-1.65485
-1.2403
-1.46554
-1.27257
-1.6596
-0.949691
1.24397
-2.76628
-0.850278
-1.1169
-1.70568
-0.584852
-0.561255
-1.68497
-0.491463
-1.20809
-2.53673
-1.02569
-3.11891
-1.90025
0.0596326
-2.91937
-0.0544199
-0.38484
0.49412
1.06977
-0.275468
-1.80175
0.0610842
-0.349548
-1.10427
-0.0754381
0.0149138
0.25387
-0.237235
0.17998
0.387167
-0.651585
-2.73618
-1.59474
-0.607924
-0.319745
-0.272093
0.890179
0.244116
-0.369242
-1.66084
0.485742
0.00044709
-1.59164
0.637762
-1.16835
0.365701
0.23144
0.176478
-1.65535
0.188295
-0.592447
-1.65271
-1.04175
-1.30517
0.165853
-0.242758
0.552699
-0.298978
-0.710511
0.437897
-0.540181
-0.712981
-1.281
-1.95089
-0.658576
-0.159726
-1.12462
-0.57844
-1.43642
-1.14957
-0.647388
-1.89802
-2.2564
-1.20029
-1.57833
1.10714
-0.639092
-0.953476
-0.831013
0.998833
-0.789378
-1.44393
0.664693
-0.223211
-1.02888
0.886275
-0.749926
-0.126894
-0.206189
-1.43644
-0.665213
-1.77295
-1.37513
0.168414
0.164614
1.23885
0.563816
-0.241369
-2.75269
-0.00537001
0.679439
-0.369556
-2.19637
-1.09432
1.14034
-0.763661
-1.47445
-1.35204
0.430618
-1.61822
-1.76208
-1.0062
-0.943218
-0.851359
0.533636
0.269487
-0.17901
-1.18376
0.0247349
0.178256
0.366304
0.27976
-1.14405
2.45689
-1.95635
-0.0196196
0.271082
0.679093
-0.619418
-0.0588962
1.01258
-1.51304
-0.798494
-0.813293
1.15665
-1.55751
0.744285
-0.129567
-1.53254
1.14043
-0.244208
0.961995
1.43251
-0.455842
-0.682139
1.08935
-1.41192
-0.548696
-0.239387
0.300675
-0.329127
-0.555698
-2.99496
-2.37694
-0.925569
0.0473824
-0.261363
-0.45695
-0.796261
-1.61277
0.403493
-0.445948
0.127361
-3.37131
-1.58486
0.157244
-1.42586
-1.20916
0.270554
-1.16738
-1.87775
-2.27226
-3.33483
-0.338402
-0.185439
-0.142958
-1.81274
0.72005
-0.735304
-0.202638
-0.43485
-0.235235
0.125339
-1.87519
0.358544
-0.694458
-0.321221
0.702971
0.00313635
-1.66611
0.0254123
-2.44482
-3.13365
0.214631
0.477094
-0.27971
-0.85867
-0.710963
-0.146002
-0.235629
-2.41346
-1.31489
-0.936457
-3.26339
-0.884428
-1.6465
1.65632
-0.999932
-0.123369
-1.68079
-1.52611
-2.44587
-1.13433
-1.06218
0.104118
-1.07319
-1.76028
-0.43093
-0.878211
-0.0435807
-0.780455
-1.51962
-0.429449
-0.556974
-1.50705
0.267792
-0.342146
1.01316
-0.488179
-1.20523
-0.24774
-0.854907
-1.2291
-0.824121
2.59141
-0.0325813
-0.226815
-1.26941
0.244597
0.953381
2.19021
-0.0671398
-1.16902
-1.201
-1.35172
0.688562
0.225285
0.543776
-0.696311
-1.51272
0.213625
-1.29445
-1.10553
-0.125471
-1.19081
-0.424342
1.54572
-0.657209
1.85711
-0.718831
0.927171
-1.03754
-1.2772
0.562488
-0.306775
-0.336049
0.263372
0.556203
-1.01157
1.14569
0.875596
-1.55267
-0.0967356
-0.223669
0.28034
0.150648
-0.0137286
2.55782
-1.21574
-0.916942
-0.330079
-1.24832
-0.0378976
0.46819
1.01055
-1.33204
1.10913
-0.623797
-0.515468
-0.957524
-0.187652
-0.0490397
1.74025
0.581411
0.560428
-0.71635
0.732349
0.0789719
0.0525613
-1.85042
0.21114
-0.129619
0.712838
-1.50544
-1.80371
-1.87434
0.0850822
2.27535
-0.378046
-0.313465
-0.244701
0.506248
-2.65217
-3.21031
-1.49966
-1.9547
-1.17055
-1.10006
0.240208
-0.625253
-1.29238
-0.614414
-1.16975
-1.21902
-0.410903
-1.62798
0.327851
1.08409
-1.06555
-2.62683
-2.60597
-2.50598
-5.22354
-2.09656
-0.943204
-0.323806
-1.58528
-0.778399
0.615277
-0.253314
-1.41777
-0.988031
-0.940678
-0.754616
-0.702848
-0.529061
0.351838
0.870944
-1.42055
-1.49124
-2.33971
-2.6999
-2.61217
-1.19592
-0.0258549
-1.07131
0.434957
-0.0630948
-1.24987
-0.501557
-1.12972
-0.299298
-0.100756
-1.77157
0.728511
-0.0986127
-1.30818
-0.63929
0.180307
-1.34286
-2.40193
-2.41942
-1.33531
0.281494
0.798174
0.232927
-0.185468
0.234444
-1.79577
-0.0710656
-1.04682
0.391888
-0.497559
-1.41817
-0.703829
-0.93725
0.525211
-0.903984
-0.71829
-0.976717
-0.602451
-1.78388
-0.579457
-0.236862
-0.609886
-0.886981
0.0443502
1.8132
1.03536
1.09558
0.529572
1.09663
0.179745
-0.659539
-1.59639
0.210885
0.300561
-0.474479
-0.687683
-0.131004
-1.58905
0.0751684
-0.910313
0.140404
0.764436
0.688936
0.200583
1.59514
1.24348
-0.647231
0.917723
-0.667332
1.30806
-1.66371
0.0581105
0.313893
-2.07282
0.341714
0.225133
0.50614
-0.0523564
-1.59661
-0.455423
0.126996
-0.990621
0.645733
0.321799
1.10945
0.684749
-0.626444
0.787463
0.362429
-0.281809
-0.577297
-0.777838
-1.33654
0.523434
0.592311
-1.11734
-0.148046
0.248976
-0.221416
0.760153
0.161479
1.12776
0.109343
1.31489
0.78111
-0.423221
0.185746
0.562154
0.878709
-1.47025
0.0471666
0.854831
-0.288013
0.942057
-0.428374
-0.233288
0.698855
0.184977
0.0131569
-2.19602
-0.954957
-2.07724
-0.700933
-0.958688
-0.93109
0.982198
-0.62058
-0.698516
-0.0329441
-0.694185
-0.931832
-1.77233
0.925367
-2.2709
-0.446845
-1.84
0.291439
-1.04122
-2.8207
-1.76266
-0.539863
-1.41323
0.120437
-1.22619
0.314283
-1.37837
-0.39077
-1.0157
0.204769
-0.0982741
-0.382956
-0.2911
-1.32283
0.100816
-0.89796
0.2109
-1.24699
-0.0556207
-1.53542
-0.491447
-0.736862
-1.30093
0.338225
-0.0972539
-0.0297331
1.40239
0.421339
-0.460817
-0.201106
0.275577
-0.552967
-1.37325
-0.205503
-1.73482
-1.23877
-0.672338
0.317501
-2.62781
-1.18418
-0.0210181
-1.51355
-0.922549
0.893423
-0.0508463
0.183413
-0.130675
0.728384
0.00148594
-0.342376
-0.936344
0.448015
0.520829
-0.703818
-1.18194
-0.923267
0.325446
-1.69043
-1.8954
-1.63846
-1.21002
-0.0468485
-0.658828
-0.232725
0.411351
1.02246
-0.282286
0.0774193
-0.897047
-0.81659
-0.306792
-0.763498
-1.12321
-0.506179
-0.0898792
-0.873153
-0.133332
-1.64193
-1.50448
-0.321716
-0.626368
0.401899
-1.21504
-0.430361
-0.424353
0.389256
-0.740638
0.0714461
-1.19623
0.835296
-0.19614
0.526954
-0.273246
-1.12237
0.622853
0.732629
-0.890029
-0.712186
-1.64248
-0.236334
1.12256
-0.737701
0.268073
0.643045
-1.84621
-1.06764
0.386895
1.41838
-1.34703
0.416801
-0.207105
-0.76493
0.218602
-1.30841
-0.391332
0.826844
-0.454044
-0.186423
-0.593161
0.560585
-0.789095
-0.345011
0.528345
0.44615
-0.18074
0.175256
1.19309
-0.215083
-0.757009
-0.580306
0.903129
-0.477719
-0.632438
0.340627
-0.538386
-0.554821
-0.365283
-1.48444
0.342102
-0.19755
-3.17614
-2.90803
-1.17466
-0.46133
0.485742
-0.582919
1.12469
-0.654582
-0.179188
-1.64882
-0.769078
-2.74905
0.258384
-0.320832
-0.576324
0.19438
-0.753998
-1.00943
-1.18319
-2.68839
-1.10907
-0.0354133
-1.38875
0.257035
-0.981669
-0.489924
-0.296353
1.49285
-1.16971
1.11021
-0.0255669
0.197951
-0.27671
0.951273
0.0888316
-1.20678
-0.23109
-1.54632
-2.06708
-3.65093
-2.51982
-0.631901
-1.09697
1.22976
-1.27402
-1.45777
2.69092
0.181453
-0.366469
-0.342946
-1.18555
-1.65457
-0.537531
0.884954
1.58836
-0.647738
-0.770402
-1.17869
-0.611225
-1.13766
-2.74229
-0.471822
-0.223741
0.85952
-0.91565
0.613561
-0.613415
0.964734
-1.05902
-0.594669
0.757384
-2.07523
-1.9216
-0.184807
-0.433361
-0.795682
-0.633373
0.0208804
-1.68807
0.63171
-2.03983
0.5322
0.109822
-0.438194
0.231907
0.722477
0.0572855
0.0540201
1.51409
0.0279449
-0.483524
0.386279
1.8498
-1.04348
0.846563
1.14806
0.187743
-0.714695
-0.59696
-2.10507
-0.780751
-0.662638
0.104668
1.67143
0.299118
-2.24625
1.41625
-0.603743
0.845261
2.47507
0.0702631
-0.872799
-0.514577
-0.599203
0.676975
-2.10304
-1.16738
-0.776085
-0.704334
-0.609886
0.846025
0.194191
0.189242
0.599333
0.978883
-1.92877
-0.0508362
0.381477
-0.817549
-0.439344
0.224614
0.976652
1.06673
-0.686967
0.341034
0.939785
-0.70347
0.253077
0.0585058
-0.338638
-0.857393
0.311834
0.321647
-0.128849
-0.344819
-0.451626
1.02032
0.143487
0.741446
-1.30318
0.210391
0.750546
-1.66726
1.50285
-0.892221
0.458539
-1.4187
1.0211
0.689022
-1.75586
-0.848652
-0.584395
-1.03194
-0.124201
-0.0744118
-1.57246
-0.455419
1.19114
1.41986
1.13151
0.819366
-0.188
0.287388
0.279205
-0.166325
-1.41609
-0.493016
-0.52126
-1.78639
-2.48667
-1.87198
-0.20178
-0.402399
-0.303495
-0.4443
0.120283
0.0476174
-0.448817
1.45262
-0.842055
0.0233983
-0.55867
-0.532774
0.907095
0.130332
0.517943
0.0898043
-1.8246
0.0548093
-2.64524
-1.77124
0.134978
-1.75985
-0.894541
-0.616343
0.726736
1.79302
1.95425
1.88951
0.627871
0.55538
-1.18358
-0.175919
-1.64619
-0.371989
-0.539029
-0.126268
-0.253718
-1.24221
-0.657272
-1.49862
0.189884
-2.39025
-0.726881
-0.762957
-0.859224
0.366009
1.52192
-0.474003
1.58489
1.32861
-1.19457
0.99495
1.35098
0.111581
-0.748497
-0.301074
-0.463918
-1.5711
-1.92601
-1.64495
1.28215
-0.0586092
-0.915754
-1.76332
-0.0256861
1.16226
0.906162
0.536951
1.00527
-0.0553391
-0.10937
-0.575163
0.0684746
0.477605
0.491193
0.557099
0.482196
-0.309064
0.673052
-0.64119
-0.737651
0.676603
-1.05596
-0.798974
0.127629
0.0479391
0.545883
-1.08471
-0.364831
0.532108
1.13036
0.188457
0.33589
1.50745
0.669547
-0.0154267
0.454577
1.27574
-0.407595
0.0964207
-0.166883
-1.90086
0.388694
1.109
-0.110748
-0.976448
-0.0168921
0.0958772
0.908567
-0.642573
-1.01447
1.77641
0.357815
1.89082
0.737263
0.84487
0.0999863
-0.0334786
-0.555544
-0.705743
1.44123
0.750982
-0.0294619
-1.09531
0.0789596
1.26015
1.64975
0.751416
0.225183
1.00148
0.959695
1.45112
0.11876
-1.01509
0.32133
-0.129667
-0.249742
-0.94685
-0.562188
-2.16525
-0.825619
-0.94572
-0.448828
-0.34602
0.577374
0.519135
0.499595
-1.44716
1.01854
0.740993
0.931828
-0.107361
-0.197011
-0.294773
0.231634
-0.0472709
0.784315
-0.879637
-1.52588
-0.079211
0.274373
1.30827
-0.424501
-0.152106
0.787949
0.90621
1.20456
2.93248
1.48372
0.411193
-0.600136
-0.524766
0.190187
0.969844
-0.35661
0.446836
-1.22766
-1.00381
-1.70798
-2.69471
-0.029199
-0.452707
0.17249
1.38053
-0.373272
1.15194
0.608588
1.86957
0.161087
0.0214493
-0.593183
2.85236
-1.75539
-0.702508
-0.148578
-0.870144
0.431766
-0.18876
-0.734741
-1.98324
0.0935977
0.65316
0.592493
1.26295
0.914348
1.82867
0.205817
2.05673
1.26971
0.937088
0.112201
-0.0764858
0.421939
0.00161048
1.0777
1.23639
-0.717104
-1.56692
-1.21995
-0.294895
-1.41836
-0.211162
0.586256
0.0457105
0.192841
-0.551409
0.157221
0.192322
1.72974
-1.40122
1.01116
1.34659
1.79472
1.07301
-0.154229
0.860505
-0.474171
0.326987
0.482358
-0.809094
0.637138
0.318417
0.461663
0.575626
-0.581377
0.0612146
0.467775
-0.97362
0.889997
1.26596
0.327306
-0.595974
0.848656
0.253366
0.896767
-0.124522
0.079147
-0.424467
-1.95293
-1.31122
0.633246
1.70422
-0.799948
-0.468604
1.55186
1.06425
1.8374
1.52445
0.817773
0.891031
0.636811
0.633301
0.659435
0.629379
-0.393281
-0.704715
0.913011
1.15052
-1.02539
1.11191
0.397976
-1.09746
0.838092
-1.22202
1.54095
-0.501642
0.839233
-0.829371
0.135214
-1.03776
-0.904979
-1.11477
0.483241
-0.974021
-0.472126
1.78041
0.74187
-0.97524
-0.46091
-0.173937
-0.718748
-0.00787796
-0.106439
0.664308
0.495485
1.47335
1.13462
2.00867
0.52317
0.603384
0.170435
2.64357
1.10771
1.13024
1.0585
-0.562286
0.327964
-0.151965
-2.13943
-0.572542
-0.245442
0.794853
-0.030959
1.49378
0.171228
0.279128
-0.160892
1.25799
-0.573055
0.150893
0.449309
0.0128192
1.32605
-0.0650599
1.02139
-0.0045255
-0.317764
0.29774
-1.29976
-0.56963
-0.702996
1.71174
0.719232
0.791294
2.47189
0.219598
1.22646
0.0232747
0.943223
1.00696
-1.10757
-0.740681
-0.629507
0.999285
1.25911
0.639529
-0.740768
-0.689627
-0.716502
-0.942519
-0.611259
0.687358
1.37103
-0.0852565
1.2053
1.53256
0.671052
1.83267
0.565863
0.166799
0.325553
-0.872033
0.583391
-0.90275
-0.589204
0.977756
0.903555
-0.792571
-0.242865
-1.11045
-1.06069
1.36675
0.93031
-0.165481
-0.55386
-0.55315
0.711919
0.733205
1.02489
-0.619072
2.25877
-1.15504
0.182344
1.554
2.37503
0.203408
0.112112
-1.1383
-0.779833
2.06214
0.0543254
0.349945
1.09827
1.32366
-1.3864
0.457895
0.996873
0.471774
-0.808059
0.40267
-0.221567
1.59391
-0.513652
1.98572
-0.465113
1.20282
-0.391783
-0.812519
-0.859763
-1.65856
0.593664
1.16338
-1.40489
-0.144742
1.80094
0.676475
-0.170341
1.91096
-1.13833
0.513264
0.330754
0.505159
0.120532
-0.191117
-0.664947
0.0397132
0.48177
0.166216
-0.943831
0.432187
-0.0753914
0.0849527
-0.605639
-0.46304
0.89481
-0.62854
-0.46535
1.04838
0.473241
0.554922
0.683811
0.982759
0.688049
-0.0576406
-0.532349
0.051748
0.064135
0.476476
0.601499
-1.3959
-1.26006
0.728188
0.967334
2.23921
1.84326
3.22511
1.62281
2.55337
-0.174552
0.436783
1.93874
2.20851
2.06902
1.66131
1.81936
-0.608624
0.273921
1.20194
-2.30228
-0.525499
-0.187376
-1.03723
1.87991
1.95941
1.56318
0.593738
2.8608
1.18429
1.41764
1.61919
1.84912
0.62424
1.46838
2.34091
2.77551
2.08803
-0.397326
-0.0868518
-0.0993095
0.870096
0.674923
0.435449
1.95509
1.622
0.19324
2.00732
0.440746
2.28386
1.89506
1.68198
1.48779
0.992626
1.18038
1.61561
-0.0705209
-0.421457
1.09273
0.313338
-1.25589
0.723191
-0.465286
-1.37899
1.61975
0.306519
2.12457
1.2296
2.37442
-0.561558
1.67621
0.601316
0.909181
1.42287
2.62141
1.12791
0.0605902
0.154061
-1.59123
1.21327
-0.433824
-0.227427
0.663821
0.303492
2.14031
2.0493
0.320584
-0.619382
0.240069
0.507549
0.583303
0.811013
0.930182
1.08771
1.59971
0.362942
1.47972
-0.179029
-0.33436
0.337112
-0.116468
-0.0713396
1.10589
2.14744
0.317262
1.76364
0.910497
0.188828
0.261577
1.54717
0.796395
0.773236
1.9212
0.774434
0.770962
-0.0260436
0.248712
-1.60932
-0.507377
-0.271328
0.224966
-0.365044
-0.869319
-0.497338
0.221238
0.259528
0.109606
1.20597
-0.408274
0.474503
1.10043
-0.30913
0.705136
0.705559
0.0928449
0.323696
0.331707
0.192517
1.78396
0.107932
-0.906757
0.45701
-0.630316
-0.115579
0.821106
-0.530016
0.587513
-0.327237
1.75856
0.3988
0.41245
-1.10199
-0.0257069
-1.36462
1.77261
1.73687
0.0520959
0.376101
-0.135521
0.453971
0.828205
0.209559
-0.25662
1.90123
1.32804
2.53461
1.74065
3.0688
3.51155
2.20568
3.58413
2.87136
2.93504
1.20378
3.25229
3.67888
3.68245
0.567789
1.65219
1.02795
0.164553
0.733969
0.13878
0.455802
0.183947
1.91192
0.0359293
0.79372
0.312676
2.49195
0.220105
-0.00786627
1.95416
0.312999
1.64482
0.572877
1.67083
-0.289589
0.0150523
0.0803826
0.536857
-0.311688
0.368403
0.0833631
0.509505
0.358739
2.14296
2.13867
2.01202
3.01601
2.15611
2.7088
2.49448
2.39431
2.20289
1.88242
3.25543
0.994737
1.19121
-0.5977
0.72816
-0.419519
0.100833
2.63416
0.491509
1.7118
2.98278
2.58945
0.789271
2.09941
2.53234
1.54977
1.55349
1.34797
1.79098
0.858084
1.21445
1.05237
1.52263
2.13019
0.715954
-1.57823
1.23107
0.83675
1.15276
1.74618
1.53059
2.25853
1.00222
2.1591
1.79223
1.6286
1.52165
1.40006
1.41083
1.10442
2.21678
0.197261
0.90647
0.801827
0.115414
0.672201
0.733839
1.97053
0.0163328
1.06427
2.71706
2.36462
2.39395
1.05595
0.573904
0.764768
0.953499
1.25075
-0.835473
-0.74192
-0.183013
-0.642529
0.0254214
-0.183637
-0.413548
-0.35161
1.12803
0.745835
0.126609
1.16761
1.0591
0.525644
-0.0040192
0.25046
-0.0598415
-0.379307
1.53003
-0.0621806
1.2359
0.52987
0.359354
1.14152
1.73116
-0.971941
0.70335
1.29493
1.19249
0.895533
-0.425249
-0.783058
-0.807969
0.412353
-0.403208
-0.801705
-1.14178
0.508356
0.867402
-1.38412
-0.291237
0.412971
0.133775
-0.128387
-0.12694
0.126811
0.467278
0.41564
1.91714
1.85252
2.63034
3.51476
3.79549
3.34696
2.45038
4.44017
3.82814
3.41827
3.16135
3.38989
3.24962
2.92816
2.54669
2.84633
1.91896
2.06865
-0.51072
0.274682
-0.0837757
0.607933
2.26661
3.06147
2.48359
3.69646
0.93623
2.35948
2.15593
2.26643
1.26011
2.9719
2.05386
1.96209
2.40935
1.56507
1.9016
1.17393
0.856252
0.253201
0.0816704
3.3326
3.46566
1.35503
2.32171
1.49611
3.80463
1.98556
2.24828
2.5034
2.97932
2.12546
2.72073
0.901397
3.42998
2.02174
1.21876
0.0387466
0.404221
0.72674
0.317805
3.09852
1.03574
2.02963
1.28682
2.21499
0.805682
2.69423
2.06013
0.888077
1.05186
1.07696
2.43678
2.93785
1.6807
2.44304
-0.111851
-0.0404592
1.49225
1.05509
0.502027
1.10937
1.90292
2.48986
1.16604
0.541989
1.78861
1.59181
1.52553
1.57927
0.50771
1.29447
1.57969
1.12978
1.37455
1.92438
0.0536537
0.924697
0.21259
1.96889
0.284265
1.16156
1.53827
2.31969
0.651995
0.923392
1.13666
3.06728
1.00682
0.788344
-0.577723
0.0199156
0.60897
2.06411
2.41138
2.14316
0.175571
-0.278472
0.142858
-0.142251
0.489627
1.54196
1.38995
0.318072
0.524861
-0.491723
0.644542
0.369486
1.76605
0.491147
-0.569699
0.372803
1.92859
0.635048
0.0673296
1.28665
0.923165
1.81665
-0.756531
0.38293
-0.13886
-0.297512
-0.0416963
0.464901
0.3543
-0.736632
-1.22981
0.23416
1.72326
-0.702738
-0.336728
0.233331
-0.651586
-1.23824
-0.269607
0.696932
-1.76299
-0.870657
0.96693
)
;

boundaryField
{
    hotSide
    {
        type            calculated;