/*--------------------------------*- C++ -*----------------------------------*\
| =========                 |                                                 |
| \\      /  F ield         | OpenFOAM: The Open Source CFD Toolbox           |
|  \\    /   O peration     | Version:  2212                                  |
|   \\  /    A nd           | Website:  www.openfoam.com                      |
|    \\/     M anipulation  |                                                 |
\*---------------------------------------------------------------------------*/
FoamFile
{
    version     2.0;
    format      ascii;
    arch        "LSB;label=32;scalar=64";
    class       volScalarField;
    location    "0";
    object      stateMean;
}
// * * * * * * * * * * * * * * * * * * * * * * * * * * * * * * * * * * * * * //

dimensions      [0 0 0 1 0 0 0];

internalField   nonuniform List<scalar> 
3200
(
328.933
328.608
325.155
326.015
326.392
327.167
328.118
328.54
327.949
327.591
327.707
327.501
328.48
328.411
326.404
326.589
326.585
327.422
327.275
328.414
324.367
324.71
322.634
322.276
323.866
323.471
323.514
323.13
324.824
325.121
324.576
324.163
323.265
325.328
323.772
322.948
323.254
322.833
324.355
322.739
319.743
320.3
319.128
317.605
319.153
320.35
320.079
320.153
321.376
319.527
320.834
321.473
319.715
319.525
319.484
320.11
317.987
320.024
318.998
321.287
317.643
316.374
315.117
317.17
313.797
315.782
317.256
315.746
315.639
315.811
316.937
316.627
318.117
316.285
316.161
316.13
315.826
316.72
316.051
316.222
312.962
313.008
311.202
312.817
313.589
311.565
312.046
312.519
313.239
312.304
314.389
313.015
311.82
312.619
312.907
312.734
311.462
312.854
312.17
312.52
309.195
306.773
307.645
308.677
307.733
309.008
308.585
308.635
308.742
308.851
310.245
309.679
309.707
308.515
307.799
308.596
308.839
308.695
308.719
308.367
305.263
305.979
305.392
305.511
304.53
305.772
305.463
304.796
305.128
304.334
305.41
305.04
305.514
306.804
305.374
305.361
304.853
305.328
306.381
306.364
301.104
302.314
302.533
301.092
301.911
302.617
302.223
301.003
301.827
299.804
302.189
300.518
301.334
301.896
301.273
302.056
301.853
300.213
301.736
301.751
328.718
326.451
327.652
327.311
326.856
327.881
326.462
328.759
328.809
329.748
328.813
329.12
329.004
327.383
327.103
327.709
327.857
327.428
325.785
329.254
324.094
323.491
322.908
323.911
322.964
324.995
324.13
325.318
325.056
325.897
325.611
325.079
325.378
324.341
324.86
323.493
323.862
322.116
323.442
324.571
320.51
319.818
319.169
320.554
318.986
320.311
320.364
319.445
320.316
321.583
319.647
318.582
320.991
320.375
321.067
319.773
320.031
320.154
320.133
320.761
316.315
317.367
315.277
315.658
316.728
316.114
315.134
317.461
316.901
314.279
318.388
315.74
317.782
316.54
317.361
316.224
316.615
316.284
315.157
316.388
314.351
314.586
312.99
312.524
312.016
311.803
313.216
312.457
313.196
313.066
312.39
312.935
313.387
312.383
313.494
313.309
312.26
312.011
312.854
313.639
308.49
309.231
310.036
308.148
308.502
310.543
309.892
308.019
308.411
309.527
308.367
308.84
309.101
309.589
309.221
309.043
306.844
308.446
310.117
309.296
304.496
304.904
306.07
304.182
304.288
305.768
306.178
305.578
305.856
304.851
306.565
305.437
305.42
305.868
304.043
304.463
305.385
305.873
303.787
306.722
303.318
302.515
300.597
301.78
303.169
302.451
302.942
302.775
301.463
301.743
304.784
300.436
301.204
300.283
301.753
302.991
300.358
302.329
302.556
302.214
329.682
326.724
329.122
326.882
327.961
326.496
328.371
330.018
327.225
329.647
328.788
327.996
327.632
329.094
327.766
327.782
327.003
327.161
327.78
328.543
324.747
324.007
324.097
322.838
323.344
322.659
323.414
324.83
324.307
324.708
324.071
325.159
326.105
325.039
323.803
321.834
323.298
324.537
325.197
323.345
320.975
320.117
320.395
318.459
320.368
319.984
320.97
320.445
320.587
320.663
321.79
322.23
320.271
318.735
321.79
320.259
319.829
319.493
321.046
321.219
316.632
317.098
313.363
315.445
315.442
315.936
316.56
316.164
317.072
316.749
317.185
317.087
316.351
315.589
316.578
315.351
316.638
314.67
316.778
317.219
311.752
311.432
310.267
311.899
311.353
311.859
311.913
313.54
311.697
313.321
310.719
315.108
314.425
312.779
311.767
312.077
312.719
313.643
312.029
313.019
310.257
309.284
307.6
309.617
308.509
308.581
308.726
309.88
309.885
309.408
310.658
310.167
308.686
308.83
308.426
307.708
308.959
309.039
308.409
309.095
305.26
304.578
304.303
305.351
305.024
307.125
305.459
306.016
305.677
305.655
305.749
306.349
305.053
305.699
305.244
305.249
303.791
304.108
306.444
305.367
302.233
300.8
302.598
302.121
301.186
301.468
303.846
302.101
302.889
301.415
301.151
301.222
302.118
301.415
301.248
301.004
301.531
301.041
302.518
301.69
327.688
328.629
327.876
326.803
327.561
328.548
328.155
328.544
329.426
329.561
328.038
327.49
330.478
328.134
327.365
326.747
328.922
327.883
326.202
327.733
325.551
323.999
322.996
324.345
323.682
324.985
324.081
325.84
324.853
326.257
326.02
324.657
325.833
325.058
325.337
324.222
324.597
324.49
323.964
323.972
320.992
321.604
320.852
319.323
320.08
320.787
319.791
321.14
321.975
320.759
319.786
319.714
322.14
320.689
319.566
321.351
320.107
319.532
319.826
319.882
317.419
315.951
316.748
316.47
316.005
317.025
315.799
315.675
316.788
316.737
316.615
317.986
317.884
318.104
317.069
314.872
316.361
316.039
316.663
316.251
312.81
313.764
312.231
313.52
313.374
312.976
311.437
313.098
313.416
314.575
313.341
312.574
314.379
313.566
312.569
311.456
311.293
311.649
313.161
314.586
309.358
308.648
308.382
309.22
308.259
310.098
309.971
309.719
309.862
309.022
311.134
309.233
308.7
310.325
308.609
308.208
308.739
307.724
309.579
310.454
305.78
305.924
304.492
305.454
305.788
304.531
306.56
305.451
307.485
306.473
305.169
305.077
304.937
305.204
305.828
305.472
305.153
306.543
305.528
305.587
300.408
302.951
301.892
301.385
302.544
302.84
302.745
301.546
301.476
301.883
302.102
301.474
303.035
301.242
300.514
302.125
300.944
301.312
302.243
301.903
329.174
330.219
328.76
327.474
327.884
328.783
328.532
329.621
330.135
331.604
329.871
331.406
329.231
330.104
327.62
326.744
329.504
329.329
327.978
330.745
325.321
325.067
325.514
322.963
325.123
324.206
324.285
324.627
324.741
325.679
324.758
326.563
324.091
326.391
324.749
323.325
322.666
323.881
325.23
324.378
321.552
321.503
321.08
322.362
319.91
319.134
320.719
321.316
322.141
322.088
323.143
322.788
322.839
320.723
321.097
320.841
321.001
320.427
321.473
321.048
318.015
316.972
317.153
315.981
316.438
316.833
317.121
317.41
319.172
316.684
316.701
317.636
318.612
317.241
317.018
316.259
316.624
315.609
316.724
317.713
313.48
313.563
313.489
312.421
314.132
312.204
312.828
311.175
313.978
312.583
313.56
313.913
314.809
312.225
312.939
314.534
313.175
313.181
312.311
313.347
308.225
308.741
309.058
309.714
308.796
308.822
308.337
308.58
309.748
310.17
308.148
310.126
308.614
308.446
308.51
309.054
308.645
309.416
308.076
308.656
305.179
305.748
305.386
303.93
303.978
305.49
305.675
306.227
305.556
304.791
307.117
306.328
305.947
304.419
305.363
305.543
304.382
303.681
305.554
305.888
302.13
301.891
301.364
302.678
302.75
302.003
301.857
302.135
301.403
302.978
301.44
301.581
302.873
302.022
301.512
300.976
301.085
303.109
300.83
302.258
329.296
329.531
330.752
329.813
328.776
328.778
328.494
331.149
331.43
330.816
330.797
330.493
329.955
330.512
330.333
329.323
327.49
330.06
329.933
332.602
326.599
324.413
326.112
325.414
324.919
325.547
324.636
326.346
327.506
326.402
326.953
325.514
326.41
325.833
326.018
325.022
325.187
326.212
325.076
325.697
322.211
321.367
320.672
319.382
321.051
320.733
322.29
321.416
322.253
321.802
322.802
322.987
322.362
322.697
322.015
321.888
320.919
321.971
320.093
321.579
318.034
317.342
316.168
316.519
316.782
317.715
316.72
317.158
317.114
318.26
319.855
318.436
318.693
318.342
317.504
316.843
316.644
317.883
316.858
316.532
313.164
312.37
314.194
313.384
310.954
313.322
313.708
314.397
314.264
314.036
315.435
316.009
314.69
313.11
313.944
313.77
313.045
313.077
314.846
313.574
309.833
311.044
309.357
309.157
309.041
309.835
311.51
310.076
309.679
309.949
309.373
309.012
309.403
309.873
310.038
308.44
309.541
310.29
309.676
308.934
306.141
305.972
306.549
304.495
305.972
304.484
304.826
306.057
306.878
305.834
305.307
305.627
305.894
304.885
306.089
305.726
305.144
304.698
304.018
306.433
301.282
301.468
302.43
302.017
301.434
301.387
303.008
300.928
301.901
302.238
302.07
302.206
302.072
301.951
301.385
300.902
302.511
301.264
301.064
302.145
333.084
331.136
330.604
329.305
330.417
330.706
330.78
330.695
331.32
331.262
331.85
331.412
331.841
330.049
329.49
330.561
329.422
329.274
328.909
331.155
328.81
325.582
325.784
324.79
325.924
326.58
327.026
325.853
327.58
327.291
328.417
327.379
326.947
327.381
326.398
325.679
326.884
325.877
326.687
327.516
321.376
321.886
321.672
321.215
321.1
320.05
322.182
322.858
322.3
322.346
324.281
320.614
323.617
322.148
322.65
320.322
321.883
321.848
324.472
322.319
319.023
317.987
318.35
318.598
315.902
318.426
319.828
318.64
318.936
318.429
318.829
318.33
318.317
319.012
317.07
318.268
317.532
317.887
318.317
318.178
314.628
313.028
313.649
313.744
313.608
314.322
314.216
312.731
315.314
314.08
313.747
315.543
312.793
313.464
313.089
313.542
312.57
313.39
313.438
314.348
308.623
309.348
308.182
308.86
309.341
309.344
308.848
308.943
309.862
309.214
309.736
308.821
311.562
309.629
309.327
309.475
309.598
310.802
309.831
310.93
305.586
306.36
306.119
305.688
305.292
305.334
304.755
304.854
305.636
307.567
303.981
306.544
305.757
306.19
305.987
306.566
306.473
305.614
305.247
306.923
302.332
302
301.788
301.056
302.06
301.804
302.29
302.048
302.379
302.468
302.781
300.849
301.578
302.267
301.882
302.454
301.819
302.939
301.851
302.869
331.996
331.339
331.285
332.19
329.665
330.324
331.791
333.054
332.473
331.132
332.041
332.517
331.338
332.229
331.959
330.886
330.057
330.662
331.84
330.496
326.796
325.339
327.494
326.696
325.232
326.651
327.059
327.07
327.493
327.194
327.574
328.376
327.307
328.443
326.401
326.599
326.136
327.281
325.22
328.022
322.881
323.005
323.381
322.986
321.401
323.325
323.271
323.27
321.447
324.59
322.621
323.557
322.819
323.431
322.913
321.781
323.264
321.566
325.897
322.952
317.946
318.658
317.858
318.883
317.723
319.565
319.306
318.838
318.527
320.029
320.337
318.858
319.584
317.869
319.01
318.677
316.944
317.391
319.961
318.798
313.906
315.084
314.122
314.22
313.662
313.208
314.223
314.866
313.959
314.796
313.786
315.969
313.944
313.838
313.611
313.178
314.185
315.297
314.185
314.681
311.324
311.216
308.391
308.443
309.824
309.546
310.754
310.045
311.604
310.707
311.848
310.387
307.92
309.207
310.029
310.919
309.651
310.631
309.931
309.46
305.404
306.361
306.106
305.165
305.671
305.554
305.881
306.784
306.976
306.823
305.643
307.157
306.415
307.29
306.935
306.473
305.099
306.095
303.608
305.841
301.063
303.013
301.653
301.783
301.687
302.417
301.139
301.456
301.289
302.321
300.972
301.417
301.386
302.127
302.153
301.733
302.911
301.18
301.668
302.761
332.955
333.72
332.389
332.986
331.904
331.432
331.193
332.131
333.732
333.922
334.396
331.673
333.553
331.732
333
331.672
330.745
331.751
331.008
333.753
329.15
326.538
328.77
326.544
325.529
325.522
325.899
327.819
329.635
328.952
327.955
328.869
328.301
327.779
328.709
328.774
326.945
328.379
327.599
327.458
324.358
322.345
323.217
321.234
322.854
323.558
323.038
322.982
322.761
324.272
324.491
323.724
324.508
324.228
323.581
323.308
324.237
323.08
323.236
322.504
319.236
318.993
317.704
317.718
318.057
317.028
318.964
318.751
319.278
318.84
320.119
319.446
317.974
317.985
318.762
318.607
319.252
317.571
319.992
319.001
314.875
315.625
315.056
313.771
314.915
314.994
313.619
315.455
314.469
316.202
313.592
315.587
316.292
314.306
314.767
315.267
314.276
315.548
313.705
315.551
308.631
311.143
310.373
309.247
309.734
309.2
311.09
309.494
310.889
309.766
312.547
309.52
311.889
311.321
310.19
309.773
309.91
310.622
310.642
310.893
306.322
307.25
305.204
305.145
305.581
306.119
305.236
306.763
306.878
306.507
305.374
306.539
306.207
306.973
306.065
306.976
307.274
306.614
306.483
305.38
301.416
303.321
301.141
302.543
301.872
301.829
300.855
302.66
304.059
300.665
300.709
303.052
301.707
301.261
302.581
303.721
303.602
301.076
300.959
302.332
333.96
332.952
332.818
333.342
333.446
334.117
333.661
331.676
335.836
333.998
334.265
334.776
333.505
333.272
334.142
332.664
333.084
334.115
332.323
334.19
328.717
326.948
330.17
327.563
328.151
327.518
327.162
328.688
330.345
328.549
328.96
329.647
328.488
328.217
327.758
328.003
327.329
326.864
327.66
329.553
324.207
323.378
323.295
323.465
322.521
323.374
324.174
325.619
323.581
324.125
325.717
323.429
325.126
323.439
323.387
323.235
324.848
322.787
323.362
324.265
319.49
319.88
318.576
319.163
318.546
319.568
320.132
319.108
320.176
320.396
320.964
321.587
320.205
319.581
320.394
319.677
320.356
319.892
319.222
320.346
316.573
315.615
316.123
313.576
315.461
315.907
315.904
314.171
316.029
316.72
314.611
315.463
316.199
314.187
315.704
314.949
314.889
315.981
315.08
316.09
311.588
310.114
310.21
309.235
310.009
310.908
313.505
310.826
310.192
311.267
313.093
311.965
309.681
311.516
312.141
311.925
310.043
311.993
312.044
311.219
307.07
307.02
305.69
306.015
306.522
307.584
306.426
306.314
306.156
306.258
307.682
304.065
308.448
306.471
306.129
305.664
306.903
306.283
305.156
307.64
302.851
302.88
300.928
303.663
301.381
302.274
303.694
301.035
302.429
301.228
300.757
302.641
302.857
301.072
303.556
302.674
302.344
301.784
302.396
302.609
335.053
334.647
333.457
332.76
333.342
333.798
334.369
335.376
333.496
334.415
333.842
337.27
335.348
333.416
334.767
334.29
332.536
333.698
334.148
334.33
331.002
328.184
328.257
328.454
330.361
328.053
329.709
329.342
329.691
329.552
329.192
331.131
328.78
329.668
329.094
327.845
328.308
329.738
327.821
330.112
326.461
323.26
323.189
324.148
324.928
324.97
324.575
324.804
327.08
326.034
325.655
327.93
325.452
326.075
322.603
325.069
323.991
325.347
325.001
325.773
320.164
320.212
319.201
320.543
321.395
320.221
320.807
320.087
320.904
321.687
320.596
320.681
321.55
319.661
320.132
318.622
319.958
320.51
319.398
319.885
315.998
315.685
312.39
315.142
315.464
316.627
315.222
314.602
313.428
315.718
316.82
316.819
316.907
314.778
315.133
314.693
315.805
316.494
314.647
316.063
311.641
310.725
311.877
311.201
309.323
311.612
309.175
311.815
310.214
312.202
312.441
310.579
311.403
311.368
310.692
310.313
311.789
309.54
309.724
312.088
306.417
306.583
306.13
306.315
306.534
304.014
307.835
307.574
307.014
307.946
306.736
306.216
305.646
307.951
305.463
307.144
306.981
307.368
306.547
306.369
300.377
301.549
301.588
302.882
301.452
302.123
302.164
304.08
302.028
302.374
301.531
303.744
304.034
304.091
302.117
299.909
302.544
302.461
302.375
301.611
335.804
336.558
335.091
335.8
335.268
335.434
334.304
335.341
336.13
335.516
336.072
336.057
335.127
336.172
334.006
333.013
334.911
336.218
335.954
335.658
333.832
330.872
329.927
329.529
331.007
330.406
329.195
330.212
331.483
331.108
331.061
330.82
330.662
330.339
329.276
328.551
330.626
330.475
331.115
331.308
326.731
325.453
324.46
325.691
324.369
325.041
326.382
325.76
326.478
325.693
325.495
327.12
324.529
325.231
326.286
325.443
324.44
325.777
326.659
326.538
321.011
319.506
319.133
319.85
320.419
320.142
322.298
320.676
321.725
320.324
321.214
322.096
321.309
321.439
319.851
321.138
320.801
320.908
320.389
321.46
315.848
315.591
316.076
316.471
315.658
313.999
314.876
314.895
315.518
314.98
315.897
316.708
317.587
315.7
315.511
316.176
316.272
315.597
316.943
315.194
311.801
310.812
310.267
310.427
310.999
309.684
310.106
312.053
310.529
312.135
310.16
313.111
311.348
311.035
313.352
310.858
310.891
310.525
311.004
312.488
306.989
306.443
307.609
306.022
306.397
305.657
306.123
307.469
306.08
306.518
307.162
307.444
307.621
308.145
306.243
306.127
307.785
306.766
306.321
306.755
301.429
302.04
301.089
302.125
300.936
301.486
302.704
302.106
301.739
301.426
303.775
302.254
301.437
302.569
301.325
302.679
302.467
301.518
302.016
302.176
336.548
335.489
336.835
335.693
336.181
336.368
334.645
336.403
336.591
335.981
336.642
336.824
337.554
334.702
337.708
335.669
336.832
334.467
335.575
337.173
331.405
330.336
331.403
330.072
331.617
330.264
332.12
331.268
331.988
330.816
331.119
331.355
331.168
332.065
330.477
331.289
329.981
331.237
329.852
331.177
325.48
325.854
326.581
325.113
325.716
325.807
324.515
325.609
326.572
326.353
325.876
326.664
327.403
326.123
327.512
326.858
326.123
324.962
327.745
326.173
320.405
322.001
321.543
319.867
320.949
320.844
321.272
320.506
321.299
321.676
322.27
320.852
320.713
321.845
322.209
321.821
320.435
322.31
322.382
322.022
317.028
315.944
316.659
316.342
315.805
315.295
316.688
316.401
317.426
317.372
316.862
317.292
317.601
316.912
316.407
317.089
316.242
317.642
317.401
316.14
311.908
310.936
312.627
311.92
311.99
311.249
312.443
311.682
312.986
310.974
312.005
311.263
312.026
312.824
311.015
310.833
312.38
312.124
312.98
311.518
305.645
307.54
306.578
306.25
308.785
308.05
306.633
305.633
308.42
306.667
307.291
307.838
306.832
308.328
307.373
306.112
307.347
307.032
307.395
306.207
303.056
302.624
301.765
301.863
302.505
302.164
301.159
302.577
303.126
302.953
301.47
302.847
302.994
302.011
302.877
302.879
302.674
303.777
301.937
302.465
338.835
338.735
337.209
336.709
335.971
337.235
335.698
337.617
337.239
338.76
337.88
339.809
336.704
337.144
337.228
336.263
337.002
337.043
337.01
338.347
331.876
330.945
332.477
331.016
332.436
332.114
332.068
330.4
333.148
330.912
332.048
331.78
332.17
330.821
331.535
332.661
331.504
332.634
332.977
334.418
328.456
326.686
327.301
325.131
327.788
328.115
324.092
326.704
327.323
327.337
328.18
328.612
327.423
325.898
325.069
327.162
327.131
327.383
326.665
327.074
323.897
321.722
321.597
320.641
322.542
321.129
322.46
320.965
323.048
322.614
321.262
324.064
323.852
322.032
322.176
322.422
322.134
321.352
322.938
320.523
318.456
315.957
316.474
317.121
316.549
316.15
316.895
316.963
315.549
317.059
317.571
316.677
315.167
317.995
316.025
315.633
316.495
317.299
317.086
318.521
312.489
312.423
311.723
310.228
311.67
314.28
310.675
312.742
311.325
309.712
312.117
313.043
312.653
312.69
311.357
314.072
313.066
312.604
312.464
312.318
306.178
306.861
306.906
306.539
306.201
309.148
307.304
306.9
308.119
307.75
307.086
306.324
306.214
307.94
306.878
306.24
307.841
306.842
306.996
307.363
303.21
302.051
302.055
302.52
302.75
302.87
301.41
302.296
301.705
303.752
302.239
301.695
304.106
300.927
303.31
301.946
303.81
301.356
301.674
304.109
337.92
337.811
338.448
337.736
337.876
339.55
338.587
337.066
336.924
337.258
337.571
338.532
337.97
337.853
338.144
339.218
338.105
337.937
339.013
339.558
333.855
332.317
332.68
332.75
333.056
332.645
332.851
333.456
331.63
333.964
333.099
333.642
333.54
331.992
332.635
332.094
332.357
334.103
332.06
334.628
328.73
326.933
328.965
328.244
328.104
326.89
325.938
325.868
325.996
327.292
327.365
329.07
327.998
329.377
327.989
328.027
327.475
327.459
328.31
327.616
323.487
321.886
324.578
323.032
323.182
323.384
322.252
321.171
323.219
321.188
321.444
323.94
321.698
321.267
322.413
323.167
322.606
322.652
323.647
323.914
318.706
315.846
317.275
318.223
319.158
317.504
316.388
316.702
317.112
316.665
317.725
317.758
318.183
317.482
317
316.904
316.75
316.734
317.437
316.388
312.809
312.954
311.601
313.399
313.206
312.337
312.469
312.013
313.673
312.968
312.071
311.458
312.371
312.181
310.958
311.737
312.358
311.823
310.94
312.576
307.203
307.495
309.266
307.015
306.333
307.589
308.485
307.551
307.455
306.651
308.203
308.565
305.758
307.151
305.587
306.705
306.559
307.265
307.361
307.855
303.151
301.014
301.716
302.509
303.588
302.426
301.255
300.874
301.779
302.308
301.532
301.57
301.073
302.396
303.52
302.172
302.61
302.717
303.402
303.007
340.749
339.553
339.847
339.528
339.597
338.833
339.03
339.16
341.185
338.76
339.038
338.806
339.767
339.746
339.705
339.019
339.126
338.117
339.607
340.11
333.363
333.131
332.247
334.135
334.011
333.209
333.211
333.009
331.35
332.833
333.906
334.882
334.739
333.927
333.027
334.216
333.263
334.783
334.409
334.992
330.748
328.182
328.732
328.238
327.155
329.026
327.603
328.228
327.024
328.763
328.903
329.487
325.985
330.51
329.356
328.685
329.28
327.847
328.342
328.788
324.861
322.865
322.409
322.577
322.009
322.454
321.622
323.312
321.508
322.32
322.653
323.453
323.594
323.029
323.366
322.194
321.933
323.779
324.526
324.098
318.046
319.231
318.104
317.39
318.01
317.938
318.747
318.091
318.092
316.573
319.704
317.273
316.901
316.401
317.058
318.21
317.115
318.367
317.486
317.269
313.468
312.066
312.442
312.358
312.301
313.511
312.916
312.546
314.014
312.164
311.788
312.713
313.61
312.128
312.677
311.98
312.945
312.681
313.127
314.612
308.905
306.987
305.95
308.49
308.193
306.204
306.72
305.97
306.298
307.012
306.939
307.185
307.174
307.125
307.127
308.117
308.395
306.741
306.469
308.619
301.432
302.155
303.661
301.738
303.81
301.057
303.11
301.776
303.449
302.488
303.661
303.525
303.73
302.125
303.572
303.06
300.796
301.822
303.528
303.005
340.356
341.033
340.481
340.741
340.127
340.44
339.586
340.024
339.22
340.742
340.662
341.059
338.515
339.951
339.805
339.732
341.197
340.145
340.466
342.321
335.23
335.013
334.11
335.077
333.687
335.135
335.135
335.661
334.303
336.165
335.441
335.112
335.487
334.088
335.371
334.16
335.051
335.223
334.47
335.957
329.775
330
327.701
328.813
328.855
327.28
329.623
328.691
329.945
329.051
328.987
331.076
330.658
330.473
328.753
328.387
328.892
330.154
329.987
329.922
324.758
324.5
323.296
322.71
324.259
323.056
322.803
323.725
322.605
323.893
324.292
324.112
325.268
323.753
325.164
324.763
323.103
323.079
324.682
324.058
319.585
319.593
317.238
317.751
318.919
319.375
319.433
318.214
318.226
317.951
319.595
316.7
320.081
318.698
317.267
316.379
318.478
318.493
319.67
319.255
311.113
313.161
312.917
312.223
312.05
314.808
313.005
312.5
313.048
314.34
313.129
313.742
311.903
313.977
311.436
313.839
312.118
313.659
314.028
314.035
309.562
307.333
306.795
309.395
308.167
306.25
307.4
308.266
306.199
309.255
307.604
307.779
307.591
307.955
308.242
308.687
307.95
307.476
307.761
308.847
302.215
302.73
302.581
303.283
303.15
301.802
303.334
303.177
301.669
302.246
302.164
302.033
301.729
302.017
302.755
303.219
302.625
302.602
302.179
302.046
343.223
343.208
341.365
341.274
340.144
340.67
339.4
341.092
340.224
342.984
342.372
340.838
340.506
340.556
340.852
340.564
342.85
341.819
340.746
344.129
336.588
336.352
337.328
334.539
334.583
335.092
336.158
333.969
335.7
335.494
335.293
335.035
336.206
335.284
334.314
333.766
334.331
336.688
336.252
336.162
329.51
329.79
330.136
328.725
329.162
330.686
328.955
330.587
328.79
329.202
329.415
329.586
330.035
329.782
329.263
330.855
331.101
329.478
330.152
331.636
324.043
325.3
326.3
323.39
324.789
323.049
324.012
322.921
325.895
323.676
324.751
324.424
323.872
322.621
324.046
325.035
324.856
326.512
323.622
325.2
319.436
318.598
319.026
317.258
317.416
319.205
320.197
319.38
319.141
319.082
318.854
318.719
318.532
317.978
319.163
317.985
319.577
319.663
318.925
319.325
313.767
312.627
311.634
313.514
312.114
313.012
313.77
313.727
312.463
313.225
313.248
312.089
313.215
313.188
313.948
313.629
315.44
314.288
314.004
313.471
308.579
309.105
308.762
308.074
308.064
308.24
307.166
308.798
307.928
307.309
308.718
307.698
307.684
308.279
308.026
307.992
308.102
306.481
308.128
309.121
302.294
303.389
302.884
301.957
303.318
302.209
303.131
301.051
302.416
302.405
303.919
302.841
304.175
301.031
301.06
302.736
302.402
302.904
302.305
301.923
343.205
343.784
341.76
342.469
341.392
342.304
341.078
340.716
342.078
340.729
341.442
341.349
343.024
340.895
340.366
340.245
343.229
342.009
342.499
343.25
336.67
337.36
337.159
337.549
335.934
337.913
337.243
337.795
335.665
337.962
338.19
336.203
337.795
336.392
337.376
336.175
338.023
337.6
337.419
336.867
331.802
331.2
331.583
331.256
331.503
329.806
329.885
330.072
329.11
329.991
329.438
329.632
329.69
329.821
330.067
328.607
330.771
330.475
332.166
330.762
326.077
325.619
323.166
325.39
324.249
323.049
323.505
325.354
324.078
323.662
324.644
324.624
324.795
324.303
325.174
324.747
324.83
324.277
323.59
324.941
321.469
318.708
319.165
318.913
318.381
318.651
317.971
319.267
318.136
318.517
318.68
318.773
318.869
318.819
319.078
317.91
319.869
319.096
319.137
319.776
313.505
313.478
312.285
314.286
313.281
311.668
312.055
312.053
313.41
313.902
313.711
313.513
313.196
315.255
315.127
314.528
314.945
314.231
314.396
314.591
308.853
307.393
307.802
308.449
307.434
307.567
308.121
308.667
308.424
308.74
309.059
307.144
308.725
307.411
308.096
308.243
307.434
306.817
309.493
307.798
301.552
301.662
301.967
303.297
303.664
303.697
302.484
303.304
303.707
304.049
302.399
302.038
304.285
303.187
302.476
302.747
303
302.99
302.727
302.38
344.254
342.858
343.048
342.399
341.635
341.465
342.008
342.98
341.043
341.681
342.091
342.322
342.04
342.105
342.332
342.603
342.183
342.982
342.706
345.181
338.148
338.597
338.014
336.466
335.778
336.451
335.322
338.148
336.77
336.997
336.887
337.869
336.112
336.964
336.973
336.43
337.168
336.72
337.339
337.567
332.053
332.299
329.14
329.102
331.303
330.418
331.314
329.061
330.918
330.676
330.421
329.925
330.741
330.089
331.839
329.228
330.546
331.254
332.342
331.902
325.569
326.038
323.332
325.473
324.553
325.363
324.493
325.948
324.092
324.742
325.914
325.734
325.677
324.271
323.712
324.902
324.066
326.543
326.396
324.804
319.316
319.915
319.367
318.633
318.104
319.48
320.15
318.938
319.16
319.239
319.186
320.244
319.433
319.112
319.516
319.219
318.612
320.422
319.492
320.158
312.542
314.26
313.424
313.091
312.351
314.056
313.818
313.629
311.717
313.786
314.005
315.362
314.746
314.132
312.644
312.26
312.486
314.41
314.822
314.368
308.84
308.228
307.201
307.379
308.476
308.291
309.328
308.206
308.493
307.102
308.377
309.432
308.478
306.907
308.181
308.727
307.482
307.82
306.901
309.455
302.53
303.058
303.226
302.978
302.48
302.598
303.696
304.194
302.734
301.246
303.672
303.305
302.731
303.611
304.19
303.215
302.239
304.691
303.79
301.946
)
;

boundaryField
{
    hotSide
    {
        type            fixedGradient;
        gradient        nonuniform List<scalar> 
400
(
321.511
322.87
325.591
329.677
335.133
341.965
350.181
359.788
370.794
383.208
397.037
412.289
428.971
447.088
466.647
487.651
510.105
534.011
559.372
586.191
323.738
325.08
327.767
331.802
337.194
343.949
352.078
361.591
372.498
384.81
398.537
413.687
430.268
448.289
467.755
488.672
511.043
534.872
560.161
586.913
326.149
327.47
330.116
334.091
339.406
346.071
354.099
363.503
374.296
386.491
400.101
415.136
431.606
449.52
468.885
489.706
511.988
535.735
560.948
587.63
328.704
330
332.597
336.503
341.73
348.292
356.205
365.485
376.15
388.215
401.695
416.604
432.954
450.753
470.009
490.73
512.919
536.579
561.714
588.325
331.33
332.599
335.142
338.97
344.099
350.546
358.332
367.477
378.003
389.928
403.271
418.047
434.27
451.949
471.095
491.712
513.807
537.382
562.439
588.978
333.918
335.158
337.643
341.389
346.414
352.74
360.392
369.397
379.779
391.562
404.765
419.407
435.503
453.065
472.101
492.618
514.622
538.114
563.096
589.569
336.321
337.531
339.959
343.622
348.544
354.751
362.274
371.142
381.385
393.031
406.101
420.618
436.595
454.047
472.983
493.409
515.33
538.747
563.663
590.076
338.36
339.543
341.92
345.509
350.339
356.44
363.847
372.595
382.718
394.244
407.2
421.608
437.485
454.844
473.695
494.045
515.897
539.253
564.114
590.478
339.852
341.015
343.352
346.885
351.645
357.665
364.985
373.643
383.675
395.113
407.984
422.312
438.116
455.407
474.197
494.491
516.294
539.606
564.428
590.758
340.643
341.795
344.11
347.613
352.334
358.311
365.584
374.193
384.176
395.567
408.393
422.679
438.443
455.699
474.456
494.722
516.498
539.788
564.589
590.901
340.643
341.795
344.11
347.613
352.334
358.311
365.584
374.193
384.176
395.567
408.393
422.679
438.443
455.699
474.456
494.722
516.498
539.788
564.589
590.901
339.852
341.015
343.352
346.885
351.645
357.665
364.985
373.643
383.675
395.113
407.984
422.312
438.116
455.407
474.197
494.491
516.294
539.606
564.428
590.758
338.36
339.543
341.92
345.509
350.339
356.44
363.847
372.595
382.718
394.244
407.2
421.608
437.485
454.844
473.695
494.045
515.897
539.253
564.114
590.478
336.321
337.531
339.959
343.622
348.544
354.751
362.274
371.142
381.385
393.031
406.101
420.618
436.595
454.047
472.983
493.409
515.33
538.747
563.663
590.076
333.918
335.158
337.643
341.389
346.414
352.74
360.392
369.397
379.779
391.562
404.765
419.407
435.503
453.065
472.101
492.618
514.622
538.114
563.096
589.569
331.33
332.599
335.142
338.97
344.099
350.546
358.332
367.477
378.003
389.928
403.271
418.047
434.27
451.949
471.095
491.712
513.807
537.382
562.439
588.978
328.704
330
332.597
336.503
341.73
348.292
356.205
365.485
376.15
388.215
401.695
416.604
432.954
450.753
470.009
490.73
512.919
536.579
561.714
588.325
326.149
327.47
330.116
334.091
339.406
346.071
354.099
363.503
374.296
386.491
400.101
415.136
431.606
449.52
468.885
489.706
511.988
535.735
560.948
587.63
323.738
325.08
327.767
331.802
337.194
343.949
352.078
361.591
372.498
384.81
398.537
413.687
430.268
448.289
467.755
488.672
511.043
534.872
560.161
586.913
321.511
322.87
325.591
329.677
335.133
341.965
350.181
359.788
370.794
383.208
397.037
412.289
428.971
447.088
466.647
487.651
510.105
534.011
559.372
586.191
)
;
    }
    coldSide
    {
        type            mixed;
        refValue        uniform 300;
        refGradient     uniform 0;
        valueFraction   uniform 0.991591;
        source          uniform 0;
        value           nonuniform List<scalar> 
400
(
300.009
300.028
300.019
300.003
300.018
300.011
300.02
300.009
300.012
300.024
300.003
300.012
300.026
300.027
300.026
300.012
300.019
300.019
300.013
300.021
300.019
300.021
300.007
300.025
300.016
300.012
300.017
300.025
300.028
300.024
300.013
300.017
300.022
300.017
300.009
300.018
300.023
300.029
300.014
300.026
300.021