/*--------------------------------*- C++ -*----------------------------------*\
| =========                 |                                                 |
| \\      /  F ield         | OpenFOAM: The Open Source CFD Toolbox           |
|  \\    /   O peration     | Version:  2212                                  |
|   \\  /    A nd           | Website:  www.openfoam.com                      |
|    \\/     M anipulation  |                                                 |
\*---------------------------------------------------------------------------*/
FoamFile
{
    version     2.0;
    format      ascii;
    arch        "LSB;label=32;scalar=64";
    class       volScalarField;
    location    "./ITHACAoutput/true/16.5";
    object      error;
}
// * * * * * * * * * * * * * * * * * * * * * * * * * * * * * * * * * * * * * //

dimensions      [0 0 0 1 0 0 0];

internalField   nonuniform List<scalar> 
3200
(
-0.352582
1.73988
2.45935
0.751369
-2.29984
-1.2784
-1.81536
-1.09337
1.19541
0.05015
1.3347
5.88661
0.0113369
0.83563
1.39389
3.39277
-2.07286
3.31982
3.41774
7.11899
-1.58249
0.222796
1.19269
0.0223822
-0.306266
-0.460621
-0.768931
0.381977
0.849293
1.5714
1.21157
1.75266
-4.81994
1.89216
4.09428
-2.32468
1.47728
1.53808
6.4695
3.46311
2.05667
0.403723
3.86357
1.48189
1.52638
-3.41381
-0.923883
-0.916279
-3.50472
-2.30429
0.437947
2.32378
0.18757
-0.432653
3.31037
-2.49087
-2.39548
2.47746
4.05526
1.68518
0.18561
-0.24642
1.63894
3.60523
-1.70603
-2.90503
0.0224342
1.20643
-3.95504
2.49754
2.08649
1.4166
0.40698
-1.3405
2.1051
1.48111
3.03131
8.2845
5.90136
8.75179
2.75617
-1.73625
-0.388911
-0.140209
-2.36107
1.12113
-3.60048
2.79948
-1.93022
1.56
-1.53535
0.378312
-0.765602
-0.636879
1.42119
0.946202
0.692596
1.19221
3.81554
2.98651
0.100165
-0.546985
3.08002
1.81116
-2.21025
-6.14849
-2.97184
-1.18246
2.17186
2.37275
2.61814
-2.5823
2.69786
2.92253
1.08648
0.297216
-0.0257134
3.02306
-0.753369
2.16255
-1.01115
-0.162584
0.84546
-0.534876
-0.738281
2.07494
0.685077
-2.4209
2.43816
-0.277445
-1.92472
-3.30154
-0.017797
-2.14437
-1.70357
1.78645
-2.68
2.66242
2.29165
2.19394
3.72633
-0.19924
3.08698
2.86301
-2.39917
-1.9718
-0.78645
-0.0377845
1.36124
-2.34911
0.993793
1.60885
-2.70583
-2.35375
1.20437
-0.643491
0.905716
-3.3183
-0.142886
1.76362
2.27226
-1.32331
-0.822158
-0.085299
0.287804
2.16292
0.808634
0.917125
3.19548
-0.790237
3.56587
0.680006
6.28185
2.99391
0.00164251
0.939023
-1.06811
5.65005
4.30788
2.1834
-0.997315
-5.20452
-1.93705
1.42471
-2.00853
-0.352156
0.755405
-0.276189
1.18645
0.330736
-0.525252
3.52438
-0.214954
-0.113306
0.215245
-0.0434901
-0.0591252
3.83443
0.157086
-0.0689362
1.04919
-0.270182
-0.532862
1.00791
0.622901
-0.865188
1.84853
-1.82553
-4.74604
-1.41196
0.450419
-2.21164
2.05681
0.0375977
-1.71792
0.897455
0.890504
-0.700983
2.59764
2.05891
0.800308
-0.249701
3.58577
-3.21278
1.00132
-0.49635
-3.0394
0.967412
-0.390387
0.685143
2.78656
0.261653
-0.923523
-4.13843
-3.63315
0.898632
2.35911
1.60065
5.60611
3.43344
-2.4402
3.38106
2.66797
-0.252236
0.755487
-2.88094
-0.11209
-2.1374
0.202758
-4.12817
-2.5414
0.151727
-2.97664
-0.453917
2.0995
-1.16162
1.56147
0.0663819
1.17652
-0.016134
-0.855106
-0.722296
2.11594
1.85622
0.359744
0.737207
0.964099
1.69923
0.069136
-0.972883
1.48392
-0.278237
1.43219
-3.04193
-4.43996
-2.21967
0.851927
-0.849905
0.548104
3.76263
-0.109621
-1.93863
-0.898446
-1.24664
0.392356
-3.62141
-2.13369
-1.66752
1.56561
-0.375788
1.33472
4.35149
0.704545
0.377634
-1.09895
-2.046
3.68953
0.300528
1.75806
-1.46938
1.11859
-3.6461
1.62019
1.2352
-0.875268
-1.95786
-0.980826
-3.22326
1.61188
2.97132
3.97608
1.01233
-0.00657889
0.214927
2.07656
-0.519179
1.04373
-0.123153
-0.552303
-0.108865
-0.821775
-1.04312
-0.00227869
-3.92124
-5.06165
-2.91938
-1.04099
-2.12322
-1.78738
-2.9205
2.93474
-1.03976
-5.40415
-3.08553
-5.94253
2.24222
0.319332
3.26358
0.0310508
3.2808
-0.46915
-1.78315
-2.94048
-3.57145
-2.53293
-0.963706
-0.252009
-5.44786
-5.38158
1.31718
0.189083
-0.451588
-0.900125
-1.43568
2.08596
-3.49891
1.07475
5.00641
3.00799
1.58063
5.41849
-2.81568
-1.08398
-4.25648
1.1615
-2.75167
-3.60759
-1.32409
-1.17275
-3.18338
-6.87298
1.96447
-0.8826
-1.06545
-2.04666
-0.0868482
-3.52213
0.619528
1.32963
4.83
5.34296
2.08364
-0.32843
-2.11742
-1.13799
1.46795
1.02071
-2.06576
-2.92072
-2.58749
-2.37474
-1.28091
-0.779293
-0.232216
-1.75866
-1.90833
1.01764
1.4609
2.43369
-0.689537
-0.710092
-1.89178
0.248878
-1.14586
2.53203
0.0978075
2.98368
-0.602854
-2.72754
0.224215
2.82496
1.53748
-2.45467
-0.129416
-0.487397
0.133211
-0.714205
-1.24153
1.95589
1.67931
-3.13305
1.6558
2.55705
-2.25165
1.96166
-4.17211
-4.52593
0.789364
0.205748
0.44296
-1.55033
-1.43967
3.03202
3.32022
3.38691
-1.17164
0.680131
-3.40355
4.86599
-1.00238
-0.0195328
3.68101
0.445547
4.07707
-2.48705
-4.66663
-2.149
1.94838
-1.46549
0.827594
-2.71822
-0.249945
4.35322
1.33193
2.7318
-3.20835
3.05624
3.32941
5.85845
0.115548
-1.03027
-0.0149279
0.737402
-0.452032
-1.94571
6.68452
-2.19091
2.47156
2.0849
-1.3308
0.909662
-0.93348
-0.102206
-2.96664
-0.697141
-1.43201
3.14308
-2.18055
0.150387
1.38555
4.25495
-1.31297
0.871164
-3.05396
-0.711049
0.721105
-0.594139
-1.49507
-5.29566
-0.177843
-2.44067
-1.20142
-2.87364
-4.87215
2.49521
-0.547989
-3.03369
0.133789
-1.02314
3.10348
-0.0324494
-2.11112
1.01566
-3.45719
-9.63584
-0.648852
-3.89741
-0.212946
-0.552337
-0.406557
0.331125
-0.606232
0.241742
0.877913
0.79493
-1.89411
-0.403281
1.4413
-1.40806
-0.477956
1.5788
1.42046
-1.23041
-0.895454
-3.56925
1.44376
0.695374
-3.96606
-2.8902
-1.29646
-2.66745
-2.34086
0.154873
-0.901476
1.62737
-0.41818
-1.51353
0.972183
2.35168
5.19096
6.05492
-1.05162
-0.63097
-0.86373
-1.82292
-0.765431
-3.6252
-1.25292
-2.60622
-3.67454
-1.04927
-1.47457
-3.29653
1.85305
-0.294412
-1.60181
0.115571
1.59903
2.63369
0.835436
-0.0531045
0.125311
-1.00273
-1.0166
0.893744
-2.52322
1.89565
-2.21882
-0.479869
2.78231
-0.259446
1.92224
1.60999
1.31584
0.0759301
0.950124
-0.294543
2.01181
0.415878
-0.080455
2.95373
0.208897
4.31684
-2.77537
-1.49103
2.69757
-0.961439
-0.372391
-0.987465
-3.33977
-1.89782
3.96908
-2.06039
-0.665015
-2.08915
-1.03991
0.900142
7.85318
3.9128
2.66587
-3.16151
-4.33701
0.440265
-2.04489
-5.03429
-0.13536
-3.11558
0.866192
3.40304
2.07295
-0.326517
-1.94272
-1.97636
-0.759466
-1.41376
-0.0351301
-0.000242835
-1.16909
1.72107
1.82931
-3.31665
-0.345807
-0.293293
-2.99793
2.04498
-2.55061
0.361136
1.6397
3.36337
-2.41133
-2.31226
1.81448
0.445773
-0.164398
-2.31141
-1.18567
-0.250634
2.88142
-1.04931
3.82802
-2.36166
-1.26691
-4.08957
-1.77858
-2.62113
-6.17864
-4.735
-2.25787
-6.189
-4.91104
-8.56742
-6.8217
-2.58501
-3.88155
-2.38512
0.0288944
0.111102
2.35175
-3.7692
2.51124
-1.54996
-2.10177
-3.44573
-3.48943
0.214755
-5.4051
-3.39031
0.650902
0.621652
-2.96417
-4.18472
-2.67262
0.440134
-0.720419
-3.96914
-2.36501
-0.18526
0.431026
0.828888
2.60242
-3.80991
-0.275911
1.90558
1.27043
-2.58377
-1.77666
-0.846255
-2.25213
0.141252
-1.43381
-1.81464
-3.23186
-3.94131
-0.89498
-5.45079
-0.132871
-3.94424
1.7594
-2.70413
3.18685
-2.43326
-2.96326
-0.638446
0.22383
-5.15135
-2.12614
-4.58587
-4.4607
-3.42428
-0.106374
-2.69679
-1.01278
1.25946
-3.98657
-6.30606
-2.01668
-0.239908
2.20038
5.98089
-1.35124
-1.92281
-0.941331
-0.617434
-3.04958
2.3284
-2.75933
-6.46402
0.144088
-5.36936
-3.08576
-7.13044
1.7708
-1.86498
-0.806702
0.242769
-1.80648
-0.885727
-1.53232
1.10517
1.59526
-2.81515
-2.82062
-2.01099
0.678556
-2.28586
3.27936
-3.25623
-0.685065
-0.861464
-2.20256
0.284276
-1.11055
1.12348
-3.33617
-0.918995
0.106552
0.143178
1.36667
3.28304
-0.641939
1.92158
1.10055
-1.78953
-1.18978
3.9581
-0.548811
1.65124
-1.11543
0.106969
-2.91378
-3.26036
-6.03123
-0.50113
-1.40116
0.878801
-0.143761
1.16017
0.14693
-0.243459
-2.17372
1.62108
1.37009
-0.506941
0.058186
2.36318
-0.236252
3.84053
2.01769
3.38525
-0.734461
2.05575
0.73618
1.33808
-0.500957
0.608137
-0.886226
0.883428
-3.31562
-1.68845
-0.229591
2.86978
-4.71848
-4.83417
-4.86958
-3.46047
-2.44984
-2.49527
-4.75165
-4.68307
-4.38706
-3.89515
-2.86235
-2.60944
-4.553
-0.804593
-1.00986
-2.05813
-1.26153
1.6206
-0.224915
-2.11166
-0.875787
-4.76991
-5.06774
-2.42396
-0.0705725
-4.97292
-0.944572
-6.4824
1.23781
-0.894796
1.27749
-0.463004
-2.8273
-0.823553
2.1011
0.694627
3.56744
0.456133
-0.623671
-1.95815
-0.278444
-4.74226
-6.46744
-3.05469
-2.04134
-0.207294
-0.675882
-5.06953
-4.97204
-5.06544
-3.85477
-2.23474
-0.501747
-4.10282
-1.37016
-1.34066
-2.0109
-4.71086
2.46001
-2.48595
-4.96798
-3.04524
0.645561
-1.34282
-2.81027
-1.37752
-3.67502
-1.38803
-1.88355
-4.41211
-2.29058
1.72427
-5.5307
-4.88417
-0.526473
-4.94824
-4.65524
3.89582
-1.69724
1.91392
0.385173
0.334571
-2.20214
-2.44518
0.422323
-0.305505
-3.25419
-4.62908
-0.261743
-1.17669
-0.0902105
-1.78054
-0.361547
-0.298035
-3.38624
0.25081
-0.507775
1.27928
2.99255
0.556985
-3.56035
-2.88256
1.61482
-5.09517
-4.92621
-0.511962
-2.6799
-0.0152233
-4.23455
-1.38873
-0.470406
-4.44813
2.45065
-2.25492
-3.6787
-5.27085
-0.857183
-0.820146
-2.92873
-0.355478
2.72126
-2.98056
-3.30402
-2.9812
-4.6302
-0.148652
-1.55485
2.35746
3.31377
-4.10664
-0.541263
-1.97942
-0.253043
-4.23528
-2.08108
0.235084
3.31385
-0.300579
1.50677
1.07468
4.21062
-1.69246
-1.58003
2.07029
0.479359
-1.80615
1.69263
-1.49913
-2.9204
-0.74294
0.185568
3.71838
1.35757
0.156123
-2.18757
1.39059
1.88251
-3.34249
1.89183
-4.77885
-3.08807
-2.96717
-5.78618
-4.88914
-4.65989
-8.26661
-5.68171
-6.10374
-7.54771
-3.39629
-6.37217
-3.19846
-8.33731
-4.62854
-3.3246
-5.06204
-2.15233
-0.139212
-0.957328
0.141278
-2.92113
-6.50521
-2.29989
-6.04017
-3.5089
-4.39461
-2.99016
-6.04999
-5.97339
-1.49818
-4.58503
-6.00154
-4.17551
-4.37425
-5.04832
-7.32165
1.61879
-5.87829
-1.58213
-2.07389
-7.19293
-0.528012
-8.5912
-3.10725
-4.77846
-5.18355
-2.45085
-8.05725
-6.59584
-6.56782
-6.17635
-6.91422
-5.03555
-2.18334
-1.79389
-4.04727
-4.80254
0.582411
0.828087
-3.13867
-0.454919
-2.50518
0.337857
-2.98402
-7.1174
-2.15905
-4.08187
-2.91079
-1.46947
0.614154
-1.6465
-4.41002
-1.92422
-2.30336
-0.567574
-1.83935
-4.07889
0.944286
-1.71682
1.35305
-5.3965
-1.72178
-0.862264
1.16247
-5.77002
-2.56093
-0.995972
0.532925
-4.87639
0.525868
-2.80598
-0.197761
-5.29323
-3.05008
0.986487
-6.47115
-4.67674
-4.5112
-1.19116
-6.13667
-4.51035
-3.59441
-0.301478
-4.81537
-3.22053
-4.99276
-0.246911
-3.71138
-2.63199
-0.773679
-1.10059
-5.06286
-5.01247
0.0408863
-1.15894
1.58774
-1.06664
-1.16921
4.96511
-4.29964
0.522619
0.612649
-3.66304
1.11136
-1.76621
-6.27025
-2.90533
-2.15637
-0.483944
-4.82055
1.57718
-1.21979
-1.92829
1.84148
-2.16244
0.00323795
2.22606
3.11406
0.589531
-0.677615
-2.35494
1.49375
1.13476
-1.03207
-3.14305
-2.54367
-3.32208
-3.3355
1.49421
-1.81312
-2.12954
0.770288
0.764303
-0.927008
3.51329
-0.233973
2.75982
-1.80126
-4.11504
-4.57511
-0.558438
-2.2402
-5.62467
-6.39446
-1.96928
-7.14167
-8.93068
-4.56296
-5.49569
-4.43491
-8.67128
-8.73414
0.288123
-5.55689
-4.63136
-6.95815
2.10054
-2.98158
-1.17319
-1.57744
-3.48676
-3.48749
-2.04964
-3.57286
-0.743682
-7.33821
-0.942758
-4.80488
-0.0423656
-0.052028
-8.86117
-0.207109
-3.50315
-0.0463289
0.282933
-0.301924
0.417714
0.0999478
-0.763731
-6.76337
1.16872
-8.7827
0.0534284
-4.83149
-3.81448
-7.65699
-8.11991
-3.95567
-0.15168
-6.29251
-0.362632
-3.91447
-4.55905
-1.23613
-3.86973
0.381553
-5.02847
-4.91009
0.148951
-2.41389
1.76488
-1.8882
-1.12593
-1.62013
-4.9483
-9.01027
-8.20849
-2.20288
-5.53061
0.182758
-0.697404
-6.15254
-2.60104
-2.22752
-0.692239
-0.981172
1.13813
-4.20038
0.440725
-4.84226
0.669674
-4.4788
-6.38261
-2.24839
-3.57939
-3.32694
-1.26555
-3.85512
0.510473
-3.24543
1.66934
-3.19149
0.934392
-0.247821
0.350346
1.40101
-0.248764
0.584999
1.36382
-3.38221
1.34262
-2.55104
-5.16316
-5.03843
1.8821
-5.93004
-2.33747
-2.35799
-0.847747
-4.53299
2.82481
-0.155829
-3.03535
-3.51628
-3.91396
-2.14493
-0.710889
0.657713
-2.838
-0.156087
-4.87471
-2.89803
-1.39518
-4.60858
-3.69091
-6.38307
-1.62552
-0.523321
1.08245
-1.61361
0.412708
1.46665
-1.75907
-1.81795
0.918627
0.323897
3.65085
-3.94879
1.81404
-2.90724
-0.450039
-3.69749
0.119906
-2.72244
-0.392686
1.58559
-3.58987
2.54767
-4.53629
1.12807
-0.755914
-0.406683
2.06712
-1.57531
-2.25775
1.46773
3.64862
-2.43828
1.98345
-3.73704
-1.96605
-5.91654
-2.00371
-6.03432
-4.59704
-5.7896
-8.27325
-5.66661
-4.99127
-5.8953
-8.10815
-4.93704
-4.85767
-0.464663
-5.7794
0.710977
-2.06169
-4.82372
-1.80205
-0.973656
-4.1665
-1.32676
-5.97983
-3.66491
-8.11505
-3.53476
-3.32877
-4.71386
-4.2902
-5.37614
-3.94094
-3.60397
-5.94679
-3.02051
-2.03881
-0.564246
-5.34069
-0.456556
-0.235924
0.665353
-0.795575
-7.61161
-3.10797
4.51837
-4.07028
-2.85006
-6.09029
-4.55777
-4.83863
0.115731
-3.83755
-1.50585
-3.57491
2.66506
0.860338
-2.70916
-3.21772
2.33649
2.78638
-0.621385
1.30482
-2.21679
2.15155
-4.77055
-1.52387
-5.45064
-3.68754
-2.98163
-3.44336
-4.86244
-1.48512
-6.37895
-1.25493
-0.682962
-3.22644
1.06633
-1.44243
0.360833
-1.86377
0.431484
-0.227819
-5.89168
-1.23695
-3.54006
-6.12749
-3.09353
-2.14347
-3.88291
-7.52136
-2.10845
-1.50422
-2.61326
-6.34717
-0.880406
-3.89932
3.42748
-0.0449686
-3.44546
0.838096
-0.268111
1.36947
-2.17673
1.18774
-2.37179
-4.4254
1.32247
-2.42747
-5.25449
-2.87869
-0.231457
-1.04783
0.780114
-2.70582
-1.49421
-0.327023
-3.71302
-1.2833
-3.38934
3.52239
-4.39637
-1.64454
-1.09059
1.30521
0.556479
3.03683
2.66956
-6.73
0.321156
0.709074
-0.0589536
-1.82532
1.37328
1.93959
3.15055
-3.14381
-1.62008
3.02849
-1.94927
-4.52345
-0.751275
-1.84448
-1.30082
2.39268
2.07774
0.010197
1.22901
4.03291
2.95149
2.61033
1.65383
-2.04323
-3.62694
-2.29616
-5.54758
-3.16304
0.571585
-2.97825
1.08765
0.392227
-2.00306
-0.913146
-1.0236
-3.49169
-5.83892
-7.01245
-8.22694
-6.64421
-2.87678
-6.86391
-11.4527
-8.71545
-5.72637
-9.06809
-7.65806
-4.61687
-2.69194
-4.6064
-2.80923
-2.86228
-0.20928
-6.78702
-0.622906
-1.71433
-3.46599
-0.305612
-7.41556
-1.47281
-9.05861
-1.20864
-0.984537
-5.12118
-1.30069
-5.28164
-0.301098
-3.91069
-0.14317
-3.26887
-1.14991
-1.16094
-0.786688
-3.02108
-2.19558
-3.41698
-5.3559
-5.78911
-2.93797
-7.12184
-3.47243
-5.46474
-10.9171
-3.77606
-3.00262
-5.31095
-3.02901
-3.02949
-1.67903
-2.52134
1.87345
-4.18357
-1.28401
-3.4388
-1.23028
-4.9571
0.233172
-1.85832
-4.45764
-6.24601
-6.23951
2.08547
-4.59657
2.66955
-1.63764
-5.09968
-1.98287
0.185636
-6.0679
-2.43413
-0.189942
0.719447
-1.1575
2.22706
-1.97057
-5.30756
-0.317948
-7.68936
-2.11131
-0.781776
-8.94143
-1.69811
-0.829101
-1.18755
-2.36276
0.0682426
2.20356
-6.01477
-0.230459
-0.124712
1.98184
-1.54766
2.32693
-2.66709
-4.98425
0.813592
-5.04368
-5.12235
-7.48297
-1.55955
-4.36789
-9.1682
-3.67189
-1.59178
-6.73498
-2.58109
-1.55611
3.92679
0.498695
-0.450983
1.31364
-0.322954
1.64112
-1.48829
-2.53698
-2.43774
-1.37748
-1.76469
-1.16435
-0.565162
-2.41747
1.79899
0.774137
-3.83443
-1.3831
-1.62589
-1.41827
1.43114
-0.518974
-0.965821
3.2864
2.15699
-1.17359
3.75211
-2.61325
-2.40164
3.52856
-0.882119
0.409528
-0.232599
-0.493011
-1.58557
3.43087
-1.54339
-0.0755344
2.22123
-1.24669
2.41545
-4.03975
-0.10722
-2.56642
1.29509
-3.5152
-3.8229
-4.41292
-3.69685
-5.5447
-3.00876
-5.19369
-7.83181
1.33086
-7.70206
-5.60553
-3.93164
-6.73365
-4.52332
-3.53004
-5.80737
-0.36665
-0.541635
1.06304
4.95963
1.09885
-0.39754
-7.71437
-4.34874
-6.03023
-0.707989
-2.25385
-0.694506
-2.17244
-0.525815
0.0268713
-4.15002
-0.467713
-5.22234
0.288514
-5.03526
0.714034
-3.40138
0.973204
0.74796
-0.437763
-0.743751
-0.625567
-4.63548
-3.97495
-6.70203
-5.04614
-6.07992
-0.38566
-3.08769
-0.292195
0.263101
-5.27186
-3.96956
-4.71151
2.14448
-1.73333
-1.91366
1.56067
-1.03166
-2.50647
-3.44595
0.454861
-4.14087
-4.10128
-2.56273
-1.56695
1.12085
-1.39531
-0.894213
-2.30496
-0.119605
-1.38058
-2.43262
-0.213198
-4.55921
-4.1755
-3.89925
-0.72338
-1.64717
0.462051
-2.83481
-4.3979
-0.714021
-1.28322
-4.24764
2.6152
-5.6592
0.159681
-5.57048
-3.49126
-3.02423
-4.05493
-3.85311
-1.00083
-2.37625
1.29323
-3.13602
-2.43919
-0.976824
0.61581
-2.3057
0.131244
-2.86385
-2.09799
-3.36462
-0.100688
-1.15197
-2.64707
-1.50003
-1.88168
-0.414801
2.16911
-0.41074
0.137027
-1.31405
0.111416
-0.977298
1.26207
-0.712895
0.0425878
-1.45001
2.02882
2.22078
-2.32833
4.66364
-3.65315
-3.06789
-0.060258
-3.21748
-1.17962
-3.81855
-3.01935
-2.43439
2.45519
-2.21845
1.61154
2.58342
4.03897
-1.64663
-1.98797
-0.448661
-1.88389
1.69662
-1.24245
-0.0217554
-5.664
1.04335
-0.976102
-1.92613
-3.27594
-0.0499101
-1.66527
-2.25482
1.07289
0.7042
0.959284
-0.514485
0.382407
-1.66837
-1.1178
0.507349
2.45122
-5.14405
-8.32215
-2.62107
-6.00407
-3.28712
-9.19962
-5.96335
-5.68551
-4.82086
-1.13873
-7.72927
-6.39425
2.10882
-1.47991
1.63389
1.28376
1.72837
-3.67654
0.688719
-2.79362
-2.73071
-9.25786
-4.14664
-6.12432
-4.50186
-3.61066
-7.67246
-6.40688
-5.93628
-1.22371
-3.48581
0.767881
-1.77318
-4.85755
-1.24463
-1.25903
-1.04211
0.684225
-4.42163
-2.79714
-0.926803
-3.18977
0.0739365
-5.23461
-0.233059
-5.57311
-0.81016
-2.30486
-2.85646
-4.07137
-4.45784
0.92929
-5.04008
-1.70853
-2.92113
-0.241555
-2.25903
-2.6237
1.44059
0.688255
-1.76402
-3.93956
-3.35477
-5.29366
-7.37485
-3.35514
-6.84498
-0.680445
-5.77226
-3.26938
-2.27013
-5.61872
-1.61226
-0.566879
-2.08692
2.77429
-0.957909
1.26162
-2.40926
-2.29937
-1.1972
-3.65141
-5.43183
0.9315
-6.99425
-0.816807
-6.0559
-3.29822
-3.53257
-0.112027
-1.25352
-5.201
2.29296
-3.20853
-1.45619
-2.90576
2.41571
1.20622
-1.91366
0.437231
2.35889
-2.85502
-4.05843
-1.14508
-5.78351
-3.64878
3.34765
-1.51936
-2.15315
-4.67848
-2.24568
-1.64668
5.22841
-1.0751
2.20136
-4.10181
4.05564
-5.38392
5.33881
-1.79167
-1.007
-2.35124
-4.32618
-1.08856
-0.584863
-4.9341
-0.561335
-4.19706
-3.4237
1.36108
2.65025
-1.30889
-0.641755
-0.0330507
1.64178
0.130675
-3.54914
-1.27493
0.517522
0.210476
2.23095
0.533861
1.1178
-1.6927
-0.615867
1.63367
-0.906074
0.162912
-3.75381
-0.601558
2.22394
0.307815
-4.26767
-2.41399
-1.3505
-0.406195
0.429606
3.65311
-4.07818
-1.3018
-1.5488
-4.92382
-4.76065
-3.90237
-1.61326
-0.562231
-4.46689
-4.36816
-4.11988
-0.34408
-6.79125
-1.64326
-1.63443
2.79278
-1.31377
0.279746
0.648589
1.16003
-3.3272
-4.6849
2.37769
-6.37454
0.158326
-5.38686
-1.06316
-2.03138
0.0368039
-0.162761
-3.70543
0.619135
1.56511
-0.328867
-2.84838
0.0946433
2.78829
0.367487
2.47577
1.79935
-0.616374
-0.887001
-0.99469
-0.323425
-1.61517
-3.60452
-0.981381
-1.49313
-2.80105
-2.46718
-4.56861
-0.350299
0.509138
-1.38205
-1.19346
1.45086
-1.04176
4.16812
5.14555
-1.9902
2.22187
-4.97006
-1.06
-4.95573
0.416922
-4.00166
-2.41435
-4.7538
-4.72387
-3.65092
-4.83026
-0.17053
1.55944
-1.37116
-1.64212
1.38605
-2.93937
5.68399
3.77598
-2.00556
-2.30619
0.532248
1.44585
-1.55668
0.788276
-5.39163
-4.95037
-4.35744
-1.83389
-3.00313
-0.514473
-3.08118
3.26814
-1.06648
1.05424
1.25959
4.02149
-1.48612
3.34825
-0.183342
3.04068
0.0757204
-0.900686
-1.28011
-1.15175
-2.59666
-5.95222
0.447632
-2.64911
-0.497707
0.325175
-2.10202
-1.44423
-0.299828
-0.692717
2.22837
4.26031
0.786293
2.29726
1.59048
0.0780166
-0.0356453
0.817344
0.52978
0.272098
-0.114577
-4.61859
-3.86126
-1.65004
1.23909
-2.60544
-5.91414
-1.33572
2.44976
2.21761
-0.903979
2.12935
-0.570417
-6.1443
-2.6832
-0.751637
0.0234092
-1.90326
1.06569
1.04567
-0.0591984
0.785492
-0.264891
-2.24619
-2.54293
2.01254
-0.371087
0.768318
-2.98442
-1.41649
1.40047
-2.7514
3.88542
1.5971
-2.1277
0.306973
2.78522
-1.12316
-2.94277
0.245847
-5.84132
-2.831
-5.91254
-2.50166
0.565711
-2.02517
-2.12126
-1.86825
-0.0644807
-0.528581
-0.612643
1.11365
0.858013
5.89133
-1.84703
-2.87243
0.177741
3.86914
-2.42963
0.349804
0.0953773
-2.20058
-1.69508
-1.57785
-5.19243
-5.07043
-3.89186
2.68486
-1.65525
-1.23304
-2.30974
0.184546
3.12372
1.04297
2.41345
-0.293097
1.49436
-6.04111
0.653469
-2.68053
-4.62082
-0.261591
-4.17024
-2.54137
-1.89947
0.605392
0.91388
1.48104
1.26702
1.15879
0.384083
1.51598
-1.56801
4.35
-4.14832
1.98647
3.17578
-3.88855
-3.06436
1.3447
3.19781
1.40619
-7.82891
-1.74861
-2.44076
-1.80029
-1.54857
-0.154734
1.51783
2.17745
0.23825
4.11382
0.440671
0.50396
3.31702
-0.390065
0.920913
-2.40522
1.28994
-1.77193
-1.23912
-3.34151
-0.574428
-3.23194
-0.847292
-1.06649
-3.52874
-3.49781
-0.546006
-3.37678
-2.51614
0.494517
1.34339
-0.461744
1.87831
-4.22247
-0.0438394
0.251339
0.846613
-3.30671
3.00358
-0.138967
-3.19628
2.54858
1.14727
0.319818
0.725279
-2.75525
-8.32602
0.204749
0.969329
-3.27264
-1.83589
3.59691
-0.0214682
2.54386
2.84372
-1.37192
0.234273
0.874346
-2.13458
-4.12166
-1.80705
-0.0628899
1.81202
-1.4638
-0.920012
0.145364
0.0511208
-4.76895
-2.90342
6.47539
2.40042
-2.64182
-2.65524
-0.737656
4.16213
-1.47241
-2.29641
1.82337
0.975872
1.57275
-0.343726
-3.37798
1.73525
1.74111
0.054347
5.77079
-0.79509
2.24176
1.78798
2.41469
2.02084
1.06361
-3.71586
3.06503
-2.69036
-2.04834
-2.40184
-1.08907
-0.962524
-3.94132
-5.34049
-1.95877
0.70324
-5.03905
3.4826
-0.363012
0.102224
1.41871
-1.60963
3.3262
4.87169
7.58356
4.07727
0.813204
1.51158
-0.166963
-1.51282
-0.70587
-4.42969
-0.00819937
-1.88445
0.494139
-0.23934
-0.94154
0.197972
1.80079
-0.224293
1.07135
0.217478
3.02497
-0.799958
4.54177
2.29269
2.03463
5.02365
-1.67172
-0.995679
1.41342
-0.808888
-0.161053
0.849529
-5.51957
-1.49251
-1.33523
-8.60018
2.94396
-1.17027
4.66489
-0.259566
-1.55296
1.09887
8.45907
2.95988
0.321444
0.961859
0.384452
4.8512
-0.584029
1.06415
-0.0331977
-4.91408
-3.28246
-2.59608
0.430061
-1.22934
-0.555358
-0.200748
0.132897
1.32905
4.04052
2.88034
0.577676
3.04687
-3.66755
-0.648424
3.48225
-4.66739
-2.3227
-3.20381
1.60871
0.544845
0.429049
-4.54214
0.738768
3.07709
-0.858098
-1.04972
-0.041511
1.28075
0.338773
1.83397
-2.83916
2.41593
-1.65438
3.40742
-1.33484
0.666026
0.139188
-2.21448
-0.47899
-4.29439
-1.4992
-3.00049
-4.00771
2.80601
-1.28156
2.64311
3.19273
-2.72334
1.9064
2.096
7.75786
1.10711
-0.319278
4.02518
5.78481
-2.62324
1.549
1.09382
-0.97274
0.0788716
-4.76719
2.47347
-0.867729
0.319654
-1.78371
2.89552
1.88732
2.31006
0.219996
1.24656
1.80835
-3.18561
-0.797448
-5.89123
-2.4468
2.91787
1.80251
2.39761
-0.167023
2.72179
2.28748
-1.51881
1.50797
-4.44741
2.64084
6.14481
6.08487
3.29787
-3.2389
1.13898
1.66888
3.85646
7.79654
6.82451
2.69327
0.632957
0.118565
-0.937213
0.379607
1.47005
-5.27339
-2.4701
2.90367
-1.21471
-1.98694
0.464099
1.39371
0.476752
6.90407
9.81016
6.83304
2.98364
2.63233
1.68827
2.36498
0.543245
1.03799
2.08553
-0.618879
-1.27895
-0.28516
1.14676
-1.90123
-2.54293
2.77459
0.684537
6.70116
-1.70545
5.5415
-0.402871
7.99065
3.20343
3.80577
5.99043
-1.27569
0.490833
-0.24155
-1.00229
-1.9381
-1.99451
-0.793437
-1.44619
-2.49242
0.672775
1.46827
-0.186908
4.14542
1.41691
4.36825
6.91764
5.94997
3.62827
3.57155
3.46776
3.71557
2.25138
-0.369672
0.0279028
1.39202
-2.11732
-3.91114
-4.98603
-2.7517
0.394944
-1.5203
1.01923
-0.489794
2.20161
1.88555
6.39636
5.39968
-2.59577
-0.302002
1.97897
0.692956
2.23794
1.97148
-0.544159
3.0559
2.28583
-0.536697
-1.57861
-2.39498
-0.72652
-2.64855
-2.30295
0.360768
0.705488
4.28849
2.11834
4.323
0.254532
-0.376133
4.31324
-1.98394
3.88611
-2.53659
-2.60171
1.34635
1.17335
-1.25255
2.69557
-0.0981181
-4.1559
-2.92412
-1.26833
-1.26039
0.332654
-0.969113
3.18724
1.37241
0.988922
-1.0251
-2.84356
1.69257
-0.127069
1.41228
-2.41353
1.89338
0.986076
0.0232367
2.21917
1.30089
4.147
-0.0720597
4.90626
2.87786
-3.79149
0.591113
1.4721
0.282914
5.00026
1.26696
1.94242
-1.78173
-3.2492
-2.59708
-0.373996
-2.60682
-1.72523
-0.55086
0.826721
1.01828
-1.01567
2.08967
-1.15366
-2.67184
3.82478
-0.247101
-1.15393
3.75271
5.55868
5.2274
5.25508
2.32152
8.51228
6.25947
-1.5852
1.79566
-0.342763
2.63136
2.93699
1.89042
2.06788
4.95051
6.95568
5.00039
8.7513
7.01401
10.1613
11.7135
7.50415
-3.4826
10.1633
-0.147922
0.529197
-0.530042
1.27116
-0.205907
3.03594
1.34976
0.845996
3.42066
0.155082
6.58552
0.275878
6.37796
-0.576172
10.4545
0.702242
6.85301
8.73482
3.37511
3.06143
1.66541
3.72039
4.62493
0.538807
3.8957
4.63974
-2.97639
1.52457
-1.03739
1.2441
-0.0454426
3.93798
3.24425
1.4956
4.51639
6.2558
4.13987
1.19189
-2.35368
1.27886
4.78989
1.38545
0.373211
2.98964
-1.45276
1.84779
1.20876
1.78554
-2.10491
2.80562
0.621518
3.92464
1.96378
4.6642
4.71549
6.89061
5.10746
1.38551
1.53031
3.99563
4.80401
-1.48263
-4.36425
-1.18874
3.36852
-2.13145
-1.02294
-1.4062
2.26985
4.39455
0.879139
2.43154
4.00856
3.45384
3.96504
5.42943
8.65603
4.21117
-1.08906
2.44738
1.74692
0.110786
1.73227
2.87765
1.85639
0.486426
-2.82753
-4.41889
-0.902736
2.5911
0.979999
2.67375
2.08171
4.83311
5.09507
1.58641
1.43456
-3.28401
-3.40982
2.12076
5.54775
3.10005
0.39289
2.78244
-1.20174
1.15654
-2.77527
1.74843
-2.07137
0.704266
-1.39717
1.6303
1.8532
-3.73418
-0.0390101
-0.23352
1.53894
1.39936
5.25306
5.9249
-0.957274
0.623814
-2.20909
-0.398377
1.53812
-1.89579
-1.36911
-3.85626
-1.1725
-0.314936
-3.0858
2.35767
-0.42338
0.440891
-2.26714
-2.78911
1.68563
9.3153
6.45707
10.4036
4.95767
1.37231
3.1039
7.12607
4.46609
3.87318
3.34955
3.25649
6.98662
-0.602449
4.19
1.57571
6.02027
13.0698
12.6682
9.29018
10.6837
10.0964
6.38034
4.22785
2.62322
6.95374
4.28305
2.40646
-0.5084
2.61573
2.58284
2.58714
1.73874
1.55683
4.56397
4.99854
7.54508
5.53795
8.04124
10.4815
8.20626
7.50214
6.95532
4.5303
5.57621
4.09696
5.55255
4.31025
4.94007
0.669237
-0.0332802
2.0715
1.43981
0.947934
2.53513
4.29768
4.63126
4.52451
8.52402
9.34611
6.27991
4.10701
8.14129
3.83176
7.25152
8.09071
0.319716
0.0661244
3.61856
-1.26522
4.4335
2.47534
3.73329
1.56248
0.953259
2.73756
4.7032
5.68913
4.34871
6.62728
3.33932
2.14943
3.37646
4.02177
1.87394
4.28055
2.79496
3.4675
1.39793
-1.45717
4.36946
0.267168
0.134641
4.34857
4.90758
2.98176
4.29685
0.821932
6.77371
3.79289
6.04823
2.38311
4.81321
3.30633
4.99724
2.85778
3.54708
1.84512
3.67032
-0.109427
0.898712
3.22784
1.29024
-0.505691
3.66497
4.26589
2.26287
0.999944
2.9005
2.92881
6.01519
-0.317639
8.84962
0.972268
-1.87645
2.70345
2.3735
2.92186
-4.2755
-0.559793
0.0102441
1.77948
-1.48456
3.93686
4.86273
2.03743
-0.373069
1.11473
1.57867
-3.11371
3.89382
0.392716
-1.92065
1.60491
3.37823
1.50086
1.23497
-0.235048
-1.32308
-0.495578
0.968335
-2.13343
4.04923
1.6072
-0.893605
-0.353952
-1.4484
-1.19602
-1.10976
2.61114
5.2868
12.9926
14.67
7.79821
10.6063
9.33266
5.71227
8.55975
3.42409
11.351
6.2137
6.07777
5.71643
9.74561
2.62708
9.11639
5.85745
9.1133
13.6568
14.8353
15.4274
11.0306
1.68875
11.764
0.537633
8.99192
-0.656978
5.31561
0.796805
4.63725
-0.00367022
0.424827
4.80788
0.305786
8.76359
0.839837
13.1238
1.96839
11.6198
-0.456031
11.2981
10.3007
9.40193
11.9479
6.86863
1.75943
5.07683
-1.18258
7.09853
4.80267
5.81638
4.23447
3.74218
8.84939
7.56321
4.10113
7.75482
4.79904
5.37245
9.11618
13.1673
7.99907
6.90989
7.26347
5.18378
-0.51586
3.56953
2.67278
8.80261
5.14293
4.33995
6.85163
11.9797
2.67279
2.21556
3.09488
5.34622
7.37918
4.21861
8.96944
7.09394
6.51066
3.76864
2.0944
6.29992
2.99878
7.58711
1.28257
-0.307658
-1.5888
7.15378
3.7678
3.03932
1.96755
2.92866
2.37593
6.16498
6.09888
2.27748
6.12319
7.53109
7.15991
1.1304
-1.00239
5.1159
0.672342
4.1057
4.50966
-2.91454
1.76466
1.16266
-2.54286
2.88033
1.73772
2.10675
-0.580269
6.75614
2.9986
3.29766
3.28383
3.1201
4.08666
4.11843
1.10759
2.57732
-1.80403
3.20818
1.90169
-0.100967
0.143908
2.1927
2.96747
2.44036
-0.110987
1.81766
4.48538
0.901894
1.61478
2.50154
-2.03666
2.83529
2.83152
0.125036
2.36073
2.10969
-0.792804
0.477735
0.882578
-0.96743
-2.72066
-0.619816
-1.91389
-2.84557
-0.586314
-0.864888
-1.42514
3.07461
1.06184
-1.87451
-0.116159
-0.898078
17.3761
14.7493
11.2976
15.5348
12.7135
15.6854
13.4274
10.0339
9.43488
6.74348
5.26349
5.37888
8.51176
11.819
12.5044
9.52456
11.862
13.4579
16.6997
16.3092
10.4058
10.0599
9.0016
10.9306
6.80846
8.72626
7.16198
6.08968
7.9406
7.10514
10.2378
6.25334
9.98181
5.70915
10.5524
14.0784
7.3842
11.1707
10.7251
13.5224
10.9256
12.2287
6.59657
6.06544
8.28903
3.5593
8.17056
5.34792
9.10736
2.21568
3.8216
2.86307
7.0357
8.28589
5.77073
7.64997
8.24605
12.09
9.73769
11.9766
6.15337
6.69782
10.3381
3.44876
10.089
6.00105
2.63994
1.75384
4.21455
7.10708
6.07298
1.4276
3.15346
4.84955
8.04484
3.46736
11.2024
13.6329
9.29952
12.0409
9.50664
4.1294
9.26921
5.28223
2.35681
5.29144
0.99268
4.58845
5.66186
3.08241
3.21039
4.02813
6.653
7.09336
2.36124
7.60547
1.75663
7.79924
9.02359
11.1059
2.04069
5.95731
1.09972
3.42507
0.786125
2.30689
4.1834
-0.968365
0.59287
1.53412
1.91994
-1.83235
3.56956
5.04362
6.79147
4.03914
7.68466
6.96949
0.749631
2.11037
3.72742
1.46063
5.43883
0.69202
3.61626
-1.15782
2.37313
3.9287
0.62723
2.8537
-0.0261326
1.08473
-0.10174
2.06479
1.01653
4.6094
5.27401
6.21794
6.39384
1.47187
-2.87265
-0.0868085
3.26703
-0.689893
4.42248
1.36804
-1.10839
2.3692
6.62539
-0.000458827
3.36908
0.874897
2.61251
0.292234
0.907267
1.33035
3.73647
-1.95471
1.50973
-0.551834
)
;

boundaryField
{
    hotSide
    {
        type            calculated;
        value           nonuniform List<scalar> 
400
(
0.421359
3.04943
-0.0381262
5.04832
-1.55531
3.69239
-3.93669
-3.71007
-2.84579
-1.08223
-2.56143
-0.127678
4.683
-1.0546
-2.59611
5.02632
6.78211
10.5958
14.3336
18.7812
2.51965
-0.540351
-0.253771
-0.514035
-0.455162
-3.89067
-2.24093
0.311323
-1.07033
0.0118767
-2.8652
1.50113
-3.04489
1.38322
4.18768
8.96907
6.45329
7.73982
16.0131
16.1563
3.24544
-0.0329352
0.793218
1.67609
-3.27202
-4.0008
-2.11474
-1.36543
-5.01612
-0.0941746
-3.45112
3.4488
-0.265
3.86469
-1.56475
7.99975
6.48345
11.6887
9.14337
12.7064
1.54415
0.71055
-3.11924
-2.24272
-0.95495
-4.0304
-4.92824
-4.7447
-1.09844
-2.55775
-2.73087
-4.14262
-0.508468
-0.0404666
-0.919783
3.87119
3.55233
6.24489
11.9535
16.9455
-1.50019
1.09046
-4.25299
0.106661
-1.7913
-2.61539
-4.02562
-5.50928
-5.12418
-4.9005
-4.5746
-7.31694
-3.88004
-1.85694
-1.27045
1.81345
9.74542
2.66163
10.6817
14.1258
-0.471964
2.97228
-2.10417
1.54515
-5.34274
-1.59901
-3.79098
-1.07907
-3.68225
-6.06975
-2.03474
-1.6123
-3.71364
1.3346
0.0449594
1.30143
7.49474
4.39514
7.06306
17.0993