/*--------------------------------*- C++ -*----------------------------------*\
| =========                 |                                                 |
| \\      /  F ield         | OpenFOAM: The Open Source CFD Toolbox           |
|  \\    /   O peration     | Version:  2212                                  |
|   \\  /    A nd           | Website:  www.openfoam.com                      |
|    \\/     M anipulation  |                                                 |
\*---------------------------------------------------------------------------*/
FoamFile
{
    version     2.0;
    format      ascii;
    arch        "LSB;label=32;scalar=64";
    class       volScalarField;
    location    "0";
    object      stateMean;
}
// * * * * * * * * * * * * * * * * * * * * * * * * * * * * * * * * * * * * * //

dimensions      [0 0 0 1 0 0 0];

internalField   nonuniform List<scalar> 
3200
(
343.251
341.398
340.986
343.028
346.424
345.74
346.589
346.13
344.034
345.28
343.995
339.342
345.026
343.938
343.068
340.731
345.852
340.125
339.72
335.779
338.863
337.261
336.556
338.016
338.642
339.089
339.667
338.743
338.442
337.808
338.167
337.538
343.945
337.006
334.534
340.661
336.561
336.211
331.015
333.818
329.563
331.385
328.148
330.774
330.982
336.169
333.907
334.091
336.819
335.692
332.95
330.99
332.987
333.416
329.445
334.999
334.651
329.535
327.734
329.935
325.737
326.305
324.602
322.836
328.353
329.753
327.012
325.985
331.26
324.867
325.279
325.888
326.784
328.374
324.743
325.166
323.41
317.957
320.158
317.171
317.442
322.038
320.832
320.738
323.119
319.794
324.66
318.382
323.2
319.757
322.852
320.892
321.947
321.697
319.494
319.812
319.905
319.251
316.486
317.211
314.35
315.071
311.544
312.924
317.059
321.109
318.036
316.333
313.042
312.875
312.63
317.796
312.453
312.141
313.875
314.552
314.761
311.601
315.277
312.287
309.697
308.893
307.945
309.392
309.663
306.918
308.37
311.528
306.707
309.442
311.09
312.447
309.125
311.199
310.697
307.139
311.537
306.128
306.438
306.492
299.187
303.126
299.861
300.107
305.392
304.987
303.822
303.092
301.705
305.422
302.079
301.457
305.76
305.39
301.811
303.636
302.064
306.266
303.07
301.149
340.806
344.639
344.442
344.036
344.004
342.463
344.126
344.278
342.189
346.274
341.918
344.704
338.913
341.941
344.624
343.353
345.019
337.97
339.008
340.895
338.434
342.843
339.838
336.762
340.491
339.123
338.283
339.538
338.24
339.181
340.037
335.902
339.477
339.151
338.556
338.525
338.246
334.067
337.481
337.506
330.703
332.19
332.674
331.375
332.009
333.741
331.252
335.117
338.175
334.914
333.052
335.641
331.234
333.063
334.594
331.735
331.492
332.842
329.322
329.693
325.232
326.416
322.761
329.757
325.747
327.444
330.171
326.32
327.789
326.774
324.672
327.137
328.211
331.27
330.581
325.849
324.185
324.746
320.56
322.599
322.722
317.005
317.857
320.931
320.082
323.874
321.247
323.393
321.14
325.517
323.93
321.191
324.233
321.589
318.894
321.999
319.118
320.459
319.209
320.298
315.365
315.305
312.567
312.937
314.546
314.28
314.155
313.505
315.198
316.273
313.816
315.545
313.772
318.161
319.457
317.126
313.941
315.533
314.035
310.747
308.832
310.705
309.724
310.139
308.568
312.647
311.221
310.807
307.61
309.572
307.861
304.825
308.434
308.709
310.125
311.006
305.202
308.525
307.008
310.191
301.806
306.585
301.339
301.747
303.879
304.985
304.028
306.287
301.465
300.113
299.108
302.065
303.071
302.832
300.95
303.523
301.938
303.082
303.491
303.034
344.259
344.714
343.972
348.216
349.691
347.875
346.299
347.634
347.483
348.714
342.858
346.736
350.915
348.344
350.899
342.387
343.976
340.706
343.64
340.156
338.218
339.73
341.145
342.057
341.308
340.022
339.571
344.986
345.079
338.464
339.592
340.149
340.438
340.755
336.972
342.274
337.411
333.199
334.939
336.168
326.599
334.997
333.483
336.892
331.719
335.872
336.947
334.848
334.832
336.913
340.603
331.695
334.407
334.404
335.167
332.968
336.158
331.779
330.851
327.187
320.905
324.297
326.886
328.869
328.09
325.679
326.306
329.544
330.509
330.233
330.021
328.869
328.257
327.559
328.906
328.86
325.734
325.097
323.947
326.938
321.161
322.445
320.441
321.987
318.464
321.05
318.304
322.008
324.218
321.311
318.71
319.953
323.86
321.417
321.635
320.863
321.555
321.932
318.597
318.772
317.764
313.047
312.244
317.161
313.057
319.3
319.753
314.522
315.166
314.961
316.954
316.812
312.279
311.907
311.741
316.191
314.229
318.205
309.837
315.633
308.815
305.157
308.451
304.884
311.515
313.76
311.302
307.255
310.704
308.431
311.977
309.489
304.85
307.821
306.361
312.236
305.905
305.568
302.98
308.679
303.979
302.979
302.246
303.457
304.973
296.364
305.26
300.614
301.013
304.436
302.195
304.031
303.188
306.036
303.746
304.459
299.862
305.164
302.814
301.563
339.721
345.518
343.626
347.867
345.848
344.733
346.339
347.484
351.463
346.438
348.701
347.368
348.863
350.617
342.959
345.685
347.847
344.363
345.228
340.873
338.249
340.522
337.646
342.393
348.852
340.139
343.639
340.166
340.659
340.595
339.857
340.713
339.711
338.864
338.695
341.11
339.339
337.221
339.819
338.695
330.835
331.155
334.016
333.913
336.824
332.042
333.004
337.843
336.897
335.371
336.742
336.348
333.722
334.6
331.859
333.673
334.532
331.814
330.223
327.223
320.519
327.755
327.507
327.929
329.082
328.213
331.246
329.02
330.479
331.604
328.978
329.348
331.064
325.768
327.742
328.861
326.949
325.277
324.069
325.739
320.757
320.679
321.941
322.102
320.341
323.905
319.621
323.849
322.192
318.974
322.015
319.79
320.02
320.201
321.306
320.285
321.38
318.926
320.388
320.784
311.858
314.673
310.661
317.858
316.681
312.597
316.353
315.845
316.518
318.902
317.46
311.562
317.533
316.057
317.384
316.23
314.183
307.125
310.969
312.146
312.066
313.283
308.563
311.111
314.165
309.329
312.367
308.434
305.932
307.281
309.681
311.278
311.276
310.01
310.608
309.166
309.066
310.172
307.225
307.075
306.303
303.346
303.312
306.038
301.017
305.634
302.741
301.478
299.767
305.547
305.448
301.316
302.672
303.266
305.394
304.248
303.291
300.138
304.049
299.158
347.059
346.186
349.291
347.285
348.438
352.3
351.133
348.89
352.99
351.801
355.457
353.623
349.217
350.28
348.506
345.788
345.395
342.849
348.688
342.186
340.393
341.133
342.72
343.027
339.592
345.475
343.7
339.861
340.036
343.699
344.92
343.331
340.072
341.03
344.039
342.172
339.723
338.843
338.202
336.241
336.754
333.376
331.399
332.258
336.34
335.755
335.027
336.603
334.333
335.973
336.354
337.706
338.292
335.076
339.429
333.889
337.472
331.546
335.804
329.757
329.441
330.097
327.939
327.259
332.82
329.977
332.603
332.617
331.681
328.416
331.007
329.27
326.897
332.004
334.157
329.686
327.723
325.101
321.153
328.359
322.966
322.08
321.886
324.46
319.227
324.455
328.289
321.789
327.38
325.138
329.182
320.24
323.798
322.632
321.453
323.361
322.296
322.801
320.034
319.448
317.869
317.943
317.226
314.637
317.705
312.241
318.868
316.374
316.606
317.977
315.49
316.856
314.566
318.948
316.439
315.312
315.173
313.848
311.839
315.696
307.127
307.989
310.935
310.396
305.31
309.878
307.733
310.545
309.357
312.395
312.741
315.495
309.931
310.785
308.45
309.412
308.046
308.998
309.333
311.223
301.414
301.678
303.574
303.029
300.745
303.364
299.306
301.144
299.788
303.913
301.123
302.437
301.824
303.648
302.52
303.994
302.204
306.383
304.736
303.265
342.729
350.531
350.917
351.245
350.132
349.41
349.718
352.195
352.285
352.072
351.58
350.464
350.052
351.776
347.765
347.682
348.433
347.345
344.192
345.824
341.738
340.683
344.81
345.361
342.974
340.87
346
342.162
347.836
340.189
342.322
340.077
341.68
343.854
341.623
338.449
339.598
336.473
339.351
340.25
335.566
334.036
338.697
340.635
337.44
336.637
334.995
335.625
340.135
340.098
340.191
338.92
337.184
335.29
338.699
335.755
335.509
335.966
338.469
331.148
330.039
332.641
330.879
327.362
329.529
331.168
329.893
332.321
330.129
330.675
333.203
331.032
326.922
334.046
333.242
328.712
332.956
332.489
323.777
329.25
319.553
321.174
321.349
324.021
324.402
321.669
322.519
325.569
327.018
322.69
323.605
322.479
324.096
322.575
322.389
325.343
321.568
322.192
320.28
318.474
314.8
318.983
318.395
313.993
320.802
320.729
316.402
318.643
316.03
320.278
317.432
316.485
320.411
313.439
318.058
319.386
320.879
316.369
316.243
318.286
309.586
306.55
312.305
312.686
312.422
314.129
309.7
311.15
307.269
306.329
313.75
310.167
311.574
309.804
313.734
311.522
309.147
306.01
309.572
307.724
302.021
298.898
304.818
304.726
301.096
302.706
305.009
301.524
304.727
306.153
303.976
303.042
299.499
301.845
303.029
305.354
301.755
301.243
306.451
301.204
351.463
349.976
350.113
353.209
352.592
352.635
356.488
354.109
354.679
356.201
352.049
354.947
351.625
356.558
352.604
351.028
352.485
349.298
347.027
347.641
340.427
343.662
347.469
343.503
347.486
345.19
346.289
345.062
348.25
348.241
343.766
346.785
348.074
346.07
346.055
346.494
348.525
339.345
346.619
342.15
336.481
341.743
335.266
343.531
338.253
340.122
340.708
338.126
343.84
342.436
342.408
341.959
342.589
340.56
337.527
336.94
338.987
339.541
333.968
333.579
331.346
328.778
330.98
328.303
331.793
336.088
331.277
333.323
332.241
330.845
328.762
330.977
333.651
331.042
331.274
329.377
330.48
332.554
327.379
329.924
320.623
327.462
323.906
323.174
321.281
328.339
325.245
323.775
322.315
327.76
322.358
325.654
322.977
327.977
325.619
321.457
328.783
326.861
326.576
323.167
321.859
320.295
319.463
316.262
320.869
319.365
321.219
316.541
320.054
319.001
317.143
317.444
321.357
321.238
316.103
317.213
314.373
316.936
316.954
310.757
313.75
308.965
308.926
313.257
308.539
311.47
316.023
312.699
311.979
310.323
314.66
308.246
311.014
311.681
307.863
311.812
309.591
307.313
306.374
308.86
303.847
305.537
301.705
302.082
304.268
306.397
305.814
306.606
306.629
301.805
305.112
305.424
302.514
302.506
304.181
299.723
303.451
300.439
304.983
307.284
352.528
348.705
350.631
354.277
355.309
351.137
356.54
358.519
354.288
355.293
354.232
358.396
358.322
349.11
354.725
353.546
355.61
346.29
351.129
349.126
343.247
345.322
345.532
344.321
346.072
343.462
350.255
344.024
348.005
343.304
343.314
352.061
343.288
346.42
342.764
342.216
342.573
341.627
341.735
342.434
342.104
334.308
344.438
335.793
340.869
340.038
344.048
344.651
340.587
336.835
342.976
336.994
340.445
340.95
337.46
339.908
335.464
340.683
340.387
335.192
331.387
327.317
331.115
330.509
331.161
334.64
338.839
338.151
332.228
335.599
329.885
330.722
336.096
332.43
331.92
330.233
330.364
328.089
333.282
328.532
327.415
321.987
327.248
329.273
325.261
326.71
326.564
324.592
327.244
322.913
326.668
321.72
326.517
322.303
323.379
322.663
321.489
323.018
322.072
321.209
319.53
314.865
318.839
321.537
321.5
314.664
322.552
319.023
319.089
317.603
321.288
313.906
316.842
319.657
320.062
320.376
318.519
316.999
315.55
318.986
309.863
314.617
312.688
311.237
314.504
313.636
316.374
311.655
310.579
308.989
311.685
309.643
308.562
311.75
311.763
308.976
309.518
306.139
313.691
307.893
306.162
303.717
306.98
303.18
306.04
303.728
301.764
306.953
300.824
307.913
302.249
304.128
303.77
301.283
304.91
305.576
301.832
299.634
305.705
301.272
353.144
351.556
355.737
352.068
356.343
355.141
356.546
359.204
356.723
356.113
357.017
359.164
355.868
355.614
351.009
356.088
349.353
351.882
354.414
351.209
343.907
347.255
344.613
349.478
347.375
352.029
347.632
347.577
349.071
348.704
349.79
348.298
347.852
350.044
346.935
345.749
344.062
348.627
343.545
343.169
335.746
337.336
344.319
339.994
332.547
341.307
340.242
343.61
342.17
342.499
337.544
341.45
339.026
340.967
334.572
336.205
339.595
339.925
334.204
333.625
330.471
328.648
332.306
328.083
335.153
332.047
336.101
334.442
333.811
334.312
335.731
332.314
337.133
331.905
331.206
333.608
329.169
331.531
329.592
331.714
322.825
323.563
329.333
324.791
327.209
329.905
326.971
326.101
327.899
331.568
326.155
325.52
326.571
330.224
324.658
327.568
320.127
323.486
326.78
322.418
316.905
315.324
318.945
315.661
319.303
321.434
315.758
319.565
322.433
320.08
317.432
318.227
316.358
319.786
318.503
317.258
320.562
318.051
320.082
313.115
314.396
311.679
311.17
308.823
309.621
307.187
307.596
317.031
310.005
309.63
310.398
312.151
308.928
308.326
307.073
313.321
311.748
307.051
311.983
314.523
304.104
305.209
304.681
301.003
301.335
303.418
302.213
299.421
300.511
300.857
301.813
305.505
307.081
305.738
308.976
306.576
302.824
306.358
302.277
302.961
353.05
352.133
352.458
355.154
357.728
359.117
360.526
359.103
355.45
359.497
364.086
361.288
358.185
361.367
359.763
356.506
354.354
356.04
354.029
353.909
344.567
351.29
345.312
346.6
348.548
345.576
352.854
347.049
354.734
346.936
346.712
350.796
346.877
350.72
345.571
348.993
345.029
347.958
345.653
345.519
338.406
340.761
340.092
341.479
343.585
344.176
341.467
345.768
342.202
344.239
349.691
342.506
341.649
343.84
341.416
341.258
339.741
340.417
335.867
341.803
332.123
334.375
332.294
336.157
331.103
333.324
336.04
337.924
337.986
329.697
336.379
329.076
333.316
336.682
333.449
331.15
337.268
333.498
331.126
330.12
325.183
321.874
326.171
329.614
324.729
332.201
326.714
325.459
333.671
326.456
325.587
325.918
327.04
324.535
322.308
330.426
324.536
324.325
322.119
325.574
314.861
319.908
322.295
316.573
322.506
322.657
325.082
319.212
322.058
326.878
321.382
319.282
324.387
320.18
319.091
313.535
316.888
317.762
315.927
317.511
308.691
311.851
312.942
312.889
311.873
312.304
311.742
311.175
313.05
308.846
309.871
314.467
311.993
312.204
311.957
309.065
310.97
311.371
307.077
308.175
304.638
299.723
306.102
305.906
299.991
304.416
303.137
303.791
304.058
305.155
300.138
305.108
303.634
301.326
304.781
301.105
307.544
303.596
306.041
302.169
356.389
356.859
357.648
357.143
359.2
356.863
359.225
362.008
352.948
362.035
359.939
358.211
360.91
358.554
357.384
359.462
353.813
353.777
351.973
347.914
344.845
346.479
353.967
350.785
352.647
347.497
349.196
347.763
349.329
347.73
347.177
351.307
347.536
352.164
346.5
351.652
345.722
349.654
345.108
345.196
339.402
339.821
339.848
344.012
343.505
346.377
344.851
345.991
340.373
343.114
340.318
339.724
345.183
343.775
344.387
337.386
341.11
341.136
337.516
339.996
334.447
335.478
331.696
336.418
336.503
335.084
334.194
331.593
334.171
333.702
335.113
332.896
334.095
335.06
332.734
336.961
336.452
336.05
332.755
333.588
324.423
327.79
329.444
325.859
326.525
329.583
322.802
331.144
325.373
331.128
329.049
328.557
329.54
329.27
326.336
327.618
323.852
328.182
327.394
325.862
317.186
320.157
317.786
320.851
320.155
321.488
318.283
319.382
320.911
319.782
320.164
318.679
316.061
318.593
317.986
319.371
317.876
318.894
316.589
318.515
310.658
312.18
308.74
308.59
313.181
306.229
314.581
314.025
311.038
314.206
312.169
314.797
313.976
313.362
308.438
313.071
309.199
308.186
306.691
312.348
305.576
304.047
305.495
301.928
304.881
303.675
309.329
302.631
304.657
305.611
306.961
303.731
305.339
305.92
302.58
302.935
302.666
304.125
303.216
305.256
356.007
354.533
352.774
360.563
363.933
358.413
361.956
359.371
365.377
362.188
361.911
360.998
357.223
363.681
362.186
353.502
356.899
353.591
353.756
353.161
351.371
347.132
350.775
350.88
357.574
352.619
354.736
353.227
352.417
356.52
355.255
354.742
349.949
352.098
347.704
350.089
353.007
349.226
349.08
348.736
339.763
344.975
343.484
341.757
344.16
341.029
346.456
341.55
346.958
342.23
343.725
344.241
345.388
345.679
340.174
346.01
342.539
343.608
340.795
342.706
335.781
331.8
332.663
335.232
337.523
337.046
339.082
341.241
337.277
340.796
334.631
339.694
337.135
336.058
339.31
335.195
334.035
335.438
330.467
334.115
324.569
328.305
328.281
327.269
329.813
331.678
325.389
333.376
327.243
332.504
329.746
329.959
326.494
327.575
331.447
323.869
329.281
327.438
328.802
323.415
317.273
320.439
318.149
316.291
321.569
322.833
319.973
324.656
322.552
315.571
320.438
321.056
323.55
321.074
320.422
313.486
319.725
316.385
322.627
314.423
316.491
305.796
312.963
312.217
313.6
315.611
312.406
311.928
316.296
311.933
315.569
314.786
309.982
308.667
312.594
311.891
311.243
309.529
311.004
314.656
305
303.216
303.536
301.528
303.238
302.666
305.488
304.42
302.176
304.719
303.65
307.564
304.406
301.571
303.476
308.04
306.173
305.097
304.14
303.295
353.439
361.31
358.705
359.13
362.68
362.682
361.968
359.797
358.83
362.778
362.679
362.388
358.528
364.857
359.564
359.39
354.788
358.717
356.952
356.443
348.447
353.052
354.558
347.649
356.554
350.164
355.835
351.613
352.653
350.623
350.823
354.327
349.931
348.883
350.651
353.027
349.932
347.085
349.358
347.131
340.27
342.782
343.178
343.417
342.873
344.286
346.382
343.845
344.418
345.758
345.424
347.494
343.214
342.268
344.053
343.743
340.971
343.333
337.998
336.923
336.475
332.342
339.635
335.832
339.834
334.559
339.065
337.548
339.938
339.934
338.861
340.014
335.305
333.504
336.347
336.52
333.386
337.604
328.88
330.709
328.872
329.232
326.473
325.642
328.727
326.459
332.707
332.32
331.766
329.263
330.432
327.923
330.451
324.047
328.313
326.116
325.828
322.984
328.412
323.518
319.402
316.221
319.242
320.278
320.716
320.642
322.136
325.53
319.158
322.27
320.119
319.281
321.68
320.983
319.79
320.129
317.149
315.058
318.476
316.922
309.962
311.5
311.647
310.83
311.152
311.443
311.859
316.387
315.646
313.443
310.554
314.39
317.682
313.08
309.265
309.464
312.551
309.482
312.148
317.696
306.557
304.634
303.871
305.808
302.851
302.882
303.997
303.161
304.217
306.201
306.498
301.939
304.317
303.17
306.912
305.333
302.505
306.645
299.997
302.277
361.61
359.304
356.983
361.055
363.034
359.994
366.212
363.308
366.465
363.093
360.025
362.577
362.598
362.239
360.304
360.62
360.545
358.654
358.753
353.591
353.529
354.663
351.749
348.2
354.637
351.986
352.355
354.743
354.301
354.218
357.832
357.676
356.434
349.765
353.991
353.44
354.379
351.742
348.667
350.639
341.414
344.211
342.538
350.193
343.616
347.059
349.095
344.814
348.777
347.176
346.534
344.002
343.638
342.993
343.111
343.11
343.768
342.516
345.486
339.477
340.074
334.013
332.916
340.079
339.35
335.03
333.256
335.112
344.392
338.335
339.027
338.363
338.067
336.609
334.857
334.109
335.952
331.978
335.558
335.422
324.671
328.434
327.195
330.597
326.977
330.108
329.637
331.789
329.056
331.732
329.347
329.548
331.976
331.896
328.882
331.644
330.708
327.621
326.701
328.45
318.143
324.283
320.156
319.916
319.373
323.577
317.309
320.488
323.57
317.838
319.24
320.054
319.624
323.068
328.596
320.015
319.198
323.385
321.897
316.424
312.055
309.514
309.245
313.494
311.92
311.309
314.345
316.353
314.053
312.317
310.442
313.71
313.151
312.065
312.132
316.923
315.025
305.614
309.658
314.676
306.69
304.781
299.892
305.537
306.371
302.262
303.118
302.528
304.45
307.487
302.374
302.365
304.047
298.323
304.88
301.833
302.277
301.639
302.022
302.971
365.77
359.108
365.008
364.515
365.014
363.835
363.827
366.9
368.366
365.02
362.358
368.065
359.476
363.227
362.644
361.193
364.077
358.992
357.301
354.47
349.838
353.202
352.628
354.436
355.908
355.218
359.044
354.704
356.638
354.29
355.023
355.696
354.498
352.813
354.736
353.324
354.052
351.115
354.815
349.373
343.426
343.767
340.883
347.689
347.119
344.809
347.117
346.539
345.577
351.972
347.945
347.762
354.978
343.364
347.392
341.458
346.277
347.46
344.703
337.26
334.515
337.221
336.666
337.334
332.954
338.47
336.892
338.046
342.968
341.356
340.67
337.624
339.242
338.511
338.087
337.672
336.389
333.587
334.662
336.897
326.147
332.914
329.96
325.9
334.116
331.835
332.771
328.003
329.098
329.23
334.201
328.904
326.535
330.425
330.562
329.491
328.101
328.973
327.412
332.033
318.468
322.574
317.561
322.352
320.4
320.972
323.364
321.661
325.498
322.715
324.216
325.212
318.376
322.432
318.468
317.873
323.74
319.062
318.824
313.126
311.446
312.893
308.578
306.848
315.285
311.14
311.618
313.704
312.666
317.519
310.279
313.613
312.411
314.496
309.793
310.775
310.323
312.383
311.327
310.745
307.395
305.013
310.117
306.683
301.328
302.452
301.865
304.436
301.552
301.989
305.795
302.766
308.716
301.622
298.11
298.161
300.938
307.465
303.077
302.54
360.941
357.109
358.214
362.482
364.673
365.309
366.47
365.239
364.208
370.982
368.179
362.774
366.834
367.52
364.964
363.912
364.698
358.135
355.096
357.964
353.31
353.754
354.812
354.253
356.189
355.8
354.843
357.622
358.334
357.367
355.935
358.956
359.546
354.154
356.153
350.031
358.323
350.959
356.789
348.303
344.53
344.003
341.916
349.281
347.611
348.433
349.271
350.269
350.37
349.191
349.844
350.867
347.658
346.801
348.378
343.957
346.588
343.538
340.891
341.783
335.496
335.614
335.796
335.63
337.174
339.868
339.533
338.221
341.765
343.578
344.653
342.4
339.218
341.081
338.479
339.915
337.144
337.378
332.79
333.724
333.073
330.826
328.606
329.956
328.472
328.796
331.361
327.8
328.598
331.436
332.478
333.279
331.583
333.466
333.07
330.349
329.944
326.297
328.406
326.154
321.546
322.21
317.565
323.907
318.081
324.544
324.645
320.725
320.918
323.355
319.406
322.189
326.227
324.967
323.275
323.227
321.59
322.847
318.647
320.429
312.114
314.148
315.993
311.484
313.33
311.815
315.663
311.373
312.292
313.261
311.065
311.977
309.119
313.321
308.321
310.325
316.968
312.558
311.651
312.82
299.394
303.133
302.467
306.2
307.676
307.032
304.817
307.055
306.177
305.005
303.627
303.434
305.464
302.353
305.589
307.099
300.593
304.656
305.554
300.641
362.121
362.553
362.646
365.703
359.633
361.995
369.934
366.629
368.821
365.875
365.569
366.588
366.357
363.398
361.298
363.145
359.274
360.887
357.619
355.966
351.285
362.357
348.816
359.234
358.661
359.815
358.096
359.639
356.443
358.153
358.657
356.058
359.278
352.781
359.009
352.812
359.662
348.525
358.172
351.936
341.107
346.537
346.94
348.427
346.459
345.635
349.79
346.489
345.784
353.421
348.92
351.461
349.141
350.374
346.322
346.935
348.596
345.485
343.656
345.702
339.656
343.259
339.698
336.261
339.738
340.816
338.256
342.745
339.476
340.131
339.554
343.429
338.486
340.624
337.264
339.159
336.387
336.262
334.014
335.741
330.431
330.331
327.92
327.17
333.513
336.445
333.315
328.792
334.317
333.222
333.605
329.916
327.766
331.247
329.649
328.021
328.52
327.951
326.432
323.161
318.546
323.877
320.381
321.122
322.798
321.214
320.1
321.147
322.535
325.858
327.449
323.924
320.412
321.998
320.272
320.827
318.036
317.733
321.202
321.322
316.962
317.106
311.599
308.197
310.669
313.398
311.028
315.027
312.679
316.617
312.094
315.907
313.121
315.207
312.161
311.916
317.479
313.759
313.93
312.139
303.187
299.339
298.675
305.566
303.993
306.833
305.029
303.098
306.535
306.01
308.497
305.811
304.951
307.717
302.266
305.04
304.168
306.867
307.381
302.9
361.311
364.262
360.426
365.985
369.679
368.046
364.11
366.838
367.479
368.026
368.12
364.365
371.906
367.046
369.574
365.031
357.873
358.162
361.429
359.942
351.232
355.027
357.275
358.978
354.741
357.497
359.449
362.422
359.339
359.394
359.39
360.216
360.357
357.291
356.781
354.15
356.063
353.462
350.925
353.122
344.477
345.089
347.595
346.632
348.191
346.808
348.114
347.534
351.84
352.56
350.455
351.069
351.526
349.889
348.063
347.657
347.683
343.601
342.698
345.699
338.482
334.5
338.875
335.523
334.749
342.58
342.886
339.374
344.286
338.603
340.561
339.288
341.431
341.999
340.162
338.137
337.086
338.358
336.014
339.25
331.017
329.83
329.235
331.436
329.08
330.612
329.98
332.082
334.959
329.145
333.247
333.367
329.131
328.54
330.425
329.064
332.488
326.483
329.413
327.118
321.336
318.934
320.477
318.824
321
320.344
322.075
320.272
324.067
323.068
320.739
322.668
324.448
320.255
319.625
321.595
322.821
320.883
320.818
317.704
314.572
305.421
313.321
316.192
311.634
311.983
311.453
318.664
314.958
314.393
312.624
315.883
310.451
309.512
312.32
314.71
313.201
312.714
317.385
310.36
304.386
306.706
303.187
301.422
303.306
303.579
305.055
306.147
305.323
303.861
306.962
300.778
303.217
305.714
305.168
306.255
305.996
305.902
302.174
299.492
360.453
358.862
365.836
363.132
364.504
368.215
365.445
370.643
362.759
367.918
368.054
368.394
364.321
371.378
364.811
367.98
364.625
359.977
358.697
358.019
352.698
362.112
352.126
363.442
355.074
364.802
358.896
363.469
359.666
364.326
363.897
359.495
363.96
355.448
363.305
350.942
362.012
352.27
364.257
352.431
343.677
344.636
342.165
347.321
352.504
349.252
355.57
347.333
349.661
348.664
350.246
350.722
345.583
346.824
350.228
346.508
349.391
348.741
344.922
340.811
336.203
337.341
337.049
339.19
344.95
340.919
341.863
335.77
339.456
340.273
337.761
332.619
341.9
342.32
341.394
339.088
336.995
340.093
335.282
337.108
327.896
330.675
332.398
328.24
331.588
327.043
333.383
335.003
336.305
327.572
330.958
331.677
332.727
331.737
332.254
328.422
328.441
332.215
328.321
326.876
317.438
323.494
325.66
319.577
324.054
320.651
320.273
327.719
323.053
323.663
327.369
321.938
323.066
322.676
325.337
317.97
321.694
321.36
321.34
321.478
310.692
310.677
313.707
312.259
316.66
311.666
312.988
315.004
314.767
312.723
311.949
312.471
315.014
313.072
310.389
313.954
313.221
312.313
316.832
311.944
302.123
304.835
302.606
302.864
305.774
304.509
304.109
305.963
307.72
305.621
306.915
307.845
305.582
305.857
306.412
301.906
303.912
306.842
305.076
305.853
358.268
360.975
364.522
360.383
363.297
360.409
362.74
366.19
366.829
369.541
371.021
370.885
367.712
364.348
363.59
366.485
364.056
362.362
359.024
359.335
355.123
355.537
356.679
354.835
359.039
357.194
358.821
359.943
358.127
358.981
355.848
359.815
356.051
360.274
355.368
351.769
358.382
354.51
354.872
352.007
344.506
343.26
348.962
349.566
347.411
352.204
347.645
350.511
346.781
353.688
352.082
353.025
348.823
347.53
349.992
348.05
347.385
343.469
345.751
343.455
339.194
338.695
335.113
342.061
335.477
339.617
343.022
343.943
341.506
338.627
339.661
344.293
342.544
340.812
337.573
342.099
334.308
331.818
336.093
333.306
325.764
331.177
326.082
330.116
333.085
330.191
334.523
330.956
329.901
332.49
332.362
331.535
328.891
328.423
333.121
327.837
333.641
327.552
326.282
324.165
323.161
319.27
324.159
321.867
324.537
323.045
321.194
326.364
324.817
323.883
323.497
327.242
321.826
320.333
318.561
321.284
317.607
318.29
324.477
323.092
311.41
313.69
309.732
314.499
311.594
316.385
312.869
311.325
314.635
312.412
315.292
314.177
315.356
313.177
314.21
310.601
309.917
308.953
308.757
313.665
307.947
305.166
301.818
305.782
300.676
303.736
306.217
302.744
298.491
305.117
301.748
304.241
302.5
304.817
304.197
303.768
301.356
307.04
303.569
305.626
)
;

boundaryField
{
    hotSide
    {
        type            fixedGradient;
        gradient        nonuniform List<scalar> 
400
(
321.511
322.87
325.591
329.677
335.133
341.965
350.181
359.788
370.794
383.208
397.037
412.289
428.971
447.088
466.647
487.651
510.105
534.011
559.372
586.191
323.738
325.08
327.767
331.802
337.194
343.949
352.078
361.591
372.498
384.81
398.537
413.687
430.268
448.289
467.755
488.672
511.043
534.872
560.161
586.913
326.149
327.47
330.116
334.091
339.406
346.071
354.099
363.503
374.296
386.491
400.101
415.136
431.606
449.52
468.885
489.706
511.988
535.735
560.948
587.63
328.704
330
332.597
336.503
341.73
348.292
356.205
365.485
376.15
388.215
401.695
416.604
432.954
450.753
470.009
490.73
512.919
536.579
561.714
588.325
331.33
332.599
335.142
338.97
344.099
350.546
358.332
367.477
378.003
389.928
403.271
418.047
434.27
451.949
471.095
491.712
513.807
537.382
562.439
588.978
333.918
335.158
337.643
341.389
346.414
352.74
360.392
369.397
379.779
391.562
404.765
419.407
435.503
453.065
472.101
492.618
514.622
538.114
563.096
589.569
336.321
337.531
339.959
343.622
348.544
354.751
362.274
371.142
381.385
393.031
406.101
420.618
436.595
454.047
472.983
493.409
515.33
538.747
563.663
590.076
338.36
339.543
341.92
345.509
350.339
356.44
363.847
372.595
382.718
394.244
407.2
421.608
437.485
454.844
473.695
494.045
515.897
539.253
564.114
590.478
339.852
341.015
343.352
346.885
351.645
357.665
364.985
373.643
383.675
395.113
407.984
422.312
438.116
455.407
474.197
494.491
516.294
539.606
564.428
590.758
340.643
341.795
344.11
347.613
352.334
358.311
365.584
374.193
384.176
395.567
408.393
422.679
438.443
455.699
474.456
494.722
516.498
539.788
564.589
590.901
340.643
341.795
344.11
347.613
352.334
358.311
365.584
374.193
384.176
395.567
408.393
422.679
438.443
455.699
474.456
494.722
516.498
539.788
564.589
590.901
339.852
341.015
343.352
346.885
351.645
357.665
364.985
373.643
383.675
395.113
407.984
422.312
438.116
455.407
474.197
494.491
516.294
539.606
564.428
590.758
338.36
339.543
341.92
345.509
350.339
356.44
363.847
372.595
382.718
394.244
407.2
421.608
437.485
454.844
473.695
494.045
515.897
539.253
564.114
590.478
336.321
337.531
339.959
343.622
348.544
354.751
362.274
371.142
381.385
393.031
406.101
420.618
436.595
454.047
472.983
493.409
515.33
538.747
563.663
590.076
333.918
335.158
337.643
341.389
346.414
352.74
360.392
369.397
379.779
391.562
404.765
419.407
435.503
453.065
472.101
492.618
514.622
538.114
563.096
589.569
331.33
332.599
335.142
338.97
344.099
350.546
358.332
367.477
378.003
389.928
403.271
418.047
434.27
451.949
471.095
491.712
513.807
537.382
562.439
588.978
328.704
330
332.597
336.503
341.73
348.292
356.205
365.485
376.15
388.215
401.695
416.604
432.954
450.753
470.009
490.73
512.919
536.579
561.714
588.325
326.149
327.47
330.116
334.091
339.406
346.071
354.099
363.503
374.296
386.491
400.101
415.136
431.606
449.52
468.885
489.706
511.988
535.735
560.948
587.63
323.738
325.08
327.767
331.802
337.194
343.949
352.078
361.591
372.498
384.81
398.537
413.687
430.268
448.289
467.755
488.672
511.043
534.872
560.161
586.913
321.511
322.87
325.591
329.677
335.133
341.965
350.181
359.788
370.794
383.208
397.037
412.289
428.971
447.088
466.647
487.651
510.105
534.011
559.372
586.191
)
;
    }
    coldSide
    {
        type            mixed;
        refValue        uniform 300;
        refGradient     uniform 0;
        valueFraction   uniform 0.991591;
        source          uniform 0;
        value           nonuniform List<scalar> 
400
(
299.993
300.015
300.033
300.053
300.012
300.017
300.032
300.052
300.035
300.039
300.047
300.042
300.055
300.056
300.062
299.995
300.027
300.037
300.018
300.067
300.026
300.055
300.025
300.028
300.014
299.991
300.047
300.031
300.044
299.998
300.034
300.027
300.039
300.04
300.042
300.026