/*--------------------------------*- C++ -*----------------------------------*\
| =========                 |                                                 |
| \\      /  F ield         | OpenFOAM: The Open Source CFD Toolbox           |
|  \\    /   O peration     | Version:  2212                                  |
|   \\  /    A nd           | Website:  www.openfoam.com                      |
|    \\/     M anipulation  |                                                 |
\*---------------------------------------------------------------------------*/
FoamFile
{
    version     2.0;
    format      ascii;
    arch        "LSB;label=32;scalar=64";
    class       volScalarField;
    location    "0";
    object      relativeErrorField;
}
// * * * * * * * * * * * * * * * * * * * * * * * * * * * * * * * * * * * * * //

dimensions      [0 0 0 1 0 0 0];

internalField   nonuniform List<scalar> 
3200
(
0.0192423
0.0182686
0.0172826
0.0165087
0.0161261
0.0160595
0.0161433
0.015898
0.0162432
0.0164741
0.0165258
0.016547
0.0168141
0.0167449
0.0168635
0.0172482
0.0178677
0.0184725
0.0197119
0.0209753
0.0165578
0.0157864
0.0148603
0.014227
0.0137939
0.0138124
0.0138074
0.0137398
0.0140465
0.0141481
0.0140749
0.0142741
0.0142549
0.0143612
0.0145391
0.0148015
0.0152721
0.0159326
0.0168514
0.0177998
0.0140619
0.0131688
0.012304
0.0118684
0.011511
0.0116463
0.0117147
0.0114599
0.0116436
0.011984
0.0120579
0.0120548
0.0118554
0.0122461
0.0121479
0.0123056
0.0126848
0.0135035
0.0143331
0.0150343
0.0116006
0.0108837
0.0100193
0.00986709
0.00930904
0.00937344
0.00932089
0.00929855
0.00950334
0.00970187
0.00976747
0.00954267
0.00976402
0.00981587
0.00998706
0.0100171
0.0102578
0.0109635
0.011586
0.0122199
0.00914382
0.0085409
0.00800241
0.00762732
0.00739883
0.00746653
0.00723861
0.00723694
0.00758062
0.00748731
0.00750846
0.00757173
0.00772828
0.00770152
0.00758786
0.00791212
0.00824738
0.00843625
0.00890872
0.00952647
0.00636677
0.00623241
0.00566413
0.00551313
0.00534831
0.00531323
0.00551707
0.00538551
0.00522654
0.00550916
0.00532741
0.00540667
0.0053939
0.00546699
0.00560386
0.00576182
0.00574579
0.00619591
0.00656792
0.00677138
0.00384807
0.00382464
0.00359927
0.00311302
0.00334709
0.00324973
0.00315984
0.00315411
0.00324229
0.00333999
0.00322523
0.0032577
0.00339169
0.00319205
0.00321305
0.00346779
0.00387673
0.00376697
0.00384412
0.0043221
0.00142822
0.000939825
0.00113135
0.00118226
0.00119749
0.00112117
0.00105708
0.00108805
0.000997679
0.00129327
0.00130226
0.0011247
0.0013059
0.00114527
0.000923843
0.00116915
0.00145475
0.00142262
0.00141303
0.00121296
0.0174059
0.016009
0.015189
0.0141361
0.0137319
0.0135342
0.0135368
0.0136153
0.0139831
0.0138483
0.0141581
0.0140782
0.0141981
0.0142236
0.0143394
0.0148393
0.0152941
0.0162126
0.0174481
0.0186257
0.0149687
0.0140302
0.0132333
0.0123862
0.011996
0.011796
0.0116569
0.0119528
0.0119387
0.0119004
0.0119642
0.0122437
0.0122646
0.0123206
0.012277
0.0126077
0.0134259
0.0138982
0.0149534
0.0160957
0.0123919
0.0115963
0.0108967
0.0106369
0.0101515
0.00991249
0.00983505
0.0099683
0.0100632
0.010176
0.0100839
0.0103057
0.0102561
0.0102108
0.0105518
0.0107651
0.011259
0.0118106
0.0127369
0.013551
0.0105905
0.00982419
0.00924493
0.00861816
0.00836299
0.00817839
0.00800141
0.0081903
0.0082552
0.00833885
0.00816163
0.00842405
0.00817565
0.00834277
0.00861664
0.00865572
0.00905693
0.00960298
0.010231
0.0111942
0.00810141
0.0077074
0.00705199
0.00677743
0.00665159
0.0062536
0.00621521
0.00626068
0.00651509
0.00638876
0.00668669
0.00649242
0.00658255
0.00645226
0.00665836
0.00675589
0.00715532
0.00775303
0.00823601
0.00871937
0.00603702
0.00562497
0.00518433
0.00473546
0.00468044
0.00450997
0.00440592
0.00422682
0.00458274
0.00465223
0.00490455
0.00472352
0.0046114
0.00478426
0.0048234
0.004998
0.00536681
0.00523207
0.00588595
0.00621016
0.00346567
0.00325251
0.00323325
0.00308862
0.00300136
0.00296333
0.00266162
0.00276511
0.00290618
0.00271549
0.00281916
0.00274346
0.00271196
0.00273272
0.00289316
0.00286662
0.00307454
0.0033506
0.00343457
0.00387035
0.0012617
0.00123526
0.00104307
0.000934038
0.000936243
0.00101472
0.00118583
0.000902624
0.000938921
0.000959554
0.00102982
0.000996772
0.0011678
0.00100017
0.000837119
0.00119156
0.00100991
0.00116154
0.000979844
0.00125308
0.0149802
0.0137952
0.0124416
0.0116727
0.0108919
0.010911
0.0104855
0.0105093
0.0105294
0.0107634
0.010891
0.0109282
0.0112149
0.0111753
0.0114048
0.0118984
0.0125199
0.0134733
0.0148385
0.0161463
0.0127713
0.0119055
0.0110424
0.0100959
0.00952947
0.00946053
0.00912043
0.00922961
0.00920523
0.0092721
0.00946476
0.00932296
0.00952453
0.00953678
0.00973663
0.0102812
0.0108538
0.0118101
0.0125705
0.0137413
0.0108671
0.00982844
0.00924583
0.00859284
0.00792184
0.00791706
0.00769767
0.00760814
0.00789116
0.00782521
0.00806062
0.00806686
0.00773592
0.008049
0.00835724
0.00865485
0.00912751
0.00993125
0.0106546
0.0118003
0.00889524
0.00816725
0.00769182
0.00702399
0.00662995
0.00631836
0.00629677
0.0063904
0.00639885
0.0064603
0.00662104
0.00654401
0.00645999
0.00664762
0.00673218
0.00701735
0.00737665
0.00791452
0.00883331
0.00972264
0.00702056
0.00657135
0.00575359
0.00554629
0.00516802
0.00526851
0.00486778
0.00478515
0.00508939
0.00495952
0.00496881
0.00519703
0.00517012
0.00520939
0.00535739
0.00541391
0.00588003
0.00643184
0.00690595
0.00747208
0.00493758
0.00464427
0.00429562
0.00403617
0.00393426
0.00371961
0.00366382
0.00366167
0.00379181
0.00371772
0.00353444
0.00380669
0.00359575
0.00371121
0.0037064
0.00389248
0.00423178
0.00458564
0.00497957
0.00544676
0.0029644
0.00282986
0.00261687
0.00250236
0.00204875
0.00214207
0.00209525
0.00201954
0.00232878
0.00211973
0.0020787
0.00213488
0.00224061
0.00235941
0.0022912
0.00274075
0.00259455
0.0027477
0.00305764
0.00314371
0.00118275
0.00116947
0.000892041
0.00100241
0.000777689
0.000803895
0.00054193
0.000972919
0.000673136
0.000585133
0.00092517
0.000732501
0.000869222
0.000687041
0.000652058
0.000518608
0.00110212
0.000969424
0.00103228
0.00109148
0.0126827
0.0114696
0.00984874
0.00903294
0.00842983
0.00792397
0.0075873
0.00761477
0.00764737
0.00768541
0.00774992
0.00777148
0.00787075
0.00822788
0.00849843
0.00896084
0.00981437
0.0108344
0.01232
0.0135929
0.0108912
0.00976123
0.00860487
0.00772039
0.00746213
0.00698326
0.00668231
0.00656157
0.00676981
0.00650199
0.00656696
0.00675514
0.00698593
0.00676269
0.00745997
0.00780731
0.00835647
0.00937454
0.0105068
0.011729
0.00941277
0.00837408
0.00754334
0.00674951
0.00611477
0.00570814
0.00566979
0.00557202
0.00560173
0.00546255
0.00568961
0.00561943
0.00565113
0.00574153
0.00589075
0.0065724
0.00712517
0.00793863
0.00894795
0.00988327
0.00770887
0.00684559
0.00594903
0.00537877
0.00496745
0.00447623
0.0045739
0.00441679
0.00452022
0.00455202
0.0045723
0.00461001
0.00479398
0.00466937
0.00497465
0.00531159
0.0056739
0.00632885
0.00718724
0.00806395
0.00604202
0.00526463
0.00475707
0.00435642
0.00385033
0.00359298
0.00367817
0.00355037
0.00343355
0.0035081
0.00369189
0.00363955
0.00349781
0.0035668
0.00392785
0.00409645
0.00451149
0.00526255
0.00561645
0.00638406
0.00428328
0.00373524
0.00342577
0.00302198
0.00264689
0.00260773
0.00248971
0.00251105
0.0024777
0.00247777
0.00246403
0.00241445
0.00254216
0.00282769
0.0027815
0.00307948
0.00334909
0.00360919
0.00397568
0.00455103
0.00264542
0.002335
0.00210194
0.0017717
0.00187924
0.00152113
0.00160283
0.0015241
0.00151018
0.00157236
0.00177657
0.00159562
0.0016562
0.00157208
0.00163434
0.00170888
0.00201032
0.00228929
0.00245067
0.00277892
0.000997133
0.000831624
0.000639804
0.000487704
0.000679361
0.000493089
0.000443022
0.000529133
0.000628171
0.000445426
0.000502911
0.00056967
0.000605746
0.000474703
0.000400069
0.000784131
0.000574577
0.000599638
0.000867294
0.00104619
0.010774
0.00940685
0.00782227
0.00684485
0.00594965
0.00538362
0.00504224
0.00501386
0.00493982
0.00511095
0.00513872
0.00513385
0.00553856
0.00556669
0.00583382
0.00658779
0.00750912
0.0088075
0.0103043
0.0117211
0.00928271
0.00829696
0.00696039
0.00585621
0.00518168
0.0048016
0.00433222
0.0042998
0.00419591
0.00420064
0.00424104
0.00450556
0.00447614
0.00455973
0.00506388
0.00545217
0.00631723
0.0074838
0.00848547
0.0101275
0.00798314
0.00687521
0.0056274
0.00503971
0.00429701
0.00376016
0.00358235
0.00339322
0.00362205
0.00340247
0.00367469
0.00372898
0.00367862
0.00381318
0.0042441
0.00467631
0.00538812
0.00630145
0.00726581
0.00840991
0.00649933
0.00582584
0.00471847
0.00412363
0.00365849
0.00333132
0.00294464
0.00282478
0.00270284
0.00275955
0.0028545
0.00272119
0.00305448
0.00298814
0.00342119
0.00400639
0.00432648
0.00499709
0.00599356
0.00697556
0.00509911
0.0043692
0.0037359
0.00329009
0.0029042
0.00232978
0.00228814
0.00231325
0.00229374
0.00232306
0.00222547
0.00230292
0.00228562
0.00213029
0.00269765
0.0029896
0.00330558
0.00377317
0.00453516
0.00524241
0.00357453
0.00332186
0.00288561
0.00212172
0.00192942
0.00183137
0.00149348
0.00169845
0.00149871
0.0017727
0.00165721
0.00147059
0.00160514
0.00174997
0.00198675
0.00211631
0.00240606
0.00283168
0.00340528
0.0036843
0.00234299
0.00207591
0.0013529
0.00136555
0.00105086
0.00111409
0.000914401
0.00107292
0.000948556
0.00115876
0.000982347
0.00105501
0.000939016
0.00110391
0.00109385
0.00132623
0.00156487
0.00174466
0.00200231
0.00224795
0.000690761
0.000886729
0.000602364
0.000551288
0.000233315
0.000156357
0.00040414
0.000282678
0.000279044
0.000291425
0.000442644
9.29962e-05
0.000356498
0.000253568
0.000359632
0.000603648
0.000444909
0.000735842
0.000598921
0.000825268
0.00972194
0.00800723
0.00630524
0.00497875
0.00440508
0.00356877
0.00298613
0.00290581
0.00269821
0.00262182
0.00270598
0.0027914
0.00298855
0.00337243
0.00365111
0.00470119
0.00557604
0.00684231
0.00856218
0.00993101
0.00834063
0.00686376
0.00542991
0.00457935
0.00337771
0.00307078
0.00248709
0.00234155
0.00220225
0.0022996
0.00222443
0.00212549
0.00244429
0.00273367
0.00300174
0.0036376
0.00477585
0.00591089
0.00729317
0.00846376
0.00701327
0.00579774
0.00452266
0.00353625
0.00293845
0.00239057
0.00217399
0.00193487
0.00191287
0.00188015
0.00174414
0.00186769
0.00191037
0.00217596
0.00255771
0.00288871
0.00378168
0.00494251
0.0058271
0.00705637
0.00594113
0.00475836
0.00376481
0.00302149
0.00255761
0.00194211
0.00166888
0.0014165
0.00123067
0.00125151
0.00139195
0.00120971
0.00158131
0.0017161
0.00188865
0.00268827
0.00311256
0.00383243
0.00511269
0.00577714
0.0045235
0.00361012
0.00290877
0.00250861
0.00183571
0.00133257
0.00104811
0.00118234
0.00110455
0.0010885
0.00112693
0.00110699
0.00117306
0.00134007
0.00143144
0.00186187
0.00219798
0.00307492
0.00394357
0.00454356
0.00328506
0.00270801
0.00203537
0.00175075
0.00139324
0.00108054
0.000921949
0.000905145
0.000797765
0.000722363
0.000674745
0.000767764
0.000787483
0.00103677
0.00114689
0.00141499
0.00179777
0.00227705
0.00263745
0.00334049
0.00192952
0.00160874
0.00124648
0.000860322
0.000671527
0.000452644
0.000671225
0.000462038
0.000369524
0.000389776
0.000452403
0.000433017
0.000414758
0.000549627
0.000341065
0.000829423
0.000951586
0.00135218
0.00167987
0.00190424
0.000334059
0.000417268
0.000572529
0.000168142
0.000125282
0.000351329
0.000305027
0.000265613
0.000199839
0.00023513
8.89253e-05
0.000206041
0.000204477
0.000132295
0.000388606
0.000490899
0.000160451
0.000251482
0.000644249
0.00088568
0.00878468
0.00714585
0.00532268
0.004058
0.00270649
0.00199532
0.00143374
0.00127502
0.000891691
0.00100571
0.000974999
0.000979075
0.00150802
0.00189179
0.00208835
0.00302006
0.00402475
0.00566669
0.0075031
0.00908871
0.00765529
0.00605925
0.00478323
0.00343885
0.00260389
0.00177816
0.00110816
0.000901669
0.000842638
0.000589955
0.000839248
0.000752923
0.00102454
0.0012366
0.00169115
0.00246892
0.00350823
0.00476822
0.00615369
0.0075127
0.00646619
0.00502063
0.00398994
0.0029785
0.00192423
0.00138896
0.000803757
0.000767526
0.000302375
0.000356725
0.000344258
0.000386079
0.000664675
0.000901983
0.00146584
0.00201272
0.00282678
0.00401027
0.00519202
0.00625744
0.00522018
0.00430048
0.00340691
0.0022937
0.00159377
0.00119903
0.000551535
0.000496153
0.00037048
0.000260341
0.000261544
0.000265748
0.000361284
0.000896656
0.00115424
0.00144983
0.00231174
0.0032106
0.00430431
0.00527615
0.00400538
0.0033504
0.00254057
0.00175329
0.00100248
0.000629539
0.000561426
0.000502265
0.000172711
0.000136834
0.000244301
0.000217457
0.000419152
0.000611902
0.000822537
0.000997729
0.00181177
0.00233364
0.00320079
0.00418331
0.00312049
0.00237324
0.00183617
0.000950097
0.000886273
0.000257085
0.000197692
0.000167746
0.000237605
0.000232801
7.05508e-05
6.12262e-05
0.0001436
0.000304795
0.000401145
0.000746287
0.00133898
0.00186092
0.00213122
0.00266553
0.00182714
0.0015699
0.000779506
0.00077088
0.000390377
0.000539704
0.000302946
0.0003163
5.01679e-06
5.98004e-05
0.000166685
0.000116213
7.90592e-06
0.000122839
0.000236061
0.000387602
0.00065966
0.00103207
0.00129098
0.00175941
0.000509858
0.000433106
0.000451634
0.000288427
4.54273e-05
5.0095e-05
0.000156411
7.28673e-05
7.30415e-05
7.63697e-05
0.000113594
0.000135722
5.32971e-05
0.000159892
5.07638e-05
1.32129e-05
0.00020354
0.000380027
0.000689923
0.000598244
0.00850733
0.00680871
0.00495176
0.00334604
0.00223832
0.0012637
0.000698084
0.000160721
0.000204063
0.000264277
0.000372028
0.000142335
0.000204611
0.000545391
0.0012691
0.00220423
0.00353622
0.00516037
0.00675694
0.00841829
0.00743267
0.00579262
0.004231
0.00297872
0.00178981
0.000772184
0.000306193
0.00019444
0.00035106
0.000296941
0.000297881
0.000494162
3.8139e-05
0.000337706
0.00112765
0.00179798
0.00308802
0.00409386
0.00587509
0.00735026
0.00620205
0.00491113
0.00350121
0.00225742
0.0014956
0.000725238
4.19874e-05
0.000216347
0.000409232
0.000605027
0.000759109
0.000456665
0.000433879
0.000147809
0.000705852
0.00131465
0.00237102
0.00343367
0.00452616
0.00621011
0.00505526
0.00398233
0.00292128
0.00213364
0.00120952
0.000569538
6.99713e-05
0.000250409
0.000511355
0.000473084
0.00050309
0.000750686
0.000230394
0.000110291
0.000472621
0.000959563
0.00202771
0.00290867
0.00388651
0.00494018
0.00369374
0.00324185
0.0024177
0.001554
0.000760505
0.00028204
3.92815e-05
0.000311521
0.00039434
0.000476895
0.000320368
0.000432551
0.000223
3.22522e-05
0.000226272
0.000670012
0.00130635
0.00205584
0.00289918
0.00399884
0.00284752
0.00235435
0.00180067
0.00103991
0.000602325
0.000429372
4.18361e-05
0.000295457
0.000178976
0.000175496
0.000484958
0.000443282
4.81633e-05
0.000279459
0.000138666
0.000365535
0.000884126
0.00158258
0.00220036
0.0026255
0.00160987
0.00134817
0.00104745
0.000602593
0.000223318
0.000101314
7.77452e-05
0.000222002
0.000331429
0.000156639
0.000213829
0.000280782
0.000251049
6.84158e-05
2.18667e-05
0.0002554
0.000319044
0.000905707
0.00134006
0.00173592
0.000560279
0.000513858
0.000127405
0.000292253
5.66323e-07
9.62371e-05
8.64187e-05
0.000208589
0.000191049
0.000295831
9.44994e-05
9.61592e-05
3.09682e-05
4.58002e-05
1.98638e-05
3.79235e-05
0.000132346
0.00055459
0.00055892
0.000692799
0.00908675
0.00726476
0.00532433
0.00357973
0.00207661
0.000897295
0.000187828
0.000234053
0.000925148
0.000818547
0.000671649
0.000603856
0.000366672
0.000116816
0.00116309
0.00205935
0.00342532
0.00513061
0.00685766
0.00900405
0.00776759
0.00618367
0.00433596
0.00279563
0.0016599
0.000892218
8.24163e-05
0.00033851
0.000762324
0.000825924
0.000937619
0.00084871
0.000471961
0.000231249
0.000650597
0.00173643
0.00268682
0.00409184
0.00580826
0.00747699
0.00635281
0.00521974
0.00387737
0.00247418
0.00146522
0.000551852
7.72269e-05
0.00050547
0.000892395
0.0008584
0.000703678
0.000954396
0.000445097
0.000309613
0.000311006
0.00109461
0.00227843
0.00364378
0.00508553
0.00628267
0.0052456
0.00419882
0.00294358
0.00186295
0.00112821
0.000251018
0.000107633
0.000370739
0.000776797
0.000847476
0.000728293
0.00102093
0.000505789
0.000257998
0.000358641
0.000976166
0.00162761
0.00276794
0.00374868
0.00502092
0.00427066
0.00305434
0.00237248
0.00152097
0.000818687
0.000350316
0.000134954
0.000489601
0.000727923
0.000870106
0.000904159
0.000693423
0.000708505
0.00020719
1.09804e-05
0.000607719
0.0013213
0.00215211
0.00302589
0.00415484
0.0029216
0.00236929
0.00179814
0.00117191
0.00041422
0.000236168
0.000232272
0.00042815
0.000308896
0.00049398
0.000341292
0.000697715
0.000289193
0.000272494
4.39311e-05
0.000269476
0.00117338
0.00165151
0.00205707
0.00265679
0.00171717
0.0015079
0.000829924
0.000658266
0.000227896
5.38291e-05
9.04493e-05
0.000181476
0.00025203
0.000396278
0.00026309
0.000365051
0.000309844
0.000147279
1.63803e-05
0.000319011
0.000538398
0.000688293
0.00135517
0.00150998
0.000628326
0.000358023
0.000174064
0.000324321
0.000185013
6.27965e-05
9.46856e-05
6.93754e-05
0.000102882
0.000295085
1.97773e-05
0.000265575
4.0569e-05
9.47179e-06
5.90587e-05
0.000221703
3.51845e-05
0.000165464
0.000624536
0.000696975
0.0101609
0.00814069
0.00607472
0.00400387
0.00285954
0.0014005
0.000502894
4.95383e-05
0.000398558
0.000903593
0.000601266
0.000811462
0.000280933
0.000136775
0.00121032
0.00244352
0.00401526
0.00568046
0.00769565
0.00960007
0.00855592
0.00701886
0.00517211
0.00353654
0.0023107
0.00117554
0.000325113
0.000386337
0.00050737
0.000999453
0.00093776
0.000564181
0.000321571
7.22829e-05
0.00101947
0.0019831
0.00299903
0.00497089
0.00674244
0.00854893
0.0073494
0.00593171
0.00436421
0.00283064
0.00173931
0.000914444
0.00018966
0.000285307
0.000687545
0.000913324
0.00093372
0.000750016
0.000545437
2.50216e-05
0.000472849
0.00155394
0.0026704
0.0039394
0.0054535
0.00712066
0.00584741
0.0049636
0.00368184
0.00232023
0.00134958
0.000659012
2.09389e-05
0.000501693
0.00066145
0.000835588
0.000819718
0.000677941
0.000717095
0.000125124
0.000419795
0.00119673
0.00199842
0.0032004
0.0042405
0.00567515
0.00475564
0.00369956
0.00282954
0.00185678
0.000916966
0.000275996
0.000107351
0.000631979
0.00052248
0.000573629
0.000788745
0.000485397
0.000358458
0.00037672
0.000505225
0.000696533
0.00152866
0.00251422
0.00350042
0.00434538
0.0033056
0.00272651
0.00218191
0.00130859
0.000633175
0.000205338
0.000287877
0.000383275
0.000208108
0.000394063
0.000540955
0.000369425
0.000416887
0.000154309
6.59724e-05
0.000647734
0.00105849
0.00167933
0.00234342
0.00310132
0.0021334
0.00148531
0.00112683
0.000742537
0.000572972
0.000116971
0.000182083
0.000433002
0.000374935
0.000342259
0.00042912
0.000660551
0.000182023
4.95707e-05
2.12841e-06
0.000202888
0.000761218
0.00106656
0.00128734
0.00184986
0.000858306
0.000591485
0.000325507
0.00021353
4.24254e-05
9.56398e-05
3.8199e-05
9.90832e-05
0.000179582
1.37011e-05
0.000164893
0.000138948
6.37765e-05
0.000110065
3.39787e-05
0.000118968
0.000284809
0.000379551
0.000447079
0.000572958
0.0117961
0.00982813
0.00758065
0.00546098
0.00376906
0.00255221
0.00141607
0.000754026
0.000218453
0.000190068
0.000177798
0.000102537
0.000415972
0.0012893
0.00227991
0.00336047
0.0048849
0.00695874
0.00909285
0.0112116
0.0102597
0.00845377
0.00652515
0.0047297
0.00314708
0.00215304
0.000866761
0.000494132
3.63362e-05
0.000224982
0.000114369
0.000173963
0.000330186
0.000870406
0.00172182
0.00278063
0.00414332
0.00582151
0.00762888
0.0094432
0.00862357
0.00719606
0.00551609
0.00390393
0.00293694
0.00158993
0.000919751
0.000239217
0.000239336
0.000367634
0.000346022
0.000210621
0.000163426
0.000541463
0.00134397
0.00235808
0.00338652
0.00495349
0.00648374
0.00787613
0.00706899
0.00583912
0.00441862
0.00304307
0.00207403
0.00143077
0.000816877
0.000216481
0.000136526
0.000253634
0.000194619
0.000207936
5.29214e-05
0.000220235
0.000850871
0.001734
0.00260111
0.00367892
0.00516752
0.00640856
0.00552589
0.00452749
0.00349275
0.00267176
0.0015207
0.000864276
0.000446465
0.000179224
0.0004009
0.000345467
0.000224364
0.000322096
0.000182732
0.000174089
0.000460964
0.00125131
0.00207538
0.00292144
0.00403932
0.00490922
0.0038976
0.00334702
0.00238666
0.00183491
0.00115315
0.000947296
0.000380982
0.000116375
0.000477568
0.00034815
0.000268984
0.000378336
0.000275439
3.0119e-05
0.000470317
0.000957832
0.00146341
0.00216826
0.00295848
0.00359199
0.0024139
0.00216098
0.00153683
0.0010692
0.000878149
0.000454429
0.000101846
4.43803e-06
9.28367e-06
0.000248817
0.000233106
0.000203553
0.000116247
0.000150156
0.000155748
0.000621974
0.000789631
0.00148674
0.0018064
0.00214866
0.000815262
0.000819472
0.00050892
0.000336835
0.000128186
0.000273985
0.00011348
0.000150875
5.58083e-05
0.000189574
0.00014581
0.000242996
0.000101161
2.14522e-05
0.000222022
0.000279684
0.000256572
0.000392134
0.000695208
0.000679539
0.0140691
0.0120812
0.00949092
0.00747318
0.00574712
0.00423942
0.00318865
0.00225287
0.00171038
0.00153529
0.00128388
0.00188805
0.00193103
0.00274593
0.00379658
0.00522952
0.00684177
0.00883596
0.0111188
0.0132159
0.012202
0.0101968
0.00843916
0.00621774
0.00488937
0.00370267
0.00273487
0.00179941
0.0012079
0.000959024
0.00120958
0.000873733
0.00147102
0.00200583
0.00324031
0.00418914
0.00580627
0.00773954
0.0095549
0.011368
0.0104364
0.00869398
0.00706454
0.00543398
0.00421755
0.00286306
0.0022653
0.0013781
0.000920185
0.000767659
0.000719911
0.000786191
0.0013398
0.00164053
0.00225434
0.00348683
0.0046522
0.00640181
0.00782439
0.00955997
0.00866864
0.00740791
0.00587673
0.00478805
0.00335424
0.00238164
0.00156677
0.00114885
0.000924605
0.000576296
0.000603479
0.000729269
0.000984723
0.00140067
0.00192308
0.00284714
0.00389873
0.00498438
0.00640632
0.00784874
0.00681575
0.00588973
0.00459746
0.00366225
0.00245996
0.00181765
0.00107903
0.000748226
0.000468368
0.00037693
0.000529376
0.000363839
0.000701883
0.000878596
0.0014857
0.00215374
0.00288147
0.00409734
0.00505597
0.00585472
0.00496498
0.00439962
0.00342829
0.00256593
0.00178804
0.00118781
0.00105743
0.000656968
0.000278356
0.000235991
0.000317422
0.000334686
0.000596214
0.000725648
0.0011442
0.00150006
0.00199258
0.00290896
0.00373209
0.00440664
0.00301495
0.00255329
0.00190532
0.0015705
0.00104282
0.000717228
0.000646323
0.000134863
8.08918e-05
0.000324024
8.28002e-05
0.000300849
0.00017027
0.000334236
0.000667464
0.000933972
0.00111748
0.0017889
0.00240291
0.00266212
0.000858091
0.000720399
0.000824462
0.000466544
0.000258626
0.000266634
6.9025e-05
1.24303e-05
3.48223e-05
0.000155609
3.6624e-05
0.000145744
0.000133637
0.000181989
0.0001915
0.0001909
0.000364767
0.000384107
0.000667311
0.00089112
0.0172494
0.0147895
0.0125397
0.0101876
0.00823173
0.00676893
0.00560814
0.00457378
0.00379156
0.0035729
0.00340878
0.0037922
0.0043709
0.00506167
0.00620844
0.00744451
0.00922526
0.0114356
0.0138235
0.0160301
0.0149048
0.0128917
0.0108233
0.00879429
0.0071691
0.00574969
0.00465671
0.00370227
0.00330636
0.00282945
0.00290507
0.00319911
0.00375633
0.00423001
0.00528393
0.00623355
0.0080889
0.00973747
0.0118534
0.013799
0.0126933
0.0111885
0.00913205
0.00763404
0.00623537
0.00474012
0.00372168
0.00302151
0.00268244
0.00219744
0.00232346
0.00243066
0.00306242
0.00358821
0.00421489
0.00531656
0.00682566
0.00819369
0.0101459
0.0114697
0.010317
0.00913706
0.00767364
0.00613686
0.00490029
0.00387593
0.00304987
0.00264725
0.00208607
0.00158298
0.00183657
0.00192568
0.00207518
0.0027761
0.00339974
0.00446204
0.00540278
0.00677029
0.00824007
0.00942244
0.00820076
0.00720371
0.00582515
0.00463469
0.00371562
0.00311042
0.00222203
0.0018963
0.0015571
0.00129709
0.00126657
0.00143245
0.0018548
0.00180712
0.00246519
0.00328539
0.00411344
0.0051812
0.00650484
0.00745017
0.00599774
0.00528082
0.00433938
0.00360221
0.00284098
0.00226142
0.00154639
0.00132475
0.00108969
0.000952539
0.00108207
0.00117699
0.00108889
0.00147763
0.00193426
0.00255827
0.00303623
0.00376074
0.00464861
0.00538194
0.00354245
0.0030082
0.00277758
0.00216494
0.001751
0.00145637
0.00108213
0.000944288
0.000770079
0.000771262
0.000771468
0.000536707
0.000671905
0.00103764
0.00108896
0.00129873
0.0019881
0.00239398
0.00273621
0.00317013
0.00125246
0.000894815
0.000673029
0.000601541
0.000533107
0.00031031
0.000265768
0.000193654
0.000389515
0.000174664
4.27234e-05
0.000266462
0.000175698
0.0002519
0.00039569
0.000594363
0.000692722
0.000564489
0.000793535
0.00107618
0.0206973
0.0184513
0.0158577
0.013453
0.0115449
0.00971166
0.00849664
0.00736826
0.00682188
0.00654317
0.00642459
0.00664254
0.00707588
0.0079891
0.00921007
0.0107753
0.0123141
0.014772
0.0170258
0.0193352
0.0180645
0.0161008
0.0139098
0.0119681
0.0100626
0.00846056
0.00716605
0.00639618
0.00574144
0.00556727
0.00550268
0.00556447
0.00612761
0.00674149
0.00776438
0.00912257
0.0106163
0.0125087
0.0147548
0.0168469
0.0153789
0.0135921
0.0117363
0.0100911
0.00859009
0.00716981
0.00594347
0.00542977
0.0048072
0.00460527
0.00436216
0.00461887
0.00510258
0.00578097
0.00630991
0.00766684
0.00911157
0.0108346
0.0123984
0.014305
0.0126975
0.0114647
0.00984196
0.00834104
0.00690922
0.00580682
0.00507228
0.00457371
0.00375361
0.00359884
0.00371271
0.00366982
0.0042332
0.00455778
0.00541122
0.00614303
0.00754262
0.00871001
0.0105742
0.0115771
0.0100434
0.0087342
0.00769305
0.00650566
0.00569501
0.00452638
0.00385812
0.00352519
0.00299626
0.00276625
0.00284943
0.00277827
0.00315327
0.00357178
0.00438779
0.0049156
0.00572207
0.00685883
0.00807386
0.00903332
0.00717874
0.00636827
0.0054888
0.00495677
0.0041345
0.00327342
0.00295392
0.00244767
0.00212565
0.0020663
0.00195785
0.00201714
0.00227117
0.00249495
0.0030478
0.00344198
0.0039685
0.00492671
0.00584441
0.00655464
0.00455555
0.00393936
0.00337311
0.00302197
0.00239582
0.00204094
0.00177693
0.00162969
0.00128222
0.00117186
0.00105887
0.0013442
0.00145111
0.00164799
0.00166378
0.00215994
0.00250361
0.00299289
0.00340704
0.00389553
0.00157943
0.00138409
0.00118051
0.001054
0.000808608
0.000551314
0.000731828
0.000711187
0.000498044
0.000475484
0.000435037
0.000456113
0.000311595
0.000639574
0.000556011
0.000923517
0.000980254
0.00118342
0.00131208
0.00127955
0.0252459
0.0227445
0.0200069
0.0175936
0.0155701
0.0136565
0.0121746
0.0109338
0.0103809
0.00986691
0.00999938
0.0101415
0.0107437
0.0112531
0.0129007
0.0144196
0.0159982
0.0184489
0.0210139
0.0234685
0.0220681
0.0197436
0.0174679
0.0151847
0.0134545
0.0119586
0.0106638
0.00957839
0.00889945
0.00854326
0.00846378
0.00853327
0.0094097
0.00999931
0.0109174
0.012293
0.0141064
0.0161034
0.018233
0.0205944
0.0185946
0.0167603
0.0149498
0.0131105
0.0116492
0.00999564
0.00898846
0.00827992
0.00748498
0.00726673
0.00705452
0.00734419
0.00785994
0.0083858
0.00926085
0.0103984
0.0118256
0.0136796
0.0155829
0.0171371
0.015407
0.0139574
0.0123678
0.0107188
0.00955146
0.00812422
0.00746612
0.00659249
0.00633469
0.00588661
0.00561509
0.00598891
0.00608014
0.00673622
0.00750313
0.00871647
0.00990317
0.0112683
0.0128494
0.0139895
0.0120988
0.01104
0.00977776
0.008503
0.0073378
0.00650581
0.00558967
0.00532255
0.00491513
0.00466483
0.00446545
0.00465678
0.00504929
0.00534212
0.00611077
0.00667869
0.00764719
0.00892277
0.010053
0.0111906
0.0089084
0.00785286
0.00706542
0.00604732
0.00529967
0.00458733
0.00405141
0.00391305
0.00361063
0.00322584
0.00316066
0.00331123
0.0036918
0.00367089
0.00429332
0.00473762
0.00556989
0.00650012
0.00753033
0.00831363
0.00536657
0.00498357
0.00424092
0.00380109
0.00327433
0.00299109
0.00239388
0.00221807
0.00225025
0.00197975
0.00217667
0.00206775
0.00217457
0.00220338
0.00265701
0.00294431
0.00351925
0.00390718
0.00466332
0.0050012
0.00178948
0.00169568
0.00157245
0.00131155
0.00107962
0.00089269
0.000972674
0.000842469
0.0007793
0.000519794
0.000665507
0.000575748
0.000622424
0.000723689
0.000890105
0.00081599
0.00105227
0.00146799
0.0014899
0.00162126
0.0298622
0.027374
0.0247386
0.0220904
0.0200974
0.018116
0.0166036
0.0154441
0.014559
0.0140947
0.0141863
0.0143612
0.0147592
0.0159842
0.0171979
0.0186146
0.0208177
0.022925
0.0256375
0.0280984
0.0262389
0.0239492
0.0215617
0.019374
0.0173803
0.0158305
0.0143753
0.0133672
0.0127345
0.0123885
0.0124102
0.0124143
0.0127596
0.0136014
0.014734
0.0162059
0.0180193
0.0199568
0.0223194
0.0244957
0.0222868
0.0205919
0.0183608
0.0165557
0.0148984
0.0134909
0.0123101
0.0113158
0.0108109
0.0105613
0.0104301
0.0105571
0.0111661
0.0116864
0.012449
0.0138302
0.0153691
0.0170878
0.0191535
0.0206522
0.0183892
0.0169335
0.0154176
0.013818
0.0121441
0.011084
0.0102281
0.00944584
0.00880899
0.00868165
0.00841987
0.00872239
0.00918778
0.00956028
0.0102728
0.0114135
0.0126173
0.0142159
0.0157283
0.0173314
0.0148102
0.013307
0.0120943
0.0108913
0.00975441
0.00861278
0.00793513
0.0075158
0.00708106
0.0066739
0.00673544
0.00686266
0.00718294
0.00755604
0.00800774
0.00911432
0.0100003
0.0112429
0.0123202
0.0134119
0.0106606
0.00983542
0.00888062
0.00794186
0.0070621
0.00654098
0.00572286
0.00519974
0.00490455
0.00482717
0.00483503
0.00499215
0.00525528
0.00552889
0.00590911
0.00663023
0.00702043
0.00792762
0.00883809
0.00971767
0.00635881
0.00614978
0.00553463
0.00487301
0.00424612
0.00384626
0.00361294
0.00325525
0.00297887
0.00292888
0.0030508
0.00301321
0.00322749
0.00318327
0.00347375
0.00399004
0.00431117
0.00482905
0.00547932
0.00588062
0.00225034
0.00203456
0.00194273
0.00167969
0.00135768
0.00129044
0.00107806
0.0012116
0.00107902
0.000999316
0.00111683
0.00103396
0.00121694
0.00130526
0.00132071
0.00130868
0.00150136
0.00163508
0.00166878
0.00204984
0.035285
0.0325878
0.0299258
0.0273663
0.0249675
0.0231369
0.0216909
0.0203977
0.019432
0.0191235
0.01907
0.0190362
0.0196734
0.0205852
0.0218257
0.0235722
0.0255407
0.0280225
0.0309587
0.0333128
0.0307402
0.0286441
0.0260397
0.0239314
0.0217869
0.0202391
0.0187176
0.0177621
0.0170181
0.0165373
0.0164754
0.0166951
0.0169979
0.0179009
0.0190897
0.0205754
0.0224906
0.0244859
0.027034
0.0289825
0.0264179
0.0245424
0.0224977
0.0203429
0.0186991
0.0173766
0.0161763
0.0149663
0.0143945
0.0141721
0.0139067
0.0143394
0.0146817
0.0154206
0.0162384
0.0175866
0.0190842
0.0206594
0.0229521
0.0246444
0.0220833
0.0205374
0.018558
0.0171078
0.0156653
0.0141153
0.0133754
0.01253
0.011789
0.0116557
0.0114321
0.0115773
0.0119887
0.0125455
0.0134139
0.0144284
0.0157845
0.0172427
0.0188947
0.0206081
0.0172909
0.0162133
0.0147226
0.0133859
0.0122186
0.0114657
0.0105198
0.0100364
0.0094359
0.00914477
0.0091583