/*--------------------------------*- C++ -*----------------------------------*\
| =========                 |                                                 |
| \\      /  F ield         | OpenFOAM: The Open Source CFD Toolbox           |
|  \\    /   O peration     | Version:  2212                                  |
|   \\  /    A nd           | Website:  www.openfoam.com                      |
|    \\/     M anipulation  |                                                 |
\*---------------------------------------------------------------------------*/
FoamFile
{
    version     2.0;
    format      ascii;
    arch        "LSB;label=32;scalar=64";
    class       volScalarField;
    location    "0";
    object      stateMean;
}
// * * * * * * * * * * * * * * * * * * * * * * * * * * * * * * * * * * * * * //

dimensions      [0 0 0 1 0 0 0];

internalField   nonuniform List<scalar> 
3200
(
331.853
332.462
333.153
333.806
334.337
334.753
335.089
335.479
335.586
335.625
335.608
335.482
335.167
334.884
334.48
333.956
333.345
332.75
331.974
331.267
327.638
328.132
328.75
329.299
329.792
330.127
330.445
330.733
330.824
330.892
330.917
330.748
330.561
330.259
329.884
329.455
328.95
328.392
327.777
327.224
323.374
323.864
324.409
324.838
325.25
325.496
325.74
326.049
326.152
326.126
326.102
326.016
325.919
325.565
325.33
324.989
324.57
324.015
323.482
323.055
319.108
319.498
319.99
320.274
320.697
320.912
321.148
321.339
321.407
321.413
321.392
321.394
321.188
320.988
320.714
320.467
320.148
319.685
319.272
318.908
314.844
315.158
315.495
315.797
316.057
316.22
316.463
316.607
316.602
316.686
316.679
316.604
316.45
316.315
316.182
315.894
315.599
315.357
315.041
314.722
310.677
310.806
311.102
311.28
311.466
311.61
311.667
311.811
311.935
311.885
311.942
311.879
311.808
311.683
311.518
311.337
311.208
310.935
310.701
310.551
306.419
306.478
306.618
306.847
306.855
306.965
307.066
307.129
307.147
307.141
307.176
307.142
307.056
307.056
306.976
306.818
306.612
306.567
306.472
306.274
302.115
302.281
302.247
302.257
302.28
302.33
302.374
302.385
302.427
302.345
302.343
302.389
302.319
302.347
302.389
302.288
302.175
302.159
302.137
302.18
332.625
333.376
334.008
334.753
335.289
335.747
336.106
336.384
336.479
336.643
336.537
336.447
336.185
335.872
335.473
334.912
334.36
333.661
332.889
332.212
328.297
328.847
329.418
330.037
330.513
330.918
331.277
331.441
331.638
331.751
331.73
331.535
331.337
331.054
330.757
330.308
329.689
329.196
328.539
327.922
324.031
324.489
324.978
325.347
325.799
326.165
326.453
326.632
326.763
326.811
326.842
326.683
326.537
326.33
325.954
325.597
325.143
324.678
324.115
323.651
319.524
319.929
320.328
320.763
321.085
321.38
321.653
321.774
321.886
321.928
321.985
321.831
321.779
321.542
321.238
320.99
320.621
320.212
319.797
319.329
315.244
315.491
315.865
316.133
316.36
316.668
316.849
316.976
316.998
317.093
316.998
317.005
316.873
316.774
316.539
316.326
316.013
315.642
315.323
315.048
310.83
311.045
311.301
311.571
311.721
311.905
312.058
312.216
312.178
312.195
312.116
312.134
312.095
311.939
311.807
311.622
311.373
311.286
310.964
310.776
306.567
306.684
306.76
306.882
306.99
307.08
307.245
307.274
307.275
307.357
307.325
307.326
307.29
307.223
307.102
307.031
306.887
306.724
306.628
306.442
302.175
302.201
302.283
302.342
302.369
302.371
302.343
302.45
302.454
302.455
302.434
302.436
302.369
302.399
302.425
302.291
302.319
302.248
302.279
302.178
333.748
334.424
335.233
335.875
336.532
336.908
337.407
337.696
337.905
337.94
337.896
337.769
337.456
337.171
336.74
336.19
335.587
334.882
334.07
333.353
329.291
329.812
330.403
331.049
331.578
331.933
332.353
332.574
332.769
332.845
332.78
332.73
332.475
332.213
331.84
331.326
330.795
330.146
329.59
328.968
324.752
325.287
325.733
326.227
326.735
327.018
327.349
327.596
327.661
327.766
327.688
327.603
327.554
327.233
326.873
326.494
326.052
325.508
325.016
324.446
320.252
320.643
321.005
321.449
321.811
322.143
322.361
322.509
322.635
322.684
322.632
322.588
322.486
322.247
322.008
321.686
321.335
320.933
320.427
319.984
315.728
315.991
316.413
316.657
316.96
317.107
317.399
317.564
317.568
317.663
317.66
317.533
317.441
317.29
317.079
316.882
316.551
316.197
315.884
315.584
311.273
311.451
311.675
311.884
312.046
312.242
312.377
312.477
312.508
312.569
312.626
312.503
312.497
312.362
312.246
312.06
311.823
311.585
311.346
311.114
306.781
306.873
307.008
307.12
307.338
307.386
307.471
307.555
307.502
307.59
307.602
307.562
307.486
307.39
307.34
307.125
307.091
306.968
306.803
306.726
302.22
302.241
302.348
302.341
302.435
302.453
302.556
302.445
302.55
302.585
302.482
302.532
302.477
302.512
302.499
302.513
302.31
302.325
302.283
302.248
334.982
335.661
336.554
337.203
337.789
338.334
338.791
339.069
339.267
339.364
339.342
339.224
338.982
338.572
338.138
337.608
336.937
336.219
335.373
334.673
330.311
330.916
331.598
332.216
332.632
333.115
333.512
333.801
333.912
334.097
334.076
333.917
333.659
333.485
332.955
332.517
332.003
331.34
330.667
330.031
325.561
326.092
326.615
327.148
327.636
328.043
328.306
328.549
328.691
328.818
328.743
328.686
328.523
328.282
327.982
327.485
327.024
326.484
325.904
325.407
320.906
321.337
321.831
322.238
322.6
322.983
323.155
323.378
323.47
323.526
323.519
323.441
323.256
323.124
322.821
322.489
322.143
321.708
321.227
320.791
316.25
316.614
316.934
317.235
317.575
317.83
317.962
318.136
318.27
318.297
318.239
318.205
318.153
317.998
317.723
317.496
317.186
316.773
316.502
316.141
311.629
311.884
312.093
312.343
312.588
312.724
312.876
312.964
313.044
313.08
313.085
313.064
312.954
312.77
312.67
312.453
312.241
312.036
311.808
311.546
306.97
307.115
307.254
307.43
307.474
307.658
307.702
307.783
307.829
307.832
307.769
307.803
307.742
307.711
307.623
307.527
307.357
307.196
307.08
306.929
302.306
302.373
302.453
302.524
302.492
302.574
302.612
302.605
302.589
302.652
302.635
302.607
302.582
302.602
302.602
302.461
302.498
302.466
302.363
302.291
336.239
336.964
337.835
338.526
339.198
339.749
340.194
340.478
340.703
340.75
340.74
340.636
340.299
340.015
339.595
338.98
338.299
337.499
336.659
335.917
331.375
331.925
332.659
333.339
333.884
334.321
334.762
335.011
335.219
335.308
335.294
335.114
334.952
334.686
334.233
333.793
333.185
332.484
331.862
331.093
326.476
327.024
327.676
328.133
328.647
329.086
329.385
329.648
329.718
329.867
329.777
329.683
329.553
329.308
328.926
328.522
328.018
327.453
326.895
326.335
321.66
322.025
322.581
322.989
323.36
323.68
324.002
324.206
324.364
324.408
324.377
324.358
324.131
323.988
323.651
323.247
322.923
322.49
321.971
321.506
316.832
317.178
317.532
317.842
318.136
318.486
318.652
318.772
318.871
318.909
318.941
318.868
318.781
318.703
318.369
318.109
317.837
317.52
317.125
316.787
312.053
312.211
312.458
312.817
312.999
313.149
313.364
313.391
313.519
313.468
313.505
313.528
313.42
313.284
313.101
312.94
312.728
312.475
312.185
312.018
307.184
307.314
307.602
307.67
307.84
307.893
308.02
308.025
308.103
308.06
308.114
308.071
308.066
307.962
307.899
307.755
307.609
307.482
307.336
307.213
302.44
302.397
302.505
302.544
302.665
302.713
302.66
302.714
302.729
302.732
302.686
302.785
302.692
302.705
302.651
302.553
302.576
302.464
302.484
302.399
337.36
338.196
339.094
339.891
340.438
341.063
341.574
341.862
342.12
342.245
342.216
342.088
341.833
341.442
341.035
340.336
339.687
338.911
338.007
337.289
332.35
333.058
333.814
334.397
335.104
335.503
335.967
336.242
336.451
336.503
336.529
336.477
336.207
335.884
335.526
335.017
334.331
333.652
332.914
332.308
327.352
327.93
328.582
329.16
329.614
330.044
330.343
330.612
330.757
330.84
330.885
330.772
330.62
330.343
329.989
329.63
329.079
328.444
327.92
327.338
322.295
322.821
323.332
323.78
324.141
324.544
324.819
325.057
325.229
325.281
325.236
325.236
325.003
324.804
324.562
324.098
323.75
323.31
322.706
322.348
317.368
317.769
318.14
318.427
318.806
319.125
319.361
319.438
319.551
319.602
319.589
319.55
319.441
319.268
319.094
318.797
318.526
318.087
317.662
317.361
312.395
312.653
312.97
313.173
313.402
313.614
313.766
313.858
313.954
314.01
314.025
313.964
313.895
313.73
313.593
313.395
313.158
312.894
312.675
312.378
307.463
307.607
307.782
307.97
308.098
308.233
308.228
308.344
308.411
308.424
308.404
308.391
308.359
308.265
308.268
308.049
307.942
307.749
307.585
307.47
302.599
302.589
302.563
302.708
302.745
302.7
302.734
302.764
302.795
302.792
302.89
302.794
302.782
302.786
302.688
302.634
302.71
302.66
302.52
302.432
338.6
339.4
340.328
341.087
341.881
342.446
342.931
343.229
343.535
343.589
343.6
343.505
343.149
342.773
342.414
341.774
341.099
340.21
339.278
338.496
333.375
334.115
334.806
335.541
336.11
336.665
337.144
337.424
337.596
337.762
337.677
337.627
337.383
337.101
336.695
336.155
335.518
334.811
334.083
333.423
328.203
328.85
329.411
329.985
330.578
330.99
331.397
331.587
331.87
331.919
331.923
331.842
331.621
331.365
330.964
330.548
330.035
329.405
328.793
328.272
323.077
323.512
323.982
324.54
324.966
325.287
325.672
325.836
325.981
326.072
326.072
326.015
325.88
325.56
325.301
325.013
324.534
324.046
323.51
323.058
317.959
318.273
318.671
319.076
319.47
319.739
319.896
320.028
320.215
320.269
320.235
320.2
320.055
319.88
319.677
319.472
319.057
318.737
318.321
317.903
312.75
313.059
313.328
313.715
313.845
314.149
314.265
314.355
314.391
314.424
314.475
314.485
314.363
314.231
314.104
313.889
313.593
313.32
313.135
312.893
307.676
307.8
308.104
308.171
308.356
308.373
308.505
308.549
308.679
308.682
308.649
308.645
308.649
308.56
308.467
308.356
308.206
308.026
307.886
307.697
302.607
302.645
302.659
302.731
302.826
302.876
302.834
302.875
302.887
302.892
302.881
302.868
302.913
302.833
302.846
302.844
302.756
302.681
302.567
302.58
339.774
340.584
341.509
342.368
343.059
343.694
344.161
344.681
344.859
344.965
345.002
344.838
344.555
344.213
343.692
343.071
342.302
341.437
340.602
339.804
334.381
335.126
335.902
336.59
337.262
337.865
338.258
338.623
338.816
338.872
338.872
338.864
338.57
338.248
337.745
337.26
336.553
335.948
335.099
334.409
329.076
329.664
330.341
330.979
331.46
331.935
332.361
332.612
332.794
332.921
332.973
332.81
332.684
332.326
331.942
331.52
330.941
330.364
329.792
329.074
323.772
324.251
324.766
325.208
325.696
326.084
326.409
326.649
326.831
326.87
326.879
326.909
326.642
326.396
326.116
325.777
325.242
324.771
324.282
323.809
318.557
318.801
319.197
319.618
320.016
320.31
320.513
320.731
320.832
320.898
320.848
320.845
320.703
320.516
320.328
320.045
319.697
319.313
318.911
318.459
313.192
313.417
313.686
314.027
314.269
314.423
314.635
314.816
314.833
314.86
314.958
314.917
314.738
314.736
314.514
314.343
314.076
313.755
313.466
313.261
307.956
308.08
308.229
308.428
308.607
308.705
308.767
308.905
308.97
308.933
308.951
308.955
308.914
308.77
308.743
308.597
308.516
308.273
308.083
307.918
302.662
302.691
302.827
302.797
302.907
302.898
302.971
303.023
303.029
303.067
303.006
303
302.969
302.931
302.921
302.896
302.846
302.698
302.678
302.622
340.811
341.653
342.591
343.481
344.289
344.973
345.469
345.823
346.21
346.251
346.2
346.099
345.869
345.494
344.881
344.295
343.534
342.658
341.793
340.839
335.335
336.053
336.912
337.683
338.319
338.82
339.312
339.634
339.907
339.996
340.034
339.936
339.679
339.418
338.902
338.294
337.72
336.994
336.18
335.433
329.928
330.455
331.098
331.776
332.324
332.832
333.225
333.519
333.758
333.803
333.752
333.778
333.499
333.302
332.912
332.448
331.841
331.176
330.5
329.951
324.445
324.909
325.479
326.006
326.419
326.872
327.14
327.35
327.572
327.641
327.602
327.652
327.395
327.189
326.837
326.469
326.082
325.536
325.056
324.518
318.944
319.427
319.771
320.178
320.538
320.819
321.091
321.301
321.447
321.529
321.539
321.436
321.372
321.115
320.935
320.606
320.242
319.841
319.436
318.981
313.576
313.817
314.085
314.378
314.714
314.863
315.093
315.224
315.235
315.32
315.272
315.358
315.18
315.106
314.923
314.759
314.378
314.131
313.915
313.659
308.169
308.273
308.536
308.647
308.838
308.947
309.042
309.111
309.163
309.222
309.181
309.198
309.151
309.06
308.959
308.809
308.684
308.579
308.321
308.233
302.725
302.82
302.893
302.867
302.929
302.984
303.049
303.055
303.075
303.138
303.055
303.124
303.046
303.023
303.021
302.918
302.976
302.896
302.739
302.704
341.835
342.735
343.702
344.686
345.351
346.113
346.654
347.034
347.291
347.537
347.432
347.435
347.114
346.781
346.179
345.495
344.682
343.839
342.889
342.029
336.273
336.966
337.812
338.599
339.248
339.857
340.345
340.752
340.91
341.139
341.118
340.929
340.73
340.481
339.91
339.36
338.782
337.88
337.06
336.275
330.613
331.228
331.934
332.642
333.203
333.666
334.077
334.374
334.608
334.734
334.741
334.629
334.461
334.148
333.813
333.265
332.695
332.076
331.387
330.689
325.079
325.483
326.053
326.659
327.138
327.518
327.865
328.15
328.283
328.383
328.378
328.288
328.22
327.913
327.596
327.188
326.765
326.211
325.72
325.135
319.434
319.86
320.256
320.694
321.121
321.447
321.678
321.934
321.962
322.012
322.081
321.95
321.846
321.764
321.374
321.192
320.8
320.358
319.924
319.565
313.916
314.161
314.416
314.781
315.083
315.303
315.536
315.629
315.619
315.7
315.747
315.67
315.64
315.494
315.389
315.079
314.859
314.575
314.282
313.98
308.317
308.555
308.716
308.887
308.994
309.187
309.213
309.44
309.449
309.453
309.48
309.537
309.362
309.284
309.222
309.108
308.882
308.734
308.616
308.404
302.748
302.841
302.938
302.99
303.086
303.061
303.093
303.148
303.181
303.136
303.182
303.169
303.137
303.138
303.1
303.037
302.969
302.922
302.885
302.834
342.823
343.695
344.71
345.694
346.529
347.187
347.792
348.194
348.503
348.709
348.581
348.543
348.312
347.836
347.281
346.671
345.894
344.926
343.95
343.026
337.036
337.812
338.673
339.5
340.254
340.796
341.417
341.693
341.956
342.1
342.062
342.027
341.749
341.416
340.943
340.379
339.7
338.912
338.093
337.314
331.321
331.931
332.664
333.385
333.89
334.513
334.892
335.246
335.495
335.585
335.578
335.486
335.271
335.019
334.596
334.084
333.559
332.852
332.169
331.571
325.605
326.116
326.721
327.322
327.789
328.14
328.467
328.768
328.958
329.034
329.015
328.981
328.856
328.664
328.33
327.9
327.467
326.964
326.336
325.821
319.905
320.308
320.75
321.131
321.616
321.938
322.17
322.336
322.58
322.592
322.553
322.555
322.453
322.258
322.067
321.703
321.323
320.934
320.465
320.104
314.243
314.476
314.856
315.113
315.411
315.554
315.803
316.017
316.172
316.152
316.127
316.141
316.067
315.913
315.704
315.473
315.23
314.925
314.599
314.34
308.538
308.652
308.892
309.086
309.194
309.373
309.587
309.591
309.617
309.704
309.699
309.677
309.626
309.509
309.466
309.274
309.173
308.907
308.761
308.62
302.864
302.875
302.984
303.053
303.133
303.105
303.168
303.167
303.204
303.283
303.27
303.295
303.182
303.209
303.121
303.087
303.077
303.019
302.912
302.905
343.744
344.612
345.733
346.666
347.495
348.235
348.792
349.275
349.575
349.694
349.782
349.513
349.388
348.947
348.39
347.676
346.886
345.962
344.947
344.041
337.853
338.688
339.477
340.436
341.087
341.679
342.176
342.63
342.929
343.065
342.979
343.044
342.743
342.426
341.838
341.327
340.577
339.716
338.908
338.138
331.963
332.671
333.376
334.092
334.667
335.278
335.618
336.03
336.265
336.359
336.375
336.31
336.043
335.828
335.483
334.912
334.354
333.599
332.963
332.257
326.099
326.614
327.247
327.743
328.351
328.8
329.182
329.413
329.554
329.703
329.694
329.618
329.467
329.237
328.951
328.518
328.036
327.541
326.944
326.369
320.283
320.658
321.176
321.584
322.078
322.385
322.712
322.891
323.034
323.09
323.041
323.067
322.906
322.777
322.492
322.177
321.836
321.337
320.927
320.593
314.473
314.706
315.085
315.434
315.755
316.017
316.121
316.3
316.457
316.489
316.464
316.439
316.319
316.226
316.031
315.847
315.615
315.249
314.917
314.649
308.693
308.868
309.113
309.263
309.471
309.615
309.675
309.864
309.903
309.84
309.914
309.835
309.853
309.771
309.63
309.505
309.403
309.149
308.915
308.803
302.965
303.018
303.001
303.125
303.203
303.215
303.288
303.315
303.315
303.283
303.319
303.37
303.278
303.254
303.238
303.223
303.155
303.135
303.034
302.955
344.499
345.524
346.514
347.549
348.441
349.149
349.728
350.231
350.606
350.733
350.791
350.605
350.302
349.92
349.346
348.717
347.887
346.901
345.863
344.927
338.542
339.371
340.255
341.135
341.873
342.529
343.055
343.505
343.727
343.936
343.91
343.764
343.486
343.202
342.69
342.196
341.378
340.629
339.728
338.922
332.568
333.19
334.029
334.687
335.31
335.957
336.426
336.765
336.953
337.154
337.112
337.038
336.752
336.471
336.134
335.62
334.96
334.345
333.541
332.98
326.672
327.153
327.755
328.389
328.922
329.377
329.753
329.97
330.216
330.412
330.328
330.269
330.159
329.844
329.535
329.067
328.632
328.054
327.449
326.967
320.702
321.095
321.634
322.117
322.511
322.798
323.166
323.337
323.493
323.601
323.611
323.533
323.35
323.301
323.007
322.65
322.286
321.843
321.321
320.945
314.766
315.043
315.407
315.711
316.022
316.27
316.554
316.671
316.778
316.839
316.798
316.751
316.746
316.576
316.374
316.111
315.89
315.591
315.244
314.961
308.902
309.098
309.21
309.442
309.611
309.741
309.892
309.963
310.037
310.047
310.047
310.109
310.048
309.906
309.855
309.751
309.496
309.329
309.183
309.017
302.971
303.09
303.17
303.205
303.24
303.321
303.346
303.377
303.325
303.393
303.433
303.362
303.383
303.351
303.295
303.222
303.178
303.203
303.12
303.025
345.31
346.251
347.35
348.39
349.251
350.073
350.656
351.18
351.462
351.606
351.648
351.525
351.284
350.836
350.25
349.523
348.792
347.733
346.754
345.79
339.202
340.007
340.923
341.76
342.582
343.288
343.869
344.244
344.547
344.648
344.67
344.609
344.337
344.016
343.529
342.907
342.228
341.407
340.472
339.622
333.139
333.849
334.611
335.309
335.955
336.564
337.094
337.36
337.636
337.737
337.82
337.7
337.471
337.149
336.856
336.268
335.641
334.917
334.253
333.502
327.092
327.586
328.233
328.846
329.434
329.905
330.241
330.482
330.808
330.886
330.848
330.835
330.595
330.412
330.036
329.688
329.111
328.609
327.881
327.464
321.045
321.535
321.958
322.433
322.784
323.245
323.535
323.701
323.915
324.01
323.983
323.985
323.822
323.628
323.29
323.037
322.687
322.229
321.749
321.372
315.063
315.367
315.707
315.94
316.264
316.596
316.75
316.952
317.084
317.117
317.152
317.118
317.008
316.895
316.668
316.484
316.254
315.885
315.533
315.261
308.992
309.211
309.424
309.571
309.803
309.949
310.062
310.133
310.259
310.302
310.337
310.239
310.188
310.102
310.066
309.876
309.732
309.542
309.376
309.197
303.007
303.076
303.15
303.201
303.289
303.379
303.334
303.349
303.42
303.43
303.442
303.433
303.47
303.362
303.377
303.254
303.223
303.149
303.098
303.098
345.871
346.896
348.037
349.067
349.955
350.793
351.457
352.011
352.286
352.509
352.462
352.371
352.078
351.785
351.062
350.364
349.634
348.59
347.511
346.502
339.692
340.617
341.553
342.497
343.246
343.903
344.474
344.948
345.253
345.412
345.439
345.38
345.007
344.705
344.265
343.65
342.872
342.027
341.141
340.204
333.636
334.357
335.094
335.848
336.47
337.149
337.594
337.917
338.245
338.349
338.422
338.293
338.06
337.799
337.399
336.896
336.286
335.526
334.757
334.131
327.491
328.051
328.681
329.335
329.825
330.396
330.698
331.056
331.19
331.363
331.453
331.305
331.227
330.942
330.603
330.103
329.606
329.047
328.42
327.963
321.387
321.792
322.281
322.777
323.237
323.581
323.945
324.084
324.253
324.354
324.419
324.338
324.173
324.026
323.71
323.451
323.055
322.559
322.113
321.682
315.236
315.614
315.921
316.303
316.598
316.878
317.095
317.176
317.299
317.436
317.456
317.395
317.246
317.216
316.971
316.777
316.455
316.101
315.717
315.425
309.175
309.319
309.583
309.756
309.954
310.074
310.287
310.365
310.371
310.463
310.402
310.428
310.379
310.347
310.178
310.056
309.844
309.687
309.418
309.288
303.09
303.126
303.176
303.267
303.348
303.416
303.401
303.448
303.472
303.554
303.51
303.534
303.515
303.476
303.417
303.428
303.345
303.207
303.189
303.141
346.536
347.55
348.645
349.75
350.615
351.465
352.131
352.645
353.031
353.234
353.201
353.102
352.891
352.352
351.794
351.146
350.206
349.294
348.171
347.166
340.235
341.142
342.11
343.011
343.841
344.507
345.123
345.562
345.845
345.997
345.989
345.957
345.775
345.394
344.89
344.252
343.485
342.671
341.712
340.844
334.064
334.732
335.607
336.34
337.02
337.606
338.101
338.515
338.739
338.85
338.895
338.826
338.566
338.315
337.963
337.385
336.746
336.042
335.224
334.623
327.877
328.435
329.033
329.663
330.315
330.755
331.115
331.437
331.693
331.757
331.844
331.722
331.524
331.339
331.026
330.56
330.064
329.434
328.837
328.23
321.577
322.123
322.591
323.058
323.501
323.941
324.221
324.404
324.579
324.729
324.709
324.651
324.513
324.345
324.138
323.71
323.349
322.869
322.445
322.033
315.446
315.749
316.104
316.457
316.789
317.003
317.306
317.506
317.624
317.661
317.659
317.596
317.489
317.368
317.204
316.927
316.751
316.408
316.067
315.747
309.328
309.417
309.639
309.878
310.104
310.257
310.355
310.486
310.587
310.61
310.572
310.576
310.495
310.488
310.373
310.183
310.053
309.858
309.626
309.477
303.105
303.178
303.217
303.308
303.415
303.446
303.518
303.485
303.53
303.556
303.521
303.544
303.483
303.449
303.437
303.43
303.362
303.31
303.289
303.166
347.012
348.097
349.194
350.258
351.26
352.046
352.677
353.232
353.642
353.785
353.805
353.785
353.493
353.076
352.518
351.763
350.915
349.879
348.683
347.721
340.748
341.583
342.62
343.485
344.36
345.015
345.647
346.06
346.376
346.573
346.595
346.49
346.329
345.935
345.42
344.787
343.992
343.166
342.149
341.366
334.414
335.14
335.944
336.79
337.458
338.006
338.5
338.982
339.224
339.324
339.415
339.243
339.08
338.76
338.397
337.84
337.223
336.576
335.686
335.023
328.082
328.667
329.414
329.987
330.555
331.154
331.468
331.807
332.093
332.157
332.232
332.164
331.989
331.747
331.389
330.971
330.432
329.856
329.218
328.577
321.887
322.291
322.845
323.351
323.799
324.105
324.467
324.667
324.894
325.004
325
324.972
324.802
324.548
324.437
324.047
323.701
323.211
322.712
322.216
315.586
315.957
316.346
316.702
316.977
317.293
317.507
317.706
317.842
317.846
317.882
317.854
317.718
317.644
317.415
317.227
316.914
316.596
316.246
315.91
309.376
309.539
309.81
310.006
310.185
310.397
310.411
310.613
310.651
310.722
310.711
310.677
310.712
310.543
310.419
310.334
310.137
310.011
309.772
309.578
303.213
303.183
303.282
303.369
303.43
303.459
303.545
303.53
303.632
303.589
303.641
303.563
303.593
303.509
303.511
303.467
303.414
303.378
303.306
303.214
347.391
348.441
349.631
350.752
351.676
352.495
353.195
353.783
354.167
354.307
354.353
354.275
354.005
353.588
352.94
352.239
351.437
350.371
349.229
348.186
341.107
341.879
342.94
343.874
344.742
345.402
346.069
346.494
346.799
347.063
347.036
346.971
346.709
346.334
345.871
345.265
344.549
343.613
342.632
341.752
334.717
335.411
336.306
337.063
337.763
338.312
338.893
339.286
339.62
339.683
339.747
339.64
339.525
339.214
338.742
338.263
337.571
336.855
336.093
335.408
328.375
328.973
329.665
330.275
330.825
331.379
331.795
332.147
332.322
332.539
332.505
332.42
332.25
332.135
331.697
331.234
330.68
330.126
329.445
328.91
322.047
322.557
322.993
323.533
323.995
324.407
324.748
324.913
325.223
325.229
325.238
325.22
325.095
324.931
324.633
324.231
323.858
323.425
322.997
322.466
315.674
316.104
316.452
316.816
317.155
317.408
317.662
317.844
317.914
317.962
318.006
318.001
317.908
317.752
317.652
317.373
316.959
316.737
316.358
316.132
309.449
309.692
309.873
310.095
310.264
310.433
310.599
310.653
310.78
310.788
310.859
310.808
310.754
310.736
310.595
310.445
310.162
310.048
309.804
309.712
303.107
303.223
303.305
303.339
303.395
303.539
303.527
303.633
303.576
303.574
303.56
303.615
303.548
303.523
303.514
303.466
303.453
303.359
303.277
303.23
347.707
348.749
349.945
351.08
351.995
352.916
353.634
354.116
354.466
354.693
354.744
354.632
354.372
354.037
353.349
352.634
351.804
350.78
349.679
348.535
341.305
342.31
343.295
344.269
345.035
345.754
346.318
346.849
347.15
347.345
347.424
347.283
347.031
346.698
346.178
345.533
344.83
343.894
342.95
342.175
334.909
335.659
336.467
337.256
338.064
338.682
339.196
339.525
339.808
339.912
340.048
340.006
339.801
339.521
339.047
338.51
337.859
337.127
336.34
335.587
328.606
329.132
329.842
330.522
331.077
331.525
332.036
332.314
332.565
332.693
332.767
332.748
332.543
332.259
331.86
331.471
330.878
330.36
329.704
329.113
322.23
322.623
323.17
323.662
324.136
324.511
324.893
325.132
325.301
325.372
325.404
325.385
325.326
325.079
324.811
324.49
324.005
323.588
323.118
322.697
315.812
316.149
316.561
316.84
317.296
317.471
317.733
317.926
318.132
318.211
318.137
318.066
318.033
317.867
317.636
317.423
317.24
316.801
316.497
316.17
309.527
309.721
309.976
310.187
310.387
310.498
310.631
310.735
310.864
310.832
310.9
310.832
310.823
310.738
310.641
310.486
310.345
310.119
309.885
309.677
303.207
303.231
303.339
303.403
303.455
303.529
303.594
303.62
303.655
303.654
303.632
303.625
303.677
303.606
303.541
303.535
303.56
303.46
303.384
303.2
347.874
348.946
350.1
351.324
352.28
353.167
353.808
354.387
354.71
354.987
354.962
354.925
354.63
354.226
353.636
352.904
352.005
350.954
349.812
348.805
341.431
342.317
343.386
344.305
345.199
345.939
346.539
347.031
347.436
347.581
347.597
347.52
347.328
346.863
346.405
345.736
345.002
344.119
343.086
342.237
334.977
335.765
336.673
337.466
338.26
338.77
339.392
339.801
340.034
340.237
340.252
340.116
339.954
339.689
339.3
338.626
338.031
337.273
336.48
335.772
328.593
329.277
329.939
330.604
331.191
331.788
332.121
332.435
332.643
332.874
332.902
332.852
332.646
332.442
332.119
331.613
331.059
330.508
329.837
329.254
322.279
322.701
323.216
323.758
324.193
324.696
324.906
325.218
325.416
325.502
325.565
325.484
325.316
325.147
324.923
324.587
324.171
323.744
323.188
322.773
315.919
316.233
316.658
316.961
317.368
317.596
317.845
318.037
318.17
318.226
318.197
318.24
318.135
318.003
317.688
317.522
317.271
316.909
316.529
316.221
309.583
309.683
309.99
310.176
310.426
310.608
310.665
310.831
310.897
310.906
310.9
310.918
310.94
310.798
310.676
310.493
310.386
310.166
309.928
309.707
303.218
303.256
303.35
303.425
303.506
303.531
303.546
303.625
303.697
303.643
303.723
303.638
303.635
303.643
303.596
303.503
303.491
303.427
303.31
303.288
)
;

boundaryField
{
    hotSide
    {
        type            fixedGradient;
        gradient        nonuniform List<scalar> 
400
(
321.511
322.87
325.591
329.677
335.133
341.965
350.181
359.788
370.794
383.208
397.037
412.289
428.971
447.088
466.647
487.651
510.105
534.011
559.372
586.191
323.738
325.08
327.767
331.802
337.194
343.949
352.078
361.591
372.498
384.81
398.537
413.687
430.268
448.289
467.755
488.672
511.043
534.872
560.161
586.913
326.149
327.47
330.116
334.091
339.406
346.071
354.099
363.503
374.296
386.491
400.101
415.136
431.606
449.52
468.885
489.706
511.988
535.735
560.948
587.63
328.704
330
332.597
336.503
341.73
348.292
356.205
365.485
376.15
388.215
401.695
416.604
432.954
450.753
470.009
490.73
512.919
536.579
561.714
588.325
331.33
332.599
335.142
338.97
344.099
350.546
358.332
367.477
378.003
389.928
403.271
418.047
434.27
451.949
471.095
491.712
513.807
537.382
562.439
588.978
333.918
335.158
337.643
341.389
346.414
352.74
360.392
369.397
379.779
391.562
404.765
419.407
435.503
453.065
472.101
492.618
514.622
538.114
563.096
589.569
336.321
337.531
339.959
343.622
348.544
354.751
362.274
371.142
381.385
393.031
406.101
420.618
436.595
454.047
472.983
493.409
515.33
538.747
563.663
590.076
338.36
339.543
341.92
345.509
350.339
356.44
363.847
372.595
382.718
394.244
407.2
421.608
437.485
454.844
473.695
494.045
515.897
539.253
564.114
590.478
339.852
341.015
343.352
346.885
351.645
357.665
364.985
373.643
383.675
395.113
407.984
422.312
438.116
455.407
474.197
494.491
516.294
539.606
564.428
590.758
340.643
341.795
344.11
347.613
352.334
358.311
365.584
374.193
384.176
395.567
408.393
422.679
438.443
455.699
474.456
494.722
516.498
539.788
564.589
590.901
340.643
341.795
344.11
347.613
352.334
358.311
365.584
374.193
384.176
395.567
408.393
422.679
438.443
455.699
474.456
494.722
516.498
539.788
564.589
590.901
339.852
341.015
343.352
346.885
351.645
357.665
364.985
373.643
383.675
395.113
407.984
422.312
438.116
455.407
474.197
494.491
516.294
539.606
564.428
590.758
338.36
339.543
341.92
345.509
350.339
356.44
363.847
372.595
382.718
394.244
407.2
421.608
437.485
454.844
473.695
494.045
515.897
539.253
564.114
590.478
336.321
337.531
339.959
343.622
348.544
354.751
362.274
371.142
381.385
393.031
406.101
420.618
436.595
454.047
472.983
493.409
515.33
538.747
563.663
590.076
333.918
335.158
337.643
341.389
346.414
352.74
360.392
369.397
379.779
391.562
404.765
419.407
435.503
453.065
472.101
492.618
514.622
538.114
563.096
589.569
331.33
332.599
335.142
338.97
344.099
350.546
358.332
367.477
378.003
389.928
403.271
418.047
434.27
451.949
471.095
491.712
513.807
537.382
562.439
588.978
328.704
330
332.597
336.503
341.73
348.292
356.205
365.485
376.15
388.215
401.695
416.604
432.954
450.753
470.009
490.73
512.919
536.579
561.714
588.325
326.149
327.47
330.116
334.091
339.406
346.071
354.099
363.503
374.296
386.491
400.101
415.136
431.606
449.52
468.885
489.706
511.988
535.735
560.948
587.63
323.738
325.08
327.767
331.802
337.194
343.949
352.078
361.591
372.498
384.81
398.537
413.687
430.268
448.289
467.755
488.672
511.043
534.872
560.161
586.913
321.511
322.87
325.591
329.677
335.133
341.965
350.181
359.788
370.794
383.208
397.037
412.289
428.971
447.088
466.647
487.651
510.105
534.011
559.372
586.191
)
;
    }
    coldSide
    {
        type            mixed;
        refValue        uniform 300;
        refGradient     uniform 0;
        valueFraction   uniform 0.991591;
        source          uniform 0;
        value           nonuniform List<scalar> 
400
(
300.018
300.018
300.019
300.019
300.021
300.022
300.022
300.022
300.023
300.023
300.024
300.025
300.025
300.025
300.026
300.026
300.027
300.026
300.027
300.027
300.019
300.019
300.019
300.02
300.02
300.022
300.022
300.023
300.024
300.024
300.024
300.025
300.026
300.026
300.026
300.027
300.027