/*--------------------------------*- C++ -*----------------------------------*\
| =========                 |                                                 |
| \\      /  F ield         | OpenFOAM: The Open Source CFD Toolbox           |
|  \\    /   O peration     | Version:  2212                                  |
|   \\  /    A nd           | Website:  www.openfoam.com                      |
|    \\/     M anipulation  |                                                 |
\*---------------------------------------------------------------------------*/
FoamFile
{
    version     2.0;
    format      ascii;
    arch        "LSB;label=32;scalar=64";
    class       volScalarField;
    location    "0";
    object      T;
}
// * * * * * * * * * * * * * * * * * * * * * * * * * * * * * * * * * * * * * //

dimensions      [0 0 0 1 0 0 0];

internalField   nonuniform List<scalar> 
3200
(
339.799
338.787
337.611
336.988
336.996
337.354
337.86
338.483
339.048
339.17
339.146
338.959
338.733
338.316
337.938
337.727
337.411
337.882
338.727
340.03
334.4
333.579
332.552
332.018
332.02
332.32
332.791
333.327
333.828
333.95
333.914
333.757
333.556
333.211
332.894
332.769
332.48
332.883
333.622
334.67
329.036
328.403
327.544
327.092
327.085
327.297
327.753
328.19
328.629
328.726
328.692
328.589
328.389
328.121
327.854
327.755
327.519
327.865
328.501
329.35
323.721
323.239
322.537
322.189
322.14
322.314
322.723
323.066
323.433
323.508
323.478
323.432
323.222
323.035
322.805
322.714
322.548
322.835
323.361
324.025
318.441
318.068
317.536
317.271
317.218
317.332
317.676
317.944
318.259
318.298
318.254
318.25
318.061
317.926
317.743
317.673
317.57
317.797
318.187
318.692
313.181
312.903
312.529
312.344
312.302
312.4
312.641
312.811
313.043
313.069
313.043
313.06
312.909
312.819
312.681
312.628
312.581
312.741
313.002
313.359
307.925
307.739
307.532
307.403
307.393
307.445
307.584
307.687
307.829
307.849
307.837
307.834
307.752
307.715
307.623
307.586
307.566
307.66
307.816
308.016
302.664
302.591
302.537
302.477
302.487
302.487
302.542
302.573
302.622
302.626
302.624
302.618
302.591
302.591
302.563
302.548
302.535
302.574
302.616
302.681
340.216
338.939
337.79
337.193
337.31
337.777
338.368
338.908
339.591
339.732
339.749
339.56
339.267
338.807
338.454
337.998
337.908
338.206
339.166
340.466
334.788
333.71
332.713
332.188
332.292
332.705
333.214
333.676
334.307
334.398
334.417
334.264
334.009
333.645
333.351
332.965
332.919
333.148
333.994
335.087
329.401
328.509
327.683
327.231
327.286
327.649
328.101
328.47
328.995
329.084
329.104
328.995
328.744
328.474
328.24
327.939
327.872
328.085
328.795
329.701
324.013
323.295
322.644
322.277
322.313
322.634
322.994
323.313
323.69
323.79
323.792
323.703
323.497
323.312
323.131
322.911
322.84
323.027
323.588
324.311
318.676
318.097
317.595
317.315
317.357
317.601
317.894
318.153
318.429
318.508
318.502
318.465
318.253
318.139
318.007
317.85
317.78
317.939
318.366
318.935
313.339
312.915
312.562
312.35
312.404
312.567
312.782
312.973
313.176
313.221
313.226
313.218
313.036
312.978
312.88
312.774
312.712
312.822
313.128
313.538
308.013
307.757
307.542
307.401
307.444
307.534
307.681
307.786
307.932
307.963
307.957
307.959
307.817
307.804
307.755
307.702
307.646
307.7
307.876
308.147
302.688
302.601
302.523
302.483
302.491
302.52
302.573
302.61
302.666
302.674
302.662
302.669
302.627
302.616
302.592
302.589
302.581
302.587
302.634
302.745
340.673
339.409
338.438
337.872
337.982
338.415
339.028
339.535
340.212
340.652
340.724
340.625
340.113
339.788
339.257
338.785
338.558
338.834
339.797
341.057
335.172
334.111
333.294
332.763
332.876
333.258
333.778
334.231
334.813
335.216
335.274
335.185
334.713
334.496
334.067
333.676
333.454
333.716
334.554
335.608
329.711
328.836
328.167
327.702
327.808
328.125
328.57
328.968
329.443
329.789
329.824
329.736
329.331
329.179
328.85
328.536
328.32
328.554
329.275
330.176
324.29
323.581
323.041
322.66
322.724
323.007
323.336
323.715
324.101
324.379
324.382
324.331
323.984
323.865
323.627
323.386
323.19
323.377
323.979
324.726
318.864
318.35
317.921
317.639
317.678
317.9
318.121
318.445
318.747
318.978
318.958
318.944
318.657
318.55
318.399
318.217
318.061
318.193
318.668
319.25
313.469
313.12
312.809
312.608
312.624
312.792
312.919
313.187
313.401
313.563
313.551
313.559
313.349
313.273
313.149
313.022
312.924
312.997
313.347
313.757
308.084
307.89
307.684
307.585
307.58
307.683
307.762
307.914
308.055
308.137
308.125
308.145
308.021
307.981
307.899
307.84
307.763
307.806
308.019
308.257
302.719
302.643
302.566
302.553
302.533
302.58
302.602
302.656
302.709
302.721
302.72
302.726
302.677
302.666
302.653
302.635
302.602
302.63
302.693
302.764
341.387
340.117
339.271
338.75
338.919
339.355
339.921
340.576
341.213
341.664
341.818
341.667
341.335
340.778
340.279
339.67
339.501
339.798
340.654
341.774
335.772
334.697
333.983
333.549
333.675
334.066
334.555
335.115
335.689
336.062
336.22
336.091
335.782
335.347
334.935
334.411
334.273
334.551
335.295
336.213
330.202
329.327
328.727
328.352
328.471
328.813
329.211
329.706
330.184
330.495
330.649
330.515
330.265
329.931
329.588
329.127
329.035
329.281
329.927
330.65
324.685
323.962
323.493
323.179
323.269
323.556
323.885
324.294
324.695
324.94
325.064
324.956
324.769
324.506
324.229
323.851
323.783
324.003
324.524
325.084
319.207
318.626
318.258
318.01
318.097
318.316
318.554
318.879
319.216
319.402
319.502
319.421
319.251
319.087
318.881
318.582
318.527
318.69
319.094
319.527
313.727
313.296
313.045
312.871
312.935
313.089
313.247
313.482
313.756
313.855
313.928
313.888
313.745
313.641
313.512
313.31
313.245
313.375
313.663
313.956
308.247
307.996
307.853
307.742
307.784
307.859
307.952
308.077
308.263
308.331
308.35
308.344
308.258
308.177
308.128
308.011
307.962
308.062
308.215
308.395
302.763
302.684
302.627
302.598
302.607
302.641
302.67
302.71
302.768
302.79
302.795
302.787
302.783
302.737
302.733
302.689
302.664
302.704
302.751
302.812
342.407
341.185
340.243
339.826
340.076
340.403
341.064
341.671
342.317
342.876
343.097
342.95
342.521
342.033
341.483
340.954
340.585
340.937
341.77
342.835
336.651
335.622
334.845
334.466
334.668
334.974
335.526
336.074
336.608
337.118
337.315
337.175
336.847
336.438
335.967
335.532
335.212
335.52
336.222
337.135
330.932
330.072
329.477
329.135
329.294
329.572
329.998
330.48
330.937
331.382
331.535
331.425
331.173
330.82
330.456
330.078
329.822
330.081
330.671
331.433
325.27
324.57
324.119
323.833
323.951
324.187
324.525
324.907
325.277
325.654
325.773
325.684
325.521
325.23
324.941
324.622
324.416
324.63
325.104
325.732
319.616
319.084
318.758
318.535
318.619
318.821
319.048
319.352
319.655
319.949
320.029
319.946
319.84
319.636
319.405
319.174
319.016
319.166
319.533
320.013
314.003
313.634
313.405
313.251
313.3
313.454
313.608
313.811
314.042
314.258
314.313
314.243
314.165
314.023
313.879
313.708
313.604
313.695
313.954
314.29
308.401
308.211
308.051
307.947
307.999
308.071
308.161
308.29
308.442
308.556
308.584
308.548
308.505
308.417
308.324
308.248
308.179
308.24
308.39
308.566
302.802
302.756
302.693
302.656
302.678
302.696
302.727
302.777
302.828
302.852
302.864
302.866
302.847
302.817
302.786
302.77
302.75
302.765
302.807
302.864
343.65
342.385
341.422
341.17
341.379
341.824
342.285
343.081
343.672
344.165
344.467
344.395
343.984
343.412
342.851
342.373
342.12
342.289
343.028
344.137
337.732
336.649
335.838
335.627
335.82
336.188
336.597
337.287
337.794
338.228
338.516
338.416
338.07
337.624
337.123
336.73
336.517
336.7
337.329
338.247
331.86
330.975
330.323
330.106
330.292
330.593
330.937
331.536
331.95
332.317
332.57
332.444
332.198
331.833
331.41
331.078
330.937
331.099
331.596
332.332
326.026
325.323
324.813
324.621
324.769
325.024
325.304
325.787
326.123
326.42
326.619
326.519
326.331
326.035
325.702
325.443
325.335
325.476
325.857
326.46
320.222
319.676
319.317
319.166
319.249
319.463
319.692
320.047
320.308
320.547
320.687
320.632
320.461
320.241
320.011
319.811
319.712
319.844
320.135
320.587
314.452
314.063
313.814
313.705
313.744
313.916
314.1
314.329
314.512
314.658
314.774
314.739
314.619
314.462
314.309
314.152
314.063
314.176
314.393
314.718
308.68
308.442
308.303
308.24
308.262
308.373
308.476
308.623
308.719
308.79
308.857
308.847
308.792
308.689
308.589
308.506
308.435
308.524
308.65
308.839
302.912
302.825
302.794
302.76
302.768
302.815
302.834
302.905
302.923
302.936
302.963
302.967
302.948
302.914
302.873
302.857
302.82
302.858
302.9
302.961
345.057
343.776
343.014
342.674
342.796
343.239
343.708
344.599
345.177
345.721
345.997
345.906
345.428
344.844
344.214
343.787
343.589
343.825
344.496
345.581
338.944
337.852
337.195
336.939
337.047
337.433
337.806
338.587
339.08
339.562
339.821
339.755
339.33
338.835
338.322
337.952
337.789
338.013
338.58
339.5
332.884
331.967
331.427
331.215
331.297
331.637
331.962
332.61
333.031
333.41
333.673
333.624
333.253
332.842
332.435
332.13
331.987
332.199
332.673
333.449
326.87
326.146
325.693
325.531
325.573
325.863
326.118
326.667
326.998
327.29
327.53
327.511
327.186
326.853
326.548
326.302
326.177
326.371
326.736
327.373
320.883
320.312
319.943
319.866
319.883
320.111
320.312
320.752
320.98
321.207
321.393
321.388
321.142
320.877
320.656
320.451
320.374
320.531
320.806
321.268
314.897
314.508
314.231
314.212
314.219
314.367
314.522
314.852
315.004
315.141
315.29
315.263
315.093
314.918
314.753
314.617
314.548
314.682
314.871
315.196
308.916
308.695
308.526
308.559
308.552
308.631
308.722
308.915
309.018
309.095
309.187
309.17
309.071
308.944
308.857
308.805
308.745
308.839
308.923
309.127
302.978
302.92
302.85
302.864
302.864
302.897
302.917
302.986
303.018
303.052
303.08
303.088
303.044
302.996
302.972
302.946
302.93
302.957
302.99
303.05
346.467
345.364
344.682
344.374
344.431
344.722
345.223
346.038
346.585
347.279
347.546
347.427
346.948
346.453
345.807
345.394
345.24
345.422
346.222
347.287
340.147
339.24
338.649
338.423
338.443
338.712
339.133
339.849
340.325
340.916
341.142
341.048
340.647
340.2
339.676
339.365
339.209
339.387
340.067
340.951
333.883
333.173
332.672
332.478
332.507
332.739
333.088
333.677
334.072
334.586
334.771
334.689
334.383
334.001
333.575
333.327
333.183
333.324
333.906
334.616
327.68
327.097
326.712
326.558
326.606
326.787
327.033
327.532
327.848
328.263
328.393
328.368
328.136
327.808
327.462
327.272
327.168
327.284
327.73
328.281
321.518
321.052
320.742
320.628
320.715
320.858
320.993
321.407
321.637
321.967
322.07
322.051
321.892
321.617
321.362
321.213
321.142
321.241
321.578
321.983
315.364
315.03
314.801
314.741
314.829
314.918
314.968
315.311
315.443
315.68
315.754
315.737
315.656
315.443
315.27
315.147
315.109
315.185
315.406
315.703
309.232
309.02
308.875
308.827
308.951
308.958
308.984
309.221
309.266
309.415
309.44
309.439
309.408
309.267
309.183
309.089
309.081
309.141
309.232
309.428
303.093
303.025
302.982
302.965
303.005
303.008
303.017
303.09
303.099
303.153
303.168
303.16
303.152
303.102
303.078
303.045
303.039
303.077
303.092
303.163
348.201
347.128
346.37
346.004
345.998
346.25
346.851
347.544
348.258
348.717
349.025
348.919
348.573
348.137
347.549
347.142
346.992
347.214
347.899
349.009
341.673
340.778
340.135
339.803
339.83
340.03
340.526
341.154
341.755
342.163
342.447
342.335
342.051
341.686
341.188
340.848
340.732
340.929
341.508
342.46
335.191
334.468
333.937
333.631
333.66
333.826
334.268
334.778
335.289
335.655
335.896
335.771
335.557
335.253
334.839
334.559
334.494
334.651
335.143
335.904
328.745
328.166
327.755
327.48
327.529
327.648
328.005
328.425
328.843
329.144
329.361
329.275
329.096
328.832
328.506
328.277
328.251
328.363
328.758
329.347
322.341
321.89
321.558
321.342
321.387
321.503
321.764
322.087
322.401
322.647
322.837
322.772
322.614
322.43
322.18
322.008
321.962
322.08
322.381
322.791
315.967
315.649
315.385
315.247
315.268
315.373
315.522
315.779
315.974
316.163
316.315
316.269
316.152
316.023
315.86
315.756
315.697
315.787
316.007
316.295
309.589
309.424
309.232
309.152
309.172
309.225
309.311
309.471
309.574
309.691
309.801
309.766
309.721
309.608
309.536
309.477
309.441
309.486
309.612
309.783
303.213
303.159
303.099
303.075
303.073
303.084
303.115
303.178
303.2
303.229
303.273
303.274
303.265
303.222
303.204
303.184
303.168
303.178
303.216
303.28
349.892
348.997
348.147
347.716
347.763
347.932
348.442
349.013
349.775
350.394
350.578
350.525
350.252
349.734
349.218
348.963
348.832
349.116
349.633
350.759
343.116
342.401
341.649
341.293
341.34
341.49
341.921
342.392
343.068
343.643
343.755
343.729
343.505
343.056
342.646
342.435
342.317
342.549
343.004
343.958
336.395
335.822
335.189
334.908
334.936
335.094
335.424
335.812
336.411
336.893
336.954
336.953
336.783
336.396
336.071
335.878
335.819
335.996
336.407
337.186
329.726
329.254
328.781
328.545
328.556
328.718
328.938
329.278
329.772
330.153
330.194
330.217
330.091
329.744
329.513
329.353
329.321
329.445
329.793
330.414
323.102
322.711
322.382
322.218
322.199
322.329
322.494
322.744
323.139
323.443
323.483
323.478
323.404
323.134
322.96
322.841
322.821
322.909
323.169
323.63
316.495
316.184
315.993
315.881
315.848
315.953
316.063
316.239
316.526
316.735
316.784
316.77
316.716
316.524
316.402
316.309
316.306
316.349
316.538
316.873
309.887
309.715
309.608
309.538
309.515
309.565
309.646
309.764
309.922
310.046
310.119
310.082
310.029
309.924
309.848
309.798
309.806
309.807
309.918
310.133
303.32
303.249
303.209
303.197
303.191
303.193
303.224
303.277
303.315
303.371
303.399
303.38
303.37
303.325
303.296
303.275
303.287
303.293
303.325
303.394
351.739
350.787
349.934
349.463
349.481
349.598
350.128
350.68
351.438
351.814
352.168
352.15
351.885
351.38
350.912
350.633
350.619
350.974
351.526
352.549
344.733
343.944
343.193
342.778
342.824
342.931
343.344
343.837
344.512
344.857
345.149
345.115
344.941
344.478
344.101
343.861
343.846
344.176
344.666
345.513
337.781
337.132
336.491
336.136
336.214
336.299
336.614
337.047
337.611
337.935
338.14
338.117
337.987
337.603
337.324
337.126
337.086
337.365
337.817
338.482
330.855
330.355
329.839
329.533
329.615
329.686
329.91
330.281
330.719
331.043
331.17
331.165
331.054
330.741
330.556
330.372
330.359
330.541
330.957
331.476
323.95
323.62
323.202
322.96
323.032
323.107
323.239
323.533
323.876
324.139
324.231
324.238
324.148
323.887
323.785
323.613
323.645
323.732
324.084
324.485
317.092
316.882
316.575
316.404
316.437
316.528
316.586
316.802
317.026
317.254
317.314
317.31
317.244
317.072
316.996
316.855
316.923
316.962
317.227
317.504
310.255
310.145
309.947
309.854
309.881
309.933
309.936
310.071
310.214
310.354
310.409
310.404
310.348
310.243
310.206
310.094
310.176
310.185
310.345
310.504
303.438
303.411
303.333
303.299
303.318
303.338
303.325
303.368
303.425
303.467
303.495
303.474
303.469
303.431
303.425
303.381
303.41
303.417
303.472
303.526
353.527
352.711
351.776
351.417
351.241
351.413
351.778
352.331
352.835
353.214
353.551
353.574
353.434
353.055
352.681
352.413
352.387
352.754
353.526
354.354
346.275
345.616
344.798
344.496
344.365
344.497
344.786
345.283
345.733
346.069
346.335
346.369
346.259
345.951
345.64
345.397
345.364
345.696
346.382
347.058
339.093
338.551
337.858
337.624
337.519
337.604
337.831
338.275
338.67
338.944
339.164
339.185
339.112
338.862
338.61
338.371
338.371
338.659
339.25
339.799
331.959
331.492
330.948
330.754
330.669
330.767
330.924
331.286
331.633
331.848
332.018
332.024
331.996
331.788
331.579
331.386
331.378
331.624
332.128
332.564
324.857
324.476
324.029
323.894
323.849
323.931
324.034
324.311
324.591
324.768
324.882
324.893
324.883
324.733
324.545
324.411
324.384
324.573
325.001
325.343
317.737
317.469
317.153
317.066
317.029
317.107
317.168
317.365
317.551
317.711
317.782
317.767
317.765
317.665
317.525
317.444
317.404
317.551
317.865
318.114
310.649
310.478
310.29
310.233
310.227
310.269
310.297
310.429
310.553
310.642
310.679
310.669
310.67
310.593
310.521
310.487
310.446
310.53
310.722
310.894
303.562
303.509
303.457
303.425
303.43
303.437
303.442
303.493
303.53
303.574
303.581
303.574
303.578
303.549
303.523
303.524
303.512
303.523
303.597
303.655
355.394
354.616
353.64
353.327
353.066
353.204
353.451
353.931
354.412
354.84
355.134
355.081
354.872
354.629
354.402
354.194
354.263
354.612
355.329
356.171
347.899
347.265
346.408
346.163
345.951
346.048
346.272
346.699
347.102
347.47
347.707
347.676
347.481
347.292
347.141
346.953
346.993
347.324
347.944
348.655
340.478
339.964
339.219
339.021
338.854
338.93
339.11
339.481
339.801
340.134
340.303
340.307
340.117
339.994
339.886
339.694
339.746
340.013
340.588
341.144
333.102
332.657
332.063
331.901
331.788
331.843
331.982
332.308
332.541
332.801
332.943
332.931
332.78
332.684
332.641
332.462
332.501
332.725
333.221
333.656
325.733
325.383
324.919
324.809
324.74
324.767
324.855
325.149
325.311
325.483
325.594
325.576
325.469
325.409
325.395
325.252
325.261
325.444
325.84
326.179
318.372
318.119
317.784
317.738
317.698
317.699
317.749
317.992
318.08
318.176
318.279
318.243
318.182
318.145
318.129
318.045
318.02
318.174
318.456
318.72
311.031
310.881
310.672
310.655
310.651
310.634
310.653
310.802
310.866
310.916
310.974
310.942
310.913
310.903
310.882
310.835
310.804
310.918
311.086
311.268
303.695
303.65
303.58
303.565
303.578
303.559
303.573
303.603
303.647
303.649
303.678
303.662
303.653
303.642
303.645
303.63
303.621
303.658
303.708
303.787
357.507
356.515
355.634
355.167
354.928
354.911
355.123
355.568
355.893
356.384
356.566
356.643
356.425
356.194
356.124
355.915
356.212
356.486
357.301
358.125
349.747
348.899
348.138
347.764
347.563
347.511
347.697
348.086
348.36
348.779
348.947
349.042
348.854
348.652
348.628
348.448
348.699
348.927
349.649
350.32
342.054
341.322
340.69
340.394
340.222
340.176
340.32
340.654
340.854
341.208
341.369
341.457
341.301
341.128
341.134
340.974
341.174
341.377
341.987
342.547
334.381
333.79
333.273
333.053
332.894
332.849
332.975
333.236
333.375
333.662
333.841
333.886
333.779
333.635
333.653
333.517
333.684
333.85
334.354
334.781
326.728
326.302
325.865
325.722
325.584
325.525
325.644
325.853
325.943
326.148
326.299
326.345
326.266
326.15
326.168
326.081
326.204
326.363
326.739
327.044
319.088
318.791
318.466
318.368
318.278
318.241
318.328
318.47
318.524
318.658
318.775
318.832
318.762
318.689
318.705
318.643
318.718
318.858
319.127
319.327
311.48
311.282
311.083
311.014
310.978
310.946
311.026
311.106
311.128
311.194
311.278
311.323
311.265
311.225
311.252
311.194
311.233
311.338
311.505
311.599
303.859
303.781
303.719
303.69
303.682
303.666
303.697
303.722
303.725
303.748
303.775
303.803
303.769
303.771
303.771
303.758
303.759
303.795
303.854
303.888
359.244
358.447
357.544
357.057
356.773
356.8
356.878
357.216
357.469
357.852
357.994
358.022
357.989
357.845
357.724
357.652
358.059
358.396
359.235
360.077
351.217
350.584
349.837
349.396
349.143
349.178
349.233
349.549
349.747
350.066
350.203
350.212
350.206
350.086
350.009
349.909
350.3
350.563
351.327
352.015
343.262
342.742
342.142
341.752
341.547
341.583
341.626
341.891
342.054
342.315
342.431
342.437
342.439
342.36
342.322
342.205
342.532
342.752
343.416
343.982
335.376
334.917
334.452
334.148
333.977
333.997
334.057
334.25
334.358
334.58
334.699
334.694
334.71
334.659
334.63
334.511
334.769
334.969
335.499
335.952
327.494
327.138
326.78
326.555
326.412
326.43
326.492
326.637
326.733
326.861
326.975
326.961
326.976
326.973
326.937
326.842
327.019
327.206
327.597
327.942
319.638
319.377
319.115
318.958
318.848
318.888
318.921
319.022
319.102
319.169
319.261
319.26
319.274
319.277
319.247
319.181
319.287
319.453
319.717
319.965
311.797
311.634
311.473
311.372
311.314
311.364
311.367
311.439
311.467
311.509
311.568
311.579
311.562
311.575
311.54
311.522
311.567
311.678
311.849
311.986
303.951
303.896
303.843
303.804
303.785
303.821
303.814
303.829
303.849
303.859
303.875
303.879
303.873
303.883
303.862
303.864
303.869
303.912
303.977
304.017
361.101
360.227
359.394
358.748
358.555
358.453
358.632
358.893
359.075
359.335
359.565
359.52
359.581
359.449
359.447
359.49
359.86
360.181
361.016
361.85
352.846
352.118
351.407
350.834
350.662
350.6
350.752
351
351.125
351.353
351.559
351.508
351.572
351.474
351.484
351.518
351.858
352.114
352.855
353.553
344.63
344.04
343.439
342.96
342.8
342.768
342.896
343.109
343.204
343.401
343.58
343.521
343.598
343.514
343.535
343.533
343.851
344.068
344.687
345.281
336.459
336.011
335.506
335.092
334.981
334.976
335.063
335.243
335.306
335.487
335.638
335.579
335.648
335.582
335.61
335.618
335.845
336.045
336.527
337.036
328.327
328.008
327.6
327.283
327.184
327.217
327.245
327.388
327.434
327.6
327.709
327.648
327.708
327.669
327.706
327.694
327.867
328.04
328.39
328.784
320.225
319.99
319.728
319.483
319.413
319.456
319.451
319.567
319.596
319.715
319.776
319.755
319.796
319.775
319.818
319.787
319.897
320.049
320.272
320.556
312.166
312.014
311.842
311.697
311.655
311.687
311.663
311.762
311.775
311.847
311.88
311.875
311.877
311.867
311.92
311.883
311.934
312.046
312.164
312.329
304.077
304.03
303.954
303.92
303.905
303.918
303.904
303.938
303.946
303.967
303.981
303.978
303.982
303.971
304
303.994
303.994
304.048
304.074
304.128
362.944
362.029
361.153
360.553
360.259
360.203
360.264
360.407
360.535
360.906
361.097
361.07
361.1
361.056
361.108
361.314
361.707
362.083
362.846
363.64
354.427
353.663
352.915
352.395
352.148
352.094
352.171
352.276
352.396
352.73
352.904
352.845
352.89
352.861
352.919
353.083
353.444
353.753
354.418
355.103
345.962
345.354
344.711
344.296
344.092
344.026
344.106
344.173
344.285
344.578
344.722
344.661
344.706
344.685
344.748
344.885
345.193
345.459
346
346.61
337.555
337.079
336.544
336.203
336.038
335.953
336.053
336.102
336.218
336.431
336.563
336.518
336.558
336.556
336.598
336.698
336.947
337.177
337.616
338.134
329.167
328.821
328.408
328.161
328.012
327.956
328.044
328.043
328.152
328.306
328.432
328.382
328.436
328.426
328.458
328.546
328.735
328.932
329.252
329.654
320.806
320.563
320.293
320.129
319.994
319.978
320.017
320.015
320.11
320.222
320.309
320.277
320.35
320.323
320.341
320.406
320.532
320.697
320.915
321.176
312.481
312.346
312.199
312.09
312.003
312.003
312.03
312.011
312.082
312.139
312.2
312.184
312.239
312.199
312.236
312.252
312.328
312.438
312.572
312.73
304.19
304.136
304.084
304.046
304.03
304.035
304.03
304.029
304.051
304.068
304.082
304.09
304.101
304.088
304.099
304.111
304.133
304.168
304.222
304.268
364.683
363.812
362.954
362.342
362.069
361.975
361.829
362.044
362.192
362.295
362.457
362.508
362.692
362.619
362.777
363.072
363.396
363.924
364.65
365.49
355.936
355.199
354.475
353.911
353.72
353.635
353.498
353.675
353.82
353.914
354.054
354.108
354.262
354.23
354.345
354.606
354.885
355.358
355.974
356.66
347.251
346.652
346.051
345.557
345.405
345.321
345.201
345.339
345.474
345.563
345.708
345.749
345.866
345.85
345.951
346.175
346.414
346.815
347.321
347.876
338.602
338.138
337.659
337.227
337.121
337.03
336.93
337.059
337.181
337.251
337.372
337.426
337.494
337.496
337.572
337.768
337.957
338.281
338.688
339.104
330.008
329.652
329.255
328.927
328.85
328.786
328.712
328.786
328.902
328.936
329.078
329.122
329.153
329.152
329.211
329.373
329.505
329.761
330.066
330.391
321.423
321.198
320.87
320.647
320.586
320.556
320.512
320.549
320.659
320.64
320.773
320.809
320.838
320.823
320.855
320.985
321.073
321.235
321.469
321.697
312.852
312.743
312.528
312.392
312.348
312.337
312.302
312.326
312.421
312.395
312.48
312.498
312.522
312.497
312.528
312.594
312.652
312.744
312.895
313.005
304.309
304.269
304.189
304.149
304.133
304.143
304.112
304.136
304.163
304.162
304.18
304.192
304.195
304.182
304.194
304.23
304.237
304.267
304.323
304.354
366.304
365.46
364.583
363.976
363.693
363.591
363.43
363.446
363.601
363.631
363.83
363.917
364.005
363.933
364.125
364.639
365.063
365.557
366.228
366.985
357.295
356.59
355.854
355.313
355.086
355.027
354.865
354.889
355.035
355.038
355.249
355.305
355.385
355.313
355.468
355.932
356.345
356.723
357.307
357.954
348.355
347.787
347.189
346.715
346.538
346.491
346.329
346.385
346.527
346.516
346.696
346.745
346.806
346.754
346.865
347.279
347.64
347.91
348.427
348.963
339.491
339.036
338.575
338.165
338.016
338.003
337.867
337.91
338.052
338.031
338.189
338.212
338.254
338.221
338.311
338.643
338.937
339.137
339.579
340.026
330.667
330.337
329.991
329.656
329.54
329.554
329.442
329.443
329.578
329.564
329.686
329.698
329.724
329.682
329.785
330.041
330.259
330.4
330.763
331.116
321.891
321.655
321.44
321.16
321.09
321.118
321.038
321.014
321.127
321.111
321.187
321.209
321.223
321.178
321.262
321.472
321.622
321.692
321.971
322.214
313.128
313.003
312.873
312.68
312.661
312.681
312.649
312.618
312.689
312.689
312.711
312.708
312.739
312.7
312.762
312.908
313.003
313.02
313.191
313.318
304.393
304.356
304.315
304.247
304.248
304.243
304.237
304.227
304.264
304.255
304.255
304.256
304.276
304.251
304.282
304.331
304.359
304.357
304.422
304.46
367.749
366.753
365.878
365.338
364.96
364.817
364.576
364.514
364.705
364.734
364.999
365.033
365.155
365.123
365.264
365.753
366.241
366.717
367.541
368.367
358.516
357.647
356.928
356.449
356.156
356.02
355.81
355.768
355.924
355.976
356.211
356.244
356.337
356.286
356.42
356.851
357.292
357.718
358.381
359.097
349.35
348.626
348.059
347.646
347.418
347.288
347.112
347.104
347.219
347.29
347.466
347.532
347.554
347.525
347.655
348.014
348.374
348.767
349.291
349.905
340.267
339.675
339.259
338.908
338.736
338.614
338.495
338.488
338.558
338.679
338.754
338.847
338.836
338.794
338.935
339.237
339.498
339.848
340.248
340.743
331.235
330.787
330.506
330.228
330.081
330.011
329.937
329.899
329.956
330.073
330.099
330.2
330.172
330.124
330.257
330.516
330.672
330.969
331.268
331.629
322.293
321.984
321.775
321.581
321.475
321.399
321.388
321.348
321.388
321.469
321.478
321.584
321.544
321.488
321.596
321.815
321.885
322.109
322.319
322.569
313.398
313.183
313.071
312.971
312.893
312.838
312.832
312.824
312.833
312.879
312.899
312.97
312.931
312.886
312.944
313.101
313.124
313.273
313.395
313.553
304.496
304.413
304.386
304.349
304.323
304.303
304.293
304.301
304.307
304.324
304.328
304.342
304.337
304.32
304.318
304.394
304.393
304.444
304.495
304.547
)
;

boundaryField
{
    hotSide
    {
        type            fixedGradient;
        gradient        nonuniform List<scalar> 
400
(
439.956
442.214
447.526
455.821
466.812
480.083
495.186
511.709
529.309
547.712
566.709
586.142
605.891
625.871
646.017
666.284
686.64
707.063
727.541
748.067
419.032
421.49
427.216
436.124
447.867
461.955
477.875
495.173
513.481
532.516
552.066
571.973
592.126
612.443
632.869
653.365
673.909
694.486
715.089
735.717
405.987
408.899
415.05
424.344
436.439
450.848
467.064
484.631
503.177
522.415
542.127
562.157
582.393
602.757
623.198
643.683
664.196
684.727
705.275
725.847
400.35
403.952
410.55
420.047
432.154
446.457
462.508
479.887
498.239
517.277
536.783
556.595
576.601
596.723
616.914
637.146
657.406
677.692
698.009
718.364
400.176
404.594
411.69
421.368
433.392
447.43
463.109
480.062
497.962
516.535
535.566
554.896
574.413
594.045
613.75
633.509
653.317
673.177
693.099
713.095
403.266
408.536
416.202
426.158
438.204
452.06
467.41
483.931
501.324
519.333
537.753
556.437
575.284
594.239
613.274
632.383
651.575
670.862
690.258
709.78
407.846
413.959
422.262
432.638
444.892
458.771
473.982
490.22
507.202
524.68
542.467
560.434
578.509
596.665
614.902
633.24
651.704
670.318
689.105
708.081
412.604
419.516
428.495
439.41
452.063
466.196
481.509
497.689
514.436
531.502
548.711
565.963
583.231
600.533
617.914
635.427
653.119
671.03
689.185
707.604
416.551
424.162
433.793
445.304
458.484
473.059
488.698
505.047
521.766
538.581
555.319
571.921
588.419
604.898
621.457
638.187
655.159
672.423
690.007
707.927
418.931
427.06
437.221
449.268
462.984
478.07
494.159
510.838
527.706
544.442
560.872
576.979
592.866
608.689
624.601
640.726
657.152
673.934
691.1
708.66
419.226
427.604
438.059
450.445
464.537
480.023
496.505
513.525
530.628
547.452
563.815
579.731
595.35
610.876
626.495
642.351
658.537
675.111
692.097
709.503
417.227
425.527
435.964
448.391
462.579
478.206
494.866
512.092
529.421
546.487
563.098
579.259
595.112
610.854
626.668
642.695
659.03
675.73
692.825
710.322
413.111
421.007
431.121
443.307
457.329
472.863
489.508
506.822
524.379
541.834
558.99
575.807
592.367
608.807
625.274
641.889
658.74
675.887
693.362
711.181
407.472
414.698
424.274
436.055
449.798
465.174
481.792
499.235
517.111
535.102
552.998
570.708
588.242
605.664
623.068
640.541
658.157
675.973
694.026
712.339
401.325
407.704
416.64
427.994
441.51
456.837
473.572
491.3
509.64
528.28
546.997
565.661
584.224
602.692
621.107
639.525
657.999
676.577
695.298
714.19
396.153
401.592
409.877
420.877
434.304
449.757
466.784
484.944
503.843
523.163
542.671
562.212
581.705
601.118
620.459
639.753
659.038
678.35
697.724
717.189
393.994
398.489
406.162
416.889
430.326
445.992
463.366
481.96
501.364
521.254
541.39
561.612
581.821
601.967
622.033
642.029
661.974
681.895
701.821
721.778
397.373
401.039
408.147
418.575
431.926
447.647
465.159
483.944
503.581
523.747
544.206
564.798
585.417
606.001
626.522
646.972
667.361
687.704
708.022
728.336
408.544
411.634
418.204
428.141
441.05
456.374
473.536
492.024
511.425
531.425
551.792
572.362
593.024
613.708
634.373
654.998
675.58
696.124
716.641
737.145
428.143
430.945
436.994
446.201
458.237
472.633
488.882
506.524
525.175
544.533
564.369
584.515
604.852
625.297
645.795
666.314
686.835
707.352
727.865
748.382
)
;
    }
    coldSide
    {
        type            mixed;
        refValue        uniform 300;
        refGradient     uniform 0;
        valueFraction   uniform 0.991591;
        source          uniform 0;
        value           nonuniform List<scalar> 
400
(
300.022
300.023
300.023
300.023
300.024
300.024
300.025
300.026
300.027
300.028
300.029
300.03
300.031
300.032
300.033
300.034
300.035
300.036
300.037
300.038
300.022
300.022
300.022
300.023
300.023
300.024
300.025
300.025
300.027
300.027
300.029
300.03
300.031