/*--------------------------------*- C++ -*----------------------------------*\
| =========                 |                                                 |
| \\      /  F ield         | OpenFOAM: The Open Source CFD Toolbox           |
|  \\    /   O peration     | Version:  2212                                  |
|   \\  /    A nd           | Website:  www.openfoam.com                      |
|    \\/     M anipulation  |                                                 |
\*---------------------------------------------------------------------------*/
FoamFile
{
    version     2.0;
    format      ascii;
    arch        "LSB;label=32;scalar=64";
    class       volScalarField;
    location    "0";
    object      T;
}
// * * * * * * * * * * * * * * * * * * * * * * * * * * * * * * * * * * * * * //

dimensions      [0 0 0 1 0 0 0];

internalField   nonuniform List<scalar> 
3200
(
320.33
319.827
319.614
319.49
319.605
319.942
320.216
320.479
320.756
320.946
320.923
320.765
320.438
320.004
319.625
319.14
318.983
318.986
319.009
319.445
317.562
317.194
317.005
316.897
317.002
317.29
317.511
317.752
318.002
318.16
318.116
317.999
317.724
317.31
317.002
316.56
316.452
316.423
316.482
316.826
314.82
314.549
314.392
314.301
314.389
314.631
314.801
315.04
315.236
315.357
315.31
315.235
315.014
314.628
314.371
313.986
313.914
313.893
313.971
314.23
312.111
311.914
311.79
311.7
311.795
311.962
312.098
312.304
312.465
312.537
312.532
312.477
312.273
311.95
311.738
311.436
311.366
311.351
311.437
311.664
309.438
309.262
309.184
309.106
309.2
309.308
309.402
309.548
309.685
309.743
309.742
309.728
309.533
309.29
309.126
308.888
308.839
308.819
308.904
309.095
306.75
306.616
306.591
306.501
306.576
306.648
306.715
306.789
306.943
306.97
306.961
306.953
306.802
306.649
306.486
306.338
306.332
306.315
306.356
306.496
304.049
303.987
303.977
303.889
303.95
303.996
304.042
304.054
304.179
304.197
304.171
304.18
304.085
304.011
303.883
303.792
303.826
303.795
303.814
303.884
301.36
301.333
301.333
301.306
301.323
301.335
301.366
301.348
301.397
301.402
301.4
301.406
301.375
301.351
301.305
301.264
301.291
301.277
301.282
301.306
320.461
319.905
319.679
319.61
319.744
320.009
320.277
320.513
321.035
321.081
321.085
320.987
320.718
320.232
319.907
319.341
319.182
319.105
319.202
319.688
317.709
317.227
317.07
316.976
317.115
317.345
317.545
317.781
318.222
318.26
318.242
318.189
317.947
317.525
317.249
316.741
316.622
316.543
316.633
317.044
314.947
314.551
314.445
314.348
314.487
314.688
314.839
315.034
315.396
315.444
315.426
315.386
315.191
314.827
314.604
314.142
314.047
313.972
314.066
314.399
312.196
311.901
311.809
311.729
311.839
312.021
312.137
312.292
312.57
312.645
312.622
312.586
312.407
312.129
311.959
311.545
311.476
311.422
311.511
311.779
309.477
309.246
309.189
309.114
309.188
309.358
309.446
309.55
309.749
309.826
309.825
309.792
309.628
309.429
309.326
308.944
308.928
308.884
308.946
309.157
306.776
306.632
306.557
306.519
306.561
306.694
306.739
306.809
306.963
307.029
307.018
306.994
306.872
306.737
306.677
306.363
306.377
306.342
306.399
306.521
304.075
303.986
303.928
303.924
303.945
304.029
304.039
304.08
304.166
304.217
304.219
304.178
304.15
304.045
304.021
303.819
303.826
303.805
303.833
303.901
301.359
301.33
301.317
301.312
301.328
301.338
301.364
301.364
301.401
301.41
301.419
301.402
301.382
301.349
301.351
301.278
301.28
301.269
301.279
301.305
320.699
320.086
319.887
319.786
319.92
320.254
320.499
320.789
321.277
321.442
321.465
321.381
321.022
320.684
320.11
319.629
319.482
319.204
319.351
319.862
317.948
317.433
317.248
317.138
317.26
317.552
317.752
318.004
318.42
318.568
318.575
318.522
318.228
317.912
317.417
317.015
316.865
316.635
316.774
317.18
315.214
314.757
314.603
314.514
314.6
314.837
314.999
315.223
315.576
315.7
315.708
315.651
315.426
315.129
314.734
314.419
314.249
314.059
314.191
314.513
312.447
312.065
311.963
311.868
311.952
312.142
312.233
312.439
312.744
312.828
312.837
312.794
312.609
312.359
312.063
311.825
311.639
311.455
311.61
311.871
309.682
309.399
309.303
309.229
309.296
309.434
309.5
309.657
309.906
309.937
309.978
309.963
309.829
309.606
309.399
309.202
309.035
308.88
309.028
309.23
306.897
306.721
306.643
306.598
306.634
306.739
306.787
306.9
307.069
307.077
307.13
307.126
307.03
306.849
306.726
306.585
306.449
306.321
306.452
306.605
304.141
304.026
303.992
303.975
303.976
304.054
304.08
304.136
304.246
304.256
304.29
304.275
304.226
304.1
304.051
303.963
303.872
303.795
303.878
303.972
301.397
301.346
301.339
301.332
301.33
301.355
301.363
301.385
301.426
301.426
301.431
301.431
301.409
301.374
301.355
301.326
301.304
301.285
301.306
301.33
321.03
320.465
320.215
320.107
320.22
320.648
320.91
321.273
321.657
321.776
321.966
321.825
321.502
321.065
320.397
320.009
319.71
319.48
319.747
320.171
318.202
317.74
317.537
317.41
317.515
317.888
318.118
318.428
318.777
318.85
319.021
318.913
318.625
318.24
317.663
317.321
317.059
316.86
317.109
317.474
315.388
315.006
314.836
314.748
314.807
315.133
315.326
315.583
315.898
315.942
316.094
315.993
315.746
315.428
314.942
314.628
314.43
314.254
314.471
314.792
312.615
312.279
312.134
312.089
312.117
312.39
312.524
312.744
312.993
313.042
313.142
313.075
312.879
312.628
312.222
311.936
311.789
311.636
311.839
312.099
309.829
309.567
309.421
309.412
309.411
309.636
309.737
309.914
310.105
310.138
310.211
310.151
310.014
309.826
309.5
309.263
309.175
309.041
309.179
309.424
307.031
306.845
306.717
306.732
306.719
306.877
306.95
307.084
307.242
307.24
307.299
307.227
307.135
307.018
306.788
306.614
306.568
306.46
306.553
306.75
304.209
304.116
304.021
304.044
304.02
304.118
304.171
304.262
304.334
304.332
304.376
304.342
304.278
304.213
304.081
303.984
303.959
303.877
303.944
304.059
301.412
301.383
301.339
301.363
301.34
301.378
301.405
301.431
301.444
301.442
301.469
301.45
301.439
301.419
301.37
301.336
301.328
301.307
301.318
301.359
321.325
320.743
320.49
320.464
320.565
320.958
321.366
321.691
322.157
322.328
322.56
322.335
322.018
321.421
320.918
320.451
320.194
319.913
320.147
320.453
318.466
317.959
317.746
317.727
317.785
318.154
318.518
318.78
319.187
319.342
319.553
319.346
319.065
318.558
318.113
317.702
317.489
317.263
317.475
317.709
315.621
315.194
315.01
314.985
315.015
315.338
315.653
315.873
316.223
316.348
316.54
316.371
316.109
315.7
315.312
314.974
314.781
314.598
314.793
314.985
312.774
312.418
312.275
312.267
312.253
312.559
312.823
312.987
313.301
313.357
313.507
313.39
313.157
312.842
312.505
312.241
312.089
311.932
312.098
312.27
309.939
309.661
309.549
309.548
309.523
309.753
309.984
310.102
310.37
310.385
310.469
310.426
310.218
309.995
309.718
309.512
309.398
309.282
309.411
309.544
307.111
306.913
306.812
306.82
306.796
306.953
307.133
307.227
307.421
307.425
307.464
307.461
307.303
307.124
306.942
306.786
306.705
306.641
306.726
306.797
304.267
304.141
304.094
304.095
304.072
304.167
304.286
304.329
304.472
304.466
304.477
304.489
304.388
304.274
304.157
304.071
304.014
303.985
304.044
304.094
301.419
301.384
301.378
301.368
301.354
301.386
301.434
301.462
301.504
301.5
301.491
301.507
301.473
301.439
301.398
301.362
301.332
301.326
301.357
301.367
321.696
321.236
320.986
320.848
321.005
321.406
321.865
322.281
322.551
322.874
323.071
322.943
322.506
321.909
321.479
320.973
320.694
320.498
320.595
320.844
318.781
318.391
318.194
318.042
318.176
318.534
318.93
319.292
319.524
319.787
319.979
319.884
319.501
318.973
318.579
318.173
317.946
317.752
317.84
318.068
315.881
315.54
315.401
315.27
315.339
315.674
315.992
316.298
316.514
316.72
316.891
316.828
316.49
316.039
315.692
315.399
315.172
315.016
315.091
315.297
312.985
312.698
312.586
312.492
312.556
312.833
313.072
313.316
313.507
313.665
313.791
313.764
313.472
313.118
312.812
312.592
312.423
312.289
312.345
312.514
310.096
309.886
309.774
309.714
309.758
309.993
310.154
310.357
310.507
310.648
310.718
310.691
310.47
310.202
309.943
309.792
309.672
309.556
309.626
309.749
307.203
307.084
306.977
306.936
306.968
307.148
307.242
307.404
307.498
307.591
307.635
307.635
307.461
307.295
307.086
306.98
306.934
306.815
306.879
306.957
304.337
304.259
304.197
304.171
304.177
304.289
304.359
304.467
304.507
304.541
304.577
304.575
304.464
304.402
304.257
304.181
304.169
304.082
304.124
304.173
301.467
301.426
301.402
301.402
301.395
301.437
301.459
301.499
301.512
301.522
301.542
301.528
301.497
301.476
301.434
301.396
301.395
301.371
301.395
301.397
322.15
321.816
321.488
321.396
321.568
321.89
322.391
322.83
323.138
323.501
323.541
323.451
323.043
322.629
322.006
321.459
321.181
321.054
320.959
321.313
319.167
318.877
318.629
318.543
318.685
318.947
319.37
319.76
320.015
320.363
320.387
320.309
319.946
319.59
319.061
318.595
318.353
318.255
318.158
318.439
316.197
315.963
315.732
315.708
315.813
316.042
316.379
316.702
316.909
317.232
317.236
317.188
316.878
316.546
316.111
315.731
315.544
315.452
315.371
315.565
313.235
313.06
312.857
312.853
312.945
313.139
313.392
313.654
313.825
314.087
314.076
314.044
313.81
313.501
313.148
312.862
312.722
312.626
312.595
312.719
310.286
310.145
309.995
310
310.067
310.22
310.417
310.611
310.753
310.982
310.923
310.918
310.714
310.48
310.202
309.987
309.922
309.819
309.809
309.887
307.332
307.236
307.135
307.135
307.172
307.309
307.46
307.586
307.682
307.873
307.783
307.794
307.645
307.495
307.264
307.146
307.114
307.023
307.005
307.043
304.406
304.332
304.288
304.275
304.307
304.386
304.476
304.556
304.601
304.737
304.668
304.687
304.59
304.505
304.347
304.301
304.271
304.206
304.205
304.234
301.47
301.454
301.442
301.435
301.447
301.472
301.497
301.524
301.536
301.587
301.564
301.576
301.539
301.508
301.452
301.437
301.424
301.404
301.413
301.42
322.761
322.424
322.155
321.986
322.177
322.534
323.009
323.389
323.815
324.079
324.072
323.996
323.599
323.127
322.647
322.099
321.811
321.582
321.601
321.807
319.674
319.434
319.19
319.035
319.196
319.508
319.926
320.244
320.632
320.854
320.837
320.76
320.43
320.034
319.635
319.131
318.897
318.707
318.725
318.891
316.632
316.459
316.23
316.092
316.226
316.485
316.85
317.111
317.438
317.624
317.608
317.55
317.259
316.924
316.628
316.158
315.978
315.853
315.811
315.939
313.614
313.474
313.272
313.159
313.272
313.488
313.761
314.003
314.262
314.396
314.391
314.351
314.081
313.832
313.619
313.214
313.056
312.981
312.91
313.012
310.594
310.464
310.321
310.213
310.301
310.494
310.685
310.889
311.092
311.183
311.179
311.144
310.944
310.767
310.612
310.293
310.144
310.116
310.015
310.103
307.563
307.469
307.376
307.286
307.365
307.498
307.618
307.771
307.936
308.003
307.975
307.966
307.813
307.691
307.588
307.367
307.24
307.229
307.148
307.194
304.521
304.482
304.434
304.369
304.421
304.506
304.578
304.688
304.767
304.811
304.787
304.775
304.694
304.622
304.567
304.424
304.347
304.344
304.295
304.297
301.514
301.507
301.474
301.464
301.491
301.513
301.526
301.577
301.593
301.602
301.605
301.606
301.58
301.553
301.533
301.482
301.448
301.452
301.437
301.442
323.262
323.067
322.717
322.665
322.838
323.153
323.469
323.857
324.322
324.612
324.663
324.546
324.193
323.634
323.213
322.699
322.279
322.085
322.183
322.452
320.116
319.953
319.671
319.612
319.768
320.048
320.323
320.64
321.052
321.287
321.36
321.24
320.925
320.476
320.122
319.645
319.297
319.116
319.208
319.423
316.997
316.878
316.647
316.581
316.712
316.943
317.177
317.448
317.81
317.978
318.072
317.913
317.667
317.315
317.021
316.602
316.321
316.145
316.242
316.435
313.907
313.803
313.618
313.576
313.66
313.845
314.039
314.277
314.578
314.676
314.782
314.611
314.428
314.144
313.92
313.558
313.344
313.196
313.296
313.454
310.783
310.722
310.588
310.56
310.624
310.755
310.919
311.115
311.354
311.397
311.515
311.323
311.18
310.981
310.833
310.543
310.37
310.275
310.32
310.462
307.702
307.671
307.569
307.545
307.604
307.696
307.822
307.938
308.125
308.128
308.253
308.045
307.966
307.819
307.743
307.517
307.391
307.326
307.357
307.486
304.625
304.612
304.545
304.531
304.572
304.643
304.713
304.763
304.87
304.896
304.975
304.812
304.764
304.68
304.664
304.517
304.429
304.395
304.417
304.498
301.547
301.543
301.527
301.527
301.527
301.569
301.587
301.593
301.637
301.643
301.666
301.62
301.588
301.569
301.56
301.516
301.483
301.476
301.481
301.503
324.081
323.576
323.433
323.244
323.38
323.725
324.095
324.428
324.8
324.98
325.109
324.964
324.692
324.254
323.718
323.149
322.805
322.694
322.74
322.905
320.812
320.412
320.254
320.105
320.237
320.533
320.875
321.13
321.467
321.626
321.729
321.592
321.368
320.97
320.544
320.037
319.751
319.631
319.671
319.822
317.59
317.249
317.1
316.985
317.106
317.325
317.663
317.858
318.136
318.258
318.368
318.252
318.079
317.72
317.362
316.95
316.727
316.597
316.607
316.725
314.359
314.09
314.003
313.905
313.979
314.15
314.449
314.595
314.791
314.911
315.006
314.91
314.79
314.469
314.195
313.883
313.696
313.571
313.579
313.665
311.133
310.949
310.886
310.807
310.874
311.007
311.245
311.33
311.484
311.578
311.652
311.582
311.48
311.232
311.026
310.811
310.639
310.557
310.538
310.617
307.936
307.81
307.791
307.737
307.777
307.876
308.049
308.078
308.207
308.279
308.32
308.278
308.197
308.024
307.877
307.738
307.59
307.538
307.503
307.58
304.764
304.703
304.687
304.643
304.666
304.725
304.836
304.848
304.933
304.976
304.987
304.974
304.912
304.821
304.724
304.646
304.556
304.536
304.49
304.549
301.589
301.572
301.583
301.552
301.567
301.588
301.616
301.624
301.653
301.667
301.668
301.665
301.64
301.613
301.57
301.552
301.526
301.523
301.5
301.531
324.769
324.237
324.001
324
324.011
324.327
324.69
324.996
325.295
325.51
325.642
325.512
325.123
324.61
324.278
323.795
323.41
323.244
323.285
323.414
321.436
320.995
320.769
320.756
320.796
321.06
321.359
321.622
321.886
322.045
322.188
322.095
321.737
321.289
321.006
320.6
320.26
320.117
320.139
320.227
318.091
317.757
317.561
317.528
317.565
317.786
318.044
318.283
318.483
318.61
318.749
318.675
318.39
317.955
317.735
317.449
317.128
317.001
316.998
317.094
314.751
314.506
314.372
314.324
314.346
314.531
314.75
314.949
315.104
315.204
315.333
315.263
315.048
314.658
314.492
314.301
314.007
313.89
313.903
313.966
311.427
311.248
311.184
311.136
311.144
311.281
311.467
311.633
311.743
311.829
311.916
311.876
311.709
311.387
311.262
311.121
310.901
310.798
310.796
310.858
308.113
308.008
307.995
307.958
307.956
308.033
308.175
308.312
308.386
308.467
308.499
308.485
308.35
308.139
308.041
307.943
307.789
307.701
307.696
307.753
304.849
304.793
304.812
304.765
304.781
304.825
304.891
305.001
305.048
305.085
305.091
305.102
304.994
304.897
304.83
304.761
304.684
304.608
304.631
304.663
301.62
301.61
301.611
301.593
301.604
301.621
301.637
301.667
301.693
301.709
301.701
301.716
301.675
301.651
301.616
301.59
301.571
301.542
301.549
301.551
325.388
324.952
324.704
324.491
324.724
324.803
325.189
325.52
325.793
326.014
326.123
325.893
325.561
325.234
324.774
324.407
324.029
323.866
323.858
324.027
321.961
321.582
321.385
321.182
321.385
321.48
321.801
322.077
322.32
322.49
322.586
322.405
322.112
321.823
321.423
321.149
320.82
320.661
320.652
320.811
318.542
318.222
318.058
317.926
318.063
318.172
318.418
318.655
318.869
318.985
319.07
318.94
318.665
318.429
318.104
317.912
317.61
317.469
317.468
317.607
315.149
314.884
314.747
314.661
314.761
314.876
315.069
315.243
315.424
315.501
315.566
315.484
315.236
315.053
314.798
314.669
314.387
314.28
314.277
314.397
311.77
311.535
311.455
311.42
311.46
311.562
311.72
311.847
311.981
312.015
312.091
312.051
311.828
311.704
311.509
311.414
311.196
311.1
311.098
311.194
308.4
308.232
308.19
308.166
308.19
308.259
308.367
308.462
308.574
308.566
308.617
308.615
308.428
308.357
308.231
308.16
307.988
307.93
307.933
307.993
305.034
304.943
304.935
304.917
304.915
304.966
305.002
305.081
305.14
305.127
305.163
305.193
305.044
305.025
304.939
304.914
304.797
304.767
304.759
304.802
301.68
301.653
301.66
301.658
301.654
301.669
301.67
301.71
301.737
301.71
301.74
301.741
301.685
301.695
301.656
301.646
301.611
301.603
301.591
301.611
325.949
325.531
325.274
325.199
325.336
325.501
325.726
325.979
326.177
326.457
326.551
326.349
326.044
325.72
325.172
324.933
324.477
324.417
324.533
324.708
322.443
322.074
321.855
321.79
321.938
322.067
322.255
322.498
322.64
322.863
322.992
322.792
322.523
322.247
321.77
321.575
321.208
321.114
321.232
321.368
318.954
318.639
318.46
318.435
318.538
318.63
318.797
319.028
319.138
319.3
319.441
319.272
319.025
318.774
318.399
318.242
317.93
317.838
317.932
318.027
315.491
315.219
315.096
315.093
315.153
315.211
315.336
315.562
315.64
315.763
315.882
315.761
315.548
315.347
315.048
314.917
314.64
314.564
314.661
314.719
312.034
311.841
311.744
311.739
311.765
311.799
311.902
312.114
312.148
312.229
312.332
312.25
312.066
311.903
311.696
311.605
311.377
311.318
311.39
311.447
308.596
308.451
308.414
308.386
308.392
308.404
308.484
308.662
308.673
308.741
308.783
308.738
308.6
308.47
308.345
308.284
308.117
308.06
308.127
308.176
305.172
305.072
305.055
305.036
305.045
305.038
305.093
305.203
305.198
305.24
305.273
305.239
305.157
305.077
305.015
304.963
304.878
304.832
304.882
304.924
301.723
301.695
301.691
301.684
301.694
301.682
301.712
301.752
301.734
301.75
301.762
301.754
301.727
301.704
301.685
301.668
301.638
301.617
301.636
301.65
326.71
326.188
325.933
325.879
325.846
326.09
326.132
326.501
326.631
326.905
326.938
326.844
326.544
326.229
325.728
325.438
325.037
325.022
325.006
325.348
323.104
322.65
322.443
322.401
322.368
322.592
322.597
322.927
323.04
323.256
323.303
323.235
322.967
322.715
322.265
322.029
321.667
321.665
321.627
321.941
319.514
319.129
318.996
318.916
318.913
319.088
319.086
319.373
319.473
319.633
319.703
319.649
319.386
319.209
318.812
318.628
318.344
318.337
318.268
318.53
315.956
315.609
315.553
315.448
315.435
315.593
315.593
315.813
315.927
316.02
316.095
316.068
315.84
315.688
315.392
315.235
315.012
315.002
314.948
315.13
312.406
312.114
312.092
311.994
311.977
312.121
312.109
312.297
312.388
312.418
312.491
312.486
312.306
312.175
311.988
311.849
311.668
311.662
311.628
311.739
308.854
308.626
308.641
308.557
308.554
308.653
308.63
308.792
308.852
308.846
308.917
308.919
308.784
308.686
308.561
308.466
308.342
308.333
308.324
308.362
305.32
305.165
305.193
305.143
305.138
305.182
305.174
305.281
305.338
305.299
305.344
305.361
305.27
305.201
305.148
305.086
305.001
304.988
305.012
305.021
301.78
301.724
301.749
301.716
301.725
301.73
301.729
301.77
301.782
301.773
301.789
301.789
301.775
301.733
301.727
301.707
301.674
301.681
301.681
301.684
327.376
326.971
326.744
326.548
326.478
326.698
326.795
326.941
327.237
327.261
327.319
327.211
326.92
326.69
326.292
325.907
325.649
325.602
325.616
325.743
323.674
323.338
323.12
322.944
322.912
323.085
323.182
323.337
323.568
323.587
323.641
323.548
323.292
323.114
322.739
322.421
322.184
322.161
322.149
322.262
319.977
319.724
319.52
319.356
319.358
319.506
319.607
319.735
319.915
319.94
319.984
319.917
319.681
319.536
319.2
318.957
318.753
318.75
318.711
318.834
316.302
316.12
315.933
315.815
315.827
315.962
316.038
316.135
316.281
316.285
316.328
316.29
316.079
315.985
315.692
315.498
315.323
315.336
315.284
315.416
312.659
312.523
312.369
312.292
312.299
312.416
312.455
312.55
312.657
312.673
312.701
312.652
312.495
312.436
312.207
312.066
311.909
311.934
311.88
311.972
309.039
308.935
308.842
308.776
308.796
308.86
308.878
308.977
309.025
309.047
309.086
309.029
308.949
308.896
308.724
308.635
308.508
308.522
308.475
308.537
305.444
305.386
305.296
305.291
305.304
305.332
305.333
305.385
305.409
305.446
305.468
305.407
305.376
305.348
305.233
305.192
305.112
305.11
305.091
305.123
301.822
301.812
301.771
301.787
301.787
301.79
301.79
301.805
301.82
301.827
301.839
301.82
301.804
301.791
301.75
301.749
301.704
301.721
301.706
301.716
327.951
327.689
327.494
327.18
327.155
327.257
327.378
327.556
327.703
327.777
327.739
327.674
327.448
327.075
326.825
326.451
326.252
326.206
326.318
326.434
324.167
323.957
323.784
323.53
323.485
323.578
323.699
323.843
323.983
324.028
323.998
323.977
323.755
323.428
323.228
322.886
322.713
322.675
322.756
322.89
320.389
320.228
320.094
319.894
319.864
319.915
320.023
320.136
320.271
320.304
320.261
320.274
320.095
319.793
319.637
319.349
319.198
319.155
319.236
319.359
316.65
316.522
316.403
316.264
316.251
316.247
316.385
316.458
316.568
316.606
316.546
316.577
316.439
316.173
316.048
315.82
315.695
315.653
315.727
315.817
312.935
312.824
312.739
312.644
312.651
312.616
312.755
312.792
312.867
312.906
312.846
312.873
312.767
312.595
312.466
312.329
312.197
312.166
312.213
312.296
309.241
309.16
309.098
309.021
309.042
309.012
309.105
309.124
309.176
309.199
309.15
309.163
309.091
309.017
308.875
308.819
308.707
308.662
308.722
308.791
305.544
305.502
305.458
305.404
305.441
305.409
305.454
305.467
305.512
305.522
305.476
305.487
305.453
305.427
305.314
305.315
305.242
305.176
305.214
305.288
301.855
301.836
301.832
301.817
301.817
301.806
301.835
301.846
301.847
301.853
301.828
301.837
301.829
301.816
301.789
301.776
301.768
301.734
301.733
301.772
328.635
328.294
328.109
327.867
327.735
327.734
327.989
328.089
328.208
328.229
328.203
328.129
327.838
327.536
327.376
327.013
326.803
326.738
326.809
326.999
324.762
324.483
324.341
324.115
323.997
323.974
324.207
324.296
324.418
324.421
324.395
324.36
324.105
323.824
323.692
323.341
323.177
323.148
323.207
323.327
320.908
320.686
320.577
320.382
320.279
320.23
320.44
320.513
320.61
320.628
320.63
320.588
320.352
320.131
320.023
319.696
319.582
319.547
319.596
319.717
317.108
316.918
316.811
316.659
316.543
316.524
316.703
316.786
316.84
316.846
316.861
316.848
316.617
316.468
316.378
316.087
316.009
315.97
315.995
316.1
313.298
313.143
313.058
312.958
312.864
312.845
312.978
313.046
313.074
313.082
313.098
313.11
312.891
312.826
312.71
312.521
312.426
312.377
312.415
312.481
309.495
309.379
309.301
309.264
309.196
309.177
309.278
309.312
309.325
309.341
309.348
309.364
309.181
309.18
309.065
308.947
308.868
308.833
308.845
308.892
305.702
305.637
305.566
305.57
305.536
305.512
305.568
305.588
305.58
305.606
305.617
305.618
305.509
305.522
305.444
305.366
305.325
305.303
305.309
305.335
301.91
301.893
301.868
301.862
301.861
301.858
301.866
301.88
301.87
301.876
301.891
301.889
301.839
301.851
301.83
301.797
301.786
301.776
301.783
301.785
329.258
328.899
328.661
328.48
328.392
328.419
328.446
328.588
328.661
328.675
328.45
328.516
328.202
328.04
327.839
327.554
327.412
327.22
327.504
327.717
325.302
324.976
324.785
324.631
324.574
324.575
324.625
324.715
324.793
324.792
324.601
324.67
324.416
324.283
324.079
323.84
323.709
323.545
323.794
323.939
321.374
321.094
320.931
320.819
320.766
320.768
320.817
320.871
320.929
320.933
320.788
320.865
320.636
320.564
320.338
320.151
320.027
319.891
320.097
320.206
317.452
317.235
317.105
317.008
316.984
316.971
317.029
317.036
317.091
317.106
317.002
317.064
316.854
316.843
316.613
316.468
316.358
316.266
316.429
316.482
313.561
313.392
313.304
313.198
313.202
313.194
313.23
313.24
313.28
313.291
313.227
313.257
313.09
313.104
312.881
312.795
312.71
312.635
312.768
312.775
309.661
309.554
309.496
309.415
309.453
309.436
309.452
309.474
309.468
309.482
309.463
309.467
309.335
309.363
309.193
309.144
309.053
309.04
309.105
309.103
305.785
305.737
305.702
305.65
305.687
305.671
305.66
305.703
305.666
305.692
305.685
305.688
305.602
305.627
305.528
305.487
305.42
305.418
305.461
305.459
301.934
301.914
301.917
301.89
301.899
301.899
301.889
301.908
301.9
301.907
301.913
301.91
301.877
301.88
301.848
301.829
301.811
301.814
301.827
301.833
330.021
329.541
329.226
328.962
328.963
329.027
328.847
328.974
329.11
329.084
328.907
328.895
328.608
328.437
328.251
328
327.878
327.89
328.105
328.288
325.94
325.546
325.259
325.021
325.037
325.11
324.96
325.049
325.19
325.143
324.986
324.99
324.746
324.596
324.454
324.253
324.107
324.107
324.31
324.472
321.903
321.561
321.346
321.131
321.116
321.199
321.104
321.184
321.286
321.23
321.1
321.124
320.918
320.806
320.657
320.493
320.353
320.362
320.539
320.674
317.902
317.589
317.443
317.257
317.238
317.329
317.252
317.333
317.391
317.321
317.239
317.25
317.098
317.031
316.875
316.748
316.606
316.64
316.769
316.897
313.914
313.647
313.56
313.406
313.41
313.465
313.41
313.515
313.502
313.437
313.41
313.407
313.288
313.266
313.108
312.997
312.884
312.936
313.009
313.124
309.936
309.746
309.699
309.555
309.555
309.615
309.569
309.673
309.643
309.597
309.61
309.562
309.504
309.484
309.364
309.26
309.206
309.233
309.287
309.38
305.968
305.874
305.832
305.728
305.73
305.757
305.74
305.793
305.796
305.76
305.804
305.735
305.704
305.689
305.614
305.536
305.531
305.553
305.589
305.631
302
301.982
301.957
301.899
301.924
301.925
301.928
301.937
301.941
301.938
301.952
301.92
301.906
301.909
301.882
301.84
301.854
301.855
301.865
301.885
330.484
330.006
329.781
329.414
329.311
329.273
329.179
329.378
329.392
329.365
329.367
329.222
329.118
328.79
328.531
328.461
328.253
328.353
328.459
328.931
326.299
325.933
325.717
325.411
325.33
325.281
325.195
325.4
325.418
325.393
325.384
325.256
325.179
324.878
324.655
324.602
324.392
324.478
324.576
325.023
322.15
321.883
321.691
321.451
321.374
321.335
321.257
321.455
321.443
321.434
321.408
321.297
321.265
321.019
320.812
320.755
320.61
320.631
320.715
321.105
318.06
317.863
317.71
317.531
317.471
317.393
317.362
317.523
317.514
317.495
317.45
317.376
317.351
317.183
316.998
316.954
316.83
316.814
316.878
317.226
314.016
313.871
313.768
313.616
313.593
313.513
313.486
313.621
313.603
313.566
313.515
313.48
313.48
313.339
313.211
313.166
313.094
313.028
313.097
313.38
310
309.899
309.841
309.71
309.725
309.636
309.642
309.721
309.701
309.673
309.648
309.606
309.621
309.518
309.421
309.408
309.346
309.287
309.351
309.511
306
305.943
305.924
305.823
305.836
305.789
305.797
305.827
305.822
305.812
305.778
305.751
305.762
305.703
305.642
305.665
305.614
305.568
305.618
305.713
302.008
301.985
301.987
301.961
301.954
301.945
301.944
301.948
301.95
301.95
301.938
301.943
301.932
301.899
301.884
301.9
301.878
301.866
301.883
301.906
)
;

boundaryField
{
    hotSide
    {
        type            fixedGradient;
        gradient        nonuniform List<scalar> 
400
(
221.185
221.5
223.133
226.049
230.115
235.14
240.919
247.265
254.024
261.077
268.332
275.726
283.217
290.779
298.399
306.077
313.82
321.641
329.55
337.554
212.967
213.399
215.241
218.449
222.862
228.253
234.389
241.061
248.105
255.394
262.838
270.375
277.965
285.587
293.234
300.912
308.636
316.424
324.294
332.258
208.38
209.056
211.123
214.532
219.122
224.668
230.934
237.713
244.835
252.175
259.639
267.166
274.717
282.275
289.838
297.414
305.023
312.688
320.431
328.267
207.187
208.228
210.544
214.085
218.711
224.228
230.428
237.116
244.13
251.345
258.667
266.034
273.41
280.778
288.139
295.507
302.903
310.352
317.877
325.497
208.474
209.948
212.551
216.227
220.861
226.292
232.343
238.843
245.64
252.614
259.673
266.759
273.837
280.896
287.942
294.994
302.077
309.217
316.44
323.768
211.197
213.133
216.067
219.939
224.642
230.04
235.975
242.292
248.853
255.54
262.27
268.989
275.674
282.323
288.953
295.591
302.269
309.019
315.869
322.845
214.494
216.897
220.203
224.345
229.218
234.688
240.605
246.817
253.186
259.599
265.979
272.283
278.506
284.665
290.797
296.942
303.145
309.446
315.878
322.466
217.701
220.55
224.25
228.724
233.86
239.519
245.538
251.754
258.013
264.198
270.236
276.104
281.823
287.442
293.023
298.632
304.326
310.155
316.156
322.356
220.288
223.527
227.601
232.426
237.883
243.816
250.042
256.365
262.606
268.625
274.354
279.793
285.002
290.072
295.103
300.184
305.39
310.776
316.383
322.235
221.832
225.352
229.717
234.84
240.595
246.812
253.282
259.773
266.062
271.982
277.461
282.529
287.293
291.89
296.454
301.1
305.912
310.95
316.255
321.85
222.031
225.666
230.166
235.443
241.369
247.764
254.4
261.019
267.364
273.243
278.581
283.429
287.927
292.245
296.54
300.939
305.535
310.389
315.54
321.009
220.758
224.305
228.735
233.96
239.85
246.221
252.845
259.458
265.804
271.692
277.044
281.907
286.42
290.751
295.058
299.469
304.078
308.951
314.127
319.63
218.105
221.366
225.528
230.506
236.165
242.326
248.771
255.257
261.559
267.503
273.013
278.114
282.906
287.526
292.109
296.775
301.616
306.7
312.073
317.761
214.397
217.215
220.972
225.582
230.913
236.79
243.007
249.351
255.624
261.678
267.435
272.89
278.101
283.162
288.178
293.251
298.47
303.902
309.599
315.591
210.174
212.453
215.742
219.959
224.972
230.603
236.654
242.923
249.232
255.444
261.477
267.305
272.953
278.478
283.96
289.484
295.131
300.97
307.055
313.419
206.181
207.883
210.704
214.57
219.339
224.819
230.801
237.081
243.484
249.876
256.172
262.331
268.359
274.29
280.186
286.12
292.168
298.402
304.878
311.631
203.393
204.531
206.922
210.497
215.094
220.495
226.467
232.794
239.297
245.843
252.345
258.757
265.071
271.313
277.529
283.788
290.165
296.734
303.558
310.67
202.969
203.617
205.626
208.932
213.357
218.653
224.569
230.88
237.406
244.016
250.624
257.181
263.675
270.122
276.561
283.054
289.677
296.507
303.607
311.011
205.933
206.226
207.898
210.892
215.032
220.076
225.773
231.906
238.3
244.83
251.41
257.991
264.555
271.109
277.687
284.343
291.144
298.162
305.456
313.054
212.604
212.693
214.068
216.685
220.398
225.004
230.288
236.053
242.142
248.434
254.847
261.33
267.857
274.431
281.074
287.827
294.744
301.881
309.282
316.971
)
;
    }
    coldSide
    {
        type            mixed;
        refValue        uniform 300;
        refGradient     uniform 0;
        valueFraction   uniform 0.991591;
        source          uniform 0;
        value           nonuniform List<scalar> 
400
(
300.011
300.011
300.012
300.012
300.012
300.012
300.012
300.013
300.013
300.013
300.014
300.014
300.014
300.015
300.015
300.016
300.016
300.016
300.017
300.017
300.011
300.011
300.011
300.012
300.012
300.012
300.012
300.013
300.013
300.013
300.014
300.014
300.014
300.015
300.015
300.015
300.016
300.016
300.017
300.017
300.011