/*--------------------------------*- C++ -*----------------------------------*\
| =========                 |                                                 |
| \\      /  F ield         | OpenFOAM: The Open Source CFD Toolbox           |
|  \\    /   O peration     | Version:  2212                                  |
|   \\  /    A nd           | Website:  www.openfoam.com                      |
|    \\/     M anipulation  |                                                 |
\*---------------------------------------------------------------------------*/
FoamFile
{
    version     2.0;
    format      ascii;
    arch        "LSB;label=32;scalar=64";
    class       volScalarField;
    location    "0";
    object      stateMean;
}
// * * * * * * * * * * * * * * * * * * * * * * * * * * * * * * * * * * * * * //

dimensions      [0 0 0 1 0 0 0];

internalField   nonuniform List<scalar> 
3200
(
341.989
345.663
353.765
350.868
350.343
352.503
352.418
353.278
352.73
351.505
351.017
353.053
353.466
350.707
351.278
349.644
352.521
347.953
348.577
344.7
334.233
345.865
338.603
344.243
342.993
343.88
344.531
346.016
349.232
347.22
344.738
345.616
347.401
344.159
347.603
341.208
341.279
345.337
341.656
339.088
331.039
334.94
335.715
337.372
337.767
335.754
337.018
337.638
344.777
340.059
339.234
338.319
341.259
338.663
339.241
335.672
331.764
331.859
335.937
332.633
322.798
334.096
328.054
328.689
326.276
331.726
332.46
336.194
333.298
333.517
327.86
330.005
331.585
330.476
330.754
331.517
331.569
329.558
324.029
330.127
322.539
323.53
321.943
322.124
325.748
324.576
324.966
325.281
323.71
322.801
327.281
324.172
325.321
324.573
327.748
329.426
324.112
322.621
321.238
321.244
315.723
316.487
315.936
316.618
318.966
318.366
318.871
315.505
320.498
317.127
314.565
316.518
317.518
320.612
319.76
319.92
313.756
313.739
315.657
316.035
311.439
309.902
310.551
310.023
305.831
308.464
310.931
309.154
308.912
313.002
310.333
311.551
314.238
307.285
310.936
313.481
304.521
312.758
305.072
312.198
304.42
306.121
303.33
308.333
305.549
301.717
304.428
302.651
298.451
305.299
298.406
305.924
300.728
303.441
302.259
304.394
305.279
305.425
298.917
306.222
348.296
349.148
352.645
351.024
350.99
352.36
352.769
351.273
356.499
354.2
352.636
351.798
348.792
352.022
348.918
352.912
348.996
349.387
346.329
348.461
341.496
343.319
344.764
342.399
348.485
347.414
344.097
347.176
346.676
348.466
349.143
348.001
348.584
343.008
347.392
343.804
345.516
343.791
344.105
340.467
334.46
337.723
337.166
335.834
341.67
343.44
337.619
336.922
341.25
338.598
340.387
336.825
340.102
340.298
337.018
341.328
334.865
334.431
339.076
337.386
331.965
331.497
331.957
333.397
325.254
333.487
333.893
332.481
329.857
329.273
333.8
328.762
333.834
331.095
332.13
329.837
332.039
325.648
332.151
328.719
318.308
319.649
323.093
323.773
326.896
324.578
322.973
325.161
324.619
326.575
324.45
321.971
321.39
328.65
326.946
323.991
321.731
323.863
321.442
317.782
319.06
308.057
315.467
317.926
317.35
318.363
319.495
318.392
319.419
317.177
318.744
316.405
317.618
317.467
315.656
320.946
314.99
322.917
317.399
315.036
309.259
309.723
310.059
309.872
309.288
315.019
312.372
312.668
311.434
313.513
310.017
306.616
307.29
312.127
310.28
308.736
310.28
311.071
308.153
307.29
305.044
303.401
309.453
302.193
303.494
302.424
301.181
301.501
305.011
306.859
303.848
300.956
304.218
305.64
302.085
301.33
303.093
304.034
303.577
305.434
352.513
354.995
355.078
350.771
355.182
352.217
352.824
354.139
353.437
353.435
358.383
356.352
357.867
351.516
356.794
353.194
350.14
352.42
350.115
348.607
346.579
345.672
343.35
345.098
349.114
342.303
349.452
346.811
347.509
346.763
348.331
342.75
345.55
347.16
345.545
348.392
341.437
344.189
337.741
344.524
337.457
344.653
340.513
339.169
340.971
340.394
342.044
342.521
340.25
339.849
340.943
341.024
342.481
343.135
334.983
338.839
336.603
336.082
333.439
331.338
332.482
326.988
329.55
335.317
332.678
331.139
335.658
331.939
332.547
328.716
334.569
334.822
332.489
332.904
333.664
332.91
332.697
328.04
330.059
327.717
321.243
320.374
319.049
326.743
324.983
323.933
327.615
327.138
325.68
323.794
329.328
326.512
325.536
322.459
323.384
322.414
324.153
323.758
321.491
319.14
316.939
313.039
318.272
321.18
318.278
318.572
317.323
320.623
321.13
318.289
321.12
318.938
319.276
319.76
320.177
313.812
320.507
323.178
312.986
311.417
310.946
305.14
314.347
310.464
312.808
311.982
310.291
308.584
310.866
310.98
313.262
310.111
314.613
310.684
311.739
312.567
306.763
309.064
309.327
312.854
307.486
301
303.387
307.97
301.906
302.682
300.868
302.045
304.185
302.173
302.7
304.333
304.777
307.022
299.105
302.42
305.162
303.86
297.921
302.939
348.948
353.229
352.477
352.789
357.77
355.652
356.387
358.416
355.098
361.404
357.494
358.265
355.529
356.036
351.471
350.943
352.664
351.361
350.334
352.504
345.916
344.664
346.725
346.757
343.863
348.707
352.592
348.956
350.189
349.661
349.481
347.956
349.262
346.017
346.795
349.487
345.754
340.16
344.546
345.366
338.967
336.187
339.827
337.905
342.146
342.156
340.749
344.961
342.903
338.36
338.351
339.949
337.694
341.405
342.207
339.476
337.946
339.832
339.794
334.338
329.121
329.753
334.547
330.951
329.383
334.486
334.33
333.893
332.083
332.803
333.005
334.814
330.599
335.323
333.022
332.511
338.322
330.603
331.983
331.4
325.239
324.567
327.573
321.837
324.142
327.745
326.715
325.664
325.559
324.513
327.353
327.957
324.31
322.27
324.528
327.276
323.965
325.217
321.195
323.371
313.467
318.036
314.748
317.892
319.374
318.786
318.529
319.172
319.014
318.692
321.159
317.362
321.422
314.86
315.068
317.254
312.488
318.684
318.691
323.106
307.433
310.746
311.702
308.908
314.327
311.472
308.304
309.343
312.513
311.06
312.513
309.338
314.969
311.694
310.48
308.035
310.649
307.454
308.708
307.72
303.046
303.557
304.471
306.589
301.429
302.339
306.365
299.547
303.462
305.374
306.563
305.312
300.616
303.74
304.312
301.09
307.062
301.957
303.151
303.042
352.435
354.878
352.23
355.869
362.945
352.017
356.442
362.359
359.367
358.45
357.784
357.498
358.007
358.499
357.043
357.199
355.429
356.079
347.787
350.154
348.35
347.689
344.978
351.602
350.753
348.481
351.543
347.964
350.219
352.836
350.291
344.983
350.559
350.09
348.23
353.708
347.318
345.048
343.29
341.528
342.805
340.871
344.564
342.524
341.992
341.815
344.533
345.73
343.56
344.353
345.072
342.9
343.448
341.967
345.936
334.191
342.021
337.389
340.044
340.868
330.544
329.766
335.282
333.091
335.039
331.422
330.391
334.144
336.667
334.771
339.001
334.403
333.873
333.965
334.308
333.629
331.476
330.733
332.238
332.536
326.368
322.478
323.212
322.083
325.887
326.768
328.424
329.381
324.992
323.326
328.957
326.315
324.717
324.244
327.972
326.504
325.674
322.271
324.076
323.435
316.618
320.033
318.868
317.986
317.423
323.316
318.999
319.728
315.408
326.887
317.209
320.488
318.23
319.058
320.923
317.79
320.354
315.002
322.175
316.345
312.033
311.71
308.456
307.552
310.982
311.78
312.412
310.063
313.338
309.686
310.809
313.352
313.393
311.792
312.48
308.231
308.412
309.389
308.014
307.479
301.782
303.922
301.785
304.136
303.374
301.857
304.016
307.266
307.544
301.654
301.476
300.724
305.783
305.445
306.426
300.685
304.116
302.951
299.966
301.069
355.127
353.359
358.662
356.801
358.629
358.83
354.806
361.943
359.062
365.147
366.186
361.654
357.556
358.189
353.632
355.602
356.52
356.786
356.914
351.334
344.504
346.831
349.334
347.367
351.153
348.757
346.581
349.592
349.587
350.44
350.457
350.971
349.998
350.871
348.044
350.958
347.083
346.5
345.64
345.37
334.998
339.202
338.36
339.969
342.67
343.181
344.815
343.733
341.127
344.836
345.067
344.372
339.276
341.908
342.27
341.311
343.23
338.154
340.033
339.785
333.827
334.813
332.868
334.062
336.065
333.798
336.483
339.668
338.053
338.37
333.671
335.49
337.622
336.462
330.024
333.788
333.867
333.4
331.055
330.318
321.616
319.871
325.493
326.106
327.092
322.103
323.119
329.235
326.959
328.319
323.163
328.665
327.572
328.811
326.282
329.489
327.45
323.552
325.512
330.418
319.685
318.042
319.145
318.915
320.053
320.288
317.577
318.69
317.694
320.083
319.327
322.62
320.632
320.58
318.081
315.329
323.923
316.488
318.52
317.166
306.967
311.416
310.693
313.544
307.62
312.586
312.976
312.013
312.542
315.306
315.42
309.742
310.408
311.686
312.649
309.777
311.567
311.517
308.903
310.62
303.551
301.182
302.936
304.245
302.885
306.718
305.28
304.459
304.566
308.884
304.585
307.006
303.019
301.697
302.716
302.667
307.009
301.139
303.648
310.543
355.306
354.556
360.155
358.116
362.176
359.789
359.159
365.083
365.89
360.797
362.567
361.998
360.283
361.288
357.738
358.068
359.845
357.564
354.659
358.421
345.487
347.811
348.957
353.427
352.392
349.616
357.535
350.264
351.027
352.621
352.9
352.135
350.998
352.722
348.638
353.703
349.139
352.72
351.024
350.79
344.004
342.701
341.395
344.177
343.523
346.124
348.921
344.039
346.661
342.786
346.436
340.54
347.32
347.897
344.395
340.999
337.867
342.027
340.687
341.313
334.693
339.588
335.946
337.259
335.381
335.095
340.138
341.178
333.743
332.469
336.896
331.218
334.778
339.078
332.946
331.873
334.669
330.82
332.03
332.287
324.006
329.574
325.161
329.93
328.593
326.379
328.206
328.763
327.41
327.108
332.156
334.009
324.881
327.467
330.163
326.076
330.079
326.156
322.581
324.949
317.309
315.422
321.373
319.694
318.399
321.418
321.81
323.483
317.714
317.633
316.628
322.232
321.144
321.463
319.715
319.452
316.752
316.607
316.525
319.224
310.252
315.554
311.512
313.984
312.132
309.812
312.539
309.931
311.897
313.03
314.024
314.633
311.498
312.287
312.774
314.42
310.903
313.939
311.175
310.492
304.211
304.564
305.891
303.948
304.169
301.693
301.578
304.327
304.311
305.493
305.159
306.808
301.878
307.606
305.898
306.11
302.573
302.511
302.269
303.285
358.651
355.751
359.87
361.806
363.427
359.509
362.035
362.066
369.126
363.878
362.154
363.29
364.648
360.67
362.82
362.112
359.826
355.257
358.286
358.399
354.274
347.216
352.651
351.123
348.987
350.179
350.198
352.685
353.004
350.976
352.129
356.023
352.913
352.958
350.215
352.905
349.376
351.513
347.427
351.194
346.028
339.892
343.653
343.478
345.651
346.003
351.98
345.858
349.755
343.832
346.542
346.836
346.542
341.699
342.663
345.898
346.054
345.346
345.617
342.7
335.206
333.302
337.398
338.675
336.332
336.243
335.709
335.024
340.36
332.912
335.812
338.379
339.089
335.316
337.3
340.038
333.281
333.564
334.146
330.972
330.802
326.775
327.587
329.75
325.508
328.117
332.21
327.39
329.969
331.497
329.128
325.189
329.288
326.263
330.573
331.581
326.792
328.336
327.809
325.973
318.956
319.258
322.287
321.866
323.298
322.168
324.787
320.535
321.317
320.261
317.625
320.284
319.682
322.043
321.133
319.377
317.013
323.529
319.79
318.527
311.582
309.858
311.64
311.028
306.746
313.179
313.681
309.404
312.579
313.502
310.94
314.684
315.818
313.034
309.405
312.899
311.796
311.377
309.044
313.419
303.327
305.229
304.942
301.239
303.966
302.025
305.83
303.738
301.004
307.727
306.037
301.945
303.895
301.284
306.699
297.854
305.232
303.942
303.476
304.954
360.32
360.173
361.343
358.813
362.545
364.458
366.362
365.476
364.713
364.152
369.103
365.681
366.482
362.644
360.156
360.328
360.789
358.278
359.401
360.957
351.721
356.202
348.996
354.627
355.676
350.526
359.881
357.994
358.064
353.807
349.821
356.461
350.864
356.324
355.207
351.697
352.91
352.598
348.619
344.954
340.049
349.009
340.405
343.887
343.117
343.967
344.767
345.429
351.186
344.489
348.084
349.104
348.513
351.179
351.855
349.139
345.661
343.961
340.443
344.607
332.244
331.435
336.138
338.305
334.263
337.182
335.608
345.006
338.471
338.245
340.359
337.205
340.812
332.372
340.865
336.296
334.927
337.095
336.172
331.578
321.935
328.734
328.046
326.891
329.797
333.456
327.662
331.577
330.158
329.378
327.597
326.762
337.207
330.797
327.796
335.086
328.734
330.007
330.647
326.023
315.323
322.394
320.058
319.025
317.536
320.483
320.338
321.323
320.278
316.337
318.776
324.687
319.925
319.304
319.456
321.769
319.79
318.915
321.055
323.403
307.88
314.723
311.429
314.256
315.795
309.579
313.457
309.565
311.969
312.357
316.408
311.789
310.986
313.156
314.072
315.177
312.081
311.714
314.113
313.561
302.166
302.454
301.652
306.146
302.242
303.439
307.252
308.433
301.319
300.12
305.895
310.027
300.847
306.578
301.12
305.209
303.725
301.391
306.522
300.718
359.496
364.427
360.273
365.953
361.917
362.121
365.014
364.783
364.589
366.466
363.278
370.345
365.733
360.707
357.873
367.84
361.66
361.173
358.801
366.922
353.662
350.055
351.71
351.57
357.63
353.233
356.562
354.548
355.865
355.353
355.113
357.923
354.237
360.826
352.417
353.972
350.173
353.712
350.744
353.077
350.316
343.888
345.224
344.782
348.218
350.425
346.723
350.449
349.834
350.766
345.914
347.124
345.295
348.512
349.844
341.388
343.578
346.819
343.94
343.457
338.006
341.765
335.387
333.673
335.736
339.258
337.836
340.627
339.625
339.112
338.947
337.794
339.636
340.425
337.604
337.915
340.3
336.919
334.802
333.573
327.752
326.632
328.324
327.031
330.9
328.985
332.913
331.343
331.692
329.113
331.172
333.439
328.844
331.773
325.034
330.732
328.149
332.137
332.789
330.654
316.601
324.587
323.88
322.439
318.628
321.936
323.713
323.711
325.841
321.753
325.063
320.069
323.635
321.293
317.844
322.701
319.876
320.984
320.55
319.19
313.876
306.054
310.989
312.524
315.55
314.811
313.468
316.175
314.03
314.338
313.44
311.848
312.623
313.047
313.584
315.637
309.879
315.579
310.608
311.241
301.122
303.006
307.321
304.068
305.098
304.511
302.5
304.796
305.269
303.439
305.86
306.063
305.272
305.746
303.818
303.752
304.578
301.894
304.644
308.108
359.619
361.985
363.333
362.073
362.058
368.746
366.262
368.058
369.285
366.605
366.776
366.634
369.236
368.825
366.784
364.943
364.373
364.745
362.06
361.146
352.167
352.916
360.533
352.796
357.415
354.116
355.531
354.793
356.788
355.439
355.532
354.199
356.129
363.606
354.035
361.77
353.757
351.755
352.611
352.456
345.281
344.022
348.222
345.981
345.456
348.836
348.978
351.149
348.191
349.855
347.468
347.071
350.484
348.014
348.514
341.788
349.258
348.447
344.463
344.244
334.879
335.213
336.658
336.819
343.212
336.742
339.534
336.286
341.052
341.111
338.021
340.244
335.057
341.639
336.941
334.026
338.485
341.743
339.302
334.944
329.472
329.563
332.176
329.026
330.736
331.236
334.34
334.449
333.888
333.198
329.109
333.562
336.532
327.427
330.021
333.186
328.508
328.83
326.314
329.946
320.548
319.197
317.867
317.716
319.846
321.753
320.483
320.987
325.892
322.482
321.991
323.282
322.096
322.118
323.157
322.003
318.35
316.318
321.507
321.889
311.35
314.189
309.303
310.145
316.31
309.71
316.345
310.345
312.459
313.659
306.928
311.487
314.258
315.493
316.839
313.365
312.242
310.478
308.689
313.367
300.715
301.071
298.384
303.918
304.612
302.283
301.329
309.459
300.225
300.786
302.269
304.961
303.315
306.209
308.254
305.347
306.518
301.929
301.358
305.85
359.942
364.033
364.627
365.531
363.514
369.418
364.242
366.786
370.086
370.749
368.777
364.945
370.728
371.554
366.306
364.912
363.443
363.932
363.525
362.817
354.312
350.982
356.203
356.146
361.6
359.601
359.502
360.912
362.015
362.623
358.239
362.178
356.804
360.291
357.434
353.621
356.278
358.112
348.82
351.873
348.546
345.147
347.035
350.645
352.145
349.166
343.288
352.375
349.546
351.178
352.565
349.832
348.629
349.734
350.455
349.401
347.379
343.672
340.001
345.18
338.268
340.669
339.787
341.702
338.098
341.273
339.285
338.854
340.926
341.878
338.355
340.169
344.57
341.884
344.097
337.835
337.809
338.718
335.842
336.698
326.059
327.418
332.193
333.131
329.411
326.967
335.187
331.105
328.715
333.896
329.835
333.568
328.877
334.515
331.657
331.095
326.442
329.904
329.297
330.312
318.223
321.919
322.778
322.114
321.454
322.266
321.934
323.134
324.284
320.278
324.978
317.387
325.413
319.935
320.047
320.64
319.122
321.984
317.878
318.25
312.67
308.119
315.646
312.898
312.729
314.365
311.174
315.327
312.397
311.134
312.226
313.251
310.9
312.472
315.806
314.603
311.877
316.079
311.811
311.91
304.001
306.764
301.946
304.101
303.66
302.045
299.6
302.959
305.505
304.819
307.621
306.243
304.4
301.254
300.841
307.179
303.185
304.239
303.257
306.962
365.368
365.586
363.4
365.325
367.541
367.274
367.7
366.53
368.807
371.704
369.612
369.672
372.429
368.156
364.131
373.499
366.182
357.58
360.756
365.505
353.037
358.62
358.245
356.961
359.078
358.25
359.69
357.307
360.352
359.142
359.337
357.114
357.996
358.15
357.028
355.595
356.967
355.277
356.823
356.709
347.761
346.358
348.554
351.267
349.079
347.784
352.662
353.079
350.846
353.546
354.783
348.914
349.687
350.473
349.363
348.427
345.816
343.047
346.073
342.548
337.138
337.962
337.099
343.646
340.352
341.318
336.557
340.691
341.684
343.202
342.641
342.817
338.214
340.941
339.229
341.383
339.22
339.332
335.676
339.771
332.338
330.497
330.163
330.796
333.782
331.801
332.515
330.588
333.144
331.559
331.635
334.543
331.068
328.63
329.986
332.874
331.046
325.754
330.777
329.801
324.251
325.62
325.061
324.196
323.008
320.986
327.117
320.811
323.116
324.824
325.979
323.691
323.299
320.828
321.744
324.244
323.467
321.999
319.134
323.393
314.478
309.568
314.737
308.361
317.039
312.166
319.452
317.207
317.041
318.644
309.571
314.27
315.674
311.03
315.024
312.676
313.205
311.41
310.61
312.017
306.753
309.326
309.039
307.418
305.182
301.718
302.195
305.653
306.301
306.106
305.709
306.783
302.576
310.941
303.801
304.311
303.434
306.229
305.072
304.574
366.675
366.783
365.578
366.65
377.849
366.167
369.486
367.496
368.85
372.328
370.045
372.258
371.038
369.951
372.535
368.14
365.562
365.989
361.369
362.982
356.084
356.247
355.248
358.795
358.862
362.333
358.757
362.165
364.752
362.824
358.755
357.668
360.912
363.109
360.606
356.601
358.142
360.096
358.098
352.015
345.851
347.431
347.526
347.747
348.998
354.345
348.915
351.597
351.482
348.852
353.762
350.957
352.118
351.211
353.133
348.481
350.636
348.284
343.247
346.738
337.975
339.167
339.376
341.26
341.081
340.915
338.57
339.343
343.955
342.556
346.783
344.607
338.58
338.204
341.703
341.83
338.915
334.764
339.976
337.742
328.638
330.849
332.994
327.253
331.77
333.151
330.985
331.124
326.794
334.272
332.924
332.262
331.741
333.539
336.86
335.65
329.388
336.069
331.396
331.069
321.233
321.859
321.6
324.035
323.657
321.829
322.914
324.72
319.986
323.877
322.431
323.044
324.684
323.543
324.997
319.463
319.602
322.844
317.514
319.367
313.78
316.184
313.767
310.311
311.075
312.811
307.879
312.139
311.125
314.885
310.064
318.903
316.478
312.611
311.003
310.879
310.21
311.39
314.807
313.263
301.803
304.523
303.278
306.75
299.725
306.65
304.382
305.074
301.624
301.82
307.804
305.794
302.473
300.744
306.271
301.879
306.611
305.789
302.535
303.986
366.458
365.971
365.912
366.155
369.615
366.535
371.435
370.607
375.561
370.794
374.237
372.031
368.64
371.814
369.692
369.645
371.45
369.719
365.332
364.326
358.294
358.774
356.263
360.701
358.778
361.177
357.59
361.962
360.022
361.968
361.696
363.914
362.072
365.1
361.63
358.088
360.351
361.937
359.746
354.104
349.841
348.951
346.821
349.212
345.869
352.714
352.117
353.801
351.387
352.43
348.972
352.281
355.998
349.347
352.677
349.564
347.86
347.755
346.618
347.298
337.39
340.056
340.232
341.98
340.534
338.02
341.399
341.862
344.102
343.084
342.878
342.951
344.055
344.272
340.52
342.937
338.523
340.061
335.183
340.713
324.487
333.514
330.018
331.892
330.269
330.832
333.75
336.43
328.716
334.261
330.813
334.391
335.568
333.023
332.98
329.652
330.987
333.437
326.967
332.459
322.501
318.718
324.309
320.468
322.576
319.47
323.069
324.795
325.512
323.229
328.442
323.568
328.678
327.041
320.749
325.377
321.21
321.419
320.34
323.162
313.17
314.78
315.241
314.206
312.755
319.407
317.07
314.718
312.048
315.257
310.746
316.206
312.447
310.732
312.128
314.946
313.947
311.738
313.703
310.577
306.539
304.006
305.95
303.252
307.384
303.609
302.408
305.234
301.604
304.923
305.854
303.632
306.316
304.013
305.225
304.312
308.683
301.794
306.276
304.412
363.867
363.787
369.083
368.068
376.566
375.208
368.471
374.248
371.432
375.001
374.716
374.778
375.719
370.398
374.048
365.613
373.623
365.878
362.893
365.684
355.73
357.369
354.177
358.154
362.093
363.338
360.189
365.458
360.637
362.627
362.622
363.641
363.708
360.195
361.03
362.438
357.553
357.398
359.443
355.726
346.698
346.42
347.989
350.219
351.74
351.395
351.556
355.305
351.794
353.15
354.644
355.697
354.303
355.279
348.79
347.797
347.381
346.888
345.562
345.176
343.888
336.773
340.623
342.923
340.67
340.925
338.552
343.495
341.046
339.809
340.108
342.554
341.037
345.671
344.812
340.575
337.144
339.61
336.186
338.301
331.38
332.175
330.695
333.823
332.664
336.263
330.495
334.501
335.024
334.051
339.915
333.955
334.962
332.788
336.652
332.508
333.955
337.91
328.385
329.493
321.111
321.437
320.272
319.199
325.537
329.626
323.668
324.468
325.777
324.121
324.935
321.44
324.137
322.627
321.409
320.019
321.217
322.669
323.26
317.68
309.806
314.399
312.858
313.704
312.146
313.678
316.485
317.274
312.188
315.45
315.77
308.794
314.126
316.235
314.187
315.178
314.061
313.202
316.194
311.415
304.431
305.468
302.967
298.817
302.962
304.699
302.8
307.04
305.004
304.053
304.614
305.746
302.679
306.692
303.911
302.914
304.986
303.673
300.649
308.523
370.376
367.179
364.086
366.521
373.402
375.535
371.479
373.082
373.361
374.876
373.937
373.436
371.165
369.562
371.109
370.967
369.239
367.249
366.403
365.907
357.856
363.611
361.988
366.383
359.575
364.508
361.931
366.966
360.882
366.408
365.774
360.063
366.322
360.709
365.431
362.549
364.21
357.216
364.846
357.876
350.444
349.985
348.929
354.08
349.83
352.094
351.712
353.135
353.445
355.05
355.589
352.518
353.088
350.478
354.684
353.333
349.409
347.119
349.636
346.609
341.557
340.155
337.265
340.656
341.118
345.259
345.225
341.61
342.394
346.487
344.585
346.049
345.422
343.086
339.674
336.309
341.124
339.718
343.492
337.415
328.142
332.956
329.51
333.856
330.743
329.657
332.712
332.003
338.173
334.36
333.459
335.135
336.09
332.413
335.3
331.11
330.964
330.872
330.319
333.21
320.487
324.752
320.725
324.586
321.497
322.548
322.835
323.691
322.768
322.705
326.509
324.246
324.751
326.636
322.828
323.578
322.145
324.434
322.465
321.283
314.284
308.158
318.58
313.729
313.999
315.581
315.149
313.876
312.407
317.272
314.279
316.179
310.286
315.08
313.652
314.761
314.268
316.234
311.427
309.286
300.289
302.894
305.652
307.383
305.619
306.41
307.279
307.053
303.709
302.175
304.019
303.976
309.241
306.861
302.958
305.286
304.257
304.286
304.311
304.552
366.895
365.759
365.37
377.35
371.733
375.567
373.153
375.745
373.38
371.99
373.511
372.973
371.815
372.667
370.085
370.478
368.792
362.068
366.243
366.814
356.97
358.74
359.027
360.749
353.778
362.183
362.171
365.137
362.716
366.62
364.415
364.606
366.994
359.526
362.618
360.387
358.647
356.715
358.586
355.658
345.974
347.063
345.683
352.202
352.407
353.717
350.276
356.597
353.641
352.286
351.338
353.784
350.066
352.067
351.028
351.262
355.722
347.5
348.487
343.09
339.402
338.674
335.776
338.23
340.639
340.379
343.594
344.216
345.492
347.025
344.746
344.207
342.562
341.232
346.877
341.116
341.582
340.112
336.745
339.837
329.765
328.437
331.277
335.5
331.106
333.056
330.442
335.802
333.44
335.369
334.192
334.101
334.52
333.983
331.761
327.063
331.47
331.825
332.44
332
322.165
323.257
323.231
324.544
323.614
321.96
326.476
327.597
323.065
325.231
323.155
324.45
326.475
324.341
328.182
323.795
322.054
322.966
319.384
323.269
317.224
315.074
315.206
316.428
313.614
312.225
315.183
313.043
317.874
317.627
314.123
314.346
317.148
319.597
314.79
315.711
315.521
311.728
313.813
314.55
306.252
301.989
304.044
304.108
302.013
300.066
307.664
305.105
308.556
307.246
303.971
302.157
307.515
307.003
306.293
304.473
303.987
303.304
307.973
304.017
368.768
366.604
366.306
371.426
373.652
372.447
366.922
376.904
370.525
376.028
371.826
374.708
374.904
370.754
370.953
367.99
368.309
366.592
368.296
365.423
358.188
368.903
357.246
371.763
360.857
370.953
363.293
371.257
362.291
370.426
371.22
368.732
371.563
361.567
370.795
357.045
369.857
361.371
369.138
357.462
348.709
348.726
351.015
351.052
350.773
348.476
353.5
352.164
358.439
353.451
354.076
354.945
353.579
351.293
346.545
352.463
352.071
351.69
349.157
347.505
339.685
338.185
340.135
340.767
341.739
339.793
342.076
345.674
345.227
341.838
348.526
344.439
341.409
343.137
343.512
338.602
344.017
341.14
335.189
338.167
329.833
328.857
329.526
332.967
334.42
334.661
334.223
330.473
337.589
334.183
336.116
332.336
338.163
333.053
330.133
334.523
329.134
331.538
334.7
328.433
321.74
320.485
318.235
326.371
320.379
323.734
325.735
324.491
326.29
323.488
324.006
331.239
327.114
324.267
326.353
327.142
323.99
323.405
319.402
324.692
314.195
310.788
313.009
308.46
314.861
316.015
314.233
315.109
312.678
312.072
314.546
315.768
313.981
315.602
313.218
316.101
318.986
311.387
307.087
311.727
306.081
307.882
301.822
301.271
305.651
306.123
304.555
309.34
302.217
304.412
304.131
306.251
302.926
306.995
308.042
298.149
305.291
305.141
301.05
302.097
368.216
368.487
372.076
370.298
370.439
373.502
374.982
375.782
373.884
373.657
374.527
371.466
373.283
371.15
370.435
366.575
374.764
366.244
367.279
366.627
357.097
358.11
359.84
359.413
361.345
365.069
366.717
360.476
363.01
360.142
361.455
363.706
366.334
360.98
361.785
361.347
358.108
355.173
358.503
357.02
351.32
348.092
346.919
352.581
345.635
350.029
355.116
349.704
355.757
357.546
351.607
355.315
357.973
353.924
353.739
350.323
352.009
347.536
351.111
344.903
336.964
340.54
343.192
343.366
339.72
343.747
345.695
339.196
343.922
340.207
344.209
341.484
337.352
340.549
344.805
341.413
343.151
338.415
340.594
338.443
329.442
334.552
329.304
333.625
335.543
329.918
337.194
333.867
336.961
333.627
338.328
338.116
334.961
336.686
328.905
331.851
328.274
328.574
332.746
332.506
319.08
325.399
320.739
323.047
325.759
322.019
322.852
326.509
326.476
324.105
322.232
322.39
326.502
325.327
326.609
322.815
322.735
324.241
326.03
322.256
310.855
314.353
315.221
315.116
311.705
314.742
317.29
312.833
315.354
315.012
311.489
317.448
314.995
325.163
313.448
311.9
313.193
311.649
314.259
311.923
307.764
300.733
307.902
305.602
302.983
304.435
305.686
307.596
305.144
305.13
307.834
304.335
304.095
304.813
305.911
301.055
301.243
303.649
301.346
305.179
)
;

boundaryField
{
    hotSide
    {
        type            fixedGradient;
        gradient        nonuniform List<scalar> 
400
(
321.511
322.87
325.591
329.677
335.133
341.965
350.181
359.788
370.794
383.208
397.037
412.289
428.971
447.088
466.647
487.651
510.105
534.011
559.372
586.191
323.738
325.08
327.767
331.802
337.194
343.949
352.078
361.591
372.498
384.81
398.537
413.687
430.268
448.289
467.755
488.672
511.043
534.872
560.161
586.913
326.149
327.47
330.116
334.091
339.406
346.071
354.099
363.503
374.296
386.491
400.101
415.136
431.606
449.52
468.885
489.706
511.988
535.735
560.948
587.63
328.704
330
332.597
336.503
341.73
348.292
356.205
365.485
376.15
388.215
401.695
416.604
432.954
450.753
470.009
490.73
512.919
536.579
561.714
588.325
331.33
332.599
335.142
338.97
344.099
350.546
358.332
367.477
378.003
389.928
403.271
418.047
434.27
451.949
471.095
491.712
513.807
537.382
562.439
588.978
333.918
335.158
337.643
341.389
346.414
352.74
360.392
369.397
379.779
391.562
404.765
419.407
435.503
453.065
472.101
492.618
514.622
538.114
563.096
589.569
336.321
337.531
339.959
343.622
348.544
354.751
362.274
371.142
381.385
393.031
406.101
420.618
436.595
454.047
472.983
493.409
515.33
538.747
563.663
590.076
338.36
339.543
341.92
345.509
350.339
356.44
363.847
372.595
382.718
394.244
407.2
421.608
437.485
454.844
473.695
494.045
515.897
539.253
564.114
590.478
339.852
341.015
343.352
346.885
351.645
357.665
364.985
373.643
383.675
395.113
407.984
422.312
438.116
455.407
474.197
494.491
516.294
539.606
564.428
590.758
340.643
341.795
344.11
347.613
352.334
358.311
365.584
374.193
384.176
395.567
408.393
422.679
438.443
455.699
474.456
494.722
516.498
539.788
564.589
590.901
340.643
341.795
344.11
347.613
352.334
358.311
365.584
374.193
384.176
395.567
408.393
422.679
438.443
455.699
474.456
494.722
516.498
539.788
564.589
590.901
339.852
341.015
343.352
346.885
351.645
357.665
364.985
373.643
383.675
395.113
407.984
422.312
438.116
455.407
474.197
494.491
516.294
539.606
564.428
590.758
338.36
339.543
341.92
345.509
350.339
356.44
363.847
372.595
382.718
394.244
407.2
421.608
437.485
454.844
473.695
494.045
515.897
539.253
564.114
590.478
336.321
337.531
339.959
343.622
348.544
354.751
362.274
371.142
381.385
393.031
406.101
420.618
436.595
454.047
472.983
493.409
515.33
538.747
563.663
590.076
333.918
335.158
337.643
341.389
346.414
352.74
360.392
369.397
379.779
391.562
404.765
419.407
435.503
453.065
472.101
492.618
514.622
538.114
563.096
589.569
331.33
332.599
335.142
338.97
344.099
350.546
358.332
367.477
378.003
389.928
403.271
418.047
434.27
451.949
471.095
491.712
513.807
537.382
562.439
588.978
328.704
330
332.597
336.503
341.73
348.292
356.205
365.485
376.15
388.215
401.695
416.604
432.954
450.753
470.009
490.73
512.919
536.579
561.714
588.325
326.149
327.47
330.116
334.091
339.406
346.071
354.099
363.503
374.296
386.491
400.101
415.136
431.606
449.52
468.885
489.706
511.988
535.735
560.948
587.63
323.738
325.08
327.767
331.802
337.194
343.949
352.078
361.591
372.498
384.81
398.537
413.687
430.268
448.289
467.755
488.672
511.043
534.872
560.161
586.913
321.511
322.87
325.591
329.677
335.133
341.965
350.181
359.788
370.794
383.208
397.037
412.289
428.971
447.088
466.647
487.651
510.105
534.011
559.372
586.191
)
;
    }
    coldSide
    {
        type            mixed;
        refValue        uniform 300;
        refGradient     uniform 0;
        valueFraction   uniform 0.991591;
        source          uniform 0;
        value           nonuniform List<scalar> 
400
(
300.037
300.042
300.063
300.026
300.015
300.03
300.035
300.028
300.018
300.009
300.006
300.034
300.057
300.015
300.055
300.037
300.002
300.053
300.051
300.065
300.051
300.029
300.008
300.03
300.033
300.01
300.038
300.044
300.021
300.025
300.009
300.057
300.078
300.038
300.034
300.046
300.024