/*--------------------------------*- C++ -*----------------------------------*\
| =========                 |                                                 |
| \\      /  F ield         | OpenFOAM: The Open Source CFD Toolbox           |
|  \\    /   O peration     | Version:  2212                                  |
|   \\  /    A nd           | Website:  www.openfoam.com                      |
|    \\/     M anipulation  |                                                 |
\*---------------------------------------------------------------------------*/
FoamFile
{
    version     2.0;
    format      ascii;
    arch        "LSB;label=32;scalar=64";
    class       volScalarField;
    location    "./ITHACAoutput/true/13.6";
    object      error;
}
// * * * * * * * * * * * * * * * * * * * * * * * * * * * * * * * * * * * * * //

dimensions      [0 0 0 1 0 0 0];

internalField   nonuniform List<scalar> 
3200
(
6.35019
6.35167
6.43197
6.47676
6.75416
7.03577
7.26411
7.5131
7.64349
7.70577
7.66002
7.69118
7.50152
7.27713
7.11173
6.74683
6.64723
6.40493
6.3651
6.35742
5.46636
5.43862
5.49109
5.62798
5.77601
6.06278
6.19923
6.47205
6.53621
6.63554
6.62361
6.54113
6.44421
6.26316
6.06554
5.83952
5.68439
5.57346
5.43463
5.36843
4.53491
4.50995
4.60491
4.65412
4.81347
4.95403
5.26019
5.42307
5.55072
5.54416
5.58932
5.48366
5.40261
5.1846
5.06673
4.89031
4.72384
4.63978
4.48134
4.54835
3.66207
3.67234
3.76777
3.87746
3.91218
4.05187
4.18642
4.37083
4.48853
4.49294
4.52126
4.47929
4.40061
4.2457
4.0834
3.97028
3.88015
3.71002
3.67409
3.61879
2.70458
2.84285
2.89313
2.97962
3.0204
3.12133
3.32565
3.34407
3.4597
3.50652
3.46535
3.4802
3.4061
3.31988
3.17402
3.07665
2.97367
2.85736
2.776
2.8704
2.06598
2.01901
2.07507
2.09299
2.16211
2.22712
2.30308
2.36098
2.4625
2.42785
2.51096
2.49272
2.36585
2.32366
2.20615
2.1703
2.1042
2.05215
2.01152
1.97177
1.13514
1.16549
1.21203
1.2429
1.3234
1.33703
1.50495
1.45243
1.48388
1.44577
1.43397
1.50882
1.48177
1.44149
1.35446
1.29066
1.20341
1.29267
1.18833
1.20158
0.424561
0.462744
0.352515
0.464071
0.35167
0.43547
0.422939
0.500145
0.455964
0.511325
0.442244
0.501925
0.536891
0.434057
0.394063
0.456911
0.345636
0.400831
0.475023
0.413121
5.84954
5.75282
5.9033
5.9983
6.16995
6.38765
6.56693
6.81799
6.98867
7.14022
7.0271
7.01577
6.75073
6.64279
6.38991
6.12601
5.91792
5.78798
5.71774
5.74663
5.02417
4.99837
5.0376
5.11347
5.28398
5.41038
5.70109
5.86719
6.05266
6.07353
6.04797
5.95662
5.79817
5.65284
5.50846
5.23974
5.13735
4.98926
4.96029
4.91568
4.18462
4.15719
4.22056
4.29142
4.44134
4.64156
4.74862
4.92557
5.0061
5.169
5.19348
4.98053
4.93705
4.74093
4.6324
4.39962
4.31686
4.22875
4.12706
4.15988
3.41345
3.40421
3.38667
3.53417
3.5682
3.7966
3.86358
4.02802
4.15324
4.15035
4.21621
4.07352
4.01152
3.86402
3.78629
3.64632
3.45727
3.40473
3.33741
3.35779
2.55295
2.63767
2.63981
2.69639
2.77566
2.84523
3.0183
3.11652
3.1719
3.20419
3.19545
3.1758
3.08905
3.04713
2.8891
2.78907
2.71499
2.59288
2.63928
2.60909
1.89128
1.9055
1.9252
1.92755
2.04721
2.0811
2.17423
2.25893
2.26489
2.33137
2.26016
2.2831
2.22914
2.21
2.08151
1.96649
1.94816
1.91336
1.75848
1.84852
1.07273
1.14337
1.10591
1.16953
1.25336
1.24022
1.3168
1.33639
1.38369
1.30016
1.36879
1.38713
1.34211
1.21319
1.22973
1.27661
1.15341
1.07874
1.15593
1.16107
0.33807
0.379048
0.376166
0.390779
0.373112
0.452955
0.499306
0.424203
0.434371
0.481442
0.433733
0.455283
0.424384
0.443699
0.391475
0.320456
0.419995
0.328849
0.378483
0.345786
5.11545
5.04671
5.22802
5.19264
5.36364
5.57019
5.83383
5.90873
6.10677
6.19849
6.13579
6.13301
5.91164
5.78391
5.54674
5.39491
5.11351
5.04331
4.97833
5.03732
4.43241
4.36899
4.40462
4.50717
4.64985
4.78622
5.03804
5.16766
5.27505
5.30425
5.26716
5.20683
5.12415
4.92927
4.80617
4.5591
4.43362
4.35168
4.31284
4.31974
3.73334
3.69792
3.74122
3.76117
3.93182
4.05283
4.2092
4.30903
4.41578
4.48538
4.43322
4.40337
4.30824
4.13386
3.98273
3.85883
3.69737
3.57709
3.6453
3.57997
2.96183
3.01858
2.96006
3.06775
3.15668
3.28873
3.41221
3.61518
3.61132
3.66129
3.59733
3.55314
3.41731
3.42268
3.25242
3.02839
3.05625
2.8782
2.9214
2.89636
2.31222
2.28615
2.32732
2.39577
2.43
2.58226
2.68767
2.79284
2.83974
2.84557
2.82352
2.79975
2.77658
2.69169
2.5245
2.3786
2.38737
2.3111
2.31096
2.29355
1.71339
1.64783
1.68679
1.72725
1.76355
1.84736
1.90396
1.91346
2.02004
2.0407
2.00472
2.00945
1.90593
1.87033
1.78931
1.68578
1.62813
1.68904
1.54472
1.54275
1.05239
0.991799
0.98655
1.08326
1.02259
1.05788
1.0924
1.13112
1.24259
1.23406
1.2146
1.20595
1.13754
1.13011
1.14293
1.02012
0.908517
1.03073
1.03792
0.973801
0.299396
0.341155
0.335274
0.405228
0.392592
0.416347
0.35687
0.408862
0.345369
0.426754
0.409031
0.448435
0.405806
0.420065
0.351994
0.334955
0.38289
0.31352
0.376742
0.319714
4.55642
4.37838
4.46762
4.40856
4.57284
4.67882
4.95143
5.11807
5.23177
5.27132
5.20769
5.17868
5.06474
4.83052
4.67326
4.42789
4.32395
4.25193
4.26353
4.23668
3.89782
3.81591
3.75229
3.93412
3.94252
4.09729
4.22472
4.34875
4.53931
4.53745
4.47074
4.37503
4.36024
4.09491
3.98394
3.8266
3.76884
3.63038
3.66134
3.64037
3.27807
3.2004
3.23177
3.23824
3.39192
3.44757
3.55481
3.67466
3.78979
3.8008
3.81115
3.77778
3.67712
3.52969
3.37091
3.21628
3.11761
3.00726
3.01655
3.10215
2.6811
2.61798
2.68455
2.67019
2.69639
2.76484
2.94337
3.00059
3.11315
3.12283
3.14015
3.07047
2.92802
2.88389
2.81094
2.63808
2.51156
2.58655
2.47246
2.50394
2.11827
2.02841
1.99214
2.03818
2.06386
2.21228
2.23671
2.31632
2.4526
2.42004
2.43162
2.42927
2.26939
2.22338
2.14822
1.97832
1.98284
1.9253
1.99924
2.02498
1.44309
1.44528
1.50771
1.49177
1.54558
1.50749
1.56119
1.62339
1.713
1.77118
1.71552
1.68544
1.68941
1.59235
1.50488
1.45489
1.40252
1.40459
1.33728
1.35352
0.819014
0.948755
0.882312
0.813608
0.849548
0.98535
1.00439
1.03921
1.04087
0.997686
1.0589
1.00883
1.04124
0.988456
0.897372
0.875413
0.875813
0.884113
0.841291
0.846433
0.2908
0.210094
0.317868
0.304136
0.248111
0.286234
0.346127
0.38441
0.322256
0.380127
0.349635
0.348797
0.33289
0.289896
0.332027
0.344415
0.268165
0.304888
0.24947
0.213082
3.89485
3.74449
3.7529
3.78279
3.81897
3.97009
4.13606
4.2033
4.36592
4.40352
4.35024
4.28429
4.11274
3.92816
3.78267
3.65487
3.52631
3.50171
3.60457
3.59797
3.33715
3.19448
3.23934
3.21279
3.33103
3.42053
3.55299
3.60535
3.79154
3.75963
3.75149
3.75039
3.45159
3.38187
3.30064
3.12374
3.09247
2.95496
3.02609
3.03069
2.80815
2.81979
2.7569
2.71421
2.7526
2.79519
2.99769
3.02577
3.17352
3.10982
3.14783
3.10364
2.97527
2.9507
2.77264
2.6342
2.57115
2.50919
2.59384
2.61134
2.33496
2.26366
2.18755
2.29684
2.28907
2.36307
2.40654
2.52324
2.5412
2.61435
2.61506
2.52647
2.45027
2.40437
2.20527
2.07843
1.97762
2.02315
2.03904
2.10798
1.79196
1.79212
1.72325
1.71662
1.80995
1.82712
1.91525
1.87646
2.05983
2.04212
1.96679
1.99432
1.89652
1.7957
1.71722
1.67043
1.54001
1.59462
1.54475
1.64171
1.25403
1.21771
1.26612
1.21808
1.24261
1.26781
1.32423
1.39643
1.41139
1.43303
1.42811
1.40552
1.41599
1.32637
1.20588
1.14299
1.20026
1.14307
1.13411
1.06954
0.708603
0.779211
0.68905
0.726637
0.774169
0.824945
0.817899
0.904378
0.850112
0.903659
0.854416
0.809213
0.800083
0.81609
0.79072
0.686136
0.708686
0.690354
0.660722
0.665098
0.254827
0.226802
0.189196
0.252401
0.298909
0.260947
0.24655
0.239104
0.315723
0.236813
0.293902
0.331723
0.290305
0.299173
0.243755
0.270473
0.279449
0.304375
0.178763
0.266548
3.46525
3.34954
3.21124
3.16322
3.20344
3.30997
3.30839
3.443
3.55435
3.548
3.53398
3.50996
3.33542
3.12835
3.04164
2.89104
2.8683
2.83802
2.90221
2.99613
2.93514
2.80004
2.74762
2.67983
2.75744
2.83275
2.94718
2.88158
3.08323
3.042
3.02028
2.97083
2.85614
2.66693
2.59798
2.51574
2.45114
2.40959
2.47906
2.53155
2.46989
2.29499
2.26956
2.26545
2.26694
2.30254
2.38927
2.51568
2.49949
2.52641
2.54787
2.41571
2.41877
2.35499
2.19659
2.14075
2.03014
2.03369
2.02867
2.12056
2.06056
1.8935
1.83405
1.86705
1.87776
1.95827
1.95982
1.98676
2.05403
2.0894
1.99896
2.05567
1.93969
1.93547
1.74552
1.6652
1.71727
1.68596
1.68192
1.81732
1.54291
1.53635
1.4387
1.42204
1.50549
1.44264
1.65055
1.60753
1.58783
1.60198
1.63685
1.579
1.50095
1.50976
1.34538
1.25372
1.33768
1.28041
1.32957
1.40832
1.11837
1.09876
0.960715
1.01753
1.11348
1.10355
1.14109
1.2139
1.16345
1.19188
1.17368
1.07838
1.08171
1.06911
0.953374
0.924184
0.935635
0.901349
0.95435
1.04362
0.614565
0.617656
0.639262
0.679871
0.650188
0.677005
0.684624
0.667536
0.698567
0.680213
0.71776
0.678071
0.61854
0.659271
0.55851
0.567025
0.608776
0.526122
0.582869
0.631368
0.298147
0.218008
0.200267
0.203866
0.162573
0.172635
0.219159
0.216514
0.186849
0.254645
0.260891
0.22042
0.158329
0.208967
0.211449
0.212855
0.17068
0.155466
0.2215
0.163752
3.00719
2.92767
2.7213
2.69209
2.65386
2.62411
2.76337
2.72533
2.80298
2.81279
2.74978
2.68858
2.5578
2.44263
2.31809
2.32994
2.23301
2.26877
2.30742
2.55394
2.64423
2.46761
2.32596
2.29202
2.26916
2.30378
2.33265
2.33249
2.40442
2.44136
2.38836
2.36923
2.23145
2.139
2.01208
1.93622
1.8996
2.00073
1.98618
2.14915
2.15277
2.10034
1.93735
1.85908
1.88105
1.90639
1.93893
1.95818
2.00868
2.03758
2.05936
1.95032
1.86991
1.77457
1.67566
1.5571
1.58643
1.65562
1.69756
1.76124
1.7705
1.68241
1.60066
1.5739
1.52875
1.59434
1.60243
1.63377
1.62296
1.61089
1.68513
1.60531
1.53471
1.483
1.3937
1.26279
1.28124
1.28965
1.359
1.38823
1.3625
1.26124
1.22492
1.15564
1.23673
1.20945
1.25727
1.26186
1.26629
1.27046
1.30678
1.22113
1.21235
1.14349
1.0549
1.03909
1.05116
1.06038
1.00679
1.07552
0.932652
1.00863
0.909409
0.837154
0.808042
0.900828
0.825328
0.845227
0.855239
0.923212
0.9533
0.828252
0.770686
0.834451
0.761048
0.768326
0.746986
0.746574
0.77982
0.784148
0.568438
0.522199
0.567278
0.525258
0.51696
0.612514
0.524076
0.5227
0.512264
0.518526
0.504471
0.504587
0.519473
0.474668
0.467208
0.418685
0.410444
0.437782
0.507911
0.551524
0.190785
0.195059
0.202996
0.167255
0.116507
0.167972
0.176645
0.111057
0.162164
0.12075
0.25377
0.209628
0.154852
0.130542
0.126176
0.196512
0.0879849
0.146653
0.118852
0.169184
2.83467
2.57355
2.35444
2.20934
2.11501
2.10298
2.17459
2.12355
2.19787
2.14565
2.10396
2.0297
1.92522
1.92478
1.86193
1.75342
1.76146
1.89257
1.9295
2.10851
2.33426
2.17206
2.02308
1.94581
1.82504
1.84285
1.80349
1.86445
1.82308
1.89904
1.81187
1.73592
1.68218
1.58728
1.53346
1.46962
1.42159
1.52047
1.66206
1.77056
1.95562
1.78319
1.73044
1.62228
1.53464
1.51287
1.57718
1.56634
1.56479
1.60172
1.60265
1.50359
1.44468
1.36701
1.26633
1.29923
1.23181
1.28731
1.38662
1.52178
1.55266
1.48733
1.43329
1.28663
1.25394
1.25253
1.23463
1.32304
1.26175
1.31014
1.27754
1.22368
1.15337
1.11788
1.01296
0.990382
1.00688
1.03717
1.06361
1.21542
1.22108
1.14838
1.12673
0.969084
0.955813
0.917151
0.890847
0.957386
1.08559
1.02073
0.940057
0.94853
0.867522
0.854586
0.777671
0.760159
0.821074
0.845488
0.90529
0.923788
0.923039
0.763209
0.762897
0.713663
0.61919
0.686613
0.638918
0.675705
0.735408
0.692253
0.684562
0.699736
0.67497
0.65823
0.556838
0.533433
0.571482
0.566273
0.649171
0.657084
0.462507
0.488682
0.443693
0.415422
0.432253
0.437576
0.43223
0.440039
0.385997
0.406106
0.436118
0.377313
0.351412
0.410542
0.327971
0.355292
0.309549
0.310324
0.323228
0.384732
0.196713
0.150861
0.175465
0.194862
0.0672741
0.11715
0.111142
0.120481
0.191448
0.187696
0.172741
0.155024
0.155547
0.0771096
0.0699404
0.0704518
0.127995
0.110154
0.0780107
0.103068
2.58469
2.34107
2.09979
1.98023
1.88113
1.78285
1.70129
1.68223
1.70556
1.67206
1.6573
1.54878
1.45102
1.45919
1.41391
1.31762
1.36447
1.52053
1.66526
1.89453
2.24446
1.99876
1.80966
1.66054
1.60659
1.45123
1.48102
1.43651
1.46046
1.41537
1.31169
1.3018
1.23253
1.1737
1.09351
1.1807
1.16519
1.25369
1.38685
1.56782
1.8619
1.63248
1.52134
1.31016
1.26779
1.26772
1.19545
1.2253
1.21243
1.15578
1.22625
1.07782
0.973457
0.980475
0.936155
0.939372
1.00655
1.0277
1.09656
1.34192
1.54995
1.431
1.22593
1.09454
1.00346
1.06822
0.975283
0.964942
0.951003
0.979663
0.850926
0.820265
0.852428
0.766525
0.720376
0.775301
0.625466
0.867111
0.888945
1.04607
1.15403
1.07997
0.95284
0.903317
0.740447
0.777984
0.757094
0.788768
0.79622
0.792888
0.684596
0.748004
0.641539
0.621424
0.602065
0.616055
0.590278
0.698272
0.764126
0.843062
0.842885
0.730962
0.67464
0.559276
0.491246
0.599166
0.506468
0.552968
0.545355
0.503542
0.449766
0.476995
0.469709
0.440472
0.37602
0.334804
0.427032
0.499183
0.471189
0.586938
0.426269
0.398071
0.391503
0.331943
0.317701
0.305408
0.349659
0.333747
0.310295
0.314422
0.373983
0.311252
0.251696
0.285343
0.307415
0.280101
0.210336
0.264572
0.305423
0.306674
0.160738
0.167129
0.148194
0.15098
0.121532
0.0681548
0.119829
0.132471
0.103009
0.118457
0.101197
0.0901896
0.0539926
0.0923818
0.111093
0.111172
0.0780536
0.0947588
0.121651
0.111362
2.57638
2.28181
2.00458
1.75432
1.67739
1.48982
1.41091
1.32535
1.37893
1.30886
1.17575
1.16667
1.08533
1.03435
1.0295
1.03888
1.17868
1.29333
1.42685
1.70794
2.16152
1.96307
1.67673
1.49884
1.40308
1.2514
1.19104
1.13178
1.1597
1.06164
1.0149
0.952902
0.977327
0.875071
0.879691
0.861911
0.929158
1.06128
1.30391
1.38056
1.74784
1.64163
1.45376
1.27646
1.16371
1.02325
1.08868
0.980031
0.931045
0.960567
0.792732
0.780239
0.806924
0.750923
0.71382
0.751162
0.825062
0.890358
1.05433
1.21169
1.38795
1.24602
1.19251
1.06936
0.98911
0.861528
0.894097
0.787179
0.808494
0.738575
0.750946
0.653985
0.624768
0.573927
0.632955
0.595909
0.669225
0.714556
0.816626
0.974574
1.13047
1.00577
0.879078
0.780593
0.751325
0.632205
0.664618
0.593474
0.587017
0.520339
0.516046
0.475537
0.441648
0.406665
0.453392
0.426509
0.470806
0.583599
0.627001
0.752274
0.785734
0.758839
0.615611
0.568211
0.488038
0.420568
0.418561
0.387996
0.415672
0.382255
0.403235
0.377575
0.333839
0.300559
0.302631
0.327022
0.346256
0.398258
0.482363
0.501823
0.50083
0.424454
0.357075
0.393467
0.246265
0.268813
0.250626
0.201026
0.220209
0.227277
0.256579
0.261955
0.228089
0.15128
0.198073
0.174543
0.235151
0.298953
0.212878
0.303912
0.144512
0.128376
0.147911
0.170688
0.129203
0.109038
0.111939
0.0665244
0.0314477
0.0713457
0.0352052
0.0448176
0.0602182
0.0287518
0.0337878
0.070217
0.11615
0.126897
0.048692
0.110016
2.68404
2.34942
2.01713
1.77071
1.59149
1.34347
1.2592
1.204
1.14589
0.985529
0.978928
0.862254
0.909109
0.835469
0.831272
0.897701
1.0103
1.15939
1.49356
1.72312
2.31586
1.93261
1.68141
1.46182
1.30605
1.10589
1.02559
0.991853
0.895097
0.76859
0.757117
0.693216
0.761039
0.653635
0.669871
0.685183
0.825067
1.00915
1.25105
1.47437
1.93489
1.56375
1.39428
1.2364
1.0735
0.925124
0.933524
0.821587
0.80203
0.677913
0.567058
0.591091
0.535921
0.576027
0.541672
0.602446
0.680126
0.84767
0.97542
1.2763
1.50708
1.35433
1.14218
0.953074
0.849259
0.770517
0.710711
0.661496
0.630033
0.531572
0.56027
0.481163
0.462959
0.47989
0.507454
0.478365
0.580342
0.574586
0.815569
0.884368
1.20056
1.02444
0.876766
0.820193
0.673088
0.585105
0.502952
0.511926
0.515512
0.414567
0.398003
0.428256
0.340943
0.332213
0.406085
0.256876
0.364103
0.563949
0.570433
0.751813
0.79416
0.756625
0.582709
0.483647
0.438785
0.397724
0.378289
0.381587
0.29298
0.281164
0.243721
0.272655
0.289991
0.263823
0.256958
0.231936
0.309487
0.354521
0.363564
0.510883
0.534685
0.355615
0.415349
0.344238
0.316952
0.219549
0.201692
0.204994
0.176875
0.256015
0.155688
0.105314
0.215892
0.114233
0.18439
0.144211
0.186151
0.149172
0.148018
0.273645
0.1366
0.150017
0.0997086
0.123254
0.0834516
0.0697992
0.0415826
0.0439673
0.0329882
0.0728728
0.0549005
0.0280964
0.0122219
0.069164
0.0673159
0.0257042
0.0253729
0.00285388
0.0189478
0.168673
2.8978
2.51615
2.17132
1.83043
1.58437
1.39204
1.26943
1.0559
0.889752
0.873171
0.820887
0.849837
0.705381
0.797337
0.781583
0.834468
1.00989
1.27944
1.5749
1.85551
2.43962
2.11479
1.73975
1.56552
1.31268
1.15914
1.01407
0.918173
0.81152
0.801687
0.713547
0.666357
0.635001
0.606153
0.620146
0.691096
0.857533
1.07038
1.29129
1.50473
2.01651
1.76355
1.55406
1.24938
1.05246
0.978079
0.88694
0.702093
0.648023
0.70344
0.557987
0.543553
0.537439
0.485781
0.564924
0.536963
0.69686
0.828332
1.08951
1.28838
1.63369
1.40891
1.20909
0.988705
0.956229
0.776101
0.711837
0.500755
0.581518
0.551799
0.484813
0.414823
0.431722
0.424751
0.461573
0.446729
0.480485
0.690549
0.863864
1.02782
1.22089
1.05031
0.975457
0.837733
0.594878
0.559106
0.533426
0.469227
0.404324
0.387035
0.341887
0.25933
0.299669
0.282175
0.328978
0.297549
0.385492
0.541438
0.626062
0.743358
0.844835
0.780751
0.662821
0.557573
0.450731
0.413863
0.448979
0.327703
0.297636
0.32433
0.239905
0.191014
0.245302
0.225075
0.183213
0.329156
0.291489
0.369949
0.417919
0.496315
0.556815
0.455958
0.419752
0.347045
0.273711
0.233172
0.27048
0.264073
0.194651
0.183273
0.12523
0.118826
0.14698
0.0330319
0.119342
0.142592
0.181146
0.2779
0.325415
0.316127
0.134282
0.222491
0.179836
0.102681
0.10991
0.0105162
0.074924
0.16068
0.0897691
0.0436613
0.0877139
0.0518708
0.0397823
0.0781438
0.0505535
0.0558541
0.0504317
0.00699284
0.0366138
0.109714
3.30838
2.83909
2.45612
2.03315
1.8344
1.5677
1.38547
1.22404
1.06318
1.02844
0.904191
0.785459
0.828197
0.85428
0.902527
1.07299
1.26626
1.50421
1.78804
2.09163
2.75277
2.4565
2.07549
1.77296
1.46523
1.32558
1.10669
0.960146
0.915112
0.752488
0.755914
0.724641
0.700961
0.602899
0.727463
0.825121
1.01994
1.18439
1.55178
1.72923
2.27231
2.00983
1.75622
1.46555
1.25633
1.08543
0.951595
0.810911
0.732667
0.67938
0.567681
0.567823
0.507036
0.598949
0.637503
0.686228
0.835508
1.01711
1.21567
1.44691
1.84933
1.63216
1.36528
1.14869
0.99586
0.842034
0.775487
0.666301
0.60051
0.509066
0.484802
0.443907
0.400974
0.443289
0.443709
0.551204
0.598799
0.823229
0.95312
1.12125
1.40835
1.20712
1.09176
0.909788
0.763698
0.621895
0.49602
0.40581
0.354385
0.405216
0.350127
0.365112
0.377924
0.373937
0.309984
0.416336
0.45089
0.60822
0.728861
0.99916
0.994064
0.883955
0.720211
0.698288
0.531645
0.430046
0.434093
0.300308
0.377206
0.252719
0.281925
0.261186
0.242289
0.212336
0.253719
0.295096
0.331043
0.477369
0.602966
0.694967
0.576488
0.492248
0.378372
0.414751
0.341543
0.306504
0.283688
0.248955
0.187686
0.0689748
0.199914
0.0943765
0.0617519
0.104218
0.10056
0.21664
0.236009
0.231964
0.309865
0.380524
0.251893
0.249811
0.130766
0.144843
0.0776202
0.0717662
0.0362479
0.0493182
0.0706245
0.0765517
0.0608928
0.0354909
0.0577681
0.0176792
0.0475908
0.0110208
0.0651629
0.0922117
0.0585888
0.137237
3.78455
3.3904
2.89018
2.51166
2.16281
1.86072
1.61906
1.49047
1.3122
1.12531
1.1017
1.05832
1.0208
1.07442
1.20836
1.2598
1.5114
1.85461
2.25225
2.54757
3.21643
2.84385
2.4931
2.08619
1.79887
1.52034
1.31467
1.19617
1.03118
0.967764
0.923921
0.869214
0.873832
0.846978
0.950583
1.08613
1.29535
1.56391
1.8338
2.17356
2.64921
2.38248
2.03749
1.76885
1.49764
1.30463
1.05355
0.91009
0.979062
0.828063
0.696105
0.703067
0.644988
0.755286
0.828027
0.831628
1.01767
1.27496
1.48532
1.7168
2.16261
1.8808
1.67242
1.39338
1.15395
1.04096
0.844746
0.737624
0.769146
0.660735
0.588021
0.561576
0.50752
0.609374
0.691773
0.69796
0.849921
0.939804
1.21769
1.36085
1.70163
1.51526
1.25738
1.0817
0.864896
0.773879
0.637369
0.65858
0.532465
0.461744
0.499295
0.453015
0.407971
0.45087
0.425333
0.520693
0.626973
0.757943
0.932168
1.03533
1.19516
1.02822
0.930276
0.741616
0.667537
0.624626
0.501682
0.465525
0.393127
0.332314
0.320503
0.318416
0.287593
0.289126
0.312895
0.317789
0.444611
0.500948
0.703098
0.820229
0.644702
0.581103
0.47504
0.424867
0.425333
0.29402
0.267973
0.231168
0.191537
0.25435
0.174564
0.147972
0.163645
0.145591
0.170358
0.219293
0.29678
0.359365
0.467523
0.415105
0.277573
0.197134
0.195505
0.154268
0.0931516
0.118146
0.117865
0.0570719
0.146764
0.0700403
0.0100325
0.0622963
0.0622342
0.0326443
0.105829
0.0559436
0.0750908
0.0738174
0.112024
0.111008
4.4543
3.97164
3.45436
3.02595
2.70518
2.32871
2.02358
1.88245
1.72199
1.60622
1.47353
1.47495
1.48313
1.4659
1.60257
1.73544
2.00101
2.32123
2.74011
3.09113
3.79178
3.37575
2.93204
2.55052
2.25061
1.97149
1.70049
1.57223
1.40112
1.2701
1.17888
1.18286
1.22296
1.17272
1.26982
1.46822
1.657
2.00075
2.31276
2.60108
3.11756
2.82146
2.52186
2.10539
1.86326
1.6843
1.36439
1.29164
1.11088
1.0681
0.987577
0.88802
0.959728
0.974342
1.11026
1.14382
1.33883
1.60501
1.92552
2.19506
2.51755
2.25501
2.00509
1.74071
1.5414
1.24882
1.15769
1.10484
0.915232
0.830014
0.764258
0.726099
0.759443
0.798648
0.866986
0.889272
1.12909
1.2962
1.45068
1.7324
1.95903
1.69385
1.51079
1.30332
1.19548
1.06139
0.803852
0.775485
0.773637
0.669283
0.618105
0.608063
0.626042
0.653048
0.627864
0.701262
0.904575
0.909431
1.18726
1.34274
1.33029
1.26729
1.13972
0.993501
0.81706
0.714103
0.589532
0.596676
0.511146
0.48853
0.425061
0.385677
0.450888
0.432188
0.484692
0.542379
0.607459
0.699643
0.797258
0.901345
0.747659
0.723436
0.604707
0.594569
0.513563
0.424222
0.358449
0.317486
0.317417
0.278239
0.290753
0.250683
0.232991
0.180366
0.250317
0.289542
0.349776
0.431171
0.464336
0.512653
0.261606
0.255923
0.173733
0.195497
0.14208
0.204342
0.109028
0.170406
0.0816692
0.0428802
0.141308
0.091033
0.108142
0.138236
0.117105
0.0132789
0.0804156
0.0213121
0.16754
0.114662
5.26624
4.81653
4.24447
3.74724
3.34522
2.994
2.69515
2.44285
2.23532
2.15786
1.94963
1.96826
1.92445
2.04244
2.18577
2.39308
2.69832
2.95514
3.47188
3.86943
4.45893
4.07573
3.60987
3.18333
2.80058
2.45145
2.21531
2.02892
1.92346
1.7295
1.63876
1.62124
1.63965
1.72117
1.7781
1.96087
2.22938
2.50034
2.9236
3.22901
3.73538
3.39762
3.0252
2.64528
2.28374
2.09503
1.87003
1.68396
1.62548
1.42707
1.36802
1.29298
1.39181
1.41807
1.52763
1.61465
1.86355
2.11437
2.38504
2.67489
3.04861
2.72295
2.46481
2.0901
1.87455
1.64545
1.47783
1.34816
1.26162
1.15627
1.09167
1.12899
1.05284
1.07563
1.15211
1.29922
1.43987
1.63384
1.94355
2.15806
2.34772
2.07031
1.90793
1.61571
1.4379
1.29558
1.15168
1.0223
0.973375
0.854195
0.821246
0.799738
0.823522
0.858734
0.90325
1.04777
1.0739
1.26451
1.4839
1.60719
1.69443
1.50133
1.32842
1.20169
0.962352
0.89162
0.760421
0.73834
0.711402
0.627672
0.6075
0.546039
0.607682
0.588358
0.596504
0.692354
0.770996
0.863709
1.08234
1.20977
1.04298
0.911531
0.789924
0.746472
0.625698
0.577441
0.469654
0.439122
0.332537
0.452388
0.363681
0.357843
0.374572
0.328704
0.405773
0.339146
0.474024
0.581684
0.679565
0.682537
0.327114
0.321191
0.231479
0.198299
0.201993
0.171267
0.228611
0.14034
0.198277
0.135531
0.0981527
0.109156
0.142421
0.122847
0.178087
0.16825
0.152227
0.273246
0.272908
0.304743
6.16693
5.75622
5.15381
4.68698
4.18578
3.7398
3.46116
3.16629
2.95533
2.80869
2.73115
2.70031
2.71955
2.73242
2.88855
3.12825
3.4495
3.84392
4.21246
4.66899
5.29275
4.86868
4.36964
3.94112
3.52123
3.18786
2.90525
2.6901
2.52758
2.32078
2.23273
2.2791
2.27696
2.28894
2.46846
2.61796
2.89245
3.24337
3.61287
3.99145
4.41818
4.04589
3.66417
3.27001
2.88437
2.69663
2.447
2.2415
2.10108
1.96906
1.80959
1.78199
1.8489
1.89645
1.99903
2.1926
2.3901
2.63965
2.96719
3.28754
3.54332
3.27309
2.99554
2.68127
2.3655
2.13012
1.91944
1.71704
1.69466
1.5881
1.4974
1.49901
1.53412
1.48659
1.64279
1.74896
1.88534
2.12952
2.41618
2.61598
2.75957
2.51621
2.24157
2.04683
1.80011
1.60375
1.4314
1.37782
1.30823
1.23396
1.18327
1.13214
1.13707
1.19617
1.22008
1.3557
1.4586
1.66173
1.81953
2.01095
1.91405
1.7626
1.59294
1.42632
1.32012
1.15283
1.11765
1.02214
0.916601
0.811085
0.789223
0.781764
0.797324
0.78292
0.849095
0.9183
1.11418
1.16754
1.37147
1.38898
1.18988
1.04284
0.963775
0.888589
0.762334
0.665426
0.688064
0.604329
0.487214
0.524555
0.494028
0.519418
0.495319
0.473232
0.485244
0.585155
0.647303
0.657596
0.824165
0.891781
0.338796
0.417225
0.313744
0.271462
0.239497
0.248365
0.285367
0.26831
0.203593
0.169871
0.180772
0.174607
0.164801
0.195801
0.180299
0.160108
0.238495
0.203141
0.262046
0.304701
7.26081
6.74507
6.14424
5.62064
5.06699
4.7132
4.37849
4.08532
3.87593
3.73015
3.59293
3.54011
3.54374
3.6026
3.82137
4.04428
4.30748
4.72601
5.23452
5.63981
6.22463
5.73702
5.21068
4.79613
4.26506
4.01827
3.72883
3.43697
3.1598
3.06757
2.96287
2.98403
2.97505
3.02121
3.22948
3.42364
3.58728
4.01783
4.42638
4.7959
5.18093
4.7771
4.39297
3.94614
3.59517
3.32312
3.00179
2.83306
2.68854
2.57117
2.46449
2.37675
2.47412
2.47562
2.56922
2.86288
2.97448
3.3359
3.73681
3.93354
4.16741
3.88557
3.5271
3.19056
2.87708
2.72776
2.4107
2.20122
2.19913
2.03156
1.96971
1.97525
1.98531
2.02501
2.11533
2.24331
2.40946
2.70674
3.00159
3.17666
3.24117
2.94956
2.69306
2.47672
2.25181
2.04618
1.81596
1.76139
1.66929
1.62799
1.47461
1.51621
1.51351
1.57275
1.59732
1.70937
1.91754
2.06447
2.28644
2.47146
2.20465
2.11561
1.94287
1.7027
1.60734
1.32232
1.34819
1.25668
1.13286
1.13132
1.03763
1.05522
1.07222
1.09296
1.19389
1.25017
1.36241
1.4373
1.56596
1.74567
1.39611
1.27277
1.16532
1.01314
0.875227
0.825455
0.772529
0.8407
0.642572
0.726784
0.685772
0.681888
0.651559
0.675256
0.671379
0.769115
0.809176
0.86126
0.994704
1.05469
0.494499
0.404528
0.453415
0.382573
0.293175
0.311994
0.313053
0.280168
0.236034
0.181119
0.24881
0.209621
0.223248
0.175653
0.249939
0.200442
0.304696
0.296622
0.275721
0.321161
8.35877
7.85187
7.2593
6.66202
6.11278
5.63876
5.31071
5.00201
4.67235
4.51268
4.47313
4.40578
4.38522
4.54651
4.64868
4.93632
5.33086
5.66547
6.18539
6.72161
7.14722
6.68013
6.11745
5.59263
5.20222
4.84212
4.47465
4.19978
4.07521
3.92162
3.7574
3.6543
3.69112
3.89487
3.99652
4.13034
4.55655
4.79395
5.27326
5.66483
5.88612
5.46141
5.0818
4.68049
4.34053
3.92229
3.69549
3.41647
3.20675
3.24702
3.07091
3.10875
3.1169
3.14932
3.24385
3.43331
3.74717
4.02304
4.37143
4.76133
4.81153
4.46126
4.11243
3.80378
3.41246
3.14731
2.99114
2.73758
2.6019
2.54594
2.45734
2.45618
2.49224
2.55075
2.6549
2.79759
2.97917
3.24776
3.5195
3.76851
3.70093
3.4125
3.15125
2.84073
2.62632
2.44945
2.2947
2.17111
2.02118
1.91892
1.92304
1.88817
1.92477
1.93966
1.95902
2.14594
2.34981
2.51578
2.66002
2.84839
2.55293
2.42861
2.25509
2.02383
1.88533
1.7749
1.65132
1.48972
1.4602
1.36268
1.39769
1.3713
1.41939
1.39859
1.36523
1.50535
1.62729
1.75158
1.87062
2.00284
1.54866
1.51488
1.33315
1.21391
1.13233
0.92486
0.927921
0.926889
0.799679
0.803009
0.806933
0.783569
0.82401
0.766297
0.788971
0.909379
1.00235
1.12177
1.13393
1.26276
0.459613
0.537592
0.474728
0.396782
0.369426
0.375833
0.285471
0.281073
0.18995
0.246218
0.278612
0.255842
0.271989
0.280388
0.288204
0.28575
0.320325
0.36914
0.394123
0.401848
9.34288
8.80658
8.08103
7.53004
6.95321
6.4847
6.05109
5.74965
5.53537
5.30724
5.23218
5.2014
5.26411
5.27633
5.51821
5.80917
6.1271
6.58745
7.11145
7.59743
7.89693
7.42409
6.77837
6.28807
5.79553
5.46862
5.1554
4.81924
4.66382
4.49756
4.39584
4.33152
4.35655
4.43501
4.56961
4.90675
5.12635
5.48898
5.91703
6.37474
6.50905
6.07574
5.68764
5.22372
4.85974
4.50623
4.24142
3.96405
3.72774
3.69186
3.57898
3.537
3.56279
3.63863
3.78712
3.98531
4.19719
4.57389
4.93071
5.21499
5.24662
4.89552
4.51806
4.22222
3.90156
3.55567
3.41391
3.14265
3.09634
2.94111
2.9284
2.74381
2.92013
2.94706
3.09007
3.2012
3.39725
3.68171
3.93131
4.25783
4.04181
3.81265
3.48612
3.17201
2.92697
2.75603
2.56468
2.43556
2.41146
2.23185
2.14899
2.20183
2.23265
2.20631
2.24419
2.46673
2.59617
2.81356
2.94265
3.22392
2.88553
2.68753
2.47846
2.26965
2.1057
1.87458
1.79897
1.64006
1.60538
1.55569
1.56866
1.55074
1.52123
1.58651
1.68087
1.68999
1.80123
1.99981
2.15216
2.25067
1.74408
1.61201
1.49922
1.39876
1.30645
1.12762
1.0659
1.02934
1.00676
0.87134
0.905928
0.938244
0.88956
0.962294
0.928842
1.04119
1.057
1.17785
1.20805
1.31387
0.483304
0.528367
0.604254
0.504566
0.457428
0.375238
0.407945
0.303648
0.382455
0.317249
0.331425
0.315929
0.286766
0.315362
0.316068
0.282461
0.409263
0.385044
0.402802
0.424576
)
;

boundaryField
{
    hotSide
    {
        type            calculated;
        value           nonuniform List<scalar> 
400
(
6.04278
5.53964
4.80056
4.23407
3.5626
3.1207
2.64798
2.45847
2.18923
2.15943
2.2434
2.43135
2.814
3.26017
3.89788
4.67576
5.5404
6.59625
7.65422
8.59638
6.05675
5.4553
4.74401
4.06794
3.4238
3.01612
2.5791
2.20746
1.95516
1.87384
1.91719
2.05753
2.35198
2.87274
3.42142
4.23177
5.13494
6.08533
7.15173
8.06412
6.15055
5.61917
4.93848
4.17001
3.4446
2.8897
2.38405
1.99906
1.72395
1.60603
1.59367
1.72082
1.97651
2.37943
2.91048
3.66551
4.53783
5.48933
6.56358
7.34259
6.20966
5.72834
4.91701
4.12446
3.48751
2.85413
2.36662
1.86507
1.61478
1.36542
1.35618
1.38816
1.56109
2.00781
2.48837
3.17401
4.07622
4.97047
5.97058
6.7955
6.50177
5.91455
5.10225
4.30256
3.53696
2.90698
2.34032
1.7819
1.52607
1.29809
1.18579
1.15018
1.36972
1.66567
2.17368
2.77749
3.57999
4.42132
5.4254
6.22232
6.79788
6.14659
5.32282
4.42209
3.70105
3.0258
2.32211
1.78063
1.43773
1.11967
0.946143
0.965466
1.10992
1.36983
1.80285
2.43135
3.13857
4.07163
4.95507
5.75713
7.03969
6.33917
5.59945
4.70723
3.87896
3.03549
2.47191
1.86201
1.36517
1.049
0.86936
0.849647
0.933814
1.13367
1.50266
2.13693
2.8639
3.74047
4.63019
5.32636
7.3001
6.60151
5.68533
4.88443
3.95625
3.17956
2.44269
1.81912
1.35358
0.970233
0.820312
0.641661
0.777369
1.00955
1.36553
1.88819
2.57221
3.45013
4.32402
5.02717
7.43885
6.78043
5.89139
5.00584
4.12619
3.29778
2.52672
1.8993
1.38227
1.02868
0.766592
0.479462
0.620037
0.834432
1.20787
1.68317
2.36348
3.24271
3.99612
4.81446
7.50556
6.93635
5.98736
5.04946
4.16765
3.29505
2.53989
1.85017
1.35158
0.96116
0.60853
0.464935
0.587131
0.649173
1.09355
1.607
2.21798
3.09795
3.83736
4.58713
7.45981
6.82324
5.92466
4.98584
4.11438
3.28103
2.47688
1.80849
1.33682
0.828048
0.601929
0.412651
0.462886
0.625568
0.960866
1.39877
2.14044
2.96073
3.7978
4.51207
7.48654
6.80754
5.91763
4.95275
4.04456
3.25338
2.41232
1.73114
1.22549
0.816422
0.48296
0.439547
0.342319
0.580548
0.960831
1.41611
2.10845
2.90689
3.72955
4.48049
7.28852
6.53424
5.68824
4.8311
3.86569
3.07198
2.27516
1.62079
1.12236
0.73021
0.525422
0.291144
0.381522
0.539881
0.966202
1.36979
2.12547
2.90855
3.70724
4.54163
7.05271
6.41503
5.54953
4.58631
3.67106
2.85544
2.15118
1.6122
1.12308
0.672439
0.445629
0.377552
0.402622
0.589027
0.944984
1.48423
2.13516
2.96457
3.866
4.55159
6.87384
6.14885
5.29938
4.41654
3.51363
2.75747
2.0161
1.53958
1.0688