/*--------------------------------*- C++ -*----------------------------------*\
| =========                 |                                                 |
| \\      /  F ield         | OpenFOAM: The Open Source CFD Toolbox           |
|  \\    /   O peration     | Version:  2212                                  |
|   \\  /    A nd           | Website:  www.openfoam.com                      |
|    \\/     M anipulation  |                                                 |
\*---------------------------------------------------------------------------*/
FoamFile
{
    version     2.0;
    format      ascii;
    arch        "LSB;label=32;scalar=64";
    class       volScalarField;
    location    "./ITHACAoutput/true/1.6";
    object      error;
}
// * * * * * * * * * * * * * * * * * * * * * * * * * * * * * * * * * * * * * //

dimensions      [0 0 0 1 0 0 0];

internalField   nonuniform List<scalar> 
3200
(
-3.00834
-1.0887
0.673609
2.12149
3.09102
3.71019
4.2733
4.53581
4.68861
4.59539
4.5301
4.37068
4.06969
3.79413
3.54411
3.02959
2.33987
1.25115
-0.357848
-2.01946
-2.61468
-1.03581
0.579659
1.77597
2.58842
3.15734
3.62754
3.81718
4.0461
3.95662
3.85953
3.69936
3.4566
3.27988
3.01498
2.59211
1.97687
1.01414
-0.378267
-1.77124
-2.20015
-0.883158
0.397457
1.37027
2.144
2.66992
2.99166
3.22058
3.28127
3.3219
3.22552
3.03284
2.89462
2.77616
2.48121
2.11496
1.63764
0.867249
-0.304045
-1.50823
-1.79151
-0.792295
0.297639
1.11194
1.68718
2.06775
2.4118
2.63661
2.70153
2.68137
2.64645
2.51353
2.32916
2.19551
2.03689
1.76718
1.2581
0.589719
-0.275007
-1.24637
-1.36623
-0.677222
0.147462
0.929347
1.32798
1.66267
1.93355
2.106
2.11148
2.04426
2.02206
2.01378
1.7518
1.7265
1.52358
1.2869
1.00404
0.56869
-0.152514
-0.94951
-1.05725
-0.400875
0.136323
0.595445
0.966659
1.09257
1.36578
1.37583
1.4375
1.42764
1.39648
1.37426
1.24016
1.32078
1.17544
0.906427
0.726126
0.346628
-0.225244
-0.626647
-0.592865
-0.358909
0.105339
0.385265
0.602542
0.681459
0.754757
0.905545
0.883388
0.834987
0.833363
0.765281
0.788047
0.735664
0.724564
0.561279
0.409304
0.150095
-0.143269
-0.367536
-0.215392
-0.0414271
-0.0126336
0.111704
0.171777
0.262629
0.272138
0.313208
0.276649
0.268655
0.22122
0.268933
0.271664
0.17395
0.172085
0.200144
0.126178
0.0891087
-0.0168595
-0.101756
-2.74306
-0.994634
0.779863
2.05698
2.9328
3.49975
3.95516
4.16629
4.20301
4.10229
3.98292
3.82332
3.62206
3.43288
3.11875
2.84333
2.14416
1.16229
-0.302199
-1.94215
-2.49376
-0.986726
0.637704
1.70686
2.50649
2.98414
3.36519
3.61596
3.64547
3.56348
3.42347
3.24137
3.08022
2.95036
2.6689
2.35914
1.87181
0.983012
-0.341094
-1.7062
-2.16801
-0.892907
0.400238
1.44711
1.99269
2.49105
2.80318
2.92987
2.92831
2.99095
2.82455
2.70964
2.61981
2.49829
2.27722
1.94132
1.52914
0.821195
-0.286662
-1.50717
-1.79339
-0.718319
0.322598
1.08745
1.62226
2.04999
2.21816
2.41177
2.41481
2.49134
2.37324
2.19801
2.20322
1.99812
1.8675
1.57406
1.29768
0.587999
-0.294901
-1.14805
-1.39312
-0.595221
0.256451
0.859807
1.251
1.46729
1.75604
1.85193
1.95667
1.91542
1.77396
1.68968
1.70445
1.50523
1.38014
1.25635
0.964795
0.397455
-0.27092
-0.953765
-0.957084
-0.487486
0.0486086
0.523028
0.884527
1.15855
1.2396
1.31641
1.30957
1.31343
1.26852
1.19268
1.14014
1.07351
1.00565
0.870253
0.646795
0.307265
-0.158102
-0.656828
-0.6334
-0.299768
-0.0364513
0.346646
0.504265
0.70015
0.769671
0.79292
0.786571
0.813404
0.768112
0.749299
0.577591
0.674441
0.581571
0.47177
0.375362
0.184121
-0.146385
-0.459399
-0.227771
-0.112424
-0.0670404
0.0930971
0.187271
0.188017
0.280532
0.268214
0.297174
0.276152
0.302765
0.31933
0.24526
0.22928
0.17521
0.138995
0.123908
0.115134
-0.111421
-0.186335
-2.80172
-1.0635
0.697567
1.93847
2.66596
3.27691
3.39645
3.48861
3.51678
3.44477
3.14924
3.11546
2.96718
2.81195
2.78232
2.50967
1.8442
1.02939
-0.423521
-2.05381
-2.52685
-0.969361
0.50188
1.52638
2.20133
2.72005
2.93797
2.99652
3.07852
2.8877
2.78445
2.6871
2.54951
2.40141
2.26858
2.14699
1.60608
0.783777
-0.408602
-1.74318
-2.06001
-0.830819
0.403049
1.25375
1.95639
2.30047
2.44497
2.51029
2.49582
2.43029
2.30055
2.18134
2.06175
2.06085
1.93183
1.67955
1.36703
0.657621
-0.526973
-1.56496
-1.81189
-0.798727
0.25414
1.03063
1.51406
1.75417
1.96669
2.05178
2.02862
2.01655
1.86474
1.77833
1.74319
1.64086
1.49454
1.36705
1.0424
0.521611
-0.349619
-1.2195
-1.31125
-0.560845
0.183008
0.843464
1.12323
1.37321
1.53073
1.56808
1.53456
1.53858
1.45838
1.40281
1.30227
1.26931
1.20048
1.07321
0.78223
0.347633
-0.238323
-1.05189
-0.895883
-0.490639
0.0942589
0.471352
0.851386
1.00249
1.1493
1.14863
1.07223
1.12108
1.04169
1.0008
0.955291
0.900065
0.849234
0.737912
0.605574
0.282135
-0.21541
-0.690259
-0.547071
-0.296497
-0.0173305
0.295318
0.519421
0.643007
0.602723
0.674339
0.65339
0.596448
0.563806
0.583709
0.535254
0.540915
0.468732
0.483882
0.369967
0.108589
-0.132803
-0.428813
-0.187972
-0.115074
-0.0592415
0.0347618
0.20289
0.161057
0.217967
0.250048
0.151163
0.22775
0.26013
0.171009
0.1276
0.176755
0.224424
0.146394
0.107486
0.0555645
-0.047554
-0.12528
-2.82988
-1.18729
0.446507
1.696
2.37683
2.7311
2.89765
2.88815
2.67854
2.41694
2.22443
2.11096
2.00619
2.10487
2.10824
1.87566
1.56602
0.736614
-0.547779
-2.16178
-2.51819
-1.06434
0.30731
1.32473
1.99711
2.32433
2.46116
2.44019
2.30024
2.09906
1.90393
1.81141
1.76224
1.73698
1.8679
1.56548
1.27784
0.562751
-0.557964
-1.8793
-2.14388
-0.991711
0.179788
1.02126
1.62491
1.91672
2.03725
2.02415
1.92182
1.77126
1.64671
1.47149
1.42974
1.50507
1.49563
1.35413
1.01709
0.444114
-0.625314
-1.58134
-1.75023
-0.884231
0.124809
0.776944
1.3882
1.54782
1.69176
1.63893
1.60834
1.46125
1.26684
1.23868
1.152
1.23675
1.11201
1.07611
0.835697
0.389676
-0.497293
-1.33243
-1.44227
-0.630839
0.112047
0.651279
1.0454
1.15916
1.19732
1.36505
1.18635
1.1124
0.984165
1.00172
0.964524
0.878743
0.863667
0.801845
0.619776
0.299245
-0.414138
-1.06901
-0.993684
-0.459964
0.0301155
0.415133
0.647202
0.856507
0.857306
0.947556
0.914647
0.777075
0.747185
0.676318
0.701951
0.604758
0.656587
0.563895
0.389354
0.153367
-0.265783
-0.738206
-0.630817
-0.355703
0.030503
0.225694
0.47582
0.504882
0.442997
0.584858
0.41354
0.405714
0.377239
0.378916
0.418253
0.411955
0.377453
0.374856
0.226937
0.104579
-0.107203
-0.452138
-0.195934
-0.115386
0.0574227
0.076664
0.172102
0.11677
0.189353
0.184664
0.183246
0.174459
0.135704
0.156345
0.149394
0.115468
0.149303
0.0729945
0.0434664
-0.00166758
-0.119139
-0.111374
-2.98724
-1.37999
0.220006
1.28335
1.92266
2.17747
2.20772
2.11447
1.83167
1.39686
1.19851
1.02289
1.0328
1.23194
1.3933
1.3305
1.03018
0.32883
-0.974362
-2.31989
-2.56626
-1.24095
0.116544
1.03696
1.5962
1.85085
1.89798
1.8118
1.58121
1.14877
0.92948
0.846792
0.967307
1.05198
1.11561
1.06754
0.853918
0.0682508
-0.827049
-2.04454
-2.23255
-1.12723
-0.00543802
0.859878
1.31016
1.57425
1.51923
1.47387
1.28936
1.01469
0.854846
0.718085
0.807509
0.865664
0.97954
0.890436
0.670659
0.190519
-0.724116
-1.76771
-1.84661
-0.982875
-0.0858347
0.620729
1.07766
1.28529
1.35785
1.19953
1.05512
0.860858
0.680595
0.576577
0.601426
0.723963
0.730894
0.74628
0.502255
0.0888174
-0.615531
-1.48457
-1.43307
-0.769607
-0.0689512
0.534845
0.758129
0.945047
1.04607
0.895069
0.77897
0.714764
0.566512
0.498344
0.518766
0.522485
0.502911
0.562544
0.358615
0.10122
-0.473037
-1.14381
-1.1153
-0.536736
-0.0858215
0.255998
0.571983
0.589741
0.69888
0.656749
0.604998
0.475507
0.326021
0.341069
0.33605
0.322303
0.353509
0.423521
0.228747
-0.0478179
-0.386719
-0.734349
-0.619483
-0.345164
-0.0659825
0.264003
0.367749
0.316868
0.378612
0.319824
0.321192
0.258004
0.254402
0.222994
0.22184
0.178637
0.280108
0.242265
0.109816
-0.003946
-0.249005
-0.458605
-0.253903
-0.0897124
-0.0299736
0.0616939
0.157916
0.108769
0.13556
0.159902
0.100437
0.0687098
0.119621
0.0393625
0.0639695
0.116594
0.0994917
0.118224
0.0764443
-1.06024e-05
-0.15451
-0.111887
-3.20157
-1.55847
-0.16062
0.808991
1.48518
1.65162
1.53526
1.16977
0.83218
0.377856
0.00527743
0.0346476
0.0680686
0.283708
0.559797
0.65594
0.446943
-0.137423
-1.30097
-2.55985
-2.8212
-1.55154
-0.170168
0.70986
1.2049
1.30709
1.32113
1.11529
0.705288
0.303892
0.0983466
-0.0353899
0.103154
0.30648
0.476601
0.555649
0.357083
-0.141335
-1.14184
-2.30517
-2.37242
-1.2704
-0.215792
0.54038
0.946752
1.12028
1.08954
0.841953
0.534689
0.336394
0.0356068
0.0170572
0.0746026
0.259167
0.387317
0.420599
0.233564
-0.280125
-0.990625
-1.90209
-1.95343
-1.08131
-0.21668
0.406488
0.715118
0.872713
0.881525
0.680269
0.49265
0.302645
-0.0220801
0.0560267
0.105388
0.120041
0.273307
0.28218
0.20262
-0.117703
-0.841407
-1.51055
-1.46188
-0.83348
-0.238522
0.265219
0.546607
0.71445
0.689715
0.487082
0.384953
0.13185
0.0801224
0.0976263
0.0215698
0.181029
0.272166
0.150001
0.172072
-0.196841
-0.593323
-1.25707
-1.05338
-0.597166
-0.194855
0.280245
0.381946
0.545316
0.34251
0.37863
0.281935
0.185685
0.00428389
0.0064372
0.0144299
0.0490036
0.153765
0.134388
0.0131416
-0.0898073
-0.511084
-0.871789
-0.707055
-0.353125
-0.104498
0.172359
0.265085
0.358265
0.290889
0.273017
0.118926
0.107202
0.0258447
0.0305002
-0.0411143
0.0189246
0.0972589
0.13822
0.0661739
-0.0981966
-0.355846
-0.593501
-0.17739
-0.157582
-0.00885475
0.0582266
0.0723646
-0.0247334
0.0874702
0.0528811
0.0570362
0.0189041
-0.0206178
0.0703151
0.00466224
0.0107899
0.00633235
-0.0427201
-0.043758
-0.0675237
-0.112961
-0.145643
-3.37614
-1.77887
-0.496391
0.361026
0.929993
0.977992
0.784244
0.379794
-0.101961
-0.609503
-0.926949
-1.07599
-0.911011
-0.471143
-0.129118
0.0426521
0.0186835
-0.653194
-1.70284
-2.81902
-2.96696
-1.61392
-0.580393
0.35121
0.722767
0.914938
0.593403
0.279301
-0.150287
-0.515694
-0.894711
-0.858449
-0.73628
-0.483517
-0.0952088
0.0150741
-0.149497
-0.629058
-1.42948
-2.53872
-2.4494
-1.40804
-0.487837
0.211282
0.573438
0.81493
0.622661
0.335176
-0.094295
-0.471405
-0.669826
-0.770368
-0.619687
-0.413068
-0.153653
-0.00320899
-0.099004
-0.500287
-1.28552
-2.09023
-2.05049
-1.22648
-0.409514
0.154255
0.46215
0.636823
0.512133
0.24603
-0.0970602
-0.349226
-0.555508
-0.613493
-0.592997
-0.348965
-0.0756604
0.0597231
-0.10453
-0.433645
-1.0592
-1.73543
-1.6019
-0.910772
-0.318282
0.144388
0.338249
0.460134
0.407932
0.183904
0.096284
-0.324848
-0.451393
-0.44109
-0.369303
-0.302924
-0.0793554
-0.0827835
-0.0979111
-0.336931
-0.798141
-1.48817
-1.07962
-0.677206
-0.233462
0.0993393
0.27508
0.288959
0.253564
0.0784846
-0.0478693
-0.279243
-0.337095
-0.323748
-0.236072
-0.241772
-0.0267156
-0.114753
-0.0675715
-0.242776
-0.596165
-0.939974
-0.668583
-0.464664
-0.143415
0.108767
0.163927
0.189927
0.065691
0.0726872
0.0228072
-0.156333
-0.149083
-0.193532
-0.136011
-0.0544686
-0.0351606
-0.034126
-0.0191088
-0.163762
-0.376209
-0.619243
-0.227918
-0.0682555
-0.0614783
0.00146389
0.0523094
0.0526883
0.109353
0.0186752
0.0194803
-0.0643645
-0.0308027
0.00113487
-0.0132059
-0.0240163
0.0547994
-0.0189542
0.0476435
-0.0409475
-0.146631
-0.21707
-3.50228
-2.07502
-0.777728
0.0759421
0.437293
0.469976
0.222031
-0.294668
-0.921307
-1.56953
-1.93167
-1.95684
-1.69246
-1.31183
-0.806057
-0.548229
-0.580203
-1.0121
-1.99597
-3.15808
-2.99888
-1.89497
-0.801091
-0.0891041
0.436899
0.433137
0.192917
-0.176854
-0.782598
-1.2948
-1.60365
-1.68679
-1.46963
-1.07188
-0.686158
-0.506131
-0.503381
-0.941723
-1.75779
-2.62486
-2.60933
-1.59302
-0.755702
-0.0600275
0.336575
0.311314
0.0734687
-0.224524
-0.602647
-1.0695
-1.33747
-1.40067
-1.30204
-0.993429
-0.678085
-0.457175
-0.49805
-0.828159
-1.51006
-2.34452
-2.17451
-1.33077
-0.676717
-0.0857627
0.194465
0.281199
0.101885
-0.0460559
-0.509993
-0.851072
-1.09992
-1.12599
-1.00226
-0.782784
-0.491822
-0.41081
-0.451639
-0.772577
-1.27578
-1.87195
-1.66928
-1.09742
-0.483166
-0.0960247
0.108724
0.136466
0.171436
-0.115112
-0.448969
-0.706703
-0.791361
-0.809928
-0.789365
-0.56138
-0.4386
-0.315359
-0.275656
-0.558398
-1.00616
-1.43587
-1.20749
-0.851984
-0.332037
-0.113288
0.0541718
0.149392
0.135327
-0.135854
-0.331181
-0.438093
-0.582235
-0.661268
-0.472864
-0.390409
-0.280893
-0.133003
-0.254855
-0.405526
-0.608709
-1.05718
-0.625025
-0.398833
-0.183391
-0.071107
0.0081696
0.0873105
0.0745158
-0.0944233
-0.203527
-0.221527
-0.395394
-0.437001
-0.331395
-0.254293
-0.115697
-0.1083
-0.122515
-0.311507
-0.397853
-0.605877
-0.211542
-0.14736
-0.0724305
-0.0718371
0.0249453
0.0785088
-0.0264178
-0.0628362
-0.0652976
-0.162281
-0.170903
-0.117538
-0.18899
-0.113148
-0.0198091
-0.0657673
-0.080013
-0.0771441
-0.0837279
-0.227085
-3.6143
-2.30068
-1.13992
-0.30741
0.0240773
-0.0565041
-0.237645
-0.934054
-1.61404
-2.28762
-2.649
-2.73635
-2.4199
-1.89787
-1.31846
-1.03051
-0.953306
-1.42866
-2.27558
-3.25465
-3.12098
-2.04384
-0.960571
-0.333627
-0.00480865
-0.0647076
-0.264709
-0.784022
-1.36855
-1.89284
-2.2833
-2.31604
-2.17955
-1.62954
-1.15543
-0.916053
-0.894709
-1.28103
-2.0453
-2.81711
-2.61063
-1.62732
-0.85648
-0.335698
-0.168486
-0.0712695
-0.299193
-0.701917
-1.18022
-1.5844
-1.96262
-2.02424
-1.73958
-1.46861
-1.08623
-0.79837
-0.764701
-1.14398
-1.72356
-2.38905
-2.08701
-1.50309
-0.719218
-0.350932
0.00257538
-0.0473259
-0.169675
-0.564487
-0.925724
-1.30046
-1.53739
-1.53145
-1.41715
-1.13798
-0.776168
-0.704175
-0.575313
-0.911679
-1.38924
-1.97123
-1.69033
-1.18994
-0.580247
-0.185834
-0.0658466
-0.0293392
-0.141707
-0.436459
-0.688233
-0.973586
-1.15035
-1.253
-1.10142
-0.845236
-0.710343
-0.507575
-0.612169
-0.670747
-1.11953
-1.60949
-1.27704
-0.854198
-0.458894
-0.154109
-0.101243
-0.073224
-0.115826
-0.317429
-0.554644
-0.641748
-0.837996
-0.785421
-0.844258
-0.725162
-0.468174
-0.414523
-0.340239
-0.56108
-0.812755
-1.09693
-0.708453
-0.514742
-0.224682
-0.112133
-0.0521283
0.0879364
-0.0794805
-0.227419
-0.317329
-0.403806
-0.482364
-0.43563
-0.54559
-0.439474
-0.30212
-0.237583
-0.236699
-0.407702
-0.394428
-0.716646
-0.286517
-0.170562
-0.142674
-0.0161708
-0.00695164
0.0362763
-0.0816319
-0.10175
-0.129351
-0.140603
-0.14356
-0.109949
-0.190138
-0.142634
-0.0734011
-0.045412
-0.0189936
-0.0867919
-0.211698
-0.271984
-3.61171
-2.39755
-1.23135
-0.536948
-0.243131
-0.320931
-0.723357
-1.39213
-2.06128
-2.76566
-3.18719
-3.21331
-2.90621
-2.33977
-1.83168
-1.34826
-1.368
-1.68839
-2.39759
-3.39663
-3.22488
-2.0911
-1.14954
-0.518755
-0.249599
-0.295948
-0.646093
-1.22231
-1.8395
-2.26674
-2.69514
-2.72281
-2.45212
-1.99287
-1.56502
-1.1615
-1.10531
-1.38369
-2.05897
-2.93916
-2.69335
-1.80391
-1.00064
-0.435482
-0.209447
-0.273107
-0.564912
-1.07381
-1.46949
-1.94762
-2.24021
-2.25079
-2.06081
-1.69049
-1.31611
-0.934832
-0.997205
-1.20379
-1.81878
-2.5113
-2.21602
-1.54211
-0.886966
-0.405413
-0.260898
-0.223214
-0.490775
-0.810051
-1.28817
-1.64442
-1.84292
-1.86988
-1.70441
-1.34825
-1.02478
-0.88904
-0.797435
-0.940746
-1.42709
-2.06675
-1.7319
-1.249
-0.622066
-0.353668
-0.226384
-0.182355
-0.291077
-0.653817
-0.952701
-1.23844
-1.37552
-1.46043
-1.30695
-1.0354
-0.818376
-0.693496
-0.613117
-0.792822
-1.18905
-1.59306
-1.22741
-0.857512
-0.48933
-0.273344
-0.0836557
-0.142079
-0.268344
-0.463977
-0.691811
-0.853542
-1.03852
-1.09421
-0.884744
-0.775832
-0.520921
-0.53716
-0.546776
-0.499335
-0.865808
-1.06632
-0.650822
-0.457003
-0.32965
-0.179082
-0.0687484
-0.105921
-0.0983348
-0.324121
-0.327745
-0.472949
-0.650145
-0.598508
-0.559995
-0.459507
-0.296632
-0.338536
-0.340554
-0.359951
-0.497083
-0.591199
-0.306648
-0.164435
-0.0894733
-0.114162
-0.0545511
0.0204848
-0.0378156
-0.0433852
-0.121711
-0.155422
-0.23559
-0.270503
-0.145254
-0.187562
-0.154711
-0.036181
-0.18492
-0.119673
-0.143381
-0.225668
-3.57705
-2.36596
-1.3982
-0.644705
-0.376483
-0.569402
-0.979148
-1.57782
-2.25829
-3.04244
-3.42244
-3.47256
-3.12008
-2.57179
-1.98562
-1.42837
-1.42855
-1.69636
-2.45746
-3.37433
-3.06225
-2.17309
-1.18329
-0.667165
-0.438939
-0.442702
-0.798092
-1.39318
-1.95471
-2.58342
-2.88115
-2.96908
-2.5755
-2.18585
-1.65438
-1.41114
-1.35226
-1.54805
-2.09338
-2.91005
-2.58517
-1.8601
-1.03045
-0.609857
-0.291715
-0.486926
-0.6957
-1.12747
-1.6914
-2.24529
-2.48049
-2.44177
-2.28515
-1.78668
-1.46685
-1.17325
-1.06708
-1.34327
-1.7626
-2.45858
-2.09681
-1.54138
-0.856796
-0.41459
-0.300274
-0.367514
-0.552186
-0.848521
-1.36718
-1.76763
-1.92302
-1.89259
-1.82694
-1.56591
-1.15215
-0.946732
-0.897519
-1.10914
-1.59039
-2.0001
-1.74918
-1.17886
-0.666677
-0.41025
-0.290928
-0.32668
-0.466616
-0.763829
-1.13246
-1.42542
-1.5479
-1.5366
-1.42687
-1.2828
-0.882143
-0.787626
-0.697872
-0.874418
-1.21883
-1.52698
-1.15636
-0.8302
-0.455897
-0.328891
-0.161352
-0.0559086
-0.34455
-0.576858
-0.732493
-0.990552
-1.07054
-1.05794
-0.945562
-0.895495
-0.64136
-0.568072
-0.479485
-0.624541
-0.845784
-1.07556
-0.754543
-0.490433
-0.393149
-0.208955
-0.12748
-0.161282
-0.18691
-0.363093
-0.42441
-0.564218
-0.673493
-0.601577
-0.59667
-0.533829
-0.390634
-0.283976
-0.337736
-0.336508
-0.473986
-0.716994
-0.262024
-0.182966
-0.10957
-0.108439
-0.0554318
-0.0776004
-0.029196
-0.125827
-0.0893175
-0.293436
-0.197612
-0.255878
-0.227998
-0.101321
-0.228684
-0.124625
-0.100133
-0.154713
-0.198039
-0.173733
-3.3681
-2.26625
-1.32884
-0.583852
-0.436287
-0.498959
-1.03283
-1.61683
-2.374
-2.94326
-3.34553
-3.347
-3.05366
-2.4516
-1.97854
-1.5825
-1.42494
-1.62063
-2.25797
-3.09948
-2.96395
-2.0395
-1.13618
-0.580933
-0.403667
-0.512168
-0.864137
-1.32184
-2.00187
-2.60402
-2.91667
-2.89756
-2.59897
-2.20062
-1.68382
-1.35156
-1.23199
-1.42708
-1.94874
-2.78417
-2.46147
-1.70861
-0.948133
-0.572311
-0.374444
-0.495091
-0.7483
-1.18036
-1.74393
-2.07099
-2.35338
-2.46687
-2.25809
-1.8454
-1.42091
-1.20731
-1.07053
-1.29209
-1.76121
-2.29472
-2.03324
-1.51904
-0.870027
-0.469237
-0.320479
-0.328638
-0.669752
-0.922248
-1.35149
-1.82123
-1.96338
-1.97276
-1.80928
-1.46674
-1.14596
-0.950128
-0.930986
-0.930425
-1.46772
-1.92354
-1.6449
-1.07802
-0.625287
-0.374469
-0.231185
-0.29036
-0.514238
-0.707133
-1.08712
-1.29499
-1.51097
-1.55431
-1.38218
-1.17089
-0.840331
-0.822605
-0.719664
-0.844384
-1.22015
-1.46567
-1.12501
-0.770429
-0.521276
-0.195794
-0.125396
-0.187357
-0.344361
-0.502851
-0.748958
-0.945677
-1.03741
-1.11197
-0.998082
-0.8836
-0.653136
-0.552803
-0.544947
-0.652928
-0.848922
-1.07854
-0.67352
-0.564429
-0.377918
-0.0978257
-0.123456
-0.132842
-0.210151
-0.282464
-0.432341
-0.560132
-0.599913
-0.573146
-0.549544
-0.494595
-0.364585
-0.346494
-0.359193
-0.301507
-0.46592
-0.623119
-0.27002
-0.0969353
-0.0609169
-0.0639969
-0.0628254
0.00696126
-0.158359
-0.0536355
-0.123007
-0.144487
-0.289227
-0.259878
-0.189246
-0.188384
-0.168522
-0.0841561
-0.119339
-0.107234
-0.167548
-0.12583
-3.09368
-2.04033
-1.11029
-0.525794
-0.26067
-0.516784
-0.89643
-1.44599
-2.21908
-2.75108
-3.06501
-3.1232
-2.8392
-2.32366
-1.62858
-1.30198
-1.22353
-1.43493
-2.00599
-2.90266
-2.64503
-1.77092
-1.00042
-0.490437
-0.303867
-0.409898
-0.82615
-1.28328
-1.8776
-2.33212
-2.72833
-2.62049
-2.36222
-1.97884
-1.42881
-1.17076
-0.996599
-1.23122
-1.77437
-2.50065
-2.22184
-1.48989
-0.925009
-0.45737
-0.263484
-0.385268
-0.668961
-1.14443
-1.55524
-2.01028
-2.19561
-2.17128
-2.01519
-1.6615
-1.38555
-0.947265
-0.888929
-1.12472
-1.56255
-2.12969
-1.96959
-1.33317
-0.76003
-0.345782
-0.273594
-0.271698
-0.512497
-0.876732
-1.26359
-1.61184
-1.83956
-1.84569
-1.63941
-1.39066
-1.05587
-0.845722
-0.747917
-0.926085
-1.3337
-1.7121
-1.44461
-1.03059
-0.635548
-0.260862
-0.192333
-0.230345
-0.444467
-0.643903
-0.998275
-1.24722
-1.36242
-1.42793
-1.31771
-0.996143
-0.727208
-0.633396
-0.573054
-0.746849
-1.00464
-1.34699
-1.08276
-0.745312
-0.446474
-0.183677
-0.154635
-0.124338
-0.281588
-0.45324
-0.674887
-0.926047
-0.97387
-1.00482
-0.920868
-0.719041
-0.645428
-0.502105
-0.516273
-0.54747
-0.788785
-0.930232
-0.622248
-0.502499
-0.241979
-0.152098
-0.0450052
-0.131961
-0.23178
-0.330942
-0.393996
-0.556207
-0.680673
-0.557539
-0.543559
-0.439678
-0.358083
-0.290489
-0.199325
-0.299432
-0.467696
-0.49053
-0.210372
-0.193641
-0.142195
-0.0313769
0.00800816
-0.0376621
-0.131505
-0.0512339
-0.117393
-0.213197
-0.181909
-0.222012
-0.162792
-0.146582
-0.0817131
-0.0879138
-0.0934954
-0.148858
-0.178992
-0.192264
-2.6263
-1.63569
-0.735441
-0.245242
-0.0250103
-0.268152
-0.549775
-1.11011
-1.68918
-2.26678
-2.53279
-2.53639
-2.34827
-1.77426
-1.26618
-0.901867
-0.786437
-1.13843
-1.62681
-2.41114
-2.25477
-1.49061
-0.688687
-0.140312
-0.0875048
-0.188202
-0.541535
-1.07309
-1.50559
-1.93236
-2.14835
-2.1383
-2.00397
-1.52425
-1.10075
-0.799504
-0.756985
-0.95411
-1.44043
-2.21577
-1.97532
-1.20686
-0.626124
-0.188466
-0.0278369
-0.207261
-0.390543
-0.837833
-1.22702
-1.67836
-1.84842
-1.88563
-1.69674
-1.30449
-1.00747
-0.692505
-0.74088
-0.874732
-1.25424
-1.83361
-1.56522
-1.04661
-0.506223
-0.220129
-0.0473466
-0.155812
-0.377511
-0.743667
-1.02568
-1.38316
-1.50244
-1.52214
-1.38177
-1.03653
-0.839633
-0.610378
-0.586439
-0.637915
-1.04729
-1.5164
-1.40003
-0.874241
-0.449178
-0.136884
-0.0134054
-0.0547722
-0.22458
-0.577728
-0.859486
-0.978142
-1.23326
-1.11079
-1.0745
-0.901069
-0.602024
-0.427988
-0.473904
-0.50537
-0.794768
-1.18947
-0.886697
-0.605805
-0.395991
-0.11936
-0.0387729
-0.0912246
-0.192082
-0.443964
-0.526426
-0.707992
-0.835124
-0.807474
-0.68902
-0.5906
-0.485886
-0.305207
-0.358985
-0.428864
-0.629651
-0.883777
-0.482783
-0.391789
-0.2241
-0.0773424
0.0238213
-0.0363114
-0.0350385
-0.194093
-0.317568
-0.464424
-0.53784
-0.520329
-0.459721
-0.39135
-0.207588
-0.254871
-0.21245
-0.285692
-0.335486
-0.524232
-0.150248
-0.0559754
-0.0421484
-0.0310514
0.044845
-0.050974
-0.0736584
-0.0571176
-0.107869
-0.182402
-0.133851
-0.200516
-0.144684
-0.0439
0.00632335
-0.00109183
-0.0391189
-0.0558777
-0.128448
-0.189399
-2.10366
-1.19294
-0.322947
0.278834
0.464078
0.283827
-0.101196
-0.619219
-1.18561
-1.50317
-1.82864
-1.8197
-1.57539
-1.23393
-0.798823
-0.368353
-0.187379
-0.475449
-1.10354
-1.86405
-1.84183
-1.05435
-0.322084
0.146385
0.282759
0.308562
-0.142784
-0.471717
-0.969163
-1.45609
-1.68803
-1.63222
-1.39188
-0.97838
-0.637061
-0.372655
-0.265401
-0.522491
-0.958374
-1.65644
-1.58066
-0.899788
-0.204473
0.115098
0.24123
0.243408
-0.144557
-0.423352
-0.761832
-1.15796
-1.31141
-1.29597
-1.20474
-0.916061
-0.572344
-0.391825
-0.263651
-0.401617
-0.861501
-1.39843
-1.36342
-0.752345
-0.239807
0.0678719
0.193591
0.11317
-0.0993217
-0.365049
-0.726442
-0.990139
-1.00641
-1.0576
-1.01253
-0.748424
-0.503433
-0.246681
-0.334926
-0.420845
-0.709324
-1.17779
-0.963693
-0.599542
-0.182128
0.0851749
0.163957
0.0559305
-0.0586195
-0.264053
-0.508955
-0.724712
-0.81967
-0.877384
-0.771375
-0.494298
-0.360491
-0.165925
-0.187321
-0.255281
-0.606832
-0.858938
-0.748272
-0.46284
-0.13855
0.024933
0.162611
0.0723006
-0.0807283
-0.180498
-0.353168
-0.507134
-0.578606
-0.620758
-0.534422
-0.437764
-0.319516
-0.195307
-0.0797477
-0.23035
-0.419305
-0.616203
-0.471493
-0.253903
-0.0688598
0.0269432
0.0827226
0.061167
-0.0110277
-0.0802675
-0.289579
-0.32234
-0.352633
-0.356534
-0.321128
-0.267764
-0.142646
-0.0929416
-0.0181132
-0.170815
-0.227407
-0.42545
-0.196986
-0.0875452
0.0236144
0.0365643
0.0869713
0.0137075
-0.000812113
-0.0817462
-0.0885139
-0.0887773
-0.193961
-0.126103
-0.109545
-0.0327084
-0.0351798
-0.0487764
-0.0491122
-0.0957105
-0.0319514
-0.102682
-1.47653
-0.531949
0.263187
0.883923
0.945109
0.845681
0.513855
0.0997806
-0.424213
-0.80689
-0.980181
-1.04492
-0.722043
-0.409748
0.0139908
0.285617
0.423674
0.248418
-0.436145
-1.17073
-1.28463
-0.536918
0.210608
0.765694
0.807397
0.690975
0.431513
0.0299979
-0.380808
-0.686025
-0.905858
-0.758659
-0.666707
-0.391304
0.0426159
0.211401
0.330056
0.0707633
-0.500031
-1.03996
-1.22748
-0.408853
0.152517
0.552
0.67929
0.58935
0.362437
0.0222774
-0.258489
-0.600608
-0.69821
-0.739895
-0.565897
-0.332306
0.0274461
0.153621
0.25564
0.0331818
-0.390194
-0.963496
-0.859825
-0.383856
0.0962081
0.433745
0.622524
0.584678
0.341181
0.0239395
-0.295763
-0.442747
-0.628957
-0.545297
-0.449985
-0.292687
-0.0374255
0.131605
0.08982
-0.0273466
-0.376815
-0.730402
-0.699245
-0.27649
0.0070146
0.297925
0.4604
0.36997
0.203168
-0.00690075
-0.258196
-0.34067
-0.434881
-0.409193
-0.408022
-0.208324
-0.0421736
0.136644
0.109871
0.06334
-0.309958
-0.606531
-0.489795
-0.233564
0.0341072
0.29043
0.282185
0.252542
0.154125
-0.0038785
-0.134402
-0.296549
-0.273909
-0.294605
-0.198947
-0.167112
-0.0322556
0.049256
0.13381
0.0194937
-0.207469
-0.46765
-0.34434
-0.191119
0.0331728
0.21375
0.28931
0.120088
0.0116968
-0.0330845
-0.111742
-0.176062
-0.23105
-0.248765
-0.103809
-0.0857031
-0.00129129
-0.0334859
0.0754824
-0.0681175
-0.102259
-0.251495
-0.0839149
-0.0159438
0.00092044
0.0467624
0.109034
0.0789093
0.0417872
-0.0157749
-0.0763401
-0.0485926
-0.0926094
0.00411233
-0.0119127
-0.0320308
-0.0264712
0.0158243
0.010918
-0.0191054
-0.0436051
-0.0592941
-0.790981
0.19242
1.00166
1.49614
1.67613
1.56086
1.29681
0.868635
0.391894
0.218591
-0.0214877
0.0217403
0.221635
0.518152
0.955463
1.1637
1.1902
0.989511
0.348988
-0.39744
-0.636819
0.16334
0.788706
1.279
1.43086
1.37703
1.1613
0.685774
0.461537
0.121727
-0.036499
-0.0881118
0.162661
0.488162
0.723983
0.949916
0.992323
0.844131
0.195231
-0.437135
-0.530945
0.0928538
0.736223
1.04218
1.17682
1.09099
0.944979
0.603565
0.348314
0.0476925
0.0590374
0.0265355
0.144183
0.282064
0.547088
0.804869
0.802167
0.652625
0.152506
-0.387703
-0.427183
0.0566286
0.550967
0.87453
0.937711
0.931102
0.716038
0.567168
0.276618
0.157492
-0.0631541
-0.0384636
0.0979766
0.292389
0.488748
0.505766
0.576
0.541211
0.0948887
-0.28402
-0.383579
0.0210989
0.436336
0.693798
0.743143
0.741909
0.59694
0.358199
0.254988
0.0889992
-0.0530037
-0.0280975
0.111354
0.245832
0.3688
0.428375
0.489768
0.364343
0.0902077
-0.201705
-0.220517
0.0633336
0.219755
0.524256
0.507809
0.527566
0.436324
0.312793
0.180307
0.0331209
-0.0312559
-0.065364
-0.00841876
0.196292
0.181293
0.353463
0.311111
0.205999
0.083069
-0.175137
-0.223525
0.0254347
0.140521
0.315857
0.296287
0.330643
0.170184
0.161831
0.100777
0.0634216
0.0188541
0.0717494
0.0399872
0.123326
0.130199
0.197339
0.182752
0.109409
0.10711
-0.157168
-0.029081
-0.0565656
0.0496693
0.0870235
0.118904
0.102541
0.0368646
0.0706453
0.0255094
0.0193493
0.026943
-0.0292982
0.0515717
0.00200656
0.087378
-0.00513529
0.104656
0.0252543
-0.0477092
-0.0739309
0.0352527
0.954056
1.79516
2.28163
2.48986
2.42491
2.16869
1.85695
1.48114
1.25484
1.10998
1.0643
1.22627
1.53952
1.92458
1.96474
2.10355
1.83188
1.22158
0.388302
-0.0310898
0.83532
1.46203
1.96583
2.05405
2.0402
1.82885
1.57695
1.33138
1.06612
0.885989
0.950097
1.10028
1.30624
1.57872
1.72512
1.80473
1.50204
1.0081
0.316581
0.0523498
0.650549
1.21646
1.62134
1.77775
1.68617
1.53287
1.26088
1.02519
0.824532
0.812804
0.66496
0.834719
1.06548
1.22264
1.42229
1.43148
1.20274
0.755865
0.235846
-0.0193475
0.457092
1.02213
1.26249
1.40231
1.43668
1.26493
1.129
0.845411
0.722989
0.611023
0.568173
0.721991
0.886754
1.17704
1.12375
1.13338
0.923797
0.614463
0.173282
-0.119435
0.362889
0.754828
1.07802
1.08862
1.02574
1.01728
0.838958
0.697287
0.544094
0.495374
0.551244
0.585571
0.702944
0.753825
0.889342
0.870923
0.701893
0.387351
0.0868042
0.00821382
0.280768
0.514806
0.75837
0.768442
0.659121
0.753506
0.617032
0.477996
0.441884
0.270253
0.363724
0.408565
0.470878
0.575603
0.578901
0.627977
0.535306
0.330635
0.0680506
0.00970258
0.0980934
0.285762
0.436208
0.44879
0.496369
0.470721
0.350652
0.277969
0.263402
0.148694
0.229998
0.224384
0.252689
0.304739
0.40266
0.411541
0.304601
0.204365
0.0493713
-0.0344838
0.0303971
0.130808
0.215795
0.107501
0.19331
0.123737
0.200752
0.0810598
0.0158527
0.0760331
0.029552
0.0470106
0.0581303
0.104961
0.0677649
0.0940536
0.17425
0.0561154
0.0818632
0.863281
1.80542
2.52282
3.0486
3.20477
3.18193
3.00924
2.7961
2.43176
2.34132
2.16222
2.15356
2.38973
2.49274
2.75927
2.91687
2.94902
2.65383
2.09466
1.27096
0.694695
1.44505
2.13949
2.669
2.81284
2.75216
2.65073
2.36443
2.18802
1.90517
1.83885
1.76414
2.0083
2.13854
2.39604
2.45537
2.45366
2.2002
1.71738
1.02868
0.485188
1.20579
1.78482
2.14304
2.3238
2.32489
2.16918
1.9053
1.72645
1.56565
1.50348
1.51317
1.56177
1.72988
1.95382
2.01894
2.02562
1.8526
1.4329
0.852107
0.413444
0.927537
1.4068
1.70003
1.81993
1.86658
1.71737
1.61769
1.45958
1.29037
1.18808
1.25057
1.36792
1.39338
1.54145
1.67598
1.55535
1.52817
1.07893
0.641351
0.291995
0.712874
1.04239
1.39437
1.42057
1.41165
1.30875
1.16115
1.07186
0.969622
0.941084
0.885122
0.966184
1.09757
1.16628
1.28341
1.20773
1.09796
0.805276
0.520462
0.273836
0.497942
0.796225
0.937731
1.00219
1.019
0.913274
0.908046
0.793265
0.766808
0.684609
0.633934
0.673336
0.74373
0.873109
0.836962
0.861686
0.736372
0.619958
0.343415
0.143824
0.336023
0.474614
0.530897
0.629906
0.685167
0.55605
0.486884
0.467964
0.371938
0.390671
0.362373
0.343245
0.438939
0.510185
0.580689
0.604643
0.491874
0.355911
0.0904806
-0.00618401
0.0703752
0.199641
0.237555
0.222041
0.255262
0.159257
0.130024
0.142094
0.211395
0.136019
0.106901
0.193414
0.150651
0.154137
0.148928
0.153575
0.122146
0.119361
0.0443702
1.56941
2.39949
3.20183
3.71595
3.958
3.93203
3.70583
3.54983
3.25185
3.11068
3.04229
3.02387
3.12219
3.29571
3.52474
3.73414
3.59532
3.26439
2.67771
1.92513
1.2096
1.99401
2.66174
3.23323
3.32432
3.34882
3.20248
2.90145
2.82583
2.58181
2.48267
2.52478
2.61828
2.87174
2.98002
3.14872
3.01687
2.7901
2.15659
1.55447
0.983994
1.56389
2.22641
2.62769
2.7506
2.7383
2.61922
2.50992
2.22392
2.18627
2.04979
2.07926
2.09281
2.26764
2.41335
2.61526
2.44742
2.22401
1.7994
1.27666
0.718171
1.28549
1.70131
2.08857
2.19109
2.21896
2.05184
1.99527
1.80032
1.72782
1.53931
1.58237
1.75902
1.84578
1.94727
2.07262
1.95549
1.77353
1.41108
0.940134
0.545463
0.909245
1.3068
1.5544
1.6744
1.66789
1.60905
1.56616
1.35276
1.23606
1.26906
1.26785
1.32698
1.34902
1.5143
1.53003
1.56082
1.43512
1.0501
0.746323
0.385818
0.666124
0.865149
1.09211
1.15295
1.24118
1.18347
1.02803
0.871462
0.913559
0.889337
0.886306
0.983095
1.01378
1.11726
1.02113
0.992505
0.949787
0.790546
0.562422
0.206557
0.412395
0.571233
0.649898
0.616093
0.713822
0.665445