/*--------------------------------*- C++ -*----------------------------------*\
| =========                 |                                                 |
| \\      /  F ield         | OpenFOAM: The Open Source CFD Toolbox           |
|  \\    /   O peration     | Version:  2212                                  |
|   \\  /    A nd           | Website:  www.openfoam.com                      |
|    \\/     M anipulation  |                                                 |
\*---------------------------------------------------------------------------*/
FoamFile
{
    version     2.0;
    format      ascii;
    arch        "LSB;label=32;scalar=64";
    class       volScalarField;
    location    "0";
    object      stateMean;
}
// * * * * * * * * * * * * * * * * * * * * * * * * * * * * * * * * * * * * * //

dimensions      [0 0 0 1 0 0 0];

internalField   nonuniform List<scalar> 
3200
(
345.426
344.573
344.171
344.206
344.763
345.643
346.463
347.368
348.066
348.609
348.674
348.384
347.834
346.942
345.809
344.824
343.987
343.594
343.842
344.437
339.428
338.751
338.309
338.395
338.905
339.632
340.357
341.177
341.682
342.159
342.256
342.029
341.537
340.705
339.774
338.901
338.194
337.875
338.093
338.584
333.388
332.819
332.527
332.638
332.981
333.55
334.238
334.86
335.42
335.706
335.802
335.668
335.186
334.454
333.739
333.01
332.37
332.057
332.24
332.696
327.337
326.939
326.655
326.727
327.064
327.578
328.059
328.529
328.97
329.258
329.293
329.158
328.837
328.275
327.609
326.984
326.581
326.363
326.422
326.791
321.254
321.028
320.829
320.735
321.045
321.405
321.775
322.143
322.531
322.805
322.827
322.628
322.497
321.983
321.544
321.086
320.66
320.407
320.504
320.838
315.277
314.949
314.857
314.89
315.024
315.395
315.579
315.954
316.173
316.33
316.362
316.236
316.09
315.624
315.313
315.085
314.759
314.646
314.773
314.847
309.138
309.099
308.903
308.918
309.004
309.224
309.424
309.504
309.696
309.832
309.834
309.814
309.622
309.443
309.18
309.046
308.894
308.858
308.883
308.913
303.08
302.971
303.033
303.007
303.048
303.057
303.14
303.177
303.269
303.307
303.355
303.277
303.218
303.238
303.148
303.02
302.993
302.931
302.947
302.967
345.251
344.56
344.134
344.326
344.961
345.877
346.789
347.731
348.534
349.078
349.197
348.914
348.275
347.311
346.258
345.051
344.239
343.752
343.867
344.45
339.385
338.773
338.311
338.513
339.022
339.826
340.627
341.372
342.068
342.533
342.673
342.472
341.908
341.042
340.141
339.169
338.348
337.966
338.127
338.597
333.421
332.888
332.575
332.602
333.161
333.746
334.432
335.146
335.76
336.02
336.186
335.978
335.456
334.737
333.96
333.213
332.52
332.154
332.282
332.76
327.391
326.914
326.672
326.785
327.153
327.611
328.258
328.75
329.247
329.434
329.552
329.464
328.959
328.478
327.793
327.201
326.574
326.407
326.491
326.746
321.323
320.983
320.752
320.83
321.141
321.613
321.957
322.394
322.677
322.924
323.065
322.944
322.542
322.208
321.7
321.136
320.725
320.611
320.659
320.884
315.207
315.062
314.968
314.98
315.12
315.337
315.708
316.012
316.295
316.438
316.482
316.412
316.188
315.874
315.49
315.135
314.856
314.71
314.733
314.907
309.196
309.057
309.058
308.967
309.111
309.21
309.411
309.616
309.788
309.85
309.895
309.826
309.831
309.507
309.328
309.143
308.939
308.838
308.903
309.022
303.099
303.048
303.091
303.029
303.036
303.134
303.132
303.221
303.248
303.298
303.271
303.226
303.244
303.184
303.147
303.084
302.998
302.909
303.047
303.057
345.491
344.794
344.358
344.559
345.312
346.151
347.368
348.4
349.19
349.694
349.99
349.592
348.922
347.952
346.646
345.468
344.653
344.027
344.154
344.743
339.574
338.897
338.569
338.792
339.399
340.135
341.071
341.985
342.609
343.173
343.277
343.001
342.432
341.608
340.586
339.453
338.712
338.287
338.337
338.79
333.445
332.946
332.676
332.879
333.26
333.976
334.806
335.561
336.172
336.552
336.681
336.487
336.009
335.19
334.344
333.536
332.766
332.421
332.642
332.95
327.518
327.093
326.825
326.91
327.312
327.938
328.522
329.107
329.616
329.885
330.037
329.867
329.416
328.848
328.197
327.459
326.899
326.557
326.644
326.925
321.324
321.026
320.891
320.9
321.308
321.731
322.192
322.676
323.087
323.282
323.363
323.219
322.942
322.454
321.904
321.358
320.961
320.726
320.703
321.065
315.206
315.12
314.97
315.07
315.182
315.511
315.806
316.178
316.524
316.618
316.697
316.595
316.372
316.055
315.664
315.295
314.935
314.782
314.844
315
309.146
309.085
309.067
309.042
309.113
309.277
309.582
309.734
309.917
310.059
310.091
309.986
309.873
309.644
309.451
309.148
308.967
308.941
308.922
309.028
303.071
303.062
303.093
303.095
303.026
303.165
303.196
303.239
303.392
303.344
303.312
303.372
303.361
303.237
303.102
303.083
303.023
302.978
302.995
303.008
345.793
345.166
344.825
344.978
345.734
346.784
347.907
349.002
349.998
350.676
350.869
350.566
349.884
348.7
347.407
346.235
345.108
344.535
344.527
345.125
339.802
339.208
338.952
339.147
339.719
340.606
341.585
342.543
343.364
343.923
344.118
343.853
343.221
342.309
341.062
340.151
339.194
338.696
338.702
339.163
333.729
333.29
333.057
333.241
333.689
334.423
335.245
336.05
336.726
337.179
337.303
337.177
336.644
335.777
334.844
333.96
333.245
332.793
332.923
333.166
327.619
327.327
327.084
327.27
327.518
328.197
328.823
329.522
330.022
330.416
330.61
330.391
330.009
329.278
328.633
327.83
327.211
326.819
326.94
327.201
321.582
321.212
321.063
321.175
321.449
321.987
322.547
322.881
323.424
323.689
323.817
323.608
323.281
322.865
322.282
321.692
321.206
320.876
320.995
321.209
315.394
315.172
315.106
315.185
315.431
315.686
316.113
316.38
316.673
316.948
316.978
316.912
316.626
316.365
315.886
315.514
315.211
314.983
314.978
315.138
309.284
309.195
309.062
309.146
309.183
309.433
309.751
309.824
310.151
310.241
310.27
310.186
309.991
309.782
309.561
309.284
309.145
308.988
308.946
309.105
303.097
303.078
302.991
303.065
303.066
303.215
303.228
303.304
303.359
303.395
303.433
303.386
303.34
303.302
303.183
303.165
303.099
303.05
303.082
303.012
346.321
345.699
345.349
345.638
346.379
347.471
348.673
349.801
350.832
351.662
351.86
351.641
350.882
349.649
348.255
346.972
345.891
345.24
345.293
345.654
340.17
339.679
339.399
339.649
340.286
341.195
342.214
343.194
344.072
344.845
345.065
344.806
344.039
343.06
341.93
340.814
339.832
339.448
339.265
339.649
334.088
333.673
333.46
333.583
334.144
334.864
335.82
336.62
337.351
337.913
338.073
337.922
337.286
336.473
335.458
334.564
333.772
333.264
333.27
333.623
327.936
327.629
327.473
327.574
327.943
328.54
329.203
329.978
330.569
330.998
331.178
331.047
330.577
329.837
329.094
328.275
327.693
327.298
327.262
327.574
321.744
321.508
321.382
321.406
321.825
322.263
322.734
323.364
323.827
324.073
324.221
324.108
323.74
323.258
322.705
322.02
321.582
321.212
321.211
321.455
315.637
315.362
315.32
315.427
315.57
315.998
316.297
316.681
316.98
317.24
317.39
317.244
317.002
316.674
316.234
315.718
315.454
315.282
315.212
315.256
309.345
309.252
309.218
309.157
309.329
309.648
309.831
310.095
310.243
310.384
310.388
310.341
310.193
310.031
309.685
309.455
309.311
309.156
309.156
309.185
303.18
303.076
303.098
303.096
303.093
303.232
303.287
303.331
303.441
303.498
303.447
303.502
303.427
303.306
303.242
303.133
303.082
303.068
303.141
303.038
347.006
346.31
346.113
346.436
347.077
348.187
349.471
350.811
351.854
352.679
353.052
352.651
351.913
350.722
349.279
347.906
346.798
346.089
346.053
346.364
340.831
340.365
340.017
340.257
340.901
341.905
342.9
343.95
344.969
345.691
345.897
345.709
344.962
343.915
342.735
341.55
340.61
339.988
339.955
340.315
334.57
334.133
333.951
334.141
334.698
335.459
336.342
337.302
338.124
338.593
338.893
338.642
338.069
337.173
336.192
335.224
334.447
334.015
333.854
334.1
328.323
327.986
327.833
327.983
328.462
329.068
329.756
330.54
331.147
331.558
331.883
331.584
331.115
330.518
329.668
328.895
328.186
327.734
327.746
327.881
321.991
321.773
321.73
321.827
322.158
322.584
323.15
323.805
324.233
324.658
324.71
324.52
324.27
323.659
323.026
322.555
321.92
321.688
321.533
321.786
315.731
315.566
315.557
315.511
315.846
316.107
316.696
316.983
317.313
317.531
317.713
317.589
317.348
316.99
316.498
316.094
315.778
315.452
315.48
315.55
309.526
309.346
309.333
309.314
309.484
309.646
309.945
310.157
310.45
310.536
310.617
310.538
310.471
310.217
309.907
309.611
309.42
309.327
309.349
309.413
303.134
303.173
303.103
303.122
303.196
303.379
303.344
303.443
303.486
303.549
303.589
303.473
303.491
303.42
303.348
303.311
303.224
303.162
303.128
303.103
347.755
347.065
346.925
347.295
347.971
349.125
350.413
351.728
352.867
353.72
354.037
353.841
353.019
351.668
350.232
348.858
347.637
347.082
346.989
347.198
341.474
340.889
340.841
340.972
341.677
342.526
343.794
344.897
345.894
346.558
346.937
346.602
345.912
344.871
343.536
342.385
341.472
340.89
340.704
341.046
335.066
334.662
334.573
334.771
335.32
335.958
336.95
337.904
338.813
339.442
339.641
339.489
338.859
337.986
336.927
335.896
335.081
334.585
334.54
334.707
328.762
328.45
328.312
328.482
328.919
329.463
330.242
331.052
331.787
332.244
332.451
332.303
331.891
331.103
330.176
329.321
328.741
328.336
328.283
328.447
322.397
322.099
322.031
322.14
322.525
322.962
323.522
324.169
324.562
325.142
325.268
325.099
324.722
324.233
323.501
322.946
322.382
322.05
321.986
322.283
315.947
315.823
315.753
315.829
316.066
316.452
316.85
317.328
317.671
318.016
318.074
317.947
317.642
317.346
316.768
316.456
315.996
315.763
315.742
315.807
309.602
309.564
309.467
309.46
309.653
309.867
310.209
310.383
310.564
310.811
310.804
310.781
310.592
310.329
310.092
309.851
309.588
309.488
309.475
309.552
303.223
303.119
303.187
303.207
303.239
303.318
303.335
303.486
303.53
303.636
303.603
303.548
303.518
303.468
303.316
303.31
303.16
303.167
303.198
303.212
348.566
348
347.785
348.088
348.894
349.984
351.249
352.61
353.843
354.81
355.172
354.879
354.007
352.783
351.26
349.879
348.744
348.019
347.921
348.222
342.098
341.723
341.562
341.852
342.336
343.313
344.433
345.533
346.664
347.451
347.76
347.568
346.826
345.698
344.432
343.279
342.266
341.703
341.586
341.724
335.726
335.315
335.264
335.414
335.872
336.72
337.702
338.617
339.439
340.138
340.405
340.237
339.694
338.768
337.709
336.666
335.852
335.336
335.232
335.462
329.295
328.938
328.925
329.026
329.445
330.03
330.817
331.47
332.296
332.827
333.076
332.912
332.426
331.702
330.803
330.05
329.392
329.021
328.883
328.992
322.781
322.582
322.466
322.616
322.955
323.451
323.888
324.566
325.182
325.587
325.671
325.543
325.24
324.62
324.026
323.379
322.796
322.541
322.491
322.548
316.301
316.21
316.045
316.21
316.431
316.709
317.061
317.612
318.008
318.22
318.364
318.338
317.949
317.586
317.139
316.618
316.352
316.119
315.967
316.151
309.694
309.626
309.623
309.741
309.895
310.04
310.255
310.592
310.823
310.904
311.077
311.056
310.829
310.584
310.243
310.011
309.793
309.752
309.625
309.675
303.253
303.24
303.236
303.314
303.295
303.316
303.489
303.582
303.625
303.743
303.752
303.678
303.708
303.576
303.415
303.386
303.322
303.241
303.177
303.268
349.478
348.978
348.835
349.085
349.842
350.964
352.083
353.555
354.792
355.757
356.118
355.914
355.041
353.743
352.225
350.897
349.731
349.124
348.953
349.119
342.911
342.523
342.318
342.628
343.241
344.203
345.216
346.406
347.473
348.248
348.638
348.42
347.802
346.581
345.293
344.152
343.189
342.638
342.524
342.607
336.311
335.899
335.867
336.14
336.769
337.434
338.349
339.32
340.205
340.821
341.2
341.049
340.358
339.519
338.449
337.399
336.569
336.155
335.996
336.089
329.684
329.559
329.379
329.659
329.956
330.63
331.315
332.173
332.867
333.415
333.652
333.472
333.026
332.283
331.359
330.663
329.883
329.572
329.445
329.568
323.172
323.025
322.883
322.992
323.379
323.827
324.377
325.031
325.542
325.963
326.139
326.107
325.696
325.08
324.508
323.821
323.418
322.974
322.955
323.091
316.635
316.462
316.4
316.455
316.764
317.082
317.437
317.896
318.319
318.502
318.698
318.549
318.423
318.046
317.477
317.078
316.641
316.502
316.421
316.455
309.936
309.892
309.802
309.905
310.062
310.13
310.485
310.787
310.988
311.133
311.211
311.107
311.106
310.845
310.52
310.248
310.03
309.985
309.771
309.945
303.381
303.314
303.353
303.299
303.363
303.389
303.57
303.642
303.706
303.738
303.741
303.687
303.73
303.631
303.498
303.401
303.302
303.297
303.355
303.366
350.395
349.945
349.731
350.045
350.758
351.795
353.058
354.436
355.611
356.58
357.001
356.763
355.95
354.675
353.306
351.863
350.876
350.188
349.945
350.18
343.81
343.323
343.203
343.445
344.049
344.926
346.021
347.211
348.267
348.923
349.351
349.15
348.441
347.368
346.195
344.96
344.031
343.437
343.291
343.524
337.064
336.712
336.601
336.773
337.285
338.052
338.974
340.002
340.768
341.44
341.732
341.55
340.989
340.099
339.095
338.011
337.335
336.804
336.727
336.882
330.361
330.119
330.028
330.15
330.609
331.146
331.93
332.673
333.454
333.968
334.167
334.036
333.567
332.787
331.948
331.237
330.542
330.082
330.004
330.212
323.64
323.488
323.299
323.5
323.842
324.245
324.755
325.447
325.982
326.39
326.528
326.489
326.1
325.499
324.881
324.309
323.759
323.47
323.428
323.501
316.889
316.754
316.698
316.817
316.963
317.341
317.753
318.185
318.581
318.831
319.016
318.983
318.606
318.261
317.72
317.416
317.091
316.708
316.762
316.728
310.061
310.007
310.067
310.118
310.209
310.438
310.602
310.969
311.074
311.272
311.449
311.345
311.205
310.964
310.629
310.479
310.28
310.097
310.047
310.001
303.462
303.366
303.353
303.446
303.454
303.444
303.559
303.612
303.724
303.775
303.856
303.873
303.714
303.709
303.619
303.435
303.517
303.384
303.345
303.381
351.403
350.907
350.826
351.007
351.666
352.738
353.932
355.175
356.314
357.337
357.717
357.529
356.717
355.525
354.155
352.718
351.791
351.124
350.998
351.2
344.549
344.265
344.04
344.333
344.909
345.674
346.709
347.862
348.821
349.655
349.953
349.835
349.044
348.097
346.885
345.881
345.018
344.405
344.185
344.397
337.719
337.495
337.31
337.574
337.936
338.775
339.559
340.461
341.361
342.09
342.325
342.112
341.619
340.65
339.755
338.817
338.031
337.623
337.398
337.593
330.865
330.712
330.554
330.671
331.112
331.707
332.362
333.044
333.837
334.381
334.536
334.363
334.022
333.376
332.491
331.759
331.154
330.806
330.761
330.768
324.14
323.88
323.776
323.954
324.268
324.713
325.219
325.816
326.398
326.802
326.925
326.803
326.479
326.035
325.268
324.765
324.242
323.983
323.92
323.918
317.163
317.057
316.973
317.157
317.298
317.486
318.036
318.482
318.79
319.128
319.208
319.116
318.851
318.586
318.071
317.705
317.307
317.142
317.073
317.083
310.373
310.238
310.316
310.318
310.422
310.632
310.815
311.119
311.272
311.46
311.569
311.45
311.353
311.162
310.862
310.579
310.447
310.26
310.222
310.335
303.486
303.451
303.436
303.497
303.506
303.588
303.592
303.732
303.726
303.946
303.851
303.893
303.834
303.664
303.739
303.576
303.489
303.481
303.466
303.398
352.367
351.931
351.815
351.931
352.634
353.499
354.746
355.912
357.082
357.865
358.268
358.055
357.349
356.165
354.979
353.78
352.772
352.107
351.923
352.098
345.465
345.103
344.91
345.1
345.661
346.463
347.433
348.395
349.433
350.221
350.534
350.329
349.672
348.77
347.635
346.609
345.751
345.201
345.013
345.285
338.451
338.166
338.003
338.257
338.683
339.392
340.167
341.026
341.892
342.377
342.659
342.615
342.104
341.264
340.318
339.516
338.756
338.347
338.218
338.285
331.5
331.362
331.2
331.315
331.677
332.167
332.935
333.536
334.212
334.811
334.953
334.834
334.423
333.732
332.984
332.307
331.777
331.26
331.311
331.391
324.58
324.302
324.227
324.377
324.631
325.064
325.62
326.084
326.657
326.965
327.181
327.124
326.759
326.277
325.614
325.223
324.723
324.446
324.444
324.401
317.52
317.37
317.39
317.352
317.564
317.894
318.288
318.641
319.024
319.293
319.384
319.387
319.136
318.828
318.36
317.992
317.701
317.522
317.449
317.474
310.525
310.536
310.512
310.404
310.599
310.77
310.99
311.178
311.411
311.581
311.621
311.552
311.446
311.275
311.002
310.822
310.665
310.436
310.438
310.474
303.572
303.44
303.458
303.519
303.575
303.559
303.772
303.707
303.803
303.839
303.984
303.94
303.842
303.802
303.735
303.596
303.574
303.504
303.511
303.428
353.398
352.962
352.791
352.997
353.51
354.494
355.518
356.592
357.736
358.46
358.774
358.64
357.985
356.946
355.606
354.551
353.695
353.116
352.928
353.207
346.275
345.924
345.807
345.982
346.47
347.208
348.182
349.093
350.009
350.63
351.026
350.751
350.172
349.335
348.227
347.337
346.489
346.038
345.927
346.131
339.165
338.867
338.854
338.965
339.341
339.997
340.754
341.613
342.296
342.892
343.078
342.912
342.484
341.746
340.998
340.025
339.397
339.054
338.94
339.073
332.216
331.928
331.805
331.865
332.259
332.695
333.321
334
334.61
335.073
335.301
335.192
334.762
334.2
333.479
332.831
332.267
331.971
331.929
331.958
324.985
324.839
324.793
324.787
325.08
325.459
325.973
326.418
326.945
327.283
327.398
327.375
327.092
326.525
325.956
325.521
325.099
324.904
324.813
324.887
317.911
317.762
317.712
317.713
317.943
318.156
318.528
318.874
319.22
319.535
319.583
319.55
319.342
318.965
318.677
318.29
318.045
317.813
317.806
317.758
310.732
310.725
310.614
310.682
310.731
310.964
311.193
311.397
311.534
311.735
311.86
311.698
311.61
311.401
311.19
310.976
310.729
310.671
310.691
310.601
303.599
303.621
303.619
303.561
303.574
303.669
303.806
303.761
303.852
303.96
303.929
303.957
303.873
303.821
303.713
303.67
303.623
303.626
303.606
303.581
354.37
353.951
353.749
353.983
354.471
355.374
356.237
357.267
358.178
358.928
359.194
359.025
358.505
357.461
356.372
355.348
354.524
354.152
353.942
354.155
347.131
346.85
346.651
346.729
347.291
347.963
348.82
349.759
350.48
351.055
351.271
351.112
350.69
349.802
348.876
348.003
347.346
346.916
346.799
347.092
339.971
339.603
339.53
339.623
339.982
340.645
341.255
342.048
342.68
343.257
343.427
343.339
342.907
342.168
341.445
340.647
340.176
339.779
339.65
339.83
332.671
332.475
332.349
332.497
332.749
333.254
333.825
334.473
334.954
335.414
335.533
335.45
335.111
334.484
333.938
333.312
332.863
332.481
332.475
332.622
325.608
325.33
325.226
325.252
325.458
325.809
326.25
326.823
327.259
327.458
327.713
327.511
327.319
326.926
326.356
325.873
325.589
325.282
325.251
325.397
318.192
318.086
318.105
318.069
318.225
318.498
318.792
319.201
319.394
319.633
319.76
319.675
319.446
319.191
318.893
318.491
318.309
318.138
318.11
318.189
310.879
310.893
310.862
310.86
310.901
311.093
311.209
311.462
311.652
311.833
311.907
311.854
311.728
311.565
311.265
311.18
310.995
310.924
310.836
310.92
303.635
303.576
303.608
303.646
303.617
303.758
303.82
303.834
303.908
303.993
303.945
304.001
303.922
303.79
303.701
303.663
303.654
303.622
303.648
303.674
355.424
355.04
354.811
354.87
355.329
356.105
357.012
357.952
358.815
359.286
359.612
359.449
358.908
358.145
357.188
356.161
355.336
354.963
354.951
355.184
348.08
347.738
347.559
347.664
348.085
348.576
349.481
350.175
350.929
351.549
351.781
351.592
351.095
350.316
349.522
348.741
348.075
347.759
347.642
347.894
340.727
340.416
340.186
340.352
340.698
341.133
341.905
342.492
343.049
343.557
343.71
343.583
343.274
342.676
341.948
341.331
340.731
340.384
340.378
340.544
333.409
333.095
332.964
333.052
333.312
333.751
334.277
334.796
335.335
335.691
335.707
335.667
335.444
334.926
334.367
333.753
333.455
333.145
333.052
333.224
325.903
325.767
325.644
325.685
325.907
326.293
326.653
327.055
327.438
327.726
327.821
327.806
327.562
327.088
326.709
326.237
325.957
325.717
325.774
325.798
318.574
318.45
318.337
318.393
318.47
318.76
319.087
319.327
319.599
319.804
319.876
319.867
319.681
319.444
319.152
318.828
318.498
318.428
318.406
318.442
311.18
311.059
311.001
311.037
311.11
311.252
311.429
311.582
311.852
311.914
311.945
311.919
311.823
311.686
311.456
311.286
311.082
311.103
311.032
311.134
303.787
303.71
303.641
303.672
303.665
303.778
303.828
303.938
303.965
303.975
304.08
304.002
303.966
303.86
303.827
303.801
303.758
303.761
303.654
303.693
356.503
356.043
355.836
355.817
356.34
356.977
357.778
358.569
359.358
359.877
360.05
359.979
359.391
358.702
357.809
356.999
356.277
355.851
355.947
356.197
348.997
348.659
348.419
348.386
348.851
349.433
350.099
350.828
351.469
351.892
352.112
351.847
351.525
350.922
350.081
349.447
348.822
348.559
348.622
348.752
341.617
341.139
341.005
341.048
341.349
341.834
342.406
343.022
343.497
343.94
344.037
343.979
343.61
343.1
342.396
341.874
341.344
341.125
341.12
341.353
333.922
333.719
333.588
333.611
333.773
334.134
334.66
335.204
335.683
335.912
336.098
335.932
335.678
335.294
334.756
334.264
333.955
333.711
333.712
333.792
326.426
326.213
326.201
326.191
326.302
326.643
327.03
327.416
327.791
327.938
328.032
327.942
327.817
327.441
327.055
326.625
326.379
326.145
326.247
326.334
318.879
318.771
318.696
318.641
318.844
319.053
319.309
319.593
319.811
320.02
319.997
319.972
319.788
319.63
319.338
319.077
318.797
318.711
318.744
318.857
311.391
311.327
311.218
311.158
311.2
311.477
311.679
311.8
311.932
312.024
312.079
312.069
311.871
311.777
311.598
311.522
311.297
311.319
311.238
311.298
303.787
303.749
303.771
303.765
303.742
303.809
303.877
303.961
304.038
304.021
304.065
303.958
303.957
303.951
303.914
303.835
303.801
303.791
303.777
303.762
357.636
357.099
356.827
356.882
357.231
357.831
358.517
359.282
359.995
360.29
360.53
360.365
359.929
359.296
358.437
357.743
357.188
356.839
356.942
357.242
349.918
349.495
349.334
349.32
349.626
350.101
350.683
351.451
351.88
352.325
352.483
352.43
351.974
351.356
350.754
350.107
349.607
349.279
349.463
349.718
342.244
341.932
341.681
341.777
342.03
342.473
342.929
343.518
343.947
344.337
344.326
344.268
343.978
343.592
343.017
342.402
342.017
341.764
341.872
342.101
334.567
334.334
334.159
334.165
334.42
334.719
335.187
335.539
335.971
336.165
336.385
336.286
336.008
335.611
335.161
334.852
334.464
334.169
334.296
334.424
326.947
326.735
326.568
326.567
326.765
326.993
327.336
327.733
327.946
328.169
328.311
328.229
327.98
327.687
327.366
327.08
326.771
326.64
326.666
326.765
319.206
319.058
319.078
318.957
319.15
319.293
319.526
319.762
319.974
320.161
320.225
320.219
320.083
319.766
319.64
319.305
319.17
319.092
319.038
319.16
311.628
311.461
311.451
311.386
311.512
311.575
311.821
311.896
312.005
312.067
312.111
312.034
312.018
311.868
311.776
311.611
311.519
311.483
311.379
311.561
303.852
303.907
303.836
303.836
303.839
303.888
303.982
303.971
304.032
304.047
304.039
304.087
303.99
304.017
303.904
303.963
303.818
303.861
303.898
303.897
358.695
358.186
357.838
357.852
358.124
358.628
359.264
359.878
360.466
360.8
360.945
360.883
360.509
359.893
359.128
358.649
358.03
357.801
357.918
358.342
350.931
350.412
350.21
350.141
350.469
350.864
351.405
351.92
352.349
352.709
352.889
352.73
352.397
351.928
351.325
350.798
350.302
350.17
350.239
350.583
343.019
342.707
342.501
342.464
342.66
343.075
343.507
344.002
344.393
344.673
344.685
344.753
344.428
343.975
343.538
343.016
342.654
342.514
342.602
342.835
335.262
335.017
334.745
334.806
334.955
335.185
335.586
335.904
336.315
336.503
336.615
336.592
336.311
335.964
335.445
335.233
334.935
334.843
334.86
335.07
327.536
327.231
327.067
326.978
327.192
327.461
327.648
327.968
328.209
328.413
328.462
328.355
328.221
327.962
327.733
327.392
327.185
327.12
327.207
327.33
319.584
319.436
319.365
319.289
319.44
319.696
319.729
319.967
320.177
320.25
320.422
320.291
320.175
320.012
319.779
319.629
319.419
319.345
319.386
319.524
311.758
311.745
311.654
311.605
311.688
311.73
311.831
312.013
312.128
312.165
312.279
312.176
312.14
312.049
311.921
311.734
311.629
311.635
311.639
311.719
303.979
303.94
303.871
303.82
303.96
303.905
304
303.943
304.078
304.15
304.09
304.129
304.097
304.066
303.993
304
303.942
303.828
303.914
303.863
359.695
359.132
358.868
358.803
359.086
359.509
360.026
360.514
361.069
361.258
361.437
361.347
360.92
360.542
359.932
359.374
358.903
358.737
358.842
359.287
351.755
351.326
351.025
350.894
351.132
351.541
351.941
352.467
352.809
353.177
353.243
353.233
352.823
352.453
351.897
351.49
351.109
350.964
351.054
351.421
343.872
343.417
343.17
343.151
343.294
343.588
343.998
344.464
344.784
345.016
345.079
344.997
344.807
344.437
343.959
343.599
343.268
343.102
343.19
343.505
335.865
335.565
335.357
335.341
335.487
335.682
336.04
336.305
336.579
336.808
336.91
336.788
336.555
336.364
336.008
335.631
335.486
335.236
335.414
335.637
327.919
327.663
327.544
327.409
327.588
327.786
328.052
328.329
328.508
328.656
328.685
328.695
328.524
328.263
328.032
327.726
327.595
327.488
327.571
327.691
319.88
319.772
319.625
319.637
319.721
319.839
320.061
320.159
320.338
320.397
320.479
320.497
320.394
320.23
319.985
319.886
319.713
319.685
319.65
319.811
311.959
311.837
311.788
311.825
311.815
311.841
312.04
312.164
312.222
312.338
312.319
312.328
312.308
312.157
312.016
311.864
311.751
311.771
311.817
312.013
304.063
304.01
303.91
303.903
303.949
303.943
304.063
304.11
304.111
304.049
304.124
304.146
304.047
304.071
304.044
304.022
303.987
303.988
303.961
304.013
360.433
359.959
359.584
359.501
359.67
360.069
360.616
361.026
361.501
361.733
361.802
361.729
361.454
361.026
360.476
359.894
359.622
359.522
359.68
360.077
352.417
351.936
351.639
351.444
351.711
352.012
352.438
352.961
353.191
353.514
353.613
353.492
353.244
352.768
352.381
351.886
351.66
351.511
351.773
352.073
344.32
343.992
343.644
343.561
343.743
344.033
344.39
344.688
345.105
345.21
345.346
345.25
345.105
344.741
344.358
343.879
343.742
343.646
343.757
344.027
336.303
335.94
335.78
335.655
335.803
336.003
336.365
336.577
336.88
337.008
337.197
337.098
336.813
336.571
336.275
335.921
335.789
335.707
335.814
336.081
328.226
328.018
327.82
327.777
327.853
328.036
328.248
328.412
328.71
328.87
328.837
328.795
328.651
328.508
328.19
327.997
327.77
327.692
327.877
328.025
320.158
319.989
319.932
319.852
319.931
319.97
320.137
320.379
320.597
320.585
320.61
320.582
320.424
320.306
320.094
320.063
319.951
319.847
319.864
319.982
312.127
311.988
311.915
311.924
312.042
312.02
312.135
312.224
312.282
312.388
312.381
312.377
312.25
312.18
312.099
312.015
311.859
311.925
312.026
312.023
304
304.059
303.994
304.041
304.057
304.027
304.063
304.031
304.082
304.16
304.123
304.099
304.112
304.094
304.095
303.942
303.942
304
304.019
304.013
)
;

boundaryField
{
    hotSide
    {
        type            fixedGradient;
        gradient        nonuniform List<scalar> 
400
(
321.511
322.87
325.591
329.677
335.133
341.965
350.181
359.788
370.794
383.208
397.037
412.289
428.971
447.088
466.647
487.651
510.105
534.011
559.372
586.191
323.738
325.08
327.767
331.802
337.194
343.949
352.078
361.591
372.498
384.81
398.537
413.687
430.268
448.289
467.755
488.672
511.043
534.872
560.161
586.913
326.149
327.47
330.116
334.091
339.406
346.071
354.099
363.503
374.296
386.491
400.101
415.136
431.606
449.52
468.885
489.706
511.988
535.735
560.948
587.63
328.704
330
332.597
336.503
341.73
348.292
356.205
365.485
376.15
388.215
401.695
416.604
432.954
450.753
470.009
490.73
512.919
536.579
561.714
588.325
331.33
332.599
335.142
338.97
344.099
350.546
358.332
367.477
378.003
389.928
403.271
418.047
434.27
451.949
471.095
491.712
513.807
537.382
562.439
588.978
333.918
335.158
337.643
341.389
346.414
352.74
360.392
369.397
379.779
391.562
404.765
419.407
435.503
453.065
472.101
492.618
514.622
538.114
563.096
589.569
336.321
337.531
339.959
343.622
348.544
354.751
362.274
371.142
381.385
393.031
406.101
420.618
436.595
454.047
472.983
493.409
515.33
538.747
563.663
590.076
338.36
339.543
341.92
345.509
350.339
356.44
363.847
372.595
382.718
394.244
407.2
421.608
437.485
454.844
473.695
494.045
515.897
539.253
564.114
590.478
339.852
341.015
343.352
346.885
351.645
357.665
364.985
373.643
383.675
395.113
407.984
422.312
438.116
455.407
474.197
494.491
516.294
539.606
564.428
590.758
340.643
341.795
344.11
347.613
352.334
358.311
365.584
374.193
384.176
395.567
408.393
422.679
438.443
455.699
474.456
494.722
516.498
539.788
564.589
590.901
340.643
341.795
344.11
347.613
352.334
358.311
365.584
374.193
384.176
395.567
408.393
422.679
438.443
455.699
474.456
494.722
516.498
539.788
564.589
590.901
339.852
341.015
343.352
346.885
351.645
357.665
364.985
373.643
383.675
395.113
407.984
422.312
438.116
455.407
474.197
494.491
516.294
539.606
564.428
590.758
338.36
339.543
341.92
345.509
350.339
356.44
363.847
372.595
382.718
394.244
407.2
421.608
437.485
454.844
473.695
494.045
515.897
539.253
564.114
590.478
336.321
337.531
339.959
343.622
348.544
354.751
362.274
371.142
381.385
393.031
406.101
420.618
436.595
454.047
472.983
493.409
515.33
538.747
563.663
590.076
333.918
335.158
337.643
341.389
346.414
352.74
360.392
369.397
379.779
391.562
404.765
419.407
435.503
453.065
472.101
492.618
514.622
538.114
563.096
589.569
331.33
332.599
335.142
338.97
344.099
350.546
358.332
367.477
378.003
389.928
403.271
418.047
434.27
451.949
471.095
491.712
513.807
537.382
562.439
588.978
328.704
330
332.597
336.503
341.73
348.292
356.205
365.485
376.15
388.215
401.695
416.604
432.954
450.753
470.009
490.73
512.919
536.579
561.714
588.325
326.149
327.47
330.116
334.091
339.406
346.071
354.099
363.503
374.296
386.491
400.101
415.136
431.606
449.52
468.885
489.706
511.988
535.735
560.948
587.63
323.738
325.08
327.767
331.802
337.194
343.949
352.078
361.591
372.498
384.81
398.537
413.687
430.268
448.289
467.755
488.672
511.043
534.872
560.161
586.913
321.511
322.87
325.591
329.677
335.133
341.965
350.181
359.788
370.794
383.208
397.037
412.289
428.971
447.088
466.647
487.651
510.105
534.011
559.372
586.191
)
;
    }
    coldSide
    {
        type            mixed;
        refValue        uniform 300;
        refGradient     uniform 0;
        valueFraction   uniform 0.991591;
        source          uniform 0;
        value           nonuniform List<scalar> 
400
(
300.026
300.026
300.026
300.026
300.027
300.026
300.027
300.027
300.028
300.029
300.029
300.03
300.03
300.031
300.032
300.032
300.032
300.033
300.034
300.034
300.025
300.026
300.026
300.026
300.026
300.027
300.026
300.027
300.028
300.028
300.029
300.029
300.03
300.03
300.031
300.032
300.033
300.033