/*--------------------------------*- C++ -*----------------------------------*\
| =========                 |                                                 |
| \\      /  F ield         | OpenFOAM: The Open Source CFD Toolbox           |
|  \\    /   O peration     | Version:  2212                                  |
|   \\  /    A nd           | Website:  www.openfoam.com                      |
|    \\/     M anipulation  |                                                 |
\*---------------------------------------------------------------------------*/
FoamFile
{
    version     2.0;
    format      ascii;
    arch        "LSB;label=32;scalar=64";
    class       volScalarField;
    location    "./ITHACAoutput/true/4";
    object      error;
}
// * * * * * * * * * * * * * * * * * * * * * * * * * * * * * * * * * * * * * //

dimensions      [0 0 0 1 0 0 0];

internalField   nonuniform List<scalar> 
3200
(
-1.36201
0.55369
2.22327
3.43752
4.29921
4.73868
4.87433
4.98345
4.9819
4.8307
4.59452
4.42547
4.2338
4.06375
3.85688
3.47115
2.73612
1.73969
0.0941694
-1.73477
-1.15527
0.457686
1.86056
2.9752
3.64897
4.06764
4.31743
4.32863
4.2572
4.16794
4.02332
3.83206
3.60541
3.49758
3.29199
2.97403
2.47704
1.57706
0.16888
-1.36634
-0.898989
0.430824
1.70452
2.44667
3.0492
3.39769
3.60863
3.56391
3.56939
3.45709
3.31934
3.22587
3.06217
3.04502
2.78739
2.5232
2.15862
1.34363
0.158928
-1.01478
-0.757024
0.372853
1.41706
2.05037
2.49829
2.7422
2.89009
2.96197
2.91819
2.80987
2.69744
2.66852
2.61475
2.51819
2.32644
2.15993
1.73062
1.07068
0.234914
-0.778548
-0.533078
0.234415
1.01501
1.57731
1.89134
2.16338
2.23896
2.26478
2.22819
2.17874
2.10342
2.0752
1.95148
1.91061
1.82826
1.63788
1.48938
0.904583
0.206031
-0.604134
-0.326582
0.184411
0.692249
1.13501
1.37015
1.52839
1.63275
1.69151
1.62245
1.59848
1.60102
1.45116
1.4211
1.3693
1.33296
1.18375
0.971487
0.668855
0.184558
-0.409198
-0.258714
0.127567
0.498258
0.650872
0.814676
0.848359
0.968382
1.00715
0.965963
0.953056
0.871624
0.866058
0.835232
0.789226
0.816759
0.708145
0.604809
0.428527
0.122219
-0.202574
-0.0301617
0.0264907
0.132411
0.216621
0.316766
0.307762
0.32595
0.335709
0.360922
0.376216
0.33812
0.278189
0.317512
0.286583
0.289838
0.276496
0.111265
0.143157
0.0654434
-0.0411994
-1.28128
0.561911
2.18409
3.36901
4.07585
4.46244
4.63815
4.62259
4.49911
4.32415
4.13891
3.82829
3.78245
3.64363
3.44813
3.21754
2.60887
1.55739
0.101006
-1.68601
-1.03381
0.443368
1.98454
2.93971
3.56369
3.79368
3.95793
3.9887
3.90824
3.79105
3.55855
3.36583
3.23995
3.18048
2.998
2.81158
2.21216
1.42447
0.135783
-1.32773
-0.90166
0.431535
1.62177
2.41261
3.0156
3.24758
3.38523
3.38177
3.24211
3.21943
2.97564
2.77837
2.72811
2.74751
2.6086
2.41388
2.00774
1.26112
0.20454
-1.03095
-0.704469
0.278031
1.28394
2.0503
2.42545
2.61536
2.69474
2.69949
2.69241
2.58323
2.47248
2.35398
2.2441
2.24573
2.16013
1.9397
1.65584
1.09426
0.157263
-0.788124
-0.442451
0.223336
0.995933
1.53392
1.89159
2.04588
2.18313
2.17779
2.07709
1.98386
1.92994
1.80681
1.77621
1.69187
1.6695
1.5939
1.30726
0.874974
0.180482
-0.588638
-0.318331
0.182328
0.742017
1.05595
1.40409
1.49453
1.51946
1.54655
1.55617
1.37914
1.44912
1.29262
1.35414
1.3495
1.19169
1.16839
0.902825
0.654869
0.0968217
-0.440501
-0.157671
0.0768282
0.391956
0.686501
0.805444
0.896814
0.919388
1.02667
0.921585
0.936934
0.819818
0.853756
0.794032
0.762452
0.746518
0.732828
0.596735
0.326309
0.0411109
-0.25901
-0.0273992
0.0264716
0.2395
0.216665
0.247521
0.312036
0.312373
0.285847
0.313049
0.325444
0.292019
0.307805
0.198716
0.206644
0.189815
0.24482
0.193488
0.113306
0.0160318
-0.0465246
-1.32391
0.589367
2.09455
3.24307
3.84398
4.15023
4.20875
4.07381
3.86231
3.56602
3.31129
3.20006
3.07528
3.11687
2.94921
2.81024
2.35155
1.42976
-0.091541
-1.80893
-1.06774
0.42496
1.80748
2.73804
3.29464
3.61018
3.56894
3.44337
3.36336
3.06879
2.94672
2.74842
2.57693
2.65729
2.61297
2.40523
2.07615
1.37919
0.0534675
-1.40798
-0.89193
0.322591
1.52424
2.32321
2.78836
3.02189
3.10871
2.97038
2.84888
2.73801
2.52827
2.34758
2.2523
2.24669
2.19959
2.10598
1.77376
1.07771
0.0445586
-1.0467
-0.730654
0.282082
1.18394
1.91685
2.2266
2.46603
2.45693
2.46998
2.36034
2.10935
2.02419
1.9009
1.88804
1.82588
1.87965
1.73188
1.46927
0.901613
0.178854
-0.786228
-0.562584
0.214475
0.940739
1.47114
1.73234
1.90078
1.93829
1.87583
1.83011
1.70832
1.55975
1.49193
1.45784
1.4216
1.41596
1.40547
1.09829
0.719309
0.130362
-0.625495
-0.352707
0.125359
0.708832
1.03092
1.23324
1.32906
1.37535
1.31513
1.23873
1.29858
1.15825
1.08288
1.15733
1.05745
1.06376
0.991764
0.861694
0.513993
0.0563931
-0.42654
-0.274937
0.163304
0.372813
0.67185
0.78151
0.824597
0.80802
0.800498
0.776493
0.732628
0.75598
0.727926
0.566524
0.601334
0.687038
0.617043
0.592765
0.404734
0.112114
-0.258329
-0.0304532
-0.0230135
0.0660735
0.169697
0.345988
0.244914
0.252541
0.299934
0.261737
0.275455
0.238593
0.277546
0.192604
0.236464
0.267508
0.114245
0.0823477
0.046803
0.017101
-0.0886552
-1.4061
0.372672
1.92047
2.87413
3.52618
3.61166
3.59279
3.37667
3.09518
2.77906
2.50663
2.35245
2.20459
2.33928
2.35013
2.28927
1.8846
1.02992
-0.252088
-1.94809
-1.16852
0.31638
1.59285
2.56354
3.02326
3.16336
3.09158
2.94291
2.72249
2.39599
2.1548
2.02489
1.98485
2.08069
2.06189
2.00443
1.70934
0.943164
-0.219615
-1.63817
-0.890549
0.238516
1.41282
2.11957
2.56533
2.6453
2.63761
2.55481
2.25424
2.09987
1.84472
1.70116
1.65513
1.69093
1.87459
1.71001
1.46883
0.815694
-0.188049
-1.27355
-0.684674
0.22106
1.06916
1.77059
2.1069
2.2079
2.19232
2.0434
1.8921
1.73047
1.48886
1.39246
1.4349
1.43943
1.47378
1.39616
1.22512
0.720854
-0.152235
-0.947349
-0.545434
0.185215
0.873466
1.35306
1.68392
1.69795
1.65107
1.58548
1.46117
1.39987
1.25792
1.13911
1.0961
1.14377
1.12355
1.10655
0.964663
0.58333
-0.0318098
-0.682356
-0.423031
0.0969498
0.533186
0.906027
1.14765
1.18829
1.12553
1.12891
1.00733
0.956745
0.795297
0.766159
0.714764
0.839616
0.806458
0.804818
0.689373
0.41091
-0.0569895
-0.469983
-0.254893
0.0639778
0.381518
0.605434
0.698446
0.708099
0.688893
0.696913
0.597911
0.53306
0.547145
0.458947
0.547769
0.529869
0.549786
0.483021
0.385202
0.227288
0.028428
-0.279858
-0.0526599
0.0459856
0.138412
0.227854
0.254001
0.214985
0.255262
0.26994
0.183062
0.210329
0.159464
0.201797
0.128271
0.16734
0.206646
0.22344
0.0916097
0.0140612
-0.0376563
-0.0737622
-1.57028
0.141107
1.60247
2.6272
3.01475
3.11809
3.02077
2.69564
2.23319
1.85427
1.47439
1.42559
1.32384
1.53624
1.68186
1.68952
1.31795
0.541058
-0.700132
-2.20204
-1.25673
0.157167
1.35343
2.24895
2.6045
2.72498
2.57146
2.31875
1.9437
1.58495
1.34287
1.17526
1.24038
1.41318
1.51481
1.49073
1.23948
0.585692
-0.524639
-1.85175
-1.02327
0.107056
1.12488
1.86106
2.32469
2.25798
2.20652
1.99652
1.66195
1.45222
1.15303
1.07443
1.0669
1.11956
1.29062
1.31262
1.07382
0.550987
-0.36069
-1.44003
-0.819616
0.14703
0.945238
1.52144
1.83258
1.87927
1.78057
1.63484
1.34005
1.14116
1.08885
0.852679
0.865003
1.02613
1.06521
1.14899
0.882325
0.423427
-0.258863
-1.05589
-0.554029
0.0366282
0.721316
1.20654
1.482
1.52023
1.41268
1.25812
1.12907
0.876572
0.783629
0.729976
0.800169
0.785677
0.844456
0.854088
0.75651
0.299593
-0.260134
-0.82501
-0.425355
0.0596249
0.535301
0.818258
1.02379
1.0314
0.966712
0.878179
0.769223
0.585548
0.551578
0.479262
0.545386
0.524535
0.576973
0.63129
0.492129
0.298213
-0.137228
-0.584887
-0.256092
0.0324141
0.286027
0.494271
0.596882
0.583976
0.59259
0.512824
0.45811
0.396243
0.363494
0.347905
0.329219
0.389817
0.353576
0.420038
0.344641
0.158544
-0.151556
-0.332132
-0.0754177
0.0853678
0.0598795
0.222639
0.268331
0.224477
0.120897
0.0967756
0.207016
0.107832
0.0443957
0.11758
0.106685
0.116162
0.169378
0.140502
0.120273
0.0961298
0.0532405
-0.0937017
-1.7113
-0.130005
1.25556
2.13919
2.56666
2.66602
2.40858
1.93967
1.40631
0.943338
0.536228
0.322008
0.513104
0.749265
0.93723
0.979745
0.839213
0.0772082
-1.12606
-2.54396
-1.41703
-0.069907
1.09739
1.83809
2.20842
2.2842
2.05819
1.74733
1.22045
0.718232
0.456261
0.418876
0.472524
0.625466
0.899272
0.893608
0.730863
0.149568
-0.942995
-2.1461
-1.15656
-0.102177
0.943546
1.56739
1.94655
1.932
1.76734
1.49247
1.09181
0.730036
0.413362
0.339437
0.452975
0.624926
0.821193
0.818712
0.617355
0.104721
-0.713767
-1.71439
-0.911032
-0.0519805
0.656176
1.25545
1.56886
1.6258
1.47026
1.23138
0.855597
0.697661
0.317993
0.372819
0.385297
0.451628
0.63617
0.741391
0.515059
0.149201
-0.574475
-1.28918
-0.660174
-0.0353546
0.593628
0.992551
1.13305
1.23413
1.13596
0.953874
0.856406
0.423196
0.335605
0.312431
0.315122
0.398612
0.546823
0.531449
0.479667
0.0910184
-0.369154
-0.99724
-0.533338
-0.0559942
0.430622
0.786454
0.85184
0.875324
0.776734
0.660434
0.519361
0.398002
0.259401
0.185727
0.189694
0.303569
0.382181
0.390796
0.331461
0.127399
-0.246001
-0.703729
-0.279125
-0.0540604
0.238059
0.44856
0.542447
0.451138
0.436479
0.464324
0.291557
0.219191
0.165033
0.141831
0.146361
0.175253
0.279571
0.232838
0.200524
0.0990563
-0.151459
-0.369902
-0.120405
0.0489798
0.0415584
0.112611
0.112206
0.182485
0.176418
0.111515
0.0836634
0.0286801
0.0745988
0.00232927
0.0291631
0.0537522
0.12952
0.0622262
0.166061
-0.00307432
-0.0139521
-0.125802
-1.91972
-0.450862
0.96575
1.73948
2.12489
1.99946
1.81453
1.22961
0.612796
-0.00186485
-0.438594
-0.493613
-0.400357
-0.0503395
0.189053
0.39784
0.256321
-0.350758
-1.56528
-2.93306
-1.52019
-0.355114
0.80868
1.49515
1.80206
1.85658
1.53644
1.08385
0.541578
0.061127
-0.302365
-0.415212
-0.329312
-0.00890596
0.311608
0.421398
0.224107
-0.302652
-1.19669
-2.41272
-1.33385
-0.259044
0.603157
1.25252
1.5537
1.53566
1.36082
0.95223
0.51949
0.0857878
-0.185272
-0.32346
-0.134787
0.0290472
0.272249
0.409784
0.230099
-0.182807
-0.940237
-1.95026
-0.993165
-0.2365
0.527852
1.0043
1.22093
1.28337
1.09824
0.770058
0.406873
0.134629
-0.164432
-0.23311
-0.149813
0.103553
0.263961
0.313137
0.262906
-0.105826
-0.751512
-1.5583
-0.815265
-0.24417
0.372449
0.713329
1.06406
0.993071
0.869947
0.618889
0.328205
0.095254
-0.114789
-0.222942
-0.0519072
-0.0322373
0.319998
0.31385
0.205675
-0.0638019
-0.522352
-1.09073
-0.541038
-0.156343
0.350396
0.618237
0.786295
0.68769
0.624347
0.446502
0.212367
0.0966438
-0.157209
-0.100374
-0.0938545
0.126237
0.114514
0.2147
0.150818
-0.0396926
-0.439525
-0.8103
-0.330061
-0.0116808
0.19536
0.344185
0.384715
0.353191
0.358361
0.241939
0.154203
0.0231089
0.00595994
-0.0844317
0.00148884
-0.0036831
0.0837185
0.157455
0.0785288
-0.0479396
-0.202072
-0.480971
-0.0985046
0.0753862
0.0771817
0.0969847
0.11581
0.0903511
0.0856143
0.057635
0.061679
-0.0119975
-0.104952
-0.0745502
0.0130738
9.97669e-05
0.0546688
0.0299543
0.0354083
-0.0193102
-0.0622107
-0.0615328
-2.14421
-0.760431
0.625095
1.3611
1.69001
1.5377
1.19147
0.618172
-0.0628313
-0.737173
-1.15923
-1.30987
-1.13183
-0.763735
-0.399667
-0.232259
-0.348646
-0.878458
-2.03068
-3.24933
-1.81903
-0.586108
0.510417
1.13174
1.44163
1.47781
1.12075
0.57403
0.102405
-0.532879
-1.02298
-1.08483
-0.917872
-0.54945
-0.243631
-0.0591018
-0.166178
-0.715015
-1.55905
-2.64034
-1.44374
-0.400867
0.55606
1.04751
1.21534
1.20201
1.00234
0.547858
0.0579221
-0.43645
-0.791178
-0.910976
-0.717975
-0.470137
-0.131499
-0.00588974
-0.0957164
-0.442139
-1.26171
-2.13705
-1.16175
-0.367082
0.387168
0.869847
1.06856
0.917197
0.736068
0.414393
0.0161032
-0.352785
-0.555502
-0.683654
-0.510867
-0.30711
-0.175272
0.0632635
-0.0407714
-0.372061
-1.03565
-1.57411
-0.829615
-0.277407
0.277259
0.672907
0.727698
0.852946
0.614818
0.367081
0.0162284
-0.198809
-0.505222
-0.496804
-0.495576
-0.299612
-0.0379018
-0.00655762
-0.000140412
-0.367236
-0.751597
-1.26967
-0.666403
-0.186397
0.191886
0.497897
0.614929
0.505321
0.441083
0.275045
0.0237405
-0.207925
-0.338356
-0.357881
-0.281358
-0.0688917
-0.0359379
0.0580182
-0.03463
-0.124512
-0.463377
-0.889458
-0.351704
-0.0877319
0.11136
0.246205
0.35315
0.38446
0.189987
0.189147
-0.0453365
-0.0766875
-0.247105
-0.198229
-0.169303
-0.0918466
-0.0194601
0.0669534
-0.0333062
-0.0806114
-0.36766
-0.524875
-0.105344
0.0129415
0.00488205
0.0944999
0.124744
0.102877
0.00297425
0.139237
-0.0255969
-0.101647
-0.113946
-0.0256433
-0.020956
-0.0149918
0.0345565
-0.0144642
0.0337796
-0.00288062
-0.154117
-0.1504
-2.21082
-0.850145
0.389105
1.06375
1.36997
1.23126
0.88212
0.203559
-0.600467
-1.379
-1.80634
-1.93928
-1.63945
-1.2835
-0.848246
-0.571015
-0.658712
-1.27536
-2.18548
-3.4171
-1.8437
-0.664682
0.276317
0.95836
1.22808
1.09212
0.737282
0.171188
-0.50623
-1.09791
-1.39147
-1.6165
-1.4413
-1.06779
-0.66824
-0.379827
-0.528247
-1.04787
-1.77887
-2.87178
-1.51182
-0.673398
0.263964
0.872928
0.940987
0.903488
0.641702
0.202045
-0.367217
-0.927229
-1.21276
-1.32553
-1.06433
-0.864971
-0.512306
-0.251739
-0.406557
-0.823854
-1.48832
-2.26198
-1.22769
-0.393167
0.206277
0.620489
0.84558
0.76983
0.544079
0.178575
-0.235468
-0.677368
-0.986926
-1.01509
-0.839003
-0.545407
-0.347472
-0.270437
-0.260017
-0.566241
-1.14058
-1.89599
-0.809319
-0.365914
0.114012
0.546714
0.670067
0.548775
0.500172
0.138086
-0.240162
-0.502099
-0.674914
-0.786532
-0.650405
-0.442256
-0.255658
-0.126672
-0.287984
-0.429247
-0.868525
-1.35572
-0.661345
-0.222989
0.134544
0.410257
0.388102
0.461895
0.333491
0.138777
-0.159152
-0.385392
-0.500325
-0.518225
-0.480068
-0.386222
-0.12392
-0.122782
-0.104746
-0.28563
-0.540902
-0.982361
-0.42743
-0.102484
0.123553
0.236816
0.370329
0.284642
0.270884
0.101083
-0.0541929
-0.15974
-0.331266
-0.345141
-0.268953
-0.275859
-0.122421
-0.0372346
-0.0659824
-0.208462
-0.415185
-0.542157
-0.0777065
-0.0200187
-0.010498
0.0670613
0.123481
0.119845
0.0621098
-0.0116087
0.00544412
-0.104143
-0.154966
-0.0598863
-0.129533
-0.0953466
-0.0520628
-0.0377787
-0.00257151
-0.0951575
-0.0924202
-0.206331
-2.2406
-0.949697
0.141615
0.879834
1.1159
1.00296
0.528986
-0.168912
-0.949108
-1.68294
-2.11788
-2.32341
-1.99544
-1.50235
-1.16214
-0.942796
-0.872648
-1.49953
-2.38839
-3.43295
-1.79785
-0.806829
0.191702
0.808124
0.984448
0.884266
0.51008
-0.0830261
-0.771031
-1.32808
-1.79014
-1.83125
-1.67575
-1.32768
-0.90025
-0.745272
-0.82567
-1.14794
-1.92626
-2.87806
-1.45762
-0.681205
0.207385
0.669475
0.863181
0.761221
0.438504
-0.056474
-0.61013
-1.10448
-1.47548
-1.5133
-1.30046
-1.01106
-0.71306
-0.549168
-0.574997
-0.93337
-1.60564
-2.32219
-1.23611
-0.462133
0.124568
0.509249
0.691754
0.641057
0.403844
-0.0193641
-0.481652
-0.967799
-1.16061
-1.27151
-1.09912
-0.791958
-0.642142
-0.441741
-0.498182
-0.701381
-1.23669
-1.89641
-0.937664
-0.28437
0.177243
0.432784
0.61329
0.575841
0.381907
0.020237
-0.431097
-0.650865
-0.895845
-0.968782
-0.812923
-0.589661
-0.367974
-0.343842
-0.318422
-0.533812
-0.97278
-1.41011
-0.670424
-0.23681
0.11462
0.377665
0.500142
0.381605
0.303615
0.0846459
-0.266893
-0.50184
-0.629574
-0.653408
-0.507245
-0.50039
-0.259268
-0.221443
-0.216919
-0.37712
-0.706976
-0.95353
-0.436226
-0.147179
0.118916
0.170068
0.277124
0.241289
0.151926
0.0195431
-0.122976
-0.356866
-0.355143
-0.323618
-0.314018
-0.317451
-0.120507
-0.101952
-0.138343
-0.211733
-0.468562
-0.599139
-0.151805
-0.0718402
0.0230219
-0.00738513
0.0549811
0.125225
0.0462687
0.0183632
-0.0568355
-0.12717
-0.129447
-0.0777613
-0.13604
-0.111997
0.0195483
-0.0994514
0.00830786
-0.0538576
-0.123997
-0.189324
-2.10707
-0.915502
0.222368
0.79337
1.07148
0.86382
0.370214
-0.328971
-1.04886
-1.77666
-2.28482
-2.43732
-2.15998
-1.74375
-1.28211
-1.10955
-1.09857
-1.53853
-2.4212
-3.56128
-1.80512
-0.766081
0.160604
0.750901
0.886844
0.794208
0.392307
-0.207965
-0.837046
-1.54867
-1.85358
-2.01195
-1.76376
-1.41772
-1.07823
-0.800164
-0.86708
-1.28408
-2.0257
-2.94577
-1.39834
-0.561546
0.227982
0.61799
0.80263
0.725
0.305255
-0.0534904
-0.659807
-1.18519
-1.47879
-1.5417
-1.45566
-1.19301
-0.859893
-0.578723
-0.699198
-0.965097
-1.63403
-2.36386
-1.09781
-0.508763
0.125995
0.559924
0.640509
0.632991
0.306051
-0.209254
-0.568936
-1.01982
-1.19268
-1.27962
-1.06566
-0.90096
-0.604701
-0.449758
-0.5315
-0.784401
-1.29126
-1.87001
-0.849457
-0.397031
0.0729033
0.387424
0.51758
0.461784
0.241965
-0.0367354
-0.454719
-0.682949
-0.949465
-0.982474
-0.913602
-0.687864
-0.449148
-0.38247
-0.354286
-0.524475
-0.976636
-1.41042
-0.631785
-0.179526
0.102155
0.305659
0.435353
0.422056
0.154399
-0.0915491
-0.236708
-0.571015
-0.629527
-0.714372
-0.568643
-0.528484
-0.378957
-0.252243
-0.198467
-0.462876
-0.641322
-0.960957
-0.3498
-0.167179
0.0302935
0.165198
0.238213
0.17604
0.160255
0.00178976
-0.195979
-0.316877
-0.465712
-0.452348
-0.399903
-0.277663
-0.179807
-0.0123701
-0.1146
-0.221777
-0.341905
-0.62672
-0.16228
-0.0663041
0.0135991
0.0416371
0.0346183
0.063032
0.0722251
0.0185391
-0.0033588
0.0180512
-0.112705
-0.166359
-0.105347
-0.106562
-0.0524751
-0.117393
0.00387045
-0.17119
-0.109521
-0.158135
-1.86797
-0.706905
0.254155
0.842196
1.12932
0.947419
0.506122
-0.145512
-0.90225
-1.61035
-2.04831
-2.17304
-1.99638
-1.56738
-1.27728
-0.931905
-1.04018
-1.50914
-2.28112
-3.39718
-1.60446
-0.491981
0.255626
0.836423
1.02734
0.804887
0.509709
-0.0783538
-0.733744
-1.3362
-1.76994
-1.78955
-1.67848
-1.39137
-0.904882
-0.707337
-0.827272
-1.2563
-1.85753
-2.72758
-1.19718
-0.426476
0.29175
0.805298
0.906401
0.663299
0.461884
-0.0232173
-0.590157
-1.08768
-1.34911
-1.4579
-1.28777
-1.15936
-0.77271
-0.566668
-0.583528
-0.851582
-1.55639
-2.20612
-1.00627
-0.35116
0.21861
0.606638
0.793968
0.675274
0.355364
0.0348779
-0.419835
-0.892391
-1.09344
-1.18774
-1.0779
-0.829078
-0.57393
-0.490171
-0.501413
-0.753784
-1.19939
-1.80591
-0.746192
-0.321403
0.181877
0.474607
0.567745
0.50501
0.297966
0.00229491
-0.286502
-0.698433
-0.798086
-0.876223
-0.813792
-0.615009
-0.42526
-0.312548
-0.380036
-0.575503
-0.902701
-1.39136
-0.462311
-0.221849
0.135906
0.384265
0.43387
0.361219
0.197732
0.0488203
-0.270801
-0.453234
-0.670293
-0.606097
-0.522121
-0.368023
-0.363852
-0.258902
-0.246004
-0.359127
-0.653828
-0.965421
-0.32075
-0.092087
0.124681
0.138698
0.26803
0.218607
0.16432
-0.0851598
-0.166642
-0.32486
-0.309566
-0.320514
-0.34802
-0.282571
-0.231515
-0.0849742
-0.172427
-0.17015
-0.365564
-0.558868
-0.115916
-0.0282216
0.013968
0.129338
0.0189107
0.0688577
0.0579958
0.0996769
-0.0394362
-0.0223178
-0.0197193
-0.0416458
-0.115001
-0.175458
-0.0656938
0.0265066
-0.088205
-0.0445825
-0.133907
-0.215312
-1.59393
-0.43736
0.533589
1.1739
1.30551
1.21978
0.692577
0.0858088
-0.645481
-1.27455
-1.63117
-1.77185
-1.65725
-1.25617
-0.963812
-0.686972
-0.842048
-1.22095
-1.99133
-3.03666
-1.2347
-0.338207
0.473328
1.10541
1.20554
1.01226
0.708305
0.163826
-0.4138
-1.03152
-1.31045
-1.47978
-1.29198
-1.03325
-0.746602
-0.501884
-0.592473
-1.00807
-1.66396
-2.44243
-0.949436
-0.206265
0.506306
0.891533
1.09253
0.938033
0.570543
0.197037
-0.303648
-0.724623
-1.06948
-1.11746
-1.06934
-0.854552
-0.460733
-0.297692
-0.432503
-0.726273
-1.3376
-1.92246
-0.790859
-0.114176
0.477633
0.727148
0.939782
0.816207
0.522089
0.22486
-0.163758
-0.666565
-0.86018
-0.896514
-0.781833
-0.642073
-0.399791
-0.250096
-0.343947
-0.487859
-0.95958
-1.55874
-0.462126
-0.114414
0.267543
0.622607
0.665009
0.579229
0.458121
0.199917
-0.121999
-0.416864
-0.547204
-0.621541
-0.649554
-0.503752
-0.259652
-0.202569
-0.197926
-0.380836
-0.685297
-1.14394
-0.42631
-0.0857394
0.246872
0.461898
0.56991
0.422091
0.306186
0.0296373
-0.0676519
-0.317892
-0.43735
-0.534001
-0.428439
-0.31981
-0.130229
-0.0896799
-0.129091
-0.257255
-0.507635
-0.786613
-0.217109
0.0434573
0.113383
0.277035
0.392525
0.317152
0.242197
-0.0111264
-0.0638678
-0.126823
-0.371175
-0.285919
-0.22686
-0.177647
-0.111924
-0.0425804
-0.0483935
-0.113353
-0.278555
-0.477331
-0.142516
-0.0449978
0.0105959
0.0913926
0.0900457
0.110235
0.0938459
0.020431
-0.0380006
-0.020456
-0.0759386
-0.0995687
-0.0716034
-0.0675974
-0.0286152
-0.0606847
-0.0120847
-0.0121939
-0.151726
-0.203401
-1.12767
0.0571398
1.00453
1.60095
1.70273
1.55542
1.20764
0.537127
0.0140368
-0.610113
-1.03159
-1.10558
-0.902582
-0.726375
-0.36566
-0.289646
-0.370062
-0.782956
-1.60655
-2.4543
-0.891995
0.171348
0.964274
1.39618
1.56257
1.44358
1.0859
0.601751
0.0342807
-0.42579
-0.719411
-0.898802
-0.755912
-0.50258
-0.179089
-0.0884466
-0.105818
-0.49124
-1.34065
-2.10294
-0.660448
0.101984
0.760132
1.25591
1.35231
1.24159
0.909825
0.544975
0.110458
-0.338536
-0.687472
-0.774721
-0.530166
-0.396069
-0.155323
-0.00504373
-0.0692525
-0.397917
-0.995901
-1.65256
-0.430445
0.127652
0.726566
1.0487
1.15115
1.03215
0.852287
0.447823
0.10503
-0.228407
-0.377537
-0.562178
-0.493646
-0.28996
-0.0431185
-0.0234139
0.0079482
-0.198313
-0.699656
-1.2916
-0.384491
0.100161
0.550838
0.851455
0.840278
0.843708
0.701191
0.365327
0.129778
-0.207761
-0.323855
-0.368557
-0.290202
-0.152359
-0.0312523
-0.000528473
0.00141489
-0.174635
-0.484346
-0.922395
-0.237343
0.0387089
0.439152
0.611343
0.657765
0.584729
0.519771
0.334616
0.11262
-0.118173
-0.225723
-0.323204
-0.277574
-0.1437
-0.0157228
0.108931
0.0188882
-0.147375
-0.379026
-0.633746
-0.0812665
0.0745289
0.250894
0.394323
0.407879
0.431363
0.228176
0.198033
0.0723914
-0.138339
-0.176399
-0.135749
-0.101131
-0.00226865
-0.0273996
0.0119019
0.075683
-0.143362
-0.203251
-0.376654
-0.0192076
0.0345257
0.0426492
0.128095
0.147733
0.0975146
0.108604
0.0599173
-0.0341962
-0.0424935
-0.016651
-0.0687532
-0.0722577
0.0319836
0.00939644
-0.0370677
-0.0414058
-0.00751424
-0.0137936
-0.162488
-0.489067
0.575342
1.44755
2.13792
2.33676
2.24302
1.84594
1.40689
0.717755
0.245404
-0.134346
-0.260029
-0.132461
0.0811463
0.276551
0.327416
0.243991
-0.199369
-0.938746
-1.89749
-0.258433
0.604399
1.46012
1.8989
2.05711
1.91801
1.59662
1.14334
0.679453
0.303865
-0.0633958
-0.049053
-0.0602545
0.175784
0.31479
0.439755
0.338747
-0.0361217
-0.668943
-1.46374
-0.169556
0.575112
1.20768
1.6514
1.73863
1.75122
1.46931
1.04037
0.609547
0.254021
0.0131749
-0.0655649
-0.0109223
0.233093
0.385787
0.360516
0.392156
0.0798387
-0.435325
-1.14176
-0.0548875
0.473091
1.11631
1.31808
1.48687
1.40122
1.11418
0.856114
0.614468
0.281078
0.0767172
-0.021645
0.0124216
0.202865
0.328823
0.33384
0.215749
0.117227
-0.378757
-0.829791
-0.0770325
0.458628
0.77798
1.01323
1.16917
1.11975
0.982161
0.702947
0.434851
0.238945
0.0977501
0.0916529
0.107425
0.214921
0.272664
0.411974
0.330862
0.136772
-0.231067
-0.622189
0.00315573
0.291413
0.605743
0.752943
0.757754
0.796752
0.659368
0.608584
0.357112
0.157107
0.0625203
0.0626642
-0.00345867
0.186806
0.190248
0.229927
0.208307
0.0940052
-0.157814
-0.413718
-0.0218262
0.193298
0.350735
0.366368
0.531347
0.48628
0.306678
0.268904
0.205707
0.126964
0.0285289
0.0580984
0.0673197
0.103534
0.161524
0.175758
0.122357
-0.00760236
-0.0629042
-0.140348
0.0729881
0.0948844
0.147176
0.176235
0.176795
0.138743
0.131864
0.0631069
0.0997798
0.010282
0.0289169
0.0134903
0.0695711
0.068724
0.090307
0.0274888
0.0625679
-0.00519946
-0.0292044
-0.0795629
0.378055
1.41562
2.33609
2.80692
3.01306
2.91924
2.6039
2.19654
1.64675
1.21721
0.8633
0.719863
0.841095
0.969023
1.18102
1.31581
1.04809
0.55826
-0.126758
-1.05379
0.389428
1.22117
2.01633
2.53186
2.70108
2.55991
2.35799
1.94374
1.45387
1.1786
0.807009
0.73896
0.874674
0.954017
1.14633
1.08747
0.923541
0.63106
-0.0130695
-0.759854
0.468064
1.07009
1.79764
2.15127
2.34804
2.22658
2.04004
1.65319
1.29557
0.972271
0.772228
0.704907
0.791757
0.922286
1.08661
1.02036
0.927718
0.596
0.0320201
-0.563062
0.358155
1.00918
1.44332
1.84685
1.93628
1.88435
1.67104
1.40372
1.12312
0.839912
0.661175
0.614086
0.68133
0.819111
0.817773
0.868896
0.752314
0.545549
0.0451388
-0.439608
0.357826
0.748008
1.14839
1.43943
1.56255
1.44775
1.36578
1.10929
0.851212
0.765946
0.564467
0.531701
0.511074
0.603689
0.624385
0.704621
0.675574
0.500076
0.140252
-0.327928
0.162209
0.549725
0.944232
1.03441
1.03504
1.08892
0.97016
0.759536
0.660651
0.604853
0.406341
0.382696
0.42397
0.459736
0.475614
0.540784
0.533041
0.392118
0.100931
-0.137519
0.182851
0.321037
0.517712
0.616295
0.676624
0.648801
0.616703
0.524085
0.402067
0.281127
0.218394
0.25991
0.170253
0.278605
0.308452
0.413549
0.349136
0.231976
0.113805
-0.145722
-0.0110418
0.0776056
0.127683
0.208781
0.239446
0.169213
0.131544
0.208273
0.0964543
0.145896
0.0906146
0.0818386
0.0907884
0.100847
0.0887896
0.15054
0.160887
0.0589883
0.0251866
-0.0876939
1.27422
2.23081
3.13241
3.74494
3.89936
3.87537
3.55505
3.18848
2.7416
2.39187
1.9775
1.98915
1.96008
2.0356
2.14939
2.18659
2.0339
1.55074
0.690914
-0.120395
1.18261
2.00186
2.73378
3.23071
3.47608
3.44445
3.1199
2.88254
2.40061
2.14025
1.89952
1.83256
1.81299
1.94982
2.03155
1.9927
1.82071
1.4748
0.767717
0.0219913
1.12696
1.76351
2.39288
2.85374
2.93407
2.87941
2.76107
2.50696
2.14027
1.83691
1.70753
1.54332
1.63244
1.68707
1.72215
1.7579
1.60644
1.27906
0.627978
0.0936191
0.93538
1.49312
2.00516
2.36129
2.45741
2.46494
2.23093
1.96806
1.77969
1.52802
1.41885
1.26977
1.362
1.40126
1.54424
1.48622
1.30394
1.06171
0.621796
0.0464781
0.78888
1.10056
1.61406
1.87805
1.8577
1.91153
1.78713
1.66559
1.40994
1.22604
1.12507
1.09292
1.04956
1.14047
1.13852
1.26138
1.1186
0.91675
0.560356
0.178185
0.561751
0.88192
1.17264
1.35278
1.35478
1.36773
1.29617
1.05277
1.00986
0.924191
0.794487
0.733568
0.732134
0.811771
0.750736
0.843503
0.816244
0.552475
0.399798
0.146903
0.299737
0.497303
0.668401
0.798074
0.861622
0.784959
0.817495
0.745366
0.69189
0.563865
0.51076
0.527376
0.507983
0.454504
0.501802
0.541155
0.48427
0.392125
0.239556
0.0532045
0.171016
0.200823
0.205351
0.294512
0.310138
0.233658
0.244751
0.282167
0.24282
0.189872
0.140354
0.118222
0.113149
0.203424
0.256414
0.161527
0.136448
0.201559
0.0767836
-0.0093544
2.20565
3.25065
4.07198
4.52545
4.85819
4.79885
4.6119
4.35731
3.91264
3.59092
3.3147
3.14215
3.28946
3.29451
3.25224
3.33345
3.02411
2.50575
1.74015
0.898987
2.15013
2.93528
3.64112
4.10469
4.28208
4.30171
4.09767
3.81918
3.48383
3.17085
2.94591
2.84836
2.83364
2.91707
3.00135
3.02238
2.74105
2.32719
1.56184
0.785484
1.82872
2.41205
3.08283
3.48691
3.66842
3.62095
3.54306
3.28074
2.95884
2.72104
2.56165
2.45692
2.45908
2.47574
2.53032
2.59127
2.33311
2.03649
1.44417
0.812805
1.50124
2.0894
2.52699
2.82196
3.09409
3.04871
2.88547
2.69672
2.59018
2.16259
2.18132
2.06876
2.0048
2.07617
2.14295
2.12316
1.93158
1.67004
1.18055
0.762698
1.16046
1.58866
2.05285
2.233
2.38468
2.35826
2.17891
2.09817
1.91485
1.81956
1.63865
1.65342
1.65684
1.69499
1.72648
1.6943
1.59436
1.3231
0.98834
0.679055
0.931589
1.19055
1.42784
1.62354
1.65669
1.62816
1.6592
1.53859
1.42327
1.38198
1.21113
1.15984
1.18358
1.17674
1.15527
1.17466
1.09603
0.928564
0.704855
0.479902
0.518136
0.744924
0.808438
0.952938
0.98794
0.983869
0.958443
0.924253
0.818397
0.752648
0.760183
0.706167
0.700985
0.703954
0.789395
0.739409
0.826709
0.57097
0.493012
0.266647
0.228502
0.162889
0.258969
0.329808
0.364574
0.370309
0.308045
0.30372
0.236645
0.327476
0.281535
0.232055
0.259952
0.266678
0.191581
0.223885
0.234852
0.249597
0.167564
0.145866
3.22922
4.19983
5.01072
5.60016
5.84847
5.83047
5.69107
5.3932
5.09994
4.89483
4.58956
4.42761
4.41608
4.49373
4.49688
4.35163
4.06941
3.58902
2.71831
1.82284
2.80908
3.63508
4.369
4.95838
5.1146
5.16888
5.00405
4.75238
4.46793
4.2154
4.03303
3.86741
3.8588
3.85726
3.89483
3.87201
3.62363
3.17564
2.42075
1.72575
2.51854
3.15676
3.70225
4.11626
4.45596
4.36751
4.22823
4.0315
3.86993
3.57579
3.40195
3.33908
3.37773
3.30738
3.36935
3.26353
3.06898
2.6664
2.07668
1.52258
2.00276
2.63661
3.05853
3.42493
3.53189
3.62098
3.47975
3.41294
3.17283
3.01407
2.90643
2.7382
2.75767
2.85254
2.74838
2.70662
2.59903
2.31626
1.80397
1.27191
1.65547
2.01169
2.46549
2.62176
2.81429
2.79576
2.6659
2.63558
2.43979
2.27648
2.19967
2.25214
2.11333
2.25894
2.16975
2.18353
2.03567
1.7637
1.47507
1.07227
1.18975
1.45907
1.70617
1.88851
2.01566
2.01124
1.90567
1.86978
1.78077
1.7489
1.64029
1.58006
1.5605
1.59769
1.51716
1.59096
1.4422
1.27229
0.992764
0.849133
0.758313
0.812697
1.01362
1.16825
1.24505
1.18989
1.22327
1.11926
1.07895
0.935
0.959097
0.946703
0.957829
0.91873
0.923836
0.922452
0.83225
0.820811
0.57203
0.438547
0.302671
0.325107
0.245355
0.399675
0.368589
0.404703
0.384855
0.325821
0.332988
0.381446
0.371451
0.294228
0.328572
0.279309
0.270481
0.34859
0.338781
0.308422
0.237065
0.214307
3.93943
4.95425
5.78048
6.29235
6.65062
6.71943
6.58113
6.36231
6.08265
5.71407
5.47324
5.45466
5.38136
5.35231
5.30454
5.17596
4.92436
4.38428
3.5597
2.5782
3.48704
4.27715
5.02901
5.49977
5.77171
5.73213
5.72922
5.54448
5.2237
4.99311
4.88549
4.73786
4.65755
4.71301
4.62952
4.59414
4.31338
3.81413
3.13317
2.37381
2.98477
3.61096
4.3212
4.76301
4.85086
4.90775
4.83168
4.70707
4.52364
4.27614
4.13237
3.9467
4.05474
3.95126
3.97224
3.86277
3.65304
3.23053
2.67857
2.03848
2.45588
2.98696
3.57797
3.85032
4.02088
4.03608
3.92792
3.77794
3.65497
3.51698
3.34621
3.22232
3.3243
3.31157
3.23223
3.22782
3.01256
2.64448
2.30892
1.77535
1.88332
2.31876
2.72802
3.0358
3.16214
3.14547
3.04426
3.04594
2.8193
2.61484
2.68501
2.52279
2.56193
2.53258
2.52634
2.39222
2.37476
2.10475
1.76718
1.40492
1.35925
1.60344
1.90553
2.18621
2.24406
2.27587
2.26076
2.07725
2.00097
1.92291
1.81406
1.80021
1.75894
1.86381
1.81903
1.75372
1.69787
1.52431
1.23757
1.05282
0.826582
1.05229
1.13293
1.30188
1.40864
1.32888
1.3256
1.25165
1.22627
1.10048
1.13142
1.11177
1.0825
1.06954
1.13759
1.07318
1.03728
0.898948
0.819795
0.563119
0.261586
0.329357
0.471879
0.48004
0.448124
0.49649
0.480453
0.36299
0.485864
0.356266
0.431667
0.417048
0.336093
0.341628
0.348882
0.359075
0.36077
0.317238
0.233092
0.265872
)
;

boundaryField
{
    hotSide
    {
        type            calculated;
        value           nonuniform List<scalar> 
400
(
-0.383094
-0.302184
-0.344406
-0.425867
-0.588894
-0.728168
-0.934054
-1.15506
-1.21702
-1.24078
-1.09968
-0.851259
-0.565988
-0.0864321
0.567665
1.45259
2.36896
3.32306
4.37185
5.10987
1.58765
1.59561
1.62262
1.40541
1.1734
0.90215
0.58168
0.273274
0.185764
0.0897073
0.128938
0.344335
0.622644
1.12805
1.65946
2.51537
3.34872
4.38934
5.36196
6.14254
3.3168
3.27684
3.18584
3.00975
2.68943
2.34015
2.04822