/*--------------------------------*- C++ -*----------------------------------*\
| =========                 |                                                 |
| \\      /  F ield         | OpenFOAM: The Open Source CFD Toolbox           |
|  \\    /   O peration     | Version:  2212                                  |
|   \\  /    A nd           | Website:  www.openfoam.com                      |
|    \\/     M anipulation  |                                                 |
\*---------------------------------------------------------------------------*/
FoamFile
{
    version     2.0;
    format      ascii;
    arch        "LSB;label=32;scalar=64";
    class       volScalarField;
    location    "0";
    object      relativeErrorField;
}
// * * * * * * * * * * * * * * * * * * * * * * * * * * * * * * * * * * * * * //

dimensions      [0 0 0 1 0 0 0];

internalField   nonuniform List<scalar> 
3200
(
0.0039475
0.00160087
0.00640823
0.0098749
0.0123077
0.0135202
0.0138641
0.0141376
0.0141064
0.0136646
0.0129965
0.0125308
0.0120109
0.0115586
0.0110043
0.00993718
0.00786
0.00501438
0.000272269
0.00502788
0.0034074
0.0013471
0.00546133
0.00870734
0.0106468
0.0118332
0.0125255
0.0125291
0.0123018
0.0120332
0.0116157
0.0110733
0.0104358
0.010147
0.00957673
0.00867749
0.00724939
0.00462916
0.000497063
0.00402996
0.00269923
0.00129127
0.00509694
0.00729752
0.00907087
0.0100817
0.0106824
0.0105292
0.0105302
0.0101911
0.00978506
0.00951674
0.00904683
0.00901401
0.00827083
0.00750611
0.00643837
0.00401777
0.000476341
0.00304689
0.00231466
0.00113838
0.00431812
0.00623473
0.00758022
0.00830252
0.00873313
0.00893556
0.00879292
0.00846121
0.00812263
0.00804065
0.00788808
0.00760934
0.00704374
0.0065536
0.00526244
0.00326261
0.000717228
0.00238047
0.0016604
0.000729316
0.0031531
0.00489162
0.00585537
0.00668622
0.00690904
0.00697957
0.00686028
0.00670467
0.00647288
0.00638924
0.00601405
0.00589582
0.00565047
0.00507069
0.00461893
0.00281005
0.000641006
0.00188172
0.00103661
0.000584864
0.00219304
0.00359133
0.00432986
0.00482397
0.00514751
0.00532766
0.0051066
0.0050293
0.00503728
0.00456746
0.00447597
0.00431692
0.00420713
0.00374082
0.00307391
0.00211893
0.00058533
0.00129884
0.000837152
0.000412579
0.00161038
0.00210206
0.00262904
0.00273566
0.00312052
0.00324354
0.00310958
0.00306734
0.00280526
0.00278797
0.00268988
0.00254321
0.00263376
0.00228525
0.00195329
0.00138501
0.000395284
0.000655496
9.95333e-05
8.74045e-05
0.00043678
0.00071438
0.00104436
0.00101441
0.00107411
0.00110605
0.00118894
0.00123923
0.00111374
0.000916402
0.00104609
0.00094438
0.000955336
0.000911596
0.000366933
0.00047223
0.000215926
0.000135958
0.00371216
0.00162407
0.00629328
0.0096753
0.0116654
0.0127294
0.0131901
0.013112
0.0127379
0.0122304
0.0117065
0.0108386
0.0107289
0.0103619
0.00983599
0.00920883
0.0074923
0.0044875
0.000291935
0.00488475
0.00304819
0.00130456
0.0058236
0.0086013
0.0103957
0.0110341
0.0114808
0.0115438
0.0112922
0.0109441
0.0102729
0.00972502
0.00937678
0.00922562
0.00871984
0.00820169
0.00647257
0.00418008
0.000399526
0.00391481
0.0027065
0.00129306
0.00484832
0.00719437
0.00896922
0.00963474
0.0100198
0.00998995
0.00956379
0.00948977
0.00877116
0.0081958
0.008059
0.00813222
0.00773905
0.00717952
0.00598706
0.00377014
0.000612888
0.0030946
0.00215347
0.000848687
0.0039117
0.0062334
0.00735804
0.00791745
0.00814193
0.00814295
0.00811199
0.00777818
0.00744472
0.00709232
0.00676929
0.00678529
0.00653932
0.00588441
0.00503417
0.00333383
0.000480044
0.00240919
0.00137787
0.000694726
0.00309333
0.00475638
0.0058554
0.00632242
0.00673615
0.00671098
0.00639468
0.00610462
0.00593869
0.00556257
0.0054735
0.00522035
0.00515929
0.00493389
0.00405354
0.00271764
0.000561419
0.00183312
0.00101029
0.000578183
0.00235044
0.0033408
0.0044367
0.0047167
0.00479001
0.00487081
0.00489777
0.00433903
0.00455919
0.00406828
0.00426483
0.00425423
0.00376096
0.00369193
0.00285634
0.00207439
0.000307033
0.00139802
0.000510155
0.00024846
0.00126672
0.00221698
0.0025991
0.00289177
0.00296253
0.00330631
0.00296664
0.00301537
0.00263846
0.00274829
0.00255711
0.00245684
0.00240714
0.00236478
0.00192709
0.00105456
0.000132951
0.000838042
9.04147e-05
8.7339e-05
0.000790011
0.000714506
0.00081605
0.00102848
0.00102935
0.000941754
0.00103122
0.00107198
0.000961877
0.00101395
0.00065469
0.000680945
0.000625638
0.000807145
0.000638075
0.00037375
5.28944e-05
0.000153527
0.00383285
0.00170224
0.00603142
0.00930822
0.0109962
0.0118336
0.0119646
0.0115519
0.0109322
0.0100839
0.00936357
0.00905772
0.0087204
0.00886061
0.0084091
0.00803903
0.0067494
0.00411708
0.000264394
0.00523702
0.00314618
0.00124963
0.00530103
0.00800714
0.00960651
0.0104964
0.0103491
0.00996288
0.00971571
0.00885731
0.00850499
0.00793934
0.00745596
0.00770552
0.00759703
0.00701318
0.00607152
0.00404492
0.000157226
0.00414875
0.0026758
0.000966111
0.00455453
0.00692473
0.00829013
0.0089622
0.00919875
0.00877267
0.00840216
0.00806931
0.00745117
0.00692369
0.00665191
0.00664801
0.00652346
0.00626133
0.005287
0.00322026
0.000133446
0.0031401
0.00223248
0.000860673
0.00360557
0.00582556
0.00675261
0.00746328
0.00742167
0.0074492
0.00711032
0.0063504
0.00609401
0.00572632
0.00569415
0.00551547
0.00568865
0.00525226
0.00446531
0.00274577
0.00054571
0.00240229
0.00175134
0.00066693
0.00292096
0.00456038
0.00536107
0.0058727
0.00597958
0.0057796
0.00563357
0.00525611
0.00479901
0.00459255
0.00449174
0.00438562
0.00437478
0.00434949
0.00340458
0.00223343
0.000405371
0.00194719
0.00111909
0.000397429
0.00224479
0.00326093
0.00389611
0.00419383
0.00433513
0.00414149
0.00389828
0.00408523
0.00364374
0.00340783
0.00364458
0.0033331
0.00335666
0.00313323
0.00272564
0.00162776
0.000178784
0.00135335
0.00088943
0.000528038
0.00120468
0.00216938
0.00252158
0.00265865
0.00260345
0.00257776
0.00249943
0.00235773
0.00243288
0.0023431
0.00182432
0.00193751
0.00221514
0.00199092
0.00191401
0.00130783
0.000362515
0.000835701
0.000100487
7.59254e-05
0.000217939
0.000559595
0.00114064
0.000807221
0.000832168
0.000988142
0.00086218
0.000907302
0.000785886
0.000914257
0.00063454
0.00077919
0.000881688
0.000376638
0.000271551
0.000154376
5.64193e-05
0.000292537
0.00406627
0.00107524
0.00552475
0.00824205
0.0100792
0.010291
0.0102077
0.00957048
0.00875728
0.00785559
0.00708553
0.00665584
0.00624848
0.0066463
0.00669645
0.00654364
0.0054044
0.00296285
0.000727328
0.00563366
0.0034398
0.000929481
0.00466755
0.00749099
0.00880917
0.00919177
0.00896036
0.00851126
0.00786157
0.00691313
0.00621722
0.00584717
0.00574042
0.00603048
0.00599123
0.00584051
0.00499491
0.00276376
0.0006452
0.00482232
0.00266942
0.000713749
0.00421848
0.00631352
0.00762249
0.00784128
0.00780135
0.00754257
0.00664633
0.00618683
0.00543507
0.00501564
0.00488644
0.00500133
0.00555672
0.00508106
0.00437518
0.00243555
0.00056273
0.00381745
0.00209053
0.000674039
0.00325401
0.00537805
0.00638645
0.00667921
0.00661994
0.00616082
0.00569829
0.00520849
0.00448126
0.00419357
0.00432619
0.00434652
0.0044584
0.00423203
0.00372123
0.00219394
0.000464182
0.00289256
0.00169701
0.000575641
0.00271076
0.00419248
0.00520917
0.00524425
0.00509203
0.0048838
0.00449692
0.00430626
0.00386959
0.00350575
0.00337634
0.0035275
0.00347018
0.00342308
0.00298903
0.00181034
9.88634e-05
0.00212302
0.00134167
0.000307245
0.00168794
0.00286494
0.00362469
0.0037487
0.00354695
0.00355443
0.00316958
0.00300941
0.00250158
0.00241074
0.00225047
0.00264593
0.00254413
0.0025419
0.00217986
0.00130084
0.000180606
0.00149058
0.000824386
0.000206822
0.00123254
0.00195454
0.00225318
0.0022827
0.00221934
0.00224395
0.00192442
0.00171533
0.00176066
0.00147715
0.00176372
0.00170702
0.00177234
0.00155822
0.00124356
0.00073428
9.18995e-05
0.000905125
0.000173748
0.000151702
0.000456509
0.00075132
0.000837332
0.000708539
0.000841093
0.00088929
0.000602999
0.000692766
0.000525231
0.00066471
0.000422578
0.00055139
0.000681055
0.000736586
0.000302072
4.63765e-05
0.000124225
0.000243374
0.00453432
0.000406546
0.00460389
0.00752492
0.00860815
0.00887636
0.00857565
0.007635
0.00631462
0.00523856
0.00416535
0.00403104
0.00374957
0.00436123
0.0047878
0.00482415
0.00377491
0.00155446
0.00201717
0.00635858
0.00369461
0.000461159
0.00396136
0.00656481
0.00758183
0.00791146
0.00744756
0.00670202
0.00560972
0.00457078
0.00387267
0.00339193
0.00358513
0.0040929
0.00439796
0.00433958
0.0036181
0.00171427
0.0015394
0.00544388
0.00306379
0.000320017
0.00335539
0.00553846
0.00690184
0.00668842
0.0065223
0.00589118
0.00489777
0.00427685
0.0033957
0.00316634
0.00314813
0.00330933
0.00382298
0.00389707
0.00319565
0.00164353
0.00107819
0.00431161
0.00250021
0.000447911
0.00287446
0.00461775
0.00555116
0.00568168
0.00537387
0.00492684
0.00403416
0.0034335
0.0032761
0.00256695
0.00260681
0.00309693
0.00322048
0.00348045
0.00267796
0.00128764
0.000788599
0.00322095
0.00172248
0.000113758
0.00223709
0.00373625
0.00458207
0.00469312
0.00435507
0.00387407
0.00347376
0.00269573
0.0024099
0.00224589
0.00246392
0.00242211
0.00260693
0.00264068
0.00234265
0.000929157
0.000807911
0.00256496
0.00134832
0.00018886
0.00169382
0.00258627
0.00323221
0.00325265
0.00304554
0.00276428
0.00241983
0.00184143
0.0017346
0.00150767
0.00171673
0.0016525
0.00181955
0.00199305
0.00155547
0.00094362
0.000434666
0.00185401
0.000827988
0.000104752
0.000923772
0.00159524
0.00192506
0.00188216
0.00190874
0.00165095
0.00147425
0.0012749
0.00116954
0.0011196
0.00105986
0.0012556
0.00113958
0.00135471
0.00111232
0.000512046
0.000489783
0.00107384
0.000248808
0.000281591
0.000197473
0.000734057
0.000884494
0.000739768
0.000398332
0.000318801
0.000681872
0.000355154
0.000146221
0.000387284
0.000351446
0.000382733
0.000558189
0.000463133
0.000396549
0.000317022
0.000175617
0.000309128
0.00493228
0.000373892
0.0036012
0.00611777
0.00731857
0.00758016
0.00683038
0.00548864
0.00397317
0.00266297
0.00151373
0.000909754
0.00145192
0.0021248
0.00266478
0.00279364
0.00240003
0.000221448
0.00323853
0.00733216
0.00415899
0.000204799
0.00320723
0.00535824
0.00642098
0.00662456
0.00595537
0.0050462
0.00351973
0.00206984
0.00131488
0.00120802
0.00136463
0.00180979
0.00260804
0.00259817
0.00213055
0.00043713
0.00276259
0.00629884
0.00345798
0.00030502
0.00281092
0.00465909
0.0057731
0.00571748
0.00521981
0.0044007
0.00321548
0.00214867
0.00121663
0.000999675
0.00133565
0.00184571
0.0024302
0.00242815
0.00183509
0.000311975
0.00213074
0.00512581
0.00277579
0.000158174
0.00199332
0.00380674
0.00474815
0.00491152
0.0044343
0.00370872
0.00257435
0.00209805
0.000956288
0.00112175
0.00116045
0.00136211
0.00192186
0.00224381
0.00156175
0.000453242
0.0017481
0.00392796
0.00205057
0.000109705
0.00183954
0.00307122
0.00350075
0.00380755
0.00350006
0.00293581
0.00263374
0.00130093
0.00103167
0.000960833
0.000969875
0.00122819
0.00168706
0.001642
0.00148422
0.000282048
0.00114548
0.00309753
0.00168946
0.000177245
0.00136176
0.00248436
0.00268798
0.00275918
0.00244606
0.00207815
0.0016333
0.00125127
0.000815524
0.000584078
0.0005969
0.000955988
0.0012047
0.00123316
0.00104706
0.000402877
0.000778695
0.00222921
0.000902083
0.000174636
0.000768564
0.00144721
0.00174895
0.00145362
0.00140556
0.00149449
0.000938083
0.000705114
0.000530895
0.000456341
0.000471081
0.000564354
0.000900812
0.000750714
0.000646962
0.000319799
0.00048927
0.00119546
0.000397168
0.000161541
0.000137036
0.000371242
0.000369823
0.000601325
0.000581216
0.000367331
0.000275553
9.44542e-05
0.000245682
7.67168e-06
9.6063e-05
0.000177089
0.000426797
0.000205094
0.000547449
1.01374e-05
4.60155e-05
0.000414969
0.00552041
0.00129386
0.00276433
0.00496529
0.00604853
0.00567621
0.00513865
0.00347512
0.00172936
5.25873e-06
0.0012368
0.00139301
0.00113149
0.000142559
0.000536697
0.00113246
0.000731659
0.001004
0.00449197
0.0084344
0.00445288
0.00103835
0.00235922
0.00435128
0.00523156
0.00537703
0.00444028
0.00312671
0.00156033
0.000175993
0.00087055
0.00119626
0.000950001
2.5738e-05
0.000902482
0.00122336
0.000652213
0.000882947
0.00349909
0.00706723
0.00398121
0.000772027
0.00179408
0.00371779
0.00460198
0.00453921
0.00401495
0.00280512
0.00152863
0.000252289
0.000544857
0.0009518
0.000397059
8.57006e-05
0.000804735
0.00121376
0.000682992
0.000543758
0.00280218
0.00582102
0.00302171
0.000718673
0.00160143
0.00304159
0.0036911
0.00387323
0.00330936
0.00231745
0.00122333
0.000404587
0.000494151
0.000700884
0.000450855
0.000312039
0.000796639
0.000946672
0.000796225
0.000321061
0.00228368
0.00474115
0.00252943
0.00075683
0.00115297
0.00220514
0.00328474
0.00306143
0.00267856
0.00190361
0.00100876
0.000292658
0.000352676
0.000685232
0.000159659
9.92586e-05
0.000986487
0.00096885
0.00063581
0.000197508
0.00161908
0.00338408
0.00171243
0.000494497
0.00110724
0.00195162
0.00247959
0.00216649
0.00196517
0.00140434
0.000667578
0.000303715
0.000494048
0.000315527
0.000295191
0.000397339
0.000360764
0.000677059
0.000476096
0.000125427
0.00139017
0.00256467
0.00106616
3.77153e-05
0.000630422
0.00110999
0.00123992
0.00113762
0.00115364
0.000778495
0.000496018
7.43205e-05
1.91678e-05
0.000271588
4.79068e-06
1.18567e-05
0.000269656
0.000507468
0.000253254
0.0001547
0.000652455
0.00155363
0.000324871
0.00024859
0.000254461
0.000319682
0.000381653
0.00029769
0.00028203
0.00018983
0.000203127
3.95091e-05
0.000345618
0.000245516
4.30608e-05
3.28651e-07
0.000180124
9.87143e-05
0.000116713
6.36639e-05
0.000205143
0.000202937
0.00614952
0.00217666
0.00178493
0.00387645
0.00480066
0.00435707
0.00336839
0.00174435
0.000177058
0.00207588
0.0032644
0.0036912
0.00319377
0.00215914
0.00113245
0.000659756
0.000992956
0.00250839
0.00581261
0.00931896
0.00531568
0.0017099
0.0014859
0.00328711
0.00417753
0.00427288
0.00323403
0.00165367
0.000294658
0.00153234
0.00294167
0.00312146
0.00264421
0.00158549
0.000704426
0.000171264
0.000482659
0.00208151
0.00454834
0.00771579
0.00430045
0.00119238
0.00165095
0.00310393
0.00359408
0.00354788
0.00295341
0.00161197
0.00017025
0.00128216
0.00232425
0.00267763
0.00211251
0.00138527
0.000388134
1.74175e-05
0.000283623
0.00131272
0.00375295
0.00636562
0.00352867
0.00111367
0.00117281
0.00263062
0.00322619
0.00276478
0.00221559
0.00124585
4.83718e-05
0.00105924
0.0016679
0.00205361
0.00153589
0.000924413
0.000528336
0.000191005
0.000123302
0.00112705
0.003142
0.00478116
0.00257051
0.000858744
0.000857249
0.00207782
0.00224404
0.00262694
0.00189137
0.00112819
4.98424e-05
0.000610385
0.00155114
0.00152584
0.0015231
0.000921703
0.000116732
2.02221e-05
4.33569e-07
0.00113544
0.00232665
0.00393399
0.00210718
0.000589003
0.00060581
0.00157044
0.0019377
0.00159084
0.00138745
0.000864569
7.4588e-05
0.000653091
0.00106277
0.00112439
0.000884411
0.000216702
0.000113139
0.000182821
0.000109228
0.000393101
0.00146424
0.00281248
0.00113539
0.000283108
0.000359161
0.000793603
0.00113765
0.00123781
0.000611368
0.000608407
0.000145784
0.000246557
0.000794462
0.000637426
0.000544576
0.000295558
6.26539e-05
0.000215686
0.000107357
0.00025999
0.00118643
0.00169443
0.000347356
4.26669e-05
1.60927e-05
0.000311437
0.000411029
0.000338912
9.79642e-06
0.000458545
8.42883e-05
0.000334698
0.000375195
8.44413e-05
6.90138e-05
4.93791e-05
0.00011384
4.76591e-05
0.000111325
9.49537e-06
0.00050811
0.000495922
0.00632104
0.00242624
0.00110794
0.0030216
0.00388197
0.00348083
0.0024886
0.000573284
0.00168902
0.0038764
0.00507768
0.00545489
0.00461719
0.00362097
0.00239804
0.00161804
0.00187108
0.00363146
0.00623717
0.00976995
0.00537317
0.00193406
0.000802401
0.00277704
0.00355098
0.00315137
0.00212356
0.000492313
0.00145427
0.00315223
0.00399506
0.00464379
0.004145
0.0030755
0.00192825
0.00109826
0.0015307
0.00304292
0.00517608
0.00836937
0.00449272
0.0019985
0.000782036
0.00258142
0.00277752
0.00266212
0.00188777
0.000593597
0.00107785
0.00272025
0.00355792
0.00389068
0.00312694
0.00254458
0.00150951
0.000743062
0.00120227
0.00244079
0.00441702
0.00672203
0.00372172
0.00119057
0.000623739
0.00187335
0.00254898
0.0023172
0.00163551
0.00053621
0.000706488
0.00203152
0.00295992
0.00304564
0.00251929
0.0016395
0.0010459
0.000815226
0.000785028
0.0017122
0.00345385
0.00574764
0.00250376
0.00113104
0.000352011
0.00168591
0.00206375
0.0016882
0.00153705
0.000423975
0.000736927
0.00154017
0.00207027
0.00241344
0.00199698
0.00135907
0.00078648
0.000390138
0.000888059
0.00132529
0.00268461
0.00419414
0.00208882
0.000703865
0.000424335
0.00129275
0.00122184
0.00145291
0.0010482
0.000435914
0.000499685
0.00120972
0.00157048
0.00162706
0.00150795
0.00121394
0.000389796
0.000386548
0.00033006
0.000900842
0.00170736
0.00310274
0.0013789
0.000330493
0.000398232
0.000762881
0.00119233
0.000915961
0.000871276
0.000324998
0.00017419
0.00051337
0.00106462
0.00110937
0.000864725
0.000887278
0.000393944
0.000119882
0.000212556
0.00067191
0.0013389
0.00174902
0.000256165
6.59846e-05
3.45971e-05
0.000220964
0.000406787
0.000394739
0.000204541
3.82246e-05
1.79245e-05
0.000342867
0.000510192
0.000197173
0.000426522
0.000313997
0.000171482
0.000124456
8.473e-06
0.000313599
0.000304631
0.000680187
0.00638378
0.0027012
0.000401934
0.00249155
0.00315297
0.00282783
0.00148863
0.000474592
0.00266372
0.0047205
0.00594048
0.00652076
0.00560658
0.00422779
0.00327663
0.00266387
0.0024712
0.00425599
0.00679323
0.00978096
0.0052234
0.00234067
0.000555101
0.00233539
0.00283931
0.00254557
0.00146591
0.000238276
0.00221059
0.00380572
0.00512979
0.0052503
0.00480924
0.00381558
0.00259158
0.00214949
0.00238609
0.00332402
0.00558821
0.00836181
0.00432016
0.00201647
0.000612903
0.00197516
0.0025423
0.00223835
0.00128753
0.00016562
0.00178779
0.00323487
0.00432148
0.00443422
0.00381383
0.00296867
0.00209674
0.00161745
0.00169642
0.00275846
0.00475292
0.00688264
0.00373894
0.00139641
0.000375898
0.00153451
0.00208147
0.0019263
0.00121202
5.80577e-05
0.00144306
0.00289851
0.00347598
0.00380954
0.00329539
0.00237684
0.00192956
0.00132919
0.00150116
0.00211649
0.00373686
0.00573618
0.00289572
0.000877491
0.000546343
0.00133252
0.00188614
0.00176905
0.00117213
6.2061e-05
0.0013213
0.00199429
0.00274492
0.00296928
0.00249299
0.00180976
0.00113046
0.00105747
0.000980406
0.00164545
0.00300174
0.00435474
0.0021148
0.000746561
0.000361069
0.00118871
0.0015729
0.00119916
0.000953409
0.00026565
0.00083726
0.00157396
0.00197458
0.00204978
0.00159192
0.00157132
0.000814728
0.000696415
0.000682754
0.00118798
0.0022288
0.00300783
0.00140617
0.000474264
0.000383009
0.000547481
0.00089166
0.000775981
0.000488377
6.28005e-05
0.000395074
0.00114632
0.00114078
0.00103966
0.00100907
0.00102047
0.000387548
0.000328035
0.000445351
0.000681956
0.00150987
0.00193132
0.000500303
0.000236735
7.58513e-05
2.43279e-05
0.000181086
0.000412373
0.000152342
6.04544e-05
0.000187095
0.000418606
0.000426102
0.00025598
0.000447866
0.000368758
6.43739e-05
0.000327553
2.73676e-05
0.000177447
0.000408607
0.000623955
0.00597982
0.00259403
0.000628829
0.00223889
0.00301751
0.00242795
0.00103877
0.000921733
0.0029358
0.0049703
0.00639194
0.00682215
0.00605197
0.00489271
0.00360364
0.00312471
0.00310016
0.00435077
0.00686037
0.0101068
0.0052264
0.002215
0.000463554
0.00216336
0.00255036
0.00228003
0.00112452
0.000595366
0.00239417
0.00442754
0.00529927
0.0057547
0.00504934
0.00406378
0.00309542
0.00230109
0.00249807
0.00370627
0.00585697
0.00852893
0.00413213
0.00165745
0.0006719
0.00181844
0.00235802
0.00212678
0.000894276
0.000156535
0.00192938
0.00346429
0.00432248
0.0045082
0.00425988
0.00349505
0.00252249
0.00170021
0.00205739
0.0028443
0.00482296
0.00698526
0.00331237
0.00153359
0.000379319
0.00168347
0.00192323
0.00189829
0.000916802
0.000626272
0.00170165
0.0030492
0.00356604
0.00382724
0.0031894
0.00269891
0.00181345
0.00135047
0.00159801
0.00236151
0.00389229
0.00564227
0.00261814
0.00122278
0.000224307
0.00119076
0.00158913
0.00141642
0.00074152
0.000112497
0.00139179
0.0020898
0.00290533
0.00300714
0.00279777
0.00210801
0.00137766
0.00117431
0.00108891
0.00161369
0.00300786
0.00434711
0.00199004
0.000565177
0.000321369
0.000960833
0.00136747
0.00132475
0.000484314
0.000287017
0.000741828
0.00178917
0.00197251
0.00223879
0.00178276
0.00165773
0.00118947
0.000792314
0.000623877
0.00145616
0.00201898
0.00302689
0.00112658
0.000538247
9.74896e-05
0.000531382
0.000765886
0.000565739
0.000514808
5.7476e-06
0.000629216
0.00101726
0.00149505
0.00145232
0.00128424
0.000891972
0.000577846
3.97717e-05
0.000368626
0.000713716
0.00110079
0.00201845
0.000534662
0.000218427
4.4793e-05
0.000137123
0.00011399
0.000207518
0.000237751
6.10203e-05
1.10544e-05
5.94074e-05
0.000370916
0.000547516
0.000346741
0.00035078
0.000172762
0.000386547
1.27465e-05
0.00056387
0.000360799
0.000521008
0.00527823
0.00199451
0.000715787
0.00236739
0.00316853
0.00265346
0.00141529
0.00040638
0.00251748
0.00449111
0.00571256
0.00606327
0.00557541
0.00438291
0.00357731
0.00261463
0.00292392
0.00425025
0.00643612
0.00959924
0.0046276
0.00141717
0.000735157
0.00240142
0.00294465
0.00230342
0.00145666
0.000223668
0.00209285
0.00380965
0.00504627
0.00510431
0.00479136
0.00397629
0.00258959
0.00202743
0.00237515
0.00361299
0.00535067
0.00786692
0.00352599
0.00125472
0.00085716
0.00236251
0.0026553
0.0019405
0.00134963
6.77749e-05
0.00172156
0.00317174
0.00393409
0.00425288
0.0037592
0.00338765
0.00226058
0.00166005
0.0017119
0.00250194
0.00457899
0.00649758
0.00302778
0.00105567
0.000656435
0.00181937
0.00237833
0.00202049
0.00106222
0.000104168
0.00125317
0.0026629
0.00326283
0.0035453
0.00321931
0.00247819
0.00171726
0.00146831
0.00150379
0.00226344
0.00360563
0.00543381
0.00229482
0.000987745
0.000558437
0.00145583
0.00173986
0.00154621
0.000911563
7.01622e-06
0.000875514
0.00213381
0.00243827
0.00267762
0.002488
0.00188149
0.00130204
0.000957804
0.00116574
0.00176703
0.00277421
0.00427896
0.00145389
0.000697325
0.000426901
0.00120618
0.00136093
0.00113229
0.000619456
0.000152872
0.000847676
0.00141849
0.00209782
0.00189724
0.00163493
0.00115295
0.00114055
0.000812103
0.000772188
0.00112807
0.00205514
0.00303608
0.00103201
0.000296198
0.000400871
0.000445746
0.000861018
0.000701967
0.000527458
0.000273276
0.000534642
0.00104214
0.000993081
0.00102831
0.00111679
0.000907033
0.000743414
0.000272971
0.000554144
0.000547061
0.00117584
0.00179815
0.00038178
9.29403e-05
4.59936e-05
0.000425815
6.225e-05
0.000226634
0.00019086
0.000327996
0.000129759
7.34307e-05
6.48811e-05
0.00013703
0.000378422
0.000577419
0.000216221
8.72541e-05
0.000290395
0.0001468
0.000440988
0.000709147
0.00448239
0.00122825
0.00149598
0.00328544
0.00364753
0.00340254
0.0019292
0.00023875
0.00179449
0.00354186
0.00453289
0.0049259
0.00461103
0.0034991
0.00268853
0.00191937
0.00235667
0.00342308
0.0055923
0.00853957
0.00354611
0.0009702
0.00135581
0.0031615
0.00344264
0.0028866
0.0020173
0.000466111
0.00117648
0.00293163
0.00372437
0.00420721
0.00367589
0.00294275
0.00212903
0.00143322
0.00169448
0.00288755
0.00477333
0.0070148
0.00278614
0.000604683
0.00148239
0.00260681
0.00319034
0.00273581
0.00166221
0.000573538
0.000883313
0.00210725
0.00311013
0.00325071
0.00311265
0.00248964
0.00134375
0.000869299
0.00126462
0.00212643
0.0039213
0.00564151
0.00237239
0.000342217
0.00143008
0.00217473
0.00280759
0.00243591
0.00155672
0.000669975
0.000487665
0.00198447
0.00256089
0.00266978
0.00232948
0.00191448
0.00119314
0.000747159
0.00102867
0.0014607
0.00287614
0.00467585
0.00141777
0.000350789
0.000819586
0.00190559
0.00203358
0.00176982
0.00139877
0.000610041
0.000372123
0.00127125
0.00166873
0.00189583
0.0019821
0.00153809
0.000793361
0.000619454
0.000605783
0.00116665
0.00210109
0.00350954
0.0013383
0.000269034
0.00077416
0.00144752
0.00178487
0.00132113
0.000957843
9.26747e-05
0.00021148
0.000993577
0.00136695
0.00166929
0.00133971
0.00100046
0.000407611
0.000280863
0.000404551
0.00080672
0.00159286
0.00246939
0.000697789
0.000139632
0.00036417
0.000889445
0.00125974
0.00101747
0.000776749
3.5674e-05
0.000204737
0.000406509
0.00118974
0.000916552
0.000727368
0.000569729
0.000359066
0.000136654
0.000155371
0.000364077
0.00089502
0.00153414
0.000469212
0.000148134
3.48775e-05
0.000300787
0.000296314
0.000362704
0.000308746
6.72104e-05
0.000125
6.72858e-05
0.000249785
0.000327522
0.000235548
0.000222391
9.41523e-05
0.000199695
3.97725e-05
4.01377e-05
0.000499485
0.000669667
0.0031547
0.00015965
0.00280238
0.00445914
0.00473526
0.00431937
0.00334935
0.00148817
3.88623e-05
0.00168853
0.002855
0.00306093
0.0025007
0.00201457
0.00101543
0.000805504
0.00103073
0.00218424
0.00448873
0.00686598
0.00255008
0.000489326
0.00274999
0.00397616
0.00444387
0.00410024
0.00308085
0.00170569
9.71078e-05
0.00120575
0.00203722
0.00254606
0.00214267
0.00142588
0.00050867
0.000251538
0.000301356
0.00140096
0.00382857
0.006012
0.00193041
0.000297812
0.00221714
0.00365875
0.0039349
0.00360875
0.00264187
0.0015812
0.000320307
0.000981408
0.00199297
0.00224654
0.00153823
0.00115007
0.000451454
1.46761e-05
0.000201749
0.00116064
0.00290821
0.00483021
0.00128695
0.000381367
0.00216853
0.00312679
0.00342884
0.00307153
0.00253422
0.00133069
0.000311949
0.000678223
0.00112104
0.00166972
0.00146685
0.000862177
0.000128314
6.97412e-05
2.36983e-05
0.000591891
0.00209025
0.00386163
0.00117648
0.000306295
0.00168317
0.00259965
0.00256348
0.00257204
0.00213619
0.00111239
0.000395014
0.000632258
0.000985554
0.0011218
0.000883637
0.000464165
9.52728e-05
1.61224e-06
4.31992e-06
0.000533624
0.00148114
0.00282239
0.000743648
0.000121231
0.00137459
0.00191243
0.00205645
0.00182712
0.00162337
0.00104468
0.000351509
0.000368787
0.000704423
0.00100878
0.000866595
0.000448811
4.91294e-05
0.000340566
5.90869e-05
0.000461301
0.00118706
0.00198567
0.000260881
0.000239188
0.000804924
0.00126461
0.00130762
0.00138244
0.000731051
0.000634326
0.00023184
0.000443004
0.000564885
0.00043475
0.000323935
7.2685e-06
8.7811e-05
3.81562e-05
0.000242719
0.000459936
0.0006523
0.00120913
6.32126e-05
0.000113615
0.00014033
0.000421419
0.000485968
0.000320738
0.000357176
0.000197039
0.000112449
0.000139729
5.47525e-05
0.000226084
0.000237621
0.000105188
3.09061e-05
0.000121935
0.000136221
2.47243e-05
4.53908e-05
0.000534749
0.0013605
0.00159866
0.00401655
0.00592358
0.00646543
0.00619803
0.00509499
0.00387964
0.001978
0.000676064
0.000370111
0.000716592
0.000365273
0.000223973
0.000764181
0.000905907
0.000676031
0.000553195
0.00260842
0.00527846
0.000735151
0.00171759
0.00414426
0.00538276
0.00582399
0.00542393
0.00451052
0.00322736
0.00191683
0.000856994
0.000178796
0.000138385
0.000170084
0.000496597
0.000890194
0.00124501
0.000960237
0.000102524
0.00190101
0.00416384
0.000493464
0.00167235
0.00350805
0.00479163
0.0050393
0.00507075
0.00425074
0.00300768
0.00176132
0.000733819
3.80598e-05
0.000189453
3.1576e-05
0.000674341
0.00111706
0.00104493
0.00113786
0.000231913
0.00126587
0.0033229
0.000163514
0.0014084
0.0033203
0.0039168
0.00441439
0.00415661
0.00330271
0.00253624
0.00181961
0.000832169
0.000227132
6.40967e-05
3.6799e-05
0.000601345
0.000975429
0.000991143
0.000641121
0.000348674
0.00112756
0.00247202
0.000235035
0.00139856
0.00237073
0.00308532
0.00355759
0.00340496
0.00298482
0.00213527
0.00132047
0.000725454
0.000296776
0.000278313
0.000326316
0.000653151
0.000829118
0.00125357
0.00100748
0.000416782
0.000704625
0.00189837
9.86697e-06
0.000910794
0.00189223
0.00235079
0.00236456
0.00248503
0.00205566
0.00189668
0.00111268
0.000489448
0.000194775
0.000195248
1.07791e-05
0.000582389
0.000593374
0.000717483
0.000650362
0.000293655
0.000493239
0.00129356
6.99762e-05
0.000619574
0.00112385
0.00117355
0.00170145
0.00155667
0.000981474
0.000860398
0.000658095
0.00040615
9.12619e-05
0.000185867
0.0002154
0.000331342
0.000517069
0.000562803
0.000391933
2.436e-05
0.000201626
0.000449965
0.000240099
0.000312102
0.000484049
0.000579558
0.000581332
0.000456166
0.000433508
0.000207451
0.000327989
3.37972e-05
9.50511e-05
4.43445e-05
0.000228701
0.000225933
0.000296915
9.03881e-05
0.000205758
1.71006e-05
9.60617e-05
0.000261727
0.00104536
0.00391024
0.0064445
0.00773328
0.00829072
0.00802319
0.00714928
0.0060259
0.00451504
0.00333635
0.00236629
0.00197371
0.00230743
0.00266055
0.0032459
0.00362057
0.00288757
0.00154006
0.000350132
0.00291385
0.00110191
0.00345221
0.00569368
0.00714113
0.00760988
0.00720469
0.00663042
0.00546162
0.0040831
0.00330914
0.00226584
0.00207532
0.00245771
0.0026826
0.00322626
0.00306377
0.00260485
0.00178198
3.6947e-05
0.00215005
0.00135598
0.00309763
0.00519866
0.00621507
0.00677693
0.00642061
0.00587811
0.00476046
0.00372903
0.00279785
0.00222219
0.00202892
0.00227991
0.00265744
0.00313339
0.00294498
0.0026802
0.00172359
9.26899e-05
0.00163118
0.00106288
0.00299298
0.00427706
0.00546824
0.00572836
0.00557053
0.00493669
0.00414478
0.00331503
0.00247863
0.00195116
0.00181255
0.00201177
0.00241987
0.0024175
0.00257057
0.00222749
0.00161665
0.000133871
0.0013046
0.00108843
0.00227415
0.00348915
0.00437048
0.00474123
0.00439024
0.0041395
0.00336071
0.00257806
0.00231947
0.00170934
0.00161036
0.00154835
0.00182971
0.00189342
0.00213802
0.00205122
0.00151938
0.000426405
0.000997492
0.000506042
0.00171435
0.00294325
0.00322275
0.00322316
0.00338945
0.00301864
0.00236256
0.00205452
0.00188079
0.00126352
0.00119013
0.00131877
0.00143046
0.00148044
0.00168403
0.00166071
0.00122226
0.000314758
0.000429016
0.000585426
0.00102762
0.00165668
0.00197154
0.0021639
0.00207436
0.00197126
0.0016749
0.00128477
0.000898255
0.000697813
0.00083052
0.000544104
0.000890546
0.000986188
0.00132256
0.0011169
0.000742323
0.000364283
0.000466551
3.63055e-05
0.000255148
0.000419748
0.00068628
0.000786995
0.000556108
0.000432276
0.000684374
0.000316929
0.000479374
0.000297735
0.000268905
0.000298326
0.000331399
0.000291801
0.000494785
0.000528849
0.000193919
8.28074e-05
0.000288338
0.00350108
0.00612352
0.00858841
0.0102557
0.0106664
0.0105898
0.00970565
0.00869855
0.00747562
0.00652028
0.0053907
0.0054239
0.00534733
0.00555739
0.00587338
0.00598127
0.00556993
0.00425181
0.00189654
0.000330801
0.00332755
0.00562802
0.00767785
0.00906393
0.00974247
0.00964487
0.00872905
0.00805976
0.00670922
0.00598018
0.00530755
0.00512163
0.00506923
0.00545533
0.00568858
0.00558497
0.0051081
0.00414197