/*--------------------------------*- C++ -*----------------------------------*\
| =========                 |                                                 |
| \\      /  F ield         | OpenFOAM: The Open Source CFD Toolbox           |
|  \\    /   O peration     | Version:  2212                                  |
|   \\  /    A nd           | Website:  www.openfoam.com                      |
|    \\/     M anipulation  |                                                 |
\*---------------------------------------------------------------------------*/
FoamFile
{
    version     2.0;
    format      ascii;
    arch        "LSB;label=32;scalar=64";
    class       volScalarField;
    location    "./ITHACAoutput/true/5.8";
    object      error;
}
// * * * * * * * * * * * * * * * * * * * * * * * * * * * * * * * * * * * * * //

dimensions      [0 0 0 1 0 0 0];

internalField   nonuniform List<scalar> 
3200
(
-1.46089
-2.06427
1.83441
1.39693
2.74111
2.6678
3.20031
3.4454
3.88443
0.978924
1.56709
3.04732
0.444991
2.99239
3.45308
-0.0707749
1.11437
0.630875
-3.54379
-4.64088
-2.18379
1.06859
2.43032
0.982171
3.46367
4.68728
3.91011
0.960904
4.76645
4.45271
2.57064
3.26978
3.46682
0.255701
2.46167
1.70519
1.56252
1.39207
0.337278
-6.28694
-1.74955
0.569257
1.41623
2.12721
3.8898
4.11038
4.16872
1.40678
2.39537
2.51252
2.78694
1.42312
6.05969
4.32879
4.45199
0.0440322
2.70792
-1.34639
-0.749886
-0.160203
-0.204997
-0.292247
0.787004
0.425776
2.35945
4.08284
2.7431
2.21206
0.243495
2.15367
3.88646
2.55137
-0.184944
3.3395
2.08081
0.726881
1.47538
-2.39925
-0.784867
-3.07754
-1.40688
0.463441
0.329102
1.41582
1.30148
2.35184
1.1787
1.10865
1.36751
0.703964
-0.559992
2.82917
0.919824
2.1033
1.66761
2.68624
-1.42175
0.710127
0.179533
-2.42166
0.401817
-0.698491
1.55518
1.24551
0.412313
-1.22986
4.56227
-0.411977
0.94262
0.687953
0.927742
0.652928
0.791514
0.171027
2.11256
-1.52345
1.11913
1.61
-1.10608
-1.08307
-0.111626
-0.373588
0.83606
1.16354
1.3201
1.94661
-0.22952
0.824385
0.265665
2.09962
-0.0457926
0.926211
0.915832
2.71987
1.4725
-0.0574531
0.0126721
-3.02725
-1.99694
-1.49426
1.9186
2.40336
-0.199895
1.59679
-2.16455
1.10111
-1.28594
2.96135
-0.85983
-1.58608
-0.480476
1.05366
-0.827586
-0.354803
-0.704547
0.426959
1.42048
0.117033
-2.04153
-1.5218
0.336451
-0.71861
4.23303
5.05832
1.94715
0.518055
3.98763
5.23108
2.17766
4.07244
1.15205
3.05545
2.15951
1.27325
2.72648
3.62028
1.16904
-0.760831
-3.13742
-3.91581
1.2035
0.221099
0.542792
0.134552
3.2408
0.720351
3.65285
0.684061
0.735263
0.599766
-0.0145011
0.997452
-0.240153
2.57034
0.861148
3.17107
-0.107032
0.296477
0.311918
-3.13797
-0.732633
1.05342
4.65822
1.33143
2.38648
2.31512
0.969294
0.254274
2.21677
3.34229
-0.392194
0.859185
0.724319
2.52499
2.68523
-0.852342
0.987212
0.681894
-2.40257
-0.477872
0.160605
-1.7188
1.51051
0.112309
1.72758
4.7956
0.169517
1.00827
2.73381
1.76544
1.49185
2.30429
2.09851
4.35983
0.234908
1.19734
1.18035
0.684625
-2.47765
-1.05996
-1.54695
1.05037
0.753649
1.51927
3.44892
2.8159
5.28356
1.913
1.00133
0.398157
0.182336
1.55247
0.434331
-1.33224
2.46766
1.91053
1.42663
0.643568
-1.71153
-0.377766
-1.32315
1.0627
1.75363
2.75065
1.98049
-0.251336
-1.23828
-1.50761
1.20847
0.490846
2.08825
0.586467
-0.66886
1.61792
2.80307
-1.32385
0.90579
2.86341
-1.07045
-2.01038
1.37018
1.35462
-0.0907108
0.207068
1.06331
0.0673633
-0.400487
0.611149
-0.673163
2.15879
1.77507
-0.921769
1.32501
1.07558
0.771832
0.744497
-0.110615
0.562367
0.452245
-2.67878
0.349409
0.648254
-0.407161
-0.197744
3.74042
0.407136
0.459798
-2.58972
-0.363677
0.664642
2.12247
0.0143681
-0.422075
1.95807
-0.671044
0.304458
-0.454132
0.262148
-0.335602
-0.386361
-3.10235
-0.79793
2.28223
1.44767
2.767
4.80154
2.25164
2.05273
2.78823
0.210505
4.60877
3.9557
1.25623
2.64152
3.11121
2.95185
0.897659
-0.912937
-0.55899
-5.65425
-2.29821
-0.447522
3.01243
3.63612
2.40663
2.54324
5.69472
1.66672
2.84166
1.41295
4.46033
1.7607
0.814699
2.04422
-0.158467
0.994597
1.45361
0.465714
0.73329
-4.78421
-0.0335333
-0.233791
0.893748
2.94633
1.71377
3.0516
1.83439
3.1998
0.900048
-0.18822
1.05262
3.84308
-0.314511
3.21138
1.32675
1.53026
-1.26817
0.352638
-2.78469
-0.973407
-1.66296
-1.12436
2.55228
2.58106
2.16546
0.493332
2.71288
3.59119
1.16008
-0.108755
1.56127
3.92132
-0.0902341
0.730559
1.65944
0.205506
-0.0202183
-2.01216
-0.738426
-2.35597
-0.340177
-1.79166
1.89451
2.40141
-0.132358
3.10822
2.8908
3.54272
1.17418
-0.357895
2.3482
1.62911
2.28964
-0.327875
-0.481672
-1.33219
1.39847
2.058
3.01471
-1.0425
-1.97652
-1.45054
-1.29231
2.42331
0.253443
-0.176878
-1.36677
2.21903
1.41022
-0.31427
-0.105131
-0.00608263
1.03309
0.278396
1.70239
0.265383
2.15923
0.831124
-1.25286
-1.90623
-0.6017
0.246925
-1.03246
0.205048
0.23784
2.0444
1.98148
-1.45506
2.5621
0.789
1.28397
0.518297
-0.775534
-0.147502
2.08448
0.0189893
-0.422818
1.32865
-0.452048
-1.07935
0.0837167
1.38306
-0.545304
1.30401
-0.530331
-1.50937
1.42839
0.188242
1.39538
1.66738
2.38517
-3.11784
2.35345
0.500752
0.418914
2.14095
-1.79051
-1.53435
-0.116011
-0.20204
-0.947831
0.0373059
0.617396
2.12874
0.86346
2.99661
5.48022
1.27127
2.11727
-0.408635
0.57459
2.10276
3.63918
-0.889392
2.06095
1.87535
-1.27466
-0.936018
-3.80283
-4.81603
-2.04893
0.123345
0.557342
-0.379583
2.68779
0.0218605
2.48938
-0.284338
4.16603
-0.13945
-0.539114
0.809953
-0.01126
-0.506332
0.199541
1.52254
0.0139145
-1.55746
0.294686
-3.22533
-1.67935
0.121924
1.21634
0.937145
1.86273
3.04046
3.64124
1.46369
0.313881
1.58728
0.166659
3.07581
-1.87706
2.06842
0.566082
-0.472067
-0.527975
-0.949556
-2.629
-3.51398
-0.563154
0.0726808
2.88273
1.89832
2.80698
0.743485
3.18761
2.42478
3.03202
-0.669285
1.06312
0.934087
0.108942
2.17463
2.07452
1.2082
0.716537
-2.19866
-1.41937
-1.44895
-1.94613
-1.42861
-1.37394
2.62212
-0.596389
1.77921
1.52536
3.82932
0.151728
1.66191
-0.333165
-0.253748
0.434481
0.48252
1.1098
-0.612036
0.737363
0.236731
0.150963
-2.86294
-2.06165
-1.50447
2.33722
1.48527
0.738446
1.54792
0.526663
1.4864
1.35429
1.47411
0.984171
1.25455
1.00469
0.188114
1.13049
0.495528
-1.01381
-0.284026
-1.5312
-0.859817
0.792699
-0.0921843
-0.216899
-0.0890353
1.62748
1.6319
0.431448
2.16909
-0.298791
-1.77969
1.31433
0.444613
-2.09779
-1.19793
1.07961
1.50201
-1.02861
-2.22476
1.08754
0.824864
-2.29395
-1.5113
-1.74624
1.85905
1.7891
-2.23598
-0.525228
-1.45879
0.0365113
0.964933
-1.85182
1.65404
-1.39832
-0.0546148
2.83674
-2.14496
-1.71245
0.652524
1.47281
-0.493507
-5.54117
-6.02631
0.668083
0.0922036
2.03593
2.06703
1.25544
2.70409
0.588759
0.5113
0.234903
-1.03098
0.641879
2.01838
0.836967
-1.19326
-0.472209
-1.21675
-1.29467
-4.63352
-1.71557
-3.54201
0.869482
2.92806
1.29016
1.55411
1.48014
1.58879
-0.108977
-3.2255
3.00682
1.27781
-1.38768
0.920104
-0.691316
0.673964
-1.59154
-2.97936
-0.256579
-3.51386
-2.27092
-1.22145
0.415636
1.24392
4.48895
1.21734
2.7011
1.83187
-0.130976
2.03076
-1.01165
1.7014
-0.418201
1.46493
-0.514039
-1.69724
0.113815
2.19274
-2.05704
-2.20224
-1.40971
0.361419
-0.937148
2.90181
0.930783
0.236979
-0.283331
-0.13898
0.484607
0.551275
2.09432
0.496682
-0.934895
-0.347354
1.40833
0.128066
-2.19173
-0.105605
0.418431
-3.17208
-1.35766
-0.540536
0.876571
0.463964
1.89603
0.564149
-0.00951835
-0.193832
0.947939
1.14742
-0.0856551
0.308487
1.48515
-0.634071
0.347753
2.67301
1.74575
-0.0204183
0.0918954
-2.50265
0.788144
0.380692
-1.04953
-0.324831
2.76644
-0.785113
0.773513
2.77785
2.73848
1.45003
0.317752
0.339594
3.1247
-0.538887
1.2467
0.554739
2.02588
2.21142
0.0591223
0.339938
-3.10226
-0.0195309
1.22703
-1.20618
-0.53169
-0.502646
-1.14544
1.75573
-0.373186
2.28895
0.0996393
-0.102499
-1.39932
0.0950793
-0.278381
0.570426
0.580087
1.19416
-0.069418
-2.62609
-0.478107
0.213666
-2.18043
2.12282
-0.88412
2.20511
-1.65695
-2.39648
-0.243944
0.115713
1.46157
1.23282
-0.0062102
0.825546
1.69007
1.04466
1.18564
1.26132
1.1074
-3.53286
-3.31769
-1.65402
-2.2016
1.1053
2.59631
0.213533
-1.47311
1.13817
0.155967
-0.631281
-1.01491
0.0358964
-0.128078
0.833997
0.676691
1.65888
-2.34421
1.14737
-5.20285
-4.85597
-1.08423
-1.04379
-0.130508
0.466089
0.281075
0.0180805
3.84565
-0.246284
0.722467
-0.234223
0.387441
-0.173649
-0.0404844
-2.0408
-0.306935
0.419198
-0.0300155
-0.0907791
-0.167743
-6.69144
-1.27005
-2.03781
-0.815982
2.81714
2.61817
1.59127
-0.307784
-0.700576
0.716882
0.262552
-2.42611
-1.99315
-2.00272
-1.50993
-0.461769
1.64979
-1.14243
1.26788
-3.73675
-2.40302
-0.692145
-1.61961
-0.366302
2.11956
2.13791
1.92547
1.61592
-1.82133
-1.65103
-0.752965
0.380549
-1.12578
0.282817
0.589244
0.307172
-1.13075
1.32694
-1.04396
-3.83871
-2.28211
-1.78837
1.33474
-1.37579
1.38969
0.256126
0.31071
-0.184234
-1.70334
-0.405025
0.88812
-1.23002
-0.563898
-0.730929
1.75861
-0.20567
-0.805808
-0.0248989
0.563952
-1.43297
-0.377855
-0.380111
-0.427244
1.00759
-0.61763
1.45356
-1.69285
-0.967054
2.47367
0.612502
0.737343
1.66589
-2.13013
-0.365658
2.95538
-0.81191
2.78479
-0.049829
1.14912
-0.125652
-0.666427
0.885477
0.745134
1.08985
-0.792513
-1.60327
-0.365691
2.49482
2.38558
-2.05969
0.347525
-1.20011
-2.2277
-0.324804
-1.08055
-2.4353
-0.485358
-0.44935
1.32327
-1.95804
-1.19038
-1.19014
0.225572
-1.32306
-0.206791
-1.68328
1.07839
-0.943304
0.420878
0.656233
0.279147
-0.0651437
0.795873
1.68597
0.497181
-1.81472
1.51156
-1.00565
0.98601
-1.42699
1.19252
-3.71111
-2.12876
-0.483948
0.839839
-1.793
1.79594
1.50447
-0.885865
-1.36741
-3.23435
-2.29719
-1.25979
1.04508
-1.7857
0.482503
-0.781894
-1.39519
-2.42197
-4.15134
-4.19803
-2.88873
-1.1634
3.06873
1.56022
-3.47085
1.47999
0.0150388
-0.324746
0.334606
-1.9615
-2.56881
-1.66124
-0.041829
-0.793257
-2.184
-1.60282
2.08362
-2.34869
-1.55952
-4.14491
-2.40084
-0.343261
0.649158
-2.90774
0.966421
0.358919
-0.768089
2.49514
-1.43877
-0.857524
-1.73088
-1.56682
-2.52039
0.804375
-2.03302
-2.51829
-2.54033
-2.72554
-1.38391
-1.10286
-1.22299
-1.52677
-0.0192423
1.03455
-0.348093
-0.461001
0.371904
-0.937379
-1.93585
-0.148159
0.175972
-1.88326
-1.17536
-2.11944
0.784694
-2.33954
-0.47259
0.193555
-1.53952
-0.0719796
-1.05146
-1.19431
0.543825
1.7919
0.849664
-1.2922
0.0338992
0.493936
0.55348
-2.04339
-0.537868
-0.347256
1.58739
-0.419404
-2.76677
0.945145
-0.00388789
-0.0851763
-1.52708
-2.08557
-1.65803
0.211435
0.744925
-0.462701
-0.522435
-0.828565
0.22864
-0.310993
-1.35424
0.133626
0.715163
0.602061
-0.000885713
-1.06869
-0.823813
-1.57025
0.282517
-0.0635111
-2.47689
-0.300194
-0.487214
0.375894
-3.71959
-0.55719
1.04812
2.07409
3.52836
-0.422316
-0.640278
-1.7338
-0.919015
-0.36417
1.43414
1.2762
-0.346939
0.0362306
1.55989
-1.17203
0.644061
3.47224
-0.389416
2.52938
-2.73686
-0.603282
-1.49617
-0.467726
-0.129524
1.814
0.527377
1.62046
0.195724
-1.16836
-1.78434
-1.85803
1.17822
-0.224547
-1.74473
1.31168
3.48022
1.38215
-1.49286
-1.78454
-0.853694
-1.27999
0.00847668
1.20911
-3.47519
-1.00293
-1.93159
-3.42143
-0.236401
-0.201838
-3.03264
-1.79471
-2.48198
-0.372182
-0.535597
-2.33404
-3.60177
-4.33972
-2.02668
-0.588566
2.13049
0.466874
-0.122524
-0.0849223
-1.04928
0.134046
-2.14559
-0.270836
-0.312814
-4.34647
-0.428025
-1.41411
0.299954
-1.02911
-0.202022
-1.12009
-0.166364
-6.35584
-1.23995
-1.84979
1.68451
-0.189494
0.0805591
2.81376
1.34611
0.134029
-0.406574
0.560624
-2.2131
-2.29386
-2.3466
-3.04061
-3.41442
1.92132
-0.274067
-1.43679
-4.11884
-4.64086
-3.10269
-3.0579
1.69105
-1.70786
-1.05729
0.486857
1.13274
1.53896
-1.95285
0.488515
-1.92948
-2.19511
-3.53738
-0.270358
0.658216
0.0034137
-0.975766
-2.49718
-0.304713
-3.4899
-1.32219
-0.455976
1.47687
0.232699
1.42348
-0.121186
-0.791817
-1.60461
-0.443579
0.255225
-1.09157
0.156891
-2.22073
-1.49644
-0.648461
-2.1721
-0.811163
-2.54264
-2.55402
-4.79363
-0.854342
-2.207
0.306991
2.0098
-0.0233899
0.528782
-0.0783456
0.666259
1.95834
0.499313
-3.34284
-1.43283
1.31986
0.67217
0.210339
0.270423
-0.690248
1.61134
-2.23591
-2.82713
-1.22868
-0.447346
-0.469496
0.157697
-0.763628
-0.706863
-1.22934
0.184091
-1.02836
-0.819982
-0.743674
-1.57305
-0.301687
-1.04109
1.33685
0.854738
0.761417
1.20784
0.941232
-1.24288
0.869875
0.415005
0.177785
1.51586
1.37987
0.293854
-0.100889
1.78621
1.43928
-2.41457
2.23175
-0.157602
0.434741
-1.34224
-0.126722
0.339473
-1.20563
2.54005
0.761976
-0.796766
-2.6939
-1.40523
-1.63337
-0.00765246
-0.433745
-0.692714
-1.24464
-0.639299
-1.84415
-1.13335
-0.0401779
-3.19581
-3.69773
-3.2416
-2.15369
-0.967954
-0.552972
-2.73511
-2.44333
-6.12994
-3.05904
-1.65845
-0.817999
-0.0799184
0.649503
-1.21491
3.88247
0.825585
0.816238
-1.0277
-3.65904
-3.88906
-2.19356
-1.02728
-2.23882
-2.0597
-1.64007
-2.11748
-3.28812
-4.18292
-3.06408
-2.72068
-2.88498
-0.259839
0.906061
1.28565
-2.31398
1.47725
-2.66819
-1.33521
-1.21248
-3.32966
-2.62497
-1.31216
-2.87221
-2.63706
-0.296262
-2.92174
-3.78669
-5.56859
-2.89845
-2.36737
0.704303
-1.70931
-1.15706
-0.00778706
-0.757128
-1.51696
-3.0079
1.17511
-0.414895
-2.32339
-1.06409
0.972298
-3.09596
-0.47824
-0.479087
0.190131
-2.03721
-2.18365
-3.62242
1.00676
-0.209777
0.136374
0.274496
0.14381
0.357804
0.811483
-0.832072
-2.52272
-2.03732
-2.12818
-0.647467
-2.77274
0.213777
0.909297
-1.65661
-4.12592
-1.07996
-1.75587
-0.32119
-0.407302
-0.502058
1.57934
0.963412
-0.408637
-0.754448
0.762681
1.46621
0.17568
2.05354
-1.60837
0.242495
-1.83372
-0.0352238
-1.00727
-0.69144
-1.63478
0.252929
-0.730546
1.28835
-0.031649
0.476284
-0.974351
-1.66693
0.351903
1.39163
-1.15168
-2.54809
-3.55209
-1.51715
-2.43619
-0.325801
0.391668
-1.7606
-0.0321631
1.33193
1.71736
0.136515
0.968922
0.970771
-0.748573
-0.144411
-3.48537
-1.66266
1.34366
0.749403
0.929214
-1.0874
-1.33478
-1.4983
2.31654
-0.364884
0.390918
-0.878334
0.10234
-4.1289
0.00661691
1.63943
-1.76357
-4.81409
-2.32939
-1.32097
1.15351
0.764014
-0.84407
-1.20862
-2.41505
-1.43842
-4.1835
-3.22036
-1.85523
-3.33202
-3.03208
-3.00125
0.382413
-2.82213
-2.83016
-4.69578
-6.13616
-4.72878
0.852133
-0.0170429
-0.00881082
0.753224
0.0374078
-0.70944
-0.460098
-1.23101
-0.521986
-0.335906
-3.63467
-0.373629
1.57409
-0.757055
-1.92998
-0.323909
-5.15232
-0.652428
-5.1752
-1.50078
-3.55221
-1.80301
0.257304
0.26759
0.140507
0.822444
1.47166
0.692135
0.245556
-0.76506
-2.03842
-1.33599
-1.45249
-0.644088
0.0497935
-1.12685
-3.72951
-2.90652
-4.15889
-2.95902
0.147492
1.23795
2.32186
-1.36345
-1.3292
2.09335
-1.54761
1.66629
-1.12825
-3.29164
-1.96285
-0.641529
-1.80001
0.123899
-0.608157
-2.28829
-1.65975
-2.85436
-3.63409
-0.442406
-0.299824
-0.680153
-0.293185
1.13235
0.281381
-0.433734
-1.26741
-1.76616
-0.646107
-0.260753
-1.44745
-0.636092
-3.52131
-0.182935
-1.23751
-2.31056
-3.08462
-0.95804
-3.24404
-2.28657
-0.120489
-1.19435
-2.27351
1.19361
0.401387
-0.252594
-1.21436
0.104679
-1.87953
2.07084
-3.33141
-0.887163
-2.34236
-2.26272
-1.74584
-2.27378
0.0680231
-1.908
-1.93636
-1.97043
0.367844
-0.705807
0.56242
2.53424
2.40649
-0.489033
-0.980538
-0.0895161
1.04435
-0.0566386
-2.19703
1.18504
0.886879
1.02007
0.0994644
0.826612
0.396964
1.22619
-1.42756
-0.892199
-1.51234
-1.2614
0.941225
-0.195887
-1.14399
-0.88822
-1.12821
1.16046
-0.511288
0.676872
-0.208766
0.339864
-1.05301
-1.13107
0.213932
-2.06906
1.17679
-2.47662
-1.40872
-5.4131
-3.15235
-0.508395
-0.336187
-0.53522
0.506585
-0.510958
-0.826467
-2.0515
-1.60173
-4.36529
-3.33052
-1.44702
-2.6073
-2.52274
-2.82345
-3.71075
-3.10878
-6.62412
-2.90956
-2.5397
-0.151333
-2.17107
-0.0994886
-2.76845
0.433595
0.784966
-0.728208
-2.93829
-0.170627
0.0441288
-3.6765
-0.819591
-2.81942
-0.134739
0.181003
0.159495
-3.37207
-0.41919
-3.6632
-0.766974
-2.48531
-0.517212
0.0506079
-0.940948
-1.71067
-2.95805
-1.63436
-3.96893
-1.2261
0.39295
-2.90422
0.311767
-1.08688
-0.760446
-0.531334
-2.50177
-2.04328
-2.36916
-1.78977
-2.71021
1.29166
0.200749
-0.467701
-0.0386425
-0.105516
-1.74433
-0.385081
-0.0966682
-1.64704
-3.56614
-1.31121
-2.41962
-1.93263
-1.82358
-2.12725
-2.14757
-0.151233
-5.30123
-4.37622
-4.46081
-0.932151
-2.93387
2.43524
1.53371
-0.443299
-2.12108
-2.13114
0.895163
-2.63176
-0.977052
-1.60439
-2.31911
-1.19133
0.304847
-1.84099
-0.774692
-2.94849
-0.718512
-2.90777
-1.76276
-1.1019
0.39063
1.50285
-0.117477
1.36434
-1.66304
-1.05015
-0.175148
-2.1081
-1.6408
0.480845
-1.42412
-3.52539
-1.63304
-0.53416
-0.28682
-0.053278
-0.429104
-0.922527
1.96751
-0.981677
2.85348
-2.3312
-0.0460284
0.804996
1.76956
1.75207
-1.48627
-0.0261527
-1.49185
0.123267
2.03297
-3.35834
-2.33885
0.241277
-0.0748721
0.349666
-0.469388
-0.21796
-0.678476
1.89507
1.23621
-0.927744
-1.12334
-1.03499
1.11578
-0.991497
-1.82589
1.20949
-2.72054
-1.16732
0.595164
0.692811
-1.00129
0.395733
0.803196
-1.54514
0.785714
-0.437503
-4.34464
-2.50661
-2.66078
-1.0121
-2.60007
0.525711
0.523693
-2.57504
-1.99468
-3.06114
-2.70408
-3.93822
-6.17475
-4.02022
-0.629547
-3.00447
-1.69251
-2.14038
-1.8406
-5.44794
-2.85146
-4.59458
-0.183649
-0.130065
1.55784
-0.730514
-0.807354
0.0438651
-3.7251
-0.480465
-4.77089
-1.25439
-2.25327
-1.48754
-0.801295
-2.94427
-3.7546
-1.11655
-2.04898
-3.14424
-2.10636
-1.89418
-1.11552
0.552498
-0.0159459
-0.614128
-3.49733
1.16827
-3.30331
-1.87132
-1.89583
-1.91637
-2.53516
-0.461976
-1.14471
-1.66959
-1.15152
-1.03069
-2.90103
-2.62033
-1.65041
-3.65017
0.372821
0.739199
0.678427
0.558411
0.361802
-3.6368
-1.89459
-4.76497
-1.56989
-1.67087
-1.85196
-0.110859
-0.349577
-0.793768
-4.16574
0.644001
-2.97755
-6.17758
0.201618
-0.184153
1.35186
0.00476008
-0.705772
0.260027
-0.365127
1.42301
-0.958361
0.422475
0.546107
-2.66243
-2.09514
-3.62619
-0.0687928
-1.68546
-2.28405
-1.76627
-3.21294
-2.57853
0.656755
-0.691558
-0.512685
1.19381
-1.09575
0.389187
1.67023
-1.08936
0.523896
-2.7891
-3.50326
0.623177
-0.642818
-2.15618
-1.79788
-1.39164
-0.423929
-0.787229
0.0842145
-0.20692
0.313914
-4.00649
-0.0806659
-2.97066
-0.615575
0.864152
-1.51129
-0.545606
0.110398
0.703691
-0.988475
-1.78432
0.123089
0.104763
-0.437915
0.386548
-1.73871
0.804892
-2.67065
-0.0498306
-1.32411
-2.4537
-0.168438
-0.387123
1.05687
-0.296405
-0.65977
-2.22852
-0.261976
0.0869005
-1.32898
-1.40664
-1.86594
0.413238
-0.487193
1.27672
-0.265946
-1.02294
-0.555786
-1.4325
-5.07991
-2.31467
0.971133
1.00349
0.779779
0.926325
-1.62127
-2.0146
-2.60675
-2.61965
-2.70725
-0.0544704
-2.10849
0.180418
-3.78581
-2.71927
-2.18698
-2.1834
-1.85318
-6.76329
-2.82263
0.100878
-1.56084
0.35105
-2.59491
-0.483656
-0.95382
0.177341
-1.53955
-0.390324
-0.0621493
-0.196593
0.19554
-0.446855
-1.01957
-2.02853
0.00787103
-3.71034
-0.727482
-2.57192
-0.752023
-0.271103
-1.28744
-0.566274
1.94259
-0.544654
-0.871332
-2.43063
-0.751788
-2.2841
-4.52187
-0.976776
-1.74709
-2.18149
0.3852
-2.00802
-0.850082
-1.55877
-0.638236
-4.34984
-1.41704
-1.91711
-2.90413
1.13476
0.378378
2.06856
-0.0305926
-2.99
0.315797
-3.89321
-2.80274
0.863677
0.494076
0.74902
-0.88418
-0.730394
0.350967
-2.17236
-3.09429
-4.24502
-0.149242
-1.37919
0.851392
-0.69594
1.16046
-1.25071
0.0550532
-1.75418
1.14824
-0.748807
-0.140519
0.527163
-0.0168031
-2.6292
1.48099
0.382857
0.957625
-0.46469
-0.632788
0.133706
-1.18401
0.0373362
-1.18768
0.114853
1.9959
1.63594
-1.00384
0.344116
0.253266
-1.69897
0.374797
0.463663
-1.68721
-1.50705
0.35074
-0.020672
-0.864678
1.51665
-2.18548
-0.552551
-0.616775
-1.21102
0.374389
1.53506
1.04412
-0.894098
-0.820767
-0.51025
1.15902
-0.973196
-0.461096
-1.11177
0.336655
0.714187
0.558444
0.345469
-0.194288
-1.29415
-2.13085
-1.09713
-0.580555
-0.595299
-0.353993
-0.454897
-1.51262
-0.0986299
-0.111447
-1.9732
0.616567
-0.412725
1.01782
0.069875
1.60582
1.66794
0.613292
0.773515
0.0436887
1.29042
-0.0425743
0.0141587
-2.38468
-2.79792
-1.79435
-0.0653222
1.29537
0.986163
0.125407
-2.67214
-0.0371875
-0.258088
-2.23453
-0.744587
-2.46035
-3.01571
1.36265
-0.873051
-0.293828
-4.65151
-3.28005
-4.10616
-1.95517
-0.790079
-0.023264
-0.361832
-2.06809
0.0713896
-0.938098
-0.428701
-2.64752
-1.0347
-1.49722
-4.25376
-1.73946
-2.46125
-0.200612
-1.86781
-1.57069
-0.827769
-3.46834
-4.54645
0.336873
-1.14913
-2.0568
0.125607
-0.114337
0.782742
1.00558
-2.16905
-1.90816
0.530522
-1.48636
-0.291236
1.0472
-0.328201
0.76557
0.99724
-0.776248
-1.73922
-0.0545558
-3.72737
-1.6139
0.625475
-0.799932
-0.411673
-0.486866
-0.107646
1.60819
2.41321
0.148322
-0.299835
-0.563884
-1.01052
0.0044109
-3.81904
0.85127
0.716504
-1.08985
-0.743026
-0.167031
-2.17573
-3.8226
-2.76421
-0.708122
-2.18011
0.668147
2.04594
-1.65471
0.171451
-0.0336744
-0.340396
-1.71925
2.05174
-1.89531
0.950194
-0.690031
0.0938579
-0.0799986
0.35045
-0.707224
-0.724649
-1.90871
-2.06801
-0.00465464
0.855958
0.508506
-0.487452
-2.2429
1.03908
-1.19782
0.662994
-0.105603
-1.24481
1.92712
-0.554565
-0.20134
-0.0549884
-1.30761
0.323532
-0.77863
2.26551
1.07714
-0.0489493
-1.3523
-0.480793
2.66523
0.374574
-1.67852
-0.0653555
0.822276
1.40669
-0.544412
1.19266
0.938428
-0.521344
-0.781354
-2.17439
1.36602
-0.826447
-1.30475
2.24005
-2.14235
2.09114
0.0224055
0.637425
-0.648207
1.15005
-0.0465217
-1.60852
-0.283387
0.285826
-0.868849
-0.720594
-0.352383
-0.283207
1.18262
-1.02245
0.314671
1.86518
-1.23605
0.543496
-2.01968
-3.55985
-0.541403
1.09598
1.30946
-0.91272
-1.5347
-0.395834
0.367643
-1.33108
-0.374891
1.8299
-3.14423
-0.511984
1.62849
0.917373
0.337624
-1.67225
-2.83053
-4.71295
-1.24204
-0.627129
-0.895464
-0.368911
-1.0865
0.463112
-0.61865
-0.454906
0.394761
-0.0766526
-0.396957
-1.16766
-0.146376
-2.5164
0.389851
1.33938
-0.673853
-2.68401
-0.618149
-4.03628
-0.346365
-2.91789
-1.33326
-0.812187
-0.0747473
0.0472306
-0.753463
1.98146
1.52436
-0.570113
0.188517
-0.82376
-1.13197
-2.53423
-1.50513
1.56676
0.0330968
-0.426297
-1.05688
-2.42059
-2.33422
-1.17172
0.990188
-0.667742
-2.14707
-0.563937
-3.15552
1.66775
-0.222187
-0.427546
0.935146
0.0641326
0.236321
-0.541125
0.724339
-0.205004
-0.527249
0.0765499
0.804331
-3.56995
-2.50947
-0.564893
1.09201
-0.156955
-0.71412
2.04496
-1.21918
1.81702
-2.89589
0.0918701
1.31039
0.611675
-0.784737
-1.90516
-1.81
1.6959
-0.762478
1.1415
-0.167433
-0.0679664
-1.87497
-0.461251
1.35597
-0.650081
0.467668
-1.17581
-1.11437
2.52034
-0.389275
-1.74963
-1.76281
-0.212624
0.993759
3.35629
-1.05349
1.7092
-1.15531
-0.185517
1.55389
0.326043
1.65436
-0.599971
0.238129
2.78976
-1.19459
0.468495
1.38521
-1.39967
-0.939763
-0.416827
0.289693
-2.13694
0.521409
-0.825568
-2.05475
-0.488803
1.42467
1.67777
-0.273271
0.147127
0.51055
1.11551
1.77369
2.28869
0.410405
-2.30887
-0.884047
-1.48074
-0.794376
0.83239
0.234193
-0.0315186
1.64112
0.638822
0.282189
-0.461438
-0.040309
-1.06483
1.12359
-0.227616
-1.446
0.525009
-2.30821
-2.42012
-0.290473
-0.159922
1.98057
-1.1905
1.51537
0.649724
-0.325889
1.21837
-1.02842
-0.0805481
0.806586
0.446023
-1.08323
0.181292
-2.6812
-4.28182
-3.5451
0.748321
-0.574579
-2.34072
2.9212
0.0399476
2.82487
0.535466
2.60305
1.76358
-0.64234
-0.664678
0.729839
0.0397206
-0.629402
-1.35554
1.78303
-0.274327
0.770375
-2.01812
-0.136149
4.36162
3.91465
1.71308
1.42148
1.77245
-0.147002
3.57765
2.39132
2.42223
-0.243211
-0.707427
-0.189402
-0.776395
-1.31388
1.5912
-0.741544
0.432043
0.0560165
-1.92229
0.94761
0.0182238
-2.40393
-0.765923
2.826
1.80292
2.59372
1.52603
-0.257876
-0.35834
-0.119543
-3.1943
-0.842846
1.34969
2.21769
-0.806358
-1.18685
-0.614825
0.0213973
-0.997171
-2.59841
-2.64397
-1.9187
0.201755
-0.763201
1.87822
2.69421
2.10453
1.76818
2.00562
0.426523
1.12992
0.118829
3.07481
-0.43033
-2.35379
2.31851
0.70263
-1.18545
-0.147441
-0.0200022
-0.0130606
1.72257
0.237488
1.93481
-0.576267
1.02743
-0.649771
-0.340109
1.47898
-1.15788
-0.453252
0.131245
1.11459
-0.11403
-0.662318
0.595016
-0.44631
2.15181
-1.25986
2.33138
-1.82504
-0.319935
-1.65784
1.08262
1.10372
0.850307
0.64534
0.650673
-0.280998
0.765889
0.0902861
-1.61936
1.11376
1.90204
-0.31952
0.878165
0.971013
-2.49409
-2.11243
0.30785
1.39827
-0.210995
0.418557
-2.27916
-1.18439
-1.38507
0.386011
0.748164
0.612952
-0.559646
-1.26763
-0.994896
0.248545
0.505431
0.878235
0.306711
1.04994
-0.442449
-0.985921
-1.15089
-0.773461
-0.926169
1.08219
0.794034
4.56178
2.06943
-0.354027
2.84639
1.72992
1.01457
0.756497
-0.717974
-1.80214
-0.421955
3.1875
1.92306
-1.26843
-0.0866276
-2.2002
0.882848
0.042239
2.21049
-0.525385
2.37434
0.130376
1.24175
-0.480102
1.58734
-0.572229
-0.369473
0.49977
0.401407
-0.414373
-0.23287
2.5454
0.516513
1.97454
0.697138
-0.117136
-1.33368
-1.14196
-0.350019
1.64349
2.95697
2.02487
4.24196
3.52224
2.64996
1.12491
3.83523
0.311869
0.412788
6.04533
1.08931
1.28832
-1.7289
0.790835
0.85239
-1.37821
-0.637
2.07395
0.648923
-0.241271
1.40215
3.22046
3.01567
-0.388187
1.73197
-0.0291781
3.16551
1.6365
-0.575066
-0.351149
0.913326
-1.686
1.42341
-0.329442
-0.322181
-1.75204
1.06562
-0.565146
1.32334
1.18034
1.91295
0.973313
-0.975003
-0.641121
0.548687
0.768596
1.76978
0.121866
0.701468
1.04758
-1.97382
0.136683
1.68326
0.182651
0.0557428
-1.01712
1.55069
-1.5345
-1.55083
1.64055
2.68921
0.135463
0.378178
1.20273
1.46698
-0.597051
0.521725
0.754991
0.762024
-1.50235
-0.00572613
0.159673
-0.00559967
0.564237
0.230795
-0.825282
1.03744
-0.0376241
-0.460918
-1.76022
0.291407
0.302975
1.36938
1.33452
0.841542
1.00793
0.831135
-2.2458
-3.57172
0.631777
0.88127
2.27085
0.426059
-0.317034
-0.283263
0.260177
-1.53717
-1.58836
-0.309788
-1.0173
-0.467518
-0.564277
-1.69481
1.63213
-0.610297
1.45296
1.79043
2.20565
0.473398
-1.14096
-2.17991
1.30567
1.52985
-1.15296
-0.887401
0.636738
-0.192432
0.464665
2.69267
2.67283
4.07595
2.81664
1.91106
2.55263
3.0927
4.45052
2.85005
2.13705
5.14702
2.36838
2.39219
2.78357
0.164362
1.86355
-1.49134
-1.06026
-0.728874
0.7176
2.11091
2.19224
2.38299
2.49938
3.26282
2.5218
2.76591
2.28914
2.08252
4.48246
3.08643
1.34256
0.724215
1.52293
1.99085
0.596573
2.5623
-1.09584
1.77615
3.32627
2.28243
3.9481
-0.0640574
0.850023
5.99569
4.0525
3.49008
2.85163
1.71755
2.37488
0.524939
2.61859
0.452512
1.6665
-0.494524
-0.671828
0.31535
-3.07575
0.32142
0.943848
2.41151
1.52441
1.16883
3.49157
4.55658
2.26081
4.05201
3.74782
3.50446
2.24002
1.311
1.06031
0.756758
1.01316
1.76827
1.59611
0.0928868
0.774777
-0.532765
0.553273
0.739607
2.09345
2.03471
1.38643
1.12
2.13478
0.046829
2.02923
2.36109
-0.214483
-0.427237
0.233458
2.07082
1.74008
1.50172
4.3403
-1.06568
0.657548
1.57899
-0.243417
1.72802
1.05593
1.2219
1.85318
1.94731
2.28843
2.2947
1.23446
-0.942767
-0.311818
0.0577398
0.00985289
-0.833767
1.17693
1.71138
-0.0194457
-1.93304
0.191984
1.50993
0.202471
0.0754988
2.29012
0.234724
-0.582612
-0.676048
2.55606
0.430967
0.230261
0.53266
1.55447
1.16682
-0.0474936
0.877213
1.58146
0.717162
0.528052
0.450892
2.33884
-0.431492
-0.379332
1.85613
-1.0909
-0.888939
1.3238
0.557163
0.405553
-0.21713
-0.0086407
2.60534
-0.545846
1.84675
1.47576
-1.62214
0.337119
0.434085
1.20716
-0.371199
-1.15
3.14232
0.577007
3.31512
7.64676
2.66095
4.46758
3.36367
3.71888
3.75584
2.88359
4.79965
3.9571
2.99978
2.06427
5.19828
4.10027
2.97449
0.517907
-1.06125
-1.39394
-1.0637
0.263473
3.86013
0.517118
3.84757
1.00214
3.03735
0.155262
3.4839
0.296583
-0.799398
2.22956
-0.0446739
3.61422
0.297446
2.1596
-0.118638
2.29298
0.336784
1.58218
0.554079
2.19831
3.21058
1.35556
2.48488
2.76656
4.57008
2.84073
6.41398
3.05679
1.15555
3.43966
2.63111
2.27598
3.48818
2.05864
0.351084
3.29135
1.02332
0.333182
1.30808
2.62239
3.08186
2.02675
2.19254
2.98317
2.28011
3.58252
5.34409
3.05004
2.3012
3.33503
0.561039
2.92396
4.09908
2.38653
2.45123
0.415375
2.94361
2.46379
-1.66736
1.11064
-0.573539
2.80048
2.4916
0.941671
3.20823
1.71696
3.30212
2.12519
1.47391
1.65378
2.1483
0.176161
2.66001
1.16721
-0.239579
5.0091
1.29923
-0.981316
0.906333
1.79256
-2.73965
0.58616
-1.55526
3.01787
1.69757
0.472707
2.56118
2.46773
1.8581
1.89354
1.45676
1.32589
0.466522
0.734804
1.46902
3.91901
2.15429
0.336757
0.910584
-0.549423
-0.782885
1.56165
0.445248
1.25672
1.03235
1.81898
-0.770154
4.12972
1.38694
0.125244
1.08317
-0.564894
1.58021
0.432171
-0.559273
1.17529
0.37082
-0.557002
-0.71073
0.52011
-1.30684
1.29352
0.115941
0.0835161
-0.865681
1.22519
1.36854
0.861556
0.831147
0.937549
0.627761
0.682998
-0.566087
0.0680903
1.32802
0.832409
0.715564
-0.552162
2.48736
0.6271
2.7587
2.32734
4.29399
4.2801
5.88545
2.63194
5.65672
6.13988
5.84653
4.54844
3.8051
2.34485
5.7415
9.14842
4.59915
3.30646
1.55829
-0.483693
0.518983
4.02836
2.86903
4.09552
5.1695
6.89836
4.93821
2.96902
5.68837
6.04721
3.17183
2.84062
4.39946
3.14654
4.05123
4.45717
4.7643
3.07138
-0.151178
1.94492
0.748034
1.99044
5.54113
3.62937
5.01832
2.40121
4.99293
4.4604
3.60463
3.10413
3.27924
1.65758
4.91383
5.23658
3.69332
3.61147
3.54248
2.34843
2.08952
3.72739
0.149733
0.0298708
1.35911
2.715
3.29223
2.38167
3.58269
2.2737
5.45597
3.53008
4.34364
2.04337
1.24035
2.63358
2.32564
1.96259
3.60673
3.23046
2.8268
0.43551
1.60014
2.37424
0.421654
0.131923
2.11691
5.18614
2.29799
2.91217
1.69896
4.86276
3.80538
3.11221
2.73502
2.68737
2.0177
3.69733
2.6387
0.62208
0.973035
0.498308
0.110232
1.33397
2.54635
3.13732
1.54104
0.942718
3.87923
0.785978
0.41239
3.47444
0.921566
2.15614
3.57408
3.31487
0.261696
1.23789
2.50276
-0.714996
-0.315908
1.89488
1.56635
-0.617937
0.747154
3.1292
1.91496
0.69364
0.0656066
0.446466
3.1854
3.77383
0.401719
3.47934
1.32171
0.35086
1.16566
1.25264
-0.194629
-1.39483
-1.54256
-0.194185
2.46423
0.553415
-0.21913
-1.95444
0.38613
0.0312791
2.37135
0.497326
-0.554746
0.690732
1.39657
0.560042
0.780094
0.447423
0.363537
1.86394
-0.484324
2.51331
-0.226519
2.09519
)
;

boundaryField
{
    hotSide
    {
        type            calculated;
        value           nonuniform List<scalar> 
400
(
-0.225789
1.57389
-1.86019
0.301493
-4.28214
-2.04627
-2.4245
-0.1881
-1.36787
-3.46349
-4.03451
-2.93447
-3.63444
-0.900086
-0.492019
0.128755
0.47507
1.48889
4.88323
4.2921
-0.785495
0.562162
0.486884
1.3283
-4.72687
-0.343698
-0.804951
-0.444415
-0.0457718
-0.94737
-1.74436
-1.06904
-0.843767
-1.28979
-2.01046
2.11977
0.87089
2.16287
2.33339
2.44601
3.16046
5.56067
3.6131
1.95326
2.0109
-0.849672
0.879488
0.523917
-0.238662
0.0940047
0.930268
-1.1948
2.46826
-0.26208
1.03014
-0.693164
0.736718
4.40779
5.08692
4.59167
2.77306
6.43556
2.8272