/*--------------------------------*- C++ -*----------------------------------*\
| =========                 |                                                 |
| \\      /  F ield         | OpenFOAM: The Open Source CFD Toolbox           |
|  \\    /   O peration     | Version:  2212                                  |
|   \\  /    A nd           | Website:  www.openfoam.com                      |
|    \\/     M anipulation  |                                                 |
\*---------------------------------------------------------------------------*/
FoamFile
{
    version     2.0;
    format      ascii;
    arch        "LSB;label=32;scalar=64";
    class       volScalarField;
    location    "0";
    object      relativeErrorField;
}
// * * * * * * * * * * * * * * * * * * * * * * * * * * * * * * * * * * * * * //

dimensions      [0 0 0 1 0 0 0];

internalField   nonuniform List<scalar> 
3200
(
0.00418748
0.00590516
0.00523423
0.00397487
0.00777745
0.00754833
0.00903179
0.00970245
0.0109216
0.00275009
0.00440243
0.00856796
0.00125312
0.00844502
0.00977024
0.000200812
0.00317086
0.00180011
0.0101375
0.0133026
0.00637839
0.00311572
0.0070703
0.00285033
0.0100266
0.0135352
0.0112655
0.0027632
0.0136875
0.0127772
0.00737654
0.00938961
0.00996925
0.000736703
0.00710845
0.00493616
0.00453454
0.00404982
0.000983415
0.0183628
0.00520902
0.0016924
0.00420232
0.00629868
0.0114927
0.0121186
0.0122666
0.0041327
0.00702847
0.00736757
0.00817228
0.00417571
0.0178016
0.0127377
0.0131258
0.000130097
0.00801817
0.00399509
0.00222941
0.000476981
0.000622409
0.000886252
0.0023828
0.00128685
0.00711818
0.0122957
0.0082475
0.00664169
0.000730364
0.00645655
0.0116513
0.00765285
0.000555294
0.0100406
0.00626645
0.00219291
0.00445911
0.00726418
0.00238015
0.009344
0.00435774
0.00143414
0.00101712
0.00436965
0.00401099
0.00723783
0.00362278
0.00340377
0.00419518
0.00215868
0.0017172
0.00867921
0.00282403
0.00646457
0.00513212
0.00827861
0.00438794
0.00219472
0.00055557
0.00750099
0.00127025
0.00220662
0.00490844
0.00392707
0.00129865
0.0038697
0.0143413
0.001294
0.00295902
0.00215893
0.00291143
0.00204964
0.00248611
0.000537619
0.00664705
0.00479838
0.00352859
0.00508149
0.00349425
0.00342387
0.000360305
0.00120536
0.00269599
0.00374965
0.00425143
0.00626517
0.000738282
0.00265045
0.000853829
0.00674675
0.000147146
0.00297677
0.00294446
0.00874882
0.00473924
0.00018503
4.08372e-05
0.00976178
0.00644304
0.00482315
0.00632601
0.00792322
0.000658873
0.00526203
0.00713143
0.00362698
0.00423497
0.00975095
0.00283085
0.00522157
0.00158178
0.00346901
0.00272502
0.00116847
0.00232074
0.00140668
0.00468101
0.000385751
0.00673038
0.00501769
0.000963959
0.00205479
0.0120733
0.0143875
0.00552274
0.00146532
0.0112504
0.0147271
0.00612125
0.011438
0.00323568
0.00858866
0.00607967
0.00359224
0.00771183
0.0102683
0.00332514
0.00217001
0.00897111
0.0112191
0.00351376
0.000644417
0.00157851
0.000390347
0.00937843
0.00207952
0.0105215
0.00196662
0.00211094
0.00172068
4.16024e-05
0.00286368
0.000690423
0.00740351
0.00248598
0.00917665
0.000310509
0.000862193
0.00090912
0.00916165
0.00218055
0.00313076
0.0138178
0.00394119
0.00704909
0.00682396
0.00285154
0.000746826
0.0065032
0.00979894
0.00114984
0.00252054
0.0021274
0.00742822
0.0079149
0.00251762
0.00292227
0.00202272
0.00714044
0.0014223
0.000487487
0.00521089
0.00457213
0.000339353
0.00521072
0.0144391
0.000509579
0.0030268
0.00819875
0.00529183
0.00447178
0.00691062
0.0062997
0.0131059
0.000707284
0.0036114
0.00356654
0.00207228
0.0075115
0.00321731
0.00479051
0.0032497
0.00232874
0.00468798
0.0106271
0.00866455
0.0162367
0.00587245
0.00307143
0.00122079
0.000559058
0.00476199
0.00133329
0.00409406
0.00759302
0.00588692
0.00440213
0.0019886
0.00529521
0.00116984
0.00418214
0.00335665
0.00553396
0.00867148
0.00623709
0.000790718
0.00389204
0.00473485
0.00379321
0.00154023
0.00655274
0.00184083
0.00210065
0.00508529
0.00881863
0.00416916
0.00285553
0.00903613
0.00338114
0.00635427
0.0044222
0.00437019
0.000292481
0.000667242
0.00342414
0.000216793
0.00128813
0.00196476
0.00216337
0.00693648
0.00570356
0.00296233
0.00425973
0.00345951
0.00248395
0.00239748
0.000356437
0.00181325
0.00145901
0.00864567
0.00115203
0.00213704
0.00134199
0.000651623
0.012323
0.00134104
0.00151421
0.00852705
0.00119732
0.00218804
0.0069873
4.73037e-05
0.00138975
0.00644834
0.00221032
0.00100305
0.00149649
0.000864035
0.00110635
0.00127386
0.00888034
0.00227958
0.00650385
0.0041144
0.00784239
0.0135721
0.00634878
0.00577587
0.00783355
0.000590942
0.012938
0.0111136
0.00353471
0.00744808
0.00879419
0.00836629
0.00255123
0.00260167
0.00159696
0.0161851
0.00670447
0.00130334
0.00875407
0.0105414
0.00695998
0.00733754
0.016394
0.00478936
0.0081547
0.00405189
0.0127908
0.00505269
0.00234106
0.00588493
0.000457197
0.00287638
0.00421411
0.00135336
0.00213559
0.0139568
9.97365e-05
0.00069436
0.00264945
0.00871628
0.00505927
0.00899023
0.00539405
0.00939417
0.00263937
0.000551617
0.00308491
0.0112698
0.00092336
0.00944312
0.0039087
0.00451754
0.00375169
0.00104537
0.00827053
0.00289516
0.00504468
0.00340681
0.00772133
0.00779505
0.00652842
0.00148475
0.0081519
0.0107769
0.00347797
0.000325888
0.0046784
0.0117563
0.000270785
0.00219525
0.00499428
0.000619559
6.10611e-05
0.00608733
0.00223743
0.00714698
0.00105296
0.00554069
0.00585147
0.00740706
0.000407683
0.00956079
0.00888089
0.0108723
0.00360067
0.00109706
0.00719798
0.00499576
0.00702667
0.00100727
0.00148161
0.00410335
0.00431354
0.00635643
0.00932293
0.00322686
0.00624517
0.00458019
0.00407692
0.00763736
0.000797941
0.00055633
0.00429495
0.00696776
0.00442561
0.000985968
0.00032983
1.90888e-05
0.00324391
0.000874836
0.00535447
0.000835533
0.00680506
0.00262198
0.00395602
0.00602308
0.00194156
0.000796454
0.00332835
0.000660615
0.000765785
0.00657842
0.00637239
0.00467723
0.00823296
0.00253488
0.0041251
0.00166547
0.00249292
0.000474363
0.00670739
6.11407e-05
0.00136222
0.00428318
0.00145808
0.00348283
0.000276001
0.0045591
0.00179719
0.0042968
0.00174711
0.00497139
0.00470376
0.00061979
0.00459378
0.00548892
0.00785182
0.0102643
0.00774879
0.001649
0.00137977
0.00705308
0.00589986
0.00505684
0.000382416
0.000666095
0.0027094
0.000106437
0.00175722
0.00604293
0.00244457
0.0084617
0.0154378
0.003574
0.00594376
0.00114627
0.0016118
0.00590302
0.0102311
0.00250543
0.00581963
0.00530938
0.00361841
0.00266407
0.0108498
0.0137667
0.00597
0.0003588
0.00161782
0.00109929
0.00776553
6.30135e-05
0.00716059
0.000816438
0.0119468
0.000399626
0.00154496
0.00232269
3.23317e-05
0.00145644
0.000575184
0.0043989
4.02967e-05
0.0045209
0.000857218
0.00939771
0.00498958
0.000361749
0.00360229
0.0027699
0.00549442
0.00895048
0.0106996
0.00429438
0.000919891
0.00464914
0.000488143
0.00901428
0.00550719
0.00607792
0.00166643
0.00139243
0.00156052
0.00281218
0.00780027
0.0104405
0.00170687
0.000220037
0.00871404
0.00572878
0.00845653
0.00223617
0.00957275
0.00727261
0.00908551
0.00200454
0.0031841
0.002799
0.000326748
0.00653066
0.00623949
0.00363992
0.00216238
0.00664622
0.00429706
0.00439164
0.00601973
0.00441499
0.00424093
0.00808299
0.00183595
0.00546999
0.00468388
0.0117467
0.000465094
0.0050923
0.00102086
0.000777816
0.0013328
0.00148166
0.00341196
0.00188412
0.002273
0.000730715
0.000466537
0.00885557
0.00651089
0.00474817
0.00736988
0.00467894
0.00232398
0.00486682
0.00165442
0.00466581
0.00424886
0.00462347
0.00308679
0.00393593
0.00315371
0.000590927
0.00355437
0.00155949
0.00319374
0.000895611
0.00483255
0.00271538
0.00255709
0.000297251
0.000699019
0.000286773
0.00523873
0.0052499
0.00138723
0.00697109
0.000959946
0.00571675
0.00422191
0.00142844
0.00674193
0.00385169
0.00347314
0.00483488
0.00331303
0.00716994
0.0035068
0.00266085
0.00756202
0.00498132
0.00575465
0.00612515
0.00589347
0.00736405
0.00172948
0.00480279
0.000120192
0.00317629
0.00609569
0.00544498
0.00460369
0.000179836
0.0093426
0.00706568
0.00564213
0.00215036
0.00485445
0.00162685
0.0158104
0.0171629
0.00189825
0.000261323
0.00575539
0.00582874
0.0035321
0.00759325
0.00165099
0.00143274
0.000658233
0.00289105
0.00180243
0.00567856
0.00236013
0.00337324
0.00133833
0.00345721
0.00368722
0.0132206
0.00499056
0.0102872
0.0025201
0.00846778
0.00372261
0.00447432
0.00425276
0.00455724
0.000312205
0.00923474
0.00860866
0.00366078
0.00398038
0.00264366
0.00199031
0.00194464
0.00460263
0.00863535
0.000745197
0.0102218
0.00673777
0.00361914
0.00122935
0.00367214
0.0132257
0.00357982
0.00792927
0.00536976
0.000383528
0.00594322
0.0029607
0.00498207
0.00122587
0.00430041
0.00151163
0.00500056
0.000335992
0.00648558
0.00609496
0.00653401
0.00426771
0.00109294
0.00282979
0.00874821
0.00280148
0.000712131
0.000850184
0.000416526
0.0014511
0.00164996
0.0062683
0.00148726
0.0028019
0.00104229
0.00423209
0.000385454
0.0066075
0.000318884
0.00126535
0.00960308
0.00419561
0.00166898
0.00270338
0.00142906
0.0058324
0.0017332
2.92089e-05
0.000594235
0.00290409
0.00351392
0.000262315
0.000945075
0.00455307
0.00194577
0.00106838
0.00822249
0.00537711
6.2971e-05
0.00028374
0.00773399
0.00248735
0.00120069
0.00330737
0.00102269
0.00870153
0.00246721
0.0024287
0.00871585
0.00858794
0.0045461
0.000996209
0.00106498
0.00980412
0.00169202
0.00391773
0.00174487
0.00637822
0.00696886
0.00018647
0.00107283
0.0100031
6.29527e-05
0.00395295
0.00388358
0.00171089
0.00161652
0.00368185
0.00564108
0.00119865
0.00735077
0.000319984
0.000329222
0.00449596
0.000305618
0.000895281
0.00183554
0.00186772
0.00384705
0.000223751
0.00846773
0.00157586
0.000704158
0.00718454
0.00699336
0.00291204
0.00726157
0.00545547
0.00788918
0.000802974
0.000380864
0.0048107
0.00405798
2.04439e-05
0.0027181
0.00556554
0.00344082
0.00390593
0.00415608
0.00364956
0.0116444
0.00944435
0.0047001
0.00624214
0.00312629
0.00732561
0.00060107
0.00413769
0.00319116
0.000436728
0.00176646
0.00283993
0.000100514
0.000359101
0.00234254
0.0019048
0.0046806
0.00663049
0.00325311
0.0147846
0.0138233
0.00314759
0.00302555
0.00037755
0.00134549
0.000809647
5.19727e-05
0.0110334
0.000705476
0.00206713
0.000669756
0.00110788
0.000496846
0.000115967
0.00585516
0.000882289
0.00120751
8.66478e-05
0.000262616
0.000486223
0.0194256
0.00376159
0.00602772
0.00240953
0.00830355
0.00770273
0.0046731
0.000902388
0.00205119
0.00209686
0.000767557
0.00709261
0.00582991
0.0058637
0.00442695
0.00135608
0.00485371
0.00336733
0.00374395
0.0110531
0.00711718
0.00209231
0.00489078
0.00110457
0.00638167
0.0064269
0.00577956
0.00484375
0.00545318
0.00493923
0.0022516
0.00113796
0.00336788
0.000846774
0.00176627
0.000922017
0.00339921
0.00399522
0.00314804
0.0115918
0.00689867
0.00552021
0.00411653
0.0042384
0.00427604
0.000787115
0.000953714
0.000564882
0.00521787
0.00123991
0.00271788
0.00376417
0.00172627
0.00223907
0.0053921
0.000631298
0.00247637
7.66129e-05
0.00173737
0.00441948
0.00116633
0.0011986
0.00134641
0.00317273
0.00194308
0.00456878
0.00531625
0.00303453
0.00775702
0.00191978
0.00231049
0.00522011
0.0066765
0.00114664
0.00927372
0.00254974
0.00875309
0.000156763
0.00361836
0.000395977
0.00210143
0.00285371
0.00240052
0.0035093
0.0025505
0.00515684
0.00117559
0.0080162
0.00766209
0.00661343
0.00111569
0.00385281
0.00715289
0.00104321
0.00347197
0.00782882
0.00156113
0.00144611
0.00426091
0.00630802
0.00383636
0.00392203
0.000743264
0.00435875
0.000681139
0.00554341
0.00355072
0.00310541
0.00138536
0.00215983
0.000918698
0.000214394
0.00261943
0.00554955
0.00163674
0.00597517
0.00497792
0.00331247
0.00324837
0.00470198
0.00392987
0.0105349
0.00603279
0.00136857
0.0023696
0.00504728
0.00504431
0.00421714
0.00247898
0.00382191
0.00903426
0.00641658
0.00352112
0.00292451
0.00500546
0.00135522
0.00220102
0.0039365
0.00684916
0.0117647
0.0119171
0.00836555
0.0033642
0.00885722
0.0044942
0.00997734
0.00424606
4.3069e-05
0.000928648
0.000955824
0.00560002
0.00733388
0.00474543
0.000119615
0.00227178
0.00626583
0.00460749
0.00600184
0.006779
0.00450966
0.0120033
0.00709568
0.00101325
0.00191313
0.0085545
0.00283818
0.00105228
0.00224843
0.00729469
0.00420245
0.0025035
0.00505323
0.00457646
0.0073685
0.00235465
0.00596045
0.00739572
0.00747358
0.00803241
0.00408507
0.0032595
0.00369049
0.00460249
5.79287e-05
0.00311
0.00104487
0.00138183
0.00111333
0.00280313
0.00578447
0.000442533
0.000525607
0.00562733
0.00351477
0.00634474
0.00235208
0.00702261
0.00142067
0.000582694
0.00464094
0.000217205
0.00324101
0.0036784
0.00167316
0.00550671
0.00260807
0.00396197
0.000103831
0.0015116
0.00169279
0.00624758
0.00164451
0.00106206
0.00485794
0.00128461
0.0084831
0.00290115
1.19479e-05
0.000262058
0.00470331
0.00642853
0.00522289
0.000665647
0.00234338
0.00145434
0.00164069
0.00259993
0.000716908
0.000974522
0.00424173
0.000418442
0.00223949
0.00188576
2.77545e-06
0.00335091
0.00258502
0.00493131
0.000887994
0.000199793
0.00779784
0.000945628
0.0015692
0.00121024
0.01197
0.00179217
0.00336944
0.00666431
0.0113318
0.00135581
0.00205499
0.00556385
0.00294917
0.00116881
0.00460416
0.00409868
0.00111476
0.000116472
0.00501729
0.00377172
0.00207364
0.0111832
0.00128302
0.00833264
0.00901466
0.00198673
0.00492632
0.00153978
0.000426334
0.00597006
0.00173548
0.00533231
0.000644054
0.00384484
0.00587243
0.00611576
0.00387876
0.000739348
0.00574578
0.00432041
0.011465
0.00455381
0.00422402
0.00504123
0.00240681
0.00360095
2.37957e-05
0.00338718
0.00971718
0.00279999
0.00538665
0.00953583
0.000658872
0.00056287
0.00846658
0.00501829
0.00695298
0.00104479
0.00150677
0.00658032
0.0101748
0.0122791
0.00585219
0.00169718
0.00613259
0.00134135
0.000351346
0.000243075
0.00299841
0.000382523
0.00611679
0.000771719
0.000891332
0.0123912
0.00122145
0.00404094
0.000858566
0.00295105
0.000580418
0.00322416
0.000479726
0.018353
0.00365553
0.00544707
0.00495282
0.000556243
0.000236085
0.00823291
0.00393302
0.000391136
0.0011855
0.00163395
0.00645014
0.00668848
0.00684808
0.00888394
0.00999039
0.00563059
0.000804501
0.00422447
0.0121287
0.0136819
0.00934323
0.00919949
0.00508098
0.00512447
0.00316805
0.00145688
0.00338558
0.00459516
0.00582686
0.00145707
0.00575498
0.0065497
0.0105622
0.000808058
0.00196966
1.02288e-05
0.00292781
0.00750309
0.000916708
0.0105092
0.00406878
0.00140212
0.00453678
0.000714053
0.00436324
0.000371069
0.00242222
0.00490473
0.0013551
0.000779464
0.00333368
0.00047929
0.006788
0.00457772
0.00198558
0.00665793
0.00248911
0.00781072
0.00785358
0.0147515
0.00268798
0.00694
0.000964638
0.00631027
7.33793e-05
0.00165763
0.000245428
0.00208594
0.00612869
0.00156228
0.0104593
0.0044841
0.00413226
0.00210566
0.000659373
0.000848379
0.0021672
0.00506321
0.00703089
0.00889489
0.00395438
0.00143925
0.00150983
0.000506884
0.00245331
0.00226987
0.00394595
0.000590687
0.00329884
0.00263004
0.00238528
0.00504613
0.000968017
0.0033417
0.00429287
0.00274602
0.00244742
0.00388424
0.00302823
0.00400008
0.00286528
0.00136682
0.00058545
0.00499091
0.0045424
0.000967183
0.000332013
0.00587749
0.00473553
0.00794407
0.00734257
0.000518541
0.00143051
0.00441714
0.000417088
0.00111751
0.00396949
0.00836442
0.00250958
0.00262446
0.00759377
0.00395521
0.00458868
2.14554e-05
0.00121367
0.00193459
0.00347002
0.00177982
0.00512892
0.00315037
0.000111682
0.00888812
0.0102945
0.00903748
0.00601477
0.00270845
0.00155038
0.00768384
0.00687707
0.0172795
0.00880398
0.00476683
0.00234726
0.000228922
0.00185717
0.003468
0.0110658
0.00235011
0.00232142
0.00292146
0.0104016
0.0110606
0.00624418
0.00292794
0.00639079
0.00588945
0.0046979
0.00607613
0.00945094
0.0120385
0.00900754
0.00798921
0.0084596
0.000760763
0.00264872
0.00375288
0.00674573
0.00430181
0.00776384
0.00388358
0.0035266
0.00968857
0.00764401
0.00382523
0.00838416
0.007709
0.000867402
0.0085674
0.0111195
0.0163701
0.00870737
0.00710548
0.0021114
0.00511773
0.00345982
2.32563e-05
0.00225869
0.00452134
0.00895928
0.00349899
0.00123538
0.00692043
0.00317154
0.0029006
0.00924617
0.00143003
0.0014344
0.000569986
0.00611454
0.00656
0.0111261
0.00309003
0.000643258
0.000417753
0.00084
0.000439653
0.00109291
0.00247687
0.0025384
0.00769395
0.00621355
0.00649244
0.00197625
0.00846932
0.000653554
0.00278259
0.00507465
0.0126517
0.00331471
0.00539309
0.00100914
0.00127904
0.00157552
0.00495247
0.00301881
0.00127953
0.00236082
0.00238532
0.00458388
0.000549129
0.00641885
0.00502835
0.000758415
0.0057381
0.000110293
0.00315623
0.00216821
0.00513014
0.000794269
0.0022953
0.00414288
0.00010174
0.00153043
0.00312943
0.0053514
0.00112923
0.00446389
0.00369298
0.00816881
0.0113861
0.00486318
0.00781007
0.00104472
0.00125634
0.00564964
0.000103254
0.00427791
0.00551835
0.000438846
0.00311571
0.00319668
0.00246474
0.000475416
0.0114724
0.00547192
0.0044214
0.00246563
0.00305689
0.003577
0.00439057
0.00492843
0.00762021
0.00120038
0.00128617
0.00289022
0.000336808
0.0135906
2.17835e-05
0.00539795
0.00580732
0.0135128
0.00652925
0.00369619
0.00322164
0.00212987
0.00234892
0.00335812
0.00670146
0.00398777
0.0115924
0.00892354
0.00514329
0.00924596
0.00842454
0.00835203
0.00106607
0.00788192
0.00791901
0.0131622
0.0172238
0.0135586
0.0024403
4.87314e-05
2.51518e-05
0.00214668
0.000106446
0.00201594
0.00130591
0.00349116
0.00147973
0.000952227
0.0103079
0.00106048
0.00447292
0.00215424
0.00550041
0.000924646
0.0147322
0.00186839
0.0148386
0.00439763
0.010398
0.00527073
0.000751112
0.000780031
0.000409032
0.00239134
0.00427478
0.00200904
0.000712506
0.00221989
0.00591684
0.00388068
0.00422326
0.00187501
0.000145149
0.00328946
0.0109025
0.00850796
0.0121865
0.00886531
0.000441516
0.00370166
0.00693454
0.00406731
0.00396066
0.00623131
0.00460298
0.00495303
0.00335266
0.00978131
0.00583455
0.00190807
0.00535812
0.000369184
0.00181419
0.00683426
0.00496291
0.00854447
0.0108878
0.00135592
0.00091831
0.00208136
0.00089634
0.00345862
0.00085867
0.00132253
0.003862
0.00537921
0.00196738
0.000793985
0.00440853
0.00193827
0.0107371
0.000558248
0.00377982
0.00706397
0.00943934
0.00293432
0.0099426
0.00717289
0.000377788
0.00374244
0.00711898
0.00373494
0.00125516
0.000789411
0.00379331
0.000326873
0.00586801
0.00646529
0.0104028
0.00277123
0.00732038
0.00707568
0.00546293
0.00711983
0.000213146
0.00598244
0.00607429
0.00633009
0.00118137
0.00226587
0.00180478
0.0081288
0.00771594
0.00156742
0.00314182
0.000286764
0.0033452
0.000181421
0.00703817
0.00379709
0.00284257
0.00327066
0.000319041
0.00265256
0.00127438
0.00393803
0.0045861
0.00293698
0.00497788
0.00415134
0.00309717
0.000644488
0.00376331
0.00292156
0.00371057
0.00381636
0.00168139
0.00222592
0.000686558
0.00111778
0.00346361
0.00372081
0.000703857
0.00680839
0.00387289
0.00815183
0.00463729
0.0151225
0.00879513
0.00141613
0.000934849
0.00148579
0.00140404
0.00141414
0.00228467
0.00566639
0.00442218
0.0120521
0.00919915
0.00400013
0.00721603
0.00699198
0.00783797
0.0103186
0.00865948
0.0184815
0.00812839
0.00725153
0.000431606
0.00618311
0.00028291
0.00786067
0.00122939
0.00222283
0.00205997
0.00830577
0.000482133
0.000124692
0.0103925
0.00231848
0.0079839
0.000382032
0.000513936
0.000453548
0.00960347
0.00119554
0.0104594
0.0022393
0.00724923
0.00150676
0.00014724
0.00273406
0.00496451
0.00857506
0.00473357
0.0114878
0.00354769
0.00113699
0.0084061
0.000902966
0.00315074
0.00220687
0.00154387
0.0072787
0.00595256
0.00691046
0.0052255
0.00809536
0.00385513
0.000598542
0.00139295
0.000114963
0.00031359
0.00517936
0.00114254
0.000286662
0.00488282
0.0105722
0.00388829
0.00717905
0.00573846
0.00541966
0.00632867
0.00639606
0.00045091
0.0158222
0.0130717
0.013639
0.0028483
0.00895744
0.00742859
0.00467445
0.00134998
0.00645461
0.00648133
0.00272126
0.00799865
0.00296953
0.00487726
0.007053
0.00362531
0.000928353
0.00561099
0.00236316
0.00900208
0.0021955
0.00889055
0.00552
0.00344898
0.00122196
0.00469819
0.000367021
0.00425991
0.00518974
0.00327571
0.000546164
0.0065726
0.00511568
0.00149942
0.0044422
0.0110015
0.00509885
0.00166882
0.000896652
0.000166663
0.00134311
0.00288886
0.00631389
0.0031494
0.0091511
0.00747323
0.000147498
0.00257865
0.00566655
0.00560904
0.0047572
8.37001e-05
0.00477456
0.000394548
0.0065083
0.0107542
0.00749202
0.000773171
0.000240021
0.00112138
0.00150588
0.000699448
0.00223261
0.00623535
0.00406702
0.00305177
0.00369468
0.00340367
0.00366891
0.00325995
0.00600296
0.00397627
0.00894396
0.00383778
0.00195684
0.00227811
0.00329284
0.00130157
0.00264207
0.00508333
0.00258524
0.00143966
0.0120743
0.00695771
0.0073746
0.00280073
0.00718393
0.00145041
0.00144298
0.00708778
0.00548623
0.00841621
0.0074345
0.0108318
0.016996
0.0110773
0.00173689
0.00830128
0.00468358
0.00593224
0.00510904
0.0151405
0.00810415
0.0130445
0.000520712
0.000368268
0.00440486
0.00206289
0.00227727
0.000123613
0.0104905
0.0013526
0.0134309
0.00353255
0.00634978
0.00419586
0.00226277
0.00832504
0.0106309
0.00316581
0.00581728
0.00893627
0.00612529
0.00550335
0.00323733
0.00160148
4.61659e-05
0.00177601
0.010104
0.00337248
0.00953025
0.00539727
0.00546796
0.00552885
0.00731829
0.00133467
0.00331041
0.00483374
0.0033378
0.00299115
0.00842866
0.00761992
0.00491331
0.0108586
0.00110802
0.00219469
0.00201225
0.00165472
0.00107123
0.0107606
0.00560301
0.0140883
0.0046416
0.00494138
0.00547958
0.000328232
0.00103589
0.00235436
0.0123681
0.00191397
0.00885771
0.0183908
0.000614813
0.000561231
0.00411686
1.44843e-05
0.00214587
0.000790011
0.00110859
0.00431816
0.00290707
0.00128127
0.00165622
0.00807616
0.00635777
0.0110097
0.000209006
0.0051246
0.00695008
0.00537888
0.00979186
0.00786297
0.0020526
0.00216047
0.00160077
0.00372527
0.00341731
0.00121309
0.00520353
0.00339252
0.00163107
0.00868216
0.0109053
0.00194017
0.00200187
0.00671748
0.00560395
0.00434009
0.00132287
0.00245799
0.000263092
0.000646702
0.00100616
0.0128384
0.000258398
0.00951252
0.00197046
0.00276522
0.00483455
0.00174495
0.000353011
0.00224993
0.00316048
0.00570557
0.000393661
0.000335131
0.00140129
0.00123734
0.00556762
0.00257832
0.00855783
0.000159718
0.00435535
0.00807016
0.000553924
0.00127293
0.00347477
0.000974396
0.0021687
0.00732462
0.000861004
0.000285597
0.00436766
0.00462303
0.00613292
0.00135833
0.00160159
0.00419755
0.000874476
0.00336403
0.00182797
0.00471189
0.0140372
0.00638893
0.00267682
0.00276206
0.00214329
0.00254273
0.00444517
0.00551839
0.00713563
0.00716843
0.00740816
0.000149105
0.00577557
0.000494665
0.0103919
0.00747414
0.00601954
0.00601832
0.00511512
0.0186889
0.00798171
0.000284982
0.00440405
0.000989259
0.00730335
0.00135965
0.00267862
0.000497612
0.00431736
0.00109425
0.000174231
0.000551304
0.000548675
0.0012549
0.00286622
0.00570927
2.21806e-05
0.010469
0.00205515
0.00727276
0.00217733
0.000784278
0.00372055
0.00163467
0.00560161
0.00156897
0.00250777
0.00699049
0.00216103
0.00656395
0.0129947
0.00280776
0.00502463
0.00627851
0.00110963
0.00579029
0.00245393
0.00450467
0.00184636
0.0125941
0.00420314
0.00568255
0.00860066
0.00335752
0.00111853
0.0061097
9.02906e-05
0.00881926
0.000931069
0.0114758
0.00826151
0.00254639
0.00145732
0.00221065
0.00261151
0.00215913
0.00103844
0.00643351
0.00917185
0.0125913
0.000453773
0.00419119
0.00258547
0.00211185
0.00351891
0.00379
0.000166727
0.0053099
0.00347451
0.00226545
0.000425128
0.00159517
5.0863e-05
0.00796244
0.00448781
0.00116095
0.00290594
0.00141115
0.00192297
0.000406534
0.00369258
0.000116395
0.00370068
0.000357678
0.00621236
0.00508945
0.00312159
0.0010697
0.000787089
0.0052793
0.00116462
0.00144095
0.00524476
0.00468641
0.00109116
6.43429e-05
0.00269279
0.00472572
0.00681321
0.00172324
0.00197431
0.00387556
0.00119776
0.00490938
0.00333819
0.00285767
0.00262258
0.00163004
0.00370201
0.00310822
0.00147266
0.00355108
0.00107547
0.00228203
0.00178487
0.00110451
0.000621367
0.00414031
0.00681923
0.00351193
0.00190874
0.00195705
0.00116363
0.00149514
0.00497107
0.000324103
0.000366186
0.00648295
0.00202562
0.00135589
0.00334376
0.000229562
0.0052759
0.00548042
0.00201531
0.00254208
0.000143595
0.00424179
0.000139963
4.65507e-05
0.00654883
0.00767577
0.00491639
0.000178745
0.00354008
0.00269187
0.000341959
0.00728024
0.000101257
0.000702526
0.0060825
0.00202742
0.00670323
0.00822325
0.00371956
0.00238594
0.00080402
0.0127448
0.00899843
0.0112764
0.00549847
0.00221994
6.52937e-05
0.00101436
0.00579112
0.000199697
0.0026217
0.00119719
0.00738957
0.0028872
0.0041778
0.0118728
0.00485762
0.00687843
0.000561169
0.00523028
0.00440326
0.00232325
0.00974524
0.0127859
0.000970726
0.00330879
0.00591665
0.000360961
0.000328252
0.00224514
0.002882
0.00621244
0.00546272
0.00151843
0.00425417
0.000833757
0.00299931
0.000940623
0.00219589
0.002863
0.00223073
0.00500308
0.000157087
0.0107407
0.00476801
0.00184672
0.0023599
0.00121347
0.00143393
0.000316798
0.00472964
0.00709334
0.000435806
0.000880813
0.0016565
0.00296916
1.29653e-05
0.0112317
0.00250526
0.00211026
0.0032125
0.00219202
0.000493158
0.00642787
0.0115859
0.00837386
0.0021438
0.00659573
0.00202009
0.00618198
0.00499714
0.000517546
0.000101619
0.00102705
0.00518735
0.00619154
0.00572125
0.00286953
0.00208498
0.000283772
0.000242029
0.00106097
0.00214245
0.00219633
0.00593885
0.00643223
1.44708e-05
0.00265977
0.00157935
0.00151328
0.00696022
0.00322346
0.00371509
0.00205606
0.000327493
0.00386083
0.0059784
0.00172094
0.000625053
0.000170786
0.00406322
0.00100583
0.00242181
0.00704904
0.003443
0.000156429
0.00432031
0.00153557
0.00850975
0.00119564
0.00535652
0.000208522
0.00262317
0.0044872
0.00173662
0.00380474
0.00299413
0.00166372
0.00249408
0.00694257
0.00436283
0.00264033
0.00416961
0.00716016
0.00704009
0.00687129
7.36153e-05
0.00209409
0.00212929
0.00377742
0.000152791
0.0052825
0.000930622
0.000938605
0.00285316
0.00236638
0.00115726
0.000930136
0.0038844
0.00335864
0.00103377
0.0061282
0.00406155
0.00178601
0.0055096
0.00970197
0.00147384
0.00298003
0.00355638
0.00247624
0.00415982
0.00107211
0.000995226
0.0036023
0.00101457
0.00495361
0.00851606
0.00138773
0.00441815
0.00249151
0.000918016
0.00455231
0.0077143
0.0128567
0.00347238
0.00175184
0.00249888
0.0010284
0.00302569
0.00128846
0.00171977
0.00126374
0.00109614
0.000212791
0.00110197
0.00324225
0.000406634
0.00699527
0.00108464
0.00372994
0.00187847
0.00748998
0.00172676
0.0112843
0.000992984
0.0083594
0.00381628
0.00232266
0.00021357
0.000134838
0.0021495
0.00564946
0.00434444
0.00162448
0.000537162
0.00234772
0.00322743
0.0072297
0.00429695
0.00447658
9.46487e-05
0.00122022
0.00302783
0.00693953
0.00686661
0.00344489
0.00290904
0.00196023
0.00629827
0.00165313
0.00924452
0.00488353
0.000650388
0.00125129
0.00273687
0.000187729
0.000691996
0.0015853
0.00212333
0.000601365
0.0015478
0.000224893
0.00236475
0.0105018
0.00757993
0.00170551
0.00329502
0.000473305
0.00215218
0.00615962
0.0036705
0.00546826
0.0087127
0.000276365
0.00394193
0.00184031
0.00236164
0.00573575
0.00545189
0.00511103
0.00229929
0.00344435
0.000505509
0.000205295
0.00581926
0.0014311
0.00420527
0.0020152
0.0014491
0.00364186
0.0034503
0.00780126
0.00120469
0.00541401
0.0054548
0.000658004
0.003076
0.0103917
0.00326298
0.00529608
0.00358136
0.000575347
0.00482116
0.00101193
0.00527985
0.00191441
0.000759631
0.00889684
0.00380865
0.0014933
0.0044143
0.00445961
0.00299389
0.00132783
0.000922838
0.00680783
0.00166131
0.00263087
0.0065494
0.00155843
0.00454342
0.00535209
0.000871965
0.000469552
0.00167685
0.00366352
0.00582459
0.00751503
0.00134746
0.00757997
0.00290207
0.00486056
0.00260744
0.00273216
0.000768693
0.000103456
0.00538702
0.00209707
0.000926419
0.00151502
0.000132357
0.00349678
0.00369007
0.00074758
0.00391675
0.00142085
0.00624027
0.00653582
0.000783644
0.000431031
0.00533371
0.0032039
0.00407628
0.00174731
0.000876416
0.00327736
0.00276769
0.000216917
0.00217395
0.00120329
0.00292538
0.000490127
0.00725625
0.0115981
0.00984894
0.00207742
0.00159362
0.00648591
0.0080869
0.000110495
0.00780783
0.00147912
0.00718744
0.00486849
0.00177322
0.00183528
0.00201604
0.000109786
0.00174093
0.00375262
0.00494062
0.000760858
0.00213864
0.0056067
0.000388202
0.0124284
0.0111458
0.00487346
0.00404067
0.0050346
0.000417288
0.0101505
0.00678217
0.00686855
0.000689654
0.00200637
0.00053737
0.00220392
0.00373203
0.0045231
0.00210958
0.00123012
0.000159618
0.00548104
0.0027749
5.33369e-05
0.00703102
0.00223862
0.00825422
0.0052627
0.00756695
0.00445013
0.000751775
0.00104449
0.000348444
0.00931219
0.00245786
0.00393762
0.00647341
0.00235522
0.00346889
0.00179824
6.26251e-05
0.00292003
0.00782004
0.00795385
0.00576894
0.00060628
0.0022922
0.00563825
0.00808427
0.00631268
0.00530247
0.00601378
0.00127891
0.00338843
0.000356436
0.00922629
0.00129181
0.00706938
0.00696718
0.0021126
0.00356617
0.000443731
6.19144e-05
4.04152e-05
0.00532832
0.000734304
0.00597998
0.00178044
0.00317334
0.00200639
0.00105001
0.00456562
0.00357438
0.00139932
0.000405262
0.00344257
0.000352307
0.00204705
0.00183977
0.00138054
0.00665865
0.00389974
0.00742827
0.00581391
0.00101895
0.00527867
0.00344627
0.00351265
0.00270561
0.0020531
0.00206983
0.000893821
0.00243621
0.000287206
0.00515186
0.00354391
0.00605334
0.00101712
0.00279612
0.00309254
0.00794524
0.00673064
0.00101053
0.00458958
0.000692494
0.0013736
0.00747902
0.00388626
0.00454443
0.00126643
0.0024545
0.00201087
0.00183599
0.00415873
0.00326407
0.000815475
0.00165843
0.00288192
0.00100655
0.00344596
0.00145226
0.00323632
0.00309426
0.00207788
0.00248576
0.00290169
0.00212708
0.0122098
0.0055348
0.000946301
0.00760515
0.00462111
0.00271019
0.00202125
0.00191912
0.00481991
0.00112938
0.00853875
0.00515634
0.00340435
0.000232722
0.00591542
0.0024366
0.000116497
0.00609151
0.00144657
0.00653198
0.0003584
0.00341129
0.00131822
0.00435677
0.00157029
0.0010139
0.00137171
0.00110215
0.00113835
0.000640155
0.00700258
0.00142214
0.00544131
0.00192274
0.000323289
0.00378109
0.00323566
0.000991032
0.00464983
0.00835997
0.00572093
0.011978
0.00994119
0.00747684
0.0031734
0.0108193
0.000879937
0.00116505
0.0170702
0.00307765
0.00364235
0.00489148
0.00223915
0.00241519
0.00390734
0.00185644
0.0060413
0.00188912
0.000701938
0.00407685
0.00935846
0.00875909
0.00112706
0.00502725
8.46809e-05
0.00918698
0.00475014
0.00166965
0.00101992
0.00265407
0.00490216
0.00414116
0.000959059
0.000938497
0.00510605
0.00319483
0.00169372
0.00396407
0.00353393
0.00572456