/*--------------------------------*- C++ -*----------------------------------*\
| =========                 |                                                 |
| \\      /  F ield         | OpenFOAM: The Open Source CFD Toolbox           |
|  \\    /   O peration     | Version:  2212                                  |
|   \\  /    A nd           | Website:  www.openfoam.com                      |
|    \\/     M anipulation  |                                                 |
\*---------------------------------------------------------------------------*/
FoamFile
{
    version     2.0;
    format      ascii;
    arch        "LSB;label=32;scalar=64";
    class       volScalarField;
    location    "0";
    object      stateMean;
}
// * * * * * * * * * * * * * * * * * * * * * * * * * * * * * * * * * * * * * //

dimensions      [0 0 0 1 0 0 0];

internalField   nonuniform List<scalar> 
3200
(
350.331
351.635
348.631
350.043
349.703
350.761
351.138
351.661
351.781
354.982
354.394
352.618
354.661
351.346
349.976
352.515
350.326
349.834
353.115
353.511
344.557
341.897
341.307
343.599
341.985
341.615
343.178
346.79
343.468
344.036
345.918
344.964
344.284
346.832
343.84
343.744
343.018
342.345
342.629
348.66
337.619
335.792
335.595
335.596
334.568
335.068
335.673
338.994
338.414
338.511
338.237
339.386
334.341
335.513
334.726
338.414
335.015
338.357
337.111
336.029
329.565
330.048
329.498
330.442
329.109
327.973
329.855
330.844
333.145
331.41
329.678
330.837
333.241
329.259
329.975
330.741
329.393
332.684
330.541
332.438
324.253
322.687
323.232
322.597
323.179
322.585
324.179
324.604
324.603
325.404
326.668
323.142
324.793
323.255
323.269
321.794
325.435
322.851
322.97
325.268
315.927
317.242
315.282
315.914
317.081
319.049
313.558
318.786
317.615
317.967
317.727
317.905
317.582
317.949
315.706
319.016
316.041
315.227
317.65
317.412
309.921
310.312
309.277
309.143
309.187
308.756
311.114
310.212
310.88
309.105
311.251
310.22
310.12
308.164
309.231
310.564
310.294
313.14
311.935
311.303
301.369
300.928
303.59
301.858
305.687
302.487
304.934
300.738
304.596
305.342
304.236
302.682
304.527
304.003
304.293
303.095
302.035
303.273
305.373
304.81
348.694
350.444
346.378
346.519
350.623
353.027
350.456
349.971
353.576
351.974
354.894
352.699
353.042
353.171
350.819
348.95
350.408
351.372
352.862
352.946
341.307
342.878
343.321
344.564
342.318
345.682
343.526
347.151
347.576
347.963
348.578
347.314
348.075
344.609
345.541
342.388
344.806
343.568
342.787
345.649
336.719
335.421
332.46
336.493
336.165
336.948
338.95
340.218
338.657
337.745
341.479
340.015
339.748
337.394
336.578
339.403
336.837
336.436
338.877
336.464
329.294
331.567
328.862
330.838
329.816
327.33
332.492
332.105
330.708
331.85
332.123
331.138
331.014
328.302
331.891
330.347
329.77
329.688
332.326
330.515
324.467
322.172
322.875
322.558
321.09
322.175
320.124
323.845
325.012
325.75
325.966
324.461
325.324
326.74
322.523
322.628
322.65
322.985
324.934
323.298
317.705
315.532
315.131
314.455
315.555
318.109
319.394
319.914
317.38
318.193
316.596
318.002
319.075
316.538
315.055
318.859
316.3
314.022
317.665
318.392
308.471
308.613
310.234
310.128
309.47
310.66
311.305
310.444
311.837
309.063
309.447
312.086
309.73
309.829
309.955
309.789
310.446
309.581
309.516
312.52
302.95
302.694
303.807
303.662
299.791
303.189
303.195
306.296
304.106
303.097
301.64
303.728
304.128
301.697
304.267
303.227
303.918
303.138
303.678
303.685
352.452
350.831
348.623
350.405
350.059
348.978
352.406
353.345
353.147
356.008
351.61
351.979
354.142
352.016
350.669
349.874
350.955
351.818
350.592
355.004
345.086
343.815
341.106
341.302
343.374
344.063
341.67
346.337
345.627
347.301
344.254
346.708
347.189
345.321
346.764
344.786
343.484
343.652
342.634
347.572
336.253
336.934
336.439
335.08
337.024
336.383
338.242
337.416
340.108
341.403
340.162
337.165
340.931
336.865
338.108
337.208
339.294
336.98
339.485
337.192
331.309
331.157
327.997
328.534
329.532
331.774
330.078
329.64
332.391
333.829
332.159
329.63
333.321
332.06
330.608
331.491
331.135
332.561
330.771
332.002
323.408
325.157
321.871
321.805
324.79
321.993
322.617
322.307
324.925
326.588
323.882
324.47
323.56
325.836
325.583
325.99
322.808
321.708
320.35
324.11
318.465
318.149
318.275
314.874
317.368
318.114
319.594
316.252
317.239
319.056
318.847
318.655
317.438
317.949
316.235
317.356
315.138
316.152
317.951
318.394
310.507
309.783
311.233
310.185
310.346
308.73
308.967
312.55
308.639
310.468
309.973
310.683
311.871
311.096
308.69
310.565
310.813
308.872
310.482
310.984
303.236
301.979
303.965
302.179
304.078
305.12
302.242
303.531
302.36
302.106
301.388
306.873
301.366
303.169
303.192
301.407
305.274
304.954
303.478
303.522
350.779
350.462
350.732
350.141
352.352
351.141
349.506
354.428
354.1
356.899
355.915
354.114
352.06
355.875
352.077
351.34
353.545
352.285
354.302
354.647
345.253
343.647
343.945
345.68
343.43
346.895
345.161
348.55
344.548
349.089
349.489
347.904
348.277
348.156
346.717
344.595
345.286
346.059
343.475
346.429
338.25
336.918
336.442
337.395
337.16
336.658
336.676
339.374
340.901
339.827
341.247
338.139
342.715
338.249
339.132
339.495
338.86
338.608
339.669
340.085
330.497
330.238
327.931
329.467
329.123
331.739
329.8
330.988
330.689
334.553
332.821
332.787
333.304
330.813
330.407
330.722
330.648
333.013
331.73
331.383
325.238
325.011
325.346
321.778
325.436
323.489
324.136
322.163
326.079
324.695
326.69
326.485
325.558
325.178
324.158
325.452
323.663
323.735
323.431
326.155
318.709
318.356
314.794
315.951
317.012
316.508
317.81
317.087
317.389
317.359
317.849
317.488
317.568
318.149
316.926
317.254
318.45
317.415
318.383
317.507
309.207
310.215
310.507
310.562
309.035
309.213
310.583
308.986
311.557
313.092
309.998
310.813
313.253
312.212
309.765
309.16
311.502
312.515
309.035
309.175
305.646
304.904
305.195
301.652
301.785
305.871
304.217
305.198
303.737
302.827
305.644
302.12
305.137
303.747
300.798
305.719
305.223
302.796
301.92
303.846
356.017
357.15
351.278
352.742
351.707
352.56
354.183
353.414
356.021
356.359
356.635
357.641
355.476
353.42
353.79
354.936
353.306
353.163
352.419
355.11
345.478
347.853
344.15
342.861
345.285
345.786
346.561
347.04
349.164
352.505
346.272
347.777
350.017
347.121
348.031
345.901
347.381
347.998
344.568
347.276
339.314
338.719
337.679
337.501
334.921
338.84
337.948
339.313
341.635
339.662
342.705
339.803
341.563
339.184
340.571
341.107
338.631
335.902
339.555
339.245
331.729
330.324
332.109
328.801
331.316
332.538
333.542
333.804
333.473
333.562
332.019
333.461
334.6
333.606
331.367
332.119
333.895
331.278
330.267
333.491
324.949
324.413
323.373
324.199
323.189
324.932
325.882
326.381
325.467
325.388
326.621
326.107
324.702
326.506
325.148
322.412
322.917
324.27
323.78
326.094
316.073
316.679
318.379
317.949
315.16
319.004
317.714
315.935
316.137
317.511
318.643
318.535
315.588
319.027
316.972
317.371
315.598
315.118
317.001
316.521
313.231
310.267
309.182
311.792
311.299
311.446
312.25
309.484
311.71
309.1
311.289
311.439
312.639
311.01
311.221
310.197
310.006
309.215
310.316
312.755
303.873
303.221
305.669
301.425
304.493
301.463
305.379
306.164
304.044
303.701
302.355
302.567
303.774
302.896
301.978
302.564
302.362
302.228
302.328
306.928
354.606
353.565
354.902
352.445
351.82
355.041
357.495
355.526
356.971
358.002
358.386
357.091
356.792
355.188
354.578
352.757
355.894
351.553
357.114
356.144
345.549
346.036
345.803
345.942
346.877
347.867
344.702
349.349
348.781
349.948
349.327
349.677
349.143
350.589
348.192
346.739
346.438
345.763
345.16
351.156
338.906
340.112
339.463
336.452
337.284
338.926
341.385
342.247
341.167
341.799
344.488
343.877
343.549
342.587
340.979
338.252
340.411
337.379
341.811
340.039
331.496
332.776
331.989
330.012
330.512
331.227
331.994
335.814
335.92
335.167
334.033
335.395
333.71
333.021
332.845
333.781
330.805
332.667
334.995
333.086
325.756
322.904
325.977
323.606
325.143
325.478
326.329
328.146
327.062
325.882
328
327.221
327.174
324.386
325.995
326.205
325.021
324.037
325.672
324.346
317.51
317.748
316.572
318.48
316.696
320.122
319.65
316.421
318.435
318.392
317.463
321.178
319.261
315.728
319.241
315.365
317.912
316.431
317.447
317.796
309.405
309.66
309.47
311.522
312.505
311.435
308.727
308.963
313.501
311.141
312.689
313.669
311.674
312.303
313.504
311.387
311.178
309.237
312.363
311.48
304.64
303.262
304.863
303.803
305.337
302.632
304.705
303.383
303.179
303.572
303.916
303.039
302.118
303.265
305.525
302.142
304.602
302.554
304.915
302.257
355.98
354.994
354.1
353.583
357.034
354.236
355.247
358.236
359.149
361.243
360.306
359.042
356.305
358.537
355.549
356.023
355.818
356.038
357.016
356.467
348.202
346.981
343.397
345.604
351.344
347.077
349.164
350.022
349.736
352.229
352.836
351.732
349.739
349.972
350.741
349.476
345.08
348.815
347.378
349.458
340.754
339.115
338.669
342.816
339.541
340.727
342.379
339.554
343.804
343.388
344.261
343.932
344.569
340.807
343.119
343.025
342.448
342.044
340.156
339.456
332.613
333.254
332.191
331.619
333.492
334.078
333.675
335.342
336.599
334.946
334.622
336.546
335.58
336.166
332.832
335.484
333.127
331.978
333.267
331.462
325.475
325.876
324.484
323.611
324.933
327.443
326.451
326.269
326.411
329.112
327.607
327.311
325.176
326.904
328.918
324.838
325.407
325.113
326.209
326.51
319.113
317.427
317.14
318.615
318.946
319.516
318.697
319.435
320.621
319.208
318.627
318.665
319.125
319.995
319.511
319.994
317.869
317.949
320.115
317.755
310.973
310.219
314.462
311.46
310.019
309.15
307.84
311.909
312.213
313.352
312.537
311.937
310.053
310.092
311.571
311.031
309.343
311.914
309.951
307.014
303.904
301.022
306.338
304.258
305.206
304.23
303.94
302.036
303.352
302.274
303.698
305.047
305.634
305.668
302.584
303.935
305.4
302.289
300.071
302.133
354.916
355.774
355.554
356.74
356.22
355.757
361.109
359.192
360.52
362.218
359.033
358.79
361.222
359.429
359.448
356.6
355.996
357.034
357.591
357.763
348.338
347.379
345.274
347.595
348.85
349.451
350.994
350.291
352.916
351.222
351.264
355.116
350.853
351.359
349.066
349.756
348.264
348.524
346.956
352.667
340.437
341.444
338.426
340.856
341.148
338.956
340.913
342.531
343.364
342.548
345.322
345.251
345.012
345.3
345.184
339.308
340.941
341.548
343.713
343.838
335.182
335.457
331.129
334.983
334.792
333.69
333.444
333.37
337.1
334.783
337.201
337.342
338.446
334.847
333.519
333.732
334.251
335.317
332.704
335.569
326.281
325.661
324.055
325.652
324.82
326.707
327.689
328.76
327.784
327.182
328.529
327.183
329.376
328.393
327.234
328.415
326.696
328.075
327.759
329.753
318.692
320.219
317.938
316.487
318.776
318.469
319.298
318.738
317.578
319.107
322.949
320.969
318.084
318.548
318.788
318.483
319.187
316.634
320.248
320.665
311.944
311.266
311.428
310.952
312.028
312.118
312.773
311.471
312.762
312.596
312.52
313.307
311.957
312.585
310.074
310.409
310.349
309.751
309.878
311.958
302.722
303.212
303.495
302.208
302.396
303.531
303.971
302.121
302.494
306.362
301.715
304.091
303.472
305.212
303.952
303.437
304.93
301.133
302.865
304.389
357.446
356.691
357.589
356.676
357.817
358.76
359.929
359.833
361.404
360.884
359.791
362.756
362.892
361.926
360.221
358.351
357.221
358.691
357.729
360.882
350.52
349.572
349.309
349.188
349.077
351.535
346.972
350.47
350.796
352.806
355.437
355.501
353.49
351.881
352.559
351.787
350.748
350.608
351.202
351.644
343.232
343.265
343.915
341.811
341.169
341.29
345.342
341.925
346.337
345.144
345.021
346.999
346.027
344.34
345.448
344.712
341.847
343.952
344.331
345.737
335.771
335.542
332.868
335.707
335.584
334.845
335.963
337.028
338.738
334.669
336.259
338.053
336.575
334.234
337.933
334.905
334.477
333.382
335.212
335.057
329.199
324.801
326.326
326.311
326.507
326.955
327.029
326.813
328.626
330.406
329.92
329.922
328.271
330.16
326.885
325.872
328.104
330.242
326.888
327.333
318.6
318.85
319.164
317.32
318.174
319.774
320.324
318.976
318.395
319.748
317.87
321.469
319.497
321.404
319.4
320.144
319.59
320.297
318.19
319.01
309.692
311.11
310.733
312.325
313.161
311.279
310.362
313.008
314.477
315.519
313.484
314.365
312.182
311.362
313.392
311.526
310.019
309.492
310.941
310.011
302.71
304.462
303.901
307.29
305.516
302.555
303.191
303.045
305.086
305.346
305.509
301.682
304.339
303.549
304.777
303.751
307.934
303.75
302.074
305.445
361.074
359.091
358.709
356.897
357.95
360.188
361.119
362.791
362.147
365.067
364.103
362.564
363.708
362.942
362.345
358.332
360.873
360.218
361.458
362.396
353.496
348.34
349.749
350.315
350.126
351.389
352.625
352.779
353.839
353.28
353.094
356.243
352.693
350.342
352.183
352.809
350.63
354.884
349.844
353.942
342.772
345.176
343.882
342.307
342.782
343.371
343.104
342.795
343.819
344.392
345.403
346.549
345.603
345.378
344.156
343
343.691
345.809
344.531
345.43
336.734
333.912
333.192
332.504
336.586
336.93
333.847
337.767
334.753
337.651
339.815
338.382
336.861
337.74
335.477
335.831
337.114
336.09
336.913
337.409
326.719
326.795
327.463
327.384
326.268
327.413
328.392
329.442
330.096
329.056
328.671
329.777
328.811
331.479
327.877
328.638
329.402
329.868
327.453
329.521
321.066
319.053
320.332
321.633
318.385
319.388
320.231
321.347
320.138
322.181
318.23
323.574
321.02
322.32
322.052
321.325
321.633
319.07
320.841
320.715
313.25
311.004
312.201
311.066
309.226
309.48
312.488
313.073
312.249
311.15
312.251
314.356
310.907
311.112
310.866
311.661
310.801
311.098
310.146
312.708
304.673
305.324
305.114
302.957
304.138
305.128
304.91
305.181
302.916
304.598
303.41
304.285
303.713
305.075
305.115
303.728
305.967
302.676
306.289
305.19
363.364
361.572
359.511
359.953
360.762
360.298
361.832
362.57
364.097
363.805
366.568
365.377
363.191
363.928
363.328
363.05
363.328
362.112
365.044
360.861
352.769
350.778
353.301
351.76
354.958
352.257
352.353
354.232
356.703
354.072
353.857
357.442
354.324
355.957
352.826
352.009
351.502
354.502
351.046
353.892
343.274
345.322
343.778
343.66
345.099
346.292
347.918
346.904
349.459
346.831
345.212
348.394
344.958
346.047
345.341
344.689
346.213
345.304
345.206
344.297
337.495
333.758
335.195
336.232
336.169
336.582
338.53
337.424
337.317
338.961
340.88
338.531
339.459
338.719
338.3
338.257
337.912
335.547
340.351
339.161
331.524
328.198
330.468
325.385
326.571
328.817
330.736
330.943
328.057
331.658
330.003
330.556
331.131
329.806
328.069
329.946
328.595
330.482
327.985
329.971
321.103
320.586
319.284
318.376
320.2
318.911
322.11
321.638
320.863
322.848
322.381
320.207
322.012
323.972
321.908
320.617
320.166
319.728
319.913
320.263
309.649
312.685
308.965
314.271
312.108
311.373
310.511
310.614
313.912
312.483
313.949
312.303
310.333
315.639
314.517
311.821
312.015
311.468
312.172
311.835
304.572
302.028
302.725
304.93
305.166
305.117
303.001
305.136
305.991
302.967
306.897
305.332
303.55
303.424
305.083
303.647
303.199
305.506
303.137
304.332
364.171
362.771
363.465
362.382
364.529
361.93
362.401
365.882
365.574
366.781
366.424
367.517
369.482
366.945
363.086
364.933
363.063
362.944
362.105
365.274
354.703
356.818
352.873
353.309
352.106
354.852
355.334
354.814
358.818
355.696
359.987
356.347
357.111
356.015
354.922
356.608
356.934
353.806
354.272
354.996
345.985
346.08
345.695
344.441
345.42
346.404
349.631
345.246
349.916
348.588
348.613
348.529
348.949
346.596
346.935
347.074
346.145
345.61
347.087
346.499
337.556
339.803
336.101
336.074
336.47
336.907
337.384
341.612
340.033
342.987
339.792
339.809
339.827
337.857
337.815
337.942
340.979
335.83
339.131
342.084
327.732
328.308
327.02
328.631
329.603
328.883
329.727
328.117
330.624
329.31
329.186
332.328
331.635
332.988
329.212
330.582
330.92
330.138
331.337
330.513
319.305
320.788
320.787
319.268
321.744
320.435
319.31
322.197
320.674
324.034
324.748
320.575
321.751
323.136
322.622
322.04
320.886
321.061
320.012
320.169
311.677
316.077
312.258
315.261
313.018
311.644
314.113
313.224
312.622
312.057
313.749
314.516
312.555
312.497
312.946
312.015
314.029
311.372
314.742
312.041
305.343
306.5
304.25
304.507
303.1
304.489
304.884
306.479
304.53
304.19
305.606
305.675
306.116
303.811
304.68
302.88
304.386
305.105
304.602
305.452
366.968
364.609
361.822
362.31
363.044
363.377
366.348
367.086
367.922
368.062
368.149
365.369
367.179
364.547
368.089
366.543
365.5
364.976
364.147
368.651
356.46
353.879
355.972
354.51
357.899
356.204
357.041
356.208
358.136
357.096
356.768
356.793
356.189
356.534
356.74
357.333
354.853
358.121
354.707
356.209
346.139
345.943
347.322
346.982
344.848
347.687
348.324
350.136
348.636
350.261
352.499
348.861
349.452
349.634
346.757
348.799
347.266
347.594
346.31
349.737
338.556
339.285
340.568
336.841
337.904
336.501
338.855
342.021
338.861
343.146
342.056
338.313
338.537
338.075
339.454
339.012
337.625
339.836
340.462
341.384
329.041
330.447
328.447
330.236
328.619
331.253
330.145
332.115
329.327
331.283
330.675
329.948
330.378
332.829
328.521
329.396
328.582
329.763
329.701
328.758
321.83
320.734
322.123
320.993
319.282
319.802
322.583
321.35
321.523
323.517
321.443
321.312
323.381
323.086
321.087
321.299
321.973
319.418
322.956
321.199
313.018
313.687
312.2
311.143
311.736
313.77
313.782
313.54
311.92
314.077
313.565
314.191
312.693
312.247
312.318
312.435
312.872
313.868
314.607
313.498
304.738
304.777
304.569
304.705
305.797
304.415
304.456
306.341
303.767
304.806
303.375
304.314
302.762
302.677
303.703
303.51
304.206
302.925
304.225
304.143
366.523
367.312
366.767
365.514
364.62
365.362
366.605
369.712
367.295
367.629
369.606
368.003
369.5
369.746
364.985
366.788
365.743
369.625
367.794
368.244
357.539
356.691
356.321
357.072
359.182
357.419
358.759
358.518
360.926
359.411
359.873
362.532
359.828
360.282
357.691
358.982
358.281
357.126
359.369
360.13
346.695
348.445
349.687
347.853
348.434
347.855
347.913
351.315
351.214
348.858
350.875
349.597
348.099
349.247
347.872
347.323
348.755
349.369
347.351
350.759
340.098
338.071
339.768
339.665
340.02
339.901
338.415
337.795
340.191
340.707
340.971
341.35
340.204
343.842
338.942
338.816
340.343
339.711
338.863
340.66
333.76
332.864
331.019
332.713
330.083
328.907
332.787
331.105
331.412
331.771
333.15
329.326
333.171
330.182
331.643
330.657
330.613
329.961
330.807
330.662
323.302
323.576
321.663
320.961
321.463
322.604
324.488
321.309
323.619
321.796
322.565
323.666
320.421
322.8
322.318
322.027
323.125
321.334
322.287
319.127
311.773
312.967
314.361
313.585
310.532
312.909
315.04
313.488
312.645
312.082
314.033
312.274
312.485
313.882
314.065
315.371
311.738
313.835
314.223
310.61
306.449
302.239
304.338
303.755
305.072
303.303
304.526
306.108
304.797
304.236
305.391
305.235
304.851
304.762
303.27
305.446
304.077
302.495
305.566
303.764
368.594
370.48
367.882
366.68
366.89
369.504
370.47
369.608
369.039
370.839
369.883
367.577
372.356
369.447
366.963
367.282
367.438
369.013
369.751
371.287
358.932
358.61
359.242
359.093
360.176
358.967
360.347
360.424
359.743
360.302
360.622
361.306
360.115
362.244
359.04
357.751
359.398
361.031
358.601
361.726
349.158
351.973
350.694
350.492
350.065
350.231
351.283
348.753
349.353
351.521
350.762
351.701
351.866
353.064
351.783
348.423
349.647
349.787
350.112
351.233
342.272
341.305
339.393
341.312
343.045
341.698
344.496
339.838
341.845
342.112
340.749
341.559
341.27
341.881
340.41
341.103
341.171
340.306
339.329
343.508
333.576
331.782
330.319
331.771
332.526
329.95
333.375
330.468
335.272
332.331
331.113
331.764
333.07
334.061
333.805
330.116
332.376
330.27
331.384
331.135
324.075
322.767
321.088
323.239
322.262
324.037
324.09
320.548
323.523
324.917
324.93
323.347
322.074
319.62
323.914
321.021
323.744
322.63
320.752
321.874
311.68
313.997
313.242
310.777
314.847
313.263
312.415
315.255
314.834
314.332
313.625
316.031
313.334
314.626
315.786
314.141
312.142
311.802
313.67
313.187
303.959
303.375
302.744
302.259
304.166
306.911
305.51
306.125
305.451
303.832
304.43
304.689
303.003
303.987
304.32
305.037
304.588
305.583
303.367
304.698
370.63
368.978
372.197
372.706
370.959
371.183
369.35
372.77
370.238
371.193
372.169
370.535
372.607
371.412
370.216
370.223
371.369
369.708
372.184
373.466
363.492
359.469
361.125
363.234
358.305
361.493
358.975
361.481
359.563
360.48
362.886
362.831
361.286
361.76
362.162
362.582
359.11
360.824
359.447
361.965
350.853
346.579
347.307
349.799
350.373
350.282
352.427
348.884
350.199
350.234
352.899
353.297
352.651
353.056
353.368
350.203
352.254
350.79
350.885
352.639
340.546
341.655
344.307
342.906
339.545
340.781
340.175
341.392
343.281
343.435
343.197
346.217
343.761
341.419
340.366
343.177
343.327
342.518
341.652
342.491
334.874
335.058
334.51
332.574
333.719
331.243
330.572
331.277
331.695
331.499
333.078
332.333
333.263
330.191
333.551
335.31
330.457
331.888
333.599
332.423
323.082
323.173
321.563
323.182
321.612
324.241
322.741
324.501
324.249
322.46
325.097
324.362
323.72
322.653
323.779
324.209
322.824
323.732
321.008
324.322
311.521
315.735
314.306
315.723
313.059
313.109
313.425
313.68
313.709
314.659
313.612
314.27
315.944
313.161
312.311
314.462
313.187
313.015
316.404
315.964
304.335
303.264
304.899
304.296
307.019
305.948
306.17
304.416
304.065
304.206
305.379
306.081
305.797
304.536
304.259
303.862
304.408
303.638
305.104
305.629
373.094
373.009
373.516
371.869
372.504
369.055
371.826
374.471
371.426
372.622
373.337
373.516
374.835
375.697
374.039
370.111
371.028
373.858
372.323
374.143
361.444
362.533
360.67
363.718
361.121
363.642
362.77
364.685
362.753
364.981
364.778
363.84
363.804
364.426
364.005
360.95
362.676
360.905
361.878
362.444
354.057
354.071
353.536
351.808
350.749
351.916
349.903
350.786
351.772
353.355
350.645
354.11
353.895
348.1
352.852
352.418
355.18
352.395
352.077
354.101
343.767
341.221
342.856
343.963
342.529
340.903
341.274
344.811
342.784
344.594
341.399
342.88
344.998
344.641
343.21
345.617
342.299
343.834
343.617
344.882
332.479
334.237
332.512
332.823
332.253
333.342
335.42
335.19
334.073
333.89
332.889
334.5
333.848
333.397
336.289
334.029
332.32
333.652
333.616
334.562
322.416
325.592
325.724
322.652
321.721
324.382
324.231
323.481
323.269
325.359
324.24
323.981
323.922
326.111
324.523
324.25
324.299
323.609
323.826
324.792
313.357
314.486
314.979
316.35
314.369
314.421
313.411
313.489
314.014
313.864
314.041
317.102
318.396
314.148
313.843
312.389
314.164
314.835
314.731
314.134
306.362
306.431
305.176
305.907
305.382
305.499
306.649
303.337
305.589
303.532
303.195
302.773
304.496
306.095
307.115
303.608
303.36
306.019
305.73
304.188
374.971
374.583
372.679
373.029
371.941
373.489
374.644
374.202
373.801
372.514
374.115
374.757
371.608
374.187
373.914
373.233
375.538
373.508
376.539
375.839
365.492
364.273
363.16
363.365
363.448
363.582
363.035
363.949
363.825
364.364
364.57
362.109
363.385
364.955
365.357
364.308
363.566
364.674
362.429
365.859
352.992
351.631
352.911
351.487
355.731
355.029
350.067
352.156
352.822
353.512
354.646
353.937
355.684
353.444
355.426
354.001
355.93
355.865
354.642
357.844
344.47
343.999
342.724
343.81
344.355
342.206
341.291
343.707
342
342.347
342.591
343.812
344.657
344.788
344.941
344.511
343.566
343.54
344.85
344.016
335.363
334.394
334.356
333.157
333.363
334.148
334.531
333.609
335.763
333.814
333.482
336.024
336.171
335.418
333.463
333.658
333.748
330.756
336.013
334.172
323.302
325.207
323.343
324.125
324.064
323.53
323.52
323.246
323.286
324.371
326.548
325.893
325.476
325.457
326.217
324.109
323.47
325.09
326.897
324.689
313.432
314.789
314.98
312.831
314.95
315.826
315.969
312.778
314.931
315.146
314.843
313.808
314.167
315.34
314.366
313.604
314.404
314.527
314.54
312.603
305.439
305.404
303.19
306.159
305.978
303.785
304.569
304.733
305.366
305.163
302.549
305.695
303.292
303.65
306.731
304.752
304.634
303.839
305.396
306.158
374.368
377.182
374.743
370.713
375.988
374.444
375.775
375.6
375.688
376.625
374.709
375.487
376.319
377.075
373.714
374.549
375.386
377.54
378.82
378.904
368.144
367.028
363.689
367.295
364.215
367.29
365.452
368.491
365.271
368.514
369.61
366.525
368.691
364.875
367.995
365.903
367.931
365.256
366.954
365.498
356.138
354.669
353.874
355.952
355.036
354.948
353.312
355.174
351.694
355.098
356.999
354.668
355.384
355.606
354.227
355.462
356.957
353.794
355.844
356.359
345.032
343.859
343.577
344.815
344.823
344.192
345.033
343.839
342.154
344.487
345.236
344.163
346.861
344.389
343.076
344.629
344.391
346.244
343.537
343.876
337.686
335.016
336.84
333.608
334.052
335.726
333.567
335.143
333.617
334.824
335.475
335.265
334.712
336.599
334.008
335.377
336.648
331.257
334.828
337
324.816
324.006
328.638
325.414
327.652
323.168
324.564
325.85
323.804
323.919
324.529
324.471
324.866
324.936
325.719
325.362
324.531
321.979
323.645
325.385
314.533
316.038
316.332
314.048
315.223
314.465
314.736
313.985
316.6
311.713
314.456
315.705
314.721
316.333
314.142
315.236
316.169
314.374
315.118
316.001
305.887
304.671
306.518
303.937
305.135
305.185
306.15
304.072
303.936
304.447
304.478
304.367
304.669
304.601
305.835
305.183
303.903
304.379
304.475
305.728
377.167
379.262
377.411
378.126
376.43
376.689
375.295
378.715
375.806
375.383
375.676
376.915
377.542
378.835
375.228
371.576
375.854
376.864
378.331
380.138
368.312
365.002
366.404
365.425
364.587
363.072
365.216
367.331
364.714
364.407
367.282
367.561
365.901
367.007
365.919
365.299
364.757
366.202
369.181
366.886
357.352
356.276
352.931
355.053
353.865
356.664
354.228
354.886
355.827
356.372
356.197
357.774
354.432
353.984
355.372
355.272
355.14
356.124
356.176
354.373
347.296
347.55
346.39
345.206
344.794
345.853
344.781
346.192
343.081
345.044
344.23
346.494
347.226
345.73
345.909
346.123
344.314
344.519
344.753
347.01
335.252
334.581
336.664
337.089
335.232
332.28
335.268
334.734
336.003
332.867
333.925
334.59
334.911
334.879
335.448
333.652
334.582
336.464
335.982
336.354
326.194
325.043
323.924
323.43
325.118
325.799
322.935
326.086
326.499
323.458
326.01
324.755
323.298
323.499
326.48
325.421
324.064
327.185
326.693
324.409
314.221
316.449
315.14
312.816
314.085
315.357
316.028
315.683
312.967
312.391
315.763
312.673
314.807
315.743
314.885
314.747
316.14
317.282
317.374
315.981
302.826
304.752
305.542
307.297
304.975
305.347
303.022
304.907
305.967
304.726
304.02
304.852
304.624
304.946
305.014
303.497
305.827
302.81
305.532
303.195
)
;

boundaryField
{
    hotSide
    {
        type            fixedGradient;
        gradient        nonuniform List<scalar> 
400
(
321.511
322.87
325.591
329.677
335.133
341.965
350.181
359.788
370.794
383.208
397.037
412.289
428.971
447.088
466.647
487.651
510.105
534.011
559.372
586.191
323.738
325.08
327.767
331.802
337.194
343.949
352.078
361.591
372.498
384.81
398.537
413.687
430.268
448.289
467.755
488.672
511.043
534.872
560.161
586.913
326.149
327.47
330.116
334.091
339.406
346.071
354.099
363.503
374.296
386.491
400.101
415.136
431.606
449.52
468.885
489.706
511.988
535.735
560.948
587.63
328.704
330
332.597
336.503
341.73
348.292
356.205
365.485
376.15
388.215
401.695
416.604
432.954
450.753
470.009
490.73
512.919
536.579
561.714
588.325
331.33
332.599
335.142
338.97
344.099
350.546
358.332
367.477
378.003
389.928
403.271
418.047
434.27
451.949
471.095
491.712
513.807
537.382
562.439
588.978
333.918
335.158
337.643
341.389
346.414
352.74
360.392
369.397
379.779
391.562
404.765
419.407
435.503
453.065
472.101
492.618
514.622
538.114
563.096
589.569
336.321
337.531
339.959
343.622
348.544
354.751
362.274
371.142
381.385
393.031
406.101
420.618
436.595
454.047
472.983
493.409
515.33
538.747
563.663
590.076
338.36
339.543
341.92
345.509
350.339
356.44
363.847
372.595
382.718
394.244
407.2
421.608
437.485
454.844
473.695
494.045
515.897
539.253
564.114
590.478
339.852
341.015
343.352
346.885
351.645
357.665
364.985
373.643
383.675
395.113
407.984
422.312
438.116
455.407
474.197
494.491
516.294
539.606
564.428
590.758
340.643
341.795
344.11
347.613
352.334
358.311
365.584
374.193
384.176
395.567
408.393
422.679
438.443
455.699
474.456
494.722
516.498
539.788
564.589
590.901
340.643
341.795
344.11
347.613
352.334
358.311
365.584
374.193
384.176
395.567
408.393
422.679
438.443
455.699
474.456
494.722
516.498
539.788
564.589
590.901
339.852
341.015
343.352
346.885
351.645
357.665
364.985
373.643
383.675
395.113
407.984
422.312
438.116
455.407
474.197
494.491
516.294
539.606
564.428
590.758
338.36
339.543
341.92
345.509
350.339
356.44
363.847
372.595
382.718
394.244
407.2
421.608
437.485
454.844
473.695
494.045
515.897
539.253
564.114
590.478
336.321
337.531
339.959
343.622
348.544
354.751
362.274
371.142
381.385
393.031
406.101
420.618
436.595
454.047
472.983
493.409
515.33
538.747
563.663
590.076
333.918
335.158
337.643
341.389
346.414
352.74
360.392
369.397
379.779
391.562
404.765
419.407
435.503
453.065
472.101
492.618
514.622
538.114
563.096
589.569
331.33
332.599
335.142
338.97
344.099
350.546
358.332
367.477
378.003
389.928
403.271
418.047
434.27
451.949
471.095
491.712
513.807
537.382
562.439
588.978
328.704
330
332.597
336.503
341.73
348.292
356.205
365.485
376.15
388.215
401.695
416.604
432.954
450.753
470.009
490.73
512.919
536.579
561.714
588.325
326.149
327.47
330.116
334.091
339.406
346.071
354.099
363.503
374.296
386.491
400.101
415.136
431.606
449.52
468.885
489.706
511.988
535.735
560.948
587.63
323.738
325.08
327.767
331.802
337.194
343.949
352.078
361.591
372.498
384.81
398.537
413.687
430.268
448.289
467.755
488.672
511.043
534.872
560.161
586.913
321.511
322.87
325.591
329.677
335.133
341.965
350.181
359.788
370.794
383.208
397.037
412.289
428.971
447.088
466.647
487.651
510.105
534.011
559.372
586.191
)
;
    }
    coldSide
    {
        type            mixed;
        refValue        uniform 300;
        refGradient     uniform 0;
        valueFraction   uniform 0.991591;
        source          uniform 0;
        value           nonuniform List<scalar> 
400
(
300.012
300.025
300.027
300.047
300.033
300.039
300.033
300.023
300.023
300.039
300.038
300.045
300.04
300.054
300.033
300.036
300.054
300.046
300.05
300.024
300.008
300.023
300.017
300.041
300.027
300.027
300.009
300.027
300.038
300.045
300.017
300.055
300.04
300.019
300.028
300.027
300.054