/*--------------------------------*- C++ -*----------------------------------*\
| =========                 |                                                 |
| \\      /  F ield         | OpenFOAM: The Open Source CFD Toolbox           |
|  \\    /   O peration     | Version:  2212                                  |
|   \\  /    A nd           | Website:  www.openfoam.com                      |
|    \\/     M anipulation  |                                                 |
\*---------------------------------------------------------------------------*/
FoamFile
{
    version     2.0;
    format      ascii;
    arch        "LSB;label=32;scalar=64";
    class       volScalarField;
    location    "0";
    object      T;
}
// * * * * * * * * * * * * * * * * * * * * * * * * * * * * * * * * * * * * * //

dimensions      [0 0 0 1 0 0 0];

internalField   nonuniform List<scalar> 
3200
(
326.923
325.932
325.187
325.175
325.259
325.669
326.18
326.279
326.638
326.792
326.735
326.566
326.138
325.632
324.908
324.511
324.052
323.937
324.061
324.5
323.386
322.558
321.889
321.891
321.964
322.334
322.8
322.87
323.18
323.336
323.267
323.154
322.778
322.345
321.711
321.37
320.983
320.887
320.956
321.295
319.842
319.135
318.585
318.598
318.635
318.963
319.358
319.424
319.696
319.851
319.744
319.681
319.38
318.999
318.458
318.17
317.836
317.788
317.811
318.098
316.283
315.693
315.26
315.256
315.283
315.575
315.872
315.95
316.169
316.309
316.214
316.163
315.918
315.619
315.16
314.923
314.663
314.625
314.634
314.868
312.687
312.227
311.902
311.896
311.896
312.159
312.365
312.436
312.616
312.716
312.651
312.608
312.415
312.209
311.828
311.653
311.465
311.396
311.417
311.604
309.079
308.764
308.512
308.534
308.489
308.705
308.847
308.899
309.025
309.109
309.066
309.004
308.9
308.734
308.464
308.363
308.234
308.157
308.193
308.335
305.464
305.283
305.112
305.151
305.097
305.221
305.309
305.358
305.431
305.479
305.449
305.397
305.358
305.234
305.075
305.044
304.958
304.91
304.928
305.024
301.837
301.773
301.72
301.733
301.703
301.756
301.774
301.788
301.807
301.841
301.811
301.81
301.794
301.754
301.704
301.699
301.664
301.644
301.648
301.695
326.972
326.108
325.454
325.426
325.538
325.99
326.415
326.656
326.99
327.153
327.132
326.897
326.592
325.876
325.129
324.78
324.23
324.057
324.349
324.832
323.452
322.725
322.121
322.129
322.235
322.615
323.002
323.197
323.495
323.624
323.599
323.422
323.143
322.565
321.887
321.6
321.123
320.984
321.209
321.624
319.904
319.302
318.772
318.785
318.889
319.206
319.542
319.708
319.972
320.053
320.029
319.896
319.644
319.204
318.61
318.379
317.972
317.867
318.052
318.356
316.324
315.861
315.414
315.418
315.501
315.768
316.044
316.185
316.396
316.481
316.446
316.355
316.124
315.775
315.306
315.1
314.768
314.706
314.848
315.043
312.711
312.385
312.022
312.035
312.076
312.294
312.532
312.645
312.792
312.856
312.823
312.778
312.568
312.313
311.979
311.786
311.527
311.503
311.594
311.707
309.085
308.865
308.585
308.631
308.64
308.797
308.978
309.056
309.16
309.216
309.178
309.16
308.991
308.825
308.616
308.425
308.295
308.257
308.321
308.375
305.467
305.314
305.167
305.205
305.192
305.289
305.421
305.444
305.497
305.538
305.526
305.515
305.405
305.32
305.219
305.065
305.01
304.972
305.005
305.042
301.835
301.773
301.728
301.754
301.745
301.77
301.823
301.821
301.84
301.868
301.849
301.858
301.817
301.791
301.756
301.707
301.684
301.665
301.675
301.69
327.329
326.519
325.997
325.917
325.99
326.395
326.923
327.167
327.588
327.807
327.815
327.579
327.202
326.454
325.611
325.204
324.648
324.508
324.776
325.2
323.769
323.073
322.616
322.568
322.62
322.993
323.427
323.635
324.036
324.19
324.195
324.031
323.718
323.045
322.316
321.977
321.498
321.386
321.612
321.946
320.186
319.593
319.209
319.157
319.214
319.546
319.912
320.069
320.42
320.535
320.549
320.417
320.169
319.616
318.988
318.704
318.293
318.199
318.399
318.644
316.582
316.081
315.771
315.698
315.741
316.05
316.363
316.474
316.771
316.846
316.864
316.782
316.578
316.149
315.621
315.378
315.031
314.944
315.127
315.302
312.949
312.539
312.303
312.227
312.264
312.505
312.784
312.851
313.087
313.137
313.173
313.099
312.93
312.603
312.2
312.008
311.743
311.655
311.813
311.931
309.279
308.951
308.813
308.745
308.791
308.943
309.188
309.213
309.374
309.412
309.45
309.387
309.243
309.022
308.739
308.607
308.407
308.35
308.45
308.533
305.601
305.38
305.287
305.24
305.287
305.362
305.524
305.54
305.625
305.669
305.69
305.634
305.555
305.414
305.262
305.18
305.051
305.038
305.071
305.125
301.878
301.802
301.765
301.759
301.777
301.8
301.853
301.868
301.879
301.902
301.905
301.898
301.87
301.816
301.759
301.736
301.688
301.689
301.691
301.719
327.893
327.057
326.631
326.475
326.581
327.004
327.542
327.877
328.286
328.517
328.457
328.412
327.937
327.146
326.41
325.724
325.239
325.081
325.241
325.696
324.246
323.56
323.18
323.063
323.146
323.504
323.991
324.235
324.613
324.823
324.76
324.744
324.341
323.668
323.035
322.441
322.025
321.883
322.016
322.397
320.572
320.01
319.696
319.595
319.663
319.953
320.391
320.589
320.917
321.075
321.011
321.026
320.726
320.15
319.593
319.114
318.745
318.629
318.749
319.061
316.868
316.431
316.161
316.097
316.148
316.373
316.725
316.89
317.167
317.297
317.25
317.267
317.027
316.587
316.103
315.728
315.411
315.32
315.405
315.67
313.136
312.792
312.586
312.571
312.587
312.78
313.026
313.173
313.371
313.505
313.431
313.466
313.281
312.966
312.553
312.284
312.04
311.977
312.031
312.223
309.393
309.132
308.987
308.998
309.009
309.151
309.304
309.414
309.556
309.676
309.622
309.631
309.506
309.291
308.999
308.807
308.644
308.604
308.645
308.757
305.625
305.483
305.385
305.395
305.421
305.517
305.584
305.662
305.754
305.815
305.8
305.772
305.72
305.588
305.403
305.315
305.206
305.186
305.217
305.284
301.886
301.847
301.811
301.803
301.819
301.847
301.877
301.89
301.929
301.955
301.947
301.929
301.923
301.875
301.813
301.781
301.74
301.744
301.75
301.774
328.47
327.739
327.304
327.213
327.443
327.818
328.291
328.696
329.097
329.411
329.377
329.248
328.668
328.001
327.227
326.527
325.973
325.716
325.912
326.277
324.748
324.142
323.777
323.698
323.898
324.215
324.612
324.994
325.343
325.616
325.561
325.459
324.97
324.392
323.738
323.141
322.645
322.448
322.593
322.921
320.979
320.506
320.2
320.14
320.297
320.543
320.868
321.241
321.538
321.763
321.692
321.631
321.254
320.752
320.186
319.713
319.266
319.111
319.226
319.51
317.19
316.843
316.586
316.545
316.666
316.835
317.114
317.435
317.7
317.878
317.771
317.765
317.481
317.069
316.597
316.224
315.828
315.733
315.807
316.041
313.392
313.148
312.95
312.9
313.002
313.103
313.341
313.599
313.814
313.952
313.843
313.871
313.668
313.327
312.946
312.672
312.364
312.298
312.349
312.541
309.577
309.398
309.28
309.231
309.31
309.366
309.553
309.729
309.888
309.985
309.901
309.953
309.79
309.544
309.272
309.06
308.854
308.819
308.851
309.003
305.757
305.63
305.593
305.558
305.603
305.628
305.736
305.862
305.954
305.999
305.962
305.986
305.896
305.727
305.583
305.44
305.33
305.314
305.336
305.438
301.941
301.887
301.887
301.874
301.879
301.875
301.932
301.965
302.002
302.009
302.007
302.005
301.972
301.916
301.872
301.822
301.787
301.777
301.791
301.811
329.199
328.648
328.196
328.156
328.286
328.642
329.113
329.569
330.046
330.258
330.355
330.137
329.537
328.943
328.102
327.469
326.976
326.622
326.713
327.146
325.386
324.935
324.571
324.526
324.634
324.941
325.335
325.737
326.161
326.371
326.422
326.244
325.736
325.21
324.473
323.96
323.522
323.204
323.286
323.649
321.537
321.187
320.895
320.841
320.928
321.186
321.52
321.865
322.233
322.43
322.45
322.297
321.871
321.414
320.825
320.381
320.001
319.738
319.807
320.12
317.662
317.397
317.16
317.109
317.192
317.402
317.679
317.944
318.25
318.435
318.436
318.312
317.96
317.602
317.094
316.762
316.436
316.247
316.294
316.552
313.773
313.561
313.383
313.331
313.421
313.563
313.798
314.007
314.244
314.4
314.355
314.283
314.026
313.75
313.336
313.119
312.848
312.684
312.742
312.935
309.86
309.695
309.576
309.532
309.624
309.715
309.873
310.033
310.193
310.328
310.27
310.235
310.06
309.863
309.55
309.397
309.218
309.097
309.136
309.289
305.92
305.84
305.751
305.698
305.792
305.843
305.936
306.055
306.124
306.208
306.19
306.164
306.054
305.934
305.749
305.637
305.554
305.471
305.505
305.602
301.978
301.956
301.939
301.915
301.944
301.963
301.987
302.035
302.052
302.092
302.086
302.064
302.03
301.988
301.93
301.898
301.873
301.841
301.853
301.892
330.284
329.656
329.207
329.01
329.227
329.568
330.05
330.621
331.015
331.254
331.454
331.043
330.555
329.809
329.005
328.365
327.911
327.45
327.674
328.032
326.329
325.81
325.442
325.271
325.462
325.719
326.166
326.662
327.028
327.204
327.392
327.012
326.621
325.97
325.292
324.736
324.329
323.954
324.141
324.453
322.355
321.934
321.625
321.497
321.652
321.841
322.22
322.656
322.974
323.122
323.252
322.95
322.632
322.087
321.512
321.029
320.688
320.394
320.539
320.822
318.349
318.028
317.76
317.655
317.759
317.927
318.242
318.61
318.868
319.001
319.058
318.821
318.577
318.176
317.672
317.311
316.993
316.784
316.898
317.128
314.306
314.085
313.844
313.767
313.833
313.978
314.227
314.532
314.706
314.841
314.854
314.669
314.489
314.202
313.782
313.527
313.278
313.126
313.201
313.38
310.242
310.092
309.918
309.839
309.881
309.992
310.201
310.395
310.533
310.64
310.646
310.517
310.353
310.191
309.851
309.7
309.504
309.409
309.456
309.582
306.154
306.074
305.961
305.922
305.948
306.012
306.163
306.24
306.327
306.404
306.397
306.327
306.22
306.147
305.913
305.837
305.73
305.672
305.697
305.771
302.057
302.029
302.011
301.988
302.003
302.029
302.067
302.093
302.121
302.145
302.147
302.12
302.086
302.067
301.996
301.959
301.938
301.908
301.917
301.931
331.387
330.699
330.217
329.981
330.133
330.517
330.956
331.492
331.949
332.238
332.396
331.923
331.448
330.851
330.026
329.299
328.742
328.523
328.599
328.977
327.314
326.731
326.323
326.103
326.237
326.588
326.956
327.413
327.851
328.069
328.207
327.803
327.416
326.874
326.174
325.562
325.058
324.878
324.942
325.275
323.188
322.698
322.395
322.185
322.317
322.605
322.923
323.308
323.672
323.842
323.955
323.631
323.317
322.863
322.25
321.745
321.316
321.161
321.227
321.506
319.045
318.625
318.397
318.224
318.328
318.585
318.825
319.138
319.45
319.577
319.677
319.415
319.142
318.785
318.292
317.872
317.519
317.398
317.444
317.681
314.836
314.514
314.351
314.235
314.291
314.524
314.701
314.954
315.179
315.266
315.351
315.151
314.923
314.662
314.274
313.952
313.69
313.609
313.629
313.803
310.599
310.372
310.294
310.194
310.226
310.413
310.532
310.717
310.872
310.94
311.005
310.861
310.671
310.51
310.238
310.001
309.807
309.764
309.764
309.897
306.355
306.23
306.206
306.135
306.161
306.278
306.342
306.435
306.545
306.578
306.622
306.527
306.427
306.331
306.174
306.016
305.904
305.878
305.884
305.943
302.125
302.093
302.093
302.048
302.069
302.101
302.125
302.15
302.2
302.217
302.219
302.191
302.156
302.116
302.061
302.021
301.973
301.977
301.974
301.996
332.347
331.708
331.43
331.117
331.007
331.512
331.983
332.301
332.898
333.206
333.394
333.011
332.569
331.831
331.085
330.362
329.777
329.692
329.733
329.917
328.146
327.624
327.378
327.116
327.011
327.453
327.861
328.141
328.649
328.906
329.089
328.756
328.376
327.746
327.106
326.472
325.97
325.909
325.928
326.09
323.915
323.486
323.271
323.052
322.945
323.345
323.687
323.923
324.337
324.555
324.732
324.45
324.111
323.578
323.083
322.517
322.093
322.038
322.052
322.19
319.661
319.281
319.113
318.936
318.835
319.165
319.451
319.627
319.963
320.172
320.3
320.085
319.81
319.377
318.984
318.492
318.158
318.114
318.12
318.244
315.356
315.052
314.913
314.761
314.691
314.951
315.166
315.296
315.546
315.745
315.821
315.684
315.455
315.134
314.828
314.431
314.179
314.15
314.152
314.209
311.019
310.798
310.686
310.557
310.532
310.708
310.873
310.943
311.137
311.288
311.337
311.249
311.067
310.844
310.616
310.341
310.146
310.154
310.157
310.162
306.639
306.502
306.437
306.353
306.335
306.44
306.533
306.585
306.72
306.799
306.817
306.785
306.658
306.529
306.405
306.219
306.106
306.117
306.118
306.123
302.222
302.184
302.164
302.129
302.121
302.163
302.201
302.208
302.256
302.274
302.274
302.288
302.235
302.198
302.15
302.092
302.056
302.048
302.047
302.046
333.474
332.847
332.526
332.303
332.18
332.523
333.044
333.343
333.903
334.204
334.285
333.944
333.489
332.972
332.111
331.413
330.867
330.711
330.728
330.994
329.138
328.641
328.347
328.133
328.013
328.335
328.785
329.05
329.532
329.789
329.872
329.603
329.18
328.718
327.995
327.407
326.919
326.804
326.803
327.037
324.778
324.368
324.098
323.902
323.8
324.09
324.464
324.687
325.094
325.315
325.402
325.182
324.813
324.396
323.797
323.311
322.915
322.834
322.807
322.991
320.353
320.042
319.796
319.637
319.533
319.783
320.078
320.273
320.617
320.771
320.872
320.69
320.37
320.031
319.565
319.161
318.87
318.771
318.761
318.915
315.853
315.641
315.438
315.313
315.235
315.41
315.652
315.825
316.088
316.189
316.284
316.181
315.914
315.616
315.271
314.947
314.763
314.668
314.665
314.778
311.369
311.187
311.049
310.962
310.912
311.024
311.204
311.338
311.541
311.587
311.663
311.594
311.415
311.19
310.93
310.7
310.581
310.499
310.522
310.592
306.855
306.712
306.644
306.582
306.555
306.637
306.739
306.82
306.956
306.969
307.012
306.985
306.881
306.726
306.575
306.443
306.37
306.294
306.332
306.383
302.3
302.257
302.231
302.206
302.213
302.227
302.255
302.28
302.336
302.341
302.35
302.351
302.308
302.258
302.194
302.164
302.13
302.108
302.129
302.142
334.639
334.095
333.665
333.37
333.473
333.84
334.12
334.447
334.786
335.11
335.157
334.945
334.427
333.798
333.126
332.479
332.002
331.701
331.793
331.987
330.17
329.701
329.329
329.09
329.169
329.487
329.725
330.034
330.321
330.591
330.642
330.466
330.021
329.469
328.906
328.34
327.918
327.672
327.745
327.904
325.628
325.246
324.943
324.742
324.811
325.07
325.257
325.548
325.783
326.017
326.046
325.902
325.534
325.065
324.586
324.121
323.755
323.579
323.628
323.759
321.045
320.729
320.5
320.342
320.394
320.595
320.728
320.987
321.169
321.372
321.387
321.265
320.991
320.608
320.216
319.845
319.522
319.407
319.422
319.552
316.429
316.171
316.009
315.883
315.906
316.057
316.182
316.366
316.532
316.671
316.681
316.624
316.396
316.089
315.779
315.496
315.246
315.162
315.154
315.302
311.741
311.573
311.462
311.395
311.396
311.502
311.593
311.712
311.849
311.943
311.962
311.932
311.765
311.508
311.288
311.113
310.932
310.876
310.828
310.967
307.045
306.974
306.9
306.862
306.863
306.927
306.978
307.032
307.138
307.203
307.209
307.183
307.076
306.919
306.786
306.682
306.575
306.54
306.499
306.607
302.358
302.344
302.315
302.301
302.295
302.33
302.34
302.357
302.397
302.419
302.428
302.41
302.37
302.324
302.273
302.238
302.209
302.183
302.189
302.213
335.721
335.225
334.797
334.594
334.508
334.77
335.125
335.417
335.768
335.916
335.965
335.776
335.412
334.815
334.097
333.478
333.062
332.898
332.965
333.043
331.109
330.674
330.344
330.147
330.101
330.292
330.615
330.878
331.17
331.293
331.332
331.169
330.899
330.366
329.756
329.202
328.857
328.708
328.772
328.85
326.432
326.078
325.826
325.632
325.604
325.749
326.041
326.258
326.499
326.624
326.643
326.487
326.312
325.86
325.342
324.855
324.564
324.444
324.488
324.578
321.718
321.43
321.259
321.059
321.038
321.143
321.391
321.572
321.756
321.886
321.879
321.753
321.634
321.25
320.864
320.431
320.187
320.098
320.139
320.249
316.985
316.722
316.606
316.437
316.409
316.499
316.686
316.833
316.98
317.079
317.077
316.974
316.899
316.596
316.306
315.951
315.748
315.707
315.732
315.819
312.18
311.969
311.893
311.777
311.767
311.82
311.944
312.048
312.158
312.238
312.243
312.164
312.113
311.898
311.67
311.438
311.284
311.259
311.283
311.34
307.339
307.204
307.154
307.074
307.074
307.106
307.176
307.264
307.332
307.368
307.352
307.337
307.292
307.161
307.028
306.879
306.796
306.765
306.788
306.823
302.465
302.416
302.401
302.38
302.383
302.391
302.404
302.445
302.464
302.479
302.467
302.474
302.454
302.407
302.357
302.303
302.265
302.27
302.286
302.295
336.91
336.347
335.959
335.671
335.736
335.754
335.939
336.339
336.684
336.718
336.791
336.54
336.263
335.738
335.063
334.379
333.978
333.938
334.049
334.212
332.152
331.691
331.351
331.116
331.153
331.152
331.302
331.657
331.975
332.025
332.052
331.863
331.64
331.178
330.614
329.992
329.658
329.628
329.718
329.866
327.341
326.96
326.669
326.482
326.493
326.488
326.604
326.912
327.182
327.233
327.255
327.105
326.906
326.557
326.084
325.549
325.247
325.23
325.295
325.434
322.47
322.163
321.931
321.796
321.76
321.736
321.843
322.102
322.325
322.369
322.399
322.277
322.11
321.853
321.455
321.026
320.763
320.764
320.82
320.902
317.535
317.304
317.138
317.031
316.976
316.957
317.042
317.245
317.426
317.449
317.494
317.403
317.238
317.074
316.758
316.437
316.218
316.229
316.293
316.305
312.576
312.417
312.287
312.206
312.174
312.155
312.234
312.35
312.471
312.504
312.526
312.49
312.361
312.23
312.004
311.8
311.63
311.628
311.685
311.679
307.573
307.484
307.394
307.332
307.321
307.319
307.375
307.417
307.492
307.525
307.525
307.524
307.444
307.327
307.225
307.109
307.012
307.009
307.049
307.013
302.545
302.512
302.48
302.455
302.455
302.454
302.477
302.489
302.505
302.517
302.513
302.534
302.497
302.454
302.429
302.39
302.366
302.354
302.366
302.341
338.163
337.545
337.087
336.782
336.773
336.805
336.998
337.317
337.578
337.77
337.705
337.384
337.031
336.517
336.007
335.4
335.049
334.946
335.113
335.345
333.234
332.72
332.329
332.056
332.075
332.092
332.253
332.517
332.746
332.928
332.891
332.588
332.293
331.852
331.437
330.904
330.6
330.478
330.668
330.849
328.256
327.823
327.499
327.281
327.294
327.281
327.437
327.658
327.82
328.017
327.977
327.729
327.459
327.1
326.769
326.31
326.075
325.947
326.121
326.284
323.222
322.861
322.623
322.425
322.459
322.414
322.541
322.716
322.859
323.033
322.985
322.798
322.578
322.269
322.024
321.636
321.456
321.341
321.49
321.64
318.121
317.855
317.663
317.515
317.556
317.49
317.583
317.733
317.838
317.973
317.952
317.808
317.625
317.376
317.179
316.887
316.764
316.654
316.797
316.902
312.967
312.799
312.671
312.569
312.602
312.518
312.586
312.699
312.791
312.87
312.87
312.765
312.628
312.447
312.302
312.124
312.022
311.941
312.066
312.114
307.81
307.689
307.627
307.565
307.581
307.537
307.582
307.633
307.708
307.751
307.747
307.676
307.609
307.487
307.403
307.293
307.239
307.185
307.27
307.279
302.618
302.574
302.551
302.537
302.539
302.532
302.55
302.562
302.589
302.592
302.598
302.576
302.551
302.517
302.484
302.456
302.43
302.413
302.445
302.441
339.32
338.69
338.311
337.96
337.902
337.806
337.989
338.234
338.511
338.556
338.548
338.186
337.767
337.308
336.833
336.388
336.058
335.925
336.104
336.38
334.256
333.716
333.401
333.096
333.039
332.953
333.111
333.342
333.588
333.64
333.609
333.306
332.938
332.539
332.147
331.746
331.469
331.364
331.501
331.767
329.117
328.665
328.432
328.164
328.099
328.039
328.164
328.37
328.588
328.637
328.599
328.324
328.015
327.688
327.358
327.029
326.787
326.705
326.82
327.058
323.908
323.573
323.387
323.145
323.097
323.038
323.141
323.338
323.474
323.553
323.524
323.284
323.015
322.738
322.501
322.239
322.027
321.948
322.066
322.279
318.671
318.408
318.277
318.061
318.043
317.979
318.061
318.236
318.345
318.388
318.363
318.183
317.962
317.753
317.571
317.379
317.207
317.144
317.256
317.422
313.393
313.187
313.105
312.938
312.927
312.876
312.973
313.072
313.166
313.154
313.16
313.031
312.884
312.719
312.602
312.472
312.334
312.277
312.373
312.507
308.066
307.927
307.888
307.781
307.777
307.753
307.805
307.883
307.93
307.894
307.911
307.837
307.758
307.677
307.589
307.504
307.42
307.383
307.442
307.533
302.705
302.654
302.649
302.61
302.599
302.596
302.614
302.655
302.662
302.648
302.656
302.629
302.604
302.586
302.556
302.509
302.488
302.466
302.498
302.535
340.318
339.846
339.4
339.041
338.988
338.863
339.074
339.253
339.297
339.363
339.21
338.869
338.602
338.219
337.731
337.303
337.096
337.016
337.193
337.493
335.098
334.724
334.338
334.027
333.991
333.885
334.087
334.26
334.278
334.343
334.22
333.904
333.662
333.338
332.942
332.563
332.383
332.321
332.479
332.726
329.832
329.523
329.201
328.926
328.925
328.812
328.986
329.191
329.193
329.211
329.135
328.863
328.64
328.369
328.044
327.737
327.566
327.51
327.667
327.873
324.522
324.258
323.978
323.776
323.79
323.655
323.789
324.021
324.019
324.02
323.961
323.755
323.555
323.301
323.043
322.804
322.695
322.617
322.756
322.937
319.156
318.935
318.729
318.567
318.567
318.462
318.565
318.772
318.761
318.76
318.73
318.582
318.404
318.204
317.992
317.807
317.739
317.685
317.765
317.936
313.738
313.589
313.434
313.305
313.306
313.217
313.305
313.446
313.455
313.438
313.435
313.333
313.194
313.053
312.891
312.75
312.739
312.679
312.739
312.872
308.264
308.176
308.079
308.001
308.018
307.953
308.008
308.1
308.104
308.089
308.087
308.008
307.948
307.857
307.757
307.666
307.674
307.634
307.673
307.747
302.762
302.742
302.711
302.683
302.693
302.677
302.692
302.716
302.72
302.712
302.718
302.684
302.669
302.642
302.6
302.574
302.575
302.565
302.569
302.596
341.385
340.917
340.405
340.137
340.085
339.916
339.986
340.037
340.091
340.049
340.036
339.675
339.361
339.099
338.603
338.222
338.119
337.914
338.192
338.563
336.046
335.666
335.221
334.988
334.95
334.813
334.864
334.924
334.977
334.933
334.941
334.611
334.342
334.157
333.715
333.366
333.286
333.111
333.338
333.665
330.626
330.325
329.961
329.743
329.739
329.624
329.654
329.738
329.789
329.717
329.758
329.46
329.235
329.08
328.704
328.41
328.363
328.191
328.374
328.674
325.149
324.911
324.623
324.418
324.425
324.334
324.351
324.48
324.528
324.44
324.457
324.221
324.036
323.922
323.599
323.359
323.336
323.171
323.319
323.58
319.652
319.424
319.23
319.084
319.06
318.985
318.997
319.134
319.178
319.084
319.108
318.92
318.774
318.67
318.444
318.224
318.236
318.081
318.209
318.415
314.101
313.9
313.788
313.664
313.651
313.594
313.612
313.724
313.761
313.688
313.691
313.548
313.45
313.373
313.212
313.037
313.068
312.955
313.041
313.215
308.496
308.357
308.266
308.225
308.229
308.177
308.178
308.264
308.287
308.227
308.225
308.152
308.092
308.045
307.937
307.843
307.865
307.789
307.846
307.982
302.85
302.811
302.775
302.767
302.757
302.738
302.733
302.774
302.777
302.757
302.753
302.737
302.725
302.702
302.658
302.635
302.642
302.611
302.622
302.686
342.541
342.003
341.501
341.208
340.961
340.811
340.845
341.007
340.986
340.811
340.716
340.471
340.234
339.913
339.552
339.282
339.122
339.014
339.196
339.491
337.077
336.6
336.193
335.933
335.719
335.57
335.614
335.786
335.761
335.602
335.519
335.312
335.103
334.847
334.543
334.303
334.158
334.065
334.217
334.48
331.524
331.122
330.79
330.551
330.369
330.249
330.331
330.449
330.435
330.302
330.224
330.049
329.89
329.695
329.439
329.211
329.097
329.017
329.148
329.368
325.901
325.573
325.299
325.107
324.965
324.876
324.939
325.03
325.04
324.92
324.833
324.701
324.595
324.432
324.221
324.019
323.927
323.887
323.983
324.157
320.22
319.983
319.75
319.596
319.511
319.422
319.458
319.533
319.542
319.469
319.387
319.292
319.218
319.091
318.926
318.743
318.676
318.667
318.714
318.881
314.484
314.32
314.155
314.03
313.997
313.918
313.943
313.958
314.023
313.967
313.874
313.798
313.778
313.701
313.57
313.423
313.384
313.371
313.405
313.542
308.706
308.618
308.519
308.431
308.448
308.39
308.401
308.377
308.457
308.403
308.361
308.29
308.303
308.265
308.169
308.076
308.048
308.052
308.06
308.178
302.911
302.889
302.864
302.825
302.838
302.814
302.813
302.809
302.85
302.818
302.816
302.776
302.784
302.781
302.736
302.71
302.707
302.723
302.701
302.743
343.454
342.987
342.568
342.237
341.872
341.658
341.744
341.773
341.732
341.583
341.418
341.231
340.896
340.575
340.381
340.161
339.924
339.868
340.155
340.431
337.848
337.474
337.099
336.812
336.509
336.299
336.399
336.455
336.419
336.271
336.112
335.993
335.676
335.416
335.261
335.043
334.856
334.796
335.069
335.261
332.183
331.863
331.549
331.318
331.068
330.87
330.962
331.017
330.991
330.891
330.729
330.652
330.363
330.164
330.043
329.836
329.702
329.639
329.864
330.008
326.44
326.197
325.907
325.746
325.558
325.382
325.444
325.496
325.511
325.403
325.254
325.218
324.984
324.812
324.723
324.542
324.457
324.38
324.557
324.692
320.63
320.436
320.213
320.091
319.984
319.827
319.881
319.888
319.941
319.849
319.711
319.715
319.533
319.39
319.33
319.158
319.103
319.045
319.179
319.315
314.784
314.627
314.487
314.39
314.318
314.213
314.274
314.231
314.301
314.234
314.125
314.122
314.031
313.915
313.857
313.738
313.689
313.642
313.723
313.872
308.893
308.795
308.709
308.658
308.627
308.553
308.604
308.559
308.601
308.575
308.508
308.487
308.451
308.375
308.334
308.263
308.239
308.193
308.251
308.366
302.963
302.951
302.921
302.909
302.904
302.876
302.888
302.869
302.891
302.874
302.851
302.846
302.831
302.814
302.79
302.777
302.777
302.744
302.768
302.816
344.11
343.745
343.332
342.924
342.62
342.4
342.415
342.337
342.267
342.204
342.026
341.711
341.381
341.079
340.977
340.76
340.596
340.573
340.765
340.986
338.389
338.12
337.744
337.407
337.13
336.951
336.964
336.894
336.861
336.79
336.635
336.361
336.085
335.824
335.76
335.554
335.413
335.391
335.533
335.702
332.59
332.378
332.07
331.812
331.558
331.423
331.418
331.372
331.356
331.286
331.15
330.925
330.678
330.503
330.432
330.249
330.149
330.114
330.24
330.345
326.748
326.568
326.325
326.128
325.927
325.818
325.818
325.788
325.768
325.728
325.614
325.436
325.206
325.095
325.008
324.86
324.801
324.735
324.867
324.934
320.89
320.69
320.536
320.397
320.241
320.148
320.155
320.134
320.1
320.082
319.994
319.885
319.669
319.621
319.532
319.396
319.36
319.319
319.439
319.467
314.951
314.783
314.713
314.612
314.519
314.429
314.43
314.417
314.383
314.404
314.335
314.246
314.085
314.085
313.981
313.893
313.85
313.84
313.933
313.956
309.015
308.883
308.843
308.801
308.745
308.671
308.671
308.68
308.643
308.689
308.643
308.56
308.464
308.493
308.408
308.355
308.341
308.309
308.394
308.391
303.009
302.978
302.963
302.957
302.931
302.909
302.902
302.913
302.9
302.917
302.91
302.863
302.839
302.869
302.81
302.814
302.802
302.79
302.811
302.813
)
;

boundaryField
{
    hotSide
    {
        type            fixedGradient;
        gradient        nonuniform List<scalar> 
400
(
279.989
281.318
284.422
289.253
295.635
303.313
312.012
321.483
331.517
341.949
352.655
363.541
374.541
385.608
396.708
407.823
418.941
430.055
441.167
452.279
268.481
269.967
273.352
278.579
285.433
293.613
302.805
312.733
323.172
333.952
344.946
356.063
367.241
378.438
389.627
400.795
411.937
423.054
434.15
445.235
261.685
263.489
267.17
272.663
279.754
288.143
297.516
307.596
318.156
329.02
340.062
351.191
362.345
373.486
384.593
395.657
406.679
417.667
428.629
439.58
259.294
261.568
265.568
271.225
278.355
286.7
295.982
305.941
316.359
327.063
337.924
348.849
359.779
370.677
381.527
392.328
403.084
413.809
424.518
435.229
260.101
262.93
267.289
273.107
280.23
288.445
297.517
307.215
317.337
327.716
338.225
348.775
359.31
369.799
380.235
390.622
400.975
411.315
421.661
432.035
262.734
266.15
270.921
276.971
284.161
292.308
301.205
310.645
320.438
330.428
340.494
350.555
360.567
370.515
380.403
390.252
400.087
409.938
419.831
429.792
266.069
270.07
275.304
281.68
289.063
297.277
306.125
315.404
324.928
334.544
344.141
353.654
363.061
372.37
381.613
390.83
400.064
409.354
418.736
428.237
269.245
273.804
279.524
286.306
294.005
302.437
311.393
320.653
330.018
339.326
348.474
357.42
366.176
374.791
383.333
391.869
400.465
409.17
418.027
427.064
271.587
276.63
282.813
290.027
298.118
306.883
316.085
325.47
334.799
343.889
352.638
361.037
369.148
377.072
384.921
392.799
400.787
408.949
417.328
425.952
272.559
277.948
284.49
292.073
300.535
309.654
319.161
328.755
338.146
347.113
355.554
363.493
371.051
378.389
385.663
393.005
400.513
408.256
416.275
424.597
271.785
277.311
284.018
291.794
300.473
309.823
319.549
329.316
338.792
347.725
356.007
363.688
370.933
377.94
384.897
391.951
399.208
406.739
414.587
422.772
269.112
274.519
281.136
288.852
297.497
306.835
316.567
326.353
335.861
344.835
353.166
360.901
368.197
375.253
382.255
389.352
396.654
404.232
412.133
420.379
264.669
269.705
275.986
283.401
291.777
300.879
310.421
320.089
329.583
338.674
347.251
355.329
363.02
370.48
377.869
385.322
392.947
400.818
408.988
417.485
258.883
263.35
269.123
276.092
284.083
292.867
302.171
311.712
321.228
330.514
339.457
348.036
356.307
364.372
372.352
380.359
388.494
396.832
405.429
414.321
252.467
256.241
261.427
267.923
275.549
284.073
293.225
302.734
312.359
321.909
331.264
340.373
349.252
357.958
366.575
375.194
383.905
392.783
401.887
411.255
246.418
249.445
254.044
260.119
267.48
275.866
284.993
294.582
304.391
314.232
323.98
333.567
342.981
352.253
361.441
370.621
379.874
389.274
398.884
408.743
242.052
244.345
248.401
254.13
261.313
269.65
278.819
288.523
298.513
308.601
318.658
328.61
338.432
348.138
357.771
367.397
377.094
386.937
396.992
407.298
240.954
242.606
246.176
251.577
258.564
266.799
275.929
285.643
295.69
305.884
316.098
326.256
336.326
346.31
356.244
366.184
376.205
386.383
396.785
407.447
244.527
245.717
248.848
253.846
260.466
268.372
277.218
286.697
296.567
306.648
316.814
326.988
337.131
347.239
357.335
367.467
377.7
388.103
398.736
409.63
253.199
254.125
256.862
261.349
267.386
274.691
282.96
291.922
301.354
311.082
320.986
330.984
341.032
351.115
361.244
371.454
381.791
392.31
403.053
414.044
)
;
    }
    coldSide
    {
        type            mixed;
        refValue        uniform 300;
        refGradient     uniform 0;
        valueFraction   uniform 0.991591;
        source          uniform 0;
        value           nonuniform List<scalar> 
400
(
300.015
300.015
300.016
300.016
300.016
300.017
300.017
300.018
300.019
300.019
300.02
300.021
300.021
300.022
300.023
300.023
300.024
300.024
300.025
300.025
300.015
300.015
300.015
300.016
300.016
300.016
300.017
300.018
300.018
300.019
300.02
300.02
300.021
300.022
300.022