/*--------------------------------*- C++ -*----------------------------------*\
| =========                 |                                                 |
| \\      /  F ield         | OpenFOAM: The Open Source CFD Toolbox           |
|  \\    /   O peration     | Version:  2212                                  |
|   \\  /    A nd           | Website:  www.openfoam.com                      |
|    \\/     M anipulation  |                                                 |
\*---------------------------------------------------------------------------*/
FoamFile
{
    version     2.0;
    format      ascii;
    arch        "LSB;label=32;scalar=64";
    class       volScalarField;
    location    "0";
    object      relativeErrorField;
}
// * * * * * * * * * * * * * * * * * * * * * * * * * * * * * * * * * * * * * //

dimensions      [0 0 0 1 0 0 0];

internalField   nonuniform List<scalar> 
3200
(
0.00177026
0.00225366
0.00318128
0.00455316
0.0063454
0.00850589
0.0106564
0.0125487
0.0139333
0.0148847
0.0149793
0.0143071
0.0128994
0.0109783
0.008986
0.00677295
0.00549601
0.00364549
0.00301314
0.0027779
0.00159827
0.00204445
0.00286736
0.00386515
0.00554722
0.00766721
0.00941732
0.0111453
0.0124079
0.0132835
0.0132503
0.0124943
0.0113237
0.00963888
0.00784823
0.00609894
0.00449916
0.00339958
0.00263658
0.00253989
0.00158492
0.00167388
0.002539
0.003406
0.00472702
0.0066601
0.0081831
0.00968157
0.01045
0.011404
0.011252
0.0108866
0.00975575
0.00856099
0.00680866
0.00548187
0.00424807
0.00308724
0.00227759
0.00243269
0.00136723
0.00130481
0.00196764
0.00289943
0.00392645
0.00542801
0.00697564
0.00804581
0.00891969
0.00962476
0.00952689
0.00899453
0.00830404
0.00709429
0.00578474
0.00445764
0.00357598
0.00278991
0.00195134
0.00199053
0.00110981
0.0011781
0.00154359
0.00219192
0.00326234
0.00423702
0.00548598
0.00636215
0.00716803
0.00764364
0.00768649
0.00724633
0.00645709
0.00564753
0.00452419
0.00371143
0.00257254
0.00200802
0.00177674
0.00134368
0.000821471
0.00090893
0.00127016
0.0015055
0.00234222
0.0033493
0.00408308
0.00470634
0.00497521
0.00553814
0.00554638
0.0054584
0.00478954
0.00422809
0.0033091
0.00256814
0.00185479
0.00170782
0.00117587
0.00110511
0.000396671
0.000812366
0.00080309
0.000996521
0.00152202
0.00177193
0.00239851
0.00311659
0.00315535
0.00365546
0.00333291
0.0030756
0.00299066
0.00254198
0.00216092
0.00174852
0.00124353
0.00107092
0.000687126
0.000804908
0.00014166
9.72061e-05
0.000312643
0.000419865
0.00041776
0.000429046
0.000818685
0.000993844
0.00116559
0.00132886
0.00102685
0.000921274
0.00112837
0.000828599
0.000577743
0.000308489
0.000288931
0.00034628
7.83718e-05
0.000216605
0.000143617
0.000184471
0.000826191
0.00224726
0.00403308
0.00614675
0.00818029
0.0100617
0.0115277
0.0123281
0.0124458
0.0116038
0.0103062
0.00874544
0.00658469
0.00459087
0.00300143
0.00166165
0.000940251
0.000813095
4.24879e-05
0.000397933
0.000733621
0.0020741
0.00359659
0.00536781
0.00729951
0.00910142
0.0103962
0.0108903
0.0111814
0.0104519
0.0090991
0.00770263
0.00588359
0.00409742
0.00270813
0.00158471
0.00102676
0.000900077
9.07171e-05
0.000267174
0.00100276
0.00193748
0.00326752
0.00489867
0.00651619
0.00787636
0.00908579
0.00972627
0.00976635
0.00909565
0.00819142
0.00686907
0.00522273
0.0038698
0.00251821
0.00132019
0.00126142
0.000707147
0.000235163
0.000331522
0.000652642
0.00193113
0.00295505
0.00411846
0.00546559
0.00666584
0.00784776
0.00828282
0.0080897
0.00775997
0.00700409
0.00602744
0.00457162
0.00317566
0.00223012
0.00142058
0.000810351
0.000867958
0.000104258
0.000128009
0.000725774
0.00135228
0.00249538
0.00316745
0.00446269
0.00526271
0.00606817
0.00664766
0.00630054
0.00614153
0.00532453
0.00474743
0.00379943
0.00263403
0.00171514
0.00127571
0.000974628
0.00064288
8.36713e-05
0.000364177
0.00037608
0.00113183
0.00166035
0.00242871
0.00325738
0.00394977
0.00454821
0.00488925
0.00505048
0.00468319
0.00405391
0.00362551
0.0025758
0.00194731
0.00126317
0.000664089
0.000654568
0.000449382
0.000321974
4.24516e-05
0.000354865
0.000463526
0.00114945
0.00129226
0.00201038
0.00246397
0.0028732
0.00301723
0.00284045
0.00288756
0.00257955
0.00210728
0.00161758
0.00123305
0.000834743
0.000651607
0.00035474
0.000631626
6.28989e-05
4.51692e-05
5.72287e-06
0.000349247
0.0002589
0.000619856
0.000820136
0.000785041
0.00102352
0.00106975
0.000993343
0.00102351
0.000789303
0.000832427
0.000774363
0.000417776
0.000342573
8.85577e-06
7.21159e-05
0.000133586
0.00232552
0.00223272
0.00156799
0.000368989
0.00122718
0.00319592
0.00506408
0.00688852
0.00816245
0.00910878
0.00903549
0.00822449
0.00716768
0.00549351
0.00350845
0.00186236
0.00036029
0.000929362
0.00160781
0.00147238
0.00193262
0.00167762
0.00119894
0.000199951
0.00122326
0.0030269
0.00496553
0.00626181
0.00742488
0.0081982
0.00827525
0.00749936
0.00661857
0.00510012
0.00344007
0.00196651
0.000447404
0.000674142
0.00113653
0.00136835
0.00152916
0.00133355
0.000955043
5.14727e-05
0.00122154
0.00264598
0.00419694
0.00553188
0.00657387
0.00723458
0.00752267
0.00682548
0.00562397
0.00459263
0.00318274
0.00189007
0.000376251
3.94946e-05
0.000842961
0.000842987
0.00125869
0.00112843
0.000615936
8.84473e-05
0.00127464
0.00220857
0.00356493
0.00466316
0.00567144
0.00606992
0.00625556
0.00583351
0.00505983
0.00393068
0.00288314
0.00156916
0.000457572
0.000193714
0.000522195
0.000578803
0.000711122
0.000872055
0.000543471
0.000215384
0.00106407
0.00183422
0.00316902
0.00384433
0.00455235
0.00501452
0.00498044
0.00458033
0.00411461
0.00348805
0.00239877
0.00151396
0.000472312
5.20965e-05
0.000479895
0.0004445
0.000587825
0.000462981
0.000271918
6.90116e-05
0.000812882
0.00155379
0.00204657
0.00289302
0.00348255
0.00388929
0.00353132
0.00333426
0.0029175
0.00245408
0.00181581
0.000944711
0.000333351
0.000144513
0.000454145
0.000324611
0.000368388
0.00032277
0.000133718
0.000105915
0.000434899
0.000719085
0.00124829
0.0019809
0.00204983
0.00223961
0.00245945
0.00197682
0.00173674
0.00119922
0.000891638
0.000853879
0.000334537
5.29478e-05
8.18397e-05
7.05624e-05
0.000178944
4.00593e-05
4.05355e-07
0.000108134
0.000335926
0.000248936
0.000304768
0.00070647
0.000716438
0.000880029
0.000715606
0.000826543
0.000558403
0.000458429
0.000265709
0.000236484
7.68487e-05
0.000214685
5.80499e-05
0.000173621
0.00466821
0.00479478
0.004328
0.003186
0.00170058
5.33067e-05
0.00185509
0.00367552
0.00495757
0.0054304
0.00559257
0.00507055
0.00385739
0.00224732
0.000569098
0.0012634
0.00253783
0.00334623
0.00393975
0.00384223
0.00391624
0.0038621
0.00344499
0.00268422
0.0014151
0.000423911
0.00193934
0.00333952
0.00436813
0.00514272
0.00532538
0.00484119
0.00374308
0.00219093
0.000590093
0.000609595
0.00203242
0.00267557
0.00326123
0.00330845
0.00318793
0.00314876
0.00246972
0.00196353
0.000851002
0.000287912
0.00174687
0.00295546
0.00409241
0.00470428
0.00481067
0.0042141
0.0030946
0.00229485
0.000968413
0.000499894
0.0015837
0.00215508
0.00246849
0.0026069
0.00259362
0.00257967
0.00216091
0.00163972
0.000791234
0.00038422
0.00160692
0.00275213
0.00364494
0.00395694
0.00386423
0.00372234
0.00303215
0.00184148
0.000982543
0.000426425
0.00111604
0.00167477
0.0020881
0.00208568
0.00207782
0.00207839
0.00177824
0.00112934
0.000589396
0.000762416
0.00131951
0.00212701
0.00292453
0.00321142
0.00331519
0.00299836
0.0023704
0.00175951
0.000774169
8.48315e-06
0.00076937
0.00112316
0.00149239
0.00134264
0.00137499
0.00139411
0.00118096
0.000911731
0.000334573
0.000415568
0.000988603
0.00160589
0.0021818
0.00262885
0.00259322
0.00223416
0.00194587
0.0012078
0.000513968
0.000155471
0.000483296
0.000899633
0.00132941
0.00107259
0.000558523
0.000789444
0.000600382
0.000431981
6.91607e-05
0.000338057
0.000587488
0.00102877
0.00132833
0.0013896
0.00158542
0.0013468
0.00115694
0.000862606
0.000462804
0.000126009
0.000205534
0.000703186
0.000548765
0.00054004
0.000234904
0.000120317
0.000182921
0.000284029
0.000148358
0.000307139
0.000159566
0.000124276
0.000441491
0.000661811
0.000623303
0.000457289
0.00044706
0.000184825
0.000183934
0.000114368
0.000239498
0.000125375
0.000214297
0.000213347
0.00670519
0.00668107
0.00649288
0.00562951
0.00431678
0.00272935
0.00117771
0.000300171
0.00162509
0.00211518
0.00236695
0.00177837
0.000480503
0.00079567
0.00234084
0.00366749
0.00503032
0.0055683
0.00612687
0.00578663
0.00572165
0.00566378
0.00553841
0.00458321
0.00364787
0.00251207
0.000810136
0.000653498
0.00173536
0.00219682
0.00202351
0.00171586
0.000860157
0.000482445
0.00162971
0.00302787
0.00393059
0.00450199
0.00513834
0.00476466
0.00456197
0.00479904
0.00461888
0.00389973
0.00286997
0.00187985
0.000460229
0.000735676
0.00165731
0.00219736
0.00228133
0.00168532
0.000933541
9.6634e-05
0.00139493
0.00234283
0.00323308
0.00394857
0.00395382
0.00390509
0.00373534
0.00385609
0.00366759
0.00297005
0.00241832
0.00140648
0.000340987
0.000691472
0.00140585
0.00182468
0.00190126
0.00147821
0.000958047
3.55337e-06
0.000988732
0.00190218
0.00247898
0.00310102
0.00338314
0.00308676
0.00292877
0.00295736
0.00278804
0.00253418
0.00169239
0.00107039
0.000153317
0.000416871
0.00122817
0.00160091
0.00154489
0.00120301
0.000778646
0.000308375
0.000813873
0.00134605
0.00187806
0.00235138
0.0025598
0.00235751
0.00210497
0.00204673
0.00210544
0.0016391
0.000959124
0.000740819
0.000136295
0.000579576
0.00110933
0.0011481
0.0013066
0.00110043
0.000716337
5.50023e-05
0.000501534
0.000855627
0.00129444
0.00165101
0.00187088
0.00161889
0.00124121
0.00124522
0.00132377
0.00101095
0.000771781
0.000462011
7.79153e-05
0.000220666
0.000468908
0.000721306
0.000865009
0.000620177
0.000643702
6.96636e-05
0.000394018
0.000579067
0.000818033
0.000854565
0.00105555
0.00114593
0.000299643
0.000358023
0.000478935
0.000224475
0.000286163
5.22661e-05
0.000186422
5.77287e-05
7.28169e-05
0.000259127
0.000166915
0.000270114
0.000123068
0.000129949
3.66082e-05
0.000190495
0.000295131
0.000433509
0.000496964
0.000488879
0.00815151
0.00845393
0.0083762
0.00766657
0.00690173
0.00517242
0.00387572
0.00266536
0.00152135
0.00103644
0.000917862
0.00127191
0.00212881
0.00363571
0.00482561
0.00612943
0.00699088
0.00744751
0.00749368
0.00721487
0.00697581
0.00718099
0.00714838
0.00646559
0.00574934
0.00452763
0.00300181
0.0019884
0.00126911
0.00036373
0.000425736
0.000884988
0.00186651
0.00284434
0.0040945
0.00486497
0.00582095
0.00644536
0.00632703
0.00602615
0.00588617
0.00616345
0.0057631
0.00565405
0.0046614
0.0037462
0.00260488
0.00159791
0.000680284
0.000290858
0.000277837
0.00067194
0.00108174
0.00224104
0.00309882
0.00414328
0.00482221
0.00518008
0.00522692
0.00498113
0.0048898
0.00493717
0.00489228
0.00415456
0.00390893
0.00278492
0.0020167
0.00112406
0.000489643
0.000217383
0.000351396
0.000450281
0.000902535
0.00154056
0.00266287
0.00340635
0.00384196
0.00417116
0.00426782
0.00395344
0.00387472
0.00358045
0.00354375
0.00344277
0.00275636
0.00212654
0.00139355
0.000936679
0.000337968
0.000256042
0.00015478
9.05757e-05
0.000443296
0.00116637
0.00201429
0.00258133
0.00288127
0.00307416
0.00310863
0.00300717
0.00273721
0.00282962
0.0026374
0.00243382
0.00200039
0.0015188
0.00105209
0.000481609
0.000200227
0.000141172
4.7183e-05
5.67392e-05
0.000374885
0.000710949
0.00131265
0.00162663
0.00211807
0.00235033
0.00229152
0.00230955
0.00150661
0.00166503
0.00139109
0.0013955
0.00107132
0.00100704
0.000610415
0.000139052
0.000189505
0.000164508
4.98747e-05
1.057e-05
0.000173442
0.00048726
0.000597727
0.000938889
0.00115784
0.00125154
0.00149087
0.00167173
0.000438354
0.000506452
0.000429106
0.000498337
0.000538511
0.000403968
0.000227834
1.37972e-05
0.000184488
5.53163e-05
6.38492e-05
8.16316e-05
3.47985e-05
0.000156869
0.000339571
0.000384437
0.0004224
0.000338057
0.000583861
0.000805495
0.00925411
0.00973713
0.00964807
0.00938529
0.00858026
0.00757493
0.00631469
0.00532075
0.00432784
0.00379952
0.00369821
0.004106
0.0047625
0.00573802
0.00685507
0.00812508
0.00876661
0.00892324
0.00865076
0.00833663
0.00788006
0.00825853
0.00821053
0.00806027
0.00730719
0.00626349
0.00525194
0.00433378
0.0035891
0.00301803
0.00294408
0.0032426
0.00406586
0.00473933
0.00593121
0.00664871
0.00728745
0.00753081
0.00730199
0.00681064
0.00653467
0.0068167
0.00676954
0.00659424
0.00598782
0.00515443
0.00422627
0.00354596
0.00277997
0.00240233
0.0022705
0.0026228
0.00319551
0.00391962
0.00490619
0.00554235
0.00602348
0.00616359
0.00612288
0.00576915
0.00541274
0.00565992
0.00584014
0.00533175
0.00487035
0.00426318
0.00349548
0.00291052
0.00214954
0.00202098
0.00188211
0.00221119
0.00246463
0.00329316
0.00387427
0.00458986
0.00501805
0.00488812
0.00496918
0.00453729
0.00430933
0.0042594
0.00418785
0.00431744
0.00366531
0.00309098
0.00291372
0.00211385
0.00167025
0.00141757
0.00140681
0.00136174
0.00174799
0.00247461
0.00294348
0.00359864
0.0038333
0.00409093
0.00378506
0.00354598
0.00304761
0.00285133
0.00320519
0.00318383
0.00289528
0.00236047
0.0018446
0.00159758
0.00117879
0.00104434
0.000724266
0.00111371
0.00123942
0.00174182
0.00202951
0.00231049
0.00279358
0.00287402
0.00267811
0.00239549
0.0015937
0.00175413
0.00206942
0.00195029
0.00169115
0.00141554
0.0012049
0.000875753
0.000728115
0.000808786
0.000535804
0.000678205
0.000809631
0.00106349
0.00117994
0.00133273
0.00170642
0.00167989
0.00158479
0.00173863
0.000650612
0.000618569
0.000662805
0.000668158
0.000476432
0.000275988
0.000313864
0.000329468
0.000272606
0.000159942
0.000158471
0.000262045
0.000356359
0.00025322
0.000488053
0.000663647
0.000434169
0.000552008
0.000579462
0.000492111
0.00978543
0.010187
0.0106472
0.01046
0.00992289
0.00900449
0.00830778
0.00712695
0.00641003
0.0057833
0.0061198
0.00628127
0.0068806
0.00786151
0.00872582
0.00935264
0.00952088
0.00962426
0.00916787
0.00867541
0.00849786
0.00886145
0.00921254
0.0092427
0.00844774
0.00785935
0.00700903
0.0061376
0.00538108
0.00506203
0.00493474
0.00533566
0.00590296
0.00642172
0.00718786
0.00802224
0.00823685
0.00818422
0.00795111
0.00730846
0.00704623
0.00736557
0.00772575
0.0077165
0.00733013
0.00646635
0.00577606
0.00502505
0.00456223
0.004054
0.00405654
0.00438931
0.00486636
0.00538419
0.00622041
0.00651414
0.0067152
0.00698936
0.00653656
0.00616618
0.00576251
0.00608428
0.0060299
0.00612676
0.00566733
0.00521735
0.00484437
0.0040745
0.00363343
0.00348818
0.00340792
0.00346631
0.00389884
0.00424598
0.00492395
0.0053818
0.00554092
0.00563432
0.0055153
0.00495065
0.00447151
0.00490418
0.00473529
0.00495924
0.00441591
0.00398946
0.0035356
0.0031168
0.00282007
0.00252491
0.00249156
0.00266592
0.00296061
0.00364802
0.0038368
0.00427096
0.00451409
0.00438272
0.00396667
0.00379943
0.0032878
0.0034751
0.00352409
0.00356169
0.00329918
0.00306752
0.00260062
0.00241862
0.00205623
0.00168816
0.00183477
0.00184479
0.00209916
0.00246492
0.00285993
0.00297171
0.00292904
0.00317095
0.00308556
0.00279377
0.00174752
0.00215291
0.00219597
0.00210346
0.00197513
0.00172959
0.00168142
0.00136786
0.00130502
0.00113836
0.00123058
0.00119001
0.00118618
0.00159006
0.00142925
0.0019443
0.00197182
0.00192268
0.00186393
0.00159782
0.000504721
0.0009004
0.000658143
0.000662793
0.000694187
0.000624644
0.000813198
0.000444305
0.000532614
0.000416289
0.000407762
0.000378965
0.000397291
0.000474238
0.000666761
0.000806103
0.000479376
0.000865652
0.000513357
0.000688611
0.00956593
0.0104898
0.0110988
0.0112113
0.0110482
0.0103154
0.00950776
0.00879412
0.00831685
0.00770897
0.0077863
0.00827072
0.00844871
0.00897972
0.00987395
0.010079
0.0103643
0.0101189
0.0093651
0.00850544
0.00823345
0.00899182
0.00955236
0.00950113
0.00945111
0.0088143
0.00845969
0.00740962
0.00702988
0.00667116
0.00665799
0.00658784
0.00713327
0.007852
0.00833174
0.00864528
0.00855333
0.00857859
0.00797539
0.00713801
0.00706081
0.00769876
0.00790466
0.00815408
0.00799331
0.00754831
0.00670136
0.00640113
0.00594901
0.00563642
0.00544171
0.005541
0.0061406
0.00653987
0.00699747
0.00725762
0.00718222
0.0071123
0.00683377
0.00609162
0.00570846
0.00645316
0.00664102
0.00631073
0.00644857
0.00592492
0.00553043
0.00505587
0.00453267
0.00430799
0.004212
0.00442587
0.0049273
0.00523212
0.00553716
0.00580806
0.00598008
0.00582477
0.00534021
0.00491148
0.00469244
0.00500941
0.00503643
0.00510692
0.00494747
0.00462465
0.00397015
0.00388052
0.00371914
0.00339411
0.00370082
0.00356777
0.00369981
0.00410564
0.00448175
0.00439903
0.00461895
0.00436151
0.00431241
0.00402107
0.00335704
0.0031943
0.00350272
0.00372729
0.00350432
0.00343819
0.00317013
0.00290365
0.00271688
0.00243375
0.00245232
0.00250905
0.00272368
0.0028902
0.00303084
0.00319485
0.00329432
0.00344935
0.00285629
0.00287049
0.00176196
0.00187696
0.00218567
0.00230872
0.00226389
0.00205532
0.00182979
0.00165829
0.00155277
0.00133054
0.0015289
0.00139752
0.00168425
0.0016242
0.001959
0.00179673
0.00202255
0.00193893
0.0019738
0.00144737
0.000449923
0.000670192
0.000777328
0.000791228
0.000598562
0.000523023
0.000860805
0.00077416
0.00041031
0.000566857
0.00065066
0.000537129
0.000465677
0.000514466
0.000397406
0.000504822
0.000521916
0.000882967
0.000726022
0.000481978
0.0089889
0.0100314
0.0107887
0.011092
0.0114771
0.0109001
0.0103679
0.00996522
0.00931685
0.00912266
0.00910718
0.00916781
0.00946148
0.00984683
0.0103362
0.0104881
0.0103981
0.00991039
0.0089362
0.00797459
0.00776987
0.00852245
0.00922737
0.00963619
0.00963798
0.00943716
0.00912863
0.00856903
0.00781563
0.00760627
0.00781346
0.00779092
0.00834216
0.00821599
0.00894791
0.00900756
0.00874293
0.00823598
0.00751665
0.00667093
0.00635281
0.00714332
0.00802088
0.00807683
0.00832127
0.00782261
0.00767881
0.0071946
0.00661167
0.00637217
0.00655357
0.00652531
0.0067511
0.00723797
0.00730023
0.00761158
0.00734101
0.00707885
0.0062595
0.00564499
0.00529417
0.00575627
0.00648611
0.00655718
0.0067467
0.00650872
0.00588475
0.00601126
0.0053363
0.00531735
0.00525607
0.00537302
0.00555482
0.00574133
0.00604871
0.00603356
0.00597112
0.00581191
0.00511088
0.00444989
0.00424576
0.00450831
0.0050621
0.00508202
0.00513794
0.00499008
0.00471882
0.00440913
0.0042267
0.00411056
0.00396863
0.00410426
0.00439084
0.00421607
0.00434416
0.00468894
0.00459836
0.00446228
0.00414754
0.00343881
0.00295258
0.00328642
0.00350876
0.00387517
0.00366551
0.00341199
0.0032129
0.00309111
0.00313838
0.00278903
0.00279971
0.00295285
0.0030573
0.00301161
0.00320099
0.00320568
0.00321609
0.00331359
0.00278456
0.00255803
0.00195461
0.00199659
0.00230974
0.00220609
0.00234878
0.00206839
0.00211825
0.00190511
0.00184244
0.00166109
0.00176488
0.00185055
0.00168013
0.00203613
0.00204812
0.00197675
0.00196092
0.00192915
0.00159248
0.00145658
0.000823287
0.000709509
0.000929116
0.00111035
0.000987222
0.000750392
0.000723479
0.000674316
0.000589822
0.000451996
0.000775939
0.000548978
0.000705138
0.000551587
0.000682148
0.000893579
0.000605904
0.000621031
0.000690187
0.000393626
0.00778864
0.00902862
0.0101965
0.0106876
0.0108528
0.0109236
0.0108346
0.0103651
0.00999206
0.00987936
0.00961367
0.00966831
0.010005
0.0101962
0.0102782
0.0103067
0.00978846
0.0089983
0.0078608
0.00678067
0.00675037
0.00760441
0.00856709
0.00919916
0.0095484
0.00933677
0.00928852
0.00875382
0.00860721
0.00823845
0.00822457
0.00826571
0.0086
0.00869364
0.00868199
0.00870683
0.00838903
0.00777561
0.0067616
0.00565177
0.00566605
0.00632056
0.007172
0.00761328
0.00803428
0.00795975
0.00764939
0.00749236
0.00694526
0.0067386
0.00671768
0.0068934
0.00716674
0.00721149
0.00730416
0.00729984
0.00698714
0.00623969
0.00554743
0.00469306
0.00459992
0.00504164
0.00587502
0.00625133
0.00649596
0.00643061
0.00618297
0.00595086
0.00572483
0.0054222
0.00553394
0.00564058
0.00574054
0.00594004
0.00606783
0.00600674
0.0055553
0.0052927
0.00443051
0.00374242
0.0033513
0.00406339
0.00450949
0.00492359
0.00486521
0.0050067
0.00479806
0.00453402
0.00425391
0.00446914
0.00421203
0.00430892
0.00445074
0.004646
0.00456244
0.00442735
0.00439733
0.00403277
0.00328537
0.00295639
0.00253247
0.00295027
0.00323304
0.00339656
0.00374262
0.00360781
0.00350899
0.00339236
0.00317587
0.00325133
0.00327613
0.00328073
0.00323581
0.00311054
0.00323176
0.00325268
0.0030307
0.00286182
0.0024478
0.00203267
0.00143197
0.00169077
0.00187801
0.00226537
0.00227511
0.00219728
0.0019827
0.00212326
0.00171072
0.00175014
0.00192529
0.00184353
0.00186301
0.0016538
0.00209215
0.00210339
0.00203089
0.00205799
0.00112945
0.00133343
0.000649679
0.000499472
0.000719838
0.000611198
0.000747073
0.00066339
0.000820274
0.00057898
0.000449696
0.000843823
0.00061869
0.000785369
0.000713643
0.000636938
0.000507941
0.000695611
0.000565302
0.000525415
0.000414151
0.000631226
0.00573192
0.00713231
0.00855568
0.00954972
0.00993036
0.0101339
0.0102931
0.00999012
0.00967222
0.00973493
0.00957633
0.00953724
0.00961078
0.00968816
0.00944688
0.0092034
0.00868111
0.00743167
0.00610981
0.00473698
0.00504358
0.00602886
0.00747249
0.00814138
0.00828278
0.00874945
0.00863929
0.00828911
0.00849756
0.00836631
0.00798399
0.0081374
0.00794042
0.00821169
0.00795723
0.00799575
0.00718818
0.00635728
0.00512544
0.00392487
0.00436583
0.00521276
0.00595794
0.00665394
0.00697814
0.00740786
0.00719377
0.00700202
0.00701442
0.0068682
0.00704155
0.00678183
0.00678929
0.00684129
0.00666618
0.00641556
0.00619772
0.00532532
0.00420547
0.00324151
0.00345992
0.00397814
0.0047845
0.00547233
0.00573834
0.00593683
0.00585084
0.00576315
0.00565812
0.0054522
0.00533991
0.0053506
0.00552474
0.00544849
0.00549211
0.00520971
0.00475125
0.00401379
0.00320348
0.00267077
0.00270074
0.00316186
0.00393085
0.00425049
0.00447607
0.00446514
0.00462172
0.00448858
0.00437293
0.00425271
0.00425742
0.00432305
0.00426509
0.00426528
0.00425322
0.00420618
0.00373023
0.00321348
0.00268969
0.00202897
0.0019122
0.00227936
0.00292395
0.00299018
0.00319877
0.00303792
0.00346316
0.00324312
0.00310358
0.00303282
0.00301021
0.00317051
0.0030144
0.00297028
0.00304917
0.00287505
0.00274316
0.00241525
0.00185755
0.0013174
0.00110318
0.00149738
0.00152475
0.00196753
0.00209838
0.00191134
0.00191861
0.00198656
0.00198031
0.00185576
0.00201635
0.00185417
0.00188315
0.00189727
0.00186209
0.00179097
0.00163332
0.00133445
0.00123942
0.00095798
0.000453968
0.000286804
0.000393455
0.000874657
0.000681273
0.000823094
0.000853125
0.000688689
0.000426741
0.00076949
0.000508039
0.000477194
0.000482064
0.000797729
0.000464739
0.000561827
0.000494755
0.000558589
0.000559392
0.000254118
0.00346424
0.00511717
0.00670309
0.00759476
0.00839176
0.00885022
0.00894854
0.00896068
0.0088886
0.00887141
0.00882009
0.00877391
0.0085102
0.00852502
0.00815285
0.00746928
0.00663643
0.00551492
0.00392057
0.00225528
0.00306789
0.0042507
0.00542882
0.00653211
0.0070255
0.00767796
0.00777991
0.00765247
0.0073558
0.00742075
0.00740087
0.0073921
0.00726337
0.0073829
0.00689734
0.00631752
0.00566797
0.00456917
0.0030987
0.00189029
0.00241626
0.00362173
0.00438563
0.00522264
0.00606471
0.00631927
0.00646677
0.00624766
0.00632982
0.00636775
0.00604979
0.00614471
0.00613537
0.00574797
0.00564288
0.0051569
0.00471575
0.00380544
0.00255905
0.00126375
0.00188409
0.00272686
0.00378619
0.00438098
0.00483886
0.00487218
0.00535374
0.00495376
0.00515855
0.00502662
0.00503498
0.00500976
0.00507087
0.00470369
0.00455031
0.00426417
0.00372646
0.00308408
0.00193447
0.000985304
0.00143744
0.00217163
0.00276922
0.00352341
0.00362698
0.0037325
0.00406746
0.00392323
0.00370156
0.00371735
0.00403902
0.0037599
0.00381149
0.00371512
0.00349334
0.00318697
0.00278394
0.00226713
0.00139149
0.000756622
0.000917945
0.00154523
0.00229344
0.00242834
0.00249842
0.00290053
0.00307502
0.00279886
0.00292035
0.00282255
0.00270723
0.00263153
0.00274018
0.00284839
0.00262848
0.00255245
0.00202706
0.00138337
0.00101917
0.000414903
0.000364908
0.000974724
0.00103596
0.00146545
0.00157703
0.00153822
0.00183858
0.00171962
0.00186836
0.00160799
0.00156733
0.00156752
0.00156487
0.00150711
0.00140262
0.00175241
0.00121786
0.000960069
0.000580736
0.000117637
9.78883e-05
0.000524659
0.000247516
0.00052333
0.000322854
0.000607193
0.000505327
0.000564938
0.000603053
0.000587108
0.000642752
0.000649736
0.000445864
0.000579403
0.000728191
0.000606837
0.000444994
9.53569e-05
0.000228473
6.79741e-05
0.000451392
0.00221837
0.00360578
0.00525722
0.00614429
0.00665942
0.00703663
0.00734286
0.00724513
0.0072238
0.00711221
0.00699808
0.00690578
0.00645401
0.00589066
0.00499777
0.00402582
0.00266504
0.00104828
0.000583558
0.000250401
0.00163117
0.00333861
0.00432848
0.0050014
0.00565723
0.00587071
0.00610684
0.00619013
0.00621286
0.0060508
0.0057777
0.00588231
0.00545394
0.00504523
0.00422287
0.00332679
0.00201013
0.000699049
0.000894511
4.82942e-06
0.00150119
0.00239235
0.00356934
0.00432809
0.00453546
0.00493955
0.00503838
0.00517816
0.00499687
0.00475003
0.00489225
0.00479437
0.00456965
0.00417235
0.00343573
0.00263991
0.00168745
0.000283304
0.00108874
0.000242526
0.000952059
0.00199982
0.00281296
0.00335679
0.00354079
0.00410084
0.00393105
0.00393357
0.00405974
0.00389896
0.00370965
0.00381122
0.00375263
0.00327292
0.00268112
0.00231089
0.00105589
0.000287645
0.00111686
5.31582e-05
0.000700442
0.00147066
0.00208347
0.00246504
0.00273482
0.00307448
0.00296082
0.00325164
0.00296753
0.003146
0.00317695
0.00297135
0.0027348
0.0026344
0.00193813
0.00163775
0.000857373
3.82785e-05
0.000789812
0.00024074
0.000298194
0.00125112
0.00140674
0.00204895
0.00193624
0.00213917
0.0020673
0.00216276
0.00220362
0.00216683
0.00224476
0.00188436
0.00201098
0.0017864
0.00142176
0.00114712
0.000569711
0.000105718
0.000753342
5.46797e-05
0.000441694
0.000591054
0.000797416
0.00116775
0.00114793
0.0014677
0.00128198
0.0016178
0.00131809
0.00137234
0.00128841
0.0011945
0.00100242
0.000927276
0.000773073
0.000479301
1.90392e-05
0.000391585
0.000362002
7.05657e-05
4.4984e-05
5.10819e-05
0.000550284
0.000489833
0.000512233
0.000445417
0.000593128
0.000523678
0.000485567
0.000470565
0.000526815
0.000349869
0.00058473
0.000342324
0.000379848
0.000119999
5.88631e-05
0.000141355
0.000166016
0.00312095
0.00148616
0.000341362
0.001997
0.00305548
0.00413848
0.00435833
0.00482754
0.00467879
0.00494372
0.0048977
0.00473476
0.00440163
0.00389361
0.00316791
0.00239136
0.00113419
0.000585118
0.00257216
0.0043969
0.00302055
0.00150093
0.000145298
0.00144669
0.00246555
0.00310499
0.00374508
0.00398574
0.00405689
0.00420057
0.00392744
0.00388474
0.00346434
0.0030934
0.00260704
0.00157298
0.000677203
0.000784145
0.00258852
0.00411824
0.00276735
0.001481
0.000132939
0.00112075
0.00196459
0.00248968
0.00306404
0.00306928
0.00319896
0.00328513
0.00318835
0.00301888
0.00257133
0.00223917
0.00197502
0.00123535
0.000216304
0.00106014
0.00223974
0.00367323
0.00249083
0.00132582
6.80016e-05
0.000532267
0.00152247
0.00200811
0.00232013
0.00255421
0.00259952
0.00253294
0.00258812
0.00237486
0.00222614
0.00189813
0.00158762
0.000831732
0.000122499
0.00115342
0.00212845
0.00338571
0.00220816
0.00126351
0.000184955
0.000521078
0.00117089
0.00164388
0.00180646
0.00212598
0.00180795
0.0018885
0.00169972
0.00195361
0.00172441
0.0014051
0.000914246
0.000644445
0.000104057
0.000726116
0.00187329
0.00281349
0.00138724
0.000904049
0.000253403
0.000201746
0.000787981
0.00104771
0.00108209
0.00109885
0.0014546
0.00135061
0.00130417
0.00115478
0.00122388
0.000767087
0.00063611
0.000327655
0.000174557
0.000835055
0.00125082
0.00226424
0.000882751
0.000358528
0.000261944
0.000290728
0.000456291
0.000454996
0.000869358
0.000747731
0.000896325
0.00097947
0.000679559
0.000562411
0.000938346
0.000591823
0.00047973
0.000253827
8.6348e-05
0.000510316
0.000851493
0.00116991
0.000442951
2.87074e-05
1.84805e-05
0.000121943
0.000197234
0.000183156
0.000381627
0.000178659
0.000198521
0.000215511
0.000307277
8.6533e-05
0.000275251
7.84495e-05
0.000111121
0.000122382
0.000111122
3.37119e-05
2.26386e-05
0.00030514
0.00748056
0.00571082
0.00362303
0.00188744
0.000595216
0.000264521
0.00108623
0.00156092
0.00190977
0.00194288
0.00192049
0.00169552
0.00115921
0.000439921
0.000156829
0.00134777
0.00287427
0.0046408
0.00664621
0.00874187
0.00671599
0.00512149
0.00347991
0.00192954
0.000782604
8.2074e-05
0.000814162
0.00119091
0.00138019
0.00129138
0.00127249
0.00111591
0.000734534
0.000154882
0.000576277
0.00146968
0.00269951
0.00423243
0.0061803
0.00788707
0.00594217
0.00444177
0.0031269
0.00201636
0.000740215
2.17391e-05
0.000491305
0.000662753
0.000875591
0.00092837
0.00104644
0.000770274
0.000458339
3.00795e-05
0.000706735
0.00155079
0.00263623
0.00425091
0.00569126
0.00692315
0.00520268
0.00404082
0.00274094
0.00163719
0.000750811
0.000121436
0.000304367
0.000420872
0.000520823
0.000496273
0.00057435
0.00050633
8.92333e-05
0.000281156
0.000822039
0.00148934
0.00237706
0.00365773
0.00487498
0.00608092
0.00414973
0.00331427
0.00227163
0.00163977
0.000880211
0.000270153
0.000155063
0.000480217
0.000180748
0.000343719
0.00038618
0.000233263
0.000126108
0.000346781
0.00072885
0.00136568
0.00188193
0.00275524
0.00381205
0.00479095
0.00292923
0.00240656
0.00184827
0.0010594
0.000653911
0.000387263
0.000108435
0.000116047
0.000333715
0.000270782
0.00024484
0.000120429
0.000238884
0.00031744
0.000547214
0.00102756
0.00145037
0.00222175
0.00298268
0.00378573
0.00165609
0.0015127
0.00105498
0.0006845
0.000452001
0.000158533
6.20149e-05
0.000149102
1.36407e-05
0.000402455
9.70999e-05
1.29087e-05
1.04321e-05
6.64346e-05
0.000531121
0.000691323
0.00087026
0.00112059
0.00202282
0.00218671
0.000730249
0.00041739
0.000372188
0.00033995
9.64669e-06
0.00017815
8.5648e-05
7.90031e-05
0.000179337
3.09797e-05
0.000165263
1.77674e-05
1.95291e-05
0.000348272
0.00025136
3.31424e-05
0.00032624
0.000483933
0.000532782
0.000681979
0.0122872
0.0102349
0.00799698
0.00628147
0.0047107
0.0037683
0.00281083
0.00214966
0.00206064
0.00183267
0.00181375
0.00224684
0.00266049
0.00324956
0.00416847
0.00565255
0.00713654
0.00909568
0.0112814
0.0134523
0.0110218
0.00942857
0.00748042
0.00556327
0.00450323
0.0035473
0.00265513
0.00232263
0.00195749
0.00188674
0.00222987
0.00220785
0.00267429
0.00320948
0.00416675
0.00517431
0.00671856
0.00853698
0.0102935
0.0120769
0.00978287
0.00820546
0.006535
0.00512366
0.00425354
0.00321635
0.00260201
0.00220368
0.00201258
0.00187004
0.00175937
0.0019931
0.002507