/*--------------------------------*- C++ -*----------------------------------*\
| =========                 |                                                 |
| \\      /  F ield         | OpenFOAM: The Open Source CFD Toolbox           |
|  \\    /   O peration     | Version:  2212                                  |
|   \\  /    A nd           | Website:  www.openfoam.com                      |
|    \\/     M anipulation  |                                                 |
\*---------------------------------------------------------------------------*/
FoamFile
{
    version     2.0;
    format      ascii;
    arch        "LSB;label=32;scalar=64";
    class       volScalarField;
    location    "0";
    object      T;
}
// * * * * * * * * * * * * * * * * * * * * * * * * * * * * * * * * * * * * * //

dimensions      [0 0 0 1 0 0 0];

internalField   nonuniform List<scalar> 
3200
(
340.238
341.041
341.886
342.837
343.738
344.25
344.569
344.916
345.442
345.118
345.139
344.995
344.907
344.582
343.91
343.191
342.598
341.349
340.577
339.566
334.919
335.642
336.387
337.158
337.969
338.429
338.682
338.975
339.456
339.122
339.228
339.064
338.954
338.768
338.132
337.522
337.011
335.91
335.225
334.378
329.59
330.185
330.882
331.494
332.223
332.587
332.752
333.052
333.364
333.105
333.268
333.129
333.014
332.854
332.302
331.814
331.416
330.433
329.852
329.141
324.261
324.725
325.349
325.778
326.441
326.719
326.821
327.083
327.298
327.101
327.28
327.164
327.05
326.911
326.462
326.119
325.777
324.939
324.5
323.89
318.897
319.265
319.758
320.033
320.668
320.793
320.921
321.079
321.263
321.08
321.256
321.191
321.055
320.942
320.612
320.405
320.051
319.394
319.143
318.616
313.495
313.742
314.182
314.318
314.818
314.839
314.984
315.076
315.198
315.041
315.195
315.176
315.066
314.966
314.736
314.597
314.325
313.854
313.726
313.34
308.081
308.276
308.532
308.575
308.941
308.917
309.031
309.08
309.138
309.018
309.159
309.119
309.032
308.992
308.871
308.767
308.61
308.287
308.278
307.995
302.718
302.79
302.873
302.861
303.018
302.99
303.04
303.05
303.054
303.011
303.077
303.073
303.029
303.031
302.984
302.937
302.899
302.764
302.785
302.669
341.03
341.879
342.788
343.763
344.601
345.188
345.67
345.823
346.084
346.172
346.146
345.869
345.634
345.363
344.862
344.127
343.291
342.234
341.336
340.409
335.616
336.317
337.123
337.966
338.724
339.17
339.601
339.691
339.979
339.999
339.996
339.797
339.602
339.361
338.899
338.304
337.536
336.629
335.868
335.103
330.169
330.726
331.433
332.185
332.787
333.143
333.526
333.628
333.899
333.811
333.853
333.669
333.546
333.335
332.928
332.437
331.753
331.034
330.426
329.743
324.755
325.153
325.795
326.331
326.818
327.122
327.417
327.555
327.82
327.635
327.695
327.536
327.453
327.278
326.961
326.56
325.985
325.4
324.94
324.351
319.29
319.594
320.124
320.443
320.876
321.078
321.344
321.489
321.682
321.449
321.6
321.437
321.337
321.237
320.977
320.683
320.235
319.77
319.406
318.963
313.81
314.014
314.402
314.573
314.938
315.04
315.272
315.371
315.546
315.3
315.492
315.317
315.251
315.178
314.985
314.781
314.455
314.137
313.875
313.58
308.307
308.432
308.696
308.734
308.965
309.032
309.203
309.233
309.359
309.179
309.304
309.234
309.167
309.122
309.016
308.9
308.636
308.49
308.336
308.142
302.768
302.837
302.915
302.927
303.009
303.035
303.088
303.093
303.133
303.064
303.098
303.086
303.079
303.047
303.02
302.983
302.862
302.824
302.797
302.726
342.09
342.662
343.734
344.679
345.418
346.199
346.692
346.927
347.208
347.259
347.24
346.838
346.725
346.319
345.815
345.112
344.193
343.206
342.301
341.31
336.538
336.949
337.897
338.795
339.355
340.026
340.49
340.686
340.895
340.968
340.961
340.585
340.479
340.187
339.7
339.105
338.329
337.469
336.691
335.87
330.965
331.259
332.075
332.87
333.328
333.847
334.266
334.428
334.583
334.705
334.703
334.376
334.279
334.034
333.572
333.084
332.434
331.742
331.086
330.418
325.367
325.6
326.241
326.929
327.276
327.643
328.054
328.183
328.303
328.409
328.409
328.171
328.087
327.882
327.409
327.066
326.554
326.003
325.471
324.929
319.73
319.921
320.43
320.954
321.237
321.426
321.859
321.94
322.018
322.083
322.134
321.878
321.868
321.684
321.317
321.06
320.694
320.262
319.825
319.445
314.05
314.232
314.602
314.967
315.185
315.261
315.629
315.719
315.763
315.734
315.89
315.63
315.609
315.485
315.201
315.049
314.824
314.495
314.181
313.918
308.447
308.53
308.786
308.991
309.109
309.171
309.412
309.438
309.478
309.44
309.558
309.4
309.375
309.315
309.12
309.044
308.917
308.71
308.5
308.35
302.839
302.859
302.942
303.026
303.048
303.077
303.132
303.142
303.189
303.167
303.197
303.15
303.153
303.12
303.069
303.043
302.981
302.928
302.832
302.794
342.938
343.709
344.815
345.864
346.418
347.381
347.787
348.149
348.253
348.461
348.4
348.21
347.869
347.542
346.911
346.047
345.311
344.228
343.257
342.443
337.239
337.863
338.824
339.756
340.212
341.02
341.388
341.742
341.815
341.979
341.966
341.777
341.475
341.249
340.641
339.926
339.275
338.362
337.485
336.854
331.574
332.023
332.867
333.648
334.039
334.671
334.988
335.33
335.335
335.555
335.536
335.362
335.118
334.913
334.36
333.824
333.194
332.463
331.693
331.183
325.855
326.157
326.919
327.523
327.869
328.378
328.637
328.907
328.885
329.11
329.105
328.919
328.716
328.536
328.12
327.714
327.071
326.544
325.988
325.491
320.11
320.359
320.932
321.406
321.684
322.011
322.299
322.539
322.471
322.671
322.66
322.463
322.298
322.162
321.881
321.59
321.012
320.649
320.264
319.841
314.357
314.539
314.963
315.275
315.464
315.701
315.941
316.142
316.058
316.206
316.217
316.012
315.904
315.82
315.652
315.455
314.994
314.77
314.516
314.209
308.628
308.728
308.959
309.166
309.287
309.415
309.573
309.701
309.663
309.711
309.765
309.612
309.505
309.488
309.411
309.277
309.028
308.867
308.73
308.541
302.888
302.922
302.99
303.076
303.129
303.171
303.214
303.254
303.24
303.27
303.276
303.208
303.184
303.185
303.146
303.126
303.039
302.995
302.938
302.877
344.063
344.74
345.735
346.774
347.64
348.402
348.734
349.21
349.272
349.377
349.451
349.267
348.991
348.623
347.971
347.132
346.137
345.247
344.191
343.37
338.152
338.768
339.604
340.516
341.283
341.943
342.219
342.641
342.663
342.831
342.823
342.696
342.447
342.137
341.612
340.869
339.971
339.291
338.241
337.651
332.254
332.802
333.51
334.276
334.917
335.525
335.743
336.126
336.046
336.285
336.226
336.092
335.912
335.645
335.199
334.607
333.822
333.293
332.349
331.901
326.382
326.853
327.431
328.049
328.582
329.091
329.224
329.608
329.486
329.686
329.622
329.454
329.386
329.189
328.794
328.316
327.701
327.266
326.461
326.17
320.545
320.892
321.354
321.833
322.246
322.598
322.696
323.096
322.93
323.085
323.031
322.875
322.874
322.73
322.37
322.022
321.594
321.22
320.626
320.374
314.658
314.923
315.262
315.559
315.875
316.123
316.168
316.57
316.369
316.52
316.491
316.293
316.35
316.247
315.983
315.717
315.425
315.174
314.748
314.599
308.812
308.958
309.155
309.308
309.503
309.67
309.685
309.954
309.82
309.946
309.864
309.786
309.837
309.764
309.634
309.424
309.233
309.099
308.872
308.767
302.967
303.003
303.085
303.12
303.165
303.249
303.256
303.324
303.294
303.344
303.312
303.293
303.294
303.276
303.248
303.156
303.107
303.053
302.988
302.924
345.085
345.963
346.845
347.934
348.58
349.278
349.888
350.277
350.425
350.399
350.555
350.452
349.974
349.713
349.069
348.204
347.414
346.361
345.166
344.443
339.102
339.838
340.577
341.521
342.107
342.717
343.226
343.553
343.709
343.622
343.773
343.753
343.297
343.074
342.512
341.77
341.122
340.186
339.14
338.54
333.104
333.727
334.325
335.103
335.626
336.134
336.542
336.85
337.025
336.902
337.034
337.008
336.681
336.461
335.943
335.371
334.808
334.058
333.143
332.628
327.072
327.568
328.094
328.717
329.15
329.556
329.866
330.164
330.318
330.187
330.276
330.288
330.083
329.852
329.363
328.992
328.525
327.885
327.113
326.656
321.058
321.456
321.854
322.285
322.695
322.95
323.217
323.452
323.557
323.478
323.542
323.545
323.427
323.21
322.79
322.531
322.205
321.678
321.095
320.725
315.056
315.338
315.635
315.944
316.165
316.392
316.589
316.738
316.809
316.76
316.794
316.822
316.769
316.559
316.253
316.05
315.869
315.516
315.066
314.822
309.046
309.214
309.392
309.601
309.745
309.863
309.98
310.012
310.101
310.058
310.063
310.079
310.067
309.954
309.745
309.637
309.522
309.314
309.049
308.915
303.041
303.076
303.145
303.221
303.288
303.305
303.34
303.332
303.372
303.369
303.373
303.385
303.392
303.34
303.287
303.23
303.199
303.117
303.042
302.984
345.923
346.912
347.853
348.987
349.697
350.437
351.097
351.401
351.545
351.527
351.706
351.508
350.999
350.747
350.218
349.415
348.506
347.445
346.175
345.159
339.807
340.665
341.442
342.454
343.066
343.681
344.275
344.554
344.701
344.659
344.796
344.708
344.224
343.995
343.482
342.836
342.076
341.202
340.049
339.154
333.702
334.404
335.079
335.935
336.439
336.959
337.439
337.728
337.802
337.772
337.878
337.831
337.39
337.245
336.763
336.238
335.635
334.882
333.837
333.12
327.596
328.166
328.714
329.385
329.823
330.223
330.67
330.863
330.942
330.914
330.985
330.946
330.57
330.465
330.017
329.673
329.178
328.578
327.647
327.106
321.507
321.95
322.333
322.852
323.223
323.483
323.864
324.045
324.076
324.075
324.147
324.081
323.786
323.7
323.297
323.087
322.724
322.226
321.503
321.086
315.382
315.732
315.955
316.327
316.568
316.763
317.056
317.154
317.238
317.221
317.245
317.2
316.983
316.909
316.651
316.471
316.271
315.891
315.374
315.073
309.275
309.467
309.565
309.827
309.943
310.046
310.261
310.26
310.38
310.337
310.316
310.343
310.219
310.157
310.011
309.89
309.768
309.56
309.24
309.065
303.112
303.179
303.196
303.295
303.359
303.355
303.46
303.439
303.484
303.461
303.437
303.456
303.438
303.415
303.347
303.313
303.269
303.218
303.107
303.029
346.895
347.855
348.808
349.747
350.556
351.307
351.982
352.218
352.517
352.568
352.711
352.489
352.096
351.94
351.16
350.334
349.425
348.387
347.146
346.256
340.709
341.48
342.261
343.092
343.788
344.457
345.087
345.242
345.513
345.568
345.648
345.498
345.148
344.999
344.331
343.66
342.834
341.944
340.898
340.128
334.489
335.076
335.706
336.494
337.082
337.607
338.186
338.28
338.492
338.608
338.608
338.488
338.175
338.068
337.561
336.997
336.27
335.494
334.612
333.973
328.203
328.697
329.196
329.847
330.358
330.782
331.252
331.35
331.497
331.632
331.594
331.487
331.212
331.143
330.701
330.368
329.711
329.049
328.318
327.802
321.895
322.343
322.639
323.204
323.605
323.976
324.32
324.439
324.472
324.63
324.593
324.471
324.29
324.255
323.886
323.689
323.153
322.585
322.006
321.652
315.647
315.954
316.161
316.565
316.865
317.106
317.426
317.483
317.479
317.65
317.556
317.495
317.352
317.346
317.061
316.96
316.527
316.142
315.72
315.505
309.421
309.611
309.687
309.954
310.154
310.26
310.475
310.508
310.488
310.61
310.529
310.506
310.453
310.396
310.252
310.171
309.918
309.676
309.477
309.315
303.168
303.246
303.262
303.334
303.401
303.449
303.511
303.529
303.524
303.571
303.517
303.507
303.51
303.471
303.434
303.402
303.325
303.243
303.184
303.099
347.509
348.719
349.595
350.604
351.271
352.147
352.761
353.131
353.644
353.785
353.94
353.344
353.127
352.92
352.111
351.31
350.14
349.136
347.91
346.97
341.213
342.293
342.967
343.855
344.451
345.133
345.709
346.016
346.455
346.615
346.787
346.222
346.064
345.923
345.193
344.516
343.511
342.601
341.542
340.752
334.873
335.833
336.354
337.096
337.619
338.128
338.67
338.926
339.301
339.407
339.607
339.143
339.001
338.905
338.26
337.705
336.845
336.039
335.17
334.527
328.589
329.343
329.728
330.382
330.786
331.178
331.684
331.827
332.151
332.275
332.4
332.091
331.905
331.859
331.309
330.916
330.172
329.518
328.791
328.273
322.272
322.834
323.1
323.618
323.957
324.241
324.681
324.78
325.008
325.111
325.207
324.953
324.833
324.781
324.362
324.055
323.489
322.955
322.399
322.01
315.966
316.319
316.502
316.869
317.084
317.291
317.66
317.723
317.888
317.902
317.99
317.812
317.759
317.695
317.45
317.227
316.795
316.397
315.972
315.759
309.601
309.801
309.876
310.161
310.241
310.366
310.607
310.655
310.783
310.737
310.774
310.684
310.687
310.624
310.471
310.385
310.094
309.823
309.585
309.505
303.232
303.302
303.308
303.399
303.411
303.455
303.563
303.557
303.641
303.617
303.6
303.582
303.593
303.588
303.484
303.488
303.409
303.277
303.202
303.2
348.338
349.55
350.46
351.411
352.245
353.032
353.594
354.086
354.534
354.743
354.565
354.372
353.839
353.619
352.912
352.071
350.945
350.025
348.723
347.78
341.904
342.931
343.739
344.531
345.27
345.923
346.46
346.878
347.295
347.466
347.289
347.052
346.64
346.5
345.915
345.205
344.141
343.416
342.261
341.436
335.444
336.293
336.986
337.616
338.298
338.811
339.317
339.672
339.998
340.151
340.035
339.823
339.478
339.381
338.93
338.323
337.378
336.767
335.782
335.078
329.043
329.678
330.284
330.759
331.311
331.761
332.168
332.47
332.7
332.83
332.729
332.558
332.317
332.251
331.909
331.412
330.62
330.117
329.314
328.72
322.635
323.092
323.543
323.875
324.343
324.674
325.041
325.295
325.447
325.535
325.431
325.3
325.13
325.062
324.826
324.437
323.842
323.475
322.829
322.377
316.178
316.52
316.873
317.008
317.368
317.62
317.939
318.099
318.2
318.254
318.138
318.061
317.939
317.93
317.727
317.467
317.06
316.803
316.358
316.001
309.768
309.937
310.154
310.22
310.447
310.57
310.765
310.904
310.936
310.947
310.888
310.864
310.788
310.752
310.672
310.497
310.285
310.133
309.836
309.617
303.282
303.336
303.405
303.432
303.493
303.535
303.615
303.667
303.664
303.682
303.646
303.647
303.619
303.586
303.578
303.543
303.48
303.407
303.316
303.223
349.126
350.136
351.203
352.319
353.264
353.654
354.423
354.729
355.146
355.244
355.212
355.065
354.634
354.187
353.545
352.762
351.562
350.618
349.525
348.469
342.639
343.42
344.357
345.371
346.168
346.482
347.129
347.421
347.807
347.862
347.858
347.746
347.353
346.987
346.453
345.755
344.678
343.882
342.962
342.034
336.092
336.713
337.546
338.394
339.064
339.354
339.814
340.095
340.454
340.472
340.571
340.397
340.078
339.786
339.328
338.729
337.797
337.136
336.352
335.589
329.565
329.99
330.735
331.373
331.945
332.195
332.533
332.815
333.078
333.081
333.19
333.044
332.794
332.563
332.153
331.696
330.918
330.421
329.735
329.128
323.012
323.289
323.917
324.379
324.831
325.04
325.305
325.544
325.701
325.736
325.767
325.697
325.472
325.325
324.999
324.666
324.052
323.688
323.1
322.633
316.433
316.602
317.092
317.428
317.751
317.906
318.083
318.224
318.337
318.408
318.405
318.378
318.16
318.103
317.878
317.592
317.193
316.885
316.481
316.171
309.845
309.914
310.259
310.465
310.642
310.758
310.848
310.955
311.016
311.076
311.044
311.022
310.891
310.873
310.735
310.579
310.306
310.123
309.888
309.729
303.277
303.325
303.447
303.518
303.554
303.606
303.613
303.686
303.7
303.712
303.699
303.684
303.673
303.646
303.595
303.533
303.449
303.389
303.335
303.268
349.708
350.659
351.864
352.858
353.903
354.435
355.111
355.641
355.809
355.94
355.881
355.711
355.518
354.824
354.048
353.167
352.237
351.185
349.893
349.07
343.063
343.875
344.904
345.789
346.689
347.152
347.789
348.253
348.347
348.456
348.485
348.302
348.093
347.516
346.902
346.053
345.275
344.348
343.303
342.552
336.444
337.109
337.988
338.746
339.464
339.939
340.435
340.857
340.925
341.006
341.057
340.896
340.704
340.191
339.722
338.949
338.332
337.534
336.709
335.988
329.793
330.356
331.078
331.713
332.276
332.659
333.102
333.437
333.493
333.541
333.613
333.472
333.324
332.939
332.477
331.9
331.377
330.699
330.025
329.45
323.222
323.621
324.132
324.632
325.144
325.379
325.798
326.025
326.058
326.11
326.158
326.034
325.886
325.643
325.253
324.803
324.424
323.915
323.381
322.89
316.635
316.841
317.213
317.603
318
318.127
318.457
318.586
318.639
318.665
318.734
318.605
318.497
318.293
318.061
317.737
317.433
317.099
316.696
316.343
309.998
310.081
310.341
310.618
310.847
310.905
311.063
311.14
311.193
311.236
311.248
311.166
311.086
310.992
310.839
310.662
310.509
310.273
310.011
309.807
303.345
303.374
303.474
303.581
303.649
303.66
303.718
303.724
303.758
303.776
303.768
303.735
303.704
303.694
303.624
303.561
303.529
303.441
303.34
303.293
350.2
351.142
352.311
353.253
354.346
354.977
355.739
356.236
356.479
356.328
356.532
356.37
355.999
355.454
354.655
353.9
352.627
351.72
350.497
349.226
343.466
344.3
345.282
346.174
347.053
347.609
348.304
348.718
348.923
348.824
349
348.865
348.527
348.097
347.402
346.698
345.633
344.83
343.797
342.67
336.751
337.473
338.292
339.07
339.731
340.248
340.836
341.255
341.453
341.292
341.527
341.368
341.047
340.759
340.168
339.483
338.643
337.904
337.044
336.158
330.078
330.665
331.34
331.956
332.482
332.898
333.398
333.756
333.987
333.782
333.967
333.884
333.504
333.427
332.937
332.292
331.639
330.999
330.301
329.64
323.402
323.882
324.4
324.873
325.293
325.598
325.947
326.256
326.499
326.298
326.402
326.346
326.031
326.01
325.644
325.143
324.678
324.137
323.568
323.086
316.754
317.073
317.469
317.747
318.101
318.297
318.545
318.793
319.008
318.824
318.857
318.859
318.584
318.584
318.35
317.965
317.675
317.272
316.826
316.48
310.061
310.249
310.518
310.637
310.882
311.008
311.152
311.282
311.411
311.319
311.34
311.342
311.158
311.165
311.027
310.778
310.637
310.412
310.119
309.869
303.352
303.458
303.521
303.556
303.651
303.709
303.734
303.782
303.829
303.79
303.815
303.821
303.738
303.751
303.699
303.619
303.564
303.489
303.387
303.316
350.626
351.644
352.867
353.862
354.788
355.413
356.256
356.796
356.915
356.828
357.093
356.836
356.37
355.863
354.951
354.187
353.152
352.005
350.814
349.73
343.889
344.729
345.792
346.674
347.491
348.019
348.712
349.231
349.306
349.184
349.524
349.266
348.848
348.414
347.584
346.943
346.112
345.05
344.025
343.146
337.118
337.864
338.717
339.531
340.186
340.639
341.219
341.624
341.651
341.572
341.909
341.709
341.309
340.964
340.27
339.708
339.027
338.139
337.248
336.57
330.337
331.003
331.678
332.337
332.884
333.197
333.762
334.072
334.086
333.97
334.335
334.179
333.77
333.523
332.93
332.492
331.963
331.25
330.522
329.957
323.582
324.133
324.643
325.115
325.591
325.777
326.261
326.539
326.513
326.421
326.747
326.61
326.26
326.067
325.61
325.263
324.872
324.332
323.795
323.303
316.847
317.23
317.664
317.928
318.271
318.409
318.812
319.006
318.934
318.892
319.114
319.025
318.739
318.623
318.285
318.082
317.786
317.41
317.018
316.64
310.131
310.355
310.609
310.76
310.953
311.06
311.287
311.434
311.356
311.375
311.477
311.434
311.257
311.194
310.966
310.844
310.704
310.479
310.235
309.968
303.399
303.458
303.548
303.621
303.691
303.697
303.786
303.823
303.795
303.836
303.84
303.826
303.752
303.756
303.676
303.639
303.589
303.507
303.413
303.309
350.782
351.91
353.084
354.032
355.169
355.75
356.651
357.057
357.359
357.372
357.426
357.246
356.55
356.05
355.472
354.569
353.516
352.374
351.074
350.132
344.023
344.953
345.965
346.785
347.795
348.29
349.057
349.432
349.66
349.668
349.793
349.611
349.007
348.564
348.048
347.295
346.42
345.404
344.283
343.498
337.293
338.005
338.862
339.594
340.422
340.808
341.545
341.849
341.939
342.022
342.127
341.983
341.517
341.081
340.622
340.033
339.326
338.478
337.455
336.84
330.507
331.067
331.782
332.377
333.06
333.358
334.01
334.241
334.28
334.359
334.457
334.377
334.034
333.614
333.202
332.756
332.211
331.519
330.645
330.152
323.706
324.148
324.709
325.208
325.712
325.921
326.449
326.619
326.649
326.72
326.785
326.772
326.529
326.199
325.842
325.483
325.11
324.513
323.854
323.492
316.92
317.221
317.664
318.099
318.376
318.517
318.877
319.039
319.035
319.075
319.109
319.122
318.977
318.735
318.472
318.214
317.979
317.503
317.056
316.806
310.167
310.313
310.605
310.905
311.046
311.107
311.348
311.458
311.403
311.442
311.498
311.45
311.438
311.264
311.089
310.938
310.804
310.544
310.238
310.101
303.412
303.452
303.559
303.648
303.697
303.73
303.787
303.863
303.807
303.843
303.855
303.815
303.84
303.77
303.733
303.674
303.617
303.528
303.435
303.357
350.866
352.202
353.468
354.332
355.318
356.195
356.839
357.306
357.727
357.571
357.689
357.611
357.193
356.318
355.77
354.845
353.827
352.767
351.495
350.42
344.092
345.245
346.35
347.04
347.942
348.725
349.189
349.599
350.048
349.93
349.995
349.954
349.552
348.818
348.351
347.54
346.662
345.724
344.596
343.726
337.287
338.229
339.23
339.767
340.539
341.207
341.562
341.949
342.347
342.25
342.286
342.264
341.91
341.343
340.917
340.254
339.469
338.688
337.67
337.058
330.532
331.289
332.08
332.515
333.139
333.652
334.024
334.309
334.666
334.577
334.602
334.615
334.303
333.87
333.423
332.934
332.267
331.63
330.8
330.35
323.772
324.339
324.968
325.245
325.754
326.121
326.476
326.656
326.939
326.885
326.955
326.926
326.677
326.365
325.977
325.65
325.076
324.636
323.963
323.651
316.98
317.38
317.852
318.013
318.381
318.662
318.939
319.003
319.258
319.227
319.251
319.219
319.064
318.846
318.555
318.36
317.893
317.614
317.103
316.911
310.211
310.423
310.712
310.801
311.018
311.198
311.393
311.381
311.587
311.556
311.54
311.543
311.461
311.298
311.111
311.045
310.722
310.575
310.242
310.151
303.41
303.497
303.608
303.594
303.706
303.764
303.823
303.82
303.895
303.853
303.868
303.879
303.831
303.774
303.715
303.71
303.588
303.53
303.446
303.411
351.208
352.383
353.861
354.74
355.497
356.559
357.167
357.672
357.966
357.847
357.835
357.684
357.322
356.545
356.005
354.946
353.94
352.902
351.67
350.439
344.417
345.419
346.69
347.361
348.097
349.006
349.517
349.963
350.228
350.117
350.143
349.99
349.697
348.97
348.522
347.653
346.805
345.892
344.821
343.747
337.676
338.438
339.495
340.057
340.698
341.421
341.855
342.24
342.499
342.423
342.45
342.342
342.003
341.407
341.093
340.349
339.631
338.835
337.974
337.069
330.92
331.457
332.282
332.768
333.326
333.861
334.222
334.509
334.79
334.729
334.737
334.629
334.313
333.856
333.626
333.054
332.45
331.727
331.08
330.355
324.109
324.456
325.073
325.503
325.957
326.329
326.592
326.814
327.117
327.018
327.038
326.953
326.635
326.312
326.127
325.759
325.247
324.634
324.157
323.597
317.249
317.463
317.924
318.232
318.585
318.807
318.997
319.169
319.384
319.303
319.319
319.26
319.044
318.844
318.661
318.466
318.045
317.574
317.241
316.911
310.369
310.497
310.763
310.945
311.2
311.275
311.408
311.5
311.63
311.641
311.582
311.604
311.418
311.347
311.203
311.09
310.829
310.541
310.348
310.145
303.473
303.518
303.602
303.679
303.739
303.772
303.81
303.842
303.903
303.889
303.868
303.889
303.835
303.809
303.74
303.733
303.627
303.52
303.478
303.401
351.403
352.65
353.777
354.699
355.494
356.709
357.332
357.7
357.977
358.099
358
357.778
357.221
356.614
356.126
355.246
354.341
352.984
351.74
350.678
344.546
345.649
346.617
347.385
348.089
349.169
349.711
349.989
350.197
350.342
350.253
350.052
349.585
349.085
348.654
347.896
347.097
345.97
344.852
343.973
337.691
338.585
339.426
340.076
340.646
341.634
342.057
342.291
342.472
342.588
342.532
342.344
341.942
341.553
341.147
340.548
339.84
338.905
337.989
337.25
330.865
331.54
332.309
332.789
333.238
334.086
334.378
334.594
334.775
334.824
334.828
334.612
334.322
334.016
333.699
333.158
332.606
331.823
331.118
330.471
324.003
324.519
325.166
325.534
325.906
326.564
326.713
326.925
327.062
327.102
327.12
326.909
326.706
326.471
326.213
325.758
325.362
324.756
324.258
323.697
317.152
317.536
318.031
318.252
318.52
318.999
319.103
319.25
319.359
319.418
319.369
319.21
319.113
318.918
318.712
318.411
318.102
317.683
317.366
316.931
310.301
310.569
310.854
310.977
311.136
311.448
311.502
311.548
311.631
311.695
311.648
311.527
311.498
311.392
311.252
311.071
310.859
310.68
310.456
310.177
303.434
303.542
303.643
303.669
303.738
303.846
303.846
303.861
303.884
303.937
303.911
303.846
303.87
303.815
303.773
303.722
303.646
303.589
303.502
303.413
351.334
352.632
353.756
354.873
355.729
356.678
357.275
357.651
358.163
358.235
358.222
357.694
357.249
356.855
356.152
355.12
354.088
353.084
351.828
350.709
344.486
345.584
346.569
347.51
348.268
349.116
349.612
349.993
350.41
350.485
350.396
349.986
349.623
349.246
348.669
347.766
346.862
346.06
344.898
344.012
337.622
338.547
339.389
340.172
340.843
341.53
341.949
342.312
342.696
342.694
342.624
342.288
342.007
341.647
341.209
340.431
339.647
339
338.01
337.285
330.789
331.518
332.235
332.835
333.424
333.95
334.286
334.671
334.961
334.92
334.871
334.558
334.397
334.066
333.707
333.09
332.436
331.944
331.13
330.538
323.97
324.51
325.056
325.54
326.002
326.422
326.649
327.025
327.212
327.176
327.162
326.878
326.76
326.498
326.213
325.768
325.245
324.885
324.218
323.769
317.134
317.516
317.874
318.23
318.56
318.921
319.036
319.319
319.424
319.447
319.437
319.198
319.125
318.926
318.752
318.428
318.046
317.801
317.308
316.981
310.303
310.539
310.721
310.982
311.126
311.369
311.433
311.573
311.648
311.688
311.684
311.53
311.48
311.369
311.239
311.077
310.858
310.695
310.397
310.195
303.466
303.516
303.608
303.689
303.723
303.808
303.818
303.871
303.891
303.926
303.902
303.871
303.86
303.808
303.758
303.722
303.643
303.572
303.499
303.432
351.271
352.579
353.594
354.829
355.804
356.561
357.273
357.807
357.915
358.043
358.142
357.628
357.191
356.906
356.355
355.152
354.188
353.126
351.669
350.724
344.442
345.57
346.459
347.537
348.344
349.049
349.625
350.086
350.196
350.301
350.407
349.968
349.607
349.297
348.837
347.789
346.99
346.041
344.837
344.009
337.636
338.562
339.314
340.269
340.926
341.515
341.998
342.365
342.49
342.579
342.652
342.239
341.997
341.673
341.313
340.443
339.834
338.948
337.976
337.24
330.831
331.514
332.158
332.935
333.534
333.965
334.393
334.661
334.765
334.843
334.925
334.56
334.371
334.098
333.842
333.111
332.612
331.854
331.086
330.477
324.015
324.521
324.976
325.567
326.067
326.374
326.768
326.948
327.035
327.096
327.171
326.861
326.759
326.536
326.31
325.756
325.39
324.795
324.21
323.72
317.148
317.527
317.835
318.219
318.599
318.864
319.12
319.256
319.31
319.383
319.412
319.21
319.101
318.979
318.794
318.392
318.155
317.699
317.276
316.934
310.314
310.556
310.69
310.951
311.177
311.328
311.474
311.536
311.577
311.632
311.645
311.552
311.501
311.392
311.275
311.029
310.904
310.638
310.363
310.154
303.466
303.544
303.588
303.684
303.768
303.8
303.843
303.878
303.871
303.908
303.913
303.859
303.892
303.819
303.776
303.702
303.659
303.561
303.464
303.403
)
;

boundaryField
{
    hotSide
    {
        type            fixedGradient;
        gradient        nonuniform List<scalar> 
400
(
420.693
433.167
445.255
456.903
468.059
478.67
488.685
498.057
506.739
514.687
521.861
528.224
533.742
538.386
542.131
544.956
546.846
547.788
547.778
546.813
431.81
444.628
457.051
469.024
480.492
491.402
501.701
511.341
520.272
528.451
535.836
542.388
548.074
552.862
556.728
559.649
561.609
562.596
562.605
561.634
441.783
454.91
467.634
479.898
491.646
502.824
513.379
523.258
532.414
540.801
548.375
555.098
560.935
565.853
569.827
572.835
574.86
575.889
575.916
574.94
450.55
463.949
476.937
489.458
501.453
512.866
523.645
533.736
543.089
551.659
559.4
566.273
572.242
577.276
581.346
584.43
586.512
587.578
587.622
586.642
458.064
471.694
484.908
497.647
509.853
521.468
532.439
542.71
552.233
560.958
568.842
575.844
581.927
587.059
591.211
594.361
596.492
597.59
597.648
596.665
464.282
478.103
491.503
504.422
516.801
528.583
539.71
550.131
559.792
568.646
576.648
583.755
589.932
595.144
599.364
602.569
604.74
605.864
605.934
604.949
469.173
483.144
496.688
509.747
522.261
534.171
545.422
555.958
565.727
574.681
582.774
589.964
596.213
601.488
605.761
609.007
611.209
612.353
612.432
611.444
472.716
486.792
500.439
513.597
526.207
538.209
549.546
560.163
570.009
579.033
587.19
594.438
600.738
606.057
610.366
613.642
615.865
617.022
617.107
616.117
474.897
489.034
502.741
515.957
528.622
540.677
552.064
562.729
572.619
581.684
589.878
597.158
603.487
608.831
613.161
616.452
618.686
619.851
619.938
618.945
475.708
489.863
503.588
516.82
529.5
541.57
552.97
563.648
573.549
582.624
590.827
598.116
604.452
609.801
614.134
617.428
619.664
620.828
620.914
619.918
475.153
489.282
502.98
516.187
528.843
540.888
552.266
562.921
572.801
581.856
590.041
597.313
603.633
608.968
613.289
616.572
618.799
619.957
620.037
619.038
473.238
487.297
500.927
514.068
526.659
538.642
549.96
560.559
570.386
579.392
587.531
594.76
601.043
606.345
610.637
613.897
616.104
617.248
617.319
616.316
469.981
483.927
497.446
510.48
522.967
534.851
546.074
556.582
566.324
575.251
583.317
590.48
596.703
601.953
606.201
609.424
611.603
612.726
612.785
611.778
465.401
479.193
492.561
505.448
517.793
529.54
540.633
551.019
560.645
569.464
577.431
584.504
590.647
595.827
600.015
603.188
605.329
606.425
606.468
605.457
459.53
473.126
486.304
499.005
511.171
522.746
533.676
543.906
553.386
562.07
569.912
576.873
582.915
588.007
592.12
595.233
597.326
598.389
598.414
597.398
452.402
465.763
478.712
491.191
503.143
514.512
525.245
535.289
544.596
553.117
560.811
567.637
573.56
578.547
582.571
585.611
587.65
588.674
588.677
587.658
444.061
457.15
469.834
482.055
493.758
504.889
515.394
525.224
534.329
542.664
550.186
556.857
562.641
567.508
571.431
574.388
576.364
577.344
577.325
576.303
434.557
447.339
459.722
471.652
483.075
493.936
504.186
513.773
522.651
530.776
538.106
544.602
550.231
554.964
558.773
561.638
563.543
564.477
564.432
563.409
423.949
436.39
448.441
460.049
471.161
481.725
491.691
501.011
509.638
517.531
524.648
530.952
536.411
540.996
544.681
547.445
549.274
550.157
550.087
549.063
412.302
424.371
436.06
447.317
458.091
468.331
477.989
487.018
495.374
503.015
509.901
515.998
521.272
525.697
529.248
531.905
533.653
534.482
534.385
533.363
)
;
    }
    coldSide
    {
        type            mixed;
        refValue        uniform 300;
        refGradient     uniform 0;
        valueFraction   uniform 0.991591;
        source          uniform 0;
        value           nonuniform List<scalar> 
400
(
300.023
300.023
300.024
300.024
300.025
300.026
300.026
300.027
300.027
300.028
300.028
300.028
300.028
300.029
300.029
300.029
300.029
300.029
300.029
300.029
300.023
300.024
300.024
300.025
300.025
300.026
300.027
300.027
300.028
300.028
300.028
300.028
300.029
300.029
300.029
300.029
300.03
300.03
300.03
300.03