/*--------------------------------*- C++ -*----------------------------------*\
| =========                 |                                                 |
| \\      /  F ield         | OpenFOAM: The Open Source CFD Toolbox           |
|  \\    /   O peration     | Version:  2212                                  |
|   \\  /    A nd           | Website:  www.openfoam.com                      |
|    \\/     M anipulation  |                                                 |
\*---------------------------------------------------------------------------*/
FoamFile
{
    version     2.0;
    format      ascii;
    arch        "LSB;label=32;scalar=64";
    class       volScalarField;
    location    "0";
    object      T;
}
// * * * * * * * * * * * * * * * * * * * * * * * * * * * * * * * * * * * * * //

dimensions      [0 0 0 1 0 0 0];

internalField   nonuniform List<scalar> 
3200
(
352.679
351.182
350.235
349.957
349.991
350.502
351.178
351.587
352.16
352.599
352.53
352.478
351.98
351.277
350.501
349.595
349.263
349.288
350.087
351.328
345.323
344.082
343.294
343.068
343.12
343.594
344.186
344.536
345.037
345.451
345.37
345.34
344.906
344.31
343.621
342.813
342.537
342.549
343.209
344.255
338.134
337.106
336.465
336.288
336.349
336.765
337.281
337.578
337.981
338.36
338.276
338.257
337.891
337.391
336.799
336.097
335.873
335.899
336.431
337.278
331.058
330.243
329.717
329.567
329.633
330.017
330.445
330.677
331.005
331.334
331.265
331.218
330.93
330.527
330.046
329.439
329.288
329.294
329.72
330.412
324.071
323.462
323.048
322.917
323.011
323.338
323.652
323.835
324.088
324.342
324.295
324.23
324.032
323.707
323.326
322.837
322.741
322.741
323.055
323.6
317.153
316.735
316.44
316.335
316.439
316.681
316.912
317.003
317.204
317.379
317.363
317.278
317.149
316.91
316.646
316.288
316.219
316.216
316.47
316.829
310.285
310.047
309.881
309.788
309.856
310.026
310.154
310.198
310.344
310.439
310.427
310.362
310.295
310.129
309.987
309.781
309.719
309.732
309.897
310.112
303.453
303.37
303.308
303.273
303.307
303.355
303.406
303.403
303.474
303.494
303.494
303.475
303.454
303.394
303.353
303.28
303.246
303.265
303.325
303.387
352.534
351.14
350.252
350.044
350.257
350.67
351.359
351.91
352.725
353.044
352.992
352.925
352.386
351.688
350.753
349.933
349.407
349.352
350.198
351.414
345.221
344.069
343.33
343.16
343.364
343.737
344.328
344.819
345.535
345.83
345.751
345.715
345.255
344.672
343.828
343.139
342.667
342.637
343.316
344.334
338.047
337.093
336.54
336.386
336.549
336.915
337.37
337.816
338.41
338.689
338.616
338.592
338.185
337.7
336.985
336.422
336.008
335.963
336.53
337.346
330.98
330.234
329.808
329.705
329.799
330.115
330.49
330.872
331.345
331.603
331.535
331.516
331.164
330.787
330.202
329.746
329.392
329.351
329.818
330.444
324.004
323.458
323.135
323.075
323.13
323.351
323.665
323.975
324.334
324.541
324.495
324.473
324.181
323.921
323.458
323.1
322.823
322.797
323.166
323.63
317.114
316.722
316.523
316.458
316.494
316.649
316.875
317.113
317.359
317.511
317.484
317.476
317.266
317.065
316.727
316.506
316.297
316.255
316.544
316.868
310.259
310.033
309.941
309.861
309.907
309.98
310.142
310.276
310.433
310.511
310.492
310.504
310.364
310.236
310.04
309.926
309.785
309.757
309.936
310.113
303.431
303.367
303.338
303.301
303.307
303.34
303.396
303.44
303.501
303.519
303.515
303.525
303.471
303.432
303.362
303.325
303.276
303.267
303.331
303.379
352.801
351.494
350.548
350.361
350.633
351.08
351.873
352.625
353.247
353.75
353.809
353.52
352.928
352.109
351.279
350.39
349.825
349.684
350.377
351.478
345.45
344.375
343.606
343.455
343.702
344.087
344.793
345.428
345.954
346.438
346.483
346.247
345.733
345.027
344.316
343.54
343.03
342.87
343.488
344.384
338.244
337.353
336.768
336.625
336.84
337.165
337.775
338.315
338.748
339.187
339.225
339.056
338.605
338.008
337.393
336.76
336.306
336.167
336.695
337.391
331.128
330.437
329.986
329.869
330.056
330.311
330.836
331.266
331.605
331.994
332.025
331.9
331.532
331.061
330.527
330.034
329.608
329.533
329.962
330.496
324.13
323.628
323.262
323.178
323.332
323.522
323.929
324.27
324.539
324.871
324.858
324.784
324.498
324.137
323.718
323.361
322.996
322.928
323.277
323.672
317.186
316.863
316.587
316.523
316.652
316.773
317.072
317.305
317.505
317.737
317.73
317.702
317.496
317.23
316.926
316.673
316.413
316.362
316.615
316.892
310.31
310.122
309.95
309.923
310.006
310.063
310.24
310.38
310.495
310.629
310.643
310.622
310.504
310.362
310.16
310.003
309.84
309.819
309.966
310.131
303.46
303.4
303.339
303.325
303.356
303.374
303.429
303.469
303.511
303.558
303.57
303.56
303.517
303.477
303.408
303.352
303.295
303.295
303.346
303.394
353.251
351.934
351.05
351.014
351.295
351.773
352.605
353.305
354.07
354.63
354.724
354.366
353.74
352.903
352.027
351.147
350.479
350.275
350.828
351.937
345.84
344.789
344.037
344.022
344.265
344.693
345.428
346.056
346.698
347.205
347.272
346.972
346.429
345.678
344.967
344.183
343.609
343.433
343.876
344.818
338.567
337.745
337.108
337.099
337.324
337.695
338.331
338.872
339.388
339.828
339.888
339.631
339.19
338.537
337.94
337.281
336.798
336.65
337.03
337.772
331.41
330.769
330.276
330.274
330.472
330.793
331.289
331.756
332.143
332.521
332.57
332.353
332.015
331.443
330.96
330.436
330.037
329.917
330.212
330.803
324.345
323.896
323.522
323.5
323.666
323.908
324.294
324.66
324.956
325.25
325.301
325.104
324.905
324.41
324.027
323.615
323.331
323.222
323.454
323.9
317.362
317.057
316.794
316.783
316.893
317.045
317.316
317.576
317.807
318.016
318.058
317.889
317.795
317.422
317.124
316.839
316.656
316.555
316.713
317.038
310.409
310.237
310.085
310.079
310.156
310.214
310.388
310.542
310.685
310.796
310.823
310.727
310.694
310.457
310.271
310.088
309.986
309.942
310.016
310.222
303.49
303.433
303.385
303.38
303.402
303.427
303.467
303.516
303.572
303.624
303.617
303.596
303.583
303.511
303.448
303.38
303.34
303.336
303.358
303.414
353.905
352.708
351.836
351.697
351.861
352.505
353.401
354.239
355.129
355.585
355.78
355.316
354.824
353.893
352.913
351.94
351.291
351.139
351.521
352.457
346.415
345.462
344.745
344.618
344.767
345.343
346.115
346.847
347.636
348.041
348.202
347.791
347.379
346.568
345.729
344.885
344.326
344.179
344.48
345.257
339.069
338.28
337.737
337.621
337.771
338.249
338.935
339.542
340.205
340.553
340.676
340.332
339.99
339.268
338.601
337.891
337.408
337.292
337.526
338.134
331.808
331.211
330.779
330.688
330.824
331.21
331.782
332.285
332.803
333.115
333.22
332.956
332.675
332.036
331.532
330.931
330.546
330.472
330.63
331.1
324.642
324.218
323.892
323.796
323.942
324.252
324.69
325.07
325.453
325.735
325.807
325.596
325.407
324.881
324.485
324.006
323.731
323.674
323.78
324.148
317.549
317.26
317.04
316.963
317.066
317.334
317.603
317.901
318.16
318.375
318.433
318.266
318.158
317.771
317.477
317.117
316.96
316.908
316.957
317.223
310.519
310.35
310.211
310.186
310.226
310.407
310.563
310.752
310.882
311.012
311.079
310.948
310.925
310.673
310.478
310.273
310.203
310.167
310.18
310.325
303.53
303.468
303.421
303.405
303.424
303.49
303.537
303.609
303.652
303.685
303.708
303.67
303.664
303.581
303.504
303.441
303.425
303.402
303.413
303.452
354.797
353.49
352.746
352.583
352.779
353.406
354.177
355.224
356.152
356.604
356.894
356.553
355.997
354.901
353.966
352.958
352.263
352.218
352.621
353.412
347.221
346.142
345.51
345.381
345.539
346.125
346.8
347.708
348.512
348.911
349.177
348.86
348.386
347.453
346.653
345.767
345.161
345.125
345.432
346.103
339.763
338.891
338.356
338.262
338.401
338.904
339.485
340.241
340.942
341.305
341.541
341.226
340.853
340.063
339.393
338.653
338.128
338.089
338.318
338.879
332.398
331.733
331.283
331.207
331.339
331.747
332.23
332.843
333.445
333.745
333.944
333.645
333.361
332.72
332.161
331.578
331.144
331.089
331.269
331.712
325.128
324.627
324.28
324.221
324.315
324.652
325.037
325.511
325.985
326.22
326.353
326.124
325.917
325.398
324.966
324.527
324.206
324.126
324.256
324.616
317.919
317.557
317.31
317.282
317.339
317.59
317.89
318.207
318.565
318.714
318.798
318.632
318.503
318.13
317.814
317.512
317.295
317.232
317.324
317.565
310.741
310.538
310.368
310.366
310.403
310.557
310.725
310.922
311.135
311.219
311.29
311.181
311.114
310.879
310.699
310.516
310.375
310.36
310.419
310.544
303.6
303.534
303.469
303.467
303.494
303.54
303.589
303.674
303.732
303.765
303.78
303.743
303.725
303.644
303.589
303.533
303.48
303.479
303.498
303.535
355.77
354.572
353.86
353.571
353.821
354.57
355.434
356.395
357.305
358.01
358.058
357.888
357.329
356.053
355.082
354.098
353.346
353.156
353.741
354.595
348.064
347.072
346.483
346.25
346.468
347.127
347.914
348.74
349.521
350.135
350.166
350.018
349.54
348.435
347.601
346.761
346.09
345.938
346.413
347.132
340.485
339.646
339.211
338.994
339.197
339.758
340.461
341.151
341.783
342.32
342.361
342.231
341.803
340.872
340.181
339.483
338.893
338.767
339.169
339.76
332.982
332.292
332.002
331.814
331.977
332.446
333.041
333.602
334.103
334.555
334.615
334.507
334.132
333.369
332.822
332.23
331.759
331.691
331.977
332.468
325.555
325.033
324.837
324.709
324.817
325.184
325.659
326.086
326.483
326.828
326.889
326.814
326.486
325.928
325.485
325.061
324.666
324.639
324.832
325.239
318.197
317.854
317.727
317.633
317.688
317.975
318.318
318.626
318.878
319.141
319.206
319.152
318.89
318.52
318.18
317.914
317.621
317.575
317.719
318.008
310.901
310.704
310.645
310.576
310.589
310.781
310.991
311.183
311.325
311.485
311.537
311.488
311.327
311.126
310.916
310.758
310.576
310.552
310.641
310.806
303.645
303.584
303.565
303.545
303.543
303.601
303.683
303.74
303.79
303.849
303.866
303.85
303.792
303.731
303.652
303.608
303.549
303.54
303.566
303.619
356.904
355.751
355.021
354.624
355.007
355.777
356.537
357.491
358.604
359.224
359.368
359.123
358.421
357.334
356.284
355.286
354.621
354.454
354.923
355.907
349.035
348.109
347.496
347.152
347.498
348.161
348.848
349.664
350.638
351.175
351.316
351.118
350.521
349.557
348.652
347.784
347.2
347.055
347.434
348.271
341.284
340.574
340.06
339.776
340.09
340.596
341.23
341.922
342.728
343.178
343.332
343.176
342.65
341.842
341.08
340.351
339.834
339.722
340.027
340.713
333.606
333.093
332.693
332.48
332.712
333.115
333.657
334.227
334.892
335.258
335.39
335.282
334.844
334.176
333.56
332.979
332.525
332.445
332.685
333.221
326.037
325.668
325.394
325.207
325.379
325.692
326.131
326.578
327.088
327.377
327.498
327.443
327.06
326.552
326.079
325.633
325.28
325.23
325.388
325.779
318.558
318.303
318.135
317.993
318.088
318.31
318.636
318.995
319.322
319.519
319.651
319.6
319.314
318.97
318.624
318.32
318.041
318.021
318.126
318.397
311.116
310.997
310.876
310.808
310.837
310.982
311.175
311.404
311.591
311.715
311.801
311.779
311.602
311.388
311.196
310.995
310.836
310.823
310.899
311.054
303.725
303.68
303.653
303.629
303.624
303.677
303.747
303.829
303.885
303.926
303.955
303.948
303.885
303.823
303.76
303.681
303.639
303.624
303.657
303.705
358.174
357.027
356.259
355.916
356.173
356.903
357.719
358.605
359.694
360.296
360.638
360.348
359.582
358.768
357.654
356.616
355.966
355.83
356.283
357.146
350.143
349.204
348.563
348.289
348.51
349.167
349.892
350.641
351.598
352.118
352.406
352.171
351.507
350.821
349.846
348.95
348.389
348.231
348.605
349.312
342.238
341.47
340.97
340.729
340.921
341.488
342.119
342.768
343.546
344.009
344.228
344.068
343.485
342.931
342.084
341.34
340.866
340.723
341.007
341.568
334.419
333.817
333.437
333.231
333.393
333.847
334.398
334.931
335.546
335.957
336.116
336.003
335.534
335.064
334.367
333.796
333.375
333.266
333.483
333.917
326.69
326.224
325.948
325.829
325.922
326.266
326.702
327.123
327.608
327.935
328.042
327.966
327.586
327.246
326.693
326.259
325.935
325.837
325.988
326.341
319.029
318.697
318.51
318.453
318.492
318.713
319.069
319.348
319.702
319.956
320.007
319.975
319.693
319.44
319.063
318.744
318.515
318.43
318.539
318.795
311.399
311.203
311.101
311.09
311.097
311.227
311.456
311.611
311.815
311.974
311.989
311.975
311.81
311.656
311.462
311.241
311.114
311.056
311.129
311.267
303.811
303.756
303.724
303.714
303.727
303.759
303.847
303.89
303.955
304.012
304.014
304.011
303.945
303.903
303.844
303.772
303.73
303.702
303.731
303.769
359.332
358.286
357.635
357.323
357.42
357.953
358.806
359.761
360.68
361.439
361.745
361.413
360.725
359.931
358.885
357.842
357.409
357.24
357.616
358.342
351.137
350.292
349.759
349.496
349.601
350.078
350.819
351.643
352.432
353.093
353.385
353.106
352.499
351.82
350.903
350.015
349.648
349.473
349.776
350.393
343.092
342.412
341.979
341.746
341.861
342.264
342.908
343.612
344.274
344.83
345.088
344.873
344.333
343.767
342.967
342.245
341.911
341.776
342.024
342.512
335.155
334.597
334.257
334.069
334.169
334.504
335.052
335.613
336.157
336.602
336.826
336.665
336.214
335.761
335.064
334.527
334.224
334.107
334.328
334.709
327.295
326.857
326.594
326.464
326.551
326.81
327.214
327.665
328.083
328.418
328.601
328.504
328.139
327.769
327.222
326.822
326.586
326.501
326.661
326.947
319.494
319.166
318.98
318.895
318.999
319.143
319.43
319.758
320.043
320.284
320.409
320.373
320.087
319.796
319.428
319.153
318.98
318.904
319.021
319.245
311.714
311.506
311.385
311.344
311.427
311.501
311.656
311.861
312.037
312.175
312.257
312.242
312.064
311.879
311.656
311.484
311.394
311.353
311.409
311.561
303.924
303.858
303.81
303.8
303.839
303.853
303.908
303.982
304.042
304.076
304.115
304.1
304.045
303.976
303.913
303.848
303.824
303.809
303.828
303.87
360.678
359.675
359.038
358.702
358.884
359.254
360
360.891
361.792
362.506
362.766
362.464
361.849
361.081
360.125
359.129
358.75
358.717
359.031
359.782
352.289
351.496
350.974
350.684
350.872
351.194
351.853
352.617
353.407
354.026
354.268
353.979
353.455
352.819
351.985
351.136
350.792
350.768
351.013
351.623
344.062
343.435
343.005
342.773
342.942
343.202
343.768
344.409
345.081
345.616
345.829
345.593
345.139
344.628
343.899
343.186
342.895
342.86
343.076
343.543
335.92
335.44
335.112
334.923
335.053
335.274
335.741
336.268
336.835
337.265
337.433
337.256
336.863
336.474
335.866
335.278
335.057
334.999
335.205
335.537
327.856
327.494
327.279
327.131
327.205
327.391
327.752
328.161
328.612
328.948
329.064
328.962
328.632
328.36
327.85
327.394
327.248
327.196
327.354
327.593
319.875
319.604
319.473
319.353
319.423
319.556
319.803
320.115
320.43
320.649
320.735
320.69
320.424
320.25
319.883
319.562
319.456
319.42
319.499
319.693
311.912
311.748
311.682
311.609
311.667
311.726
311.886
312.071
312.271
312.397
312.442
312.413
312.265
312.156
311.939
311.738
311.674
311.664
311.693
311.826
303.995
303.942
303.902
303.895
303.912
303.933
303.98
304.045
304.119
304.152
304.179
304.154
304.113
304.081
303.995
303.932
303.913
303.911
303.923
303.966
362.026
361.086
360.403
360.009
360.075
360.429
361.228
362.176
362.907
363.508
363.774
363.486
362.86
362.198
361.286
360.481
360.088
360.04
360.5
361.179
353.483
352.711
352.134
351.842
351.897
352.208
352.914
353.741
354.36
354.914
355.125
354.895
354.362
353.796
352.987
352.294
351.973
351.911
352.288
352.821
345.041
344.444
343.963
343.751
343.794
344.058
344.668
345.378
345.91
346.381
346.532
346.378
345.902
345.45
344.741
344.147
343.902
343.839
344.159
344.552
336.698
336.259
335.879
335.753
335.756
335.988
336.499
337.068
337.519
337.897
338
337.913
337.489
337.121
336.541
336.08
335.883
335.822
336.089
336.36
328.451
328.148
327.85
327.777
327.764
327.964
328.361
328.793
329.153
329.438
329.515
329.487
329.125
328.848
328.4
328.026
327.879
327.838
328.054
328.223
320.296
320.079
319.891
319.808
319.805
319.982
320.252
320.544
320.818
321.006
321.064
321.069
320.798
320.597
320.289
319.998
319.91
319.879
320.019
320.118
312.16
312.073
311.953
311.887
311.883
311.995
312.15
312.334
312.501
312.597
312.641
312.662
312.492
312.362
312.185
311.998
311.963
311.913
312.024
312.056
304.068
304.046
304.01
303.98
303.972
304.019
304.071
304.132
304.188
304.22
304.237
304.245
304.187
304.143
304.088
304.016
304.006
303.993
304.037
304.048
363.426
362.492
361.744
361.354
361.425
361.753
362.313
363.264
363.936
364.438
364.674
364.557
363.948
363.281
362.44
361.792
361.502
361.481
361.763
362.467
354.7
353.928
353.303
352.984
353.074
353.354
353.852
354.699
355.311
355.721
355.93
355.832
355.277
354.714
353.998
353.443
353.189
353.161
353.405
353.942
346.092
345.486
344.976
344.704
344.794
345.023
345.453
346.185
346.731
347.084
347.227
347.164
346.664
346.201
345.619
345.16
344.928
344.909
345.113
345.505
337.575
337.112
336.7
336.478
336.593
336.747
337.13
337.727
338.206
338.485
338.593
338.534
338.119
337.729
337.283
336.92
336.719
336.709
336.857
337.145
329.152
328.823
328.488
328.33
328.415
328.514
328.844
329.316
329.691
329.892
329.993
329.954
329.631
329.297
328.963
328.696
328.532
328.538
328.62
328.833
320.807
320.567
320.354
320.219
320.275
320.332
320.572
320.93
321.205
321.346
321.42
321.392
321.153
320.911
320.684
320.48
320.361
320.373
320.398
320.56
312.505
312.331
312.211
312.129
312.152
312.208
312.34
312.56
312.73
312.834
312.87
312.849
312.714
312.547
312.414
312.297
312.212
312.238
312.26
312.318
304.186
304.129
304.09
304.058
304.071
304.084
304.135
304.203
304.267
304.306
304.299
304.304
304.258
304.199
304.165
304.121
304.092
304.101
304.105
304.122
364.852
363.867
363.06
362.865
362.872
363.087
363.49
364.361
364.983
365.408
365.496
365.394
365.088
364.322
363.639
363.081
362.824
362.819
363.205
363.898
355.926
355.106
354.418
354.306
354.3
354.501
354.842
355.613
356.196
356.562
356.636
356.55
356.288
355.633
355.042
354.55
354.32
354.322
354.647
355.194
347.107
346.475
345.898
345.81
345.817
345.988
346.284
346.933
347.472
347.774
347.844
347.75
347.533
346.992
346.485
346.086
345.88
345.886
346.142
346.577
338.404
337.931
337.456
337.39
337.409
337.541
337.808
338.308
338.784
339.033
339.108
339.009
338.824
338.405
338.005
337.658
337.479
337.499
337.696
338.015
329.792
329.428
329.091
329.011
329.064
329.157
329.363
329.754
330.143
330.323
330.404
330.322
330.162
329.842
329.551
329.275
329.138
329.138
329.286
329.508
321.266
320.983
320.766
320.696
320.738
320.805
320.951
321.238
321.512
321.668
321.728
321.66
321.526
321.293
321.11
320.919
320.813
320.817
320.89
321.047
312.775
312.578
312.455
312.421
312.437
312.48
312.56
312.749
312.909
313.009
313.051
312.989
312.921
312.774
312.682
312.564
312.482
312.493
312.536
312.643
304.291
304.208
304.174
304.161
304.164
304.179
304.213
304.278
304.324
304.356
304.379
304.357
304.334
304.273
304.259
304.214
304.18
304.182
304.187
304.23
366.352
365.38
364.6
364.225
364.303
364.524
364.718
365.473
365.959
366.366
366.412
366.379
366.156
365.485
364.888
364.374
364.061
364.22
364.711
365.294
357.227
356.425
355.775
355.466
355.554
355.752
355.93
356.597
357.015
357.375
357.412
357.396
357.233
356.648
356.126
355.672
355.403
355.538
355.943
356.394
348.223
347.586
347.037
346.804
346.877
347.045
347.209
347.794
348.163
348.456
348.489
348.446
348.344
347.852
347.404
347.005
346.802
346.896
347.237
347.588
339.32
338.817
338.375
338.206
338.266
338.401
338.54
339.041
339.354
339.581
339.598
339.55
339.497
339.091
338.735
338.397
338.238
338.308
338.57
338.871
330.507
330.128
329.779
329.685
329.717
329.825
329.912
330.3
330.578
330.773
330.765
330.703
330.718
330.355
330.082
329.82
329.718
329.759
329.961
330.184
321.772
321.506
321.236
321.188
321.201
321.275
321.348
321.622
321.82
321.985
321.939
321.92
321.946
321.659
321.488
321.311
321.209
321.26
321.399
321.521
313.065
312.894
312.733
312.703
312.715
312.764
312.802
312.969
313.099
313.196
313.159
313.151
313.185
313.001
312.904
312.783
312.729
312.776
312.86
312.913
304.366
304.325
304.267
304.248
304.252
304.277
304.281
304.35
304.381
304.428
304.414
304.406
304.423
304.354
304.319
304.283
304.277
304.289
304.309
304.329
367.883
366.771
366.033
365.66
365.608
365.729
366.062
366.666
366.987
367.292
367.335
367.32
367.101
366.495
365.969
365.572
365.311
365.581
366.059
366.801
358.549
357.62
356.993
356.708
356.684
356.789
357.111
357.626
357.896
358.187
358.198
358.227
358.038
357.513
357.057
356.705
356.493
356.719
357.087
357.726
349.336
348.575
348.049
347.82
347.825
347.924
348.207
348.637
348.882
349.133
349.147
349.183
349.019
348.578
348.177
347.886
347.732
347.913
348.216
348.752
340.209
339.627
339.199
339.008
339.038
339.132
339.377
339.699
339.942
340.127
340.138
340.207
340.068
339.72
339.365
339.12
338.999
339.151
339.383
339.827
331.17
330.736
330.421
330.266
330.304
330.408
330.579
330.841
331.052
331.182
331.183
331.25
331.12
330.874
330.591
330.386
330.273
330.429
330.598
330.926
322.229
321.925
321.709
321.594
321.632
321.697
321.826
322.023
322.18
322.263
322.272
322.302
322.193
322.067
321.835
321.692
321.574
321.728
321.853
322.057
313.342
313.145
313.038
312.95
312.976
313.012
313.092
313.238
313.312
313.356
313.382
313.391
313.326
313.256
313.116
313.03
312.937
313.063
313.109
313.247
304.463
304.4
304.377
304.337
304.348
304.357
304.394
304.437
304.45
304.477
304.488
304.506
304.46
304.445
304.399
304.377
304.33
304.388
304.396
304.435
369.388
368.301
367.624
367.193
366.94
367.15
367.305
367.712
368.125
368.338
368.388
368.362
368.086
367.79
367.332
366.892
366.718
366.938
367.503
368.311
359.85
358.954
358.404
358.011
357.81
358.031
358.159
358.534
358.896
359.061
359.113
359.123
358.857
358.618
358.253
357.877
357.697
357.871
358.352
359.031
350.391
349.719
349.268
348.933
348.748
348.986
349.083
349.412
349.731
349.867
349.911
349.931
349.723
349.509
349.217
348.895
348.726
348.867
349.268
349.838
341.082
340.573
340.231
339.957
339.773
339.99
340.077
340.367
340.614
340.727
340.77
340.773
340.632
340.445
340.2
339.917
339.817
339.926
340.259
340.697
331.872
331.475
331.251
331.029
330.872
331.073
331.117
331.361
331.522
331.638
331.669
331.672
331.563
331.434
331.232
331.005
330.938
331.018
331.275
331.613
322.724
322.44
322.314
322.149
322.018
322.169
322.218
322.397
322.492
322.586
322.62
322.599
322.534
322.45
322.292
322.141
322.098
322.149
322.319
322.57
313.634
313.45
313.4
313.288
313.205
313.299
313.328
313.439
313.51
313.556
313.585
313.558
313.526
313.486
313.395
313.291
313.269
313.28
313.395
313.556
304.567
304.511
304.492
304.452
304.43
304.449
304.467
304.506
304.522
304.537
304.55
304.543
304.536
304.517
304.491
304.459
304.438
304.447
304.487
304.537
370.909
369.883
369.049
368.563
368.347
368.438
368.547
368.866
369.13
369.323
369.399
369.39
369.122
368.825
368.359
368.304
368.105
368.451
369.013
369.744
361.169
360.332
359.592
359.218
359.03
359.133
359.227
359.525
359.751
359.921
359.994
360.002
359.757
359.501
359.128
359.07
358.863
359.184
359.65
360.251
351.528
350.883
350.246
349.964
349.788
349.895
349.992
350.261
350.468
350.605
350.633
350.663
350.449
350.219
349.948
349.893
349.69
349.99
350.346
350.852
341.991
341.517
340.991
340.799
340.641
340.746
340.831
341.055
341.226
341.325
341.335
341.38
341.232
341.009
340.795
340.762
340.56
340.861
341.102
341.509
332.568
332.244
331.815
331.684
331.553
331.646
331.714
331.901
332.02
332.104
332.106
332.144
332.025
331.844
331.721
331.683
331.489
331.75
331.927
332.223
323.211
323.012
322.696
322.616
322.489
322.566
322.646
322.789
322.851
322.931
322.902
322.939
322.861
322.731
322.642
322.632
322.479
322.676
322.774
322.984
313.919
313.807
313.616
313.584
313.485
313.552
313.59
313.678
313.694
313.759
313.76
313.759
313.731
313.624
313.58
313.597
313.483
313.603
313.659
313.79
304.667
304.632
304.566
304.554
304.527
304.536
304.544
304.58
304.579
304.61
304.612
304.606
304.607
304.565
304.544
304.553
304.521
304.565
304.562
304.615
372.366
371.264
370.494
369.827
369.664
369.704
369.899
370.021
370.29
370.378
370.362
370.421
370.101
369.729
369.524
369.521
369.402
369.773
370.277
371.02
362.414
361.47
360.839
360.285
360.152
360.197
360.371
360.507
360.727
360.818
360.8
360.87
360.621
360.276
360.091
360.1
359.976
360.312
360.74
361.339
352.596
351.815
351.299
350.872
350.741
350.758
350.938
351.046
351.263
351.325
351.321
351.409
351.192
350.923
350.719
350.738
350.629
350.906
351.262
351.743
342.903
342.256
341.879
341.54
341.413
341.425
341.578
341.682
341.852
341.906
341.918
341.987
341.823
341.605
341.4
341.429
341.367
341.561
341.86
342.253
333.27
332.78
332.541
332.255
332.157
332.149
332.268
332.379
332.495
332.546
332.576
332.619
332.5
332.333
332.15
332.189
332.142
332.28
332.509
332.813
323.731
323.386
323.234
323.016
322.955
322.917
323.019
323.117
323.186
323.221
323.264
323.289
323.208
323.089
322.947
322.982
322.959
323.057
323.199
323.386
314.242
314.043
313.95
313.813
313.775
313.733
313.803
313.891
313.91
313.92
313.954
313.973
313.939
313.866
313.758
313.817
313.792
313.842
313.922
314.034
304.778
304.7
304.674
304.623
304.626
304.598
304.612
304.662
304.662
304.658
304.671
304.682
304.677
304.635
304.603
304.634
304.626
304.634
304.669
304.708
373.411
372.289
371.594
370.877
370.58
370.544
370.634
370.752
371.03
371.096
371.062
371.191
370.953
370.693
370.458
370.459
370.449
370.705
371.246
372.047
363.25
362.298
361.752
361.123
360.898
360.869
360.96
361.082
361.358
361.384
361.384
361.515
361.298
361.071
360.866
360.875
360.848
361.04
361.515
362.168
353.259
352.469
352.062
351.53
351.353
351.308
351.396
351.545
351.76
351.787
351.795
351.925
351.721
351.529
351.361
351.394
351.344
351.467
351.865
352.421
343.388
342.803
342.479
342.01
341.905
341.837
341.912
342.096
342.234
342.261
342.274
342.378
342.244
342.066
341.937
341.957
341.912
342.025
342.3
342.775
333.644
333.211
332.955
332.601
332.507
332.47
332.53
332.703
332.781
332.79
332.819
332.899
332.817
332.677
332.574
332.57
332.537
332.631
332.817
333.22
323.979
323.703
323.498
323.263
323.189
323.168
323.204
323.339
323.382
323.392
323.406
323.475
323.431
323.325
323.279
323.241
323.199
323.303
323.393
323.69
314.389
314.217
314.079
313.968
313.913
313.928
313.912
314.008
314.013
314.032
314.047
314.079
314.067
314.003
313.992
313.956
313.914
313.994
314.03
314.207
304.821
304.764
304.713
304.682
304.651
304.669
304.653
304.704
304.695
304.712
304.705
304.721
304.711
304.685
304.693
304.676
304.66
304.69
304.709
304.758
)
;

boundaryField
{
    hotSide
    {
        type            fixedGradient;
        gradient        nonuniform List<scalar> 
400
(
600.747
598.618
599.467
603.218
609.588
618.162
628.501
640.202
652.938
666.457
680.577
695.178
710.188
725.585
741.381
757.625
774.387
791.745
809.759
828.451
578.732
576.813
578.074
582.423
589.512
598.852
609.936
622.317
635.643
649.649
664.151
679.031
694.226
709.721
725.545
741.762
758.467
775.76
793.724
812.394
565.053
563.64
565.368
570.137
577.598
587.265
598.632
611.25
624.76
638.893
653.464
668.353
683.503
698.904
714.592
730.64
747.149
764.228
781.963
800.398
559.202
558.572
560.838
565.895
573.444
583.068
594.317
606.776
620.101
634.027
648.366
662.999
677.869
692.971
708.345
724.065
740.225
756.927
774.252
792.245
559.18
559.498
562.399
567.77
575.365
584.841
595.82
607.936
620.871
634.372
648.256
662.41
676.781
691.373
706.229
721.424
737.048
753.191
769.929
787.308
562.704
564.043
567.689
573.518
581.309
590.768
601.566
613.374
625.898
638.899
652.206
665.72
679.406
693.284
707.412
721.876
736.768
752.177
768.178
784.818
567.883
570.261
574.751
581.212
589.425
599.111
609.953
621.631
633.855
646.392
659.086
671.862
684.716
697.707
710.925
724.48
738.48
753.022
768.184
784.018
573.262
576.641
582.027
589.26
598.109
608.279
619.431
631.219
643.325
655.502
667.604
679.591
691.518
703.501
715.686
728.223
741.245
754.864
769.162
784.193
577.682
581.944
588.188
596.24
605.85
616.694
628.384
640.511
652.694
664.644
676.219
687.427
698.405
709.353
720.49
732.016
744.094
756.845
770.356
784.677
580.216
585.13
592.054
600.814
611.143
622.686
635
647.594
659.998
671.86
683.03
693.578
703.734
713.794
724.052
734.752
746.079
758.162
771.084
784.891
580.208
585.417
592.691
601.854
612.633
624.65
637.424
650.403
663.045
674.943
685.936
696.136
705.843
715.422
725.21
735.479
746.426
758.184
770.832
784.412
577.382
582.45
589.637
598.765
609.555
621.623
634.478
647.561
660.326
672.362
683.503
693.853
703.703
713.414
723.322
733.701
744.752
756.613
769.367
783.06
571.943
576.443
583.12
591.796
602.188
613.913
626.501
639.436
652.226
664.503
676.1
687.066
697.614
708.033
718.615
729.614
741.227
753.598
766.822
780.952
564.608
568.201
574.071
582.044
591.835
603.066
615.292
628.048
640.904
653.537
665.773
677.598
689.134
700.577
712.157
724.09
736.565
749.73
763.691
778.51
556.575
559.05
563.981
571.201
580.419
591.249
603.251
615.98
629.041
642.131
655.065
667.783
680.332
692.839
705.474
718.42
731.854
745.928
760.755
776.405
549.525
550.794
554.786
561.346
570.158
580.796
592.787
605.674
619.063
632.653
646.248
659.759
673.191
686.622
700.184
714.04
728.361
743.305
758.995
775.506
545.677
545.768
548.901
554.931
563.493
574.092
586.193
599.306
613.025
627.046
641.169
655.29
669.39
683.523
697.799
712.368
727.406
743.081
759.531
776.83
547.698
546.777
549.155
554.695
562.987
573.47
585.558
598.736
612.593
626.828
641.242
655.726
670.25
684.849
699.617
714.698
730.265
746.498
763.543
781.471
557.948
556.323
558.038
562.972
570.72
580.723
592.403
605.255
618.88
632.986
647.378
661.943
676.638
691.487
706.564
721.997
737.945
754.576
772.026
790.361
577.138
575.153
576.29
580.452
587.307
596.385
607.185
619.257
632.235
645.842
659.885
674.248
688.877
703.776
719
734.646
750.841
767.716
785.377
803.871
)
;
    }
    coldSide
    {
        type            mixed;
        refValue        uniform 300;
        refGradient     uniform 0;
        valueFraction   uniform 0.991591;
        source          uniform 0;
        value           nonuniform List<scalar> 
400
(
300.029
300.029
300.029
300.029
300.03
300.03
300.031
300.031
300.032
300.033
300.034
300.034
300.035
300.036
300.037
300.038
300.038
300.039
300.04
300.041
300.028
300.028
300.029
300.029
300.029
300.03
300.03
300.031
300.032
300.032
300.033
300.034
300.035
300.035
300.036
300.037
300.038
300.039
300.04
300.04
300.028
300.028
300.028
300.028