/*--------------------------------*- C++ -*----------------------------------*\
| =========                 |                                                 |
| \\      /  F ield         | OpenFOAM: The Open Source CFD Toolbox           |
|  \\    /   O peration     | Version:  2212                                  |
|   \\  /    A nd           | Website:  www.openfoam.com                      |
|    \\/     M anipulation  |                                                 |
\*---------------------------------------------------------------------------*/
FoamFile
{
    version     2.0;
    format      ascii;
    arch        "LSB;label=32;scalar=64";
    class       volScalarField;
    location    "0";
    object      T;
}
// * * * * * * * * * * * * * * * * * * * * * * * * * * * * * * * * * * * * * //

dimensions      [0 0 0 1 0 0 0];

internalField   nonuniform List<scalar> 
3200
(
346.434
344.706
343.036
342.427
341.923
341.838
342.096
342.223
342.249
342.228
341.973
341.621
341.046
340.412
339.663
339.132
338.99
339.21
340.044
341.531
340.2
338.761
337.342
336.837
336.373
336.319
336.565
336.67
336.702
336.664
336.496
336.169
335.685
335.134
334.491
334.025
333.926
334.097
334.806
336.045
333.985
332.81
331.637
331.218
330.816
330.811
330.99
331.075
331.127
331.073
330.957
330.691
330.27
329.807
329.268
328.887
328.821
328.948
329.545
330.546
327.788
326.874
325.923
325.558
325.244
325.256
325.408
325.458
325.535
325.484
325.383
325.193
324.809
324.443
324.012
323.697
323.654
323.762
324.26
325.019
321.611
320.931
320.188
319.916
319.649
319.68
319.817
319.834
319.9
319.862
319.788
319.654
319.318
319.05
318.719
318.455
318.432
318.548
318.914
319.5
315.432
314.978
314.464
314.26
314.057
314.098
314.204
314.198
314.232
314.21
314.138
314.066
313.831
313.626
313.386
313.187
313.194
313.275
313.549
313.954
309.274
308.998
308.713
308.58
308.456
308.479
308.544
308.533
308.555
308.539
308.487
308.461
308.327
308.186
308.051
307.916
307.93
307.997
308.158
308.386
303.113
303.015
302.916
302.877
302.841
302.835
302.862
302.868
302.871
302.868
302.837
302.849
302.787
302.742
302.694
302.655
302.658
302.672
302.734
302.817
346.781
345.01
343.577
342.779
342.434
342.363
342.517
342.733
342.934
342.855
342.705
342.318
341.62
340.923
340.055
339.614
339.382
339.632
340.422
341.921
340.501
339.015
337.807
337.101
336.838
336.771
336.902
337.094
337.299
337.196
337.066
336.766
336.158
335.57
334.806
334.451
334.251
334.468
335.127
336.389
334.237
333.013
332.04
331.405
331.205
331.173
331.266
331.44
331.621
331.517
331.407
331.177
330.656
330.174
329.553
329.249
329.065
329.248
329.813
330.868
327.992
326.996
326.247
325.695
325.555
325.559
325.609
325.753
325.918
325.831
325.737
325.571
325.124
324.746
324.262
323.998
323.831
324.006
324.475
325.323
321.752
320.985
320.426
319.99
319.892
319.92
319.913
320.048
320.183
320.123
320.045
319.923
319.573
319.274
318.926
318.695
318.579
318.726
319.1
319.749
315.521
314.985
314.601
314.29
314.218
314.253
314.219
314.323
314.42
314.404
314.355
314.237
313.99
313.786
313.566
313.368
313.29
313.408
313.687
314.111
309.307
308.986
308.778
308.592
308.535
308.575
308.558
308.618
308.662
308.665
308.632
308.558
308.408
308.271
308.155
308.035
307.988
308.071
308.236
308.484
303.122
303.008
302.946
302.89
302.857
302.877
302.863
302.89
302.92
302.907
302.888
302.874
302.812
302.774
302.741
302.694
302.678
302.708
302.766
302.843
347.425
345.695
344.428
343.489
343.169
343.12
343.344
343.622
343.763
343.725
343.635
343.309
342.567
341.826
340.956
340.375
340.095
340.305
341.11
342.461
341.041
339.629
338.549
337.717
337.448
337.414
337.607
337.864
337.988
337.914
337.886
337.628
336.962
336.357
335.585
335.106
334.876
335.045
335.753
336.871
334.716
333.536
332.679
331.919
331.73
331.692
331.865
332.06
332.185
332.115
332.118
331.919
331.309
330.852
330.179
329.807
329.589
329.729
330.342
331.255
328.359
327.411
326.766
326.128
325.999
325.945
326.079
326.243
326.37
326.329
326.301
326.159
325.661
325.3
324.763
324.45
324.28
324.368
324.873
325.631
322.035
321.332
320.841
320.318
320.247
320.189
320.274
320.4
320.544
320.504
320.483
320.391
319.982
319.707
319.307
319.067
318.947
318.974
319.386
319.985
315.743
315.259
314.913
314.518
314.473
314.421
314.462
314.568
314.696
314.652
314.646
314.609
314.284
314.112
313.822
313.639
313.579
313.553
313.865
314.295
309.463
309.169
308.963
308.737
308.702
308.659
308.668
308.756
308.829
308.802
308.782
308.787
308.59
308.487
308.317
308.206
308.166
308.149
308.333
308.576
303.174
303.076
303.008
302.93
302.911
302.9
302.91
302.934
302.959
302.952
302.94
302.944
302.871
302.84
302.79
302.75
302.743
302.734
302.796
302.874
348.435
346.813
345.447
344.468
344.254
344.23
344.327
344.666
344.997
344.856
344.767
344.467
343.727
342.882
342.089
341.492
341.085
341.302
342.173
343.573
341.935
340.585
339.432
338.575
338.375
338.352
338.44
338.755
339.038
338.926
338.838
338.627
337.968
337.261
336.586
336.07
335.699
335.917
336.663
337.836
335.451
334.345
333.403
332.681
332.507
332.455
332.544
332.807
333.067
332.981
332.906
332.746
332.183
331.606
331.05
330.61
330.271
330.487
331.106
332.079
328.987
328.12
327.359
326.764
326.622
326.583
326.636
326.863
327.064
327.024
326.934
326.848
326.356
325.934
325.458
325.125
324.827
325.021
325.543
326.307
322.547
321.875
321.291
320.817
320.727
320.689
320.713
320.908
321.064
321.061
320.943
320.917
320.537
320.219
319.85
319.607
319.348
319.506
319.936
320.508
316.112
315.633
315.214
314.874
314.813
314.78
314.8
314.952
315.059
315.068
314.965
314.993
314.707
314.478
314.192
314.035
313.828
313.958
314.298
314.68
309.677
309.396
309.138
308.931
308.906
308.881
308.896
308.998
309.033
309.06
308.998
309.015
308.836
308.707
308.532
308.442
308.313
308.375
308.61
308.817
303.248
303.145
303.056
302.992
302.994
302.981
302.998
303.016
303.024
303.032
303.022
303.038
302.965
302.916
302.86
302.827
302.795
302.821
302.891
302.962
349.701
348.181
346.688
345.75
345.48
345.511
345.683
345.959
346.234
346.292
346.126
345.823
345.083
344.264
343.555
342.714
342.352
342.682
343.477
344.812
343.037
341.775
340.507
339.69
339.442
339.486
339.623
339.867
340.107
340.183
340.04
339.81
339.134
338.45
337.845
337.105
336.819
337.094
337.799
338.918
336.366
335.353
334.297
333.609
333.412
333.449
333.552
333.753
333.977
334.066
333.94
333.758
333.172
332.623
332.105
331.487
331.253
331.466
332.061
333.012
329.726
328.941
328.087
327.524
327.355
327.382
327.469
327.641
327.823
327.926
327.805
327.661
327.173
326.747
326.328
325.818
325.635
325.807
326.293
327.065
323.107
322.511
321.872
321.418
321.33
321.311
321.37
321.525
321.658
321.746
321.662
321.539
321.146
320.838
320.512
320.117
319.999
320.113
320.515
321.107
316.495
316.099
315.635
315.294
315.261
315.238
315.281
315.374
315.466
315.559
315.489
315.401
315.114
314.922
314.678
314.358
314.325
314.417
314.691
315.109
309.912
309.676
309.4
309.175
309.173
309.178
309.185
309.229
309.286
309.357
309.298
309.256
309.082
308.979
308.825
308.615
308.612
308.674
308.839
309.096
303.318
303.25
303.15
303.066
303.077
303.085
303.083
303.101
303.122
303.135
303.119
303.104
303.048
303.012
302.951
302.89
302.884
302.913
302.97
303.063
351.147
349.692
348.241
347.329
347.08
346.998
347.059
347.427
347.72
347.904
347.752
347.287
346.672
345.839
344.996
344.275
343.895
344.179
345.008
346.131
344.272
343.095
341.833
341.047
340.844
340.753
340.785
341.114
341.423
341.583
341.432
341.049
340.542
339.784
339.074
338.493
338.152
338.422
339.104
340.04
337.426
336.492
335.411
334.724
334.588
334.504
334.528
334.791
335.111
335.219
335.102
334.777
334.376
333.72
333.146
332.659
332.372
332.59
333.181
333.945
330.616
329.893
329
328.426
328.307
328.247
328.286
328.48
328.762
328.84
328.768
328.484
328.179
327.641
327.187
326.787
326.557
326.718
327.219
327.831
323.811
323.277
322.589
322.124
322.038
321.984
322.033
322.185
322.377
322.447
322.416
322.176
321.949
321.526
321.195
320.873
320.71
320.822
321.211
321.714
317.023
316.643
316.143
315.818
315.747
315.725
315.749
315.882
315.987
316.047
316.044
315.845
315.703
315.414
315.177
314.923
314.845
314.912
315.162
315.56
310.228
309.994
309.688
309.503
309.433
309.448
309.464
309.543
309.589
309.646
309.653
309.509
309.438
309.262
309.109
308.945
308.936
308.963
309.099
309.368
303.427
303.346
303.231
303.19
303.15
303.155
303.181
303.199
303.214
303.232
303.252
303.187
303.164
303.093
303.055
302.989
302.991
303.004
303.049
303.143
352.894
351.464
349.921
349.019
348.718
348.734
348.786
348.95
349.188
349.569
349.397
349.039
348.349
347.51
346.601
345.912
345.627
345.944
346.731
347.885
345.809
344.616
343.265
342.502
342.247
342.28
342.301
342.466
342.678
343.007
342.853
342.544
341.944
341.244
340.469
339.88
339.653
339.904
340.588
341.589
338.743
337.775
336.608
335.972
335.771
335.807
335.799
335.96
336.16
336.426
336.3
336.061
335.541
334.968
334.308
333.822
333.634
333.851
334.416
335.24
331.677
330.922
329.961
329.427
329.314
329.334
329.318
329.451
329.613
329.84
329.758
329.542
329.122
328.666
328.1
327.729
327.597
327.777
328.213
328.871
324.63
324.072
323.32
322.905
322.822
322.843
322.843
322.913
323.057
323.226
323.189
323.012
322.686
322.338
321.885
321.616
321.504
321.667
321.987
322.489
317.59
317.215
316.67
316.388
316.305
316.315
316.34
316.379
316.481
316.621
316.595
316.442
316.242
316
315.659
315.476
315.396
315.524
315.713
316.101
310.563
310.356
310.021
309.848
309.796
309.796
309.82
309.845
309.894
310.008
309.962
309.878
309.764
309.618
309.407
309.302
309.27
309.353
309.438
309.665
303.535
303.476
303.362
303.301
303.273
303.283
303.293
303.296
303.314
303.357
303.332
303.305
303.277
303.224
303.157
303.132
303.111
303.13
303.159
303.244
354.746
353.231
351.793
350.935
350.556
350.441
350.536
350.773
350.999
351.181
351.058
350.71
350.106
349.223
348.399
347.627
347.499
347.836
348.511
349.697
347.394
346.125
344.894
344.147
343.832
343.746
343.815
344.033
344.22
344.393
344.286
343.983
343.498
342.722
342.017
341.334
341.277
341.58
342.134
343.142
340.049
339.013
337.993
337.348
337.112
337.044
337.089
337.27
337.45
337.599
337.525
337.271
336.865
336.206
335.614
335.048
334.995
335.271
335.711
336.538
332.741
331.917
331.113
330.557
330.381
330.319
330.367
330.522
330.677
330.817
330.746
330.536
330.206
329.674
329.188
328.736
328.691
328.932
329.255
329.911
325.447
324.827
324.233
323.798
323.663
323.601
323.644
323.742
323.898
324.004
323.955
323.784
323.517
323.135
322.735
322.384
322.335
322.551
322.767
323.29
318.164
317.733
317.34
317.022
316.913
316.87
316.911
316.955
317.101
317.169
317.132
317.012
316.824
316.548
316.258
316.026
315.984
316.142
316.274
316.664
310.909
310.631
310.427
310.217
310.163
310.137
310.154
310.19
310.301
310.305
310.292
310.228
310.127
309.958
309.766
309.649
309.611
309.699
309.773
310.034
303.653
303.56
303.502
303.426
303.41
303.393
303.398
303.423
303.463
303.459
303.45
303.432
303.403
303.343
303.279
303.239
303.229
303.252
303.276
303.372
356.758
355.136
353.879
352.981
352.512
352.382
352.371
352.577
352.895
353.065
352.881
352.561
351.937
351.166
350.394
349.632
349.523
349.746
350.466
351.628
349.156
347.773
346.698
345.942
345.537
345.415
345.398
345.565
345.864
346.025
345.873
345.611
345.087
344.41
343.749
343.085
343.022
343.222
343.833
344.817
341.544
340.39
339.497
338.885
338.541
338.431
338.443
338.546
338.827
338.956
338.846
338.641
338.231
337.641
337.067
336.532
336.483
336.654
337.148
337.982
333.971
333.038
332.315
331.834
331.559
331.447
331.451
331.543
331.784
331.897
331.804
331.645
331.328
330.853
330.352
329.919
329.9
330.057
330.446
331.108
326.424
325.708
325.133
324.768
324.557
324.472
324.471
324.559
324.754
324.83
324.742
324.627
324.428
324.03
323.646
323.312
323.284
323.413
323.701
324.218
318.868
318.388
317.957
317.717
317.536
317.471
317.474
317.544
317.69
317.741
317.694
317.606
317.479
317.172
316.926
316.672
316.657
316.752
316.939
317.333
311.319
311.065
310.798
310.651
310.533
310.478
310.494
310.523
310.649
310.629
310.632
310.576
310.517
310.297
310.186
310.046
309.986
310.075
310.181
310.423
303.788
303.715
303.617
303.571
303.535
303.505
303.521
303.522
303.579
303.558
303.572
303.551
303.533
303.45
303.413
303.37
303.352
303.37
303.422
303.493
358.776
357.269
356.01
355.086
354.652
354.386
354.293
354.398
354.671
354.914
354.723
354.383
353.695
352.959
352.277
351.64
351.588
351.818
352.59
353.553
350.877
349.619
348.532
347.771
347.386
347.165
347.072
347.161
347.404
347.611
347.462
347.177
346.608
345.975
345.359
344.818
344.803
344.992
345.661
346.464
343.004
341.988
341.056
340.445
340.103
339.91
339.846
339.911
340.136
340.302
340.208
339.952
339.501
338.969
338.436
337.986
337.992
338.135
338.724
339.379
335.176
334.36
333.596
333.12
332.819
332.661
332.603
332.648
332.847
333.004
332.926
332.718
332.36
331.907
331.453
331.137
331.13
331.244
331.763
332.25
327.357
326.71
326.105
325.787
325.551
325.403
325.356
325.384
325.557
325.702
325.631
325.462
325.21
324.841
324.474
324.252
324.24
324.324
324.752
325.112
319.551
319.092
318.648
318.443
318.27
318.164
318.118
318.129
318.254
318.388
318.329
318.186
318.042
317.765
317.496
317.339
317.334
317.399
317.723
317.955
311.746
311.481
311.185
311.077
310.979
310.915
310.895
310.879
310.964
311.054
311.003
310.921
310.851
310.68
310.502
310.42
310.415
310.463
310.66
310.791
303.941
303.844
303.743
303.71
303.678
303.667
303.652
303.645
303.675
303.706
303.694
303.665
303.641
303.584
303.519
303.488
303.489
303.5
303.566
303.622
360.944
359.611
358.173
357.27
356.656
356.31
356.29
356.404
356.583
356.625
356.43
356.143
355.565
354.933
354.173
353.846
353.771
354.037
354.741
355.575
352.751
351.649
350.4
349.64
349.12
348.82
348.809
348.884
349.08
349.088
348.926
348.695
348.208
347.664
347.007
346.734
346.698
346.929
347.527
348.234
344.616
343.687
342.646
342.009
341.587
341.343
341.331
341.383
341.572
341.56
341.432
341.215
340.841
340.363
339.804
339.597
339.591
339.766
340.29
340.853
336.514
335.742
334.892
334.389
334.052
333.847
333.839
333.883
334.047
334.03
333.916
333.728
333.468
333.051
332.584
332.433
332.45
332.575
333.038
333.466
328.411
327.789
327.168
326.776
326.511
326.34
326.34
326.363
326.529
326.49
326.389
326.235
326.062
325.726
325.367
325.249
325.271
325.379
325.736
326.055
320.303
319.852
319.421
319.155
318.934
318.846
318.82
318.836
318.983
318.949
318.851
318.75
318.653
318.389
318.134
318.045
318.054
318.154
318.413
318.607
312.192
311.919
311.683
311.513
311.371
311.337
311.297
311.309
311.419
311.383
311.308
311.265
311.22
311.07
310.902
310.85
310.83
310.909
311.067
311.174
304.09
303.989
303.925
303.859
303.82
303.803
303.79
303.792
303.826
303.818
303.788
303.782
303.761
303.716
303.658
303.645
303.632
303.657
303.711
303.75
363.211
361.79
360.366
359.479
358.725
358.459
358.292
358.342
358.439
358.454
358.292
357.936
357.332
356.85
356.223
355.832
355.833
356.069
356.839
357.811
354.736
353.51
352.344
351.567
350.905
350.68
350.54
350.597
350.68
350.697
350.566
350.26
349.75
349.341
348.803
348.478
348.465
348.665
349.355
350.154
346.288
345.263
344.314
343.658
343.087
342.908
342.776
342.82
342.908
342.954
342.818
342.57
342.134
341.821
341.332
341.091
341.081
341.235
341.839
342.494
337.846
337.031
336.272
335.757
335.293
335.136
334.992
335.062
335.13
335.185
335.073
334.864
334.499
334.241
333.853
333.669
333.658
333.77
334.292
334.82
329.412
328.807
328.228
327.835
327.476
327.327
327.211
327.3
327.349
327.385
327.309
327.129
326.846
326.659
326.354
326.235
326.209
326.297
326.709
327.102
321.015
320.556
320.184
319.897
319.629
319.526
319.441
319.505
319.552
319.577
319.544
319.392
319.18
319.052
318.847
318.761
318.761
318.816
319.098
319.376
312.621
312.338
312.137
311.942
311.794
311.724
311.658
311.696
311.742
311.752
311.73
311.647
311.525
311.449
311.321
311.269
311.263
311.317
311.468
311.639
304.233
304.142
304.065
303.998
303.961
303.929
303.903
303.936
303.932
303.93
303.915
303.898
303.862
303.828
303.799
303.776
303.782
303.798
303.848
303.903
365.356
363.988
362.698
361.645
360.913
360.696
360.398
360.302
360.251
360.202
360.172
359.64
359.137
358.736
358.285
358.066
357.96
358.281
358.99
359.896
356.575
355.443
354.35
353.424
352.784
352.625
352.379
352.292
352.235
352.189
352.175
351.726
351.292
350.981
350.595
350.398
350.316
350.6
351.212
351.982
347.849
346.893
345.972
345.218
344.651
344.526
344.341
344.275
344.238
344.185
344.179
343.809
343.433
343.197
342.879
342.694
342.613
342.888
343.397
344.032
339.122
338.349
337.591
337.036
336.562
336.428
336.281
336.255
336.215
336.171
336.176
335.894
335.553
335.395
335.131
334.979
334.896
335.141
335.556
336.066
330.397
329.841
329.25
328.834
328.481
328.333
328.228
328.214
328.178
328.145
328.157
327.952
327.671
327.561
327.346
327.247
327.162
327.373
327.686
328.08
321.713
321.318
320.912
320.629
320.36
320.24
320.161
320.171
320.142
320.12
320.145
319.998
319.783
319.699
319.564
319.499
319.406
319.59
319.81
320.078
313.034
312.797
312.569
312.41
312.221
312.146
312.119
312.123
312.088
312.088
312.111
312.016
311.874
311.826
311.751
311.731
311.664
311.778
311.903
312.084
304.365
304.284
304.219
304.164
304.1
304.065
304.075
304.066
304.056
304.054
304.063
304.031
303.982
303.954
303.935
303.938
303.915
303.949
303.993
304.057
367.575
366.308
365.031
363.877
363.128
362.739
362.472
362.218
362.199
362.022
361.832
361.44
361.005
360.729
360.278
360.148
360.101
360.542
361.165
362.067
358.499
357.453
356.322
355.367
354.712
354.392
354.156
353.948
353.937
353.776
353.624
353.291
352.932
352.709
352.304
352.21
352.151
352.589
353.112
353.85
349.479
348.599
347.629
346.875
346.32
346.048
345.857
345.694
345.665
345.536
345.418
345.131
344.816
344.644
344.33
344.253
344.189
344.581
345.006
345.592
340.478
339.757
338.949
338.374
337.926
337.7
337.544
337.438
337.394
337.29
337.191
336.97
336.687
336.555
336.32
336.263
336.212
336.54
336.862
337.319
331.473
330.938
330.287
329.851
329.521
329.296
329.211
329.165
329.111
329.034
328.945
328.776
328.555
328.458
328.31
328.23
328.187
328.452
328.694
329.035
322.485
322.118
321.636
321.335
321.099
320.94
320.866
320.876
320.829
320.769
320.685
320.558
320.423
320.348
320.272
320.173
320.141
320.364
320.515
320.741
313.505
313.279
312.971
312.808
312.676
312.59
312.542
312.542
312.517
312.478
312.425
312.344
312.261
312.228
312.173
312.114
312.114
312.243
312.329
312.449
304.529
304.45
304.342
304.296
304.259
304.219
304.198
304.211
304.204
304.179
304.162
304.129
304.114
304.098
304.085
304.063
304.069
304.102
304.143
304.167
369.807
368.651
367.349
366.16
365.317
364.805
364.518
364.289
364.076
363.853
363.672
363.418
363.042
362.646
362.338
362.201
362.26
362.773
363.429
364.158
360.426
359.49
358.368
357.324
356.602
356.182
355.931
355.743
355.541
355.39
355.224
355.022
354.691
354.372
354.09
353.979
354.013
354.48
355.054
355.63
351.076
350.329
349.4
348.512
347.915
347.56
347.344
347.192
347.03
346.916
346.749
346.595
346.316
346.076
345.835
345.71
345.753
346.17
346.654
347.093
341.752
341.191
340.424
339.697
339.247
338.928
338.775
338.651
338.518
338.441
338.278
338.163
337.938
337.73
337.561
337.427
337.465
337.817
338.22
338.557
332.449
332.042
331.445
330.901
330.535
330.287
330.192
330.076
329.986
329.916
329.794
329.708
329.536
329.376
329.255
329.114
329.168
329.447
329.773
330.018
323.163
322.876
322.468
322.077
321.83
321.651
321.589
321.485
321.446
321.391
321.299
321.246
321.11
321.011
320.918
320.796
320.872
321.074
321.304
321.473
313.898
313.733
313.502
313.253
313.087
313.015
312.973
312.904
312.901
312.843
312.802
312.779
312.676
312.635
312.567
312.486
312.546
312.673
312.807
312.906
304.648
304.599
304.537
304.438
304.385
304.365
304.343
304.319
304.332
304.297
304.293
304.292
304.25
304.242
304.224
304.182
304.215
304.242
304.292
304.334
371.968
370.828
369.636
368.507
367.519
366.961
366.6
366.305
366.015
365.717
365.565
365.232
364.818
364.48
364.32
364.264
364.425
364.771
365.57
366.426
362.295
361.37
360.345
359.382
358.512
358.029
357.743
357.498
357.232
356.989
356.872
356.577
356.209
355.957
355.778
355.767
355.942
356.23
356.89
357.61
352.654
351.902
351.05
350.245
349.53
349.085
348.885
348.681
348.449
348.245
348.154
347.912
347.579
347.411
347.235
347.229
347.424
347.653
348.186
348.784
343.053
342.444
341.754
341.09
340.546
340.158
340.03
339.852
339.655
339.484
339.433
339.234
338.973
338.84
338.711
338.675
338.859
339.057
339.458
339.928
333.472
333.018
332.463
331.954
331.565
331.246
331.15
331.014
330.846
330.719
330.699
330.566
330.339
330.228
330.148
330.11
330.276
330.424
330.711
331.075
323.899
323.591
323.208
322.812
322.581
322.321
322.257
322.17
322.041
321.954
321.958
321.87
321.706
321.607
321.592
321.526
321.626
321.751
321.958
322.219
314.344
314.159
313.929
313.684
313.571
313.4
313.364
313.334
313.242
313.179
313.192
313.15
313.05
312.967
312.982
312.946
313.014
313.073
313.2
313.36
304.806
304.75
304.668
304.587
304.555
304.495
304.48
304.476
304.442
304.424
304.429
304.404
304.368
304.348
304.346
304.344
304.36
304.386
304.433
304.474
374.242
373.022
371.913
370.737
369.807
369.078
368.599
368.317
367.859
367.478
367.438
367.118
366.743
366.476
366.266
366.307
366.606
366.924
367.874
368.622
364.249
363.25
362.317
361.304
360.501
359.875
359.469
359.232
358.836
358.52
358.494
358.213
357.893
357.67
357.479
357.534
357.801
358.083
358.899
359.53
354.311
353.502
352.735
351.9
351.19
350.656
350.326
350.131
349.795
349.56
349.534
349.311
349.038
348.864
348.674
348.713
348.97
349.226
349.882
350.423
344.409
343.758
343.147
342.467
341.876
341.452
341.19
341.04
340.758
340.57
340.558
340.392
340.168
340.034
339.867
339.89
340.102
340.321
340.845
341.305
334.537
334.018
333.549
333.036
332.566
332.233
332.06
331.918
331.74
331.575
331.576
331.446
331.282
331.182
331.043
331.067
331.22
331.381
331.778
332.191
324.684
324.298
323.976
323.603
323.263
322.992
322.91
322.806
322.687
322.571
322.577
322.475
322.364
322.309
322.2
322.215
322.311
322.427
322.71
323.023
314.831
314.581
314.409
314.169
313.964
313.802
313.757
313.719
313.632
313.575
313.566
313.501
313.446
313.411
313.339
313.35
313.393
313.478
313.645
313.819
304.973
304.883
304.824
304.756
304.676
304.636
304.606
304.602
304.578
304.559
304.545
304.531
304.508
304.502
304.463
304.479
304.476
304.518
304.579
304.634
376.38
375.126
374.152
372.874
371.959
371.054
370.58
370.098
369.662
369.405
369.257
368.85
368.503
368.432
368.208
368.355
368.555
369.047
369.86
370.681
366.128
365.067
364.222
363.135
362.345
361.563
361.159
360.755
360.354
360.16
360.049
359.699
359.405
359.352
359.142
359.299
359.501
359.879
360.602
361.281
355.886
355.008
354.322
353.427
352.752
352.077
351.75
351.404
351.076
350.906
350.86
350.54
350.299
350.278
350.106
350.231
350.427
350.694
351.331
351.894
345.68
344.999
344.424
343.706
343.149
342.582
342.339
342.057
341.801
341.67
341.657
341.381
341.192
341.174
341.048
341.117
341.333
341.532
342.021
342.476
335.51
334.995
334.537
333.987
333.56
333.123
332.939
332.714
332.506
332.42
332.421
332.215
332.076
332.063
331.951
331.997
332.199
332.339
332.692
333.071
325.37
325.005
324.682
324.274
323.975
323.666
323.54
323.383
323.224
323.158
323.155
323.036
322.925
322.938
322.841
322.884
323.024
323.133
323.372
323.656
315.221
315.043
314.821
314.568
314.398
314.21
314.131
314.048
313.964
313.902
313.901
313.831
313.776
313.794
313.707
313.775
313.83
313.912
314.036
314.23
305.106
305.047
304.96
304.879
304.823
304.764
304.737
304.71
304.663
304.651
304.659
304.635
304.629
304.634
304.593
304.624
304.631
304.668
304.716
304.775
378.309
377.138
376.08
374.772
373.743
372.836
372.336
371.909
371.458
371.193
370.884
370.626
370.262
370.159
369.956
370.108
370.485
370.946
371.641
372.406
367.74
366.761
365.877
364.733
363.87
363.086
362.643
362.308
361.93
361.701
361.429
361.225
360.895
360.812
360.653
360.778
361.117
361.503
362.104
362.73
357.234
356.435
355.695
354.746
354.014
353.347
352.985
352.694
352.401
352.194
351.988
351.81
351.545
351.478
351.351
351.447
351.745
352.072
352.558
353.072
346.762
346.147
345.523
344.765
344.181
343.634
343.328
343.106
342.868
342.696
342.547
342.397
342.194
342.147
342.059
342.099
342.372
342.647
343.017
343.427
336.35
335.873
335.387
334.806
334.377
333.961
333.714
333.544
333.347
333.195
333.098
333.013
332.838
332.806
332.745
332.751
332.996
333.202
333.479
333.771
325.975
325.599
325.25
324.843
324.579
324.262
324.075
323.979
323.834
323.711
323.645
323.599
323.467
323.439
323.402
323.406
323.588
323.749
323.929
324.117
315.595
315.359
315.168
314.928
314.766
314.567
314.454
314.399
314.339
314.24
314.204
314.176
314.107
314.067
314.064
314.054
314.197
314.269
314.363
314.477
305.216
305.144
305.083
305.006
304.949
304.885
304.842
304.833
304.803
304.764
304.758
304.749
304.728
304.719
304.71
304.711
304.765
304.779
304.812
304.847
379.843
378.621
377.353
376.2
375.218
374.355
373.737
373.16
372.819
372.426
372.16
371.738
371.565
371.463
371.251
371.421
371.895
372.448
373.027
373.716
369.006
368.002
366.941
365.923
365.059
364.356
363.832
363.299
363.038
362.688
362.497
362.119
361.966
361.879
361.69
361.845
362.274
362.754
363.234
363.816
358.246
357.434
356.556
355.694
354.944
354.395
353.97
353.516
353.292
352.979
352.841
352.528
352.398
352.331
352.159
352.282
352.698
353.078
353.478
353.954
347.553
346.923
346.204
345.505
344.908
344.454
344.141
343.767
343.573
343.288
343.208
342.964
342.862
342.815
342.645
342.775
343.12
343.431
343.738
344.122
336.922
336.461
335.881
335.352
334.916
334.537
334.325
334.042
333.889
333.643
333.581
333.405
333.342
333.279
333.141
333.28
333.535
333.797
334.029
334.317
326.339
326.03
325.614
325.24
324.943
324.665
324.554
324.322
324.231
324.025
323.985
323.858
323.825
323.745
323.656
323.779
323.947
324.149
324.323
324.52
315.817
315.611
315.364
315.146
314.97
314.799
314.748
314.599
314.551
314.426
314.413
314.335
314.305
314.248
314.199
314.28
314.399
314.505
314.618
314.705
305.302
305.235
305.141
305.069
305.016
304.955
304.945
304.892
304.875
304.828
304.827
304.801
304.796
304.779
304.756
304.782
304.827
304.854
304.903
304.925
)
;

boundaryField
{
    hotSide
    {
        type            fixedGradient;
        gradient        nonuniform List<scalar> 
400
(
501.105
504.713
511.791
522.266
535.824
552.006
570.317
590.299
611.568
633.811
656.782
680.287
704.166
728.286
752.53
776.79
800.966
824.975
848.755
872.281
474.35
478.105
485.575
496.67
511.012
528.061
547.254
568.087
590.149
613.119
636.748
660.844
685.253
709.848
734.517
759.153
783.659
807.946
831.952
855.655
456.052
460.207
468.047
479.476
494.121
511.451
530.907
551.987
574.275
597.447
621.249
645.488
670.01
694.689
719.418
744.096
768.631
792.943
816.975
840.71
445.723
450.505
458.706
470.23
484.765
501.861
521.028
541.805
563.796
586.676
610.192
634.142
658.372
682.755
707.187
731.579
755.851
779.938
803.799
827.422
441.264
446.781
455.367
466.924
481.205
497.853
516.462
536.632
558
580.258
603.152
626.485
650.101
673.881
697.73
721.571
745.345
769.004
792.521
815.89
440.312
446.579
455.597
467.264
481.37
497.624
515.687
535.21
555.865
577.365
599.469
621.99
644.788
667.757
690.824
713.931
737.04
760.121
783.16
806.154
440.995
447.981
457.482
469.384
483.494
499.549
517.244
536.259
556.285
577.052
598.338
619.977
641.856
663.903
686.071
708.336
730.68
753.093
775.569
798.108
441.97
449.615
459.626
471.879
486.179
502.267
519.839
538.571
558.153
578.315
598.851
619.627
640.574
661.665
682.901
704.29
725.842
747.563
769.454
791.516
442.263
450.461
460.958
473.621
488.247
504.565
522.247
540.94
560.298
580.035
599.952
619.957
640.037
660.23
680.589
701.163
721.986
743.076
764.438
786.071
441.162
449.737
460.609
473.64
488.619
505.259
523.199
542.036
561.373
580.882
600.369
619.781
639.174
658.653
678.323
698.268
718.538
739.159
760.136
781.462
438.204
446.904
457.938
471.17
486.382
503.272
521.456
540.488
559.925
579.402
598.72
617.854
636.908
656.032
675.364
695.006
715.018
735.429
756.244
777.452
433.23
441.752
452.67
465.847
481.062
498.001
516.271
535.419
554.991
574.618
594.093
613.385
632.591
651.855
671.316
691.076
711.199
731.715
752.633
773.945
426.458
434.5
445.032
457.916
472.922
489.732
507.954
527.154
546.905
566.859
586.8
606.657
626.472
646.34
666.367
686.64
707.217
728.135
749.406
771.031
418.512
425.83
435.787
448.247
462.972
479.634
497.839
517.168
537.224
557.674
578.291
598.957
619.647
640.395
661.258
682.297
703.56
725.084
746.887
768.978
410.453
416.879
426.177
438.216
452.739
469.388
487.746
507.386
527.911
548.991
570.381
591.928
613.557
635.249
657.021
678.905
700.936
723.145
745.556
768.182
403.836
409.281
417.92
429.626
444.102
460.928
479.629
499.738
520.838
542.589
564.733
587.096
609.573
632.114
654.708
677.366
700.111
722.969
745.962
769.107
400.833
405.296
413.318
424.777
439.309
456.402
475.499
496.078
517.696
540.004
562.741
585.724
608.839
632.02
655.238
678.493
701.797
725.171
748.637
772.211
404.153
407.76
415.214
426.391
440.868
458.049
477.309
498.088
519.93
542.485
565.496
588.783
612.226
635.752
659.323
682.929
706.574
730.273
754.044
777.9
416.224
419.25
426.159
436.839
450.864
467.632
486.517
506.963
528.523
550.853
573.701
596.886
620.283
643.813
667.429
691.108
714.845
738.647
762.523
786.483
437.709
440.463
446.843
456.759
469.856
485.626
503.519
523.034
543.754
565.35
587.572
610.235
633.208
656.399
679.749
703.222
726.799
750.475
774.249
798.12
)
;
    }
    coldSide
    {
        type            mixed;
        refValue        uniform 300;
        refGradient     uniform 0;
        valueFraction   uniform 0.991591;
        source          uniform 0;
        value           nonuniform List<scalar> 
400
(
300.026
300.026
300.027
300.027
300.028
300.029
300.03
300.031
300.032
300.033
300.034
300.036
300.037
300.038
300.039
300.04
300.042
300.043
300.044
300.045
300.025
300.025
300.026
300.026
300.027
300.028
300.029
300.03
300.031
300.032
300.034
300.035
300.036
300.037
300.039
300.04
300.041
300.042