/*--------------------------------*- C++ -*----------------------------------*\
| =========                 |                                                 |
| \\      /  F ield         | OpenFOAM: The Open Source CFD Toolbox           |
|  \\    /   O peration     | Version:  2212                                  |
|   \\  /    A nd           | Website:  www.openfoam.com                      |
|    \\/     M anipulation  |                                                 |
\*---------------------------------------------------------------------------*/
FoamFile
{
    version     2.0;
    format      ascii;
    arch        "LSB;label=32;scalar=64";
    class       volScalarField;
    location    "0";
    object      T;
}
// * * * * * * * * * * * * * * * * * * * * * * * * * * * * * * * * * * * * * //

dimensions      [0 0 0 1 0 0 0];

internalField   nonuniform List<scalar> 
3200
(
344.159
344.924
346.061
346.751
347.473
348.035
348.005
348.542
348.79
348.836
348.623
347.94
347.725
346.932
346.238
345.415
344.797
343.352
342.408
341.136
338.343
338.982
339.987
340.607
341.184
341.704
341.673
342.139
342.345
342.391
342.231
341.623
341.415
340.716
340.167
339.423
338.917
337.634
336.845
335.738
332.488
333.042
333.897
334.424
334.893
335.309
335.29
335.713
335.886
335.889
335.776
335.294
335.05
334.501
334.062
333.382
332.961
331.872
331.204
330.33
326.6
327.058
327.805
328.205
328.579
328.914
328.987
329.237
329.39
329.343
329.308
328.928
328.705
328.245
327.918
327.326
327.005
326.087
325.623
324.893
320.724
321.078
321.683
321.931
322.252
322.477
322.616
322.741
322.887
322.841
322.798
322.538
322.349
322.025
321.714
321.299
321.038
320.312
319.958
319.428
314.853
315.101
315.501
315.664
315.907
316.021
316.205
316.224
316.395
316.342
316.296
316.113
315.976
315.805
315.552
315.233
314.999
314.505
314.255
313.909
308.94
309.058
309.314
309.429
309.557
309.596
309.74
309.737
309.9
309.847
309.812
309.681
309.624
309.509
309.367
309.17
308.976
308.72
308.541
308.346
302.992
302.996
303.107
303.164
303.213
303.231
303.269
303.237
303.331
303.29
303.291
303.262
303.214
303.191
303.141
303.068
303.016
302.924
302.865
302.815
345.293
346.276
347.131
348.21
348.676
349.302
349.538
349.705
350.071
349.923
349.712
349.423
348.954
348.277
347.612
346.596
345.751
344.538
343.666
342.423
339.325
340.083
340.865
341.774
342.185
342.693
342.963
343.086
343.416
343.273
343.109
342.887
342.425
341.845
341.278
340.363
339.692
338.61
337.84
336.832
333.284
333.918
334.617
335.307
335.725
336.082
336.377
336.473
336.75
336.648
336.468
336.305
335.895
335.37
334.947
334.148
333.609
332.659
332.019
331.188
327.224
327.762
328.346
328.88
329.256
329.509
329.785
329.926
330.066
329.969
329.839
329.736
329.328
328.943
328.558
327.957
327.497
326.716
326.198
325.522
321.16
321.6
322.06
322.461
322.798
322.966
323.171
323.326
323.388
323.301
323.193
323.152
322.781
322.51
322.203
321.755
321.416
320.809
320.365
319.925
315.132
315.424
315.739
316.035
316.326
316.467
316.521
316.682
316.709
316.646
316.554
316.547
316.277
316.109
315.876
315.552
315.357
314.9
314.548
314.272
309.076
309.245
309.453
309.628
309.838
309.932
309.92
310.019
310.07
309.996
309.957
309.957
309.807
309.681
309.54
309.354
309.262
308.959
308.752
308.562
303.056
303.078
303.155
303.201
303.308
303.352
303.338
303.335
303.381
303.349
303.333
303.351
303.305
303.264
303.218
303.155
303.122
303.013
302.917
302.864
346.413
347.653
348.636
349.4
350.327
350.977
351.24
351.512
351.707
351.461
351.211
350.932
350.712
349.971
349.313
348.208
347.282
346.518
345.251
343.941
340.225
341.287
342.111
342.785
343.536
344.134
344.412
344.671
344.797
344.594
344.368
344.108
343.97
343.263
342.707
341.762
340.967
340.323
339.201
338.105
334.029
334.954
335.637
336.214
336.782
337.302
337.598
337.808
337.865
337.728
337.565
337.319
337.205
336.583
336.109
335.347
334.657
334.096
333.113
332.251
327.807
328.596
329.184
329.623
330.072
330.486
330.783
330.942
331.007
330.834
330.746
330.553
330.406
329.926
329.523
328.962
328.368
327.875
327.063
326.405
321.633
322.233
322.704
323.062
323.403
323.649
323.935
324.07
324.121
323.977
323.931
323.769
323.629
323.261
322.945
322.583
322.044
321.659
321.044
320.542
315.464
315.905
316.252
316.469
316.754
316.876
317.097
317.23
317.233
317.129
317.09
317.007
316.91
316.634
316.382
316.168
315.746
315.484
315.048
314.674
309.285
309.534
309.776
309.858
310.058
310.161
310.313
310.319
310.358
310.262
310.243
310.197
310.135
309.978
309.83
309.72
309.444
309.294
309.046
308.84
303.127
303.189
303.283
303.308
303.374
303.403
303.462
303.461
303.485
303.428
303.427
303.417
303.401
303.341
303.288
303.256
303.148
303.128
303.036
302.96
348.032
349.265
350.19
351.148
351.697
352.636
353.123
353.277
353.422
353.566
353.183
352.757
352.541
351.753
351.171
350.303
349.216
347.963
346.827
345.799
341.631
342.694
343.448
344.293
344.782
345.563
346.014
346.125
346.285
346.389
346.043
345.682
345.498
344.82
344.307
343.562
342.637
341.598
340.578
339.662
335.259
336.076
336.749
337.438
337.831
338.519
338.936
338.993
339.146
339.209
338.928
338.636
338.453
337.907
337.417
336.817
336.079
335.224
334.344
333.525
328.8
329.515
330.024
330.604
330.947
331.49
331.839
331.882
331.98
332.083
331.838
331.601
331.43
330.973
330.542
330.093
329.541
328.805
328.101
327.416
322.406
322.957
323.348
323.765
324.066
324.447
324.811
324.791
324.871
324.974
324.77
324.581
324.465
324.08
323.76
323.363
323
322.38
321.858
321.321
316.033
316.415
316.646
316.955
317.181
317.415
317.753
317.686
317.797
317.871
317.728
317.588
317.488
317.188
316.98
316.677
316.49
315.986
315.609
315.205
309.63
309.89
310.002
310.188
310.333
310.457
310.692
310.615
310.705
310.74
310.645
310.591
310.52
310.341
310.187
310.053
309.911
309.601
309.318
309.096
303.234
303.319
303.347
303.426
303.478
303.495
303.582
303.567
303.6
303.596
303.556
303.564
303.526
303.463
303.418
303.362
303.323
303.231
303.118
303.023
349.755
350.772
351.749
352.83
353.564
354.441
354.933
355.137
355.281
355.356
354.951
354.613
354.274
353.594
352.833
351.967
351.065
349.789
348.401
347.223
343.063
343.924
344.784
345.73
346.376
347.196
347.588
347.781
347.851
347.966
347.555
347.253
346.958
346.352
345.728
344.972
344.176
343.138
341.89
340.901
336.411
337.097
337.872
338.677
339.203
339.908
340.241
340.414
340.447
340.571
340.214
339.905
339.668
339.157
338.653
337.99
337.322
336.487
335.394
334.585
329.777
330.317
330.951
331.62
332.043
332.672
332.899
333.076
333.048
333.187
332.874
332.614
332.463
332.004
331.612
331.055
330.471
329.851
328.941
328.265
323.146
323.572
324.048
324.616
324.92
325.389
325.618
325.739
325.711
325.801
325.547
325.356
325.259
324.873
324.542
324.127
323.683
323.221
322.491
321.975
316.547
316.802
317.162
317.545
317.796
318.108
318.318
318.433
318.338
318.446
318.232
318.115
318.049
317.734
317.504
317.223
316.909
316.552
316.073
315.691
309.924
310.055
310.299
310.505
310.677
310.876
311.03
311.069
310.97
311.117
310.943
310.897
310.84
310.661
310.473
310.337
310.171
309.949
309.65
309.406
303.336
303.368
303.458
303.508
303.574
303.641
303.709
303.704
303.679
303.742
303.674
303.65
303.639
303.576
303.501
303.457
303.42
303.336
303.232
303.164
351.294
352.351
353.43
354.445
355.423
356.086
356.67
356.935
356.892
357.126
356.738
356.493
356.291
355.333
354.731
353.866
352.668
351.557
350.098
348.679
344.413
345.304
346.257
347.166
347.992
348.582
349.083
349.304
349.266
349.499
349.146
348.901
348.726
347.904
347.417
346.659
345.623
344.641
343.417
342.209
337.578
338.268
339.149
339.893
340.577
341.079
341.538
341.723
341.631
341.859
341.542
341.336
341.18
340.458
340.105
339.472
338.621
337.717
336.75
335.744
330.758
331.299
332.045
332.645
333.134
333.598
333.991
334.153
334.043
334.234
333.981
333.784
333.678
333.053
332.777
332.276
331.58
330.831
330.055
329.264
323.938
324.339
324.95
325.38
325.743
326.099
326.416
326.568
326.486
326.593
326.438
326.3
326.224
325.724
325.443
325.078
324.531
323.951
323.347
322.796
317.117
317.392
317.855
318.114
318.401
318.648
318.853
319.019
318.906
318.94
318.877
318.802
318.719
318.355
318.164
317.894
317.49
317.076
316.649
316.319
310.297
310.429
310.729
310.861
311.033
311.214
311.287
311.442
311.394
311.352
311.372
311.305
311.248
311.029
310.918
310.758
310.489
310.23
310.009
309.811
303.462
303.488
303.587
303.638
303.709
303.752
303.787
303.846
303.836
303.809
303.816
303.805
303.778
303.702
303.67
303.62
303.504
303.444
303.364
303.304
352.962
354.06
355.158
356.294
356.957
357.927
358.403
358.757
358.898
358.987
358.824
358.518
358
357.192
356.439
355.545
354.307
352.883
351.702
350.334
345.888
346.798
347.726
348.76
349.264
350.136
350.529
350.845
350.973
351.091
350.968
350.671
350.179
349.48
348.843
348.109
347.043
345.787
344.836
343.619
338.81
339.568
340.376
341.244
341.62
342.406
342.697
342.952
343.058
343.177
343.031
342.81
342.42
341.788
341.252
340.661
339.81
338.679
337.937
336.909
331.74
332.349
333.04
333.717
334.013
334.702
334.86
335.111
335.159
335.305
335.183
334.981
334.681
334.118
333.706
333.199
332.58
331.63
331.048
330.234
324.69
325.149
325.68
326.206
326.446
327.003
327.064
327.286
327.298
327.443
327.344
327.199
326.979
326.5
326.184
325.804
325.348
324.615
324.115
323.551
317.635
317.962
318.325
318.677
318.91
319.303
319.318
319.475
319.477
319.573
319.535
319.458
319.268
318.928
318.71
318.433
318.103
317.583
317.19
316.868
310.607
310.761
310.98
311.188
311.33
311.585
311.568
311.689
311.664
311.755
311.756
311.694
311.58
311.357
311.223
311.073
310.875
310.549
310.336
310.164
303.565
303.609
303.681
303.756
303.776
303.895
303.862
303.904
303.897
303.957
303.95
303.916
303.871
303.816
303.761
303.713
303.66
303.534
303.473
303.412
354.482
355.646
356.799
357.818
358.532
359.585
360.05
360.435
360.618
360.771
360.624
360.106
359.495
358.789
358.243
357.239
355.853
354.66
353.151
352.024
347.176
348.218
349.149
350.055
350.659
351.631
351.949
352.336
352.504
352.659
352.436
352.043
351.495
350.887
350.452
349.566
348.385
347.325
346.012
345.063
339.905
340.75
341.552
342.312
342.813
343.687
343.903
344.224
344.385
344.516
344.298
343.989
343.511
343.011
342.675
341.931
340.909
339.981
338.9
338.139
332.629
333.279
333.924
334.567
334.993
335.745
335.848
336.099
336.266
336.384
336.251
335.926
335.569
335.173
334.916
334.287
333.482
332.646
331.824
331.208
325.42
325.878
326.346
326.856
327.197
327.759
327.815
328.027
328.17
328.283
328.187
327.951
327.648
327.309
327.123
326.673
326.054
325.366
324.726
324.279
318.198
318.492
318.805
319.153
319.431
319.782
319.861
320.007
320.085
320.17
320.14
319.981
319.723
319.507
319.375
319.058
318.637
318.095
317.701
317.322
310.94
311.081
311.282
311.499
311.664
311.874
311.94
311.978
312.053
312.129
312.114
312.007
311.817
311.704
311.625
311.463
311.194
310.857
310.658
310.411
303.694
303.707
303.771
303.854
303.913
303.962
304.007
304.021
304.057
304.066
304.062
304.022
303.94
303.951
303.86
303.839
303.755
303.638
303.576
303.499
356.018
357.129
358.145
359.27
360.3
361.081
361.8
362.101
362.259
362.491
362.281
361.856
361.315
360.508
359.761
358.879
357.438
356.241
354.757
353.354
348.548
349.48
350.318
351.313
352.231
352.904
353.493
353.813
353.9
354.142
353.942
353.548
353.054
352.383
351.782
351.005
349.736
348.653
347.402
346.246
341.072
341.814
342.527
343.317
344.172
344.742
345.2
345.509
345.556
345.823
345.616
345.258
344.839
344.307
343.789
343.116
342.066
341.133
340.073
339.107
333.591
334.209
334.791
335.409
336.133
336.607
336.893
337.201
337.187
337.468
337.298
336.942
336.641
336.216
335.786
335.243
334.409
333.66
332.799
331.974
326.111
326.616
327.119
327.557
328.11
328.46
328.67
328.909
328.873
329.107
328.984
328.706
328.438
328.141
327.822
327.392
326.76
326.159
325.535
324.864
318.663
319.02
319.419
319.708
320.083
320.287
320.483
320.646
320.598
320.76
320.714
320.491
320.303
320.104
319.866
319.554
319.159
318.711
318.274
317.763
311.218
311.414
311.68
311.872
312.041
312.164
312.325
312.418
312.342
312.446
312.431
312.31
312.197
312.054
311.947
311.748
311.529
311.221
311.002
310.655
303.768
303.827
303.912
303.999
304.02
304.076
304.141
304.154
304.137
304.156
304.178
304.126
304.111
304.024
303.992
303.937
303.866
303.745
303.675
303.58
357.167
358.306
359.555
360.534
361.703
362.616
363.073
363.588
363.958
364.072
363.759
363.404
362.974
362.073
361.354
360.417
358.868
357.752
355.936
354.943
349.516
350.507
351.598
352.397
353.393
354.206
354.61
355.075
355.383
355.493
355.214
354.919
354.54
353.748
353.129
352.308
350.973
350.028
348.438
347.623
341.899
342.71
343.615
344.283
345.133
345.842
346.14
346.536
346.859
346.943
346.696
346.391
346.132
345.444
344.937
344.176
343.126
342.324
340.923
340.278
334.237
334.929
335.684
336.217
336.934
337.5
337.692
338.023
338.339
338.418
338.202
337.909
337.729
337.191
336.748
336.104
335.283
334.67
333.495
332.963
326.623
327.177
327.8
328.166
328.691
329.09
329.258
329.52
329.79
329.818
329.718
329.479
329.336
328.902
328.557
328.101
327.437
326.975
326.039
325.647
319.042
319.382
319.899
320.119
320.485
320.801
320.868
321.088
321.309
321.271
321.24
321.062
321.004
320.633
320.371
320.089
319.604
319.291
318.596
318.322
311.416
311.605
311.959
312.095
312.315
312.509
312.514
312.688
312.803
312.776
312.761
312.641
312.632
312.4
312.244
312.089
311.775
311.56
311.195
311.004
303.816
303.891
304.016
304.053
304.123
304.19
304.196
304.267
304.295
304.297
304.273
304.236
304.234
304.167
304.098
304.045
303.941
303.872
303.779
303.689
358.478
359.665
360.881
361.953
363.038
364.042
364.417
364.844
365.259
365.505
365.261
364.642
364.264
363.564
362.809
361.692
360.425
359.022
357.444
356.168
350.675
351.686
352.707
353.623
354.539
355.43
355.764
356.08
356.487
356.772
356.492
355.969
355.628
355.047
354.417
353.434
352.318
351.147
349.754
348.637
342.902
343.71
344.566
345.328
346.042
346.848
347.119
347.407
347.74
348.065
347.786
347.304
347.004
346.566
346.029
345.166
344.243
343.253
342.066
341.11
335.138
335.737
336.454
337.055
337.637
338.257
338.549
338.775
339.076
339.338
339.054
338.662
338.412
338.121
337.641
336.914
336.198
335.393
334.39
333.627
327.344
327.8
328.367
328.814
329.27
329.74
329.969
330.186
330.36
330.53
330.315
330.057
329.871
329.694
329.262
328.704
328.124
327.487
326.747
326.117
319.537
319.862
320.297
320.574
320.893
321.254
321.416
321.568
321.671
321.767
321.649
321.465
321.33
321.238
320.875
320.492
320.068
319.624
319.107
318.643
311.723
311.909
312.208
312.355
312.557
312.739
312.856
312.949
312.999
313.054
313.015
312.889
312.795
312.763
312.546
312.281
312.04
311.78
311.491
311.211
303.942
303.983
304.101
304.149
304.224
304.259
304.319
304.331
304.38
304.362
304.373
304.324
304.277
304.275
304.211
304.11
304.023
303.944
303.853
303.754
359.721
360.97
362.223
363.459
364.423
365.238
365.957
366.334
366.608
366.976
366.954
366.293
365.7
365.04
363.942
362.901
361.618
360.321
358.748
357.282
351.745
352.792
353.87
354.962
355.769
356.53
357.095
357.391
357.675
358.012
357.983
357.412
356.861
356.292
355.342
354.441
353.368
352.218
350.896
349.617
343.756
344.668
345.552
346.479
347.141
347.819
348.267
348.481
348.723
349.054
349.085
348.532
348.064
347.615
346.812
346.004
345.124
344.112
343.075
342.019
335.797
336.53
337.27
338.039
338.511
339.059
339.49
339.607
339.806
340.098
340.124
339.721
339.337
338.944
338.268
337.612
336.928
336.06
335.207
334.397
327.857
328.415
329.009
329.582
329.943
330.314
330.704
330.797
330.947
331.178
331.192
330.882
330.594
330.317
329.78
329.213
328.74
328.073
327.369
326.742
319.889
320.316
320.703
321.148
321.417
321.605
321.902
321.984
322.066
322.26
322.297
322.099
321.871
321.685
321.284
320.835
320.531
320.046
319.554
319.123
311.951
312.193
312.451
312.721
312.883
312.981
313.128
313.187
313.264
313.355
313.41
313.271
313.135
313.035
312.763
312.5
312.32
312.014
311.738
311.475
304.032
304.076
304.17
304.266
304.34
304.356
304.397
304.413
304.451
304.48
304.507
304.463
304.419
304.365
304.285
304.212
304.119
304.019
303.939
303.853
360.525
361.857
363.235
364.467
365.474
366.433
367.114
367.62
368.081
368.134
368.018
367.673
366.858
366.205
365.374
364.239
362.942
361.422
360.006
358.471
352.432
353.579
354.794
355.841
356.704
357.507
358.134
358.568
358.974
358.972
358.898
358.609
357.855
357.329
356.597
355.641
354.508
353.179
352.001
350.691
344.371
345.29
346.329
347.26
348.001
348.623
349.153
349.504
349.852
349.883
349.821
349.526
348.893
348.4
347.847
347.045
346.077
344.923
343.998
342.922
336.304
337.043
337.875
338.69
339.293
339.738
340.187
340.451
340.775
340.767
340.733
340.478
340.025
339.536
339.09
338.413
337.667
336.729
336.008
335.151
328.211
328.809
329.418
330.101
330.557
330.864
331.218
331.427
331.723
331.673
331.69
331.492
331.171
330.74
330.365
329.85
329.263
328.549
327.984
327.373
320.151
320.607
320.975
321.498
321.807
322.026
322.287
322.45
322.613
322.624
322.645
322.505
322.291
321.958
321.666
321.289
320.871
320.377
319.992
319.588
312.083
312.377
312.587
312.864
313.114
313.234
313.377
313.472
313.559
313.585
313.552
313.527
313.413
313.158
313.042
312.826
312.53
312.237
312.008
311.756
304.028
304.139
304.22
304.291
304.406
304.425
304.49
304.528
304.536
304.55
304.534
304.557
304.489
304.392
304.381
304.301
304.195
304.101
304.02
303.94
361.402
362.809
364.228
365.462
366.847
367.701
368.167
368.606
369.154
369.145
369.032
368.723
368.169
367.275
366.512
365.329
364.214
362.593
361.074
359.685
353.192
354.39
355.562
356.641
357.843
358.652
359.01
359.397
359.901
359.831
359.767
359.484
359.032
358.246
357.587
356.551
355.608
354.218
352.944
351.732
344.997
345.959
346.939
347.854
348.894
349.586
349.888
350.216
350.656
350.581
350.534
350.237
349.891
349.217
348.727
347.834
347.005
345.817
344.785
343.779
336.768
337.558
338.351
339.114
339.978
340.525
340.754
341.048
341.419
341.321
341.35
341.049
340.829
340.22
339.857
339.13
338.425
337.416
336.625
335.829
328.578
329.162
329.776
330.39
331.067
331.488
331.711
331.894
332.205
332.079
332.173
331.902
331.731
331.216
331
330.448
329.846
329.081
328.515
327.907
320.404
320.788
321.24
321.691
322.174
322.474
322.641
322.781
323.006
322.924
323.006
322.793
322.709
322.261
322.107
321.769
321.31
320.734
320.391
319.962
312.256
312.463
312.758
313.007
313.296
313.495
313.641
313.668
313.816
313.796
313.801
313.674
313.642
313.345
313.3
313.088
312.802
312.443
312.263
311.991
304.122
304.163
304.277
304.343
304.449
304.522
304.584
304.572
304.622
304.624
304.611
304.582
304.575
304.481
304.454
304.393
304.267
304.161
304.11
303.993
362.321
363.669
365.172
366.457
367.443
368.408
368.947
369.591
370.14
370.054
370.046
369.669
369.254
368.485
367.535
366.257
365.276
363.674
362.085
360.782
354.01
355.111
356.391
357.536
358.396
359.185
359.696
360.239
360.706
360.658
360.634
360.308
359.976
359.256
358.474
357.407
356.483
355.135
353.734
352.654
345.693
346.528
347.669
348.685
349.332
350.008
350.443
350.885
351.33
351.308
351.236
350.976
350.725
350.101
349.44
348.594
347.764
346.638
345.454
344.588
337.398
338.011
338.948
339.835
340.332
340.859
341.192
341.651
341.973
341.919
341.902
341.677
341.498
340.947
340.464
339.778
339.064
338.109
337.208
336.464
329.058
329.564
330.301
330.958
331.369
331.739
332.021
332.475
332.609
332.578
332.543
332.374
332.226
331.837
331.489
330.959
330.411
329.634
328.953
328.385
320.744
321.128
321.621
322.115
322.411
322.674
322.891
323.265
323.284
323.221
323.225
323.109
322.987
322.742
322.449
322.132
321.733
321.184
320.692
320.266
312.474
312.704
312.966
313.248
313.456
313.659
313.738
313.978
313.992
313.94
313.96
313.884
313.8
313.646
313.464
313.295
313.071
312.719
312.453
312.166
304.177
304.258
304.344
304.438
304.509
304.572
304.584
304.662
304.67
304.676
304.673
304.663
304.63
304.576
304.502
304.451
304.394
304.264
304.185
304.08
362.974
364.427
365.772
367.169
368.149
369.121
369.877
370.607
370.963
370.983
370.826
370.666
370.078
369.306
368.669
367.354
365.804
364.454
362.836
361.416
354.573
355.796
356.897
358.179
358.967
359.859
360.466
361.109
361.444
361.43
361.334
361.177
360.698
360.041
359.492
358.352
356.96
355.766
354.429
353.19
346.168
347.112
348.067
349.144
349.787
350.636
351.099
351.673
351.921
351.97
351.84
351.714
351.314
350.798
350.269
349.375
348.197
347.135
346.045
345.012
337.745
338.494
339.243
340.119
340.657
341.396
341.756
342.236
342.467
342.493
342.39
342.255
341.922
341.535
341.059
340.38
339.446
338.493
337.676
336.829
329.332
329.917
330.459
331.185
331.597
332.207
332.438
332.839
333.053
333.016
332.967
332.837
332.584
332.251
331.891
331.437
330.702
329.898
329.305
328.619
320.951
321.376
321.75
322.28
322.581
322.98
323.177
323.478
323.606
323.585
323.565
323.436
323.289
322.994
322.726
322.458
321.926
321.358
320.949
320.451
312.569
312.831
313.064
313.397
313.545
313.806
313.913
314.094
314.183
314.163
314.147
314.113
313.994
313.804
313.626
313.503
313.154
312.837
312.577
312.302
304.226
304.303
304.372
304.486
304.542
304.635
304.688
304.72
304.752
304.737
304.744
304.72
304.675
304.61
304.568
304.53
304.431
304.32
304.199
304.134
363.518
365.018
366.735
368.086
368.944
370.029
370.692
371.248
371.546
371.678
371.761
371.233
370.8
370.408
369.378
367.999
366.625
365.075
363.478
362.191
355.031
356.288
357.721
358.937
359.656
360.645
361.204
361.709
361.92
362.079
362.141
361.627
361.288
360.987
360.064
358.906
357.691
356.326
354.979
353.884
346.541
347.596
348.771
349.818
350.379
351.261
351.725
352.145
352.372
352.466
352.536
352.078
351.79
351.526
350.753
349.786
348.79
347.61
346.48
345.564
338.037
338.987
339.857
340.684
341.17
341.871
342.291
342.654
342.787
342.886
342.935
342.515
342.328
342.124
341.479
340.723
339.911
338.9
337.998
337.281
329.543
330.341
330.93
331.597
331.995
332.553
332.905
333.191
333.246
333.331
333.371
333.07
332.892
332.742
332.275
331.656
331.036
330.204
329.545
329.005
321.082
321.655
322.06
322.549
322.836
323.295
323.501
323.741
323.708
323.769
323.83
323.652
323.502
323.343
323.064
322.577
322.17
321.558
321.125
320.688
312.654
313.004
313.181
313.526
313.674
313.993
314.12
314.286
314.239
314.225
314.305
314.164
314.103
314.011
313.866
313.562
313.305
312.944
312.671
312.38
304.236
304.368
304.416
304.514
304.592
304.683
304.748
304.786
304.787
304.753
304.779
304.746
304.724
304.688
304.647
304.542
304.47
304.352
304.23
304.138
364.145
365.726
367.051
368.435
369.511
370.652
371.524
371.76
372.167
372.613
372.245
371.831
371.295
370.77
370.037
368.69
367.158
365.74
364.293
362.573
355.562
356.894
358.048
359.24
360.181
361.179
361.958
362.096
362.476
362.835
362.579
362.147
361.712
361.291
360.656
359.476
358.119
356.932
355.646
354.221
346.994
348.085
349.065
350.043
350.886
351.735
352.352
352.47
352.819
353.09
352.876
352.504
352.167
351.827
351.25
350.265
349.134
348.154
347.036
345.891
338.432
339.314
340.074
340.862
341.564
342.27
342.782
342.856
343.214
343.385
343.164
342.9
342.658
342.384
341.872
341.057
340.189
339.319
338.471
337.6
329.853
330.596
331.12
331.768
332.284
332.84
333.238
333.305
333.605
333.739
333.531
333.35
333.174
332.945
332.522
331.936
331.266
330.565
329.923
329.255
321.327
321.845
322.216
322.676
323.019
323.43
323.721
323.803
323.987
324.105
323.927
323.864
323.721
323.512
323.235
322.807
322.323
321.832
321.377
320.92
312.828
313.121
313.344
313.596
313.808
314.06
314.235
314.278
314.414
314.474
314.366
314.348
314.275
314.102
313.941
313.691
313.422
313.113
312.837
312.524
304.309
304.406
304.485
304.54
304.62
304.724
304.783
304.782
304.836
304.846
304.815
304.819
304.78
304.74
304.673
304.594
304.501
304.403
304.296
304.191
364.216
365.705
367.356
368.693
370.12
371.183
372.083
372.424
372.651
372.942
372.841
372.208
371.773
371.17
370.458
369.313
367.561
366.075
364.588
363.149
355.61
356.841
358.285
359.509
360.69
361.657
362.412
362.73
362.923
363.195
363.061
362.484
362.116
361.673
361.013
360.049
358.473
357.165
355.964
354.739
347.063
347.979
349.241
350.353
351.289
352.107
352.754
353.056
353.259
353.45
353.309
352.813
352.475
352.162
351.553
350.777
349.384
348.298
347.297
346.329
338.509
339.216
340.212
341.17
341.921
342.577
343.121
343.433
343.563
343.718
343.549
343.178
342.886
342.645
342.152
341.478
340.346
339.473
338.657
337.834
329.916
330.471
331.201
331.986
332.578
333.076
333.485
333.815
333.877
333.973
333.83
333.614
333.319
333.148
332.738
332.256
331.345
330.647
330.033
329.421
321.379
321.768
322.25
322.877
323.258
323.593
323.906
324.187
324.234
324.298
324.162
324.056
323.758
323.724
323.359
323.041
322.361
321.89
321.476
321.029
312.816
313.105
313.318
313.746
313.968
314.204
314.339
314.518
314.553
314.597
314.482
314.482
314.249
314.274
314.022
313.832
313.385
313.158
312.911
312.665
304.319
304.392
304.462
304.606
304.676
304.748
304.818
304.86
304.863
304.903
304.842
304.846
304.77
304.793
304.686
304.616
304.488
304.398
304.349
304.248
364.452
365.902
367.824
369.012
370.36
371.387
371.971
372.672
373.003
373.103
373.006
372.829
372.26
371.568
370.684
369.48
367.969
366.419
364.94
363.591
355.762
357.043
358.704
359.713
360.933
361.831
362.288
362.94
363.219
363.252
363.217
363.025
362.553
361.969
361.208
360.197
358.889
357.453
356.238
355.132
347.093
348.178
349.621
350.478
351.515
352.222
352.646
353.245
353.426
353.417
353.461
353.248
352.886
352.398
351.768
350.897
349.849
348.521
347.571
346.644
338.471
339.383
340.578
341.254
342.109
342.696
343.042
343.55
343.679
343.664
343.708
343.518
343.241
342.864
342.361
341.634
340.75
339.611
338.856
338.161
329.927
330.589
331.568
332.065
332.763
333.185
333.464
333.838
333.906
333.957
333.927
333.795
333.636
333.307
332.952
332.356
331.694
330.763
330.207
329.666
321.396
321.882
322.566
322.874
323.416
323.748
323.879
324.154
324.209
324.293
324.196
324.134
324.049
323.768
323.525
323.086
322.641
321.993
321.597
321.175
312.855
313.144
313.56
313.724
314.058
314.286
314.323
314.493
314.546
314.615
314.528
314.503
314.47
314.273
314.151
313.827
313.57
313.192
312.955
312.712
304.315
304.405
304.565
304.599
304.734
304.784
304.808
304.85
304.872
304.908
304.879
304.856
304.849
304.808
304.739
304.625
304.539
304.427
304.342
304.276
)
;

boundaryField
{
    hotSide
    {
        type            fixedGradient;
        gradient        nonuniform List<scalar> 
400
(
460.58
479.229
497.6
515.612
533.18
550.223
566.658
582.405
597.385
611.522
624.745
636.984
648.176
658.263
667.19
674.911
681.387
686.582
690.471
693.034
471.838
491.058
509.998
528.573
546.697
564.285
581.252
597.515
612.993
627.608
641.284
653.951
665.544
676.001
685.266
693.293
700.037
705.465
709.549
712.269
481.744
501.487
520.947
540.038
558.672
576.76
594.217
610.956
626.893
641.949
656.046
669.111
681.077
691.879
701.462
709.775
716.775
722.425
726.696
729.569
490.239
510.451
530.379
549.935
569.028
587.569
605.468
622.638
638.994
654.451
668.932
682.361
694.669
705.79
715.666
724.246
731.484
737.342
741.792
744.812
497.277
517.899
538.239
558.204
577.704
596.645
614.938
632.491
649.219
665.035
679.86
693.616
706.232
717.641
727.784
736.607
744.064
750.117
754.734
757.893
502.822
523.796
544.488
564.804
584.653
603.939
622.571
640.457
657.508
673.638
688.763
702.807
715.694
727.359
737.739
746.78
754.435
760.664
765.436
768.727
506.853
528.115
549.097
569.704
589.842
609.416
628.331
646.496
663.819
680.213
695.593
709.881
723.002
734.886
745.472
754.704
762.534
768.92
773.831
777.243
509.36
530.845
552.052
572.886
593.252
613.052
632.193
650.58
668.121
684.728
700.316
714.803
728.116
740.183
750.941
760.334
768.313
774.836
779.87
783.392
510.344
531.985
553.351
574.346
594.875
614.84
634.145
652.696
670.4
687.167
702.912
717.553
731.014
743.224
754.119
763.642
771.743
778.38
783.52
787.138
509.814
531.542
553
574.091
594.718
614.783
634.191
652.846
670.655
687.528
703.378
718.125
731.689
744.001
754.996
764.617
772.812
779.539
784.765
788.464
507.79
529.537
551.018
572.137
592.795
612.897
632.344
651.042
668.898
685.821
701.725
716.526
730.149
742.521
753.578
763.262
771.521
778.314
783.606
787.371
504.3
525.997
547.433
568.511
589.135
609.207
628.63
647.311
665.154
682.071
697.974
712.781
726.415
738.805
749.885
759.597
767.89
774.722
780.059
783.874
499.38
520.958
542.28
563.25
583.772
603.75
623.086
641.687
659.459
676.313
692.162
706.924
720.523
732.886
743.95
753.655
761.952
768.797
774.156
778.004
493.073
514.463
535.604
556.399
576.754
596.573
615.759
634.219
651.861
668.596
684.338
699.005
712.52
724.814
735.822
745.485
753.754
760.586
765.945
769.808
485.428
506.565
527.458
548.013
568.135
587.731
606.705
624.964
642.418
658.979
674.56
689.082
702.469
714.651
725.563
735.149
743.359
750.15
755.488
759.347
476.503
497.321
517.901
538.151
557.978
577.289
595.991
613.991
631.2
647.532
662.901
677.23
690.442
702.47
713.249
722.723
730.843
737.567
742.861
746.7
466.359
486.796
507.001
526.885
546.356
565.322
583.693
601.377
618.287
634.337
649.445
663.533
676.527
688.359
698.967
708.296
716.296
722.928
728.156
731.957
455.067
475.062
494.832
514.291
533.347
551.912
569.896
587.21
603.768
619.487
634.285
648.087
660.82
672.418
682.819
691.97
699.822
706.336
711.478
715.223
442.7
462.197
481.477
500.455
519.042
537.151
554.695
571.587
587.744
603.084
617.528
631.001
643.433
654.759
664.92
673.862
681.538
687.91
692.946
696.62
429.341
448.287
467.025
485.469
503.535
521.138
538.192
554.616
570.325
585.241
599.288
612.392
624.486
635.506
645.394
654.098
661.574
667.782
672.692
676.279
)
;
    }
    coldSide
    {
        type            mixed;
        refValue        uniform 300;
        refGradient     uniform 0;
        valueFraction   uniform 0.991591;
        source          uniform 0;
        value           nonuniform List<scalar> 
400
(
300.025
300.026
300.026
300.027
300.028
300.029
300.03
300.031
300.032
300.032
300.033
300.034
300.034
300.035
300.035
300.036
300.036
300.036
300.036
300.036
300.025
300.026
300.027
300.028
300.028
300.029
300.03
300.031
300.032
300.033
300.033
300.034
300.035
300.035
300.036
300.036