/*--------------------------------*- C++ -*----------------------------------*\
| =========                 |                                                 |
| \\      /  F ield         | OpenFOAM: The Open Source CFD Toolbox           |
|  \\    /   O peration     | Version:  2212                                  |
|   \\  /    A nd           | Website:  www.openfoam.com                      |
|    \\/     M anipulation  |                                                 |
\*---------------------------------------------------------------------------*/
FoamFile
{
    version     2.0;
    format      ascii;
    arch        "LSB;label=32;scalar=64";
    class       volScalarField;
    location    "./ITHACAoutput/true/16.4";
    object      error;
}
// * * * * * * * * * * * * * * * * * * * * * * * * * * * * * * * * * * * * * //

dimensions      [0 0 0 1 0 0 0];

internalField   nonuniform List<scalar> 
3200
(
-1.76673
0.0274516
1.60051
2.27701
2.55529
2.51823
2.11584
1.67427
1.26684
0.960538
0.688891
0.660563
0.73038
0.870581
0.985422
1.09238
0.849689
-0.0318598
-1.47386
-3.21186
-1.39178
0.154631
1.36244
2.07589
2.24087
2.23589
1.85927
1.50883
1.1382
0.794661
0.65689
0.537864
0.586436
0.759797
0.939246
1.01565
0.73024
-0.0524119
-1.27766
-2.64171
-1.03998
0.118359
1.19672
1.82676
1.92065
1.88187
1.62268
1.34372
1.06392
0.668689
0.596639
0.460484
0.511333
0.70059
0.818693
0.870717
0.704397
0.0846554
-0.988712
-2.25318
-0.819382
0.194319
1.1119
1.44372
1.61234
1.60742
1.37246
1.12195
0.889737
0.678631
0.54571
0.508605
0.552246
0.660442
0.716453
0.706043
0.590526
-0.000128881
-0.839152
-1.7801
-0.580358
0.163583
0.862395
1.21637
1.30046
1.27293
1.14101
0.916241
0.754748
0.560061
0.415411
0.348317
0.44013
0.462643
0.520307
0.568435
0.395689
0.0589727
-0.643752
-1.35183
-0.44869
0.113895
0.615989
0.859011
0.964244
0.941641
0.819233
0.703565
0.475349
0.378819
0.270711
0.164488
0.269019
0.375607
0.366435
0.420169
0.321103
-0.000900823
-0.433274
-0.944059
-0.22088
0.0848512
0.326888
0.466113
0.596924
0.506463
0.484254
0.458134
0.202637
0.257247
0.152009
0.165547
0.217459
0.18449
0.237416
0.227723
0.207945
0.0464097
-0.272027
-0.545222
-0.101916
-0.0480146
0.129241
0.0710719
0.19208
0.239125
0.166527
0.161614
0.0739015
0.0621193
0.081715
-0.0109156
0.0255455
0.0479894
0.0638826
0.0589823
0.028391
0.0241985
0.000653524
-0.194257
-1.8436
-0.0524713
1.36803
2.12134
2.3169
2.11252
1.71816
1.22944
0.864487
0.464451
0.268695
0.175664
0.240801
0.443552
0.71253
0.786585
0.524684
-0.221679
-1.54057
-3.37582
-1.52796
0.0383609
1.23214
1.87785
2.13671
1.95072
1.61884
1.21293
0.720024
0.387907
0.232482
0.214263
0.316265
0.488257
0.587385
0.746317
0.531588
-0.169763
-1.36713
-2.78487
-1.21345
0.034415
1.08916
1.64502
1.73722
1.69033
1.38491
1.05966
0.712501
0.385604
0.213389
0.20218
0.23273
0.383792
0.573906
0.673523
0.377989
-0.0524385
-1.13929
-2.33222
-0.882228
0.0622851
0.906687
1.38695
1.52354
1.3955
1.14499
0.936358
0.62447
0.398744
0.183086
0.138588
0.232172
0.367228
0.489844
0.45542
0.412137
-0.00832705
-0.926647
-1.88306
-0.643595
0.115699
0.725755
1.14502
1.16435
1.13348
0.935531
0.708141
0.534111
0.377843
0.187929
0.211221
0.157071
0.295926
0.324774
0.420877
0.274218
-0.050288
-0.761988
-1.40046
-0.462181
0.119539
0.470886
0.837341
0.884407
0.779605
0.662089
0.515042
0.371302
0.197269
0.129617
0.126625
0.192547
0.131586
0.280393
0.317844
0.184125
-0.0804985
-0.50602
-0.962077
-0.251625
0.049551
0.395336
0.432099
0.553941
0.484116
0.415196
0.292687
0.235983
0.122288
0.0921221
0.105672
0.0868315
0.134602
0.176646
0.203247
0.13157
-0.0621723
-0.194695
-0.576226
-0.0902464
-0.0483692
0.0753798
0.200992
0.188646
0.18572
0.15296
0.11957
0.0471279
0.10365
0.0889763
0.102978
0.00250549
-0.066459
0.0644304
0.0239149
0.137551
0.0284891
-0.103568
-0.154562
-2.12792
-0.395678
1.1182
1.80087
1.96226
1.70837
1.2281
0.701019
0.164156
-0.177682
-0.580275
-0.611087
-0.518915
-0.178133
0.0994138
0.215067
0.0852993
-0.584859
-1.98269
-3.66507
-1.7272
-0.201491
0.945727
1.61973
1.71875
1.52551
1.15415
0.739751
0.333876
-0.149553
-0.382964
-0.455258
-0.284231
-0.0744839
0.200225
0.224327
0.0838178
-0.464803
-1.68455
-3.07545
-1.30462
-0.147654
0.835176
1.43512
1.55759
1.35015
1.00242
0.678363
0.296391
-0.00136162
-0.230562
-0.289295
-0.193171
-0.00391507
0.190969
0.264806
0.145598
-0.445522
-1.4032
-2.49278
-1.00709
-0.0355345
0.746644
1.13643
1.34988
1.09169
0.84258
0.540752
0.224389
-0.00734709
-0.246755
-0.1879
-0.148426
0.0366078
0.181783
0.252542
0.219668
-0.380451
-1.15262
-2.05601
-0.666609
-0.0710763
0.549244
0.949755
1.02444
0.910806
0.64963
0.504474
0.2981
-0.00682026
-0.119401
-0.12662
-0.0946747
0.0338948
0.143208
0.171743
0.128518
-0.266252
-0.892572
-1.63758
-0.585816
0.0275335
0.440089
0.561886
0.776771
0.646891
0.495989
0.357737
0.252135
-0.00486596
-0.0569697
-0.0748809
-0.122619
0.0640631
0.0952657
0.210335
0.00354993
-0.198855
-0.660268
-1.13182
-0.347327
-0.0283176
0.256587
0.43252
0.446608
0.425675
0.308622
0.144953
0.0638761
0.0082889
-0.0154586
-0.102147
0.0175676
-0.0405691
0.0271952
0.127117
0.0920043
-0.134518
-0.275517
-0.688777
-0.043102
0.0396833
0.0631258
0.08474
0.20196
0.135702
0.0960813
0.0762622
0.0724515
-0.0121603
0.0120233
-0.00403555
0.0605191
-0.045516
-0.0273047
0.0700114
0.0522701
-0.0179378
-0.142683
-0.188907
-2.47952
-0.851038
0.580913
1.24217
1.45484
1.18302
0.647777
0.0415299
-0.507607
-0.981383
-1.30629
-1.30725
-1.20429
-0.896354
-0.468989
-0.31057
-0.507075
-1.13939
-2.46302
-4.10505
-2.0559
-0.539866
0.516678
1.06879
1.28895
1.05833
0.596276
0.0652471
-0.388126
-0.747219
-1.04494
-1.10091
-0.975533
-0.735124
-0.412592
-0.311819
-0.439042
-0.989235
-2.11243
-3.4537
-1.53961
-0.436921
0.518218
1.01835
1.19517
0.897692
0.550816
0.128416
-0.301878
-0.590069
-0.844951
-0.895419
-0.754654
-0.574749
-0.30921
-0.225384
-0.344877
-0.764917
-1.70489
-2.84972
-1.31269
-0.31542
0.515296
0.869578
0.958134
0.806879
0.520852
0.151749
-0.180774
-0.458812
-0.63577
-0.695731
-0.57614
-0.447756
-0.19606
-0.154959
-0.245401
-0.74382
-1.41445
-2.33275
-1.0233
-0.22038
0.318676
0.719663
0.783721
0.647069
0.417696
0.158886
-0.131784
-0.33207
-0.491727
-0.531093
-0.401151
-0.358309
-0.165129
-0.0760003
-0.268743
-0.502649
-1.0869
-1.78251
-0.731833
-0.107295
0.265227
0.525062
0.560432
0.457186
0.235311
0.124755
-0.0939334
-0.224703
-0.317894
-0.350879
-0.313166
-0.219706
-0.0392177
-0.0607827
-0.0972413
-0.353839
-0.737151
-1.15994
-0.434726
-0.0868637
0.149035
0.337261
0.397856
0.254929
0.227307
0.0315335
-0.0627357
-0.12506
-0.165266
-0.18837
-0.175432
-0.15725
-0.0854463
-0.0147572
-0.0340184
-0.24216
-0.477948
-0.680525
-0.0934222
-0.00737364
0.074649
0.140141
0.0738137
0.0905607
0.0646283
-0.0022787
0.0676995
-0.0556115
-0.0638403
-0.0578883
-0.087232
-0.0598668
-0.052554
0.0244664
0.000975717
-0.0866606
-0.166243
-0.237032
-2.86336
-1.39974
-0.0586789
0.660199
0.765914
0.509802
-0.040585
-0.618617
-1.31641
-1.80068
-2.13629
-2.27384
-2.07873
-1.59093
-1.32284
-1.01491
-1.18005
-1.7586
-3.03755
-4.64686
-2.44909
-1.14508
0.0349929
0.641822
0.706872
0.552363
0.0695081
-0.44409
-1.04511
-1.53901
-1.76408
-1.80913
-1.64067
-1.37706
-1.01993
-0.886733
-0.951684
-1.5572
-2.63958
-3.95502
-1.96667
-0.866122
0.0986222
0.597156
0.718765
0.474783
0.101263
-0.306567
-0.815047
-1.16621
-1.39707
-1.53713
-1.26747
-1.10231
-0.797988
-0.742149
-0.791224
-1.23972
-2.17351
-3.21497
-1.55072
-0.576239
0.139009
0.53965
0.680834
0.432121
0.0255179
-0.241226
-0.672808
-0.936203
-1.08178
-1.14715
-1.03198
-0.806592
-0.738786
-0.588119
-0.642831
-1.03629
-1.75968
-2.63767
-1.15824
-0.507241
0.0839579
0.4662
0.446937
0.396058
0.147663
-0.157817
-0.532458
-0.682413
-0.844489
-0.868937
-0.813948
-0.708704
-0.476271
-0.430033
-0.511669
-0.781007
-1.31229
-1.92523
-0.848578
-0.370991
0.0410567
0.254144
0.333057
0.250579
0.0952521
-0.105336
-0.34824
-0.533167
-0.562487
-0.573394
-0.490941
-0.500365
-0.326225
-0.313352
-0.340398
-0.584478
-0.93551
-1.49149
-0.43076
-0.109124
0.0399082
0.256051
0.219693
0.138472
0.082667
-0.0854875
-0.213515
-0.25106
-0.371054
-0.299409
-0.338781
-0.261037
-0.156517
-0.190522
-0.172193
-0.372351
-0.564022
-0.865645
-0.138491
-0.0331216
-0.00400935
0.068876
0.0609038
0.0171136
0.057181
0.0484542
-0.139235
-0.0557619
-0.102796
-0.0987361
-0.143642
-0.0923064
-0.0405628
-0.0792939
-0.110784
-0.101705
-0.159218
-0.24779
-3.52203
-1.89326
-0.636818
0.0228877
0.135502
-0.168961
-0.710876
-1.27183
-2.01325
-2.56344
-2.92073
-3.00744
-2.82744
-2.36695
-2.0853
-1.8153
-1.87187
-2.48259
-3.68789
-5.21659
-2.96131
-1.65733
-0.574777
0.1138
0.172551
-0.0927683
-0.459699
-1.09619
-1.63229
-2.25489
-2.47829
-2.54517
-2.33912
-2.03655
-1.65921
-1.51972
-1.61018
-2.09812
-3.14065
-4.47974
-2.37806
-1.31044
-0.418006
0.06991
0.183959
0.0130273
-0.426464
-0.93489
-1.39698
-1.7307
-2.02928
-2.0807
-1.85787
-1.63042
-1.39001
-1.18841
-1.24864
-1.85681
-2.60019
-3.67838
-1.94135
-1.03968
-0.305512
0.163766
0.216349
0.0895276
-0.242134
-0.719886
-1.04685
-1.32821
-1.62874
-1.60073
-1.54335
-1.33486
-1.10711
-1.0819
-1.05737
-1.50398
-2.20279
-2.96915
-1.38561
-0.758778
-0.22938
0.113764
0.154898
0.0617571
-0.183103
-0.528318
-0.708992
-1.11105
-1.15659
-1.22381
-1.16632
-1.03156
-0.803528
-0.749204
-0.834584
-1.18509
-1.71935
-2.26166
-0.991984
-0.534541
-0.0703392
0.136697
0.18284
0.0540186
-0.0951149
-0.330609
-0.538378
-0.765435
-0.892347
-0.881161
-0.800451
-0.64943
-0.618874
-0.534995
-0.538888
-0.825675
-1.16423
-1.64523
-0.59892
-0.359705
-0.123304
0.101874
0.0456747
0.0124077
-0.0860139
-0.171165
-0.345247
-0.439024
-0.534199
-0.519174
-0.511973
-0.48624
-0.408185
-0.291961
-0.332075
-0.561993
-0.751051
-0.907328
-0.203494
-0.0835074
-0.0158021
-0.0404988
0.100295
0.0442788
0.0184712
-0.14059
-0.0948526
-0.140047
-0.211491
-0.139433
-0.136653
-0.184835
-0.0940392
-0.111621
-0.0633407
-0.165922
-0.208323
-0.401997
-4.04678
-2.617
-1.36124
-0.625482
-0.577798
-0.764607
-1.32049
-2.06002
-2.68369
-3.2975
-3.69258
-3.75933
-3.48523
-3.12519
-2.75209
-2.45381
-2.65338
-3.18273
-4.357
-5.80553
-3.3747
-2.1109
-1.10148
-0.473133
-0.385409
-0.592093
-1.03944
-1.61069
-2.31994
-2.78303
-3.11576
-3.18855
-3.0332
-2.70927
-2.30511
-2.15735
-2.26777
-2.68431
-3.80614
-4.95149
-2.7708
-1.72446
-0.895375
-0.377781
-0.321323
-0.343673
-0.823159
-1.31079
-1.86055
-2.30416
-2.54468
-2.68532
-2.54683
-2.13788
-1.96466
-1.74424
-1.82739
-2.30432
-3.21177
-4.13578
-2.14865
-1.37379
-0.678313
-0.256751
-0.188458
-0.32029
-0.654811
-1.09266
-1.48913
-1.78375
-2.04382
-2.08307
-2.03508
-1.73732
-1.53645
-1.43847
-1.52322
-1.8144
-2.53975
-3.25347
-1.70362
-1.07434
-0.57834
-0.20705
-0.130829
-0.131852
-0.502006
-0.827882
-1.13743
-1.43008
-1.63115
-1.59527
-1.48934
-1.35297
-1.18042
-1.00284
-1.12627
-1.47363
-1.96867
-2.56093
-1.15764
-0.793957
-0.327658
-0.0845391
-0.0453481
-0.161472
-0.338972
-0.595111
-0.888514
-1.00183
-1.11062
-1.18415
-1.0544
-0.958143
-0.764966
-0.754124
-0.81763
-1.01584
-1.4232
-1.81277
-0.688322
-0.44884
-0.243421
-0.0802764
0.00729776
-0.0881141
-0.250978
-0.29055
-0.467095
-0.585127
-0.665833
-0.686415
-0.64437
-0.56666
-0.454705
-0.528763
-0.446665
-0.600329
-0.87614
-1.13823
-0.227047
-0.127838
-0.028906
-0.125775
-0.00796459
-0.132551
-0.0301989
-0.201963
-0.132405
-0.244712
-0.244997
-0.25989
-0.255082
-0.232418
-0.242283
-0.112489
-0.144549
-0.139355
-0.319479
-0.33443
-4.66592
-3.10501
-1.9982
-1.43695
-1.14192
-1.40544
-1.96487
-2.58789
-3.28878
-3.89867
-4.3102
-4.42148
-4.24819
-3.82529
-3.38313
-3.25698
-3.33945
-3.94274
-5.009
-6.36431
-3.84538
-2.65528
-1.66035
-1.04425
-0.912927
-1.16477
-1.53247
-2.18679
-2.74782
-3.37452
-3.58044
-3.73926
-3.62798
-3.23248
-2.92019
-2.78327
-2.795
-3.29791
-4.28908
-5.4382
-3.15548
-2.16104
-1.34731
-0.880785
-0.70493
-0.960238
-1.28831
-1.78081
-2.37359
-2.77817
-3.07303
-3.07323
-3.0005
-2.65382
-2.35103
-2.27445
-2.37018
-2.78698
-3.59379
-4.51246
-2.59228
-1.75238
-1.10432
-0.57322
-0.525572
-0.753756
-0.970256
-1.39584
-1.82117
-2.21823
-2.44667
-2.40426
-2.40865
-2.16463
-1.85893
-1.81466
-1.92498
-2.26069
-2.9591
-3.63843
-1.96067
-1.31454
-0.775839
-0.475459
-0.384644
-0.561955
-0.668541
-1.08655
-1.40828
-1.73016
-1.83917
-1.89975
-1.80727
-1.67504
-1.50599
-1.35917
-1.43043
-1.7891
-2.29254
-2.88179
-1.3089
-0.887011
-0.560411
-0.33773
-0.264267
-0.435121
-0.545483
-0.70636
-1.01942
-1.20208
-1.3565
-1.26655
-1.26739
-1.1887
-1.05791
-1.0037
-1.01238
-1.30354
-1.66208
-2.03226
-0.823648
-0.513691
-0.346622
-0.246162
-0.214962
-0.207412
-0.281011
-0.439841
-0.664735
-0.675593
-0.783543
-0.826499
-0.748073
-0.702261
-0.646475
-0.563927
-0.612422
-0.67463
-0.936003
-1.28255
-0.229758
-0.278202
-0.218781
-0.0628934
-0.0367077
-0.100168
-0.140895
-0.135325
-0.202243
-0.236479
-0.244522
-0.258614
-0.297075
-0.194338
-0.219036
-0.183879
-0.19345
-0.229464
-0.365434
-0.334849
-5.12423
-3.73469
-2.58819
-1.92139
-1.68027
-1.88867
-2.43738
-3.04994
-3.74324
-4.45879
-4.8565
-4.87634
-4.68817
-4.23497
-3.94277
-3.77181
-3.89795
-4.48681
-5.59981
-6.8416
-4.30939
-3.14508
-2.18967
-1.58855
-1.37343
-1.55988
-1.99205
-2.55514
-3.08242
-3.73471
-4.0043
-4.12241
-3.96047
-3.67386
-3.27831
-3.20539
-3.28123
-3.76895
-4.82833
-5.84929
-3.56292
-2.56855
-1.78334
-1.26524
-1.18256
-1.27114
-1.583
-2.08818
-2.59653
-3.05763
-3.43911
-3.52866
-3.39848
-3.0061
-2.77672
-2.61514
-2.82861
-3.24051
-4.0133
-4.84597
-2.78178
-2.08092
-1.40741
-1.0618
-0.910288
-0.943138
-1.27228
-1.64938
-2.14085
-2.49296
-2.62742
-2.81009
-2.7042
-2.50306
-2.3321
-2.12806
-2.15072
-2.65672
-3.19696
-3.89618
-2.12826
-1.59789
-1.09728
-0.793324
-0.660376
-0.783489
-0.915404
-1.2474
-1.60446
-1.90855
-2.08455
-2.15078
-2.04786
-1.87498
-1.6994
-1.68283
-1.69794
-2.02431
-2.48852
-3.06567
-1.5437
-1.14481
-0.758005
-0.520566
-0.460356
-0.520698
-0.60357
-0.947188
-1.14517
-1.35568
-1.49469
-1.48286
-1.42668
-1.29427
-1.22369
-1.1586
-1.23742
-1.43507
-1.78107
-2.18347
-0.939529
-0.603346
-0.463154
-0.293228
-0.282333
-0.327971
-0.400611
-0.47717
-0.640643
-0.852107
-0.924121
-0.917988
-0.881056
-0.868169
-0.780102
-0.689208
-0.696861
-0.91572
-1.02354
-1.1999
-0.32895
-0.247403
-0.207601
-0.0700149
-0.145533
-0.0656192
-0.147946
-0.301119
-0.186543
-0.288533
-0.358261
-0.252474
-0.29796
-0.317909
-0.28827
-0.264031
-0.253454
-0.303831
-0.442101
-0.480355
-5.47247
-4.22889
-3.11434
-2.37096
-2.17201
-2.3071
-2.75145
-3.40738
-4.0949
-4.69451
-5.09257
-5.23855
-5.01269
-4.66815
-4.26484
-4.16975
-4.33667
-4.93224
-6.00113
-7.23797
-4.62092
-3.53907
-2.59806
-1.99892
-1.87391
-1.9284
-2.3082
-2.86258
-3.37535
-3.85568
-4.29112
-4.40863
-4.31305
-3.90826
-3.5967
-3.59279
-3.70918
-4.19147
-5.20093
-6.19872
-3.80088
-2.92231
-2.1474
-1.59371
-1.40438
-1.55189
-1.90748
-2.29554
-2.83717
-3.37201
-3.62218
-3.62487
-3.56949
-3.29609
-3.03715
-2.90512
-3.09188
-3.55979
-4.3222
-5.05657
-3.01977
-2.32239
-1.67598
-1.33244
-1.12703
-1.24912
-1.44617
-1.84352
-2.2193
-2.62163
-3.00206
-2.95694
-2.9058
-2.59486
-2.43339
-2.36296
-2.51582
-2.94537
-3.51458
-4.19089
-2.35494
-1.85363
-1.3494
-0.969806
-0.846886
-0.924933
-1.12943
-1.38583
-1.68559
-2.00934
-2.17445
-2.28544
-2.17493
-2.03522
-1.85911
-1.87356
-1.92715
-2.2434
-2.72332
-3.1791
-1.61876
-1.23852
-0.922166
-0.687296
-0.59345
-0.671251
-0.837686
-0.955089
-1.23235
-1.44376
-1.53929
-1.59872
-1.53518
-1.41417
-1.43312
-1.28921
-1.30355
-1.57475
-1.94017
-2.32057
-0.95296
-0.785945
-0.523274
-0.377505
-0.327107
-0.446041
-0.424577
-0.639395
-0.652165
-0.912448
-0.929182
-1.0064
-0.894526
-0.817135
-0.786395
-0.81838
-0.790476
-0.938085
-1.12153
-1.37323
-0.274485
-0.292916
-0.147915
-0.152242
-0.154215
-0.18609
-0.141939
-0.216391
-0.152689
-0.28536
-0.395463
-0.312559
-0.277476
-0.351891
-0.381303
-0.179238
-0.320327
-0.30275
-0.413158
-0.390909
-5.698
-4.49238
-3.42155
-2.71523
-2.42295
-2.51866
-2.89392
-3.4462
-4.16885
-4.76603
-5.18999
-5.21366
-5.12909
-4.78045
-4.55367
-4.41396
-4.57746
-5.2846
-6.25331
-7.38489
-4.88997
-3.84188
-2.79442
-2.29871
-2.01061
-2.01332
-2.50618
-3.00123
-3.58536
-3.99102
-4.379
-4.47705
-4.30133
-4.08551
-3.80178
-3.71007
-3.9873
-4.47634
-5.38294
-6.2687
-3.97067
-3.1889
-2.36786
-1.81944
-1.64324
-1.73899
-2.01991
-2.3867
-2.91703
-3.34426
-3.60909
-3.68143
-3.54743
-3.43048
-3.18937
-3.12912
-3.2655
-3.73983
-4.48399
-5.34051
-3.22885
-2.5229
-1.86132
-1.48978
-1.3669
-1.41849
-1.53457
-1.90862
-2.36334
-2.67837
-2.88581
-3.02342
-2.97748
-2.73799
-2.60139
-2.58375
-2.64538
-3.06434
-3.62927
-4.31447
-2.48496
-1.87983
-1.46759
-1.13961
-0.961464
-1.08348
-1.21375
-1.46064
-1.81879
-2.02729
-2.20824
-2.32146
-2.24597
-2.04202
-2.09714
-1.91189
-2.0148
-2.39818
-2.78262
-3.29376
-1.69461
-1.40528
-0.993
-0.731907
-0.720197
-0.761541
-0.826107
-1.07146
-1.23105
-1.45591
-1.62795
-1.67306
-1.56256
-1.48034
-1.40567
-1.38669
-1.4323
-1.7645
-2.06471
-2.29701
-0.991454
-0.856224
-0.572894
-0.448918
-0.439187
-0.433626
-0.45147
-0.60884
-0.803269
-0.796439
-0.971557
-0.947236
-1.01946
-0.887838
-0.881036
-0.7911
-0.81677
-0.94863
-1.16772
-1.35327
-0.233192
-0.288688
-0.220345
-0.161241
-0.204914
-0.15438
-0.185649
-0.222092
-0.326989
-0.341739
-0.211631
-0.217743
-0.32553
-0.315478
-0.319942
-0.312941
-0.32313
-0.323673
-0.364151
-0.470553
-5.81073
-4.71034
-3.55484
-2.92369
-2.58705
-2.66052
-2.91732
-3.48807
-4.15456
-4.60473
-5.00659
-5.16706
-5.00504
-4.71879
-4.61146
-4.4499
-4.71662
-5.34073
-6.33906
-7.55247
-4.92718
-3.96596
-3.05515
-2.40758
-2.18354
-2.10343
-2.46426
-2.94523
-3.3948
-3.93181
-4.25663
-4.27435
-4.31266
-4.01629
-3.86628
-3.79967
-4.07047
-4.59831
-5.49319
-6.39816
-4.13209
-3.26947
-2.4592
-1.97962
-1.79271
-1.87066
-1.99819
-2.36155
-2.77283
-3.19921
-3.51897
-3.55299
-3.53548
-3.37342
-3.166
-3.16895
-3.48764
-3.82628
-4.6078
-5.36294
-3.28319
-2.65462
-1.94123
-1.58141
-1.33116
-1.48752
-1.66514
-1.90419
-2.23855
-2.70532
-2.81386
-2.90445
-2.88092
-2.72177
-2.58359
-2.57638
-2.76093
-3.16802
-3.70639
-4.35522
-2.49216
-1.96228
-1.58598
-1.18051
-1.04847
-0.993549
-1.19863
-1.43268
-1.69566
-2.03004
-2.19422
-2.20955
-2.20397
-2.11347
-2.01674
-2.04659
-2.11104
-2.48613
-2.86853
-3.39272
-1.77307
-1.41433
-1.05615
-0.857741
-0.737959
-0.739566
-0.865912
-1.07749
-1.20277
-1.42098
-1.55135
-1.54485
-1.53508
-1.46277
-1.36027
-1.34664
-1.5433
-1.78359
-2.03382
-2.37989
-0.956628
-0.809863
-0.644642
-0.547273
-0.398623
-0.504464
-0.535862
-0.636614
-0.730686
-0.804864
-0.942273
-0.9621
-0.94896
-0.851971
-0.885809
-0.792429
-0.834417
-1.08245
-1.22711
-1.37579
-0.392023
-0.379801
-0.22524
-0.151543
-0.127464
-0.175606
-0.190319
-0.208291
-0.352504
-0.239694
-0.211545
-0.371421
-0.319333
-0.353027
-0.236926
-0.271514
-0.336704
-0.35509
-0.368021
-0.475912
-5.8563
-4.60665
-3.63787
-2.88472
-2.54214
-2.5315
-2.79854
-3.25516
-3.74996
-4.25848
-4.55579
-4.71257
-4.70031
-4.5051
-4.32602
-4.30538
-4.71186
-5.31743
-6.33456
-7.45203
-4.88888
-3.91672
-2.98495
-2.38082
-2.1129
-2.12784
-2.33005
-2.70845
-3.1285
-3.54334
-3.93085
-4.02103
-3.97558
-3.80706
-3.73005
-3.81447
-3.99833
-4.5887
-5.36689
-6.38546
-4.13268
-3.28498
-2.58568
-1.86662
-1.69379
-1.67846
-1.91193
-2.21496
-2.72661
-2.92646
-3.22952
-3.36269
-3.27394
-3.18285
-3.05456
-3.11714
-3.36553
-3.79547
-4.57468
-5.28893
-3.30003
-2.5822
-1.96827
-1.5274
-1.36212
-1.39342
-1.5534
-1.74044
-2.08671
-2.3694
-2.58303
-2.69688
-2.71072
-2.55416
-2.62063
-2.48429
-2.66019
-3.09632
-3.65538
-4.30284
-2.46777
-2.0035
-1.52995
-1.13404
-1.0939
-1.01857
-1.23605
-1.29818
-1.52666
-1.80372
-2.01835
-2.0175
-2.09155
-2.0008
-1.90242
-1.96986
-2.11814
-2.42882
-2.80098
-3.28035
-1.77493
-1.38597
-1.00116
-0.844151
-0.67498
-0.688068
-0.830696
-1.02683
-1.18185
-1.23241
-1.33618
-1.42286
-1.5404
-1.41622
-1.30725
-1.35575
-1.45776
-1.68044
-2.0149
-2.38827
-1.09686
-0.83414
-0.610389
-0.529136
-0.540527
-0.442758
-0.528316
-0.549376
-0.762294
-0.713602
-0.815015
-0.860973
-0.753823
-0.854675
-0.745733
-0.817396
-0.807501
-1.07499
-1.24635
-1.39217
-0.403464
-0.32025
-0.186025
-0.135442
-0.123734
-0.119728
-0.169462
-0.180897
-0.201489
-0.218031
-0.293025
-0.273947
-0.237418
-0.220023
-0.255525
-0.180787
-0.304952
-0.254687
-0.380624
-0.552605
-5.66562
-4.51058
-3.50569
-2.70904
-2.25547
-2.25474
-2.47627
-2.76257
-3.35337
-3.74881
-3.96496
-4.11586
-4.14968
-4.1048
-3.99981
-4.05285
-4.44944
-5.10752
-6.04642
-7.20643
-4.72441
-3.77527
-2.89788
-2.22443
-1.93577
-1.93108
-2.00203
-2.29914
-2.69162
-3.09303
-3.37274
-3.47506
-3.51427
-3.37874
-3.39018
-3.43595
-3.81654
-4.45018
-5.24072
-6.10889
-3.868
-3.03766
-2.35748
-1.9104
-1.61262
-1.48101
-1.58878
-1.8998
-2.21157
-2.53309
-2.79632
-2.82037
-2.85574
-2.8043
-2.7042
-2.88629
-3.10945
-3.68325
-4.34019
-5.1718
-3.14
-2.49754
-1.87438
-1.45699
-1.27424
-1.25811
-1.29311
-1.55837
-1.78613
-2.06989
-2.31917
-2.33665
-2.34558
-2.21111
-2.27387
-2.39509
-2.59898
-2.8987
-3.56459
-4.125
-2.44566
-1.94601
-1.40791
-1.08996
-1.03111
-0.900382
-0.972986
-1.15369
-1.37837
-1.58937
-1.77494
-1.75411
-1.71786
-1.73262
-1.79169
-1.77717
-1.95852
-2.309
-2.78395
-3.19266
-1.7129
-1.40411
-0.908375
-0.832704
-0.655689
-0.593222
-0.646952
-0.798329
-0.975879
-1.06906
-1.18181
-1.33285
-1.27216
-1.28913
-1.17159
-1.2997
-1.39521
-1.695
-1.97998
-2.27061
-1.00825
-0.859357
-0.578585
-0.436085
-0.363767
-0.436704
-0.450037
-0.458319
-0.517072
-0.725689
-0.697065
-0.738986
-0.690283
-0.777169
-0.757981
-0.727529
-0.850481
-0.914125
-1.18134
-1.34982
-0.399864
-0.251475
-0.165995
-0.139349
-0.116815
-0.107606
-0.118987
-0.193223
-0.162621
-0.286216
-0.222006
-0.218846
-0.282665
-0.279141
-0.178086
-0.292274
-0.190081
-0.325779
-0.32591
-0.447766
-5.28123
-4.15859
-3.13873
-2.33126
-1.8711
-1.78871
-1.86795
-2.15756
-2.52374
-3.00674
-3.15106
-3.4056
-3.39242
-3.32732
-3.38568
-3.54167
-4.00883
-4.68881
-5.66489
-6.63214
-4.38681
-3.49933
-2.53531
-1.92456
-1.63161
-1.49758
-1.56956
-1.80886
-2.15358
-2.42429
-2.65388
-2.87857
-2.87508
-2.74217
-2.87269
-3.01538
-3.38603
-3.90783
-4.83465
-5.75644
-3.59061
-2.87307
-2.14162
-1.61487
-1.3223
-1.17459
-1.17398
-1.48022
-1.83161
-2.00873
-2.18922
-2.33037
-2.39097
-2.33925
-2.32991
-2.53751
-2.80794
-3.3617
-4.07218
-4.81262
-2.90236
-2.24943
-1.64382
-1.23923
-1.04608
-0.903962
-0.969553
-1.19679
-1.35025
-1.60695
-1.80738
-1.74787
-1.90263
-1.93165
-1.93587
-2.10534
-2.17638
-2.64867
-3.25639
-3.94459
-2.21954
-1.74638
-1.28443
-0.949314
-0.75489
-0.705153
-0.729807
-0.850037
-0.949277
-1.20241
-1.42327
-1.44112
-1.41931
-1.34763
-1.46424
-1.55166
-1.71173
-2.07722
-2.59571
-2.97793
-1.53446
-1.18012
-0.935817
-0.657841
-0.532891
-0.447694
-0.538717
-0.560252
-0.750101
-0.846341
-0.936138
-1.02625
-0.94492
-1.02036
-1.02498
-1.10268
-1.18833
-1.37383
-1.90715
-2.04754
-0.887628
-0.771099
-0.516213
-0.436392
-0.267301
-0.256337
-0.370112
-0.265682
-0.426742
-0.486848
-0.581485
-0.631518
-0.526887
-0.545029
-0.628065
-0.638729
-0.716266
-0.881008
-1.09072
-1.19263
-0.306345
-0.214171
-0.124022
-0.117959
-0.125396
-0.0631074
-0.120381
-0.150586
-0.189364
-0.186775
-0.21866
-0.18985
-0.140085
-0.202689
-0.244734
-0.246742
-0.277871
-0.223074
-0.341502
-0.435586
-4.80067
-3.60117
-2.53418
-1.84689
-1.40295
-1.17596
-1.1747
-1.34552
-1.74677
-1.96996
-2.20744
-2.35183
-2.53795
-2.54438
-2.59475
-2.89642
-3.29852
-4.04911
-5.06976
-6.09315
-3.95151
-2.99688
-2.12123
-1.48298
-1.08169
-0.899765
-1.01639
-1.12316
-1.42746
-1.70302
-1.88152
-1.92728
-2.02203
-2.12711
-2.22228
-2.36775
-2.83202
-3.47878
-4.31231
-5.16575
-3.22714
-2.44023
-1.73464
-1.18303
-0.895227
-0.675593
-0.714943
-0.832833
-1.03541
-1.28449
-1.52289
-1.5438
-1.63142
-1.7563
-1.74656
-1.97293
-2.31682
-2.90343
-3.55856
-4.31326
-2.5602
-1.98976
-1.33883
-0.969543
-0.739195
-0.518392
-0.49003
-0.64977
-0.813522
-0.992964
-1.18308
-1.25436
-1.34515
-1.39797
-1.37937
-1.52852
-1.82287
-2.35159
-2.88319
-3.44001
-2.07065
-1.5029
-0.998115
-0.717926
-0.448517
-0.361018
-0.404127
-0.468239
-0.670731
-0.820913
-0.836603
-1.07684
-1.03549
-1.00653
-1.12791
-1.19919
-1.40951
-1.78269
-2.22926
-2.56925
-1.37623
-1.05231
-0.703133
-0.521323
-0.358695
-0.245753
-0.274802
-0.344529
-0.382904
-0.47089
-0.558296
-0.656966
-0.753841
-0.691632
-0.742823
-0.936444
-1.02206
-1.21563
-1.53109
-1.91412
-0.754371
-0.702632
-0.437496
-0.197054
-0.278979
-0.166918
-0.110086
-0.150046
-0.257413
-0.359235
-0.326018
-0.434734
-0.424427
-0.5164
-0.538629
-0.473252
-0.581132
-0.749221
-0.990462
-1.15477
-0.236049
-0.223381
-0.112563
-0.110761
-0.0282455
-0.00322839
0.00385361
-0.0735095
-0.0597202
-0.0388262
-0.107008
-0.0886129
-0.164922
-0.104892
-0.117635
-0.179548
-0.191186
-0.224182
-0.341572
-0.386945
-3.8992
-2.96734
-1.83287
-1.14284
-0.600017
-0.390883
-0.287972
-0.406543
-0.553959
-0.954476
-1.07261
-1.36597
-1.43934
-1.51475
-1.64899
-1.92546
-2.53239
-3.24246
-4.21327
-5.35542
-3.33776
-2.34224
-1.49396
-0.822147
-0.360347
-0.192563
-0.131806
-0.331406
-0.459387
-0.643257
-0.995297
-1.07151
-1.13124
-1.17243
-1.38933
-1.60701
-2.08138
-2.77976
-3.55118
-4.47522
-2.65979
-2.00708
-1.23501
-0.720187
-0.253868
-0.0983679
-0.0224503
-0.194582
-0.295621
-0.48691
-0.623931
-0.815907
-0.818003
-1.04895
-1.12174
-1.36019
-1.73279
-2.34667
-3.01235
-3.78034
-2.14199
-1.53239
-0.939174
-0.545975
-0.177559
-0.0475383
-0.0314559
-0.0842906
-0.211203
-0.351711
-0.53805
-0.71048
-0.692613
-0.816393
-0.9243
-1.04827
-1.38945
-1.84265
-2.43703
-3.06846
-1.58346
-1.16176
-0.757726
-0.312295
-0.180151
0.0134438
0.0648659
-0.0684628
-0.101191
-0.389758
-0.309435
-0.423047
-0.54596
-0.5742
-0.631334
-0.84574
-0.933842
-1.34195
-1.87704
-2.33301
-1.14845
-0.830735
-0.546274
-0.257096
-0.0623476
0.00760808
-0.0436538
0.00226707
-0.0409921
-0.182746
-0.214664
-0.336485
-0.479993
-0.409612
-0.530179
-0.514802
-0.694153
-1.03516
-1.287
-1.61003
-0.653524
-0.410861
-0.259429
-0.114122
-0.035534
0.0545609
0.0482204
-0.0854626
-0.0889143
-0.115071
-0.153302
-0.180732
-0.247194
-0.186374
-0.230403
-0.38483
-0.434477
-0.596313
-0.787077
-1.07653
-0.306342
-0.104187
-0.104106
-0.0657282
0.0327533
0.00460566
-0.00984187
-0.0890655
-0.0778709
-0.0201229
0.038932
0.000828466
-0.0429088
-0.111728
-0.10779
-0.10637
-0.161919
-0.156247
-0.257925
-0.344336
-3.00636
-2.02967
-0.994706
-0.275767
0.335005
0.582249
0.765725
0.633817
0.561243
0.315641
0.103342
-0.0875603
-0.182955
-0.414256
-0.639309
-0.913276
-1.48887
-2.26314
-3.29477
-4.33202
-2.57614
-1.71043
-0.699789
-0.138547
0.433816
0.61411
0.633355
0.709684
0.508957
0.337597
0.146108
-0.0639044
-0.126392
-0.261612
-0.472754
-0.774043
-1.24921
-1.93189
-2.85139
-3.66679
-2.11127
-1.35155
-0.635344
-0.006109
0.343206
0.607731
0.593616
0.610481
0.487747
0.310205
0.1348
0.105291
-0.0516671
-0.239436
-0.338716
-0.588124
-0.988886
-1.64409
-2.34632
-3.03071
-1.67765
-1.08337
-0.43139
-0.0414063
0.357669
0.472408
0.536845
0.521428
0.417284
0.311309
0.146107
0.0940337
-0.00994185
-0.121845
-0.216747
-0.509058
-0.845628
-1.27887
-1.85125
-2.50262
-1.24515
-0.75812
-0.345952
0.0539081
0.331915
0.392421
0.492958
0.469271
0.313873
0.228752
0.227338
0.0202662
0.0552092
-0.0586094
-0.15955
-0.335264
-0.617339
-0.976421
-1.47574
-1.87441
-0.876461
-0.658498
-0.157203
0.0330965
0.252075
0.353685
0.283415
0.272093
0.280249
0.215196
0.165467
0.036253
0.0464571
-0.0386413
-0.173171
-0.305977
-0.410081
-0.729618
-1.15414
-1.37809
-0.537241
-0.29701
-0.0540826
0.0489306
0.162767
0.21429
0.251218
0.25911
0.167614
0.0855122
0.137851
0.0708282
-0.00997705
0.0366036
-0.0831641
-0.138281
-0.260589
-0.375416
-0.635722
-0.772903
-0.17464
-0.154184
-0.0402595
-0.0184545
0.0887351
0.0408477
0.0296119
0.0362193
-0.00784559
0.094094
0.0446748
-0.0105811
0.0506777
-0.0229079
-0.00963512
-0.0466203
-0.101112
-0.119447
-0.239527
-0.262552
-2.19609
-1.14031
-0.103859
0.694741
1.24122
1.67939
1.73096
1.74895
1.64936
1.44402
1.24716
1.08983
0.880443
0.75681
0.51044
0.0952732
-0.53315
-1.31052
-2.28715
-3.31295
-1.69339
-0.886263
0.0546238
0.701762
1.16861
1.46249
1.6452
1.53417
1.55269
1.3053
1.18569
0.995528
0.880534
0.686862
0.543799
0.206167
-0.389486
-1.10667
-2.0242
-2.81407
-1.46597
-0.690849
0.0224759
0.589081
1.03628
1.31158
1.39755
1.33758
1.24886
1.17857
1.0569
0.989331
0.786751
0.621946
0.581817
0.0938324
-0.302744
-0.884169
-1.68066
-2.3154
-1.16359
-0.513004
0.09276
0.493042
0.930911
1.13617
1.19754
1.10253
1.05294
0.987553
0.859521
0.784698
0.703827
0.538253
0.343
0.0837319
-0.231654
-0.697168
-1.32996
-1.86178
-0.818214
-0.393019
0.0956501
0.401703
0.737135
0.779333
0.924756
0.868277
0.891875
0.847632
0.776472
0.651503
0.60504
0.450809
0.306726
0.125065
-0.202624
-0.560558
-1.04287
-1.44414
-0.603552
-0.165935
0.0295463
0.245458
0.526824
0.625617
0.682629
0.658905
0.52203
0.558381
0.530854
0.420927
0.450181
0.300803
0.143791
0.0570087
-0.0918144
-0.351807
-0.694021
-0.998238
-0.276618
-0.105558
0.0496865
0.264722
0.344185
0.391212
0.407233
0.43589
0.431712
0.354105
0.284512
0.296328
0.280872
0.167073
0.147929
0.0552116
-0.0610936
-0.235739
-0.406426
-0.54929
-0.0571838
-0.0517003
-0.00371275
0.0426595
0.0886783
0.121384
0.113392
0.146213
0.173745
0.0266839
0.107839
0.0696964
0.0933937
0.0199064
0.0287922
0.0648155
-0.00742871
-0.0523699
-0.169468
-0.18538
-1.43402
-0.329276
0.693702
1.48042
2.06542
2.46569
2.68567
2.65458
2.55514
2.51113
2.27454
2.12927
1.94661
1.69059
1.40835
0.984787
0.364657
-0.452167
-1.55308
-2.49929
-1.17235
-0.179535
0.581064
1.40721
1.80467
2.13144
2.29458
2.27948
2.2783
2.14413
1.9444
1.84157
1.63159
1.53138
1.13179
0.797733
0.324326
-0.423698
-1.35077
-2.12849
-0.884138
-0.229246
0.488343
1.14677
1.57015
1.84383
1.9064
2.04628
1.90196
1.88518
1.64274
1.49329
1.41232
1.27176
1.02689
0.604443
0.230626
-0.387603
-1.07979
-1.88351
-0.657489
-0.120552
0.452551
0.954943
1.26508
1.54087
1.63161
1.67813
1.535
1.56497
1.3321
1.22842
1.13208
1.04025
0.883243
0.627642
0.243152
-0.33063
-0.8739
-1.50102
-0.460982
-0.105357
0.335516
0.757061
1.00431
1.17968
1.27737
1.23045
1.27297
1.16926
1.14992
1.00128
0.989562
0.824947