/*--------------------------------*- C++ -*----------------------------------*\
| =========                 |                                                 |
| \\      /  F ield         | OpenFOAM: The Open Source CFD Toolbox           |
|  \\    /   O peration     | Version:  2212                                  |
|   \\  /    A nd           | Website:  www.openfoam.com                      |
|    \\/     M anipulation  |                                                 |
\*---------------------------------------------------------------------------*/
FoamFile
{
    version     2.0;
    format      ascii;
    arch        "LSB;label=32;scalar=64";
    class       volScalarField;
    location    "0";
    object      T;
}
// * * * * * * * * * * * * * * * * * * * * * * * * * * * * * * * * * * * * * //

dimensions      [0 0 0 1 0 0 0];

internalField   nonuniform List<scalar> 
3200
(
343.921
345.01
345.825
347.059
347.67
348.358
348.856
349.013
349.166
349.599
349.466
348.776
348.6
348.345
347.586
346.865
345.734
344.732
343.861
342.95
338.126
339.099
339.864
340.868
341.403
341.979
342.412
342.535
342.63
343.034
342.96
342.326
342.111
341.932
341.301
340.633
339.609
338.764
338.042
337.287
332.253
333.147
333.816
334.608
335.054
335.593
335.905
336.026
336.046
336.467
336.392
335.865
335.624
335.492
335.006
334.372
333.491
332.794
332.228
331.593
326.412
327.131
327.732
328.38
328.687
329.148
329.417
329.488
329.479
329.826
329.757
329.367
329.2
329.039
328.677
328.13
327.373
326.806
326.361
325.886
320.561
321.147
321.616
322.12
322.332
322.696
322.88
322.907
322.921
323.204
323.121
322.857
322.738
322.612
322.344
321.887
321.29
320.814
320.513
320.171
314.711
315.174
315.463
315.805
315.97
316.176
316.337
316.351
316.389
316.598
316.566
316.357
316.275
316.175
315.967
315.633
315.215
314.879
314.632
314.424
308.816
309.118
309.279
309.494
309.549
309.691
309.795
309.782
309.852
309.961
309.978
309.874
309.765
309.72
309.596
309.4
309.163
308.945
308.758
308.681
302.931
303.057
303.112
303.188
303.197
303.24
303.29
303.283
303.303
303.332
303.36
303.327
303.257
303.265
303.216
303.155
303.066
302.985
302.946
302.893
344.867
346.159
346.836
347.903
348.594
349.067
349.716
349.998
350.027
350.312
350.295
349.692
349.426
349.261
348.453
347.758
346.565
345.603
344.608
343.753
338.898
339.997
340.622
341.516
342.125
342.534
343.112
343.361
343.31
343.596
343.598
343.029
342.854
342.699
341.971
341.363
340.3
339.489
338.637
337.978
332.96
333.88
334.431
335.127
335.635
336.03
336.501
336.675
336.654
336.893
336.864
336.422
336.233
336.131
335.507
335.017
334.083
333.421
332.67
332.185
327.011
327.721
328.217
328.751
329.177
329.475
329.891
329.971
329.974
330.22
330.164
329.807
329.627
329.568
329.058
328.645
327.867
327.343
326.749
326.329
321.007
321.586
322.005
322.398
322.678
322.934
323.293
323.279
323.327
323.494
323.459
323.171
323.036
322.99
322.627
322.267
321.599
321.241
320.826
320.502
314.994
315.469
315.747
316.018
316.202
316.419
316.669
316.593
316.647
316.801
316.779
316.582
316.444
316.421
316.169
315.863
315.363
315.199
314.854
314.653
309.004
309.291
309.44
309.651
309.721
309.894
309.975
309.976
309.994
310.082
310.051
309.987
309.878
309.855
309.707
309.524
309.193
309.14
308.912
308.815
303.015
303.108
303.145
303.221
303.264
303.316
303.331
303.333
303.342
303.382
303.362
303.363
303.316
303.298
303.252
303.19
303.06
303.046
302.984
302.936
345.987
346.974
348.041
349.089
349.919
350.326
350.913
351.117
351.313
351.528
351.59
351.174
350.725
350.313
349.541
348.72
347.765
346.986
345.694
344.675
339.887
340.739
341.629
342.543
343.286
343.57
344.102
344.344
344.467
344.645
344.7
344.314
343.944
343.609
342.873
342.219
341.365
340.778
339.57
338.717
333.759
334.473
335.225
335.988
336.62
336.853
337.284
337.515
337.622
337.799
337.81
337.488
337.189
336.859
336.233
335.703
334.976
334.538
333.43
332.719
327.659
328.24
328.802
329.478
330.007
330.122
330.516
330.677
330.774
330.968
330.909
330.693
330.4
330.112
329.605
329.236
328.584
328.226
327.295
326.767
321.517
321.988
322.422
322.961
323.411
323.388
323.719
323.872
323.949
324.104
323.992
323.849
323.618
323.418
323
322.703
322.193
321.942
321.233
320.805
315.37
315.745
316.07
316.435
316.757
316.703
316.941
317.083
317.126
317.226
317.096
317.041
316.878
316.74
316.447
316.224
315.825
315.671
315.147
314.866
309.241
309.487
309.664
309.911
310.065
310.015
310.165
310.253
310.316
310.332
310.233
310.253
310.163
310.05
309.853
309.777
309.476
309.437
309.112
308.905
303.099
303.166
303.225
303.335
303.376
303.364
303.389
303.447
303.453
303.47
303.418
303.44
303.399
303.379
303.304
303.275
303.184
303.155
303.048
302.992
347.294
348.244
349.237
350.248
351.151
351.552
352.026
352.372
352.736
352.619
352.866
352.546
351.954
351.447
350.795
349.93
348.979
348.183
346.627
345.633
340.999
341.79
342.659
343.534
344.344
344.655
345.071
345.348
345.674
345.585
345.786
345.515
345.001
344.539
343.963
343.272
342.423
341.788
340.378
339.517
334.675
335.324
336.161
336.842
337.55
337.735
338.105
338.321
338.632
338.602
338.689
338.491
338.019
337.659
337.144
336.581
335.874
335.353
334.128
333.424
328.4
328.87
329.639
330.089
330.719
330.871
331.167
331.308
331.642
331.616
331.636
331.484
331.097
330.796
330.338
329.889
329.34
328.915
327.876
327.345
322.105
322.467
323.047
323.407
323.895
324.013
324.247
324.344
324.676
324.594
324.61
324.482
324.192
323.927
323.579
323.239
322.821
322.442
321.645
321.306
315.798
316.055
316.513
316.731
317.101
317.141
317.337
317.361
317.679
317.567
317.59
317.472
317.3
317.097
316.843
316.599
316.289
316.005
315.431
315.227
309.486
309.635
309.969
310.055
310.249
310.302
310.434
310.432
310.601
310.563
310.535
310.473
310.403
310.267
310.138
309.976
309.757
309.582
309.25
309.167
303.192
303.221
303.371
303.401
303.419
303.459
303.499
303.498
303.559
303.537
303.514
303.503
303.487
303.451
303.388
303.362
303.265
303.213
303.085
303.087
348.453
349.486
350.73
351.388
352.286
352.934
353.386
353.859
354.161
354.063
354.194
353.852
353.268
352.675
351.917
351.219
350.409
349.376
347.831
346.838
341.971
342.879
343.96
344.514
345.313
345.847
346.224
346.61
346.867
346.841
346.932
346.584
346.075
345.591
344.904
344.335
343.616
342.808
341.4
340.525
335.54
336.275
337.222
337.628
338.342
338.753
339.08
339.349
339.628
339.655
339.641
339.375
338.893
338.553
338.017
337.478
336.836
336.29
335.001
334.26
329.034
329.711
330.468
330.777
331.319
331.68
331.984
332.129
332.362
332.418
332.387
332.159
331.791
331.529
331.144
330.624
330.131
329.728
328.564
327.988
322.578
323.11
323.708
323.972
324.343
324.623
324.895
324.942
325.173
325.183
325.193
324.952
324.73
324.48
324.235
323.786
323.426
323.156
322.209
321.758
316.126
316.476
316.921
317.158
317.379
317.587
317.784
317.835
318.02
317.973
318.019
317.809
317.683
317.478
317.294
317.018
316.747
316.563
315.82
315.553
309.669
309.86
310.139
310.35
310.463
310.535
310.702
310.762
310.836
310.77
310.832
310.696
310.63
310.486
310.379
310.263
310.083
309.973
309.491
309.338
303.239
303.291
303.385
303.493
303.519
303.534
303.595
303.615
303.617
303.606
303.616
303.6
303.553
303.531
303.465
303.459
303.398
303.357
303.177
303.126
349.526
350.599
351.925
352.62
353.623
354.191
354.721
355.008
355.454
355.355
355.29
355.156
354.517
354.059
353.379
352.487
351.517
350.434
349.182
347.989
342.968
343.813
345.017
345.601
346.435
347.006
347.371
347.622
348.022
347.936
347.872
347.76
347.167
346.788
346.162
345.429
344.553
343.65
342.528
341.574
336.379
337.078
338.07
338.577
339.283
339.791
340.076
340.284
340.582
340.583
340.491
340.4
339.856
339.531
338.991
338.414
337.681
336.922
335.893
335.162
329.782
330.361
331.145
331.54
332.101
332.552
332.769
332.948
333.191
333.247
333.101
333.033
332.648
332.279
331.859
331.427
330.824
330.219
329.333
328.804
323.166
323.606
324.181
324.491
324.971
325.268
325.461
325.672
325.784
325.907
325.729
325.713
325.414
325.066
324.756
324.418
323.898
323.505
322.798
322.424
316.509
316.904
317.237
317.501
317.828
318.003
318.217
318.348
318.403
318.542
318.349
318.375
318.201
317.895
317.681
317.44
317.052
316.79
316.284
316.06
309.928
310.172
310.366
310.547
310.73
310.797
310.956
311.032
311.072
311.155
311.013
311.028
310.954
310.755
310.626
310.471
310.22
310.083
309.796
309.639
303.326
303.405
303.458
303.552
303.605
303.626
303.686
303.703
303.719
303.744
303.66
303.692
303.669
303.599
303.563
303.504
303.44
303.381
303.282
303.227
350.605
351.644
352.871
353.681
354.649
355.326
355.969
356.375
356.632
356.616
356.579
356.524
355.78
355.478
354.492
353.757
352.585
351.383
350.508
349.274
343.877
344.774
345.777
346.53
347.347
347.937
348.4
348.841
349.065
349.053
349.007
348.95
348.27
348.076
347.171
346.533
345.521
344.466
343.749
342.625
337.13
337.884
338.714
339.358
340.048
340.547
340.898
341.305
341.525
341.509
341.448
341.429
340.897
340.675
339.831
339.322
338.482
337.607
336.981
336.08
330.396
331.022
331.64
332.234
332.77
333.153
333.452
333.801
333.982
333.987
333.885
333.892
333.47
333.26
332.535
332.173
331.471
330.745
330.2
329.485
323.643
324.145
324.606
325.103
325.491
325.763
326.031
326.281
326.429
326.448
326.358
326.378
326.008
325.852
325.26
325.001
324.468
323.878
323.46
322.903
316.915
317.247
317.591
317.87
318.195
318.38
318.612
318.754
318.881
318.891
318.833
318.844
318.581
318.503
318.042
317.835
317.48
317.057
316.742
316.388
310.134
310.341
310.56
310.696
310.928
311.025
311.209
311.275
311.349
311.314
311.323
311.321
311.167
311.132
310.847
310.725
310.522
310.254
310.036
309.836
303.399
303.485
303.535
303.582
303.66
303.688
303.748
303.786
303.812
303.795
303.793
303.798
303.734
303.748
303.639
303.608
303.527
303.44
303.367
303.269
351.855
352.685
353.979
354.836
355.643
356.415
356.964
357.492
357.866
357.712
357.516
357.403
357
356.529
355.789
354.841
353.686
352.563
351.34
350.23
344.956
345.671
346.777
347.507
348.191
348.843
349.327
349.778
350.161
349.96
349.829
349.691
349.314
348.928
348.248
347.481
346.46
345.486
344.487
343.525
338.004
338.615
339.587
340.189
340.749
341.294
341.728
342.058
342.416
342.216
342.185
342.037
341.702
341.304
340.751
340.115
339.29
338.419
337.637
336.794
331.121
331.589
332.458
332.867
333.293
333.808
334.144
334.373
334.68
334.489
334.499
334.363
334.122
333.721
333.241
332.784
332.134
331.409
330.757
330.078
324.213
324.567
325.29
325.555
325.91
326.281
326.585
326.666
326.962
326.786
326.799
326.7
326.55
326.191
325.834
325.485
324.953
324.418
323.905
323.387
317.34
317.536
318.078
318.209
318.542
318.793
318.994
319.058
319.271
319.096
319.142
319.082
318.952
318.684
318.422
318.198
317.814
317.427
317.122
316.682
310.412
310.526
310.849
310.92
311.148
311.271
311.413
311.444
311.55
311.43
311.507
311.473
311.367
311.224
311.043
310.913
310.653
310.449
310.291
310.014
303.488
303.53
303.644
303.666
303.734
303.795
303.824
303.817
303.883
303.824
303.866
303.845
303.784
303.775
303.698
303.664
303.553
303.504
303.444
303.371
352.646
353.64
355.132
355.808
356.519
357.468
357.928
358.491
358.889
358.68
358.641
358.468
358.24
357.5
356.585
355.702
354.65
353.479
352.168
351.097
345.613
346.475
347.795
348.348
348.945
349.749
350.124
350.649
350.969
350.775
350.797
350.645
350.435
349.774
349.017
348.218
347.301
346.257
345.174
344.309
338.58
339.341
340.449
340.886
341.397
342.06
342.371
342.805
343.07
342.906
342.938
342.84
342.619
342.095
341.47
340.798
339.939
339.062
338.194
337.497
331.567
332.219
333.12
333.438
333.891
334.412
334.653
334.998
335.18
335.074
335.15
335.014
334.834
334.387
333.895
333.389
332.623
331.915
331.276
330.717
324.565
325.05
325.771
325.985
326.36
326.749
326.936
327.187
327.313
327.264
327.346
327.199
327.053
326.681
326.334
325.98
325.313
324.821
324.343
323.916
317.559
317.912
318.401
318.517
318.863
319.106
319.236
319.426
319.508
319.47
319.554
319.42
319.299
319.044
318.78
318.591
318.068
317.723
317.385
317.124
310.569
310.778
311.043
311.12
311.359
311.455
311.564
311.65
311.679
311.658
311.741
311.689
311.587
311.43
311.21
311.188
310.821
310.67
310.457
310.288
303.542
303.594
303.71
303.742
303.799
303.856
303.874
303.895
303.924
303.897
303.942
303.911
303.887
303.829
303.733
303.742
303.621
303.588
303.525
303.435
353.247
354.615
355.873
356.859
357.715
358.425
358.933
359.468
359.873
359.611
359.686
359.375
359.172
358.533
357.65
356.848
355.726
354.425
353.084
352.023
346.182
347.298
348.412
349.232
349.939
350.579
351.032
351.528
351.821
351.614
351.661
351.398
351.23
350.699
349.936
349.218
348.261
347.111
345.967
345.019
339.146
339.982
340.949
341.635
342.211
342.753
343.125
343.602
343.796
343.615
343.674
343.446
343.262
342.853
342.25
341.583
340.802
339.867
338.886
337.994
332.052
332.739
333.502
334.048
334.521
334.963
335.291
335.661
335.813
335.645
335.681
335.49
335.309
335.04
334.577
334.034
333.338
332.595
331.796
331.045
324.968
325.471
326.047
326.465
326.859
327.15
327.466
327.766
327.871
327.698
327.732
327.573
327.412
327.245
326.909
326.464
325.921
325.349
324.711
324.14
317.865
318.202
318.617
318.894
319.196
319.372
319.61
319.838
319.926
319.768
319.801
319.67
319.536
319.431
319.203
318.919
318.498
318.095
317.615
317.22
310.739
310.92
311.163
311.318
311.519
311.625
311.763
311.919
311.944
311.823
311.924
311.838
311.736
311.614
311.528
311.358
311.097
310.867
310.549
310.322
303.594
303.641
303.721
303.78
303.869
303.898
303.951
303.999
303.996
303.943
304.002
303.976
303.951
303.88
303.841
303.796
303.724
303.658
303.531
303.465
354.171
355.233
356.485
357.462
358.555
359.244
359.797
360.431
360.653
360.765
360.663
360.299
360.021
359.4
358.467
357.37
356.507
355.306
353.917
352.815
347.019
347.865
348.894
349.777
350.72
351.312
351.798
352.357
352.457
352.59
352.546
352.237
351.951
351.449
350.623
349.636
348.96
347.856
346.661
345.78
339.817
340.478
341.353
342.142
342.911
343.411
343.79
344.312
344.377
344.452
344.441
344.199
343.922
343.506
342.784
341.952
341.385
340.437
339.417
338.728
332.597
333.085
333.812
334.555
335.124
335.492
335.803
336.236
336.336
336.33
336.322
336.19
335.944
335.562
334.988
334.291
333.863
333.044
332.231
331.649
325.368
325.666
326.285
326.894
327.305
327.596
327.865
328.172
328.272
328.274
328.232
328.153
327.933
327.631
327.189
326.691
326.342
325.687
325.06
324.591
318.122
318.306
318.774
319.225
319.51
319.728
319.906
320.127
320.251
320.138
320.15
320.13
319.973
319.71
319.397
319.112
318.798
318.363
317.886
317.574
310.908
310.937
311.259
311.527
311.729
311.833
311.936
312.112
312.193
312.064
312.099
312.113
312.038
311.811
311.642
311.493
311.324
311.012
310.716
310.548
303.646
303.664
303.782
303.86
303.922
303.982
304.005
304.057
304.075
304.047
304.053
304.049
304.045
303.956
303.905
303.848
303.788
303.687
303.579
303.537
354.814
356.037
357.182
358.127
359.052
360.034
360.771
361.17
361.323
361.561
361.509
361.181
360.707
360.168
359.143
358.235
357.25
356.127
354.803
353.361
347.533
348.51
349.544
350.293
351.113
352.003
352.617
352.965
353.089
353.298
353.273
352.96
352.572
352.093
351.161
350.405
349.516
348.576
347.453
346.221
340.193
341.014
341.945
342.528
343.212
344.019
344.502
344.767
344.908
345.062
344.999
344.738
344.471
344.047
343.19
342.567
341.82
341.045
340.105
339.102
332.911
333.533
334.322
334.777
335.336
336.033
336.386
336.584
336.698
336.893
336.807
336.563
336.364
336.016
335.261
334.796
334.181
333.577
332.745
331.991
325.615
326.035
326.698
327.059
327.499
328.024
328.284
328.436
328.54
328.73
328.631
328.421
328.3
327.951
327.399
327.068
326.585
326.122
325.426
324.902
318.335
318.567
319.068
319.382
319.641
319.999
320.188
320.288
320.336
320.52
320.437
320.267
320.207
319.942
319.572
319.328
318.995
318.636
318.163
317.799
311.033
311.116
311.46
311.672
311.809
311.982
312.121
312.159
312.194
312.313
312.296
312.141
312.136
311.927
311.741
311.609
311.385
311.176
310.903
310.705
303.685
303.728
303.835
303.914
303.955
304.017
304.082
304.083
304.104
304.106
304.109
304.044
304.068
303.99
303.944
303.904
303.817
303.774
303.64
303.585
355.44
356.716
357.95
358.822
359.819
360.632
361.419
361.841
362.004
362.208
362.426
361.96
361.388
360.89
360.055
358.953
357.845
356.668
355.416
353.918
348.084
349.167
350.212
350.932
351.759
352.526
353.165
353.535
353.699
353.882
354.066
353.619
353.149
352.717
351.986
351.024
350.059
349.056
347.926
346.713
340.711
341.591
342.422
343.06
343.694
344.43
344.973
345.291
345.385
345.565
345.743
345.302
344.965
344.549
343.94
343.142
342.27
341.455
340.473
339.486
333.353
334.038
334.672
335.233
335.722
336.36
336.787
337.076
337.103
337.28
337.434
337.038
336.785
336.384
335.91
335.289
334.527
333.911
333.065
332.278
326.029
326.518
326.93
327.414
327.769
328.313
328.657
328.875
328.835
329.002
329.115
328.775
328.612
328.269
327.932
327.387
326.824
326.31
325.667
325.094
318.661
319.001
319.255
319.632
319.816
320.22
320.503
320.657
320.638
320.729
320.852
320.542
320.457
320.208
319.952
319.544
319.145
318.798
318.29
317.909
311.26
311.431
311.574
311.802
311.862
312.158
312.306
312.405
312.415
312.456
312.572
312.35
312.288
312.134
311.989
311.721
311.457
311.281
310.956
310.745
303.779
303.845
303.883
303.952
303.982
304.082
304.108
304.143
304.154
304.174
304.214
304.118
304.119
304.084
304.015
303.922
303.818
303.784
303.678
303.597
355.944
357.309
358.451
359.604
360.588
361.579
362.076
362.433
362.777
362.79
363.055
362.604
361.998
361.32
360.724
359.637
358.484
357.257
355.899
354.503
348.527
349.638
350.608
351.647
352.446
353.331
353.796
354.053
354.389
354.374
354.652
354.175
353.668
353.061
352.54
351.61
350.624
349.54
348.426
347.212
341.106
342.031
342.8
343.675
344.362
345.116
345.5
345.691
346.009
345.984
346.219
345.787
345.361
344.818
344.371
343.599
342.805
341.814
340.962
339.929
333.686
334.403
335.019
335.719
336.296
336.891
337.226
337.35
337.631
337.655
337.837
337.432
337.091
336.636
336.282
335.644
334.997
334.131
333.517
332.629
326.203
326.77
327.252
327.818
328.215
328.691
328.968
329.017
329.259
329.341
329.45
329.136
328.815
328.457
328.215
327.708
327.186
326.504
326.094
325.412
318.767
319.132
319.501
319.88
320.135
320.522
320.741
320.724
320.9
321.001
321.071
320.819
320.586
320.32
320.149
319.78
319.423
318.927
318.601
318.179
311.293
311.497
311.735
311.943
312.063
312.32
312.458
312.459
312.556
312.606
312.629
312.511
312.357
312.217
312.103
311.895
311.679
311.367
311.114
310.901
303.795
303.856
303.926
304.007
304.026
304.133
304.198
304.203
304.212
304.226
304.222
304.197
304.123
304.092
304.072
303.949
303.91
303.813
303.723
303.65
356.572
357.42
358.741
360.143
361.044
362.078
362.529
362.836
363.3
363.288
363.408
363.028
362.632
361.902
361.046
360.238
358.937
357.628
356.328
354.843
349.015
349.78
350.882
352.055
352.884
353.771
354.165
354.42
354.821
354.766
354.889
354.574
354.234
353.595
352.849
352.163
351.039
349.897
348.764
347.507
341.421
342.14
343.029
344.034
344.741
345.467
345.781
346.009
346.357
346.33
346.407
346.166
345.844
345.306
344.7
344.075
343.14
342.157
341.217
340.188
333.846
334.514
335.2
336.035
336.542
337.216
337.438
337.615
337.868
337.915
337.967
337.752
337.476
337.017
336.58
336.019
335.258
334.456
333.657
332.903
326.293
326.821
327.4
328.047
328.394
328.974
329.136
329.247
329.435
329.511
329.565
329.354
329.129
328.729
328.468
328.08
327.392
326.77
326.154
325.639
318.783
319.132
319.628
320.047
320.263
320.721
320.826
320.879
321.042
321.086
321.115
320.96
320.773
320.51
320.376
320.061
319.58
319.141
318.702
318.35
311.272
311.492
311.796
312.018
312.174
312.454
312.512
312.529
312.668
312.675
312.654
312.571
312.497
312.307
312.233
312.044
311.778
311.519
311.256
311.078
303.769
303.85
303.957
304.004
304.095
304.197
304.201
304.205
304.248
304.236
304.221
304.234
304.192
304.129
304.11
304.037
303.927
303.874
303.761
303.705
356.678
357.885
359.282
360.36
361.31
362.418
362.986
363.409
363.948
363.698
363.758
363.536
362.854
362.392
361.54
360.546
359.241
358.131
356.857
355.432
349.111
350.119
351.325
352.27
353.121
354.082
354.548
354.88
355.37
355.129
355.182
354.998
354.429
354.044
353.237
352.401
351.29
350.277
349.258
347.987
341.534
342.383
343.386
344.162
344.918
345.783
346.122
346.381
346.774
346.576
346.66
346.494
346.02
345.709
345.016
344.26
343.373
342.461
341.647
340.613
333.941
334.652
335.528
336.052
336.723
337.438
337.713
337.902
338.241
338.068
338.152
338.038
337.632
337.346
336.813
336.165
335.46
334.68
334.061
333.253
326.397
326.953
327.664
327.994
328.519
329.11
329.308
329.443
329.753
329.55
329.655
329.559
329.296
329.019
328.633
328.141
327.547
326.929
326.491
325.874
318.856
319.261
319.748
320.016
320.379
320.797
320.941
321.008
321.251
321.101
321.171
321.116
320.938
320.719
320.442
320.123
319.689
319.208
318.947
318.519
311.339
311.547
311.87
312.046
312.243
312.523
312.593
312.623
312.788
312.651
312.703
312.695
312.589
312.428
312.255
312.062
311.822
311.537
311.377
311.173
303.79
303.865
303.98
304.061
304.093
304.207
304.224
304.241
304.3
304.22
304.262
304.25
304.251
304.167
304.093
304.041
303.952
303.871
303.82
303.734
356.722
358.01
359.377
360.389
361.593
362.36
362.971
363.676
364.185
364.143
364.067
363.794
363.151
362.766
361.722
360.851
359.59
358.295
357.135
355.699
349.219
350.257
351.433
352.292
353.364
354.043
354.534
355.149
355.621
355.512
355.491
355.218
354.671
354.309
353.432
352.67
351.59
350.445
349.434
348.259
341.633
342.505
343.469
344.238
345.141
345.692
346.07
346.637
347.036
346.913
346.942
346.679
346.196
345.905
345.206
344.494
343.577
342.628
341.794
340.834
334.067
334.761
335.583
336.198
336.926
337.409
337.631
338.152
338.511
338.399
338.39
338.141
337.77
337.503
337.012
336.306
335.627
334.835
334.141
333.44
326.483
327.02
327.706
328.172
328.703
329.103
329.168
329.681
329.944
329.896
329.852
329.65
329.375
329.092
328.76
328.2
327.745
327.12
326.509
326.01
318.92
319.309
319.818
320.145
320.51
320.792
320.778
321.212
321.38
321.383
321.311
321.186
320.978
320.742
320.509
320.17
319.869
319.364
318.936
318.585
311.366
311.61
311.902
312.09
312.331
312.481
312.466
312.731
312.86
312.82
312.801
312.746
312.598
312.508
312.314
312.117
311.964
311.622
311.365
311.15
303.808
303.901
303.995
304.055
304.143
304.191
304.18
304.272
304.307
304.303
304.289
304.282
304.223
304.221
304.127
304.069
304.033
303.881
303.81
303.745
357.103
358.111
359.453
360.588
361.76
362.633
363.187
363.893
364.293
364.324
364.003
363.975
363.258
362.849
361.748
361.066
359.786
358.385
356.956
355.671
349.518
350.339
351.505
352.467
353.428
354.247
354.715
355.386
355.685
355.749
355.405
355.39
354.721
354.375
353.462
352.804
351.733
350.551
349.341
348.209
341.927
342.59
343.539
344.35
345.123
345.889
346.275
346.839
347.08
347.194
346.836
346.793
346.277
345.961
345.217
344.556
343.721
342.736
341.735
340.75
334.293
334.858
335.575
336.254
336.865
337.536
337.829
338.31
338.525
338.644
338.333
338.257
337.816
337.584
336.99
336.34
335.735
334.934
334.153
333.299
326.675
327.15
327.664
328.169
328.657
329.16
329.43
329.792
329.974
330.088
329.823
329.761
329.374
329.221
328.724
328.171
327.774
327.155
326.574
325.878
319.051
319.405
319.743
320.092
320.458
320.835
321.044
321.278
321.432
321.487
321.295
321.245
320.973
320.884
320.503
320.077
319.885
319.381
318.985
318.482
311.454
311.653
311.847
312.047
312.26
312.511
312.645
312.787
312.899
312.893
312.789
312.749
312.592
312.502
312.33
312.043
311.948
311.639
311.395
311.095
303.841
303.901
303.956
304.052
304.115
304.21
304.23
304.294
304.321
304.327
304.288
304.267
304.218
304.192
304.112
304.033
304.018
303.885
303.815
303.72
357.081
358.247
359.575
360.898
361.78
362.791
363.535
363.854
364.195
364.334
364.273
363.844
363.466
362.956
362.039
361.091
359.89
358.41
357.181
355.819
349.507
350.494
351.665
352.733
353.516
354.417
355.066
355.266
355.567
355.751
355.718
355.254
354.926
354.536
353.673
352.888
351.81
350.605
349.481
348.324
341.878
342.702
343.747
344.578
345.26
346.03
346.587
346.766
346.991
347.18
347.129
346.709
346.461
346.135
345.336
344.718
343.807
342.804
341.79
340.84
334.286
334.915
335.779
336.467
337.037
337.632
338.089
338.297
338.437
338.641
338.565
338.19
338.046
337.765
337.071
336.546
335.845
335.011
334.172
333.338
326.676
327.136
327.837
328.372
328.862
329.269
329.615
329.81
329.881
330.089
329.984
329.711
329.57
329.331
328.819
328.406
327.912
327.215
326.594
325.879
319.065
319.361
319.882
320.343
320.602
320.907
321.171
321.317
321.354
321.514
321.429
321.256
321.125
320.936
320.598
320.297
319.96
319.5
319.021
318.49
311.456
311.631
311.908
312.256
312.385
312.545
312.713
312.814
312.813
312.909
312.88
312.765
312.689
312.54
312.37
312.184
312.015
311.695
311.45
311.09
303.835
303.875
303.988
304.118
304.157
304.214
304.264
304.304
304.299
304.322
304.343
304.289
304.236
304.193
304.136
304.091
304.048
303.919
303.833
303.705
356.986
358.073
359.584
360.863
361.978
362.559
363.554
363.941
364.282
364.193
364.096
363.853
363.314
362.939
361.806
361.039
359.791
358.634
357.294
355.695
349.42
350.349
351.615
352.698
353.727
354.211
355.052
355.363
355.641
355.595
355.506
355.281
354.828
354.495
353.489
352.865
351.75
350.744
349.626
348.246
341.871
342.634
343.643
344.545
345.462
345.878
346.598
346.829
347.014
347.021
346.963
346.68
346.389
346.046
345.208
344.708
343.731
342.898
341.963
340.802
334.249
334.872
335.719
336.432
337.174
337.537
338.118
338.304
338.431
338.389
338.451
338.092
338.021
337.63
336.983
336.602
335.741
335.084
334.353
333.362
326.662
327.155
327.77
328.342
328.931
329.213
329.666
329.752
329.874
329.819
329.909
329.595
329.557
329.236
328.678
328.446
327.789
327.268
326.721
325.962
319.034
319.423
319.808
320.269
320.671
320.864
321.195
321.249
321.327
321.3
321.406
321.104
321.096
320.834
320.437
320.335
319.863
319.43
319.083
318.562
311.414
311.699
311.876
312.184
312.414
312.528
312.708
312.738
312.818
312.771
312.91
312.684
312.694
312.466
312.241
312.234
311.904
311.667
311.438
311.146
303.819
303.918
303.987
304.066
304.183
304.21
304.23
304.272
304.298
304.288
304.307
304.239
304.236
304.158
304.092
304.107
304.001
303.909
303.828
303.739
)
;

boundaryField
{
    hotSide
    {
        type            fixedGradient;
        gradient        nonuniform List<scalar> 
400
(
461.297
475.309
488.908
502.033
514.625
526.626
537.978
548.625
558.516
567.6
575.832
583.169
589.572
595.007
599.445
602.861
605.237
606.559
606.818
606.012
473.337
487.762
501.766
515.286
528.261
540.63
552.334
563.316
573.523
582.903
591.407
598.993
605.62
611.253
615.862
619.421
621.91
623.316
623.63
622.848
484.113
498.915
513.288
527.167
540.491
553.196
565.223
576.512
587.008
596.659
605.415
613.231
620.065
625.882
630.65
634.343
636.941
638.428
638.795
638.039
493.562
508.7
523.402
537.604
551.24
564.248
576.564
588.129
598.887
608.782
617.766
625.79
632.814
638.799
643.713
647.53
650.229
651.793
652.213
651.486
501.63
517.062
532.053
546.536
560.447
573.719
586.29
598.099
609.087
619.199
628.384
636.594
643.786
649.922
654.969
658.899
661.69
663.326
663.798
663.101
508.276
523.956
539.192
553.915
568.059
581.557
594.346
606.363
617.55
627.849
637.208
645.579
652.918
659.186
664.349
668.379
671.254
672.956
673.476
672.81
513.467
529.349
544.785
559.704
574.038
587.723
600.691
612.88
624.23
634.684
644.188
652.694
660.157
666.537
671.8
675.916
678.864
680.625
681.191
680.555
517.182
533.218
548.806
563.875
578.357
592.185
605.292
617.615
629.094
639.67
649.289
657.903
665.465
671.935
677.279
681.468
684.477
686.29
686.897
686.292
519.406
535.549
551.241
566.414
580.998
594.926
608.131
620.55
632.12
642.784
652.487
661.179
668.815
675.354
680.761
685.005
688.065
689.921
690.563
689.987
520.137
536.335
552.083
567.313
581.954
595.938
609.199
621.672
633.297
644.014
653.769
662.511
670.194
676.779
682.228
686.513
689.609
691.5
692.173
691.624
519.378
535.581
551.336
566.574
581.226
595.222
608.496
620.985
632.625
643.36
653.133
661.896
669.6
676.207
681.679
685.987
689.108
691.022
691.72
691.196
517.14
533.298
549.011
564.21
578.825
592.788
606.034
618.496
630.115
640.832
650.591
659.343
667.042
673.647
679.121
683.436
686.567
688.496
689.213
688.711
513.441
529.504
545.126
560.238
574.771
588.658
601.831
614.228
625.787
636.45
646.163
654.875
662.54
669.119
674.575
678.879
682.007
683.941
684.669
684.187
508.308
524.227
539.71
554.688
569.093
582.858
595.918
608.209
619.671
630.245
639.878
648.52
656.126
662.655
668.073
672.349
675.46
677.388
678.122
677.657
501.774
517.5
532.796
547.594
561.827
575.429
588.333
600.479
611.806
622.257
631.779
640.322
647.842
654.298
659.657
663.888
666.969
668.882
669.614
669.163
493.879
509.365
524.429
539.002
553.02
566.415
579.125
591.087
602.243
612.537
621.916
630.332
637.741
644.102
649.382
653.553
656.59
658.477
659.202
658.762
484.67
499.872
514.659
528.965
542.724
555.873
568.349
580.092
591.043
601.148
610.354
618.615
625.887
632.132
637.315
641.408
644.39
646.242
646.954
646.522
474.205
489.079
503.546
517.543
531.004
543.869
556.074
567.562
578.275
588.16
597.165
605.246
612.358
618.465
623.533
627.535
630.448
632.257
632.95
632.523
462.546
477.051
491.159
504.807
517.934
530.477
542.377
553.577
564.021
573.656
582.434
590.309
597.24
603.19
608.126
612.023
614.858
616.615
617.284
616.861
449.766
463.864
477.575
490.839
503.594
515.783
527.345
538.226
548.372
557.732
566.257
573.904
580.633
586.407
591.197
594.975
597.721
599.42
600.06
599.639
)
;
    }
    coldSide
    {
        type            mixed;
        refValue        uniform 300;
        refGradient     uniform 0;
        valueFraction   uniform 0.991591;
        source          uniform 0;
        value           nonuniform List<scalar> 
400
(
300.025
300.025
300.026
300.027
300.027
300.028
300.029
300.029
300.03
300.03
300.031
300.031
300.032
300.032
300.032
300.032
300.032
300.032
300.032
300.032
300.026
300.026
300.027
300.027
300.028
300.029
300.029
300.03
300.03
300.031
300.031
300.031
300.032
300.032
300.032
300.033
300.033
300.033
300.033
300.033
300.026
300.026