/*--------------------------------*- C++ -*----------------------------------*\
| =========                 |                                                 |
| \\      /  F ield         | OpenFOAM: The Open Source CFD Toolbox           |
|  \\    /   O peration     | Version:  2212                                  |
|   \\  /    A nd           | Website:  www.openfoam.com                      |
|    \\/     M anipulation  |                                                 |
\*---------------------------------------------------------------------------*/
FoamFile
{
    version     2.0;
    format      ascii;
    arch        "LSB;label=32;scalar=64";
    class       volScalarField;
    location    "./ITHACAoutput/true/15.4";
    object      error;
}
// * * * * * * * * * * * * * * * * * * * * * * * * * * * * * * * * * * * * * //

dimensions      [0 0 0 1 0 0 0];

internalField   nonuniform List<scalar> 
3200
(
3.51441
3.01942
2.43014
2.05286
1.75149
1.522
1.47897
1.40272
1.50201
1.55878
1.60859
1.67576
1.90564
2.08168
2.33361
2.65203
3.1395
3.69382
4.26291
4.85434
3.08218
2.62774
2.14502
1.80177
1.51945
1.35433
1.24871
1.23432
1.32257
1.41107
1.43685
1.47583
1.61083
1.74823
2.0396
2.30151
2.71829
3.20248
3.72126
4.21243
2.60017
2.22439
1.80332
1.49359
1.31731
1.20302
1.11231
1.05475
1.16482
1.12531
1.23029
1.30652
1.38186
1.54045
1.7108
1.9658
2.23688
2.64588
3.15013
3.53923
2.05696
1.83496
1.51908
1.23117
1.10722
0.996077
0.933518
0.936228
0.909871
0.945428
1.06799
1.13223
1.11563
1.21389
1.45176
1.62505
1.84115
2.17991
2.51891
2.90565
1.60515
1.43238
1.23777
0.947442
0.866728
0.773911
0.661386
0.69264
0.671115
0.77684
0.729283
0.80975
0.918361
0.962033
1.12276
1.2236
1.47343
1.70108
1.98679
2.19355
1.13872
1.02177
0.817671
0.655126
0.574078
0.565761
0.498837
0.503374
0.464428
0.470936
0.626687
0.558312
0.586148
0.737214
0.697951
0.913967
1.03516
1.23686
1.48938
1.58751
0.728621
0.581228
0.489284
0.465735
0.365283
0.292352
0.261048
0.320383
0.243888
0.272682
0.339052
0.382971
0.434191
0.436927
0.474888
0.591144
0.576046
0.772431
0.897901
0.938735
0.25762
0.167444
0.195395
0.17664
0.0957818
0.148457
0.0609889
0.103282
0.104477
0.10282
0.158477
0.154815
0.128125
0.12631
0.148506
0.261327
0.139015
0.273495
0.226188
0.336216
2.64268
2.14402
1.55604
1.10963
0.826026
0.516167
0.400746
0.386763
0.463532
0.519072
0.628688
0.659291
0.835344
1.01726
1.32004
1.65145
2.12428
2.71112
3.38457
4.00568
2.31783
1.89828
1.47386
1.0172
0.743102
0.577836
0.454754
0.515499
0.417361
0.495823
0.595801
0.667482
0.851239
0.962456
1.2185
1.48836
1.93856
2.3796
2.97618
3.56278
1.99699
1.59309
1.22454
0.907418
0.752874
0.55303
0.392935
0.382586
0.439589
0.442953
0.562465
0.671131
0.726783
0.896323
1.03405
1.34635
1.6831
2.107
2.58694
2.94672
1.67113
1.38817
1.08736
0.816455
0.580962
0.508136
0.389808
0.35576
0.424101
0.414984
0.474694
0.492962
0.611268
0.738865
0.895939
1.07484
1.33633
1.75573
2.08452
2.47513
1.33743
1.11116
0.824582
0.674977
0.481736
0.448593
0.367053
0.303502
0.275459
0.313615
0.387207
0.417528
0.469506
0.620158
0.710127
0.880686
1.04819
1.291
1.62331
1.89891
0.976854
0.815977
0.702249
0.457583
0.333032
0.320245
0.267134
0.17597
0.282795
0.258599
0.302944
0.316048
0.393284
0.473501
0.525247
0.592423
0.784113
0.907513
1.22815
1.35632
0.600288
0.493601
0.345838
0.274653
0.210742
0.16736
0.175904
0.165904
0.101481
0.076459
0.180703
0.195498
0.209776
0.340814
0.332838
0.32051
0.438639
0.541333
0.728396
0.815242
0.218022
0.145165
0.0923287
0.0957116
0.0161438
0.0299844
0.0769988
0.0770341
0.010232
0.0994735
0.0418552
0.0835913
0.00688434
0.105361
0.167622
0.165887
0.15394
0.194734
0.245744
0.286509
1.63941
1.06688
0.446694
0.0320177
-0.334534
-0.601148
-0.780665
-0.846569
-0.765824
-0.75692
-0.727502
-0.551153
-0.363973
-0.200065
0.1056
0.447432
1.00388
1.63725
2.23428
2.93347
1.4914
1.07644
0.476603
0.0880725
-0.25475
-0.44961
-0.596811
-0.588614
-0.649662
-0.500088
-0.473464
-0.446314
-0.251572
-0.117618
0.213141
0.536449
0.896655
1.39707
2.07666
2.64467
1.33705
0.929198
0.549657
0.139681
-0.0916327
-0.309784
-0.398119
-0.458222
-0.466893
-0.416744
-0.332161
-0.228019
-0.194793
0.108861
0.196904
0.449339
0.870507
1.34377
1.7821
2.26803
1.1312
0.80462
0.496234
0.180497
-0.0417205
-0.205269
-0.265369
-0.325406
-0.284968
-0.330507
-0.229242
-0.195725
-0.0767782
0.0682702
0.24939
0.425611
0.681981
1.11531
1.4847
1.84894
0.917282
0.616114
0.381095
0.19924
0.0160526
-0.0799454
-0.213638
-0.213505
-0.219833
-0.287724
-0.120338
-0.0336123
-0.0203399
0.05433
0.185634
0.357787
0.592836
0.866947
1.19103
1.43523
0.680755
0.543181
0.258786
0.0916197
0.0240638
-0.0163264
-0.173201
-0.122444
-0.169823
-0.186978
-0.123952
-0.0979562
0.0609561
0.0914124
0.23926
0.293466
0.467305
0.63445
0.795274
1.01514
0.448058
0.331406
0.123884
0.144548
0.0334024
-0.110383
-0.109582
-0.101185
-0.0337281
-0.1095
-0.0767002
-0.0899373
-0.000262502
0.087789
0.101978
0.184627
0.269625
0.440172
0.552394
0.615832
0.182374
0.129548
0.0459134
0.0154214
0.0434437
0.00529458
-0.022201
-0.000882493
0.0321505
-0.0633102
-0.0105287
-0.0439106
-0.043084
0.0352967
0.0621727
-0.0170401
0.104632
0.142064
0.161517
0.213795
0.831099
0.146797
-0.402491
-1.03181
-1.46884
-1.73675
-1.90972
-1.99137
-2.01439
-2.04201
-1.89051
-1.8423
-1.61533
-1.443
-1.04124
-0.634086
-0.0791298
0.475676
1.32091
2.03032
0.791942
0.249289
-0.39557
-0.836532
-1.2076
-1.35538
-1.54653
-1.61797
-1.6261
-1.64074
-1.52067
-1.46418
-1.26967
-1.12051
-0.843035
-0.448653
0.0187826
0.648393
1.17549
1.79308
0.679716
0.262521
-0.230606
-0.568357
-0.992211
-1.11853
-1.22484
-1.2755
-1.30614
-1.35864
-1.1813
-1.1022
-1.05012
-0.827016
-0.616261
-0.317684
0.0686265
0.546064
1.1029
1.48858
0.70969
0.222049
-0.0821857
-0.427536
-0.65278
-0.728194
-0.943581
-1.01675
-0.948799
-0.93695
-0.995245
-0.893793
-0.752329
-0.641057
-0.43004
-0.180366
0.0781352
0.454986
0.949996
1.31649
0.45813
0.250958
-0.0735969
-0.237813
-0.444157
-0.623507
-0.698276
-0.65382
-0.732878
-0.763537
-0.729611
-0.652543
-0.58699
-0.497226
-0.295906
-0.0499
0.118992
0.379984
0.765799
1.01209
0.379464
0.219261
-0.0320037
-0.236547
-0.313797
-0.437543
-0.463645
-0.561427
-0.548089
-0.477957
-0.477507
-0.500155
-0.407869
-0.295638
-0.196716
-0.1101
0.117278
0.259
0.540464
0.77312
0.230068
0.142081
0.0277293
-0.121345
-0.232247
-0.228228
-0.277985
-0.268437
-0.313476
-0.333748
-0.287751
-0.281672
-0.283157
-0.150423
-0.18714
-0.0747371
0.0292196
0.205616
0.296511
0.455538
0.0510804
0.0384729
0.00964059
0.0175313
-0.0957222
-0.0676724
-0.0728833
-0.131826
-0.0900985
-0.110469
-0.11269
-0.106175
-0.0960335
-0.0578386
-0.0334643
0.0518176
-0.0152767
0.103626
0.0680961
0.119684
0.0838449
-0.651194
-1.35106
-1.92188
-2.3586
-2.74288
-2.96242
-3.03685
-3.14228
-3.12952
-2.91576
-2.92831
-2.6605
-2.43931
-2.1348
-1.63564
-1.04624
-0.430387
0.413567
1.15671
0.195737
-0.378178
-0.99078
-1.54164
-1.94219
-2.26081
-2.37777
-2.57199
-2.56448
-2.55469
-2.5277
-2.40241
-2.25271
-1.96029
-1.67103
-1.32168
-0.805401
-0.197509
0.503281
1.15028
0.231293
-0.254392
-0.778891
-1.1503
-1.50181
-1.7698
-1.97212
-2.01648
-2.13382
-2.08792
-2.02739
-1.8605
-1.75392
-1.59582
-1.32072
-1.08606
-0.572979
-0.1642
0.472736
0.940779
0.175726
-0.152775
-0.553003
-0.919114
-1.30395
-1.40362
-1.50602
-1.6364
-1.69489
-1.58569
-1.60325
-1.54058
-1.40448
-1.26523
-1.08806
-0.793777
-0.472995
-0.0579222
0.474217
0.787848
0.178246
-0.0747171
-0.424983
-0.64352
-0.937269
-1.06134
-1.13192
-1.25484
-1.22084
-1.20833
-1.17042
-1.12422
-1.03688
-0.966001
-0.800475
-0.558522
-0.307262
-0.00750487
0.311304
0.6575
0.190737
0.00947106
-0.249059
-0.498512
-0.637153
-0.719534
-0.796917
-0.854369
-0.833577
-0.877682
-0.803209
-0.809987
-0.68667
-0.664558
-0.552049
-0.409597
-0.188016
-0.0331256
0.239047
0.565467
0.120174
-0.047531
-0.104368
-0.198893
-0.437899
-0.468929
-0.495284
-0.504984
-0.477413
-0.47925
-0.503368
-0.493741
-0.441943
-0.339765
-0.357554
-0.241302
-0.0916728
0.0110729
0.147111
0.292516
0.101315
-0.0217596
0.0122808
-0.0948875
-0.106511
-0.0777316
-0.109992
-0.150133
-0.149646
-0.130955
-0.187483
-0.1586
-0.112007
-0.173909
-0.163822
-0.0913295
-0.0133218
-0.0473778
0.0694752
0.120968
-0.471927
-1.1429
-1.99389
-2.64327
-3.13456
-3.51885
-3.8168
-3.97019
-3.9722
-3.97658
-3.92857
-3.74243
-3.61704
-3.30653
-2.95984
-2.46075
-1.88164
-1.06231
-0.155238
0.60034
-0.310551
-0.912464
-1.61825
-2.09238
-2.59562
-2.87839
-3.19559
-3.29354
-3.31317
-3.23799
-3.26582
-3.08269
-2.99999
-2.72245
-2.43251
-1.90444
-1.47166
-0.775782
-0.100934
0.540241
-0.195468
-0.722657
-1.2332
-1.6954
-2.09515
-2.39495
-2.55414
-2.70365
-2.70442
-2.74092
-2.64737
-2.54991
-2.36156
-2.26116
-1.96998
-1.58577
-1.0856
-0.624979
0.0433811
0.466471
-0.0522802
-0.512922
-0.981444
-1.37958
-1.65013
-1.814
-2.05479
-2.15505
-2.1223
-2.1426
-2.0775
-1.9798
-1.87178
-1.75656
-1.58997
-1.28346
-0.837604
-0.477727
0.0368725
0.468227
-0.0535166
-0.332913
-0.74838
-0.944667
-1.2697
-1.47906
-1.53464
-1.62044
-1.68869
-1.65183
-1.57761
-1.52093
-1.46958
-1.33901
-1.17412
-0.963176
-0.679144
-0.346002
0.0901816
0.370545
-0.028886
-0.262436
-0.571676
-0.68674
-0.963687
-0.999305
-1.12145
-1.08154
-1.17871
-1.20503
-1.15189
-1.05467
-1.02058
-0.901432
-0.743117
-0.631724
-0.467217
-0.184914
0.0354963
0.325267
0.055575
-0.205147
-0.255408
-0.388467
-0.547862
-0.596452
-0.616465
-0.674785
-0.671664
-0.656898
-0.668323
-0.632979
-0.663062
-0.50862
-0.457647
-0.367304
-0.23619
-0.202057
0.049948
0.201171
-0.0124484
-0.0177903
-0.140647
-0.246561
-0.189929
-0.167659
-0.15971
-0.260333
-0.284147
-0.204238
-0.272669
-0.250539
-0.197609
-0.152345
-0.149251
-0.0664706
-0.032047
0.00485358
0.0544816
0.0428958
-0.692173
-1.5527
-2.33549
-2.99784
-3.61316
-4.04634
-4.40061
-4.54807
-4.67782
-4.66074
-4.63303
-4.45045
-4.28224
-3.95625
-3.52386
-3.01217
-2.35462
-1.54256
-0.633835
0.14479
-0.554287
-1.17748
-1.86097
-2.51297
-2.96356
-3.3608
-3.69904
-3.82788
-3.91465
-3.94444
-3.86619
-3.70003
-3.57343
-3.34413
-2.91504
-2.45075
-1.89861
-1.27048
-0.410593
0.238129
-0.415048
-0.931004
-1.50525
-1.99935
-2.48373
-2.74476
-3.02237
-3.10295
-3.15819
-3.25515
-3.14979
-2.99449
-2.86301
-2.70743
-2.40657
-1.9809
-1.49487
-0.944695
-0.328267
0.354969
-0.29384
-0.693081
-1.18346
-1.62078
-1.92029
-2.21491
-2.40978
-2.51445
-2.49528
-2.56725
-2.51327
-2.47294
-2.30906
-2.16487
-1.89657
-1.65239
-1.17515
-0.701806
-0.238017
0.283078
-0.186239
-0.576568
-0.865036
-1.15612
-1.49217
-1.60244
-1.83729
-1.84617
-1.89373
-1.98495
-1.8975
-1.88884
-1.79318
-1.62613
-1.39782
-1.25135
-0.873886
-0.493315
-0.139323
0.223768
-0.12331
-0.311673
-0.611038
-0.834914
-0.973513
-1.16956
-1.26552
-1.36445
-1.37594
-1.37774
-1.37027
-1.34587
-1.22637
-1.12686
-1.03283
-0.868845
-0.608533
-0.402728
-0.0833194
0.161104
-0.0551048
-0.234186
-0.360616
-0.546881
-0.639854
-0.710113
-0.758983
-0.766145
-0.77055
-0.867491
-0.807516
-0.808014
-0.76827
-0.758905
-0.575546
-0.4999
-0.366345
-0.185157
-0.0466479
0.116227
0.00650201
-0.0906385
-0.0827434
-0.0915041
-0.129899
-0.235403
-0.274421
-0.332659
-0.246652
-0.345264
-0.256794
-0.325271
-0.24578
-0.325418
-0.241696
-0.207792
-0.112917
-0.0591372
-0.0161396
-0.010667
-0.728584
-1.66819
-2.45063
-3.23778
-3.83775
-4.37162
-4.74432
-4.96508
-5.08729
-5.11078
-4.95577
-4.96529
-4.6454
-4.30819
-3.90049
-3.31737
-2.61487
-1.77463
-0.820066
0.0745992
-0.603544
-1.28178
-1.9868
-2.70621
-3.24017
-3.70322
-3.91224
-4.23669
-4.1806
-4.29344
-4.20419
-4.11708
-3.94097
-3.59905
-3.21366
-2.70136
-2.0919
-1.3988
-0.64511
0.125163
-0.430727
-1.09806
-1.61917
-2.15499
-2.62393
-2.93663
-3.24261
-3.3697
-3.4545
-3.44178
-3.49328
-3.41829
-3.16455
-2.9343
-2.66591
-2.21317
-1.72128
-1.10888
-0.435088
0.117814
-0.313986
-0.746567
-1.22548
-1.66735
-2.00525
-2.36416
-2.60266
-2.72267
-2.77697
-2.80714
-2.73256
-2.69348
-2.51623
-2.33258
-2.10749
-1.73627
-1.41375
-0.899865
-0.188485
0.181807
-0.20941
-0.615633
-0.927372
-1.24941
-1.5861
-1.77239
-1.97759
-2.10477
-2.1074
-2.11354
-2.16853
-2.04621
-1.93851
-1.7773
-1.67531
-1.33438
-0.990161
-0.626074
-0.195584
0.100795
-0.110589
-0.328028
-0.636606
-0.864885
-1.1298
-1.25862
-1.39515
-1.44057
-1.44122
-1.52407
-1.54007
-1.51298
-1.38019
-1.30097
-1.11803
-0.946691
-0.6918
-0.419461
-0.114886
0.0807198
-0.0783125
-0.287337
-0.380491
-0.544772
-0.662277
-0.8002
-0.849274
-0.826455
-0.877099
-0.937775
-0.909789
-0.914537
-0.788586
-0.77764
-0.628334
-0.5163
-0.326632
-0.248954
-0.0711579
0.027866
-0.0214796
-0.111488
-0.0818082
-0.159297
-0.215343
-0.215161
-0.31139
-0.224043
-0.370522
-0.252998
-0.311094
-0.344408
-0.264447
-0.283421
-0.26126
-0.217972
-0.113352
-0.0181303
-0.0234889
0.00279402
-0.617802
-1.43379
-2.3913
-3.2084
-3.89944
-4.47922
-4.76558
-5.10921
-5.23549
-5.29689
-5.29857
-5.16674
-4.83838
-4.52108
-4.07005
-3.38468
-2.69197
-1.71581
-0.738154
0.144155
-0.404414
-1.19732
-1.9882
-2.65152
-3.20578
-3.65901
-4.01771
-4.25102
-4.45249
-4.37908
-4.39356
-4.33358
-4.11221
-3.85661
-3.38719
-2.8503
-2.21357
-1.41955
-0.563702
0.246875
-0.231146
-0.898084
-1.54505
-2.11986
-2.54866
-3.00666
-3.29553
-3.50336
-3.56378
-3.71502
-3.62086
-3.52122
-3.36762
-3.09128
-2.76384
-2.28524
-1.73992
-1.10395
-0.40352
0.280978
-0.133532
-0.622463
-1.27436
-1.63691
-2.10899
-2.45124
-2.65062
-2.85252
-2.93011
-2.94428
-2.85831
-2.81533
-2.63906
-2.40316
-2.18744
-1.83577
-1.30588
-0.863375
-0.27754
0.249065
-0.124677
-0.394565
-0.889061
-1.28414
-1.57847
-1.81778
-1.93043
-2.12089
-2.18077
-2.27973
-2.16449
-2.14206
-2.03738
-1.90416
-1.62286
-1.44216
-1.01923
-0.573112
-0.133324
0.171551
-0.0518143
-0.364016
-0.578451
-0.911573
-1.09184
-1.32269
-1.39666
-1.51865
-1.52103
-1.54148
-1.57259
-1.54549
-1.4481
-1.26224
-1.19167
-0.981339
-0.747857
-0.429605
-0.158501
0.167833
-0.0159566
-0.137418
-0.318121
-0.52146
-0.6875
-0.749882
-0.756558
-0.906896
-0.922522
-0.955547
-0.989174
-0.904128
-0.847763
-0.743089
-0.705695
-0.53884
-0.452878
-0.292714
-0.10567
0.0931116
0.018904
-0.0339145
-0.06847
-0.188515
-0.277866
-0.22171
-0.263173
-0.289858
-0.304529
-0.281039
-0.302478
-0.315946
-0.34843
-0.27644
-0.161783
-0.216062
-0.172445
-0.0834606
-0.0664577
0.0557341
-0.177629
-1.13163
-2.0292
-2.86104
-3.70194
-4.24189
-4.681
-5.01682
-5.15531
-5.32672
-5.16811
-5.09285
-4.81959
-4.33383
-3.86773
-3.19427
-2.42612
-1.54039
-0.44013
0.490643
-0.043168
-0.780799
-1.59389
-2.36894
-3.02875
-3.53405
-3.85041
-4.13389
-4.38096
-4.35803
-4.34849
-4.26295
-4.0018
-3.69086
-3.19346
-2.67394
-1.92991
-1.14454
-0.296346
0.557295
0.0840743
-0.563632
-1.28203
-1.92506
-2.42806
-2.86604
-3.13581
-3.4626
-3.60152
-3.64568
-3.57024
-3.45926
-3.2246
-3.00042
-2.65533
-2.11493
-1.52911
-0.956751
-0.150744
0.506908
0.085402
-0.431497
-0.927296
-1.49085
-1.87717
-2.32645
-2.49562
-2.69434
-2.76387
-2.8507
-2.76995
-2.7178
-2.56431
-2.36429
-2.04822
-1.77683
-1.20421
-0.68634
-0.0460894
0.440525
0.0191503
-0.245428
-0.773585
-1.0783
-1.44104
-1.75393
-2.0013
-2.08035
-2.16144
-2.14401
-2.11841
-2.17238
-2.00435
-1.84292
-1.57054
-1.25653
-0.918391
-0.506605
-0.00715827
0.32796
0.0734319
-0.160464
-0.49841
-0.799735
-1.05366
-1.20181
-1.39325
-1.43365
-1.50323
-1.58774
-1.54002
-1.43577
-1.42846
-1.30308
-1.11995
-0.85258
-0.655942
-0.338968
-0.0487849
0.269877
0.0294835
-0.0951813
-0.25003
-0.427024
-0.651122
-0.674551
-0.791765
-0.811284
-0.901902
-0.837249
-0.894692
-0.876384
-0.806471
-0.766427
-0.669604
-0.482824
-0.368562
-0.150053
-0.0409743
0.156556
0.002274
-0.0487653
-0.0512289
-0.186355
-0.188362
-0.236117
-0.244905
-0.236043
-0.33387
-0.272448
-0.320755
-0.255847
-0.30635
-0.228616
-0.216794
-0.1378
-0.0887067
-0.0126133
-0.063049
0.0297015
0.507468
-0.393024
-1.41919
-2.40483
-3.07019
-3.76714
-4.23543
-4.53943
-4.86455
-4.85002
-4.81273
-4.65676
-4.42015
-4.05572
-3.47196
-2.75277
-1.91515
-0.947804
0.10756
1.14051
0.655769
-0.229402
-1.02042
-1.89044
-2.56057
-3.08045
-3.5056
-3.91854
-4.00741
-4.03429
-4.10081
-3.9344
-3.62501
-3.34872
-2.8442
-2.21101
-1.45131
-0.673228
0.160581
1.03817
0.613547
-0.12678
-0.839258
-1.51166
-2.05386
-2.50963
-2.91098
-3.13525
-3.26025
-3.33409
-3.30196
-3.17937
-2.96217
-2.80241
-2.30307
-1.72639
-1.1842
-0.511426
0.281248
0.930959
0.553494
-0.0550062
-0.64618
-1.15713
-1.62826
-2.01762
-2.24841
-2.54843
-2.6164
-2.6653
-2.72756
-2.60693
-2.40387
-2.14589
-1.79054
-1.39998
-0.98635
-0.351688
0.271709
0.89048
0.464421
0.00805502
-0.403211
-0.826803
-1.21223
-1.45559
-1.68311
-1.91765
-1.97857
-1.9853
-2.00826
-1.94434
-1.83301
-1.65787
-1.40356
-0.964251
-0.620041
-0.268951
0.224387
0.63821
0.32296
0.032903
-0.246868
-0.633791
-0.864271
-1.02068
-1.29761
-1.35864
-1.37348
-1.44931
-1.38436
-1.35699
-1.27269
-1.12386
-0.985669
-0.742814
-0.420744
-0.189214
0.174557
0.508524
0.248696
-0.0734121
-0.215572
-0.351352
-0.522462
-0.629012
-0.714077
-0.745051
-0.862147
-0.914488
-0.858944
-0.851076
-0.694226
-0.64347
-0.53405
-0.409459
-0.253512
-0.138754
0.163948
0.282057
0.0621596
-0.0178019
-0.0890475
-0.163609
-0.159631
-0.23973
-0.212703
-0.301857
-0.272158
-0.286471
-0.281398
-0.228573
-0.20028
-0.199402
-0.185452
-0.170037
-0.129441
-0.0525474
-0.00101407
0.0363082
1.53998
0.519379
-0.515927
-1.49078
-2.34622
-2.99783
-3.5064
-3.90008
-4.1283
-4.29504
-4.22126
-4.00507
-3.78057
-3.29204
-2.72974
-2.0113
-1.20844
-0.0977591
1.01233
1.93989
1.37062
0.600756
-0.282128
-1.15442
-1.82501
-2.4987
-2.85351
-3.25901
-3.4539
-3.63277
-3.49135
-3.33091
-3.12824
-2.67108
-2.22554
-1.58643
-0.819291
-0.0465989
0.948033
1.83289
1.30672
0.630685
-0.173232
-0.871198
-1.5189
-1.96191
-2.31936
-2.62778
-2.85636
-2.86878
-2.79815
-2.70888
-2.47875
-2.25421
-1.72745
-1.28339
-0.606727
0.123011
0.895378
1.66453
1.17044
0.539572
-0.0722855
-0.63445
-1.07193
-1.55383
-1.80789
-2.00546
-2.22669
-2.21492
-2.2176
-2.2005
-1.97233
-1.67296
-1.44446
-0.964054
-0.449562
0.14435
0.800622
1.3539
0.90941
0.438705
0.00558374
-0.466261
-0.804093
-1.09625
-1.39443
-1.56955
-1.66105
-1.73119
-1.72741
-1.52513
-1.52934
-1.29357
-1.06442
-0.64272
-0.321645
0.138154
0.591504
1.1202
0.679797
0.394314
0.0846468
-0.322311
-0.556829
-0.774426
-0.981758
-1.08245
-1.18138
-1.1598
-1.14497
-1.13593
-1.00317
-0.97858
-0.71982
-0.441166
-0.239783
0.0798918
0.494275
0.755859
0.435934
0.233864
0.034325
-0.171097
-0.321432
-0.44359
-0.568525
-0.685198
-0.705515
-0.683859
-0.733399
-0.64669
-0.586831
-0.525301
-0.4076
-0.322691
-0.101632
0.156365
0.360102
0.453724
0.129743
0.0371104
0.049246
-0.0431324
-0.103566
-0.152571
-0.199004
-0.219912
-0.200347
-0.226604
-0.225711
-0.205796
-0.208005
-0.183918
-0.0913468
-0.0563151
-0.0796007
0.0331636
0.0442831
0.187389
2.76324
1.83818
0.666811
-0.396249
-1.21655
-1.91544
-2.4997
-2.94458
-3.19267
-3.24079
-3.25922
-3.17277
-2.90969
-2.39063
-1.82009
-0.983129
-0.10494
0.926861
2.10638
3.22601
2.56622
1.62732
0.760994
-0.130138
-0.89681
-1.52945
-2.02938
-2.40106
-2.6284
-2.67579
-2.60221
-2.55373
-2.26896
-1.8319
-1.37537
-0.746588
0.0540431
0.908622
1.97368
2.85627
2.25085
1.44134
0.71712
0.0167897
-0.68074
-1.22987
-1.63765
-1.91289
-2.11902
-2.1337
-2.10125
-2.03449
-1.83504
-1.5048
-1.09904
-0.55065
0.158658
0.960954
1.78503
2.44453
1.86438
1.28952
0.629756
0.0988492
-0.450253
-0.843926
-1.19593
-1.49769
-1.63913
-1.74022
-1.67874
-1.60111
-1.41098
-1.13261
-0.75507
-0.345493
0.126304
0.78663
1.51164
2.12174
1.48891
1.02382
0.525834
0.132607
-0.348234
-0.657481
-0.915
-1.07936
-1.23958
-1.24433
-1.28242
-1.21859
-0.966441
-0.934715
-0.563614
-0.250073
0.141769
0.693118
1.21907
1.59814
1.08662
0.787505
0.386271
0.0276766
-0.215685
-0.477583
-0.657255
-0.784366
-0.867394
-0.863091
-0.940584
-0.807998
-0.679807
-0.625565
-0.344338
-0.151235
0.0971154
0.482952
0.874294
1.13372
0.611122
0.499288
0.330312
0.0226977
-0.176093
-0.289976
-0.399468
-0.462263
-0.464948
-0.522267
-0.552212
-0.507208
-0.421806
-0.294356
-0.239674
-0.138791
0.0584911
0.327572
0.537222
0.701504
0.265133
0.217593
0.0952635
0.00749728
-0.0646544
-0.0681191
-0.061406
-0.175561
-0.162317
-0.154866
-0.113471
-0.150284
-0.126216
-0.110412
-0.0628112
0.0114577
0.0786871
0.122682
0.17656
0.252025
4.34163
3.29828
2.11681
1.0493
0.150049
-0.593565
-1.26765
-1.68706
-1.9599
-2.07508
-2.03789
-1.88162
-1.52999
-1.11469
-0.489233
0.30675
1.227
2.33303
3.60778
4.67599
3.87734
2.9952
1.98805
1.03095
0.384999
-0.365748
-0.86719
-1.27377
-1.53403
-1.62321
-1.63198
-1.45662
-1.11024
-0.778669
-0.247727
0.383335
1.23132
2.25131
3.23422
4.10026
3.41446
2.62711
1.74817
0.971691
0.350338
-0.262721
-0.612487
-0.990908
-1.10191
-1.24349
-1.21433
-1.09228
-0.849976
-0.54588
-0.115862
0.493445
1.13554
1.8991
2.81106
3.5613
2.76703
2.13016
1.58459
0.971776
0.314876
-0.122167
-0.455823
-0.691629
-0.90159
-0.947249
-0.943242
-0.830745
-0.656382
-0.37773
-0.0236716
0.453475
1.01915
1.66178
2.30338
2.99486
2.21945
1.77786
1.21599
0.729059
0.309977
-0.0281837
-0.309536
-0.52603
-0.644612
-0.669871
-0.737273
-0.683996
-0.457459
-0.249936
0.0556941
0.398591
0.802028
1.33184
1.82827
2.29141
1.57558
1.2767
0.883409
0.607156
0.234053
-0.0534153
-0.234071
-0.339402
-0.42698
-0.439727
-0.474257
-0.428496
-0.291073
-0.2165
0.0941167
0.317639
0.617949
0.96145
1.28984
1.61473
0.925153
0.786244
0.605937
0.318715
0.161565
0.0580502
-0.130559
-0.213331
-0.2642
-0.242273
-0.247881
-0.230571
-0.195126
-0.0856545
-0.00906917
0.14242
0.433369
0.458449
0.813711
1.02528
0.298376
0.296953
0.150923
0.156231
0.0545883
-0.0192664
-0.00746028
-0.0524414
-0.0449496
-0.0496255
-0.103446
-0.0788865
-0.0764456
0.0325854
0.032738
0.0383711
0.124929
0.213168
0.281781
0.291458
6.15194
5.07557
3.9357
2.73943
1.84271
1.07675
0.390095
-0.0697524
-0.38917
-0.514398
-0.477348
-0.34398
-0.0107127
0.518477
1.12951
1.94034
2.92012
4.05449
5.26762
6.34501
5.49661
4.57088
3.57575
2.54153
1.76688
1.05943
0.508593
0.171024
-0.240027
-0.272763
-0.280535
-0.163864
0.128358
0.556084
1.09949
1.77436
2.66715
3.64361
4.68824
5.64452
4.74339
3.93858
3.05208
2.22009
1.57588
1.05711
0.536633
0.15912
-0.049135
-0.104582
-0.169333
-0.0568388
0.277901
0.559767
1.03383
1.61667
2.38336
3.15346
4.05988
4.81047
3.93503
3.22908
2.5614
1.96081
1.40249
0.908462
0.523357
0.21509
0.147536
0.0093354
-0.00395999
0.104037
0.363134
0.526658
0.970284
1.40643
1.9953
2.6699
3.33563
3.95984
3.09436
2.57118
2.04396
1.52277
1.13114
0.789166
0.443947
0.248317
0.107895
0.0348773
0.0121967
0.151535
0.251
0.47968
0.768302
1.08467
1.55714
2.0729
2.64333
3.16223
2.17103
1.93363
1.49498
1.14981
0.817693
0.587751
0.315891
0.259443
0.0955619
0.0418188
0.125073
0.125197
0.219835
0.344517
0.589376
0.811068
1.18297
1.54418
1.91181
2.19518
1.40618
1.09743
0.885993
0.704214
0.508908
0.385441
0.199827
0.195071
0.00884708
0.0852137
0.0314088
0.0116893
0.133937
0.231657
0.320079
0.451699
0.748724
0.850943
1.16066
1.38809
0.438148
0.385204
0.317648
0.243799
0.158773
0.0388516
0.141914
0.0648677
-0.0163148
0.0413385
-0.0598205
0.050134
0.0928892
-0.00440857
0.109035
0.0965456
0.231741
0.348334
0.376764
0.457867
8.39264
7.1741
5.91852
4.75666
3.79742
2.96509
2.27585
1.82035
1.51131
1.35611
1.33632
1.51718
1.82421
2.37827
3.0639
3.84179
4.84
5.9935
7.33444
8.40281
7.41266
6.44764
5.3154
4.25146
3.44027
2.7581
2.17925
1.74134
1.51382
1.30837
1.34646
1.45793
1.71765
2.18375
2.79627
3.47699
4.24733
5.34523
6.49943
7.3945
6.26896
5.51137
4.5866
3.8087
3.06987
2.38798
1.94882
1.55012
1.34216
1.2467
1.20085
1.30001
1.5438
1.97607
2.43749
3.03348
3.77946
4.62354
5.45309
6.3345
5.21526
4.53339
3.79296
3.20258
2.51589
2.07167
1.65991
1.35922
1.10627
1.05741
1.06009
1.18056
1.38538
1.70243
2.00395
2.56179
3.16353
3.83278
4.55439
5.13895
4.03149
3.56013
3.02504
2.54552
1.99792
1.60957
1.32701
1.08691
0.992979
0.897056
0.899407
1.01668
1.14498
1.28734
1.62221
2.03666
2.47596
3.00549
3.5338
4.05219
2.95099
2.55904
2.1738
1.76128
1.43882
1.14569
0.951145
0.854904
0.713169
0.608948
0.682111
0.679368
0.816645
0.9862
1.31922
1.49768
1.80436
2.13191
2.5404
2.81488
1.68367
1.57663
1.31559
1.08434
0.888371
0.771361
0.646344
0.468468
0.379181
0.446828
0.375371
0.44952
0.501199
0.570619
0.70896
0.869106
1.11316
1.28218
1.51144
1.78021
0.551988
0.580783
0.375537
0.371012
0.305845
0.251452
0.216384
0.125269
0.144512
0.0939298
0.147916
0.181858
0.144557
0.130973
0.294077
0.290842
0.327959
0.436969
0.479907
0.601549
10.7422
9.55381
8.2795
7.09997
6.06329
5.1677
4.51844
4.06007
3.66037
3.46471
3.48306
3.63072
4.01328
4.45392
5.21012
6.07448
7.06808
8.25143
9.47307
10.6841
9.35168
8.38176
7.23274
6.19589
5.39423
4.64047
4.02585
3.58076
3.32365
3.15525
3.0946
3.27589
3.58148
4.02825
4.60627
5.36297
6.17989
7.24711
8.32071
9.35875
8.05655
7.14096
6.30708
5.36684
4.68402
4.06691
3.53907
3.08008
2.92404
2.71372
2.79108
2.87448
3.11103
3.50728
3.96927
4.67875
5.40695
6.25769
7.11128
7.97708
6.5707
5.948
5.13154
4.45739
3.83923
3.38921
2.90782
2.65117
2.41703
2.37959
2.25534
2.4145
2.65806
2.94101
3.33302
3.84865
4.52144
5.14007
5.92346
6.51674
5.20609
4.65531
4.02665
3.53088
3.04341
2.64655
2.31487
2.14856
1.93866
1.91732
1.90531
1.95371
2.15917
2.31598
2.61317
3.04976
3.49027
4.00782
4.52097
5.0964
3.69198
3.36946
2.9599
2.51747
2.22405
1.83743
1.6757
1.57601
1.41502
1.38773
1.38708
1.41232
1.49111
1.63677
1.87427
2.19196
2.46649
2.84363
3.28971
3.64519
2.16798
2.00493
1.78259
1.50498
1.30466
1.11887
1.00602
0.888057
0.85503
0.825466
0.787211
0.891279
0.901207
0.984924
1.16776
1.32483
1.55867
1.70888
1.95457
2.21452
0.69314
0.62091
0.614081
0.516127
0.441856
0.407261
0.317324
0.254418
0.305519
0.291759
0.294378
0.240418
0.33065
0.35769
0.382827
0.4402
0.557402
0.637297
0.66697
0.746407
13.3297
12.0763
10.7683
9.49366
8.4371
7.56645
6.86741
6.39245
6.0277
5.81212
5.8312
5.97794
6.28682
6.89608
7.46116
8.44248
9.47985
10.6841
11.9508
13.1473
11.5385
10.5502
9.48717
8.4229
7.5064
6.70798
6.05216
5.67797
5.35083
5.16104
5.17271
5.3037
5.5519
6.15427
6.6415
7.38857
8.31395
9.32601
10.4715
11.5379
9.89174
8.98323
8.00252
7.19789
6.43532
5.77676
5.26535
4.84155
4.57705
4.53412
4.44046
4.584
4.83144
5.23804
5.6976
6.31131
7.15359
7.93647
8.88447
9.69409
8.03696
7.35474
6.66604
5.95076
5.28821
4.79784
4.28832
4.02949
3.86662
3.74888
3.74826
3.87047
4.01555
4.32201
4.71269
5.26878
5.89056
6.53555
7.29458
7.97741
6.31168
5.75201
5.16663
4.70397
4.14158
3.72865
3.36613
3.09082
2.99733
2.91429
2.87415
2.99037
3.12453
3.43663
3.74772
4.10526
4.53324
5.18589
5.69043
6.16201
4.57858
4.07869
3.7001
3.37271
2.95703
2.67967
2.38938
2.20825
2.20487
2.06329
2.07154
2.0985
2.20541
2.38248
2.60471
2.93762
3.2175
3.68246
4.10198
4.41854
2.6902
2.42533
2.16863
1.96261
1.83494
1.60444
1.51764
1.26716
1.33213
1.29831
1.28858
1.29758
1.34853
1.48212
1.62873
1.78783
1.97257
2.12084
2.46137
2.64692
0.903052
0.838453
0.740584
0.670904
0.600212
0.563506
0.51765
0.480451
0.413121
0.47844
0.392367
0.420669
0.429262
0.489153
0.545652
0.555438
0.647036
0.775417
0.858247
0.924919
15.8609
14.6057
13.2329
12.0224
10.9973
10.0327
9.29676
8.7863
8.35748
8.21625
8.12025
8.35629
8.72772
9.28542
9.93366
10.838
11.8901
13.0764
14.3944
15.6117
13.7103
12.7479
11.552
10.5155
9.57457
8.74814
8.16422
7.73928
7.41291
7.18224
7.22318
7.36748
7.63909
8.06834
8.72304
9.40363
10.3338
11.4249
12.5484
13.5548
11.5671
10.7584
9.79117
8.96184
8.13585
7.54029
6.93274
6.55129
6.2794
6.12215
6.09575
6.25314
6.47332
6.92534
7.4432
8.07703
8.78251
9.69109
10.6775
11.4366
9.51792
8.85017
8.02366
7.35996
6.76347
6.10176
5.74683
5.34013
5.17947
5.05452
5.03676
5.10419
5.28518
5.64011
6.1314
6.61432
7.17847
7.99159
8.69629
9.44052
7.45044
6.91656
6.24139
5.7068
5.18487
4.80067
4.44935
4.22859
4.06199
4.02799
3.95785
3.97157
4.14863
4.34146
4.77541
5.17825
5.53586
6.15317
6.82707
7.22546
5.28212
4.90201
4.47102
4.07315
3.80941
3.41211
3.1831
3.00698
2.8893
2.87608
2.77239
2.88566
3.03421
3.18634
3.36167
3.65331
4.02689
4.37723
4.81532
5.18804
3.18154
2.94049
2.67556
2.44199
2.24963
2.01507
1.85906
1.83284
1.68849
1.66424
1.67074
1.82173
1.77309
1.88338
2.02559
2.18891
2.42157
2.66764
2.91305
3.08581
1.01635
0.997669
0.888863
0.78055
0.744519
0.694796
0.635708
0.561163
0.552588
0.545399
0.4912
0.560767
0.562357
0.609924
0.678484
0.758549
0.817209
0.917071
0.94813
1.00884
17.9279
16.6545
15.2925
14.0129
12.9696
12.0254
11.2829
10.6908
10.3392
10.099
10.1029
10.2623
10.5948
11.2235
11.9359
12.8852
13.8621
15.1013
16.4761
17.6236
15.4189
14.354
13.1925
12.111
11.1618
10.3809
9.76248
9.30575
8.9577
8.80244
8.76378
8.8932
9.22317
9.70132
10.3236
11.0199
11.9857
13.0218
14.1803
15.1948
12.9599
12.1081
11.1501
10.2345
9.49374
8.75411
8.23389
7.82567
7.61696
7.425
7.33768
7.55657
7.80145
8.13497
8.63235
9.33123
10.0969
10.9751
11.9168
12.7779
10.5908
9.87916
9.10823
8.34744
7.68544
7.17112
6.70246
6.39509
6.20273
6.11557
6.0771
6.14928
6.33977
6.62408
7.13799
7.58301
8.18642
8.9759
9.75202
10.4055
8.20821
7.65441
7.04411
6.51845
5.96061
5.48172
5.26472
5.0233
4.75528
4.72008
4.65662
4.7249
4.88222
5.09524
5.53011
5.91191
6.34921
6.99486
7.55228
8.10241
5.81956
5.50374
5.07951
4.56
4.25715
3.97677
3.77543
3.51521
3.44208
3.35951
3.31357
3.49261
3.46659
3.69421
3.87386
4.2585
4.55637
4.99798
5.36255
5.75939
3.53634
3.2411
3.03514
2.71901
2.51406
2.41359
2.20667
2.12398
2.05423
2.07141
2.02003
2.04541
2.13215
2.21825
2.32123
2.59429
2.74259
2.97932
3.21413
3.4291
1.17171
1.07656
0.993481
0.94456
0.854681
0.799846
0.732576
0.769686
0.670783
0.672461
0.619475
0.705532
0.712078
0.714403
0.814314
0.828139
0.957026
0.953928
1.01718
1.22101
)
;

boundaryField
{
    hotSide
    {
        type            calculated;
        value           nonuniform List<scalar> 
400
(
4.45505
3.58716
2.59159
1.79484
1.06303
0.526616
0.329653
0.320486
0.462504
0.937929
1.66233
2.73823
4.00897
5.63896
7.50502
9.80563
12.2193
14.875
17.4787
19.6223
3.96819
3.09657
2.02701
1.1183
0.33552
-0.137119
-0.523952
-0.612538
-0.347257
-0.0102237
0.767315
1.72273
3.08865
4.59999
6.43269
8.59082
11.0343
13.6247
16.2264
18.3516
3.38771
2.51732
1.41539
0.577364
-0.356271
-0.980365
-1.29936
-1.388
-1.29821
-0.901654
-0.25314
0.692711
1.92216
3.42303
5.29695
7.339
9.76344