/*--------------------------------*- C++ -*----------------------------------*\
| =========                 |                                                 |
| \\      /  F ield         | OpenFOAM: The Open Source CFD Toolbox           |
|  \\    /   O peration     | Version:  2212                                  |
|   \\  /    A nd           | Website:  www.openfoam.com                      |
|    \\/     M anipulation  |                                                 |
\*---------------------------------------------------------------------------*/
FoamFile
{
    version     2.0;
    format      ascii;
    arch        "LSB;label=32;scalar=64";
    class       volScalarField;
    location    "0";
    object      relativeErrorField;
}
// * * * * * * * * * * * * * * * * * * * * * * * * * * * * * * * * * * * * * //

dimensions      [0 0 0 1 0 0 0];

internalField   nonuniform List<scalar> 
3200
(
0.00303581
0.00253464
0.00695415
0.0158819
0.0055806
0.00325708
0.0117601
0.0138694
0.0100734
0.00261452
0.01016
0.0101967
0.00625131
0.00780744
0.00944209
0.0105288
0.0110777
0.00949877
0.00697243
0.00600793
0.00536151
0.00500314
0.00687386
0.00533806
0.00977816
0.00496632
0.0129608
0.0101719
0.00477991
0.0061721
0.00785447
0.00267383
0.00882534
0.00829699
0.00824262
0.0137352
0.00654258
0.0124873
0.00406301
0.00439218
0.00492483
0.00418114
0.00359173
0.000485067
0.00458024
0.00148489
0.00688922
0.00468781
0.00619886
0.00911309
0.00520851
0.00196365
0.0029414
0.00957759
0.00679471
0.00480361
0.0108446
0.00828628
0.00197662
0.00401323
0.00430397
0.00138099
0.00100049
0.00432913
0.00450224
0.01133
0.00241946
0.0108422
0.00618806
0.00666196
0.0128844
0.00058001
0.0040804
0.00507054
0.00664023
0.0113301
0.00811824
0.00106761
0.00267411
0.00180937
0.0015173
0.0116456
0.00327781
0.00964934
0.00385499
0.0081586
0.0088457
0.000931439
0.000593197
0.00382078
0.00639199
0.0116038
0.00710701
0.0139756
0.00387692
0.00359197
0.00623543
0.00889972
0.0046173
0.00596636
0.0045394
0.000285887
0.00120406
0.000363235
0.00765717
0.00485625
0.0101468
0.00518945
0.00195821
0.00736476
0.00989695
0.00842232
0.00148383
0.00620738
0.00188341
0.00618029
0.00226154
0.00708612
0.000747705
0.000806974
0.00258226
0.000352131
0.00159544
0.00360988
0.00382359
0.00362301
0.00178901
0.00163688
0.0032087
0.00292753
0.00224532
0.00111491
0.00159078
0.00255087
0.00627702
0.0115072
0.00121312
0.0106532
0.00016998
0.00645442
0.00590246
0.00497592
0.000571663
0.000237909
0.000631112
0.000967968
0.0131328
0.00227545
0.011582
0.00709986
0.00125222
0.0037401
0.00203703
0.00217065
0.00484364
0.00194964
0.000168942
0.00809016
0.00260808
0.0016068
0.00247225
0.000994153
0.0112892
0.0114363
0.00654794
0.00442557
0.0106546
0.00522583
0.00083176
0.00941352
0.0020138
0.00587298
0.00344141
0.00988409
0.0102239
0.00805452
0.00819497
0.000384576
0.0031165
0.00643031
0.00809633
0.000199083
0.00449831
0.000294888
0.0124001
0.00200222
0.00938155
0.000200546
0.00465716
0.00220992
0.000293879
0.00940586
0.000790777
0.0110658
0.00227101
0.0089715
0.00177212
0.00110224
0.000955199
0.00172361
0.00441483
0.00282076
0.00056413
0.00312887
0.0051604
0.00538617
0.00109133
0.00250818
0.00397015
0.00266829
0.00623799
0.000751112
0.0066774
0.00692716
0.00539314
0.00189731
0.00211602
0.00580937
0.00059142
0.00404924
0.0126088
0.00251739
0.00032115
0.000627677
0.012006
0.00428646
0.00396428
0.0150631
0.00953828
0.005485
0.00434295
0.0036635
0.0034315
0.00771158
0.00484021
0.00533865
0.00703295
0.000644029
0.00133733
0.00487042
0.00401241
0.0035555
3.15278e-05
0.00551345
0.0082106
0.00656242
0.0017606
0.00183509
0.00520818
0.0073981
0.00433294
0.00269549
0.00415981
0.00188194
0.000336301
0.0018613
0.00908901
0.00341279
0.00082397
0.0136057
0.000661406
0.00477078
0.00381716
0.00684218
0.000931731
0.0103375
0.00258983
0.000237661
0.0055504
0.006375
0.00029271
0.000808451
0.00719226
0.00598693
0.00798784
0.00321445
0.00308178
0.000725097
0.00157341
0.000922583
0.00158535
0.00019066
0.00393312
0.0058511
0.00153803
6.65188e-05
0.00826051
0.000863195
0.00427515
0.00624341
0.00293982
0.00366363
0.00298596
0.00180104
0.0115346
0.000898002
0.00891412
0.000280739
0.000440917
0.0108787
0.0021696
0.00152474
0.00347211
0.00169052
0.00202315
0.000555532
0.00591118
0.00147821
0.00655331
0.00166708
0.00406181
0.00299941
0.0104394
0.00215007
0.00325871
0.00129201
0.00130483
0.00281133
0.00234695
0.00163215
0.00351997
0.00157057
0.00328841
0.00538169
0.00837486
0.00216817
0.00635659
0.00437254
0.0058603
0.000519982
0.00217267
0.00305818
0.0065334
0.00662383
0.0102251
0.00857385
0.00454808
0.00209545
0.00520555
0.011516
0.00120988
0.0051898
0.00481015
0.00976609
0.0105962
0.0072231
0.00426773
0.0033466
0.00635994
0.00871649
0.00481951
0.00611901
0.00937431
0.0124616
0.000806495
0.0124498
0.00162627
0.00821817
0.00153005
0.00902782
0.00248827
0.00138964
0.00187993
0.00153893
0.0105064
0.00414237
0.0103167
0.000814337
0.00182443
0.0032773
0.00215832
0.00593415
0.000989411
0.00626489
0.00683842
0.00113054
0.00416692
0.00402597
0.000468131
0.00380509
0.0131776
0.00489425
0.00331412
0.000175899
0.00519371
0.0072842
0.00972018
0.00722497
0.0010187
0.00448839
0.00171297
0.00370636
0.000130601
0.00827754
0.00430696
0.00661609
0.00333931
0.000662438
0.000946087
0.00219937
0.00133959
0.00293677
0.00145947
0.00666027
0.000958844
0.00997612
0.00107847
0.0069755
0.00195869
0.000430806
0.00289948
0.00308694
0.000450245
0.00184919
0.00160964
0.00246669
0.00695009
0.00105488
0.00534074
0.00274355
0.00597792
0.00511601
0.00418859
0.00330157
0.00595339
0.00295926
0.00577383
0.00166711
0.00284662
0.000877554
0.0032426
0.00270292
0.000637058
0.000464751
0.0082428
0.00760294
0.00253506
0.0121738
0.00339808
0.00183485
0.0095281
0.00140222
0.00239496
0.00419521
0.00374504
0.000767684
0.000966205
0.00610105
0.00774694
0.00485615
0.00640274
5.69436e-05
0.000113811
0.000376553
0.00236312
0.00573014
0.00776371
0.00202289
0.00471171
0.00249521
0.000828718
0.00128619
6.20301e-05
0.000353579
0.00241394
0.0103567
0.0016966
0.00242592
0.00480571
0.0115016
0.0036588
0.00819697
0.00306071
0.00333744
0.00487627
0.00733026
0.00524487
0.00279826
0.00107339
0.000223758
0.00609401
0.00702492
0.00128693
0.0131762
0.000954325
0.00570262
0.00504143
0.00178927
0.00142816
0.000126871
0.00388577
0.00577597
0.00106645
0.00271232
0.00453672
0.00389584
0.00611355
0.00188415
0.00287446
0.00925075
0.00627508
0.00137944
3.08053e-05
0.000428941
0.00287237
0.0014208
0.00584915
0.00143457
0.00634493
0.00149333
0.0018642
0.000545677
0.000407151
0.000435933
0.000860412
0.00351694
0.00122926
0.00141959
4.00885e-05
0.00339128
0.010236
0.00158602
0.000808622
0.00223712
0.000731006
0.00845191
0.00430686
0.00219896
0.00241613
0.00107772
0.000792308
0.00353274
0.00282901
0.00557752
0.00956984
0.004447
0.00389456
0.0107622
0.00683042
0.00152981
0.0107902
0.0033475
0.00269979
8.51312e-05
0.00762803
0.000669211
0.00396503
0.0013538
0.00162052
4.40177e-05
0.00626582
0.00362998
0.000931478
0.00187993
0.00144281
0.0088769
0.00277655
0.00586929
0.00075671
0.00792401
6.47383e-05
0.000861716
0.00103293
0.00174667
0.00366274
0.00147516
0.0092783
0.00776667
0.00135353
0.00212663
0.004392
0.0062373
0.00147818
0.00644528
0.00332009
0.000578426
0.00201934
0.001325
0.000403866
0.00131638
0.00171661
0.006703
0.00152627
0.00277925
0.00066442
0.00707423
0.00431193
0.00321586
0.00254477
0.000635706
0.00376447
0.00174791
0.000160114
0.00262645
0.00773028
0.00805978
0.00297343
0.00378887
1.33527e-05
0.000710122
0.00793336
0.00592114
0.0014898
0.00544314
0.0028172
0.00184521
0.00432688
0.00105203
0.00284532
0.00157059
0.00135352
0.00169539
0.00212812
0.00248481
0.00207194
0.00288768
0.00197892
0.002819
0.00277811
0.0122829
0.00146983
0.00217148
0.00644661
0.00356266
0.00326424
0.00391057
0.000804907
0.00248151
0.00173545
0.00491759
0.00768252
0.00575586
0.000365289
0.00259688
0.00165369
0.0025334
0.00210874
0.00221941
0.00125168
0.00388821
0.00701468
0.00962497
0.00402712
0.00352836
0.00119106
0.000925839
0.00486603
0.0033143
0.00178566
0.00216252
0.00408273
0.00306653
0.00121798
0.00827295
0.00107613
0.00218269
0.00531582
0.000214824
0.0046932
0.00578727
0.00561028
0.000636206
0.00276665
0.00249457
0.00182053
0.00262676
0.00292189
0.00601361
0.000158727
0.00284586
0.00434832
0.000515809
0.00153316
0.00378259
0.00408457
0.00258817
0.00695297
0.00455262
0.00138099
0.00956457
0.00173306
0.00573092
0.00272009
0.00196953
0.00692103
0.00154664
0.00621572
0.00304455
0.00243003
0.00487263
0.00056585
0.00272376
0.00181374
0.00549205
0.000314225
0.00150267
0.00842551
0.00227949
0.00753955
0.00369775
0.00294419
0.00533129
0.00399191
0.00290863
0.000276862
0.00180608
0.0107391
0.0056693
0.00155725
0.000409672
0.00181413
0.00069013
7.03038e-06
0.00487812
0.000113232
0.00308374
0.00241377
0.00302023
0.00796215
0.000977163
0.00238111
0.00310221
0.000339495
0.000686579
0.00417126
0.00134499
0.00608419
0.00129058
0.0102877
0.00899109
0.00670578
0.00444697
0.00358371
0.00416316
0.00431088
0.00523314
2.74843e-05
0.00526464
0.00500215
0.00107765
0.00123451
0.00266392
0.00265879
0.00213507
0.0028438
0.0023835
0.00484808
0.00375922
0.00284461
0.0011541
0.000277012
0.00320454
0.00927354
0.00367223
0.00734003
0.00274404
0.00830831
0.00384115
4.12215e-05
0.00022868
0.00556961
0.00717235
0.00959015
0.00558749
0.0032613
0.00296176
0.000695825
0.00793886
0.00165158
0.00066195
0.00175799
0.00628915
0.00205761
0.00462694
0.00126181
0.00843107
0.000649536
0.00189421
0.00556788
0.00256144
0.000808658
0.00393467
0.00459213
0.0044658
0.00332903
0.00265889
0.00606665
0.00499118
0.00709479
0.00363225
0.00594709
0.00465775
0.00159844
0.00354191
8.15026e-05
0.00365916
0.0024783
0.00209744
0.0031541
0.0039702
0.0091776
0.000773706
0.00123967
0.00348423
0.000131498
0.000536523
0.00149794
0.000873015
0.00252282
0.0017428
0.00450098
8.19276e-06
0.00208646
0.00355341
0.000198922
0.0040791
9.33308e-06
0.00413994
0.00326336
0.00774374
0.00749298
0.001365
0.00940139
0.000772305
0.00531641
0.00179184
0.00113066
0.000283704
0.000509566
0.000734754
0.00233554
0.00348558
0.000364882
0.00134591
0.000186149
0.00247193
0.00117735
0.00577965
0.00192564
0.00711199
0.00412906
0.000871867
0.00258716
6.75738e-05
0.00134869
0.00500312
0.00288177
0.00163964
0.00499626
0.00212238
0.000140208
0.000563909
0.000891087
0.00329439
0.00286534
0.0077836
0.0035689
0.00153517
0.0015408
0.00376076
0.00429451
0.00532519
0.00821701
0.00466314
0.00188782
0.00139106
0.00466951
0.00090903
0.00257287
0.00419561
0.00175875
0.00225465
0.00298384
0.00289836
0.00484881
0.000386119
0.00501358
0.00720552
0.00500965
0.00140593
0.00989915
0.00382287
0.00357775
0.00322
0.00709982
0.00432436
0.00843314
0.00424333
0.00173342
0.00300068
0.00154292
0.00107729
0.00269337
0.00392458
2.71735e-05
0.00660151
0.00135001
6.74274e-05
0.00226861
0.00329695
0.010213
0.00271555
0.00656266
0.00321615
0.000390873
0.00807196
0.000718496
0.00648311
0.00254785
0.00273754
0.00189867
0.00209973
0.00239601
0.00603342
0.00338107
0.000114531
0.0015284
0.00179526
0.00145274
0.000285363
0.000142167
0.00390862
0.00647692
0.00421485
0.00611543
0.00341561
0.00192731
0.00516966
0.00152484
0.00348237
0.00836117
0.00682897
0.00506962
0.00510134
0.00424328
0.00239669
0.00206752
0.00391009
0.00179726
0.00204719
0.00268558
0.00358274
0.00216306
0.00660424
0.000370116
0.00210176
0.000937705
0.00256728
0.00260443
0.00335206
0.00481071
0.000475913
0.0062448
0.00161561
0.00601626
0.00599507
0.00868969
0.00903482
0.0039697
0.00508218
0.0121595
0.012486
0.00109287
0.00313617
0.00274571
0.00241815
0.00254376
0.00072806
0.00418663
0.00043347
0.0139333
0.000624456
0.00475594
0.000248681
0.00188127
0.00395285
0.000456927
0.00326537
0.00589817
0.0114509
0.00596648
0.00291552
0.00372127
0.00240881
0.00372857
0.00391079
0.00379746
0.00674745
0.00154196
0.0059077
0.00385968
0.000392043
0.00220658
0.00693527
0.00165968
0.00345329
0.00562116
0.00519253
0.00302064
0.00868913
0.0127728
0.000336867
0.00492425
0.0105982
0.00145614
0.00262956
0.00288793
0.00143383
0.0140343
0.00172141
0.00542924
0.00797675
0.00474477
0.00683485
9.90712e-06
0.00122064
0.00461126
0.00500557
0.00683642
0.00742543
0.00612822
0.00289995
0.000235312
0.000931645
0.00709896
0.00488041
0.000845139
0.00561649
0.00419737
0.00094666
0.00287698
0.00233055
0.00464297
0.00527317
0.00102396
0.00721352
0.00319855
0.00541014
0.00362363
0.00371403
0.00680513
0.00440448
0.00270577
0.000145874
0.00545407
0.00168455
0.000360583
0.00486837
0.000908893
0.00455988
0.00205492
0.0037676
0.00966069
0.00423816
0.000234833
0.00175315
0.000880815
0.0034344
0.00433416
0.00290355
0.000605481
0.00500881
0.00256504
0.00727412
0.00375966
0.0034161
0.00562152
0.00156609
0.00144173
0.00780967
0.00271392
0.00642206
0.000700332
0.0016249
0.00183118
0.00552517
0.00476781
0.00326503
0.00530281
0.000357885
0.0013554
0.0059536
0.00922265
0.00274363
0.00553904
0.00198218
0.000501299
0.000633789
0.00415076
0.00400749
0.00406878
0.00251223
0.00148897
0.00458943
0.00353406
0.0046409
0.000709325
0.00141707
0.00409559
0.0113054
0.00523547
0.00532773
0.00525887
0.0014881
0.00424391
0.00308776
0.00966361
0.00140738
0.0029948
0.00277956
0.00199094
0.00557993
0.00148523
0.000202977
0.00133685
0.00203713
0.0015194
0.00286882
0.00366206
0.0049892
0.0170756
0.00639102
0.00400972
0.00491396
0.000680766
0.00490105
0.00111564
0.00212663
0.00543332
0.00712448
0.00172856
0.00251505
0.00405499
0.00561684
0.00169088
0.00869339
0.00410809
0.0034673
0.00259514
0.0136359
0.00999445
0.00287547
0.00567448
0.000852743
0.00280972
0.000771105
0.0021398
0.000982604
0.00229751
0.000415703
0.00119226
0.00402145
0.000400308
0.00130871
0.000699577
0.00779018
0.00119309
0.000334889
0.000975213
0.00806126
0.00756764
0.010094
0.000597207
0.00651252
0.000571719
0.00426145
0.00303723
0.00308615
0.00845566
0.0126796
0.00474291
0.000796931
0.00505316
0.012533
0.00357995
0.00256259
0.00151715
0.000567184
0.00655103
0.00266725
0.00918763
0.00342176
0.00692268
0.000725568
0.00672501
0.00166314
0.00458412
0.00161229
0.00516827
0.00132895
0.00282094
0.00384533
0.0064814
0.000904071
0.00099165
0.00205783
0.0063798
0.00338242
0.0118202
0.000826801
0.0104587
0.00167374
0.0103361
0.0102663
0.00343426
0.000268335
0.00216127
0.00346411
0.00790085
0.00637598
0.00634377
0.002474
0.00130225
0.00860883
0.00133984
0.00383843
0.00570807
0.00500441
0.00347404
0.00703551
0.00868952
0.000633696
0.00368415
0.00316471
0.00484443
3.92638e-05
0.00480164
0.00124509
0.00351479
0.00324101
0.00527403
0.00486651
0.0030708
0.00441117
0.00496961
0.00522273
0.0106527
0.000835598
0.00254354
0.00390336
0.000632392
0.00192232
0.0028109
0.00345113
0.00141014
0.000850338
0.0076741
0.003702
0.00189347
0.00532205
0.00492055
0.00551526
0.0038104
0.00133469
0.00563431
0.00329308
0.000831924
0.010735
0.000191586
0.000514573
0.00692933
0.00777437
0.00151499
0.00026071
0.000986688
0.00664802
0.00686732
0.00221676
0.00303201
0.00175943
0.000826738
0.000547282
0.00411946
0.000535014
9.85285e-05
0.000490042
0.00595438
0.00483212
0.00225077
0.000960843
0.00713651
0.00652617
0.00908626
0.00358184
0.00465342
0.00581434
0.00429701
0.00600339
0.00576192
0.00504118
0.0113186
0.00874337
0.000946498
0.00763606
0.00403218
0.00394498
0.00310932
0.00699917
0.00712333
0.0131459
0.0140354
0.00423856
0.00296025
0.000441952
0.00239298
0.00413169
0.000868191
0.00308575
0.00800702
0.00206871
0.00601978
0.0125327
0.0053427
0.00301954
0.00159794
0.00160121
0.00783063
0.00395199
0.0143045
0.0121641
0.00409443
0.00615768
0.00175782
0.00037974
0.00585477
0.00682591
0.00589958
0.00569386
0.00545006
0.00215127
0.00647474
0.00162002
0.00512195
0.00290059
0.00132221
0.00566393
0.00682111
0.00615011
0.00123871
0.0046726
0.00649798
0.00507456
0.00395173
0.0100625
0.00435226
0.00332315
0.00484921
0.00662132
0.00231602
0.00183938
0.00435391
0.00922235
0.00170598
0.00662928
0.00972096
0.00331667
0.00202783
0.00466847
1.85112e-05
0.00519961
0.0111219
0.00745193
0.00272422
0.000628292
0.00347876
0.00186257
0.000121147
0.0105986
0.00196479
0.00233399
0.00404559
0.00355732
0.00723321
0.00773611
0.00774095
0.00100763
0.00693253
0.00688053
0.00213866
0.00980444
0.00765245
0.00554674
0.00149662
0.00579756
0.0040974
0.00204675
0.00147839
0.00855547
0.000215731
8.29212e-06
0.00519905
0.010119
0.00470954
0.00474979
0.009767
0.00366191
0.00249929
0.00738198
0.000394852
0.00195047
0.00312855
0.00379509
0.00124812
0.00550889
2.67108e-05
0.00256211
0.000719362
0.00361033
0.000853837
0.00260738
0.00710932
0.00261883
0.000251402
0.00775586
0.000930908
0.00631336
0.004568
0.000490693
0.00273592
0.00111392
0.000960183
0.000485027
0.00351547
0.00436432
0.00323508
0.00740871
0.000898646
0.0025761
0.00870165
0.00042548
0.00155407
0.0026253
0.00948609
0.00216239
0.000854516
0.00548163
0.00627574
0.000272673
0.000401191
0.00453656
0.0194544
0.0164223
0.0106677
0.000515899
0.000771379
0.00527689
0.00273669
0.00495991
0.00822454
0.00644849
0.00105388
0.00859794
0.0127197
0.00855043
0.000277653
0.007544
0.00586987
0.00738489
0.0148137
0.0166959
0.0155095
0.00137875
9.21779e-05
0.00037142
0.00592006
0.00150708
0.00710155
0.000202501
0.00367204
0.00159347
0.000739154
0.00909099
0.000779678
0.000897083
0.000393956
0.00590724
0.000625897
0.00662241
0.000120942
0.0112933
0.0140542
0.00667442
0.0090006
0.0018187
0.000767499
0.000171006
0.000892469
0.00153081
0.00857507
0.00411025
0.00312234
0.000882833
0.00949597
0.00783904
0.00632571
0.00379728
0.00445213
0.00424692
0.00454648
0.00806447
0.0132053
0.00124011
0.00431258
0.00538044
0.000807249
0.00112083
0.00110851
0.00303741
0.00238049
0.00126536
0.000246685
0.00138317
0.00349561
0.0041849
0.00788057
0.00123535
0.00643873
0.000444708
0.00312437
0.0103207
0.0119254
0.00658592
0.00130165
0.0119721
0.000522056
0.000982835
0.00496963
0.00641431
0.000154116
0.000816498
0.0089224
0.00450972
0.00172538
0.00215253
0.00869812
0.0078089
0.00412682
0.00431414
0.00721938
0.00780042
0.00522586
0.00327404
0.00363254
0.00550067
0.00336861
0.000667634
0.00807274
0.00891312
0.00307085
0.00645685
0.00696874
0.000499443
0.00246773
0.00044969
0.00507729
0.00583653
0.00208299
0.000719059
0.00865603
0.00836539
0.0037815
0.00238478
0.00144427
0.00112385
0.00380985
0.000609056
0.00450125
0.00728363
0.000890439
0.00520723
0.00239691
0.00177374
0.00115054
0.000246096
0.00364249
0.000749046
2.2592e-05
0.000845004
0.0062549
0.00736511
0.00587957
0.000101557
0.00363471
0.00271546
0.000224416
0.00203918
0.00373506
0.00136605
0.00514654
0.00071806
0.00462844
0.00181608
0.00555511
0.00235551
0.00306413
0.00559522
0.00213929
0.00167283
0.00899012
0.00334911
0.0168187
0.0113017
0.00750703
0.00404889
0.00386499
0.00150141
0.00279047
0.000225633
0.00400228
0.00762308
0.0128293
0.00650971
0.0107744
0.00217396
0.00742628
0.00245968
0.00833417
0.0105575
0.00113846
0.022493
0.00588215
0.00276428
0.00620518
0.00205434
0.000915997
0.000215894
0.00816081
0.000269875
0.0107299
0.000468553
0.00101189
0.00817374
0.00034754
0.0074364
0.0009921
0.000354494
0.00095558
0.00972202
0.00171083
0.0168367
0.0148303
0.0105581
0.00512097
0.00192818
3.27951e-05
0.0105174
0.00340244
0.00163703
0.0033794
0.00242592
0.00215033
0.00243609
0.00237297
0.00131469
0.00428629
6.12614e-05
0.00561295
0.0067225
0.0109589
0.0157488
0.00827666
0.00675287
0.00466192
0.00208534
0.00318388
0.000174486
0.00298162
0.00273195
0.0041262
0.00490786
3.8049e-05
0.00313493
0.000911681
0.00429843
0.0038935
0.00287117
0.00374239
0.0105943
0.0015776
0.0140703
0.00623233
0.00355934
0.00232722
0.00710854
0.000552772
0.00771179
0.00306817
0.00744298
0.00113106
0.00501344
0.000254732
0.000955583
0.00641916
0.000549842
0.00719488
0.000385553
0.00365564
0.000334032
0.00313625
0.0130236
0.000874909
0.00410717
0.00102913
0.00297105
0.000789668
0.00418359
0.0030618
0.00554636
0.00158516
0.00343805
0.0031987
0.00364451
0.00720003
0.000508299
0.00167763
0.00728457
0.0026551
0.00272544
0.00109815
0.00772664
0.00798539
0.00477803
0.00741537
0.00675463
0.00849247
0.0016538
0.00407897
8.60302e-05
0.000431222
0.00215134
0.00100997
0.00859962
0.00531499
0.0036229
0.00438113
0.0065731
0.0115312
0.00392906
0.00566975
0.000982695
0.00219177
3.17174e-05
0.00526637
0.00525738
0.00424801
0.00183741
0.00157049
0.00317714
0.0015168
0.00594273
0.00471267
0.00131393
0.005424
0.00211896
0.00124069
0.00132623
0.000262184
0.00270115
2.33127e-06
0.00643013
0.0116603
0.0128492
0.00510929
0.00897795
0.000195699
0.00494592
0.00198379
0.0057283
0.00303739
0.00119573
0.00785413
0.013524
0.00575625
0.0048644
0.0110689
0.00861914
0.0106013
0.0124081
0.0106666
0.00957045
0.0173753
0.0139931
0.00336255
0.0091156
0.00249394
2.08845e-05
0.00104501
0.00460078
0.00845911
0.00078522
0.00771333
0.00234097
0.00383789
0.0088688
0.00827621
0.00608575
0.00172863
0.00472555
0.00875837
0.00910032
0.0172083
0.00399604
0.00228274
0.0050413
0.0044028
0.00215821
0.00351835
0.00519773
0.00855601
0.00901968
0.00645584
0.00667474
0.00989341
0.0027464
0.00141253
0.00284514
0.0036452
0.00277832
0.00932565
0.0116777
0.00970227
0.00649726
1.96255e-05
0.00587403
0.00406756
0.000837288
0.000627039
0.00402345
0.00122952
0.00139483
0.00113235
0.0119439
0.00410114
0.0029598
0.00661027
0.000693149
0.0023335
0.0024982
0.0144954
0.0125142
0.00951078
0.0136836
0.00323808
0.00691021
0.00576986
0.00228424
0.00524933
0.00327335
0.00124056
0.000316285
0.00366104
0.000878813
0.00534677
0.0042079
0.00957238
0.00570158
0.0151433
0.0026463
0.01008
0.00418118
0.00697813
0.0113831
0.00273342
0.000695249
0.0012464
0.000508936
0.00789053
0.00315852
0.006187
0.00440258
0.00525095
0.00320446
0.00290157
0.00279614
0.00428047
0.00695581
0.000740843
0.0117628
0.000522554
0.00669895
0.00542403
0.00138143
0.00534571
0.0028599
0.0019975
0.00227296
0.00020221
0.00173397
0.000106782
0.000359788
0.00411293
0.00241
0.00597775
0.00576572
0.00413576
0.00287154
0.00593859
0.0109759
0.000186678
0.00373668
0.00804503
0.00344092
0.000959628
0.00583542
0.00544255
0.00214667
0.00012867
0.0069112
0.00295078
0.00325552
0.00743642
0.00526034
0.00519972
0.00543264
0.00044017
0.00119561
0.00141341
0.00721866
0.000126176
0.00433221
0.014273
0.0166338
0.0046672
0.00902958
0.0013071
0.00514072
0.00413868
0.00298433
0.00487553
0.0047531
0.00642638
0.0100498
0.0101449
0.00754249
0.00395641
0.00572086
0.00863735
0.00742649
0.00966517
0.0173759
0.0130055
0.000692956
0.00619952
0.000590505
0.00206567
0.000285101
0.00555887
0.000480533
0.00528093
0.000653314
0.00238631
0.00292558
0.00164434
0.0115982
0.000856386
0.00137594
0.00107695
0.0087533
0.000375608
0.0102398
0.0152085
0.00120633
0.00465708
0.000212597
0.00345502
0.0050932
0.0053968
0.0042575
0.00655568
0.00899204
0.00519264
0.00378578
0.00567348
0.00215615
0.00425766
0.00263677
0.00515856
0.00711441
0.00748592
0.00536749
0.00160772
0.00636318
0.00538827
0.00691
0.00324615
0.00411682
0.0102175
0.00207909
0.0054859
0.00454291
0.00280771
0.00309228
0.0010112
0.00222583
2.90729e-06
0.00679341
0.0063601
0.00792144
0.00624293
0.00764261
0.00493686
0.00772279
0.00401228
0.00273656
0.00163852
0.00391253
0.000460463
0.00345125
0.00231847
0.00124217
0.00201115
0.00848836
0.00088198
0.000576054
0.000633545
0.00517135
0.00064378
0.000199582
0.005808
0.00290497
0.000932207
0.00361793
0.00848116
0.000672759
0.0018178
0.00399383
0.00819561
0.00696176
0.00412179
0.00141601
0.00694115
0.00763907
0.00206026
0.00923059
0.00413724
0.00509568
0.000521651
0.00027679
0.00488404
0.00627041
0.00308772
0.00827601
0.0072269
0.00126784
0.00287853
0.00763608
0.00338993
0.00751559
0.0102519
0.00152498
0.00881543
0.00320152
0.000824175
0.0029642
0.00722893
0.0026226
0.000123176
0.00467819
0.00106815
0.00127072
0.00185067
0.000373117
0.0010538
0.00252833
0.00600021
0.00271876
0.000107216
0.00222368
0.00300132
5.85315e-06
0.00243155
0.00497714
0.00247178
0.000462984
0.00775074
0.000739948
0.00240063
0.0019431
0.00367927
0.00705935
0.00648364
0.0100944
0.012107
0.00183811
0.000234763
0.00152104
0.00778676
0.00266871
0.00482015
0.00289754
8.2234e-06
0.00337201
0.00752098
0.00377272
0.00535923
0.000676129
0.00250923
0.00337666
0.017855
0.00430516
0.00798145
0.00147747
0.000704736
0.000883883
0.000157555
0.00449638
0.00212055
0.00179715
0.00157202
0.0075927
0.00572909
0.00227207
0.000619258
0.000515857
0.00115858
0.00452828
0.00193584
0.00419749
0.00146849
0.0076497
0.0107469
0.0123576
0.000328184
0.00388214
0.00236603
0.00133723
0.000749536
0.000114919
0.00560238
0.00236934
0.000514702
0.00800825
0.0066996
0.00673796
0.00389562
5.49831e-05
0.000166397
0.00152594
0.00764243
0.00894582
0.00777229
0.00566823
0.00381924
0.00602352
0.00568047
0.000860139
0.00225283
0.00280808
0.00272506
0.00200348
0.00477006
0.0071555
0.00165666
0.00161191
0.00049197
0.00944076
0.00667344
0.00106928
0.00751771
0.00990646
0.0060603
0.00488224
0.00495946
0.0018788
0.00602393
0.00705334
0.00123086
0.00612421
0.00104766
0.000592181
0.00410306
0.000150226
0.00692687
0.0043528
0.00276019
0.00140886
0.00209788
0.00124141
0.00302931
0.00930511
0.0130067
0.00668202
0.00186603
0.000316074
0.000501286
0.00093879
0.00151958
0.00347211
0.00913293
0.00375597
0.00777038
0.00315393
0.00284186
0.00292831
0.00678687
0.000859869
0.00167681
0.00646846
0.00751516
0.00554246
0.00448248
0.00450483
0.000896222
0.0013486
0.00632446
0.00298587
0.00246143
0.00716514
0.000115763
0.00359899
0.00306423
0.0071605
0.000134074
0.00392161
0.00188923
0.00572654
0.00188379
0.00368482
0.000685625
0.0061901
0.000994153
0.00626901
0.00355383
0.00274396
0.0058836
0.00388328
0.00498862
0.00196749
0.00330582
0.00404536
0.00454358
0.00220901
0.00150979
0.00371786
0.00586689
0.00183193
0.00364208
0.00713574
0.00637042
0.00738944
0.0112991
0.00707769
0.00468669
0.000780681
0.00354207
0.00487673
0.000951831
0.00185961
0.000945751
0.00344995
0.00188569
0.00105672
0.00613307
0.00367461
0.00136319
0.000511904
0.00342447
0.00592499
0.0123788
0.00731364
0.00697953
0.000361709
0.00977869
0.00185052
0.00317327
0.00024461
0.00362275
0.000454752
0.00101931
0.00145637
0.000403791
0.00170227
0.00142557
0.0020691
0.000316229
0.00480992
0.000108014
0.00923331
0.000762931
0.00711267
0.00596556
2.23322e-05
0.00895006
0.0106303
0.00195584
0.000992437
0.00114705
0.00517233
0.0070216
0.00773926
0.00617404
0.000196612
0.00357603
0.0105736
0.000479843
0.00559544
0.00349754
0.00323488
0.0053976
0.0126362
0.0112766
0.00302197
0.00154827
0.00303718
0.00259919
0.00588024
0.00809372
0.00430938
0.000173191
0.00150549
0.00154388
0.00332503
0.00825072
0.00146776
0.0103818
0.00163713
0.0025744
0.00578493
0.00880267
0.00440038
1.40012e-05
0.00612673
0.00448778
0.00608215
0.000868979
0.000627173
0.00164153
0.00252567
0.00199983
0.00437186
0.00324729
0.00205103
0.00299498
0.000417715
0.0010347
0.000938315
0.00196663
0.000630896
0.00495296
0.00247887
0.00508205
0.00206224
0.00204702
0.000710287
0.00369404
0.00777983
0.0060895
0.00292075
0.000316825
0.0062384
0.00395268
0.000811326
0.00391214
0.00761892
0.00109779
0.00175595
0.0009825
0.00376057
0.000417065
0.00864181
0.0033855
0.00295069
0.0091346
0.00204164
0.00202901
0.000503309
0.00159753
0.00734724
0.00359688
0.000811145
0.00783691
0.00117732
0.00468863
0.00596274
0.0074919
0.00534844
0.00110449
0.00494549
0.010531
6.91283e-05
0.00230974
0.00258321
0.0036195
7.55719e-05
0.00260158
0.00483903
0.00291999
0.000531297
0.0014569
0.011902
0.000617313
0.00514996
0.00215256
0.00739006
0.00231077
0.00518435
0.00632329
0.00545398
0.00586929
0.00250264
0.00602681
0.00763872
0.00130696
0.00404945
7.26079e-06
0.00888884
0.0018414
0.00110416
0.00467325
0.0021717
0.00589254
0.00392622
0.001029
0.000797153
0.00367198
0.00139453
0.00448091
0.00484512
0.0066635
0.00998524
0.00679348
0.0087426
0.00838014
0.000603641
0.00203874
0.000767739
0.002345
0.000375857
0.000579788
0.00608261
0.000540925
0.000645936
0.00562601
0.00400267
0.00123581
0.000170905
0.00150073
0.00323872
0.0119679
0.00914515
0.00742551
0.000594565
0.00349176
0.000577486
0.00303537
0.000118775
0.00216535
0.000199429
0.00124762
0.00130669
0.00274156
0.00473292
0.00194847
0.00196105
0.000647479
0.00622909
0.00306896
3.69455e-05
0.00368683
0.00719103
0.00535338
0.000949056
0.00625974
0.00495506
0.000145082
0.00354422
0.000748632
0.00316379
0.00151684
0.00413823
0.00772072
0.00314904
0.00230893
0.001785
0.000755837
0.00347898
0.00544008
0.00273005
0.0106002
0.0101451
0.00104107
0.00399001
0.00266144
0.00409763
0.00619514
0.0083573
0.00636663
0.00289032
0.00304151
0.000559779
0.000303146
0.00213602
0.00681668
0.00618883
0.00501885
0.00556109
0.00369375
0.0059163
0.00984602
0.00816708
0.00044539
0.00258252
0.00330051
0.00391494
0.000943068
0.00591464
0.00117355
0.00266271
0.00303876
0.00332023
0.00167516
0.000719386
0.00213665
0.0015593
0.00824617
0.00165978
0.00414055
0.00132862
0.00359803
0.000979801
0.00325283
0.000894982
0.0021867
0.00392109
0.00383676
0.000118117
0.00440294
0.00396575
0.00150953
0.00227928
0.00697261
0.000410787
0.0047917
0.0110232
0.00434117
0.00359287
0.000694337
0.00722716
0.00565608
0.00765303
0.00100817
0.00411512
0.000442053
0.00920448
0.00622134
0.00562552
0.00581223
0.00487098
0.00503345
0.00447328
0.00326956
0.00133874
0.00259139
0.00685075
0.000962512
0.00462175
0.00138616
0.00896887
0.00105589
0.00343161
0.0067941
0.00426676
0.00336075
0.00242224
0.00103486
0.000539518
0.0100467
0.00787984
0.00859436
0.0074703
0.00787275
0.000295135
0.0036473
0.0061992
0.00565297
0.00292299
0.0050686
0.00476463
6.56582e-06
0.0011668
0.000674807
0.000108899
0.000683044
0.00114858
0.00190824
0.000421919
0.00533464
0.001987
0.00515972
0.00178914
0.00129755
0.000991731
0.000602443
0.00276327
0.00031286
0.00362799
0.000250596
0.00324324
0.00136144
0.00151213
0.00156559
0.0056183
0.00250999
0.00161499
0.000166732
0.00156488
0.00117861
0.00595605
0.0104507
0.00399029
0.00246139
0.000169297
0.00313554
0.000133582
0.00066163
0.000921197
0.00110293
0.00341623
0.00303131
0.00622392
0.00530242
0.000252872
0.00184357
0.00199927
0.00721502
0.00311081
0.000882802
0.0037045
9.08504e-05
0.00595523
0.000133779
0.00307931
0.00448596
0.00722256
0.00138556
0.0023725
0.00320536
0.00234282
0.00166106
0.00432589
0.00670197
0.000490774
0.00585421
0.00181449
0.000963455
0.00186262