/*--------------------------------*- C++ -*----------------------------------*\
| =========                 |                                                 |
| \\      /  F ield         | OpenFOAM: The Open Source CFD Toolbox           |
|  \\    /   O peration     | Version:  2212                                  |
|   \\  /    A nd           | Website:  www.openfoam.com                      |
|    \\/     M anipulation  |                                                 |
\*---------------------------------------------------------------------------*/
FoamFile
{
    version     2.0;
    format      ascii;
    arch        "LSB;label=32;scalar=64";
    class       volScalarField;
    location    "0";
    object      stateMean;
}
// * * * * * * * * * * * * * * * * * * * * * * * * * * * * * * * * * * * * * //

dimensions      [0 0 0 1 0 0 0];

internalField   nonuniform List<scalar> 
3200
(
345.716
345.792
342.833
340.091
344.002
345.154
342.527
342.064
343.576
346.269
343.65
343.533
344.707
343.897
343.012
342.291
341.751
341.955
342.513
346.741
340.583
337.281
336.918
337.735
336.532
338.467
336.022
337.203
339.21
338.825
338.251
339.928
337.661
337.609
337.352
335.187
337.326
335.014
340.354
340.255
334.481
334.408
334.443
333.66
332.228
333.516
331.943
332.876
332.514
331.614
332.921
333.931
333.46
331.045
331.742
332.154
329.881
330.485
332.358
334.178
325.492
326.587
326.899
326.015
326.169
324.137
327.25
324.647
326.291
326.197
324.154
328.133
326.866
326.381
325.675
323.932
324.774
327.575
326.164
326.308
321.429
324.788
320.141
318.253
322.758
319.057
318.983
321.655
321.855
320.863
320.035
318.309
319.667
317.332
320.434
320.364
319.35
318.335
319.567
322.857
313.543
315.139
315.532
315.382
312.97
317.032
312.404
314.058
316.379
313.469
312.67
313.102
316.164
313.647
314.906
317.334
314.554
312.92
314.813
315.227
308.199
309.151
308.612
308.057
308.062
308.192
308.824
309.938
310.463
308.584
308.795
309.815
308.939
308.588
307.371
305.685
308.798
305.812
309.095
307.003
304.805
301.524
302.879
303.147
302.908
302.829
299.163
302.472
299.664
301.029
303.562
302.041
303.78
302.486
301.654
303.69
303.126
300.6
303.822
303.503
345.711
344.76
341.518
341.804
343.843
344.921
343.076
345.225
347.523
344.067
346.638
345.195
345.845
343.343
342.912
343.321
342.925
345.55
344.027
347.076
341.674
339.07
337.881
339.803
335.791
339.624
337.385
340.743
339.392
340.315
341.169
337.773
340.541
336.811
339.532
336.957
339.101
339.782
339.462
339.514
334.45
334.092
333.192
334.673
332.163
332.338
334.005
333.726
333.378
333.889
332.694
334.958
332.331
332.054
332.336
334.519
332.923
331.443
333.349
334.328
331.134
327.974
327.441
327.746
323.815
326.55
326.844
323.36
325.288
326.68
327.055
327.218
327.178
325.614
326.369
326
325.236
327.125
326.712
328.604
322.317
319.994
321.27
319.666
318.96
319.649
321.341
321.441
323.8
319.787
320.774
321.254
320.692
321.302
321.653
321.002
318.516
322.376
320.871
325.397
314.828
316.614
314.011
313.169
315.737
312.296
314.845
315.826
314.062
313.835
315.757
316.07
313.48
317.553
313.037
316.457
314.355
315.443
315.607
314.745
309.525
309.139
307.925
307.4
309.755
309.327
311.967
309.197
308.179
307.591
308.613
308.368
310.388
308.854
305.78
309.001
306.453
309.054
308.944
312.397
303.686
303.506
302.013
303.599
303.724
303.302
301.363
303.621
305.173
302.688
304.425
302.277
300.008
302.503
302.146
303.503
303.482
303.917
303.755
303.524
346.447
346.017
344.645
344.254
343.559
346.046
344.903
345.851
345.523
347.841
346.905
348.623
345.1
344.81
343.252
343.49
344.543
345.057
347.272
349.208
338.844
341.221
341.359
336.694
336.706
338.144
339.417
339.956
339.093
338.374
339.704
339.175
337.9
336.624
340.329
336.075
340.568
336.933
339.978
342.317
334.084
333.887
333.021
333.379
330.634
333.006
331.166
334.535
335.558
336.118
335.743
332.959
335.139
332.522
332.104
333.767
332.502
332.305
333.58
334.523
331.549
325.771
326.47
327.814
326.259
325.773
325.156
326.131
328.282
327.202
328.114
327.399
328.547
325.63
326.75
325.792
326.662
327.339
327.063
327.957
321.634
322.253
320.982
319.464
321.457
318.711
321.719
319.94
322.906
322.461
321.387
323.27
322.042
322.662
321.405
320.972
319.371
321.79
319.593
320.323
313.277
313.622
316.657
314.406
313.682
314.739
313.953
315.335
315.026
315.681
316.983
315.071
316.063
315.923
318.275
317.96
316.247
311.497
316.306
315.739
312.055
309.588
308.474
307.983
310.509
309.179
309.778
307.642
307.17
308.085
307.606
309.586
309.495
309.362
308.686
307.577
311.682
308.589
310.611
309.881
303.305
302.679
303.108
303.219
302.403
300.017
302.664
302.459
304.665
299.727
302.105
300.723
304.123
302.166
301.679
300.913
301.522
302.241
303.394
303.122
347.902
343.6
346.777
342.089
347.322
345.336
345.865
348.491
348.549
348.193
346.796
346.042
348.24
346.674
345.741
345.639
344.538
345.678
345.036
348.994
341.874
340.411
340.191
340.629
339.793
340.569
339.318
341.041
339.522
342.283
342.41
341.504
341.67
341.165
340.761
339.574
340.902
339.718
339.956
340.894
337.082
334.362
333.782
333.542
334.289
331.944
336.435
334.438
334.499
335.74
335.645
334.124
336.123
333.124
331.569
333.046
332.988
330.457
336.113
333.157
331.11
328.805
327.001
328.053
325.776
328.695
327.351
328.359
329.446
328.957
331.032
330.107
329.11
328.036
328.001
325.366
328.992
329.81
327.46
330.171
321.488
321.847
321.376
322.421
320.835
322.641
319.315
319.917
322.069
323.237
321.134
324.518
321.944
320.228
321.096
321.828
321.209
322.134
321.44
321.044
314.808
317.535
315.038
316.505
315.529
313.613
314.584
315.013
315.286
315.921
314.932
316.642
316.08
315.116
313.405
318.284
314.69
316.715
315.425
315.573
311.676
311.097
308.864
307.706
310.328
308.95
308.241
309.957
310.548
309.2
309.267
309.142
310.29
310.35
310.162
310.35
310.002
308.453
308.407
313.021
302.647
302.449
301.172
304.228
302.18
302.006
303.456
303.981
302.715
304.738
305.577
304.986
303.34
303.999
303.693
303.938
302.509
303.799
302.728
301.914
348.977
350.113
348.463
348.606
347.287
347.691
349.995
347.385
348.091
349.56
347.382
347.645
348.965
345.419
347.638
348.46
349.227
347.14
348.402
348.552
342.304
340.804
341.781
340.259
340.766
342.555
340.907
340.057
342.21
343.318
343.833
342.087
342.639
340.613
343.054
340.504
338.738
342.39
340.117
343.65
334.798
336.296
335.501
335.479
332.736
335.803
333.408
334.647
336.612
334.226
335.673
334.881
336.278
337.336
335.179
335.558
331.999
333.828
336.901
335.455
328.992
329.904
327.016
327.559
328.616
328.3
325.531
327.342
328.799
329.502
328.769
329.539
329.206
327.46
328.931
327.693
329.308
329.319
330.768
328.347
321.052
322.917
322.16
321.976
323.691
322.058
324.588
322.319
326.138
319.956
325.024
324.253
323.893
321.282
321.102
320.659
322.188
323.746
320.308
322.165
315.99
314.829
314.925
316.544
315.077
315.327
317.708
317.443
315.412
315.977
316.254
315.298
319.187
315.014
318.4
315.109
313.246
316.978
315.683
315.672
307.651
307.196
306.505
307.805
310.609
308.744
309.934
307.307
310.313
310.024
309.274
307.853
309.129
311.151
309.27
306.989
309.334
308.887
311.138
310.166
302.898
304.35
301.784
301.843
304.227
304.045
305.098
301.76
301.134
304.394
301.488
304.699
303.759
302.184
303.214
304.328
303.948
302.54
304.113
301.939
350.676
347.438
348.417
347.073
348.547
348.702
349.683
349.692
350.433
350.246
351.211
349.554
348.658
350.401
348.958
347.171
348.29
349.427
348.842
350.178
343.767
340.93
344.848
341.632
343.98
343.032
343.04
342.946
343.165
343.317
342.264
344.186
342.724
342.192
342.482
343.007
341.493
343.611
340.739
343.637
333.527
335.356
334.4
335.51
336.164
337.609
337.095
335.74
334.73
337.188
336.521
336.601
335.991
337.233
336.891
338.324
336.684
334.752
335.58
336.17
327.18
330.466
326.179
330.594
328.622
328.963
331.122
329.418
330.665
331.251
330.447
329.072
330.702
330.538
327.824
329.371
330.71
326.511
330.363
328.129
325.448
323.586
323.636
323.661
320.472
321.506
325.752
324.504
322.649
322.279
323.748
323.557
322.263
321.76
322.911
324.895
323.058
322.46
323.085
323.32
319.14
315.124
313.999
315.156
316.151
318.927
316.69
318.59
315.785
315.754
316.02
317.257
317.296
314.554
317.443
316.239
315.69
316.64
315.523
316.004
309.606
310.813
311.664
308.412
307.884
310.896
309.295
308.335
309.496
311.065
312.578
307.852
311.508
311.473
308.523
309.036
310.357
310.869
309.047
308.928
304.02
302.133
302.582
305.261
303.39
303.935
303.6
304.11
302.552
304.365
301.889
303.198
305.225
302.826
305.123
305.096
300.623
305.978
304.423
301.665
352.858
353.184
349.477
348.284
348.709
349.103
349.312
350.669
352.035
350.799
355.533
350.348
352.081
350.29
350.607
348.287
349.54
347.955
350.886
352.611
344.233
343.367
343.873
343.671
344.374
344.68
344.862
346.059
343.342
341.91
345.27
343.737
344.498
345.94
343.907
344.28
340.918
344.377
343.403
345.164
340.028
336.001
334.426
339.854
336.011
337.591
337.865
337.529
341.89
337.797
339.048
339.847
338.645
339.195
336.703
336.912
337.841
337.763
338.184
338.233
331.289
330.345
329.625
329.411
327.549
328.447
330.489
328.482
331.815
330.789
329.525
331.198
328.803
331.951
329.72
332.271
328.663
331.33
330.584
330.494
324.984
324.301
323.875
323.18
321.505
322.853
323.399
322.039
323.979
325.198
324.387
322.465
326.74
324.887
323.474
323.835
322.848
321.892
324.278
323.724
316.484
317.942
317.256
314.236
317.825
317.81
318.593
316.386
317.39
314.484
316.099
318.968
316.66
316.297
317.308
314.886
315.03
315.411
318.035
316.405
310.21
311.673
312.738
309.087
311.712
309.436
309.946
310.34
311.461
308.947
311.452
309.395
309.681
311.524
308.955
311.434
309.717
310.319
308.559
313.292
301.694
304.911
301.717
303.783
304.638
304.307
306.319
303.828
304.32
302.573
304.02
305.104
303.852
303.449
303.776
303.969
302.871
302.442
302.184
301.769
355.917
352.38
351.798
348.939
351.172
352.915
351.039
352.375
353.679
354.349
352.45
352.653
353.053
349.457
350.6
353.984
352.103
351.608
351.051
354.714
346.769
344.495
345.674
344.25
345.159
344.684
345.359
345.131
345.706
345.121
345.389
346.301
344.654
344.171
344.177
346.873
343.547
343.839
343.842
346.106
339.259
340.252
337.236
339.427
337.237
339.06
338.82
338.98
340.898
342.381
339.698
338.309
339.645
342.028
336.412
336.565
336.719
337.226
339.059
337.609
333.099
331.309
332.615
330.729
332.875
331.358
332.466
330.532
332.861
331.635
332.129
332.423
333.212
331.248
331.136
329.971
328.381
331.445
334.082
330.339
326.788
324.034
320.263
327.057
322.748
323.894
323.391
323.059
326.81
326.35
326.339
325.05
323.76
326.881
324.415
325.103
321.885
325.227
324.617
325.681
319.486
316.595
318.045
317.971
318.594
317.133
315.7
316.893
318.45
316.33
319.033
318.879
316.314
318.622
318.721
318.714
313.591
316.613
315.99
317.97
310.251
310.688
311.013
311.266
309.812
310.037
307.966
311.536
311.003
312.082
308.903
312.127
311.57
310.762
312.049
311.271
310.453
306.812
310.151
309.895
301.269
305.742
303.86
303.497
303.137
305.471
305.553
302.809
302.572
304.031
303.748
303.658
304.732
303.631
303.424
303.585
305.225
304.866
302.7
303.662
353.966
353.942
355.081
353.396
354.028
354.68
354.364
355.147
355.193
355.006
357.223
356.246
353.362
355.542
354.052
353.778
353.23
354.347
354.152
356.078
349.49
346.275
346.038
345.082
346.281
347.091
346.152
347.076
348.891
346.894
348.262
350.458
347.857
346.896
345.111
346.007
347.938
346.381
349.745
348.845
339.207
340.038
338.723
338.185
340.48
340.988
340.834
340.897
340.91
339.841
341.307
339.611
340.703
337.852
338.228
340.415
340.621
340.209
338.376
339.403
333.128
332.764
332.533
334.709
330.083
330.569
333.411
334.107
332.756
332.638
333.473
335.049
332.475
329.602
334.895
330.426
332.047
332.77
331.09
332.698
327.72
326.613
323.423
324.219
325.669
324.048
324.716
328.281
324.261
324.172
326.245
326.055
327.188
327.267
327.166
324.867
326.672
326.537
324.89
327.293
319.669
315.539
317.852
319.3
318.845
316.975
317.227
320.476
317.731
317.826
319.475
321.016
319.253
319.206
314.523
316.381
316.667
319.72
317.424
317.86
311.331
311.572
310.828
312.201
310.549
311.386
310.856
311.791
310.43
311.518
312.917
309.881
310.747
313.042
310.879
308.58
311.909
310.593
311.243
310.706
303.182
303.338
304.567
304.842
302.552
305.799
303.292
302.795
306.228
303.461
304.062
304.383
300.697
304.221
303.809
301.87
305.422
303.417
303.363
302.096
360.039
359.149
357.339
353.619
354.309
356.128
355.428
356.382
357.659
357.09
355.176
357.791
359.134
357.489
354.357
356.707
355.879
356.178
358.58
359.064
351.504
346.763
346.445
346.551
348.937
346.553
349.715
347.322
348.769
348.101
347.804
350.652
347.121
347.561
346.939
348.932
346.897
348.772
346.244
350.045
343.845
341.468
342.419
340.155
339.447
339.814
339.715
340.66
343.142
341.669
341.332
339.925
343.369
342.683
342.022
340.998
341.049
340.806
340.746
341.815
336.389
332.517
333.669
334.164
332.785
333.023
333.139
331.858
333.732
333.397
333.058
332.478
334.033
334.163
335.271
332.106
334.516
332.384
333.143
335.432
328.789
322.851
325.516
321.309
325.141
325.735
323.89
327.673
325.59
325.402
328.574
327.109
326.147
326.209
322.585
327.851
326.544
326.495
327.337
327.448
319.474
318.908
319.095
319.767
319.168
317.958
315.667
321.128
319.308
320.407
316.132
318.171
317.506
318.379
319.785
319.953
318.68
317.711
320.618
320.472
309.528
309.994
311.228
310.477
312.056
311.106
312.357
308.725
311.29
312.646
311.772
311.565
311.348
311.034
312.05
310.639
310.833
310.516
308.791
312.991
301.803
303.63
304.718
302.805
303.713
303.041
302.539
303.269
305.255
303.478
302.29
304.244
305.371
302.958
304.59
305.344
304.279
304.122
306.328
304.605
361.046
359.255
358.114
354.223
357.253
356.618
357.259
356.495
355.094
359.295
361.152
358.842
360.255
357.04
358.727
356.753
358.627
359.199
354.836
363.061
349.834
348.89
350.266
349.01
348.162
348.583
351.663
348.851
352.783
348.922
349.439
351.891
348.824
351.41
348.312
348.605
348.627
351.49
348.523
353.644
345.527
344.191
342.49
341.561
341.051
344.8
342.506
342.014
342.687
342.402
342.307
342.365
342.265
341.794
339.748
341.041
342.817
343.036
344.328
345.84
335.906
335.493
334.919
334.19
334.687
333.689
334.851
333.034
335.388
335.682
334.03
335.057
334.25
335.291
335.046
334.583
334.743
336.897
332.717
337.837
327.836
327.037
325.213
328.391
325.994
328.785
327.355
328.854
326.104
328.136
326.582
326.785
328.519
326.175
328.616
326.3
327.265
325.863
326.899
330.048
318.17
317.192
318.24
317.693
318.46
320.114
317.865
320.66
318.42
320.041
319.964
320.088
321.187
318.679
318.245
321.034
317.794
319.436
318.85
320.91
313.569
312.603
313.463
313.302
308.6
311.799
310.05
311.323
311.505
310.712
311.068
314.049
313.005
312.448
312.648
313.289
314.789
312.379
312.88
311.391
303.05
303.717
305.34
305.352
305.059
304.341
303.318
304.77
304.273
302.011
302.384
303.413
302.157
304.439
303.406
304.172
303.675
302.92
303.726
305.669
361.34
361.92
359.347
360.932
357.848
359.876
358.981
360.458
359.59
358.122
361.367
363.349
360.468
360.013
362.069
361.003
361.512
361.956
361.14
360.593
355.685
354.635
351.082
353.27
351.124
350.404
350.921
352.285
353.722
351.073
353.504
351.576
352.018
353.664
353.311
352.382
350.684
351.558
352.804
352.792
347.907
343.496
343.049
344.14
344.068
343.436
341.612
344.699
345.922
346.118
345.239
345.276
346.31
343.76
343.18
343.535
343.662
343.219
345.32
346.015
337.657
336.672
334.605
336.698
336.213
335.243
334.852
333.795
335.613
335.698
335.61
339.205
333.769
334.07
337.177
335.083
333.951
335.448
339.348
338.597
329.895
331.328
328.001
329.296
329.015
327.962
329.01
328.427
326.994
327.319
328.622
327.688
329.105
328.669
330.347
328.993
331.988
327.807
330.15
328.153
321.378
322.832
320.134
319.55
319.792
319.293
322.032
318.547
321.565
321.012
317.927
318.564
320.483
320.404
320.823
321.616
319.091
323.016
319.032
321.289
313.197
311.965
313.239
310.722
311.03
312.398
311.66
312.291
311.802
311.891
310.497
312.52
313.614
309.926
312.979
312.548
313.464
314.993
311.593
310.343
301.413
302.821
304.172
302.12
302.253
303.267
303.969
306.04
303.049
302.959
306.209
302.347
305.519
302.279
304.053
303.544
304.323
301.686
303.829
305.174
364.603
365.597
361.471
363.225
360.627
362.177
361.967
361.673
362.442
362.443
363.046
364.308
364.255
363.194
361.751
362.216
363.084
362.464
363.091
365.718
356.174
351.967
354.056
351.826
352.919
352.237
354.426
352.742
354.509
352.916
353.528
353.679
351.993
356.555
352.639
352.676
351.655
354.955
351.855
355.201
348.934
344.222
345.537
344.143
343.014
346.081
346.296
345.993
346.848
347.721
346.411
345.894
346.481
345.18
345.793
345.111
345.845
346.382
346.381
345.552
336.332
338.01
337.787
338.409
337.287
337.682
339.824
337.16
338.358
338.068
337.484
335.471
336.12
337.136
336.297
338.48
338.225
338.638
337.97
338.358
329.48
330.455
329.321
327.192
328.713
326.97
328.173
329.513
327.66
328.033
329.102
331.209
328.09
328.513
328.046
329.872
327.879
328.07
329.828
328.813
320.217
321.121
322.735
320.297
320.724
318.92
322.874
318.059
321.638
320.787
322.556
322.765
320.949
323.205
321.524
321.773
319.915
320.11
318.4
321.925
312.931
309.412
314.284
311.67
311.204
309.753
311.108
309.844
315.409
312.693
314.969
313.208
312.447
311.241
314.392
312.921
312.028
313.489
312.327
312.364
303.449
304.134
303.713
304.814
302.233
303.242
304.046
304.763
303.18
304.098
303.357
305.607
304.839
304.22
306.426
304.282
303.315
303.442
305.14
306.158
364.311
365.751
366.645
363.093
362.506
363.297
365.706
363.958
361.316
364.158
363.103
364.29
365.719
364.249
364.689
362.346
363.336
363.482
368.561
363.522
356.586
354.397
353.765
353.847
354.246
356.029
353.8
355.284
355.272
357.443
356.781
355.52
354.867
354.369
354.846
355.906
354.846
355.5
354.394
356.468
349.248
349.899
345.633
344.526
346.809
345.64
346.461
346.322
344.398
345.547
346.546
343.564
343.962
348.535
344.755
346.009
345.927
346.274
348.269
348.626
339.91
339.275
338.748
339.593
335.741
338.042
338.593
338.847
338.865
337.291
336.356
340.362
337.338
337.287
337.917
334.471
339.813
337.098
339.899
340.629
331.02
330.69
330.79
329.855
331.297
327.062
329.854
331.517
329.88
329.748
330.905
329.485
331.781
330.882
328.476
329.777
329.927
329.567
328.086
332.088
324.923
322.936
321.444
320.8
320.795
321.308
321.54
319.974
324.047
322.334
323.623
322.127
320.177
320.112
323.186
320.68
320.363
322.92
323.203
322.529
313.869
313.9
312.244
312.136
314.568
313.555
311.879
314.911
312.722
311.569
311.736
314.925
312.713
311.423
312.031
314.381
313.147
313.676
312.278
314.402
303.878
306.095
303.118
303.375
306.011
305.412
305.758
303.649
305.259
303.025
302.874
303.581
304.707
303.109
306.016
303.664
305.318
306.37
306.126
301.932
368.766
367.35
366.627
365.356
366.514
367.141
365.132
364.898
365.301
366.945
364.993
365.261
367.82
364.137
364.861
365.033
366.321
367.079
369.283
367.313
358.571
356.319
359.802
357.112
357.713
356.614
355.514
357.054
356.587
357.502
356.838
357.559
357.401
356.069
356.814
354.866
356.491
359.608
356.462
358.619
349.575
347.58
350.808
351.506
348.598
347.675
347.71
346.38
345.787
350.953
350.408
348.3
349.426
351.79
348.187
345.971
349.025
348.821
349.464
351.893
342.72
339.991
339.58
340.177
340.119
337.325
336.646
340.915
339.434
339.004
340.039
338.364
342.253
339.891
342.843
339.792
340.02
341.016
341.951
340.389
330.272
332.354
331.882
332.481
330.254
330.812
331.205
331.543
330.079
329.311
331.831
330.062
331.698
330.8
330.263
330.231
329.821
330.191
331.966
331.096
323.28
322.346
322.391
322.012
323.022
319.375
319.96
321.013
321.874
323.996
320.714
322.237
320.693
324.373
321.526
322.398
322.099
322.942
321.817
324.425
311.945
312.104
310.197
313.727
313.753
313.303
313.67
315.491
314.33
313.464
310.755
312.834
311.722
311.303
310.799
314.793
313.434
314.605
316.324
313.027
305.063
303.582
303.275
304.365
305.19
305.88
305.304
304.584
304.87
300.806
304.241
302.858
303.767
302.165
303.704
305.976
306.313
302.717
306.154
303.598
369.722
370.427
368.237
369.386
368.028
364.884
368.944
368.76
366.693
367.646
366.275
369.861
368.732
368.56
366.804
368.544
369.545
369.538
370.069
371.177
361
361.795
361.784
359.115
358.284
359.4
358.377
359.16
359.14
357.19
359.57
359.58
357.274
357.781
358.68
358.955
359.437
359.939
362.951
361.843
352.193
349.468
350.996
349.676
351.039
350.027
349.391
350.284
350.696
350.74
349.322
348.601
349.532
350.836
350.296
347.797
350.952
349.788
350.965
352.111
342.434
340.997
342.888
342.528
340.97
342.205
340.806
340.035
341.668
339.758
338.536
340.077
341.902
340.452
340.738
342.107
338.985
341.685
344.285
344.067
331.954
332.981
330.838
333.146
333.906
329.134
329.846
331.04
331.019
331.858
331.943
332.738
329.737
329.905
333.574
333.695
330.56
329.758
334.924
334.317
322.741
323.464
323.741
323.986
323.072
320.901
323.225
323.736
321.915
321.835
323.448
323.128
322.186
322.343
320.148
323.304
324.059
322.247
321.47
322.913
314.596
313.878
314.31
312.422
314.883
313.741
312.345
312.5
314.23
313.048
311.575
313.885
315.247
310.268
315.066
312.552
313.434
311.357
315.371
315.976
304.858
305.811
304.702
307.38
306.481
306.308
302.832
303.124
306.145
303.251
305.61
304.204
305.397
302.515
304.887
305.994
304.999
301.835
304.236
303.506
373.032
372.199
369.497
369.973
370.61
370.906
367.475
368.357
368.147
368.592
368.442
371.228
369.929
368.903
369.008
369.91
368.991
372.509
370.62
370.083
361.408
361.212
361.112
361.885
360.886
361.827
359.829
362.546
360.008
361.252
361.429
361.516
362.045
360.759
361.787
360.264
361.379
362.531
360.759
361.71
352.343
353.841
351.072
352.618
352.198
351.671
351.879
350.253
348.709
351.007
353.28
352.332
351.247
352.247
351.989
352.463
352.437
353.157
352.931
353.982
344.219
342.374
343.166
341.927
340.214
341.688
343.116
341.59
342.862
340.868
342.956
343.949
341.322
340.337
343.229
341.873
341.514
341.733
343.03
343.884
335.233
332.883
335.053
332.558
332.9
332.652
332.836
333.374
330.205
337.047
333.181
331.872
333.875
331.965
332.51
333.495
332.521
334.171
332.076
332.615
324.086
324.585
323.816
323.28
323.814
323.356
324.017
322.545
322.117
322.341
322.951
321.846
323.602
324.599
324.819
321.807
324.581
324.113
325.148
324.164
315.673
313.131
313.866
312.793
315.302
313.473
314.011
312.449
313.154
312.435
315.789
313.584
317.005
312.303
313.413
314.172
312.651
311.304
314.882
316.071
304.061
303.222
306.088
304.379
302.815
306.27
305.176
304.448
302.916
305.75
305.574
305.805
304.927
306.103
304.034
305.903
304.396
305.086
303.457
305.428
374.235
373.728
373.117
372.376
372.859
370.73
370.124
371.592
372.771
371.432
372.43
371.821
370.722
374.568
372.011
372.263
371.155
370.141
374.098
376.429
365.839
362.083
361.194
362.368
361.947
361.409
364.174
360.227
362.913
363.189
363.051
363.707
363.094
363.44
364.691
361.803
360.068
361.308
362.565
367.308
355.811
354.728
353.417
352.657
354.335
349.772
353.807
352.837
350.752
352.699
354.979
350.916
352.674
351.252
352.385
351.012
352.329
352.919
354.525
354.188
344.074
343.753
345.254
345.142
344.734
342.214
341.66
345.055
343.821
343.666
343.939
342.156
342.23
343.745
341.519
342.509
343.031
345.897
344.113
345.273
334.043
335.761
333.446
333.711
333.369
333.719
332.838
333.107
332.065
332.586
334.094
334.446
330.887
334.235
333.59
334.375
334.143
332.773
333.944
335.587
323.772
324.499
322.763
321.976
324.843
324.159
324.24
322.904
324.35
324.9
323.116
324.437
325.078
325.298
321.844
327.324
325.135
324.484
322.691
323.401
315.515
314.556
313.438
314.284
315.975
314.997
314.706
314.433
316.094
312.994
312.313
316.106
314.91
313.233
314.072
314.738
312.899
312.832
314.41
316.477
303.238
304.739
305.327
305.647
304.148
306.09
305.725
306.008
302.255
303.834
307.093
306.451
303.701
308.001
305.375
305.063
302.719
304.964
302.996
305.231
378.504
377.649
375.033
375.826
374.446
374.403
374.592
370.695
372.524
371.43
374.78
371.637
373.987
371.955
371.188
374.449
373.191
374.708
374.833
375.589
366.238
365.738
364.099
366.486
362.538
366.626
364.681
366.83
365.429
366.491
367.273
361.115
366.568
363.407
367.427
362.227
366.803
364.318
366.891
365.811
356.969
357.12
354.698
352.902
354.461
352.026
355.305
352.351
355.776
353.163
351.703
351.954
352.399
354.235
353.496
354.51
353.847
352.518
356.955
355.93
344.742
343.805
343.551
345.546
343.905
341.164
343.716
343.581
344.424
343.328
344.345
343.934
343.6
343.399
344.279
345.267
344.21
341.764
345.352
346.779
335.333
335.516
335.409
333.751
333.783
334.831
333.116
334.312
334.071
334.046
333.906
335.905
335.04
333.922
335.537
332.97
335.292
331.68
334.291
335.009
324.515
322.282
324.583
322.09
325.151
324.929
325.765
324.674
322.646
322.729
324.194
322.725
322.37
324.209
323.62
323.922
324.764
324.414
323.497
327.452
315.842
315.073
314.587
313.451
313.552
315.052
316.209
313.978
313.831
315.044
315.554
315.082
316.397
315.37
314.848
315.343
311.447
314.823
316.372
312.888
304.328
304.662
305.819
307.062
304.605
304.68
304.724
305.679
303.684
304.358
303.121
304.113
305.558
305.629
303.836
304.593
306.199
306.858
306.727
306.087
379.106
376.384
377.034
375.121
372.334
374.994
374.261
374.075
375.188
373.901
372.816
374.031
375.276
373.049
374.998
374.104
373.126
375.602
377.571
377.14
366.276
369.564
367.709
366.418
364.294
364.069
362.602
363.973
365.034
364.433
365.592
363.723
366.086
365.663
365.648
361.837
364.728
364.318
366.783
366.913
355.621
355.943
358.239
355.017
355.516
353.996
355.593
351.327
355.791
353.642
355.055
352.317
352.44
355.181
357.245
355.141
355.189
356.452
357.009
356.39
347.123
345.005
346.742
342.662
346.176
344.123
344.72
344.368
345.515
344.98
344.635
345.873
344.453
344.453
345.564
344.755
346.436
345.361
347.489
345.934
338.264
338.707
335.212
334.828
334.836
334.928
335.251
333.646
334.325
335.08
335.365
335.111
334.452
332.203
333.664
336.364
333.109
336.256
336.916
336.277
324.743
324.402
324.51
325.92
322.824
324.408
326.784
324.873
327.565
324.034
326.832
326.166
325.042
324.06
326.831
325.794
324.779
325.585
324.929
325.754
314.624
316.913
315.527
313.891
316.506
314.552
313.246
315.274
315.971
315.003
314.973
315.405
314.276
315.501
316.337
316.055
315.802
315.563
315.24
315.005
306.134
305.155
304.678
304.83
305.392
305.608
305.819
305.215
305.965
305.873
305.475
306.3
306.619
307.67
305.305
303.005
307.483
303.786
305.358
304.257
)
;

boundaryField
{
    hotSide
    {
        type            fixedGradient;
        gradient        nonuniform List<scalar> 
400
(
321.511
322.87
325.591
329.677
335.133
341.965
350.181
359.788
370.794
383.208
397.037
412.289
428.971
447.088
466.647
487.651
510.105
534.011
559.372
586.191
323.738
325.08
327.767
331.802
337.194
343.949
352.078
361.591
372.498
384.81
398.537
413.687
430.268
448.289
467.755
488.672
511.043
534.872
560.161
586.913
326.149
327.47
330.116
334.091
339.406
346.071
354.099
363.503
374.296
386.491
400.101
415.136
431.606
449.52
468.885
489.706
511.988
535.735
560.948
587.63
328.704
330
332.597
336.503
341.73
348.292
356.205
365.485
376.15
388.215
401.695
416.604
432.954
450.753
470.009
490.73
512.919
536.579
561.714
588.325
331.33
332.599
335.142
338.97
344.099
350.546
358.332
367.477
378.003
389.928
403.271
418.047
434.27
451.949
471.095
491.712
513.807
537.382
562.439
588.978
333.918
335.158
337.643
341.389
346.414
352.74
360.392
369.397
379.779
391.562
404.765
419.407
435.503
453.065
472.101
492.618
514.622
538.114
563.096
589.569
336.321
337.531
339.959
343.622
348.544
354.751
362.274
371.142
381.385
393.031
406.101
420.618
436.595
454.047
472.983
493.409
515.33
538.747
563.663
590.076
338.36
339.543
341.92
345.509
350.339
356.44
363.847
372.595
382.718
394.244
407.2
421.608
437.485
454.844
473.695
494.045
515.897
539.253
564.114
590.478
339.852
341.015
343.352
346.885
351.645
357.665
364.985
373.643
383.675
395.113
407.984
422.312
438.116
455.407
474.197
494.491
516.294
539.606
564.428
590.758
340.643
341.795
344.11
347.613
352.334
358.311
365.584
374.193
384.176
395.567
408.393
422.679
438.443
455.699
474.456
494.722
516.498
539.788
564.589
590.901
340.643
341.795
344.11
347.613
352.334
358.311
365.584
374.193
384.176
395.567
408.393
422.679
438.443
455.699
474.456
494.722
516.498
539.788
564.589
590.901
339.852
341.015
343.352
346.885
351.645
357.665
364.985
373.643
383.675
395.113
407.984
422.312
438.116
455.407
474.197
494.491
516.294
539.606
564.428
590.758
338.36
339.543
341.92
345.509
350.339
356.44
363.847
372.595
382.718
394.244
407.2
421.608
437.485
454.844
473.695
494.045
515.897
539.253
564.114
590.478
336.321
337.531
339.959
343.622
348.544
354.751
362.274
371.142
381.385
393.031
406.101
420.618
436.595
454.047
472.983
493.409
515.33
538.747
563.663
590.076
333.918
335.158
337.643
341.389
346.414
352.74
360.392
369.397
379.779
391.562
404.765
419.407
435.503
453.065
472.101
492.618
514.622
538.114
563.096
589.569
331.33
332.599
335.142
338.97
344.099
350.546
358.332
367.477
378.003
389.928
403.271
418.047
434.27
451.949
471.095
491.712
513.807
537.382
562.439
588.978
328.704
330
332.597
336.503
341.73
348.292
356.205
365.485
376.15
388.215
401.695
416.604
432.954
450.753
470.009
490.73
512.919
536.579
561.714
588.325
326.149
327.47
330.116
334.091
339.406
346.071
354.099
363.503
374.296
386.491
400.101
415.136
431.606
449.52
468.885
489.706
511.988
535.735
560.948
587.63
323.738
325.08
327.767
331.802
337.194
343.949
352.078
361.591
372.498
384.81
398.537
413.687
430.268
448.289
467.755
488.672
511.043
534.872
560.161
586.913
321.511
322.87
325.591
329.677
335.133
341.965
350.181
359.788
370.794
383.208
397.037
412.289
428.971
447.088
466.647
487.651
510.105
534.011
559.372
586.191
)
;
    }
    coldSide
    {
        type            mixed;
        refValue        uniform 300;
        refGradient     uniform 0;
        valueFraction   uniform 0.991591;
        source          uniform 0;
        value           nonuniform List<scalar> 
400
(
300.04
300.031
300.028
300.022
300.024
300.034
300.014
300.011
300.027
300.015
300.026
300.012
300.029
300.033
300.043
300.041
300.034
300.027
300.036
300.052
300.013
300.029
300.023
300.021
300.037
300.018
300.041
300.048
300.028
300.031
300.031
300.024
300.035
300.051
300.03
300.049
300.027
300.04
300.039
300.043