/*--------------------------------*- C++ -*----------------------------------*\
| =========                 |                                                 |
| \\      /  F ield         | OpenFOAM: The Open Source CFD Toolbox           |
|  \\    /   O peration     | Version:  2212                                  |
|   \\  /    A nd           | Website:  www.openfoam.com                      |
|    \\/     M anipulation  |                                                 |
\*---------------------------------------------------------------------------*/
FoamFile
{
    version     2.0;
    format      ascii;
    arch        "LSB;label=32;scalar=64";
    class       volScalarField;
    location    "0";
    object      stateMean;
}
// * * * * * * * * * * * * * * * * * * * * * * * * * * * * * * * * * * * * * //

dimensions      [0 0 0 1 0 0 0];

internalField   nonuniform List<scalar> 
3200
(
346.14
345.129
344.484
344.487
344.86
345.549
346.293
347.093
347.685
348.085
348.061
347.703
347.106
346.304
345.226
344.252
343.547
343.3
343.629
344.347
340.034
339.137
338.679
338.568
338.951
339.524
340.123
340.832
341.355
341.641
341.665
341.466
340.861
340.037
339.156
338.466
337.794
337.495
337.751
338.447
333.832
333.175
332.717
332.698
332.974
333.515
333.975
334.534
335.041
335.324
335.264
335.06
334.582
333.929
333.177
332.452
331.975
331.816
332.044
332.531
327.68
327.211
326.865
326.812
327.033
327.397
327.817
328.301
328.723
328.913
328.862
328.753
328.341
327.805
327.165
326.67
326.223
325.957
326.199
326.58
321.603
321.137
320.87
320.896
321.075
321.301
321.697
322.047
322.329
322.445
322.495
322.264
322.04
321.605
321.102
320.712
320.404
320.217
320.412
320.688
315.515
315.203
314.89
314.885
315.043
315.28
315.454
315.802
315.956
316.094
316.049
316.079
315.786
315.469
315.146
314.844
314.568
314.472
314.579
314.774
309.213
309.041
308.946
308.874
309.009
309.07
309.355
309.516
309.595
309.595
309.625
309.52
309.427
309.299
309.08
308.927
308.706
308.676
308.746
308.818
303.11
302.999
303.043
303.008
303.1
303.114
303.048
303.187
303.27
303.264
303.292
303.13
303.153
303.073
303.098
303.029
302.934
302.901
302.886
303
346.142
345.25
344.612
344.599
344.998
345.735
346.562
347.424
348.099
348.601
348.662
348.256
347.594
346.686
345.627
344.508
343.759
343.412
343.79
344.45
340.046
339.257
338.717
338.726
339.084
339.793
340.467
341.173
341.694
342.07
342.111
341.817
341.313
340.434
339.508
338.627
337.837
337.693
337.955
338.579
333.865
333.27
332.828
332.785
333.098
333.66
334.252
334.743
335.331
335.626
335.665
335.503
334.991
334.247
333.486
332.752
332.113
331.936
332.132
332.584
327.719
327.252
326.881
326.867
327.13
327.538
328.098
328.499
328.882
329.212
329.174
329.004
328.577
328.001
327.354
326.748
326.336
326.111
326.306
326.726
321.558
321.209
320.974
320.946
321.07
321.417
321.836
322.186
322.434
322.605
322.703
322.535
322.25
321.832
321.356
320.867
320.515
320.404
320.425
320.735
315.381
315.163
314.94
314.952
315.109
315.334
315.67
315.824
316.038
316.114
316.188
316.186
315.871
315.579
315.248
314.844
314.668
314.538
314.646
314.904
309.314
309.102
308.93
308.897
309.055
309.266
309.419
309.475
309.656
309.795
309.825
309.684
309.577
309.373
309.12
308.929
308.916
308.699
308.819
308.898
303.134
303.043
303.02
303.028
303.104
303.063
303.144
303.158
303.232
303.209
303.245
303.339
303.182
303.121
303.06
303.068
302.892
302.976
302.957
302.99
346.375
345.382
344.925
344.926
345.403
346.173
347.087
348.043
348.775
349.248
349.386
349.126
348.31
347.338
346.282
345.119
344.29
343.816
344.117
344.829
340.224
339.464
339.009
339.036
339.384
340.174
340.874
341.722
342.224
342.709
342.749
342.538
341.931
341.029
340.075
339.084
338.402
337.943
338.179
338.797
334.033
333.429
333.066
333.091
333.414
334.03
334.577
335.258
335.822
336.217
336.245
335.923
335.429
334.706
333.87
333.154
332.516
332.131
332.434
332.73
327.826
327.385
327.113
327.201
327.368
327.872
328.415
328.928
329.218
329.511
329.609
329.458
329.07
328.499
327.654
327.118
326.602
326.408
326.473
326.889
321.747
321.316
321.105
321.061
321.237
321.642
322.08
322.477
322.763
323.027
323.055
322.918
322.58
322.149
321.618
321.066
320.732
320.52
320.667
320.943
315.493
315.27
315.009
315.041
315.166
315.426
315.763
316.047
316.294
316.481
316.5
316.373
316.156
315.776
315.418
315.097
314.856
314.646
314.792
314.913
309.331
309.097
309.046
309.045
309.103
309.318
309.434
309.685
309.775
309.855
309.845
309.879
309.613
309.47
309.228
308.944
308.909
308.825
308.904
308.952
303.13
303.091
303.036
303.094
303.006
303.087
303.159
303.251
303.301
303.331
303.33
303.393
303.253
303.146
303.051
303.103
302.959
302.926
302.93
302.964
346.768
345.925
345.442
345.51
346.046
346.902
347.904
348.779
349.635
350.222
350.352
350.067
349.349
348.299
346.969
345.895
344.915
344.465
344.606
345.344
340.512
339.829
339.439
339.432
339.864
340.647
341.526
342.341
343.065
343.441
343.659
343.332
342.742
341.873
340.792
339.787
338.924
338.513
338.786
339.253
334.294
333.769
333.418
333.436
333.799
334.389
335.113
335.826
336.446
336.839
336.933
336.638
336.235
335.453
334.449
333.657
332.971
332.621
332.806
333.179
328.155
327.669
327.406
327.433
327.662
328.113
328.764
329.366
329.805
330.154
330.228
330.029
329.607
328.981
328.305
327.556
326.919
326.697
326.853
327.133
321.884
321.554
321.231
321.311
321.573
321.995
322.403
322.81
323.18
323.498
323.524
323.354
323.067
322.57
321.934
321.445
320.956
320.717
320.972
321.155
315.604
315.395
315.227
315.334
315.388
315.682
315.944
316.329
316.666
316.762
316.825
316.684
316.415
316.086
315.693
315.288
315.016
314.933
314.919
315.094
309.385
309.297
309.194
309.13
309.187
309.392
309.629
309.689
309.927
310.07
310.111
310.038
309.906
309.701
309.492
309.205
309.036
308.93
308.903
309.033
303.199
303.126
303.125
303.115
303.063
303.141
303.231
303.291
303.391
303.303
303.412
303.349
303.329
303.242
303.136
303.103
302.964
302.946
303.126
303.013
347.384
346.574
346.068
346.133
346.854
347.563
348.609
349.716
350.63
351.198
351.501
351.173
350.363
349.302
348.027
346.711
345.797
345.28
345.506
346.076
341.092
340.399
340.017
340.068
340.377
341.348
342.169
343.154
343.902
344.419
344.581
344.302
343.615
342.73
341.615
340.636
339.8
339.29
339.37
339.926
334.79
334.246
333.881
333.983
334.284
334.97
335.662
336.454
337.124
337.55
337.74
337.453
337.014
336.134
335.12
334.274
333.619
333.285
333.346
333.76
328.514
328.052
327.748
327.799
328.099
328.671
329.234
329.819
330.395
330.731
330.851
330.604
330.273
329.486
328.843
328.067
327.524
327.301
327.323
327.556
322.203
321.856
321.622
321.659
321.826
322.327
322.726
323.241
323.61
323.934
324.011
323.841
323.508
323.017
322.416
321.893
321.339
321.268
321.228
321.501
315.848
315.615
315.506
315.532
315.579
315.898
316.27
316.546
316.924
317.127
317.192
317.008
316.858
316.376
316.026
315.551
315.239
315.149
315.222
315.337
309.552
309.355
309.322
309.228
309.417
309.567
309.786
309.982
310.119
310.316
310.342
310.279
310.109
309.857
309.585
309.411
309.194
309.149
309.148
309.215
303.239
303.159
303
303.044
303.21
303.253
303.23
303.271
303.424
303.413
303.408
303.42
303.397
303.345
303.254
303.114
303.078
303.075
303.08
303.111
348.112
347.269
346.835
347.001
347.527
348.554
349.609
350.707
351.697
352.393
352.675
352.396
351.549
350.431
349.12
347.767
346.786
346.375
346.441
346.939
341.67
341.068
340.801
340.853
341.308
342.064
343.082
343.963
344.886
345.361
345.669
345.373
344.737
343.627
342.611
341.481
340.581
340.261
340.28
340.601
335.296
334.801
334.479
334.593
334.985
335.583
336.365
337.218
337.983
338.461
338.556
338.385
337.787
336.961
335.963
335.14
334.341
334.041
334.033
334.438
328.947
328.553
328.322
328.251
328.659
329.245
329.882
330.426
331.051
331.448
331.618
331.44
330.842
330.246
329.533
328.709
328.146
327.915
327.896
328.138
322.495
322.159
322.054
322.079
322.305
322.66
323.156
323.724
324.116
324.435
324.523
324.461
324.083
323.518
322.881
322.37
321.896
321.642
321.678
321.803
316.153
315.875
315.78
315.775
315.903
316.223
316.664
316.904
317.213
317.465
317.502
317.391
317.174
316.765
316.37
315.84
315.631
315.546
315.47
315.666
309.722
309.562
309.482
309.487
309.571
309.713
309.945
310.249
310.452
310.464
310.489
310.465
310.328
310.029
309.809
309.577
309.406
309.346
309.32
309.423
303.25
303.204
303.195
303.261
303.185
303.267
303.272
303.322
303.516
303.585
303.607
303.542
303.505
303.447
303.369
303.195
303.21
303.073
303.197
303.131
348.973
348.27
347.89
347.978
348.605
349.53
350.576
351.751
352.788
353.528
353.876
353.526
352.851
351.605
350.306
349.006
347.949
347.587
347.522
347.995
342.479
341.829
341.55
341.654
342.189
342.921
343.964
344.907
345.764
346.414
346.69
346.398
345.74
344.694
343.518
342.501
341.575
341.132
341.152
341.499
335.958
335.517
335.177
335.383
335.668
336.318
337.192
338.043
338.772
339.302
339.47
339.291
338.726
337.775
336.86
335.92
335.288
334.902
334.868
335.128
329.394
329.039
328.859
328.909
329.147
329.676
330.348
331.106
331.734
332.046
332.347
332.152
331.584
330.96
330.065
329.424
328.761
328.458
328.583
328.779
322.889
322.627
322.48
322.524
322.765
323.224
323.732
324.229
324.584
324.972
325.049
325.006
324.552
324.067
323.477
322.845
322.338
322.137
322.262
322.361
316.438
316.215
316.058
316.145
316.257
316.579
316.948
317.325
317.602
317.832
317.917
317.865
317.504
317.227
316.784
316.407
316.055
315.817
315.823
315.928
309.822
309.704
309.67
309.638
309.748
309.969
310.147
310.432
310.621
310.814
310.786
310.629
310.566
310.316
310.076
309.814
309.578
309.43
309.57
309.673
303.269
303.273
303.287
303.277
303.339
303.327
303.461
303.535
303.571
303.64
303.632
303.592
303.548
303.471
303.398
303.231
303.249
303.166
303.187
303.27
349.992
349.243
348.846
349.021
349.64
350.452
351.639
352.854
353.989
354.788
355.09
354.805
353.965
352.794
351.432
350.212
349.247
348.649
348.827
349.104
343.27
342.69
342.455
342.61
343.049
343.892
344.83
345.833
346.802
347.402
347.683
347.499
346.808
345.71
344.554
343.503
342.62
342.174
342.143
342.525
336.702
336.203
335.973
336.092
336.467
337.086
337.845
338.728
339.627
340.032
340.345
340.063
339.567
338.703
337.695
336.847
336.122
335.746
335.726
335.956
330.047
329.722
329.471
329.481
329.829
330.338
331.124
331.734
332.326
332.776
332.993
332.815
332.355
331.606
330.764
330.079
329.538
329.147
329.221
329.438
323.375
323.109
322.948
323.017
323.174
323.679
324.211
324.754
325.18
325.489
325.672
325.565
325.125
324.524
323.986
323.446
322.947
322.785
322.746
322.824
316.777
316.534
316.317
316.433
316.632
316.916
317.21
317.599
318.004
318.254
318.344
318.258
317.976
317.53
317.11
316.773
316.423
316.234
316.257
316.298
310.078
309.908
309.802
309.899
309.934
310.175
310.408
310.56
310.861
310.908
310.929
310.936
310.724
310.583
310.293
310.123
309.882
309.777
309.772
309.862
303.46
303.342
303.278
303.277
303.369
303.335
303.459
303.575
303.661
303.672
303.718
303.689
303.631
303.48
303.495
303.367
303.359
303.328
303.263
303.302
351.007
350.289
350.055
350.154
350.624
351.604
352.705
353.874
355.046
355.847
356.19
355.965
355.143
353.891
352.654
351.398
350.5
349.86
349.821
350.342
344.228
343.641
343.452
343.573
343.963
344.725
345.652
346.74
347.76
348.394
348.669
348.532
347.751
346.784
345.582
344.58
343.706
343.222
343.203
343.611
337.435
336.976
336.726
336.908
337.275
337.902
338.663
339.6
340.306
340.88
341.13
341.013
340.405
339.552
338.561
337.674
336.975
336.658
336.546
336.913
330.7
330.358
330.105
330.206
330.518
330.971
331.626
332.36
332.946
333.484
333.713
333.462
333.078
332.309
331.477
330.842
330.22
329.974
329.966
330.127
323.9
323.561
323.402
323.525
323.744
324.188
324.68
325.217
325.713
326.036
326.198
326.049
325.782
325.125
324.535
323.93
323.52
323.351
323.31
323.466
317.131
316.864
316.764
316.714
316.903
317.275
317.636
317.977
318.323
318.606
318.739
318.633
318.363
317.958
317.585
317.131
316.847
316.679
316.661
316.772
310.229
310.141
310.058
310.056
310.199
310.4
310.596
310.791
311.004
311.245
311.198
311.217
311.032
310.691
310.528
310.292
310.159
310.035
309.956
310.066
303.429
303.349
303.387
303.422
303.427
303.399
303.528
303.636
303.75
303.681
303.766
303.752
303.692
303.556
303.512
303.411
303.349
303.358
303.356
303.311
352.179
351.507
351.227
351.257
351.76
352.657
353.735
354.959
356.047
356.903
357.296
357.075
356.222
355.095
353.851
352.669
351.685
351.189
351.167
351.516
345.317
344.651
344.381
344.524
344.846
345.685
346.588
347.63
348.478
349.195
349.637
349.396
348.699
347.671
346.647
345.584
344.834
344.346
344.28
344.695
338.32
337.817
337.644
337.641
338.133
338.631
339.434
340.306
341.109
341.649
341.875
341.812
341.237
340.385
339.378
338.543
337.872
337.545
337.492
337.811
331.377
331.013
330.86
330.911
331.085
331.609
332.308
332.975
333.534
334.112
334.334
334.19
333.703
333.011
332.252
331.492
330.954
330.677
330.803
330.858
324.383
324.19
323.967
324.076
324.349
324.63
325.171
325.7
326.12
326.5
326.667
326.593
326.201
325.752
325.133
324.505
324.15
323.887
323.904
324.007
317.526
317.269
317.153
317.172
317.358
317.657
317.923
318.331
318.685
318.874
319.003
318.995
318.745
318.35
317.983
317.54
317.228
317.07
317.039
317.064
310.487
310.417
310.273
310.343
310.361
310.584
310.765
311.017
311.206
311.358
311.407
311.419
311.282
311.034
310.733
310.543
310.378
310.288
310.243
310.272
303.501
303.529
303.492
303.4
303.467
303.531
303.642
303.676
303.78
303.796
303.799
303.86
303.798
303.816
303.593
303.553
303.543
303.507
303.412
303.536
353.232
352.627
352.342
352.357
352.906
353.665
354.777
355.897
357.017
357.797
358.161
357.981
357.245
356.168
354.886
353.851
352.954
352.467
352.458
352.763
346.217
345.679
345.359
345.48
345.912
346.665
347.544
348.457
349.378
350.139
350.275
350.191
349.595
348.622
347.564
346.603
345.831
345.45
345.453
345.737
339.084
338.656
338.508
338.534
338.879
339.421
340.2
340.98
341.823
342.4
342.567
342.366
341.907
341.078
340.265
339.358
338.793
338.455
338.403
338.63
332.06
331.695
331.488
331.603
331.894
332.269
332.898
333.592
334.202
334.69
334.893
334.735
334.285
333.513
332.893
332.268
331.698
331.447
331.424
331.654
324.944
324.697
324.548
324.513
324.766
325.138
325.608
326.146
326.554
326.967
327.097
326.974
326.704
326.215
325.601
325.159
324.729
324.505
324.492
324.563
317.847
317.609
317.559
317.561
317.755
317.98
318.319
318.583
319.019
319.267
319.433
319.252
319.026
318.694
318.208
317.876
317.653
317.478
317.454
317.546
310.739
310.638
310.513
310.64
310.668
310.808
310.886
311.226
311.479
311.565
311.599
311.57
311.447
311.24
311.015
310.723
310.643
310.488
310.473
310.548
303.601
303.592
303.555
303.511
303.509
303.549
303.659
303.766
303.873
303.899
303.895
303.86
303.753
303.744
303.638
303.638
303.506
303.47
303.531
303.585
354.448
353.865
353.47
353.633
354.08
354.845
355.799
356.935
357.859
358.661
358.925
358.704
358.068
357.183
355.956
354.943
354.078
353.697
353.745
354.067
347.212
346.72
346.516
346.492
346.931
347.556
348.39
349.31
350.123
350.8
351.056
350.91
350.349
349.462
348.491
347.608
346.956
346.454
346.485
346.792
340.037
339.598
339.325
339.364
339.697
340.275
341.006
341.725
342.436
342.997
343.17
343.058
342.613
341.843
340.986
340.252
339.713
339.408
339.3
339.555
332.723
332.424
332.273
332.198
332.5
332.976
333.572
334.141
334.789
335.148
335.286
335.229
334.783
334.256
333.582
332.826
332.441
332.194
332.175
332.364
325.508
325.161
325.025
325.132
325.391
325.608
326.117
326.501
327.046
327.304
327.414
327.414
327.118
326.602
326.163
325.662
325.201
325.128
325.036
325.138
318.27
318.081
317.93
317.919
318.128
318.358
318.563
319.054
319.217
319.572
319.632
319.563
319.395
319
318.671
318.254
318.054
317.923
317.853
317.966
310.994
310.838
310.718
310.712
310.85
311.072
311.223
311.441
311.566
311.687
311.744
311.722
311.649
311.419
311.176
311.047
310.843
310.69
310.749
310.878
303.69
303.617
303.588
303.672
303.669
303.71
303.722
303.85
303.889
304.022
303.957
303.951
303.913
303.852
303.69
303.787
303.647
303.577
303.593
303.618
355.611
354.942
354.667
354.737
355.108
355.832
356.67
357.798
358.746
359.439
359.695
359.513
358.926
357.999
357.049
356.021
355.277
354.893
354.966
355.322
348.259
347.766
347.492
347.496
347.858
348.45
349.266
350.049
350.848
351.437
351.717
351.597
351.025
350.275
349.434
348.51
347.896
347.536
347.659
347.831
340.909
340.501
340.255
340.216
340.581
341.017
341.722
342.352
343.037
343.596
343.719
343.656
343.114
342.486
341.734
341.093
340.534
340.292
340.313
340.505
333.446
333.142
332.951
332.921
333.265
333.501
334.076
334.719
335.162
335.606
335.895
335.658
335.351
334.848
334.142
333.66
333.157
332.955
332.993
333.119
326.063
325.771
325.702
325.699
325.754
326.104
326.571
326.97
327.407
327.74
327.822
327.797
327.475
327.068
326.598
326.195
325.815
325.655
325.598
325.724
318.625
318.476
318.326
318.346
318.474
318.691
318.958
319.319
319.663
319.771
319.874
319.807
319.649
319.363
318.951
318.645
318.476
318.323
318.331
318.399
311.194
311.14
311.009
311.056
311.069
311.266
311.462
311.631
311.702
311.932
311.95
311.912
311.746
311.638
311.451
311.249
311.087
310.985
310.947
311.022
303.82
303.645
303.675
303.658
303.714
303.768
303.755
303.888
303.936
303.989
304.05
303.988
303.9
303.808
303.789
303.706
303.748
303.641
303.624
303.761
356.798
356.276
355.925
355.903
356.249
356.878
357.716
358.636
359.417
360.163
360.291
360.224
359.762
358.837
357.917
357.068
356.468
356.148
356.166
356.469
349.336
348.748
348.49
348.498
348.811
349.438
350.121
350.839
351.536
352.055
352.369
352.167
351.715
351.051
350.187
349.53
348.881
348.661
348.627
348.948
341.742
341.322
341.109
341.07
341.317
341.87
342.377
343.095
343.558
344.079
344.207
344.137
343.741
343.151
342.473
341.842
341.426
341.228
341.122
341.462
334.146
333.839
333.632
333.575
333.943
334.262
334.693
335.213
335.687
336.038
336.141
336.135
335.806
335.301
334.808
334.219
333.843
333.746
333.695
333.89
326.697
326.39
326.207
326.242
326.373
326.596
326.973
327.417
327.785
327.985
328.22
328.08
327.871
327.439
327.055
326.599
326.337
326.243
326.224
326.371
318.988
318.832
318.75
318.698
318.876
319.038
319.335
319.648
319.902
320.063
320.069
320.063
319.896
319.593
319.329
319.045
318.843
318.746
318.704
318.8
311.479
311.281
311.296
311.267
311.297
311.433
311.498
311.708
311.878
311.964
312.039
312.078
311.943
311.771
311.566
311.46
311.369
311.324
311.272
311.335
303.763
303.746
303.762
303.76
303.863
303.796
303.884
303.936
303.969
304.036
304.041
303.956
304.063
303.933
303.934
303.833
303.799
303.756
303.805
303.805
358.048
357.45
357.111
357.062
357.404
357.957
358.666
359.476
360.203
360.844
361.036
360.962
360.513
359.738
358.914
358.166
357.56
357.33
357.461
357.813
350.404
349.868
349.481
349.533
349.874
350.189
350.866
351.617
352.215
352.748
352.893
352.718
352.329
351.775
351.121
350.351
349.934
349.647
349.78
350.064
342.635
342.175
341.961
341.989
342.22
342.536
343.101
343.681
344.173
344.639
344.778
344.629
344.289
343.782
343.166
342.583
342.223
342.062
342.09
342.358
334.886
334.592
334.435
334.332
334.495
334.886
335.3
335.863
336.129
336.434
336.591
336.526
336.204
335.837
335.3
334.867
334.494
334.316
334.566
334.628
327.221
326.886
326.703
326.767
326.895
327.033
327.489
327.737
328.217
328.398
328.514
328.449
328.214
327.863
327.501
327.14
326.831
326.706
326.871
326.918
319.37
319.256
319.153
319.12
319.143
319.439
319.621
319.938
320.052
320.28
320.34
320.339
320.083
319.905
319.621
319.287
319.254
319.122
319.151
319.224
311.651
311.573
311.486
311.414
311.543
311.666
311.748
312.008
312.044
312.219
312.283
312.211
312.082
311.931
311.867
311.577
311.542
311.395
311.377
311.564
303.922
303.846
303.811
303.862
303.876
303.962
303.941
303.995
304.009
304.012
304.138
304.106
304.086
303.984
303.933
303.883
303.925
303.872
303.813
303.911
359.266
358.679
358.29
358.323
358.496
359.012
359.66
360.302
361
361.491
361.733
361.556
361.21
360.54
359.863
359.219
358.72
358.602
358.694
359.128
351.502
350.959
350.585
350.581
350.696
351.176
351.68
352.363
352.905
353.199
353.465
353.393
352.944
352.471
351.933
351.283
350.915
350.73
350.834
351.199
343.555
343.169
342.846
342.82
342.988
343.293
343.804
344.303
344.769
345.076
345.243
345.214
344.893
344.41
343.961
343.378
343.111
342.907
343.024
343.34
335.66
335.414
335.123
335.061
335.231
335.538
335.872
336.203
336.644
336.938
336.96
336.95
336.639
336.331
335.914
335.419
335.173
335.113
335.157
335.44
327.763
327.583
327.381
327.276
327.374
327.564
327.944
328.234
328.525
328.702
328.786
328.736
328.544
328.212
327.851
327.607
327.405
327.312
327.375
327.534
319.915
319.661
319.586
319.521
319.591
319.708
319.929
320.094
320.374
320.539
320.62
320.487
320.385
320.156
319.968
319.702
319.589
319.545
319.618
319.677
311.931
311.817
311.73
311.652
311.717
311.882
311.893
312.081
312.282
312.335
312.387
312.372
312.214
312.169
312.003
311.861
311.763
311.773
311.78
311.822
303.991
303.975
303.936
303.94
303.99
303.969
303.969
304.044
304.096
304.102
304.118
304.136
304.058
304.111
304.031
303.963
303.891
303.927
303.927
304.065
360.528
359.945
359.544
359.463
359.592
360.025
360.665
361.238
361.81
362.23
362.413
362.289
361.954
361.428
360.819
360.224
359.845
359.761
359.939
360.382
352.603
352.022
351.635
351.525
351.764
352.082
352.593
353.119
353.659
353.929
353.991
354.014
353.707
353.217
352.694
352.236
351.874
351.743
351.934
352.338
344.401
344.113
343.785
343.7
343.791
344.155
344.588
344.91
345.414
345.675
345.791
345.691
345.484
345.027
344.554
344.116
343.972
343.729
343.833
344.223
336.4
336.027
335.852
335.824
335.872
336.111
336.487
336.838
337.082
337.388
337.383
337.349
337.172
336.808
336.49
336.054
335.901
335.828
335.856
336.147
328.429
328.081
327.885
327.861
327.884
328.051
328.427
328.594
328.906
329.069
329.133
329.058
328.884
328.624
328.375
328.213
327.903
327.852
327.956
328.087
320.327
320.029
319.923
319.915
319.958
320.093
320.234
320.483
320.585
320.79
320.788
320.717
320.728
320.466
320.23
320.034
319.97
319.882
319.899
320.099
312.18
312.094
311.994
311.987
311.97
312.105
312.228
312.286
312.392
312.432
312.506
312.442
312.367
312.35
312.16
312.112
312.027
311.957
312.051
311.973
304.058
304.014
304.131
304.025
304.035
304.065
304.06
304.133
304.147
304.134
304.266
304.103
304.196
304.157
304.022
304.096
303.949
303.977
304.049
303.991
361.789
361.189
360.71
360.626
360.744
361.107
361.601
362.149
362.595
362.986
363.133
362.969
362.736
362.215
361.779
361.218
360.959
360.986
361.207
361.622
353.633
352.996
352.618
352.623
352.726
352.976
353.403
353.828
354.247
354.565
354.648
354.592
354.276
353.978
353.577
353.078
352.796
352.757
352.996
353.366
345.448
344.955
344.59
344.509
344.51
344.911
345.262
345.602
345.932
346.259
346.348
346.196
345.975
345.695
345.219
344.895
344.625
344.628
344.768
345.124
337.19
336.951
336.566
336.527
336.573
336.705
336.991
337.296
337.576
337.837
337.831
337.777
337.568
337.363
337.032
336.721
336.54
336.525
336.663
336.881
328.937
328.752
328.472
328.367
328.463
328.526
328.84
328.99
329.28
329.336
329.395
329.482
329.258
328.967
328.836
328.538
328.452
328.371
328.591
328.691
320.68
320.472
320.337
320.264
320.311
320.417
320.579
320.775
320.981
320.925
321.109
320.991
320.909
320.809
320.606
320.442
320.28
320.373
320.374
320.435
312.38
312.274
312.221
312.222
312.206
312.315
312.353
312.472
312.606
312.639
312.664
312.585
312.545
312.519
312.328
312.304
312.154
312.163
312.231
312.342
304.121
304.101
304.06
304.056
304.068
304.123
304.095
304.196
304.242
304.2
304.217
304.221
304.24
304.095
304.124
304.099
304.126
304.074
304.087
304.109
362.944
362.336
361.944
361.674
361.773
362.061
362.507
362.909
363.378
363.672
363.845
363.848
363.434
363.043
362.709
362.293
362.051
362.064
362.247
362.815
354.609
354.119
353.694
353.497
353.458
353.86
354.18
354.578
354.894
355.18
355.271
355.19
354.908
354.636
354.242
353.917
353.75
353.76
353.911
354.478
346.237
345.788
345.452
345.393
345.383
345.573
345.826
346.269
346.573
346.616
346.806
346.733
346.561
346.229
345.909
345.527
345.405
345.348
345.636
346.002
337.754
337.511
337.248
337.069
337.071
337.312
337.477
337.863
338.049
338.131
338.222
338.218
337.982
337.832
337.565
337.34
337.119
337.124
337.295
337.602
329.526
329.2
329.006
328.867
328.892
329.076
329.193
329.369
329.632
329.741
329.709
329.723
329.594
329.389
329.192
328.961
328.889
328.94
329.014
329.204
321.079
320.95
320.731
320.602
320.651
320.776
320.905
320.978
321.144
321.219
321.266
321.225
321.13
321.011
320.847
320.657
320.645
320.687
320.795
320.826
312.687
312.55
312.388
312.346
312.358
312.456
312.542
312.605
312.637
312.738
312.794
312.754
312.78
312.583
312.498
312.45
312.306
312.389
312.441
312.524
304.214
304.135
304.07
304.171
304.174
304.126
304.222
304.206
304.368
304.349
304.266
304.259
304.26
304.184
304.208
304.158
304.185
304.155
304.186
304.204
363.923
363.283
362.769
362.516
362.64
362.79
363.144
363.624
363.922
364.151
364.352
364.251
364.066
363.713
363.355
363.079
362.814
362.85
363.26
363.72
355.306
354.827
354.364
354.14
354.198
354.463
354.773
355.005
355.428
355.666
355.761
355.621
355.402
355.204
354.78
354.54
354.332
354.496
354.69
355.101
346.876
346.288
346.068
345.791
345.852
346.174
346.305
346.618
346.917
347.069
347.137
347.014
346.888
346.678
346.289
346.11
345.924
345.991
346.248
346.51
338.36
337.938
337.632
337.569
337.56
337.642
337.889
338.171
338.328
338.494
338.46
338.499
338.366
338.079
337.853
337.71
337.569
337.606
337.875
338.063
329.811
329.51
329.347
329.198
329.249
329.317
329.494
329.593
329.769
329.87
329.993
329.948
329.861
329.64
329.506
329.318
329.204
329.257
329.333
329.591
321.327
321.132
320.939
320.902
320.928
320.964
321.106
321.264
321.278
321.36
321.407
321.469
321.277
321.204
321.015
320.898
320.839
320.928
320.918
321.069
312.737
312.662
312.666
312.552
312.563
312.562
312.708
312.768
312.848
312.81
312.811
312.857
312.774
312.798
312.652
312.562
312.503
312.574
312.547
312.664
304.349
304.278
304.226
304.124
304.191
304.199
304.272
304.346
304.265
304.39
304.419
304.254
304.256
304.338
304.317
304.19
304.208
304.181
304.17
304.229
)
;

boundaryField
{
    hotSide
    {
        type            fixedGradient;
        gradient        nonuniform List<scalar> 
400
(
321.511
322.87
325.591
329.677
335.133
341.965
350.181
359.788
370.794
383.208
397.037
412.289
428.971
447.088
466.647
487.651
510.105
534.011
559.372
586.191
323.738
325.08
327.767
331.802
337.194
343.949
352.078
361.591
372.498
384.81
398.537
413.687
430.268
448.289
467.755
488.672
511.043
534.872
560.161
586.913
326.149
327.47
330.116
334.091
339.406
346.071
354.099
363.503
374.296
386.491
400.101
415.136
431.606
449.52
468.885
489.706
511.988
535.735
560.948
587.63
328.704
330
332.597
336.503
341.73
348.292
356.205
365.485
376.15
388.215
401.695
416.604
432.954
450.753
470.009
490.73
512.919
536.579
561.714
588.325
331.33
332.599
335.142
338.97
344.099
350.546
358.332
367.477
378.003
389.928
403.271
418.047
434.27
451.949
471.095
491.712
513.807
537.382
562.439
588.978
333.918
335.158
337.643
341.389
346.414
352.74
360.392
369.397
379.779
391.562
404.765
419.407
435.503
453.065
472.101
492.618
514.622
538.114
563.096
589.569
336.321
337.531
339.959
343.622
348.544
354.751
362.274
371.142
381.385
393.031
406.101
420.618
436.595
454.047
472.983
493.409
515.33
538.747
563.663
590.076
338.36
339.543
341.92
345.509
350.339
356.44
363.847
372.595
382.718
394.244
407.2
421.608
437.485
454.844
473.695
494.045
515.897
539.253
564.114
590.478
339.852
341.015
343.352
346.885
351.645
357.665
364.985
373.643
383.675
395.113
407.984
422.312
438.116
455.407
474.197
494.491
516.294
539.606
564.428
590.758
340.643
341.795
344.11
347.613
352.334
358.311
365.584
374.193
384.176
395.567
408.393
422.679
438.443
455.699
474.456
494.722
516.498
539.788
564.589
590.901
340.643
341.795
344.11
347.613
352.334
358.311
365.584
374.193
384.176
395.567
408.393
422.679
438.443
455.699
474.456
494.722
516.498
539.788
564.589
590.901
339.852
341.015
343.352
346.885
351.645
357.665
364.985
373.643
383.675
395.113
407.984
422.312
438.116
455.407
474.197
494.491
516.294
539.606
564.428
590.758
338.36
339.543
341.92
345.509
350.339
356.44
363.847
372.595
382.718
394.244
407.2
421.608
437.485
454.844
473.695
494.045
515.897
539.253
564.114
590.478
336.321
337.531
339.959
343.622
348.544
354.751
362.274
371.142
381.385
393.031
406.101
420.618
436.595
454.047
472.983
493.409
515.33
538.747
563.663
590.076
333.918
335.158
337.643
341.389
346.414
352.74
360.392
369.397
379.779
391.562
404.765
419.407
435.503
453.065
472.101
492.618
514.622
538.114
563.096
589.569
331.33
332.599
335.142
338.97
344.099
350.546
358.332
367.477
378.003
389.928
403.271
418.047
434.27
451.949
471.095
491.712
513.807
537.382
562.439
588.978
328.704
330
332.597
336.503
341.73
348.292
356.205
365.485
376.15
388.215
401.695
416.604
432.954
450.753
470.009
490.73
512.919
536.579
561.714
588.325
326.149
327.47
330.116
334.091
339.406
346.071
354.099
363.503
374.296
386.491
400.101
415.136
431.606
449.52
468.885
489.706
511.988
535.735
560.948
587.63
323.738
325.08
327.767
331.802
337.194
343.949
352.078
361.591
372.498
384.81
398.537
413.687
430.268
448.289
467.755
488.672
511.043
534.872
560.161
586.913
321.511
322.87
325.591
329.677
335.133
341.965
350.181
359.788
370.794
383.208
397.037
412.289
428.971
447.088
466.647
487.651
510.105
534.011
559.372
586.191
)
;
    }
    coldSide
    {
        type            mixed;
        refValue        uniform 300;
        refGradient     uniform 0;
        valueFraction   uniform 0.991591;
        source          uniform 0;
        value           nonuniform List<scalar> 
400
(
300.026
300.026
300.026
300.027
300.027
300.027
300.027
300.029
300.029
300.029
300.03
300.031
300.032
300.032
300.033
300.034
300.034
300.035
300.035
300.037
300.025
300.026
300.026
300.026
300.027
300.027
300.028
300.028
300.028
300.03
300.03
300.03
300.031
300.031
300.032
300.033
300.034
300.034