/*--------------------------------*- C++ -*----------------------------------*\
| =========                 |                                                 |
| \\      /  F ield         | OpenFOAM: The Open Source CFD Toolbox           |
|  \\    /   O peration     | Version:  2212                                  |
|   \\  /    A nd           | Website:  www.openfoam.com                      |
|    \\/     M anipulation  |                                                 |
\*---------------------------------------------------------------------------*/
FoamFile
{
    version     2.0;
    format      ascii;
    arch        "LSB;label=32;scalar=64";
    class       volScalarField;
    location    "0";
    object      relativeErrorField;
}
// * * * * * * * * * * * * * * * * * * * * * * * * * * * * * * * * * * * * * //

dimensions      [0 0 0 1 0 0 0];

internalField   nonuniform List<scalar> 
3200
(
0.00481763
0.00454922
0.00420276
0.00423169
0.00440752
0.00491101
0.00524263
0.00585161
0.00645657
0.00716505
0.00771046
0.00820701
0.00861811
0.008938
0.00942878
0.0098581
0.0104856
0.0114811
0.0122863
0.0130757
0.00448554
0.00358974
0.00330793
0.00359511
0.00359519
0.00380232
0.00431827
0.00471734
0.0055938
0.005939
0.00644879
0.00663582
0.00735991
0.00761427
0.00805308
0.0083726
0.00909333
0.00969868
0.0106227
0.0112869
0.00335915
0.00312532
0.00282419
0.00286298
0.0027317
0.00326427
0.00358987
0.00392186
0.00458055
0.0049079
0.00515224
0.00571929
0.00600447
0.00612157
0.00668746
0.00695045
0.00763688
0.00846786
0.00894175
0.00960855
0.00277069
0.00257598
0.00214033
0.00199135
0.00228968
0.00243447
0.00257541
0.00323214
0.00368414
0.00398141
0.0042379
0.00476153
0.00467125
0.00493202
0.00539322
0.00567967
0.00606183
0.00671177
0.00729527
0.0077524
0.00206309
0.00185864
0.00183406
0.00161964
0.00167586
0.0020415
0.00226721
0.00245479
0.0026031
0.00302645
0.00332932
0.00361346
0.00384822
0.00391109
0.00418704
0.00456763
0.00476796
0.00504145
0.00600529
0.00609181
0.00146134
0.0014525
0.00116358
0.00117963
0.00145411
0.00145684
0.00146289
0.0018327
0.00173148
0.00216331
0.00241855
0.00230882
0.00284326
0.00271695
0.00277395
0.00324624
0.00350313
0.00391689
0.0041361
0.00453668
0.000701983
0.000893827
0.000597198
0.000676747
0.000779801
0.000648871
0.000902776
0.00100573
0.00110109
0.00130412
0.00148622
0.00153651
0.00158123
0.00186437
0.00175833
0.00185721
0.00218976
0.00221964
0.00238966
0.00251673
0.000270466
6.59448e-05
0.00030794
0.000208963
2.25768e-05
0.000561453
0.000484154
0.000276029
0.00041715
0.000477305
0.000559257
0.000654486
0.00050273
0.000333001
0.000589723
0.000626249
0.00080308
0.000641502
0.000706763
0.000901403
0.00269871
0.00235643
0.00188479
0.00151081
0.00181248
0.00192096
0.00276604
0.00301935
0.00361361
0.004386
0.00489516
0.005379
0.00566891
0.00631143
0.00690571
0.00720668
0.00807959
0.00879921
0.00982851
0.0107082
0.00219795
0.00204923
0.00148368
0.00142979
0.00158599
0.00186792
0.00222163
0.00267619
0.00339565
0.00364894
0.0044908
0.00448638
0.0049811
0.00531741
0.00561728
0.0062166
0.00697777
0.00760692
0.00851447
0.00942233
0.00192275
0.00156904
0.00113374
0.00116998
0.00132553
0.00133951
0.00169592
0.00221675
0.00269178
0.00300178
0.00341977
0.00380801
0.00426043
0.00456542
0.00486732
0.00525088
0.00587066
0.00659285
0.0071668
0.00812294
0.00157466
0.00138161
0.00104302
0.000926702
0.000726812
0.00114051
0.0014132
0.00181008
0.00207929
0.00246142
0.00266163
0.00309652
0.00325517
0.00364046
0.00389133
0.00433095
0.00479876
0.005407
0.00609756
0.00655709
0.00118194
0.00104251
0.000946692
0.000637381
0.000824474
0.000904135
0.00112246
0.00149494
0.00175543
0.00199087
0.00220567
0.00233403
0.0024841
0.00303356
0.0030926
0.00331863
0.00361689
0.00399105
0.00461709
0.00538231
0.000875287
0.000641427
0.00051552
0.000259624
0.000557232
0.000559934
0.000908041
0.000832037
0.000863594
0.00145748
0.00137666
0.00175737
0.00177376
0.00196174
0.00222042
0.0022755
0.00271414
0.00304569
0.00346979
0.00380749
0.000466367
0.000502436
0.000455547
0.000355269
4.35645e-05
0.000455294
0.000426054
0.000545543
0.000779279
0.00106402
0.000976329
0.000927779
0.00107797
0.00116311
0.00148427
0.00144158
0.00158602
0.00173445
0.00192225
0.00223228
0.000142836
2.97597e-05
7.5694e-05
0.000160669
5.84051e-05
1.25999e-05
0.00010177
0.000212818
0.00011807
0.000332525
0.00019246
0.000223697
0.000475274
0.000306629
0.00025061
0.000344435
0.000346753
0.000622145
0.00096938
0.000662775
0.000261207
0.000668052
0.00114324
0.00136272
0.00136632
0.00131595
0.000876752
0.000298848
0.000320317
0.000925906
0.00136483
0.00193436
0.00239005
0.00286317
0.00331075
0.00385674
0.00486105
0.00585891
0.00684509
0.00792482
6.67075e-07
0.000583308
0.00125332
0.00119177
0.00138646
0.00116944
0.000794616
0.000345598
0.000339179
0.000843551
0.00128321
0.00143337
0.00190983
0.00253934
0.00303281
0.00344488
0.00430575
0.00509732
0.00617962
0.00711789
0.000186507
0.000604615
0.00110631
0.00124947
0.00120014
0.0009878
0.000924646
3.90448e-05
1.68506e-05
0.000675665
0.000989846
0.00151215
0.00173961
0.00213812
0.00261631
0.0028898
0.00367804
0.00423796
0.00524762
0.00606284
0.000101698
0.000468476
0.000859681
0.000975535
0.00101494
0.00112744
0.00065109
0.000323019
6.51755e-05
0.000470453
0.000859562
0.00110907
0.0013155
0.00173612
0.00206081
0.00227557
0.00305769
0.00384308
0.00427282
0.00503436
5.99872e-05
0.000387064
0.000573228
0.000884675
0.000870365
0.00086129
0.000409151
0.000257018
5.21024e-05
0.000385233
0.00068377
0.000952255
0.000859259
0.00109165
0.00167364
0.00199793
0.00250324
0.00269657
0.00342978
0.00383565
7.83995e-05
0.000385481
0.000494688
0.000704119
0.000633018
0.000629068
0.000352184
8.30667e-05
8.48508e-05
0.000191377
0.000403105
0.000447342
0.000775209
0.000944512
0.000959985
0.00120383
0.00158826
0.00204977
0.002328
0.00265244
5.8303e-05
8.56616e-05
0.000245174
0.000417902
0.000406932
0.00047717
4.21483e-05
0.000293827
3.16339e-05
9.77577e-05
0.000264174
0.000264319
0.000416065
0.000363215
0.000631619
0.000847779
0.00103865
0.00143455
0.00145479
0.00161718
0.000160124
0.000102029
0.000232461
5.25912e-05
7.72408e-05
0.000167488
0.00015336
4.76354e-05
0.0001114
1.16747e-05
5.48371e-05
0.00016514
0.000100003
0.000275346
3.13253e-05
0.000442606
0.000351675
0.000601325
0.000741246
0.00051862
0.00272226
0.00360755
0.00405438
0.00477571
0.00456157
0.0044974
0.00424854
0.0037141
0.00313855
0.00244633
0.00226555
0.00181991
0.00132596
0.000677223
0.000141219
0.000729841
0.00133261
0.00282783
0.00383423
0.00534499
0.00253361
0.0030282
0.00362489
0.00410221
0.00421433
0.0038946
0.00378172
0.00335298
0.0028144
0.00238303
0.00188203
0.00156132
0.000957308
0.000299757
3.35148e-05
0.000555128
0.00126256
0.00262006
0.00364234
0.00454601
0.00211878
0.00260985
0.00322887
0.00324707
0.00348365
0.00337444
0.00323239
0.00301151
0.00233761
0.00189193
0.00184661
0.00134595
0.00104104
0.000399867
0.00029813
0.000540449
0.00110865
0.00208223
0.00311026
0.00384416
0.00177668
0.00222222
0.00278476
0.00304957
0.00298912
0.00283007
0.00267374
0.00230587
0.00206208
0.00185664
0.00135636
0.000994011
0.000801775
0.00038006
5.67471e-05
0.000410795
0.00108999
0.00171133
0.0022883
0.00317716
0.00154504
0.00176955
0.00228577
0.00231486
0.00233413
0.00216721
0.00222889
0.00200703
0.00175265
0.00114784
0.00108343
0.000927249
0.000822898
0.000353549
1.26258e-05
0.000342066
0.00113719
0.0011852
0.00214324
0.00259697
0.00115076
0.00124527
0.00154333
0.00168537
0.00163945
0.0019537
0.00164527
0.0013739
0.00129597
0.000974853
0.000779753
0.000627081
0.000467038
0.000400877
8.10492e-05
0.000227344
0.000786616
0.000780539
0.00138713
0.00187662
0.000817994
0.000783815
0.00118253
0.00104868
0.00100822
0.00110147
0.00099964
0.000965704
0.000845498
0.000817696
0.000308582
0.000462565
0.000387974
0.000211425
0.00025788
0.000105926
0.00042486
0.000783897
0.00102034
0.00102465
0.00021841
0.000324702
0.00051687
0.000165852
0.000235395
0.00048765
0.000231216
0.000172594
0.000261739
0.000360529
0.000282865
0.000104446
1.57166e-05
3.28244e-05
0.000127988
9.30111e-05
7.90466e-05
0.000122937
0.000175969
0.000459335
0.00558761
0.00614373
0.00702999
0.00754377
0.0078019
0.00761779
0.00746455
0.00701137
0.00671948
0.00586488
0.00555158
0.00509595
0.00436711
0.00397203
0.00314684
0.00237929
0.00133995
0.00026583
0.00122258
0.0023571
0.00475837
0.00536639
0.00624369
0.00645275
0.00684212
0.00672171
0.00654293
0.00590459
0.00591377
0.00550428
0.00493863
0.00449961
0.00393405
0.00365704
0.00265744
0.00193014
0.00105015
2.89728e-05
0.00126485
0.00227223
0.00414459
0.00485235
0.00530103
0.00567064
0.00583953
0.00584804
0.00569251
0.00532949
0.00504076
0.00461324
0.00412442
0.0039009
0.00336957
0.00285966
0.00237113
0.00173699
0.00111743
6.86869e-06
0.000992112
0.00204461
0.00352394
0.00395532
0.00432937
0.00454021
0.00481125
0.00480561
0.0047515
0.00439577
0.00403178
0.00385839
0.00349585
0.00309727
0.00281719
0.00235806
0.00173061
0.00116519
0.000722466
6.10338e-06
0.000963541
0.00146029
0.0026189
0.00290776
0.00350272
0.00380018
0.00382682
0.00377637
0.00373105
0.00365305
0.00318798
0.00309993
0.00264287
0.00244355
0.00235024
0.001858
0.00146345
0.0011495
0.00059539
6.02679e-05
0.00102928
0.0012679
0.00185207
0.00223369
0.00243971
0.00272218
0.00274215
0.00255788
0.00270878
0.00265908
0.00235583
0.00221204
0.00220468
0.00171636
0.00181228
0.00142286
0.00115345
0.000806559
0.000639522
6.87031e-05
0.000469063
0.00100635
0.00111368
0.00137067
0.00150956
0.00156289
0.0016675
0.00151796
0.00167751
0.00150604
0.00171239
0.00152054
0.00126818
0.00106249
0.000928302
0.000958611
0.000895339
0.00064649
0.000295568
9.93215e-07
0.000228131
0.000680807
0.000454944
0.000334331
0.000367793
0.000562711
0.000410972
0.000537475
0.000662663
0.000333083
0.000401591
0.000433369
0.000473259
0.000202596
0.000371835
0.000295634
9.82712e-05
0.000133439
0.000111721
0.00014207
2.77039e-05
0.000192329
0.00772979
0.00870741
0.00940771
0.0100147
0.0103045
0.0104909
0.01063
0.0100341
0.00967065
0.00918358
0.0086096
0.0081215
0.00760874
0.00673716
0.00597561
0.00521356
0.00394829
0.00262787
0.00111059
0.000127438
0.00680904
0.00753876
0.00826589
0.00888774
0.00900746
0.00923589
0.00911552
0.00874288
0.0086271
0.00807437
0.00770276
0.00702832
0.00659273
0.00594955
0.00537732
0.00447857
0.00353022
0.00214357
0.00108816
0.000288236
0.00552273
0.00645389
0.00710392
0.00738425
0.00793861
0.00788515
0.00796729
0.00749721
0.00739505
0.006925
0.00658015
0.00583962
0.00559923
0.00514401
0.00453948
0.00372847
0.00283362
0.00188752
0.00074556
0.000159328
0.00458539
0.00515676
0.00561742
0.00612096
0.00637279
0.0065737
0.00641314
0.00623866
0.00615407
0.00577277
0.00538254
0.0051491
0.00476736
0.00446272
0.00381064
0.0031988
0.00225558
0.00147701
0.000338031
4.13201e-05
0.00366065
0.00416593
0.00466235
0.00498785
0.00487723
0.00534074
0.00509954
0.00490414
0.00472718
0.0046511
0.00420273
0.00416394
0.00389788
0.00335617
0.0029021
0.00236182
0.00196301
0.00132757
0.000612157
9.44395e-05
0.00297892
0.00314133
0.00341577
0.00343735
0.00366358
0.00381964
0.00386057
0.00359974
0.00352061
0.00323541
0.00306134
0.0030672
0.00294444
0.00259748
0.00211998
0.00165797
0.00123128
0.000762127
0.000295609
0.000128998
0.00183673
0.00188744
0.00196423
0.00212652
0.00228232
0.00203297
0.00238535
0.00222436
0.00210818
0.0022141
0.00186387
0.00178682
0.00158563
0.00150382
0.00125538
0.00115591
0.00083758
0.000418895
0.000278329
4.59537e-05
0.000645861
0.000630054
0.000667249
0.000626189
0.000651679
0.000912369
0.000741079
0.000797166
0.00090357
0.000538489
0.000790444
0.000595843
0.000517683
0.000433072
0.000462776
0.000681674
0.000259467
2.75581e-05
0.000135248
0.000179803
0.00949959
0.0106296
0.0115475
0.012225
0.0126128
0.0128668
0.012843
0.0127058
0.0124956
0.0117255
0.0112916
0.0109877
0.00997908
0.00952041
0.0085351
0.00744526
0.00648512
0.00497606
0.00304807
0.00182684
0.00825451
0.00915478
0.0101421
0.0106336
0.0110568
0.0114913
0.0113636
0.0111398
0.010816
0.0105288
0.00991819
0.00948586
0.0088653
0.00816461
0.00743969
0.00674596
0.00542063
0.0041127
0.00267425
0.00150091
0.00721224
0.00774686
0.00858177
0.00907009
0.009492
0.00955204
0.0097996
0.0096197
0.00925017
0.00887982
0.00842874
0.00814763
0.00748278
0.00698681
0.00631465
0.00559199
0.00457635
0.00350211
0.00248037
0.00133282
0.00591429
0.0065154
0.00695612
0.00750059
0.0080241
0.00814912
0.00788016
0.00784343
0.00784951
0.00734672
0.00721717
0.00681593
0.00632713
0.00588922
0.00530552
0.00470346
0.00374253
0.00282546
0.00186789
0.000817528
0.00470105
0.00507104
0.00575995
0.00588595
0.00610453
0.00619606
0.00620863
0.006328
0.00620023
0.00584303
0.00534664
0.00531684
0.0049471
0.00466297
0.00409804
0.00370908
0.00279688
0.00243512
0.00116661
0.000770164
0.00333248
0.00362063
0.00402765
0.00443528
0.00471417
0.00461653
0.00473053
0.00453225
0.0042245
0.00445833
0.00385976
0.00388318
0.00363393
0.00345527
0.00307089
0.0025829
0.00201275
0.00155718
0.00109818
0.000644431
0.00199042
0.00204522
0.00262798
0.00275934
0.00293289
0.00300965
0.0028723
0.00296137
0.00259811
0.00248106
0.00249496
0.0024512
0.00222296
0.00206297
0.00183736
0.00149774
0.00123318
0.000924392
0.00061296
0.000512035
0.00067544
0.000753357
0.00110638
0.000797085
0.000966776
0.00117133
0.000705812
0.000780775
0.00113648
0.000875128
0.000604896
0.000788951
0.000870382
0.00054557
0.000558863
0.000615721
0.000519079
0.000111527
0.000253892
0.000152138
0.0106774
0.0118686
0.0129588
0.0139615
0.0145358
0.0147197
0.0147833
0.0147582
0.0144471
0.0140766
0.0136182
0.0131418
0.0122603
0.0115616
0.0104663
0.00932041
0.0079182
0.00630845
0.00481457
0.00320255
0.00931373
0.010316
0.0111886
0.0119583
0.0125308
0.0130455
0.0130031
0.0129834
0.0126901
0.0123487
0.0119608
0.0113557
0.0109006
0.00995198
0.00929052
0.00806827
0.0068038
0.00582163
0.0039631
0.00279407
0.00806749
0.0088323
0.00984968
0.0103702
0.0109092
0.0112542
0.0111656
0.0111327
0.0109202
0.010708
0.0101405
0.00971267
0.00910142
0.00854932
0.00776848
0.00706436
0.00589199
0.00472092
0.00337544
0.00221315
0.00660122
0.00738734
0.00788413
0.00856763
0.00912436
0.0091339
0.00935171
0.00934781
0.00903067
0.00891445
0.00842951
0.00785076
0.00789965
0.00724401
0.00622467
0.00574359
0.0047097
0.00384034
0.00283833
0.00179116
0.00535463
0.00579847
0.00629407
0.00681584
0.00714989
0.00734262
0.00735439
0.00727332
0.00707019
0.00710649
0.00649426
0.00631132
0.00621493
0.00570667
0.00508713
0.00463913
0.00389526
0.00304797
0.00223673
0.00126343
0.0037922
0.00409594
0.004582
0.00491259
0.00511092
0.00519333
0.00538503
0.00525
0.00517207
0.00521071
0.00501108
0.00467264
0.00451872
0.00407838
0.00374215
0.00317324
0.00277835
0.00241316
0.00158622
0.00116802
0.00242601
0.00264943
0.00292627
0.00323125
0.00313742
0.0033279
0.00315725
0.00319871
0.00301642
0.0034392
0.0027445
0.00282591
0.00268398
0.00240464
0.00234664
0.002194
0.00176827
0.00131745
0.00090488
0.000600624
0.000657605
0.000876628
0.000811207
0.000999028
0.00111353
0.00110596
0.00113818
0.000965182
0.00099317
0.00103177
0.00109704
0.00086634
0.000938065
0.00106376
0.000687612
0.00073914
0.000851312
0.000621046
0.000355577
0.000302177
0.011691
0.01266
0.0138756
0.0151439
0.0157065
0.0165258
0.0165612
0.0163498
0.0163935
0.0160314
0.0153672
0.0147349
0.0140497
0.0132116
0.0120965
0.0106978
0.00925656
0.00782012
0.00586463
0.00407649
0.0100531
0.0112307
0.0121732
0.0133384
0.0138377
0.0142126
0.0144514
0.014295
0.0142383
0.0139893
0.0133093
0.0126242
0.0126251
0.0116606
0.0104783
0.00936295
0.00830697
0.00659223
0.00495343
0.00356433
0.0086853
0.00967439
0.0106344
0.0112766
0.0119449
0.0123676
0.012442
0.0123841
0.0122429
0.0119901
0.0115565
0.0110161
0.0105852
0.00986562
0.00895841
0.00814816
0.00707571
0.00536199
0.00421897
0.00302848
0.00721972
0.00778332
0.00863283
0.00947913
0.00997518
0.0102925
0.0104257
0.0102463
0.010147
0.00998475
0.00948868
0.00921905
0.00875381
0.00804271
0.00733495
0.00672766
0.00555685
0.00470726
0.0035459
0.00266948
0.00551282
0.00620511
0.00676128
0.00747365
0.00774072
0.00796915
0.00808862
0.00802853
0.00788529
0.00782693
0.00766794
0.0071784
0.00670552
0.00631239
0.00584119
0.00499211
0.00420802
0.00357873
0.00271337
0.00181651
0.00414997
0.00456863
0.00468068
0.00547407
0.00571494
0.00554812
0.00582026
0.00577991
0.00579148
0.00553937
0.00552319
0.00525661
0.00484487
0.00457736
0.00422183
0.00371162
0.00319989
0.00262884
0.00196269
0.00154357
0.00264645
0.00264529
0.00328946
0.00348196
0.00344427
0.00372052
0.00346026
0.0036946
0.00353631
0.00327618
0.00329536
0.00320252
0.00309206
0.00277395
0.00247918
0.00246352
0.00204152
0.00151456
0.00106058
0.000938034
0.000823088
0.000963966
0.000688439
0.00114604
0.00119026
0.00123559
0.00131892
0.00129137
0.00108993
0.00139716
0.00122785
0.000956115
0.00114776
0.000845476
0.00085428
0.000868269
0.00056486
0.000643981
0.000395188
0.000473222
0.0117317
0.0131864
0.0147118
0.0158963
0.0165098
0.0171227
0.0177262
0.0175418
0.0174796
0.0173784
0.0166277
0.0162774
0.0152796
0.0145063
0.0131865
0.0118546
0.0100476
0.00842234
0.0063376
0.00462211
0.0103634
0.0117003
0.0127497
0.0136177
0.0144812
0.0151072
0.015411
0.0152351
0.01556
0.0149986
0.014622
0.0139801
0.0133434
0.0125209
0.0114911
0.0103584
0.00877968
0.00708599
0.00555239
0.00376424
0.00897144
0.00990716
0.0109963
0.0118711
0.0126067
0.0128154
0.0130109
0.0130647
0.0129774
0.0129068
0.0125813
0.0117859
0.0115478
0.0106118
0.00987578
0.00869934
0.00747377
0.00600288
0.00461878
0.00301178
0.00741323
0.00823327
0.0091548
0.00981169
0.0103194
0.0106223
0.0108602
0.0107545
0.0107414
0.0105725
0.0102306
0.00999758
0.00920851
0.00871926
0.00796348
0.00739686
0.00608231
0.00506279
0.00366848
0.00259768
0.00586363
0.00653206
0.00714992
0.00763538
0.00815679
0.00836021
0.00853748
0.0085014
0.00836643
0.0085737
0.00807203
0.00782949
0.00761126
0.00677015
0.00632874
0.0056346
0.00485623
0.00387744
0.00292193
0.00196608
0.00420233
0.00464998
0.0050106
0.00557717
0.00613343
0.00594242
0.00616157
0.00643982
0.00610301
0.00595992
0.00591292
0.0057422
0.00505922
0.00515655
0.00462557
0.00407361
0.00363207
0.00292128
0.00215978
0.00168452
0.00229236
0.00296602
0.00308374
0.00311412
0.00342172
0.00382214
0.00399144
0.0038266
0.00361673
0.00387102
0.00363165
0.00360485
0.00314253
0.00323981
0.00291623
0.00253727
0.00196418
0.00154539
0.00131005
0.00121812
0.000744815
0.00102466
0.000985034
0.00111364
0.0012554
0.00127818
0.00128234
0.00116654
0.00123878
0.00122101
0.0014246
0.00125407
0.000950576
0.000984675
0.000683288
0.000761045
0.000853286
0.000807308
0.000431132
0.000306629
0.0116409
0.0132872
0.0147092
0.0158574
0.0172409
0.0175974
0.0178703
0.0182102
0.0178992
0.0178574
0.0171308
0.0166016
0.0160705
0.0148155
0.0135331
0.0122964
0.0104437
0.00867153
0.00644334
0.00460858
0.0103608
0.0115144
0.0126947
0.0140989
0.0147667
0.0151108
0.0158096
0.015816
0.0157973
0.015475
0.0151019
0.0146112
0.0137728
0.0126908
0.0116236
0.0105274
0.00916172
0.00760489
0.00553454
0.00382364
0.00847809
0.00972627
0.0108864
0.0117866
0.0126674
0.0133246
0.0136539
0.0137224
0.0135711
0.0134661
0.0129361
0.01239
0.0118225
0.0110064
0.00993982
0.00887472
0.00762543
0.00608938
0.00472205
0.0033885
0.00708096
0.00817854
0.00907956
0.00976652
0.0104887
0.0109427
0.0111756
0.0111891
0.0111063
0.0108499
0.0109456
0.0101769
0.0098572
0.00918316
0.00822177
0.00722543
0.00635136
0.00507699
0.00365779
0.00282453
0.00576752
0.00642454
0.00724326
0.00798329
0.00840992
0.00852807
0.00892374
0.00899063
0.00879904
0.00884127
0.00855878
0.00814319
0.00767838
0.00713514
0.00653441
0.00575691
0.00506965
0.00411503
0.00292233
0.00216584
0.00411303
0.00471693
0.00493027
0.00581604
0.00599706
0.00624064
0.0064325
0.00624103
0.00663226
0.0061326
0.00595004
0.00593304
0.00577964
0.00521845
0.00485651
0.00412604
0.00382539
0.00278988
0.00199732
0.00174598
0.00250947
0.00289867
0.00306366
0.00365981
0.00394887
0.00379265
0.00398659
0.00384319
0.00389354
0.00383982
0.00353351
0.00377377
0.00342737
0.00334151
0.0031187
0.00241444
0.00212439
0.00169951
0.00121465
0.000975377
0.000869211
0.000898593
0.000828462
0.00140437
0.00102603
0.00118738
0.00109715
0.00117966
0.00122318
0.00128966
0.00120331
0.00116289
0.00125117
0.000996327
0.00110813
0.000950572
0.000697225
0.000334281
0.000494927
0.000191251
0.0109032
0.0126408
0.014292
0.0155102
0.0168387
0.0174681
0.0180647
0.0182321
0.0181613
0.0180012
0.0173472
0.0166387
0.0160134
0.0147256
0.0135184
0.0119848
0.0101788
0.00820475
0.00601988
0.00369725
0.00943363
0.0106618
0.0123386
0.013635
0.0147969
0.0151105
0.0158232
0.015945
0.0160557
0.0157068
0.0153848
0.0145689
0.0139088
0.0128743
0.0118752
0.0103717
0.00880696
0.00701546
0.00490644
0.00321487
0.00816465
0.00926605
0.010531
0.0114737
0.0124283
0.0128656
0.0134382
0.0134403
0.0136786
0.0131454
0.0129247
0.0125594
0.011731
0.0109605
0.0100012
0.00889689
0.00752381
0.00597002
0.00444216
0.00282006
0.00669795
0.00767803
0.00873651
0.00952355
0.0102914
0.0106841
0.0110491
0.011056
0.0112822
0.0110653
0.0107071
0.010257
0.00981035
0.00914775
0.00806497
0.00717229
0.00611979
0.0049143
0.00361641
0.00232026
0.00531452
0.00596906
0.00691866
0.00753872
0.00810682
0.00864639
0.00869829
0.00878151
0.00887794
0.00889677
0.00848617
0.00835203
0.00771772
0.00718571
0.0066454
0.00580127
0.0045741
0.00377683
0.00264325
0.00170837
0.00389495
0.00437332
0.00488028
0.00543903
0.00591263
0.00598969
0.00639694
0.0065821
0.00670182
0.00635771
0.00615338
0.00582915
0.00554837
0.00528746
0.00459615
0.00401791
0.00336042
0.00266106
0.00173522
0.00122237
0.00233279
0.00292763
0.00298764
0.00343178
0.00351928
0.0036185
0.0039313
0.00393261
0.00378878
0.0037435
0.00392079
0.00358016
0.00341339
0.00334787
0.00285935
0.00216853
0.00211564
0.00177043
0.00123602
0.00074615
0.000876386
0.000770829
0.00116822
0.00103609
0.000991126
0.00107262
0.0011931
0.00153255
0.0015399
0.00139985
0.0012519
0.0012302
0.00144862
0.00107345
0.000906012
0.000752703
0.000611934
0.000592049
0.000500832
0.000334593
0.00965462
0.0112987
0.0131253
0.0147232
0.0157836
0.0167577
0.0173874
0.0177538
0.017711
0.0174242
0.0169746
0.0164519
0.0155614
0.0142342
0.0128368
0.0113697
0.00956097
0.00733793
0.00501798
0.00296174
0.00843624
0.00972132
0.011425
0.0127822
0.0136697
0.0146089
0.0152405
0.0153885
0.0154663
0.015376
0.0148719
0.0141317
0.0132133
0.0124952
0.0110642
0.00965631
0.00808188
0.00604939
0.00448031
0.00228497
0.00724747
0.00841312
0.00960867
0.0108017
0.0119149
0.0127232
0.0130933
0.0130193
0.0131896
0.0129499
0.0128491
0.012178
0.0114885
0.0105463
0.00958061
0.00812022
0.00695819
0.0049932
0.00336039
0.00186324
0.00582394
0.00674583
0.00791733
0.00882058
0.00990652
0.0101658
0.0105664
0.01079
0.0108487
0.0107837
0.010447
0.0101875
0.00958679
0.00886016
0.00787361
0.00664462
0.00567365
0.00400704
0.00294529
0.00173281
0.00448107
0.00525961
0.00607356
0.00694023
0.00790345
0.00824302
0.008171
0.00866384
0.00862288
0.00841701
0.00829497
0.00790664
0.00769341
0.00703812
0.00612828
0.00514762
0.00434528
0.00301961
0.00214397
0.00119228
0.00344525
0.00381505
0.00432745
0.00514768
0.00556704
0.00604234
0.00608667
0.0062363
0.00626168
0.0060347
0.00620377
0.00554278
0.00549692
0.00500479
0.00444183
0.00398793
0.0030849
0.00238895
0.00153936
0.000956145
0.00213656
0.00265374
0.00284892
0.00319354
0.00343632
0.00346377
0.00367363
0.00372215
0.00394665
0.00378025
0.00367827
0.00350849
0.00332797
0.00305483
0.00291285
0.00245636
0.00198169
0.00126051
0.00094082
0.000516641
0.0007333
0.000820084
0.0008879
0.00112347
0.00116771
0.00117003
0.00127223
0.0014822
0.00129652
0.00162134
0.00103573
0.00122561
0.00140168
0.00105039
0.000772683
0.000822244
0.000450215
0.000531068
0.000493255
5.06191e-05
0.00784002
0.00954089
0.011332
0.0130434
0.0143958
0.0154916
0.0159663
0.0164697
0.0165314
0.0165547
0.0160158
0.0151483
0.0144067
0.0132021
0.0116834
0.00996359
0.00816346
0.00592786
0.00329663
0.00117358
0.00669613
0.00805556
0.00977337
0.0113271
0.0124196
0.0133983
0.0138915
0.0142206
0.0145573
0.0144813
0.0140107
0.0134578
0.0125801
0.0113637
0.0100228
0.00861686
0.00677721
0.00487736
0.0025926
0.000872729
0.00560073
0.00694359
0.00834921
0.00977671
0.0107021
0.0113715
0.0121685
0.0121516
0.0123436
0.0120508
0.0119747
0.0112937
0.0105379
0.0096038
0.00859222
0.00703972
0.00584173
0.00396232
0.0022082
0.000649782
0.00465774
0.00585779
0.00694185
0.0080263
0.00864165
0.00941105
0.0100254
0.0104214
0.00994023
0.0100765
0.00988433
0.00939407
0.00886603
0.00794525
0.00714798
0.00598691
0.00491495
0.00316276
0.00183072
0.000380195
0.00379334
0.00452275
0.00541593
0.00627499
0.00707961
0.00752014
0.00784883
0.00819417
0.00801143
0.00801019
0.00765853
0.00736014
0.00686594
0.00632346
0.0056545
0.00443413
0.00340377
0.00241333
0.00147062
0.00030652
0.00280355
0.00322314
0.00370619
0.0044428
0.00499968
0.00552247
0.00550839
0.00578676
0.00593744
0.00566906
0.00567652
0.00544295
0.00487292
0.00465999
0.00413845
0.00350645
0.00265846
0.0016946
0.000839417
0.00016364
0.00163123
0.00211376
0.00243609
0.00259824
0.00299033
0.00321763
0.00376399
0.00366753
0.00354152
0.00356255
0.003194
0.00319684
0.00289293
0.00269903
0.00234723
0.00200821
0.0016688
0.00110506
0.000424007
8.52987e-06
0.000356148
0.000672106
0.000451726
0.00106347
0.00123455
0.00122035
0.00128075
0.00107307
0.00126859
0.00116344
0.00120638
0.00113931
0.000978784
0.00105422
0.00082425
0.000967655
0.000605334
0.000363375
7.4689e-05
3.83296e-05
0.00523398
0.00724944
0.00927962
0.0110622
0.0123773
0.0134286
0.0145001
0.0146241
0.0147832
0.0150141
0.0143283
0.0135997
0.0127209
0.0114528
0.00998433
0.0079528
0.00599116
0.0036146
0.00131089
0.000976752
0.00462275
0.00632664
0.00794251
0.00936789
0.0107949
0.0115356
0.0124623
0.0126027
0.0128667
0.012709
0.0125931
0.011925
0.0108289
0.0097062
0.00851155
0.00679386
0.00477463
0.00292981
0.000839467
0.0012454
0.00394371
0.00498357
0.00671163
0.00802926
0.00920524
0.00998939
0.0105246
0.0109853
0.0110306
0.0109152
0.0105636
0.00993872
0.00919322
0.00831291
0.00733931
0.00570828
0.00420554
0.00248632
0.000523959
0.00111031
0.00301246
0.00423269
0.005606
0.00648839
0.00753746
0.0080943
0.00847781
0.00898931
0.00904322
0.00917552
0.00872582
0.00829446
0.00778956
0.00674822
0.00584069
0.00468581
0.00337642
0.00175277
0.000221836
0.00120853
0.0025041
0.00319836
0.0044845
0.0053208
0.00588157
0.00645025
0.00682132
0.00701792
0.00724253
0.00707273
0.00679072
0.0063566
0.005969
0.00530948
0.00461521
0.00353507
0.0029118
0.00147334
3.8113e-05
0.000855468
0.00187151
0.0022972
0.00310959
0.00368608
0.00430005
0.00481587
0.00507282
0.00506025
0.00526752
0.00512212
0.00501879
0.00473514
0.00442178
0.00381078
0.00335338
0.00280383
0.00205651
0.00116028
0.000136934
0.00048292
0.000937053
0.00150229
0.00189947
0.00233136
0.00267955
0.00278684
0.00305104
0.00302045
0.00312029
0.00335155
0.00301566
0.00299659
0.00290731
0.00247169
0.00212249
0.00153496
0.00115578
0.000624079
0.000129948
0.000455504
0.000402157
0.000377985
0.000341954
0.000937088
0.000925064
0.00106803
0.00119245
0.000986615
0.00124359
0.000964281
0.00111593
0.00101804
0.000925931
0.00103676
0.000670064
0.000636757
3.94605e-05
0.000275509
3.83968e-05
0.000290904
0.00238933
0.00439376
0.00640103
0.00841745
0.00981545
0.011143
0.0118961
0.0124597
0.0126292
0.0124686
0.0119977
0.0115164
0.0102928
0.00905925
0.00751158
0.00577536
0.00375319
0.00117884
0.00137964
0.00358254
0.00159809
0.00371591
0.00550246
0.00709867
0.00850311
0.00944742
0.0102458
0.0107521
0.011022
0.0106296
0.0104774
0.00989496
0.00903215
0.00789144
0.00646057
0.00494923
0.00304969
0.000612595
0.00163449
0.00353043
0.00171202
0.00304425
0.00455063
0.00604912
0.0069579
0.00806345
0.0087717
0.00919265
0.00914545
0.00913287
0.00890778
0.00823664
0.00756131
0.00653777
0.00529326
0.00374335
0.00222823
0.000489325
0.00141005
0.00313859
0.00121566
0.00233026
0.00391704
0.00479923
0.00601624
0.00674095
0.00710074
0.00757258
0.00759065
0.00759683
0.00718965
0.00684458
0.00611397
0.0053522
0.00448425
0.00294585
0.00176694
0.000241935
0.00144166
0.00263918
0.000734415
0.00172305
0.00303373
0.00362248
0.00444428
0.00505114
0.00554291
0.00563029
0.00609472
0.00592563
0.00592975
0.00533973
0.00505577
0.00429539
0.00331418
0.0024181
0.00109384
7.82606e-05
0.00122632
0.00233416
0.000581418
0.000948284
0.0020829
0.00248488
0.00330724
0.00387299
0.00392147
0.00426601
0.00450256
0.00419067
0.00411224
0.00394794
0.00374628
0.00298566
0.00241888
0.00195354
0.000648051
0.000119916
0.000840956
0.00152831
0.000245304
0.000721741
0.0011859
0.00135684
0.0020508
0.00233593
0.00240106
0.00222822
0.00263886
0.00283391
0.00263028
0.00235026
0.00241783
0.00174546
0.0014481
0.000870602
0.000606082
0.000171915
0.000674068
0.00103255
2.79944e-05
0.00043835
0.000431755
0.000634503
0.000595649
0.000647804
0.00105364
0.000890786
0.00103067
0.00104532
0.000926458
0.000776842
0.000684048
0.000699829
0.000451268
0.00039062
0.000169181
4.22119e-05
0.000245013
0.000378599
0.00105838
0.00114637
0.00318313
0.00506158
0.00685275
0.007959
0.0089973
0.00967048
0.00980483
0.00960312
0.0093382
0.00850198
0.00777226
0.00638639
0.0046812
0.00276225
0.000442324
0.00192405
0.00439958
0.00673736
0.00118194
0.000566253
0.00267955
0.00441446
0.00584428
0.00653744
0.00773364
0.0082719
0.00832376
0.00831087
0.00800642
0.00711809
0.00655583
0.00522548
0.00398524
0.00209496
0.000328281
0.00179379
0.0042487
0.00643261
0.00126253
0.000405693
0.00193238
0.00339243
0.00459114
0.00577706
0.00625029
0.00683864
0.00693376
0.0070736
0.00663246
0.0059511
0.00552319
0.00452714
0.00330787
0.00158709
6.24802e-05
0.00194434
0.00400812
0.00568479
0.0010911
0.000363956
0.00160932
0.00275387
0.00402878
0.00469306
0.00521158
0.00553757
0.00572667
0.00577582
0.00555139
0.00490005
0.00428501
0.00354161
0.00249369
0.00134693
8.36693e-05
0.00165886
0.0035452
0.00466689
0.000787093
0.000116729
0.00134211
0.00212657
0.00299798
0.0036437
0.00413819
0.00439567
0.00449901
0.00451182
0.00412183
0.00392205
0.00356932
0.00269532
0.00189301
0.000805391
7.32119e-05
0.0013538
0.00263292
0.00382552
0.000555042