/*--------------------------------*- C++ -*----------------------------------*\
| =========                 |                                                 |
| \\      /  F ield         | OpenFOAM: The Open Source CFD Toolbox           |
|  \\    /   O peration     | Version:  2212                                  |
|   \\  /    A nd           | Website:  www.openfoam.com                      |
|    \\/     M anipulation  |                                                 |
\*---------------------------------------------------------------------------*/
FoamFile
{
    version     2.0;
    format      ascii;
    arch        "LSB;label=32;scalar=64";
    class       volScalarField;
    location    "0";
    object      relativeErrorField;
}
// * * * * * * * * * * * * * * * * * * * * * * * * * * * * * * * * * * * * * //

dimensions      [0 0 0 1 0 0 0];

internalField   nonuniform List<scalar> 
3200
(
0.0155729
0.0147997
0.0142762
0.0144537
0.0149232
0.015555
0.0167781
0.0178079
0.0186595
0.0191726
0.0191089
0.0190527
0.0187071
0.0179333
0.0174354
0.0169629
0.016638
0.0171619
0.0177616
0.0183916
0.0131222
0.0127356
0.0125095
0.0124408
0.0129235
0.013537
0.0144512
0.0152937
0.016174
0.0167252
0.0168476
0.0167266
0.0163092
0.0158123
0.0150921
0.0146293
0.0147487
0.0148359
0.0155513
0.0161926
0.0111007
0.0107759
0.0106591
0.010649
0.0108259
0.0115561
0.0123945
0.0132951
0.0138098
0.0142528
0.0144645
0.0142256
0.0140159
0.0133667
0.0129939
0.0126916
0.012415
0.0127307
0.0133826
0.0139224
0.00932309
0.00883556
0.00868921
0.0086748
0.00918365
0.00930508
0.0101343
0.0107696
0.0113658
0.0116174
0.0117131
0.0117621
0.0117325
0.0111725
0.0107074
0.0105582
0.010452
0.0106438
0.0110123
0.0114668
0.00716879
0.00703185
0.00684948
0.00698377
0.00701685
0.00752371
0.0078894
0.00840536
0.00900119
0.00924768
0.00928026
0.00949554
0.00917001
0.00872164
0.008513
0.00847266
0.00818417
0.00837146
0.00878254
0.0091937
0.00494774
0.00492905
0.00487129
0.00494794
0.00526859
0.0053089
0.00576929
0.00616642
0.00642615
0.00668727
0.00674358
0.00683901
0.00675612
0.00634946
0.00624075
0.00610017
0.00601364
0.00599592
0.00633548
0.00660539
0.00309876
0.00318096
0.00321001
0.00310547
0.00279346
0.00331732
0.00374462
0.00397333
0.00408464
0.00415738
0.00402915
0.004159
0.00438864
0.00408814
0.00395901
0.00354488
0.00372882
0.00369565
0.00381328
0.00381489
0.00102351
0.00114576
0.000979969
0.00124292
0.000916128
0.00118138
0.00112274
0.00117515
0.00144836
0.00141137
0.00139649
0.00128882
0.00153653
0.00142889
0.00141917
0.00115212
0.00134577
0.00147994
0.00114174
0.00120035
0.0130163
0.0122467
0.0117057
0.0117623
0.0121399
0.0129862
0.0139798
0.0147874
0.015852
0.0160932
0.0163337
0.0161827
0.0156018
0.0151342
0.0147224
0.0144015
0.0144418
0.0142936
0.0152322
0.0159699
0.0111375
0.0106172
0.0102262
0.010263
0.0106384
0.0112586
0.012322
0.013096
0.0139754
0.0142946
0.014479
0.0142651
0.0138651
0.0135592
0.0129947
0.0127561
0.0126668
0.0128421
0.0133533
0.0141951
0.00966364
0.0091852
0.00896136
0.00888849
0.00932881
0.0096755
0.0105036
0.0112577
0.0118461
0.0122081
0.012699
0.012415
0.0119698
0.0115474
0.0112065
0.0110332
0.0109624
0.0110433
0.0116084
0.0122237
0.00787052
0.00749455
0.00720042
0.00734456
0.0075497
0.00801918
0.008489
0.00941637
0.00976406
0.0101659
0.010528
0.0101866
0.0101052
0.0097244
0.00932762
0.00930362
0.00904608
0.00928582
0.00981996
0.0102655
0.00630551
0.00592794
0.00578354
0.00558741
0.00603949
0.00637187
0.00675173
0.00708201
0.00777475
0.00816302
0.00832783
0.00805299
0.00816896
0.00774662
0.00741737
0.00712317
0.00673823
0.00713239
0.00769784
0.00785951
0.00451271
0.00452159
0.00404057
0.00414208
0.0044386
0.00469914
0.00498973
0.00520465
0.00578265
0.00580396
0.00582899
0.00581233
0.00586997
0.00552562
0.00549814
0.00551923
0.00519156
0.00518081
0.00557737
0.00577047
0.00277345
0.00278356
0.00246577
0.00273673
0.0026919
0.00296804
0.00298102
0.00315477
0.00360076
0.00376504
0.00369607
0.00362313
0.00335059
0.00334291
0.00318332
0.00298211
0.00317445
0.00319471
0.00346341
0.00358082
0.000854583
0.00102528
0.000809899
0.000814833
0.000974566
0.000914242
0.00110879
0.00104169
0.0012785
0.0014871
0.00130033
0.00104626
0.0013365
0.00115002
0.000992492
0.00124174
0.00106002
0.00108639
0.00114712
0.00130306
0.0102354
0.0093233
0.00904037
0.00886274
0.00901243
0.00947247
0.0104742
0.0113076
0.0119465
0.0125116
0.0127336
0.0126145
0.0122929
0.0119265
0.0113214
0.0110176
0.0110367
0.0115806
0.012336
0.0134545
0.00888623
0.00818571
0.00800316
0.00766302
0.00786927
0.0084315
0.00903122
0.0100277
0.0106616
0.0112379
0.0111501
0.0109432
0.0109552
0.010554
0.0101504
0.00981171
0.009928
0.0102586
0.0108573
0.0118698
0.00767132
0.0069286
0.00661595
0.00656049
0.00690231
0.00722726
0.0078069
0.00872558
0.00933003
0.00934912
0.00951291
0.00977038
0.00956217
0.00902945
0.00874378
0.00837187
0.00842719
0.00907659
0.00963077
0.0102823
0.00632579
0.00591439
0.00565549
0.00547502
0.00541409
0.00574598
0.0065761
0.00732804
0.00764517
0.00805981
0.00812083
0.00807209
0.00783439
0.00769036
0.0073517
0.00711121
0.00719682
0.00742513
0.00809871
0.00851904
0.00493075
0.00482229
0.00445617
0.00427933
0.00450188
0.00466617
0.00518899
0.00563261
0.00600552
0.00649019
0.00643416
0.00632459
0.00633796
0.006117
0.00597793
0.00560322
0.00584157
0.00593486
0.00618116
0.00686376
0.00364318
0.00353282
0.00300413
0.00318378
0.00334137
0.00342884
0.00393541
0.00409089
0.00464306
0.00477098
0.00481331
0.00473443
0.00465608
0.00449278
0.0042064
0.00418208
0.00433683
0.00446281
0.00462381
0.00510749
0.00212686
0.00213668
0.00205976
0.00187176
0.00202755
0.0019926
0.00227015
0.00270745
0.00293678
0.00262217
0.00281115
0.00293442
0.00285621
0.00294027
0.0027629
0.00254377
0.00261677
0.00265448
0.00290309
0.00294074
0.000908994
0.000461139
0.000744675
0.000657249
0.000964697
0.000739177
0.00083961
0.00107902
0.00105191
0.0010061
0.000953433
0.000914587
0.000927298
0.000945267
0.00104463
0.000680803
0.00109029
0.000820678
0.000954586
0.00099623
0.00781361
0.00671845
0.00608119
0.00581091
0.00579026
0.00635113
0.00715266
0.00771259
0.00854221
0.00894849
0.00917343
0.0091185
0.00895307
0.00844336
0.00812019
0.00786275
0.00810312
0.00872919
0.00954544
0.0106881
0.00665746
0.00606883
0.00522347
0.00494678
0.00508913
0.00589059
0.00627396
0.00707744
0.00746098
0.00790693
0.00815918
0.00815812
0.0079628
0.00763464
0.00732698
0.00708808
0.00723886
0.00776395
0.00871778
0.00965033
0.00597952
0.00518685
0.00485713
0.00446768
0.00444431
0.00481033
0.00538519
0.00592987
0.00663291
0.00700155
0.00713485
0.00704287
0.00690826
0.00660904
0.00634752
0.00634427
0.00648253
0.00680753
0.00766877
0.00848271
0.00485539
0.00430124
0.00385179
0.00376988
0.00378149
0.00401026
0.00441535
0.0050995
0.00524518
0.00584647
0.00596593
0.0057624
0.00571704
0.00547176
0.00538007
0.00521865
0.00531663
0.00557533
0.00636598
0.00675335
0.00384564
0.00366593
0.00306437
0.00284983
0.00293531
0.00324962
0.00363066
0.0039873
0.00418229
0.0047028
0.00497493
0.00466784
0.00445871
0.00439295
0.0040885
0.0042565
0.00441917
0.00457218
0.00504986
0.00551737
0.0027195
0.00264412
0.00212697
0.00228347
0.00240781
0.00218062
0.00258122
0.00258919
0.00323734
0.00334894
0.00351173
0.00350464
0.00336261
0.0031774
0.00326698
0.00293313
0.00296044
0.00332929
0.00361212
0.00417158
0.00168878
0.00156346
0.0014503
0.00128674
0.00130809
0.00149697
0.00155427
0.00162624
0.00180422
0.00202885
0.00220834
0.00205698
0.00231085
0.00194381
0.00187006
0.00188204
0.00190649
0.0020956
0.00231761
0.0026093
0.000607959
0.000400607
0.000565881
0.000449823
0.000194829
0.000621524
0.000677375
0.000612453
0.000785639
0.000669066
0.00102392
0.000623429
0.000731637
0.000678167
0.000524992
0.000615301
0.000637699
0.00085826
0.000831694
0.000759628
0.00555881
0.0046893
0.00369367
0.00305103
0.00313091
0.00345592
0.00411966
0.00476596
0.00520684
0.00563422
0.0057929
0.00561926
0.00557374
0.00537563
0.00530677
0.00527385
0.00548875
0.00630328
0.00739008
0.00875085
0.00496061
0.00415118
0.00337788
0.0029534
0.00279693
0.00327891
0.00342621
0.00435968
0.00468324
0.00505722
0.00518983
0.00524148
0.00511604
0.00496966
0.00469205
0.00462511
0.0051912
0.00538894
0.00661259
0.0077201
0.00415008
0.00345809
0.00292725
0.00254149
0.00247924
0.00271074
0.00313878
0.00347583
0.00387914
0.00446902
0.00460973
0.00476723
0.00453051
0.00445826
0.00396085
0.00394227
0.00446829
0.00490302
0.00581689
0.00672239
0.00353046
0.00285576
0.00235621
0.00206198
0.00228195
0.00220335
0.00256043
0.00296037
0.00349473
0.00348333
0.0039669
0.00392387
0.00379412
0.00358936
0.00359509
0.00363565
0.00365211
0.00419298
0.00504154
0.00583354
0.00268399
0.00225756
0.00173597
0.00171265
0.00151038
0.0018318
0.00187476
0.00249093
0.00259895
0.00300688
0.00322648
0.00311333
0.0029231
0.00276597
0.00277689
0.00273643
0.00312295
0.00329904
0.00383152
0.00456745
0.00195833
0.00161075
0.00138832
0.00123818
0.00101431
0.00116151
0.00142134
0.00169295
0.00206593
0.00208767
0.00236986
0.00217884
0.00221732
0.00195872
0.0020556
0.00208246
0.00227614
0.00229251
0.00283719
0.0035234
0.00127185
0.00111178
0.000794675
0.000720771
0.000848932
0.000921904
0.000848665
0.00111634
0.00119637
0.00132216
0.00115919
0.00130641
0.00136185
0.00136597
0.00132914
0.00111682
0.00137271
0.00161753
0.00188233
0.00199804
0.00035784
0.000332578
0.00033111
0.000297943
0.000272008
0.000330254
0.000505841
0.000484123
0.000454274
0.000338663
0.000535733
0.000410991
0.000456437
0.000563006
0.000714252
0.000632787
0.000426147
0.000622613
0.000599293
0.000569236
0.00426989
0.0029835
0.00199224
0.00127025
0.0010876
0.0012686
0.00163949
0.00204671
0.00269149
0.00284282
0.0031502
0.00294966
0.00301014
0.00294487
0.00271454
0.00277037
0.0034976
0.00442755
0.00568511
0.00719344
0.0036325
0.00288389
0.001906
0.00124218
0.000946121
0.000960541
0.00127916
0.00186485
0.00225779
0.00260105
0.00273189
0.00282788
0.002686
0.00252827
0.00270677
0.00272945
0.00323629
0.00406661
0.00513089
0.00645202
0.00297569
0.00213529
0.00153714
0.000912056
0.000900965
0.000963623
0.00121622
0.00173209
0.00181717
0.00227158
0.00243381
0.00241589
0.00253899
0.00221164
0.00247398
0.00262258
0.00302332
0.00389035
0.00436363
0.00558266
0.00251633
0.00187246
0.00135781
0.000720002
0.000663594
0.000699283
0.000940124
0.00145565
0.00163869
0.00181176
0.00207974
0.00210174
0.00199277
0.00192545
0.0019823
0.00222503
0.00234774
0.00325942
0.00389676
0.00463013
0.00194156
0.00150829
0.00109081
0.000830905
0.000730927
0.00077756
0.000657622
0.00109651
0.00147421
0.00135569
0.0016987
0.00171956
0.00175538
0.00139045
0.00171841
0.00171042
0.00216897
0.00257061
0.00321194
0.00388518
0.0016011
0.000954165
0.00100728
0.000598591
0.000572707
0.000201374
0.00067536
0.000844511
0.000862815
0.000911665
0.00113735
0.00131121
0.00133696
0.00110789
0.00121352
0.00129759
0.00155747
0.00194604
0.00225533
0.00274333
0.000918348
0.000620844
0.000410663
0.000222195
4.84944e-05
0.000255549
0.000426632
0.000401224
0.000762567
0.000585323
0.000719677
0.000973184
0.000698967
0.00081139
0.000716746
0.00082302
0.000860486
0.00103806
0.00157823
0.0018475
0.000295199
0.000340192
0.000173854
0.000104039
0.000146711
1.26319e-05
1.49147e-05
0.000187378
9.9864e-05
0.000169547
0.000387789
0.00012476
0.00023688
0.00029498
0.000295768
0.000421704
0.000158688
0.000514316
0.000505533
0.000487672
0.00343142
0.0020274
0.000836438
1.55424e-05
0.000281109
0.000675576
0.000368706
2.65348e-05
0.000420257
0.000643708
0.000958786
0.000965403
0.000736011
0.000749124
0.000988035
0.00138739
0.00214419
0.00333742
0.00463558
0.00633397
0.00311205
0.00188216
0.000757942
3.61348e-05
0.000595098
0.000456327
0.000167099
0.000192435
0.000308699
0.000786837
0.000901822
0.0011558
0.000816491
0.000863939
0.00121794
0.00138166
0.00210687
0.00314879
0.00424261
0.00555444
0.00253992
0.00161838
0.000544807
0.000177517
0.000251333
0.000448681
0.000100021
1.61408e-05
0.000303819
0.000656849
0.000839367
0.000756948
0.00101332
0.000895064
0.00105764
0.00126019
0.00207031
0.00277026
0.00404757
0.00493988
0.00185237
0.00139431
0.000590189
8.15628e-05
8.0581e-05
0.000367669
5.0168e-05
7.45221e-05
0.00043088
0.000561821
0.000782281
0.000523822
0.000832794
0.000887608
0.000693156
0.00122529
0.00156775
0.00228704
0.00350228
0.00429523
0.00167681
0.00117192
0.000431244
8.11212e-05
0.000168103
0.000287256
0.000224291
0.000128768
0.000170898
0.00040874
0.000346491
0.000674651
0.000785633
0.000919577
0.000718635
0.000918103
0.00144609
0.00193922
0.00239461
0.00346067
0.00128833
0.000839775
0.000156838
5.63084e-05
6.31853e-05
2.81276e-05
2.76626e-05
1.03257e-05
0.000111329
0.000354324
0.000412102
0.000844951
0.000376661
0.000348953
0.000415295
0.000978576
0.00102143
0.00142156
0.0020264
0.00246378
0.000691422
0.000399488
9.40137e-05
0.0002167
0.000261865
2.98295e-05
0.000190309
6.86552e-05
4.71805e-05
0.00016782
0.000149489
0.000465073
0.000287789
0.000390713
0.000352502
0.000411969
0.000515221
0.00101146
0.000960528
0.00159005
0.00027695
0.000218047
0.00022492
0.000123578
0.000160191
0.000142497
6.72402e-05
6.49749e-05
4.9168e-05
0.000236334
1.99553e-05
3.94885e-05
9.51911e-06
0.000149248
0.00010959
0.000243651
1.74589e-05
0.00038081
0.000401715
0.00081747
0.00333034
0.00176087
0.000210457
0.000651479
0.00142035
0.0013947
0.00169831
0.00142694
0.00102456
0.0010997
0.000770344
0.00063989
0.000620289
0.00033101
3.57319e-05
0.00058014
0.0012219
0.00286201
0.004359
0.0060878
0.00302853
0.00167355
0.000283725
0.000474809
0.0011293
0.0012506
0.00122057
0.0013229
0.000825054
0.000833553
0.000679339
0.000284942
0.000344508
0.000322013
0.00013674
0.000565348
0.00164546
0.00274373
0.00415037
0.00565104
0.00241409
0.00155871
0.000338745
0.000512886
0.00100483
0.00129626
0.00121909
0.00094997
0.000392534
0.000604479
0.000317942
0.000192038
0.000133365
2.76442e-05
6.85436e-05
0.000490961
0.00123133
0.00249984
0.00368226
0.00471108
0.00184537
0.00121842
0.000131353
0.000346054
0.000851456
0.00084062
0.000873719
0.000741905
0.000611294
0.000326698
0.00051286
0.000189633
0.000210112
0.000200858
0.000392512
0.000375144
0.00119945
0.00195369
0.00303201
0.00417348
0.00146539
0.00103378
0.000522743
0.000278393
0.000387482
0.000682189
0.000689617
0.000506774
0.000450253
0.000270741
1.92932e-05
0.000116618
0.000167461
5.88766e-05
0.000202293
0.000429837
0.00118724
0.00162364
0.00249402
0.00332217
0.00133105
0.000652276
0.000287714
0.000386054
0.000665298
0.000393722
0.000564442
0.000520186
0.000541328
0.000412426
0.000208972
0.000103626
3.45371e-05
0.000160951
3.12667e-05
0.000310183
0.000836235
0.000992343
0.00181764
0.00223139
0.000588215
0.000369244
0.000347482
0.00018758
0.000163529
0.000276458
0.000269304
0.000235312
0.000330969
5.44338e-05
5.83127e-05
6.03309e-05
2.23321e-05
0.00024677
0.000172686
0.000179399
0.000330133
0.00101839
0.00100851
0.00153623
0.000308624
6.69629e-05
3.5514e-06
0.000131742
0.000183105
0.000141131
0.000139152
0.00022707
9.0765e-05
3.32193e-05
0.000123184
1.0381e-05
0.000108014
6.04521e-05
1.52828e-05
3.88656e-05
0.000165033
0.000338003
0.000480947
0.000594065
0.00398714
0.00236182
0.000724355
0.000777527
0.00129751
0.00183122
0.00184389
0.00208426
0.00194924
0.00181168
0.00133121
0.00146042
0.00121423
0.000990409
0.000478242
0.000242931
0.00139552
0.0028864
0.00452798
0.00662643
0.00338788
0.0018054
0.000619544
0.00066682
0.00130063
0.00147012
0.00176463
0.00198036
0.00149311
0.00162051
0.00126735
0.00126291
0.000907047
0.000703612
5.66574e-05
0.00028821
0.00122273
0.00285927
0.00433924
0.00575396
0.00294914
0.00187181
0.000330914
0.00032622
0.00100077
0.00143944
0.00146365
0.00148289
0.00114037
0.00111595
0.0010863
0.00109015
0.000673724
0.00034954
0.000135772
0.000516004
0.00135413
0.00254412
0.00394396
0.00532204
0.00274111
0.00172905
0.00048663
0.000216575
0.000778793
0.00127184
0.00103968
0.00130168
0.00116605
0.000999972
0.000832304
0.000679353
0.000562195
0.000380904
5.23595e-05
0.000546489
0.00108147
0.00213017
0.00345884
0.00457747
0.00196647
0.000968622
0.000432354
0.00017492
0.000765311
0.000873282
0.00120138
0.000788343
0.000844772
0.000699837
0.000471993
0.000453368
0.000421646
0.000173579
1.6026e-05
0.000719512
0.00111071
0.00174328
0.00280871
0.00370997
0.00141456
0.000893241
0.000178631
0.00040724
0.000328965
0.000491888
0.000867041
0.000563878
0.000342983
0.000764956
0.000400492
0.000204395
0.000444831
0.000177991
4.05987e-07
0.000510018
0.000747557
0.00157482
0.00201154
0.0025609
0.00103117
0.000515737
8.70611e-05
0.000222295
0.000250379
0.00025435
0.000627314
0.000352708
0.000357477
0.000266058
0.00051961
0.000277735
0.000127928
0.000279876
2.38588e-05
0.000120282
0.000576818
0.000977162
0.00131717
0.00163474
0.000378579
0.000425544
6.77303e-05
1.91769e-05
7.06214e-05
0.000161282
2.64733e-05
6.47232e-05
0.00012462
1.69492e-05
1.86883e-05
0.000101923
2.23884e-06
6.59866e-05
0.00016153
0.000286725
0.000205482
9.46923e-05
0.000585676
0.000777278
0.00511151
0.00352865
0.00146324
4.93756e-05
0.00101776
0.00146856
0.00188027
0.00192185
0.00200442
0.00197424
0.00170474
0.00139187
0.00128781
0.000740722
0.000113135
0.000926085
0.00214373
0.00401302
0.0058129
0.00780334
0.00488915
0.00305337
0.00152774
0.000270294
0.000663465
0.00114117
0.00172371
0.00158512
0.0018449
0.0015591
0.00156715
0.00123019
0.00107936
0.000528593
1.46222e-05
0.00095635
0.00215751
0.00361172
0.00539431
0.00713013
0.00391704
0.00278774
0.00156721
0.000209478
0.000595944
0.000977897
0.0014539
0.00135977
0.00128292
0.00112355
0.00126069
0.000847837
0.000671724
0.000393731
0.000116623
0.000867824
0.0019305
0.0031873
0.00474394
0.00612331
0.00337303
0.00248525
0.00102289
0.000229134
0.000353699
0.000831101
0.00108065
0.00117201
0.00107111
0.000942308
0.000925732
0.000735887
0.000463358
0.000198691
0.000126562
0.000987872
0.0016257
0.00297737
0.00425077
0.00539594
0.00253292
0.00193128
0.000832433
9.36709e-05
0.000291087
0.000615508
0.000747552
0.000927417
0.000804865
0.000888572
0.000407011
0.000443158
0.00037703
0.000240653
0.00035203
0.000735201
0.00158278
0.00221322
0.00350142
0.00431304
0.00169498
0.00128088
0.000616292
0.000157325
0.000222025
0.000249714
0.000493117
0.000741178
0.000629059
0.000484031
0.000633462
0.000322362
0.000183749
3.28391e-05
9.02083e-05
0.000814511
0.00105406
0.00186951
0.00262748
0.00325814
0.00126626
0.00083157
0.000436947
0.00024699
8.17561e-05
0.000406093
0.000495251
0.000480711
0.000309441
0.000402028
0.000233316
0.000213895
4.43653e-05
5.77871e-06
0.00027179
0.000143623
0.000710374
0.00107641
0.00132055
0.00204611
0.000378581
0.000450894
6.16558e-05
0.000118261
0.000265089
0.000124206
8.08533e-05
0.000224494
0.000223042
0.000165006
0.000258329
7.34443e-05
8.39285e-05
1.09184e-05
0.000220586
0.000111601
0.000196665
0.000186936
0.000605222
0.000433681
0.00751143
0.00536177
0.00335324
0.00196301
0.000530629
0.000514039
0.000820126
0.00128219
0.00113531
0.00145024
0.000933037
0.00060275
0.000566101
6.87872e-05
0.000906487
0.00236957
0.0037239
0.00542317
0.00781339
0.00983804
0.00662428
0.00475353
0.00311873
0.0015229
0.000530025
0.000232189
0.000791888
0.00117282
0.000971018
0.00123073
0.00098914
0.000620592
0.000130984
0.000355725
0.000982665
0.00201799
0.00340191
0.00485795
0.00707383
0.00884138
0.00556299
0.0042677
0.00282196
0.0013417
0.000495848
4.75977e-05
0.000615457
0.000808778
0.000742598
0.000605719
0.000619415
0.000254815
5.52851e-05
0.000512781
0.00109121
0.00198551
0.0030555
0.00450112
0.0062628
0.00757891
0.00475953
0.0034727
0.00227944
0.00115446
0.000429035
7.45267e-05
0.000330102
0.000688487
0.000523606
0.000563886
0.000358732
0.000205308
1.59443e-05
0.000470961
0.00108266
0.00167819
0.00275668
0.00393904
0.00528091
0.00633956
0.00378869
0.00295619
0.00177697
0.0011604
0.000347161
0.000216174
0.000460435
0.000590612
0.00027052
0.000563832
0.000127974
0.000321219
0.000150314
0.000482806
0.000879929
0.00121093
0.00212078
0.00342819
0.00413128
0.00521437
0.00276651
0.00202723
0.0014042
0.000680424
0.000248218
1.27597e-06
4.31925e-05
0.000313628
0.00030614
0.000258824
0.000221194
4.25189e-05
5.09799e-05
0.000106392
0.000621677
0.0011699
0.00163939
0.00235353
0.00316537
0.00381555
0.00165842
0.00133665
0.000703675
0.000475432
0.000133548
5.89392e-05
1.66791e-05
3.08591e-05
0.000285255
0.000231506
9.87749e-05
1.24697e-05
3.97041e-05
0.00019298
0.000356246
0.000451988
0.0010545
0.00149677
0.00200281
0.00231721
0.00047327
0.000269827
0.000196127
0.000137703
6.8409e-06
9.13367e-05
2.3907e-05
6.0489e-05
1.37132e-06
0.000211255
1.53378e-05
0.000117356
0.000208794
8.45224e-05
0.000166487
0.000297768
0.000450048
0.000572367
0.000452898
0.000718945
0.0104227
0.00817115
0.00591773
0.00399273
0.00286754
0.00136512
0.00111347
0.000593196
0.00029687
0.000351605
0.000590943
0.000764027
0.00116695
0.00195974
0.00311116
0.00418802
0.00586686
0.00781084
0.0103533
0.0124505
0.00902347
0.00722419
0.00523824
0.00366097
0.00246758
0.00162531
0.00118618
0.000679765
0.000402979
0.00040762
0.000306884
0.00100569
0.00120613
0.00173111
0.00289731
0.00395
0.00568008
0.00722843
0.00939811
0.0112341
0.00772172
0.0062489
0.00462547
0.00312945
0.00220863
0.00124593
0.000780981
0.000514333
0.000587723
0.000442748
0.000562948
0.000836454
0.0011235
0.00174304
0.00263418
0.00357497
0.00481704
0.00626005
0.00824838
0.0100884
0.00627235
0.00529809
0.00357679
0.00285029
0.00201703
0.00120613
0.000869908
0.000424498
0.000277328
0.000444499
0.000485319
0.000809009
0.00116345
0.00136735
0.00220948
0.00328267
0.00419149
0.00551065
0.00687779
0.00844366
0.00525289
0.00425679
0.00322566
0.00218454
0.00164416
0.000889499
0.000671134
0.000508129
0.000506353
0.000566213
0.000532288
0.000856876
0.000763026
0.00132859
0.00184862
0.00260268
0.00351985
0.00445754
0.00557542
0.0067201
0.00370954
0.00311108
0.00231049
0.0017015
0.00111327
0.000633891
0.000584941
0.000572807
0.0002145
0.000364511
0.000155556
0.000467411
0.000672512
0.00103248
0.00109375
0.00191228
0.00251635
0.0032605
0.00413867
0.00507435
0.00261231
0.00207115
0.00152728
0.00106879
0.000560636
0.000395184
0.000166049
0.000230308
0.000121552
0.000243704
0.000334867
0.000227036
0.00054212
0.000757743
0.000717249
0.00120518
0.00158614
0.00227771
0.00260781
0.00306922
0.000800363
0.000901961
0.000379033
0.000260537
0.000262705
0.000125688
3.18044e-05
3.69409e-05
3.47321e-05
1.19053e-05
0.000251583
0.000151936
0.000120199
0.0004204
0.000385473
0.00032713
0.000389659
0.00075345
0.000913074
0.000975223
0.0137484
0.0115514
0.00907792
0.0073
0.00585361
0.00437667
0.00359479
0.00307792
0.00264435
0.00243388
0.00268676
0.00321379
0.00366004
0.0044954
0.00568622
0.00716964
0.00887384
0.0110926
0.0137032
0.0162685
0.0123894
0.0103604
0.00812702
0.00651592
0.00518556
0.00407298
0.00336864
0.00293509
0.00249202
0.00239002
0.00251827
0.0030316
0.00343571
0.00420157
0.0052383
0.00652298
0.00815226
0.00995236
0.012388
0.0145411
0.0105508
0.00887554
0.00688759
0.00574808
0.00449079
0.00353297
0.00282635
0.00248561
0.00222797
0.00224055
0.00238091
0.00275552
0.00316672
0.00384472
0.00468781
0.00587131
0.00728359
0.0089295
0.0109327
0.0126624
0.00876863
0.00763499
0.00609444
0.00469841
0.00390304
0.00304915
0.00244807
0.00222323
0.0021318
0.00192326
0.00201499
0.00246965
0.00279238
0.00336149
0.00413915
0.00521984
0.00618465
0.00754353
0.00911807
0.0107791
0.00743304
0.00620309
0.00487297
0.0038483
0.00311747
0.00250196
0.00210583
0.0017375
0.00154747
0.00168114
0.0017631
0.00197164
0.00228597
0.00276062
0.0034964
0.00397423
0.00494466
0.00593088
0.0074765
0.00849943
0.00501886
0.00451639
0.00360263
0.00309361
0.00207876
0.00186734
0.00131725
0.00112896
0.0012923
0.00106792
0.00121796
0.00129557
0.00178623
0.00204738
0.00237579
0.00282537
0.00368985
0.00472475
0.00560078
0.00630482
0.00309629
0.00263268
0.00235764
0.00178393
0.00130806
0.00130411
0.000842246
0.000804314
0.000759856
0.000826037
0.00075953
0.00090725
0.000942754
0.00118361
0.00154681
0.00170323
0.00222556
0.00290949
0.0033274
0.00394336
0.00100537
0.00120779
0.000782391
0.000651929
0.000318558
0.000203466
0.000397333
0.000366847
0.000207943
0.00032099
0.000101608
0.00046467
0.00027138
0.000188779
0.000658929
0.000689417
0.000655583
0.00086106
0.00135438
0.00134002
0.0182225
0.0155517
0.0133751
0.0111356
0.00945164
0.00808168
0.00694772
0.00629877
0.00601421
0.00585329
0.00591738
0.00648636
0.00695574
0.00799798
0.00908933
0.0107672
0.0127541
0.0151127
0.0178117
0.0204658
0.0161195
0.014135
0.0117225
0.00985378
0.00830606
0.00696552
0.00612473
0.00576721
0.00530313
0.00542879
0.00543256
0.00595165
0.00622696
0.00739121
0.0084836
0.00980621
0.0114713
0.0137412
0.016118
0.0183136
0.0137629
0.0122403
0.0104945
0.00880271
0.00756999
0.00634062
0.00545358
0.00512553
0.00491779
0.00465268
0.00500952
0.00536527
0.00562654
0.00632618
0.00734039
0.00869632
0.0100862
0.0120556
0.0140774
0.0159948
0.0118476
0.010319
0.00855751
0.00713654
0.00637982
0.00518307
0.00460059
0.00433731
0.00414714
0.00415501
0.00406146
0.00441854
0.00475583
0.00557442
0.00631069
0.0072798
0.0087067
0.0102219
0.0119876
0.0132061
0.00919127
0.0079146
0.00722865
0.00605244
0.00500866
0.00423319
0.00388784
0.00358867
0.00333295
0.00305124
0.00307968
0.0036685
0.00396751
0.00456308
0.00490833
0.00602883
0.00670856
0.0082179
0.00941342
0.0107189
0.00682145
0.0058852
0.00522867
0.00437429
0.00351383
0.00306539
0.00276971
0.00267219
0.00244654
0.00248497
0.00257781
0.00255907
0.00272366
0.00343258
0.0038276
0.00434527
0.00510027
0.00595156
0.00703675
0.00792502
0.00413542
0.00381039
0.00326933
0.00271703
0.00237103
0.00176577
0.00192402
0.00151257
0.00160624
0.00139029
0.00151794
0.00166543
0.0017127
0.00204473
0.00248008
0.0026003
0.00320611
0.0038677
0.00433306
0.0049166
0.00158076
0.00154364
0.000771514
0.000817869
0.000822653
0.000648346
0.000491477
0.000479124
0.000515399
0.000459251
0.000691627
0.000574355
0.000788936
0.000937756
0.000905088
0.000906327
0.0011769
0.0014334
0.00138864
0.00179974
0.0232618
0.0208685
0.0182873
0.0156688
0.0140059
0.0122841
0.0113113
0.0104085
0.00994507
0.0102138
0.010009
0.0106515
0.0110631
0.0123104
0.0137366
0.0152267
0.0174267
0.0198455
0.0227269
0.0252779
0.0206821
0.0184583
0.0162487
0.0143331
0.0122934
0.0110576
0.0101888
0.00943371
0.00896277
0.009149
0.00921409
0.00945585
0.0101663
0.011029
0.0122931
0.0138427
0.0156759
0.0178198
0.0204683
0.0227198
0.0178557
0.0161277
0.0142993
0.012443
0.0108657
0.00962073
0.0089395
0.00847327
0.00787368
0.00792748
0.00813989
0.00823596
0.00892674
0.00986166
0.0108669
0.0119853
0.0139922
0.0155421
0.017834
0.0197349
0.0151433
0.0135894
0.0121196
0.010565
0.00909775
0.00810118
0.00759109
0.00720056
0.00691342
0.00667638
0.00675688
0.00714334
0.00753661
0.00807744
0.00925776
0.0104582
0.0119191
0.0133417
0.0152091
0.0165431
0.0117584
0.0108077
0.00954554
0.00849937
0.00729455
0.00664467
0.00600052
0.00569058
0.0056049
0.00550575
0.0054595
0.00572602
0.00612817
0.00656909
0.00721334
0.00827636
0.00944193
0.0106809
0.0121688
0.0135269
0.00864207
0.00801027
0.00709887
0.0059909
0.00519478
0.00506642
0.004484
0.00429382
0.00405405
0.00394112
0.00413846
0.00438142
0.00454573
0.00496443
0.00544995
0.00625315
0.00689962
0.00787152
0.00913034
0.009923
0.00544797
0.00489511
0.00434015
0.00371472
0.0033756
0.00285604
0.00268444
0.00254806
0.00237987
0.00253142
0.00251199
0.00262148
0.00285518
0.00304352
0.00329686
0.00389226
0.00437108
0.00514216
0.00548942
0.00596667
0.00201119
0.00140564
0.00151382
0.001392
0.00136937
0.00107598
0.000985649
0.0010375
0.000735909
0.000899929
0.000776485
0.000729915
0.000793375
0.000984413
0.00109943
0.00138586
0.00135759
0.00161538
0.0018396
0.00206219
0.0290199
0.0265262
0.0236613
0.0211113
0.0192135
0.01756
0.0163555
0.0155133
0.0149279
0.0146792
0.0149718
0.015359
0.0161346
0.0171485
0.0186386
0.0204233
0.0228774
0.0251438
0.0281482
0.030941
0.0256243
0.0236215
0.0211217
0.0189607
0.0170968
0.0158763
0.0142856
0.0137272
0.0133514
0.0130021
0.0132126
0.0138869
0.0143273
0.0154203
0.016611
0.0184258
0.0204988
0.0228804
0.0254868
0.0276556
0.0222343
0.0205716
0.0185052
0.0165298
0.015011
0.0137387
0.0127436
0.0120208
0.0118443
0.0116893
0.011695
0.0121643
0.0127754
0.0138716
0.0148134
0.0162121
0.0179899
0.0198841
0.0220255
0.0242106
0.0185512
0.0171427
0.0154826
0.0137676
0.0128087
0.0116708
0.0108538
0.0103679
0.00992095
0.00985628
0.00992439
0.0101932
0.0106907
0.0114649
0.0124039
0.0136502
0.0151489
0.0169406
0.0188451
0.0204652
0.0151383
0.0137634
0.012365
0.0112146
0.0100729
0.00934156
0.0087927
0.008291
0.00789864
0.00825271
0.00808706
0.00828949
0.00888555
0.00921381
0.0101596
0.0110424
0.0121035
0.0135844
0.0152098
0.0162846
0.0109847
0.0101361
0.00915044
0.00832335
0.00736233
0.00696198
0.00643539
0.00593272
0.00579756
0.00597014
0.00579619
0.00600558
0.00627037
0.00675189
0.0073937
0.00807958
0.00910822
0.00983022
0.0110402
0.0119836
0.00688959
0.00624895
0.00565172
0.00514415
0.00457814
0.00441843
0.00381226
0.00370048
0.0035831
0.00361576
0.0036653
0.00374244
0.00384954
0.0042539
0.0047016
0.00500038
0.00573708
0.00621103
0.00706388
0.00752687
0.00242441
0.00214176
0.0020567
0.00169294
0.00171176
0.00156521
0.00153268
0.00137188
0.00126064
0.00122343
0.00146376
0.00131128
0.00120772
0.0015536
0.00170129
0.00185964
0.00204731
0.00209894
0.00235558
0.00258017
0.0354118
0.0328182
0.0298173
0.0273173
0.0251232
0.0233656
0.0219421
0.0211181
0.0207249
0.0203177
0.0205294
0.0209979
0.0215667
0.0228509
0.0243009
0.0262597
0.028694
0.031585
0.0344615
0.0373012
0.0314014
0.0292816
0.0267177
0.0245801
0.0223819
0.0209543
0.0198362
0.0189524
0.018497
0.0181591
0.0185171
0.0188597
0.0195742
0.0205458
0.0218527
0.0235932
0.0259069
0.028218
0.0307629
0.0331999
0.0273888
0.0252277
0.0231413
0.0212039
0.0196842
0.0182896
0.0173041
0.0164437
0.0160762
0.0156428
0.0160922
0.0165051
0.0171707
0.0179333
0.0191703
0.0208137
0.0225565
0.0247872
0.0269992
0.0290563
0.0227567
0.0212957
0.0194303
0.0179663
0.0164576
0.015341
0.0145691
0.0140278
0.0135586
0.0133413
0.0134902
0.014049
0.0145834
0.0150086
0.016256
0.0175417
0.0188198
0.0209051
0.022724
0.0245839
0.0184809
0.0173239
0.0156947