/*--------------------------------*- C++ -*----------------------------------*\
| =========                 |                                                 |
| \\      /  F ield         | OpenFOAM: The Open Source CFD Toolbox           |
|  \\    /   O peration     | Version:  2212                                  |
|   \\  /    A nd           | Website:  www.openfoam.com                      |
|    \\/     M anipulation  |                                                 |
\*---------------------------------------------------------------------------*/
FoamFile
{
    version     2.0;
    format      ascii;
    arch        "LSB;label=32;scalar=64";
    class       volScalarField;
    location    "0";
    object      T;
}
// * * * * * * * * * * * * * * * * * * * * * * * * * * * * * * * * * * * * * //

dimensions      [0 0 0 1 0 0 0];

internalField   nonuniform List<scalar> 
3200
(
317.32
317.657
317.854
318.123
318.1
318.361
318.794
318.732
318.922
318.612
319.108
319.138
318.644
318.53
318.614
318.136
317.991
317.52
317.234
317.269
314.974
315.225
315.364
315.581
315.583
315.801
316.133
316.137
316.288
316.035
316.483
316.531
316.065
315.95
316.021
315.632
315.492
315.077
314.856
314.909
312.601
312.831
312.93
313.056
313.089
313.278
313.553
313.584
313.656
313.507
313.889
313.976
313.508
313.419
313.497
313.196
313.04
312.738
312.501
312.54
310.262
310.505
310.556
310.636
310.624
310.793
311.007
311.061
311.119
311.031
311.337
311.453
311.007
310.924
311.001
310.806
310.624
310.385
310.194
310.211
307.988
308.155
308.188
308.238
308.207
308.382
308.493
308.569
308.626
308.533
308.752
308.937
308.532
308.495
308.491
308.448
308.249
308.031
307.916
307.944
305.689
305.859
305.854
305.88
305.863
305.97
306.049
306.105
306.148
306.057
306.263
306.429
306.077
306.058
306.046
306.048
305.886
305.717
305.623
305.714
303.407
303.492
303.531
303.513
303.554
303.612
303.602
303.676
303.695
303.65
303.745
303.853
303.649
303.616
303.622
303.66
303.536
303.451
303.378
303.454
301.149
301.162
301.179
301.174
301.186
301.22
301.207
301.223
301.237
301.218
301.25
301.278
301.229
301.204
301.219
301.226
301.181
301.166
301.114
301.143
318.114
318.197
318.531
318.795
318.69
319.087
319.458
319.411
319.658
319.677
319.895
319.815
319.589
319.171
319.388
319.015
318.789
318.294
318.153
317.912
315.68
315.69
315.957
316.199
316.109
316.405
316.723
316.625
316.935
316.911
317.127
317.026
316.878
316.475
316.652
316.337
316.159
315.673
315.582
315.465
313.249
313.219
313.426
313.665
313.509
313.787
314.006
313.944
314.271
314.23
314.397
314.328
314.162
313.875
313.966
313.702
313.559
313.143
313.125
313.004
310.796
310.739
310.957
311.172
310.996
311.214
311.35
311.358
311.652
311.589
311.693
311.691
311.485
311.314
311.354
311.158
311.036
310.699
310.669
310.597
308.386
308.306
308.459
308.699
308.523
308.668
308.781
308.807
309.051
308.994
309.068
309.096
308.887
308.752
308.802
308.629
308.586
308.301
308.296
308.22
305.987
305.905
305.973
306.249
306.065
306.186
306.291
306.309
306.484
306.395
306.465
306.502
306.34
306.231
306.259
306.139
306.115
305.912
305.874
305.843
303.596
303.518
303.551
303.777
303.639
303.732
303.823
303.795
303.923
303.836
303.876
303.911
303.794
303.739
303.768
303.683
303.676
303.539
303.498
303.516
301.212
301.188
301.167
301.275
301.233
301.262
301.287
301.278
301.31
301.293
301.298
301.318
301.289
301.24
301.265
301.236
301.246
301.178
301.157
301.181
318.912
319.01
319.441
320.009
319.919
319.996
320.125
320.327
320.714
320.69
320.624
320.677
320.741
320.419
320.179
320.049
319.733
319.36
319.005
318.81
316.296
316.335
316.756
317.22
317.159
317.167
317.317
317.43
317.794
317.742
317.701
317.775
317.814
317.532
317.363
317.202
316.952
316.615
316.345
316.132
313.694
313.711
314.106
314.503
314.404
314.426
314.565
314.647
314.942
314.85
314.889
314.952
314.884
314.735
314.584
314.438
314.237
313.939
313.748
313.565
311.162
311.16
311.483
311.864
311.732
311.75
311.874
311.927
312.147
312.033
312.113
312.178
312.081
311.993
311.901
311.717
311.57
311.336
311.204
311.054
308.623
308.649
308.875
309.239
309.077
309.079
309.213
309.244
309.384
309.282
309.327
309.432
309.334
309.249
309.254
309.057
308.965
308.763
308.691
308.556
306.145
306.192
306.321
306.637
306.44
306.457
306.555
306.588
306.687
306.582
306.664
306.718
306.676
306.563
306.629
306.454
306.379
306.249
306.201
306.113
303.698
303.695
303.801
304.035
303.885
303.882
303.92
303.941
304.009
303.955
303.99
304.032
304.008
303.918
304.031
303.889
303.81
303.721
303.728
303.686
301.232
301.238
301.291
301.354
301.312
301.311
301.333
301.322
301.335
301.317
301.347
301.369
301.339
301.322
301.359
301.299
301.271
301.257
301.253
301.246
319.606
319.959
320.286
320.722
320.955
321.002
321.172
321.338
321.642
321.687
321.538
321.684
321.802
321.443
321.26
321.143
320.801
320.353
320.133
319.601
316.851
317.14
317.442
317.812
318.005
317.981
318.19
318.342
318.547
318.62
318.52
318.652
318.722
318.407
318.29
318.156
317.862
317.511
317.282
316.858
314.184
314.383
314.657
314.967
315.103
315.063
315.279
315.4
315.555
315.634
315.547
315.687
315.71
315.438
315.398
315.233
314.991
314.725
314.539
314.202
311.537
311.711
311.895
312.221
312.274
312.244
312.405
312.52
312.647
312.676
312.667
312.754
312.694
312.577
312.529
312.373
312.204
311.965
311.832
311.618
308.935
309.08
309.194
309.479
309.479
309.513
309.588
309.682
309.789
309.803
309.832
309.877
309.803
309.757
309.693
309.509
309.466
309.247
309.123
308.982
306.39
306.504
306.55
306.771
306.694
306.762
306.804
306.862
307.004
306.998
307.047
307.03
306.976
306.938
306.937
306.728
306.762
306.575
306.466
306.395
303.876
303.897
303.943
304.054
303.996
304.037
304.089
304.111
304.235
304.174
304.21
304.213
304.144
304.151
304.19
303.99
304.054
303.937
303.832
303.805
301.304
301.298
301.301
301.351
301.328
301.35
301.352
301.379
301.427
301.408
301.405
301.414
301.39
301.38
301.41
301.333
301.351
301.34
301.268
301.253
320.547
320.812
321.307
321.826
321.878
322.041
322.278
322.53
322.719
322.726
322.644
322.796
322.743
322.383
322.445
322.194
321.775
321.715
321.243
320.697
317.692
317.926
318.336
318.81
318.827
318.917
319.137
319.386
319.534
319.527
319.408
319.563
319.563
319.245
319.291
319.076
318.696
318.655
318.275
317.838
314.906
315.087
315.419
315.849
315.805
315.862
316.066
316.323
316.437
316.406
316.265
316.436
316.433
316.184
316.253
316.014
315.687
315.662
315.4
315.032
312.128
312.254
312.597
312.914
312.849
312.907
313.087
313.256
313.397
313.35
313.188
313.389
313.408
313.154
313.248
313.006
312.736
312.704
312.573
312.28
309.403
309.476
309.752
309.995
309.891
309.977
310.154
310.275
310.351
310.342
310.21
310.36
310.395
310.169
310.268
310.086
309.824
309.821
309.731
309.502
306.701
306.743
306.943
307.135
306.994
307.098
307.243
307.31
307.336
307.336
307.288
307.39
307.426
307.205
307.348
307.2
306.998
306.969
306.893
306.758
303.998
304.044
304.148
304.298
304.157
304.22
304.355
304.388
304.389
304.396
304.36
304.42
304.476
304.301
304.41
304.312
304.169
304.164
304.12
304.031
301.314
301.359
301.372
301.446
301.381
301.391
301.47
301.466
301.465
301.482
301.46
301.491
301.518
301.438
301.49
301.428
301.392
301.396
301.387
301.347
321.454
321.674
322.142
322.728
323.021
323.078
323.281
323.5
323.772
323.875
323.719
323.728
323.609
323.703
323.336
323.159
322.808
322.756
322.29
321.964
318.409
318.642
319.049
319.562
319.827
319.871
320.031
320.212
320.457
320.538
320.384
320.415
320.312
320.378
320.021
319.904
319.618
319.527
319.143
318.91
315.465
315.665
315.987
316.467
316.677
316.723
316.814
316.99
317.229
317.297
317.147
317.162
317.109
317.109
316.845
316.723
316.501
316.419
316.093
315.857
312.563
312.714
312.995
313.443
313.551
313.625
313.66
313.821
314.034
314.109
313.957
313.965
313.943
313.927
313.731
313.57
313.422
313.406
313.129
312.897
309.694
309.817
310.052
310.435
310.479
310.575
310.551
310.666
310.906
310.906
310.801
310.873
310.792
310.84
310.649
310.482
310.408
310.416
310.183
309.966
306.887
306.984
307.158
307.407
307.492
307.561
307.545
307.599
307.792
307.767
307.7
307.792
307.654
307.755
307.611
307.463
307.41
307.43
307.241
307.075
304.112
304.171
304.311
304.446
304.514
304.533
304.511
304.556
304.676
304.661
304.591
304.709
304.595
304.679
304.57
304.473
304.46
304.445
304.314
304.243
301.358
301.39
301.436
301.497
301.502
301.518
301.517
301.526
301.556
301.582
301.541
301.587
301.534
301.561
301.527
301.512
301.498
301.469
301.441
301.426
322.185
322.511
323.051
323.714
324.018
324.478
324.484
324.655
324.965
324.976
324.912
324.809
324.561
324.792
324.376
324.227
323.832
323.615
323.173
322.683
319.085
319.354
319.8
320.414
320.685
321.043
321.037
321.206
321.46
321.475
321.419
321.387
321.094
321.286
320.954
320.817
320.498
320.315
319.864
319.493
316.093
316.271
316.655
317.192
317.412
317.692
317.677
317.852
318.054
318.052
317.985
318.015
317.672
317.906
317.593
317.487
317.235
317.063
316.648
316.421
313.124
313.258
313.543
313.955
314.166
314.469
314.403
314.54
314.667
314.685
314.607
314.661
314.358
314.598
314.291
314.255
314.013
313.871
313.54
313.358
310.148
310.266
310.455
310.793
310.983
311.248
311.16
311.256
311.345
311.361
311.306
311.416
311.127
311.339
311.072
311.033
310.861
310.741
310.493
310.32
307.208
307.305
307.441
307.649
307.865
308.026
307.931
308.05
308.049
308.083
308.026
308.177
307.905
308.088
307.958
307.859
307.713
307.641
307.488
307.322
304.303
304.382
304.462
304.547
304.734
304.823
304.773
304.83
304.767
304.832
304.833
304.958
304.727
304.856
304.798
304.71
304.611
304.563
304.495
304.395
301.441
301.486
301.476
301.519
301.599
301.622
301.607
301.613
301.584
301.611
301.618
301.667
301.594
301.634
301.62
301.574
301.537
301.526
301.518
301.482
323.312
323.485
324.096
324.338
324.975
325.216
325.285
325.527
325.795
325.929
325.958
325.891
325.774
325.713
325.566
325.352
324.975
324.538
324.229
323.7
320.086
320.192
320.744
320.919
321.497
321.683
321.742
321.97
322.172
322.275
322.31
322.248
322.119
322.123
321.976
321.798
321.513
321.092
320.826
320.404
316.924
316.93
317.475
317.65
318.073
318.239
318.278
318.456
318.623
318.716
318.764
318.697
318.587
318.642
318.481
318.285
318.126
317.77
317.511
317.216
313.791
313.766
314.234
314.424
314.743
314.818
314.891
315.057
315.087
315.272
315.318
315.186
315.111
315.18
315.009
314.855
314.781
314.468
314.274
314.057
310.648
310.688
311.045
311.204
311.402
311.479
311.529
311.662
311.67
311.852
311.911
311.778
311.674
311.787
311.617
311.503
311.48
311.234
311.043
310.921
307.588
307.655
307.895
307.989
308.138
308.161
308.179
308.317
308.294
308.431
308.516
308.407
308.309
308.403
308.286
308.208
308.097
307.992
307.892
307.818
304.545
304.632
304.737
304.794
304.849
304.891
304.887
305.015
304.952
305.062
305.107
305.043
304.997
305.061
304.978
304.903
304.828
304.783
304.726
304.728
301.525
301.548
301.583
301.598
301.598
301.638
301.642
301.667
301.651
301.693
301.698
301.67
301.665
301.686
301.681
301.642
301.607
301.596
301.555
301.594
323.96
324.302
325.115
325.235
325.752
326.224
326.417
326.499
326.944
327.025
327.274
327.004
326.887
326.67
326.438
326.338
325.886
325.712
325.084
324.638
320.624
320.953
321.657
321.708
322.157
322.55
322.722
322.79
323.171
323.268
323.491
323.205
323.138
322.939
322.697
322.607
322.272
322.149
321.528
321.235
317.408
317.671
318.267
318.254
318.64
318.975
319.083
319.16
319.457
319.562
319.744
319.485
319.464
319.277
319.015
319.011
318.74
318.62
318.024
317.906
314.233
314.416
314.958
314.905
315.166
315.442
315.523
315.612
315.834
315.932
316.032
315.849
315.846
315.714
315.463
315.504
315.248
315.114
314.639
314.621
311.104
311.23
311.625
311.581
311.779
311.999
312.03
312.104
312.268
312.351
312.428
312.231
312.271
312.171
311.972
312.018
311.825
311.705
311.329
311.384
307.953
308.049
308.3
308.244
308.414
308.589
308.516
308.624
308.731
308.796
308.862
308.655
308.749
308.688
308.519
308.574
308.42
308.333
308.058
308.164
304.788
304.846
304.987
304.937
305.034
305.192
305.082
305.191
305.216
305.272
305.319
305.186
305.228
305.164
305.109
305.123
305.013
304.996
304.845
304.911
301.616
301.615
301.669
301.648
301.68
301.757
301.697
301.733
301.733
301.769
301.779
301.734
301.75
301.725
301.717
301.718
301.653
301.695
301.643
301.637
324.769
325.222
325.865
326.233
326.858
327.193
327.432
327.57
327.858
328.014
328.156
328.112
327.865
327.68
327.348
327.056
326.742
326.613
325.996
325.395
321.355
321.725
322.293
322.578
323.112
323.429
323.558
323.75
323.972
324.144
324.237
324.199
323.971
323.821
323.485
323.233
322.963
322.859
322.332
321.837
318.027
318.266
318.757
318.981
319.41
319.738
319.796
319.974
320.18
320.288
320.376
320.401
320.174
320.031
319.766
319.559
319.348
319.166
318.73
318.342
314.721
314.852
315.278
315.468
315.811
316.093
316.124
316.304
316.427
316.546
316.554
316.578
316.438
316.317
316.129
315.988
315.813
315.578
315.224
314.95
311.438
311.54
311.833
312
312.265
312.563
312.498
312.632
312.7
312.844
312.838
312.868
312.771
312.622
312.539
312.369
312.251
312.052
311.765
311.636
308.183
308.242
308.444
308.554
308.795
308.99
308.893
309.013
309.082
309.134
309.14
309.157
309.126
308.974
308.984
308.818
308.752
308.595
308.347
308.366
304.937
304.947
305.089
305.133
305.296
305.405
305.316
305.405
305.451
305.483
305.484
305.483
305.475
305.371
305.406
305.287
305.25
305.136
305.025
305.006
301.653
301.672
301.707
301.716
301.762
301.802
301.773
301.816
301.81
301.854
301.84
301.819
301.823
301.802
301.829
301.782
301.766
301.722
301.676
301.674
325.737
326.223
326.647
327.091
327.473
328.039
328.424
328.462
328.727
328.952
328.778
328.94
328.801
328.673
328.479
328.066
327.613
327.508
326.838
326.464
322.211
322.639
322.913
323.317
323.655
324.147
324.45
324.487
324.716
324.932
324.762
324.912
324.733
324.661
324.505
324.088
323.745
323.634
323.103
322.741
318.717
319.055
319.249
319.637
319.917
320.342
320.555
320.619
320.783
321.016
320.837
320.905
320.799
320.729
320.651
320.24
319.963
319.881
319.44
319.135
315.262
315.556
315.654
315.996
316.23
316.589
316.688
316.761
316.933
317.123
317.028
317.007
316.906
316.852
316.852
316.463
316.282
316.19
315.811
315.606
311.819
312.073
312.099
312.406
312.575
312.907
312.91
312.97
313.156
313.258
313.198
313.182
313.105
313.027
313.086
312.756
312.67
312.508
312.262
312.09
308.448
308.647
308.64
308.837
308.958
309.247
309.17
309.245
309.372
309.432
309.386
309.43
309.319
309.289
309.317
309.133
309.077
308.875
308.794
308.654
305.056
305.201
305.189
305.281
305.405
305.585
305.497
305.543
305.648
305.634
305.646
305.692
305.549
305.585
305.584
305.45
305.431
305.315
305.281
305.196
301.699
301.73
301.768
301.753
301.806
301.872
301.842
301.866
301.907
301.891
301.905
301.913
301.847
301.873
301.881
301.832
301.801
301.79
301.778
301.757
326.512
326.949
327.175
327.906
328.148
328.844
329.17
329.409
329.615
329.789
329.895
329.879
329.682
329.712
329.417
329.172
328.597
328.216
327.58
327.345
322.921
323.204
323.363
324.019
324.195
324.871
325.138
325.333
325.466
325.645
325.725
325.72
325.507
325.515
325.263
325.03
324.619
324.279
323.734
323.536
319.361
319.53
319.645
320.213
320.347
320.964
321.173
321.33
321.397
321.562
321.651
321.645
321.429
321.406
321.273
321.047
320.685
320.392
319.968
319.779
315.808
315.919
315.993
316.479
316.579
317.111
317.241
317.384
317.439
317.544
317.642
317.642
317.419
317.388
317.348
317.11
316.85
316.584
316.266
316.104
312.26
312.359
312.388
312.749
312.884
313.27
313.372
313.468
313.544
313.577
313.687
313.709
313.512
313.468
313.466
313.245
313.087
312.857
312.602
312.493
308.741
308.835
308.811
309.059
309.171
309.475
309.513
309.612
309.651
309.633
309.779
309.798
309.645
309.611
309.576
309.425
309.321
309.164
308.958
308.926
305.241
305.311
305.247
305.439
305.536
305.709
305.684
305.803
305.778
305.746
305.877
305.925
305.789
305.778
305.729
305.651
305.583
305.513
305.37
305.348
301.76
301.761
301.772
301.839
301.853
301.931
301.902
301.943
301.926
301.94
301.962
301.983
301.931
301.937
301.918
301.881
301.866
301.844
301.801
301.81
327.148
327.762
327.967
328.659
329.282
329.742
330.076
330.292
330.389
330.716
330.74
330.744
330.681
330.565
330.291
329.947
329.445
329.12
328.645
328.001
323.411
323.944
324.091
324.676
325.194
325.642
325.872
326.099
326.136
326.449
326.466
326.441
326.427
326.274
326.106
325.742
325.304
325.045
324.66
324.106
319.735
320.162
320.269
320.78
321.21
321.607
321.76
321.981
322.021
322.272
322.229
322.243
322.208
322.067
321.956
321.647
321.259
321.072
320.767
320.271
316.144
316.405
316.532
316.945
317.273
317.607
317.687
317.944
317.922
318.092
318.076
318.087
318.07
317.915
317.887
317.596
317.321
317.135
316.911
316.522
312.551
312.721
312.826
313.165
313.382
313.68
313.701
313.96
313.897
313.989
314.036
313.994
314.023
313.916
313.855
313.608
313.436
313.285
313.125
312.829
308.959
309.062
309.126
309.398
309.542
309.75
309.754
309.936
309.925
309.961
310.012
310
310.014
309.929
309.849
309.687
309.587
309.494
309.371
309.153
305.364
305.457
305.471
305.636
305.782
305.847
305.854
305.958
305.951
305.966
306.017
306
306.027
305.923
305.927
305.815
305.744
305.684
305.651
305.502
301.801
301.836
301.835
301.884
301.955
301.975
301.97
301.968
302.011
301.99
302.017
302.017
302.018
301.974
301.971
301.97
301.882
301.902
301.887
301.866
327.648
328.351
328.746
329.487
329.972
330.462
330.987
331.042
331.489
331.658
331.868
331.612
331.601
331.279
331.049
330.648
330.299
330.14
329.461
328.948
323.797
324.427
324.814
325.401
325.788
326.227
326.696
326.743
327.128
327.252
327.417
327.2
327.182
326.928
326.704
326.315
326.008
325.921
325.368
324.875
320.042
320.537
320.922
321.393
321.701
322.137
322.497
322.554
322.831
322.937
323.06
322.869
322.901
322.654
322.48
322.139
321.857
321.753
321.364
320.881
316.348
316.719
317.045
317.445
317.656
318.073
318.365
318.432
318.584
318.685
318.75
318.647
318.689
318.424
318.319
318.017
317.764
317.686
317.414
316.959
312.666
312.961
313.197
313.493
313.708
314.018
314.255
314.326
314.387
314.472
314.543
314.464
314.506
314.283
314.203
313.978
313.763
313.667
313.509
313.126
309.015
309.263
309.411
309.636
309.799
309.959
310.172
310.23
310.239
310.314
310.416
310.305
310.372
310.174
310.091
309.952
309.798
309.742
309.625
309.353
305.432
305.557
305.659
305.792
305.896
305.966
306.087
306.16
306.152
306.184
306.256
306.166
306.223
306.078
306.038
305.966
305.882
305.851
305.794
305.589
301.837
301.86
301.907
301.935
301.998
301.997
302.055
302.071
302.072
302.096
302.109
302.06
302.076
302.02
302.019
301.995
301.963
301.968
301.941
301.893
328.427
328.886
329.451
330.211
330.706
331.354
331.686
331.695
332.142
332.344
332.545
332.503
332.611
332.108
331.8
331.362
331.078
330.66
330.283
329.392
324.512
324.908
325.382
326.043
326.447
327.015
327.266
327.271
327.7
327.861
328.083
328.015
328.07
327.652
327.326
326.971
326.698
326.35
326.032
325.282
320.665
320.987
321.4
321.95
322.249
322.771
322.922
322.943
323.331
323.484
323.656
323.576
323.654
323.311
323.016
322.659
322.405
322.139
321.929
321.243
316.858
317.11
317.48
317.907
318.113
318.527
318.644
318.687
319.007
319.171
319.264
319.238
319.333
318.99
318.786
318.5
318.209
318.006
317.854
317.33
313.078
313.241
313.536
313.907
314.037
314.345
314.44
314.476
314.763
314.88
314.937
314.928
315.013
314.671
314.586
314.38
314.131
313.923
313.832
313.41
309.315
309.447
309.654
309.946
310.018
310.215
310.295
310.284
310.514
310.63
310.694
310.654
310.706
310.418
310.39
310.257
310.079
309.916
309.858
309.541
305.566
305.69
305.775
305.992
305.992
306.143
306.177
306.159
306.351
306.368
306.428
306.423
306.413
306.244
306.267
306.175
306.031
305.953
305.887
305.698
301.85
301.911
301.918
302.006
302.008
302.058
302.056
302.061
302.143
302.112
302.149
302.13
302.15
302.087
302.124
302.102
302.007
301.985
301.974
301.91
328.665
329.277
330.188
330.813
331.225
331.787
332.348
332.493
333.06
333.064
333.242
333.186
333.242
332.808
332.578
332.123
331.685
331.225
331.101
330.173
324.696
325.235
326.043
326.537
326.959
327.392
327.885
327.952
328.503
328.491
328.645
328.562
328.615
328.254
328.05
327.67
327.262
326.885
326.821
325.945
320.773
321.283
321.925
322.311
322.697
323.024
323.414
323.523
324.005
324.015
324.076
324.014
324.087
323.803
323.64
323.285
322.909
322.648
322.572
321.811
316.955
317.36
317.904
318.169
318.493
318.745
319.013
319.137
319.571
319.583
319.591
319.589
319.636
319.397
319.255
318.961
318.633
318.444
318.372
317.742
313.177
313.484
313.9
314.126
314.352
314.525
314.707
314.817
315.169
315.199
315.163
315.211
315.218
315.018
314.917
314.697
314.442
314.284
314.249
313.709
309.405
309.624
309.929
310.091
310.235
310.327
310.465
310.561
310.79
310.825
310.811
310.882
310.828
310.658
310.593
310.51
310.315
310.171
310.18
309.738
305.624
305.75
305.941
306.048
306.117
306.184
306.291
306.347
306.448
306.478
306.469
306.536
306.481
306.368
306.313
306.313
306.181
306.083
306.126
305.801
301.883
301.95
301.996
302.027
302.039
302.062
302.1
302.13
302.173
302.168
302.153
302.204
302.165
302.13
302.103
302.123
302.073
302.039
302.042
301.923
329.358
329.869
330.601
331.265
331.942
332.242
333.002
333.315
333.624
333.739
333.889
333.7
333.681
333.352
333.307
332.891
332.171
331.857
331.379
330.8
325.345
325.753
326.364
326.933
327.538
327.753
328.426
328.655
328.974
329.044
329.184
328.978
328.978
328.762
328.652
328.324
327.617
327.419
327.066
326.563
321.382
321.698
322.217
322.728
323.198
323.345
323.897
324.084
324.415
324.415
324.568
324.384
324.39
324.219
324.131
323.819
323.204
323.055
322.792
322.462
317.439
317.748
318.124
318.567
318.929
318.987
319.408
319.57
319.928
319.879
320.015
319.888
319.928
319.723
319.703
319.409
318.874
318.79
318.564
318.35
313.476
313.828
314.049
314.42
314.671
314.71
315.043
315.157
315.475
315.414
315.565
315.443
315.417
315.263
315.299
315.036
314.575
314.578
314.407
314.269
309.579
309.855
310.02
310.319
310.47
310.474
310.7
310.867
311.04
310.99
311.1
311.02
310.942
310.83
310.896
310.716
310.356
310.405
310.267
310.199
305.771
305.901
306.002
306.21
306.289
306.272
306.385
306.557
306.623
306.589
306.628
306.628
306.516
306.479
306.533
306.411
306.175
306.225
306.191
306.1
301.942
301.969
302.017
302.09
302.112
302.104
302.157
302.213
302.223
302.222
302.204
302.222
302.166
302.166
302.186
302.162
302.069
302.076
302.093
302.045
329.75
330.316
331.112
331.678
332.262
332.714
333.377
333.764
333.932
334.125
334.281
334.178
334.232
334.122
333.869
333.392
332.894
332.505
331.817
331.302
325.694
326.124
326.849
327.317
327.834
328.114
328.762
329.052
329.23
329.378
329.523
329.426
329.483
329.393
329.122
328.74
328.289
327.987
327.375
326.96
321.668
321.993
322.597
323.053
323.459
323.648
324.204
324.441
324.573
324.689
324.807
324.76
324.841
324.751
324.44
324.161
323.812
323.524
323.013
322.67
317.675
317.909
318.407
318.825
319.132
319.28
319.683
319.864
319.992
320.133
320.19
320.148
320.295
320.191
319.855
319.685
319.401
319.134
318.708
318.458
313.734
313.874
314.274
314.651
314.846
314.988
315.236
315.378
315.494
315.582
315.647
315.604
315.744
315.631
315.351
315.213
315.035
314.802
314.455
314.307
309.812
309.884
310.155
310.483
310.583
310.688
310.894
310.977
311.048
311.095
311.124
311.132
311.264
311.138
310.936
310.822
310.743
310.532
310.273
310.207
305.902
305.933
306.088
306.333
306.327
306.427
306.543
306.576
306.63
306.632
306.664
306.685
306.747
306.708
306.561
306.466
306.462
306.3
306.137
306.132
301.994
301.975
302.052
302.136
302.125
302.162
302.184
302.197
302.21
302.207
302.236
302.245
302.268
302.264
302.197
302.168
302.163
302.123
302.068
302.049
330.016
330.593
331.484
332.123
332.712
333.281
333.744
334.099
334.222
334.499
334.602
334.685
334.579
334.467
334.152
333.793
333.497
333.03
332.279
331.871
325.915
326.352
327.153
327.681
328.215
328.619
329.056
329.371
329.477
329.696
329.775
329.838
329.763
329.669
329.392
329.068
328.814
328.44
327.759
327.423
321.889
322.217
322.89
323.362
323.728
324.055
324.441
324.746
324.827
324.998
325.084
325.061
325.036
324.997
324.754
324.434
324.26
323.923
323.378
323.081
317.857
318.118
318.654
319.052
319.299
319.603
319.924
320.16
320.219
320.386
320.444
320.397
320.437
320.338
320.15
319.873
319.797
319.459
319.046
318.789
313.876
314.035
314.45
314.789
314.952
315.226
315.446
315.613
315.676
315.819
315.869
315.786
315.913
315.738
315.607
315.395
315.329
315.073
314.747
314.541
309.893
310.006
310.323
310.53
310.638
310.868
310.993
311.125
311.152
311.265
311.329
311.207
311.327
311.223
311.121
310.934
310.947
310.747
310.507
310.378
305.929
306.013
306.206
306.302
306.372
306.503
306.559
306.667
306.661
306.764
306.802
306.699
306.786
306.765
306.632
306.564
306.58
306.467
306.299
306.241
301.99
302.015
302.09
302.103
302.137
302.18
302.186
302.23
302.23
302.254
302.26
302.226
302.252
302.257
302.208
302.2
302.205
302.167
302.098
302.092
330.363
331.002
331.718
332.644
332.933
333.379
333.89
334.299
334.767
334.77
334.921
334.903
334.791
334.715
334.511
334.022
333.879
333.284
332.709
332.241
326.166
326.674
327.357
328.096
328.296
328.705
329.119
329.53
329.917
329.91
330.059
330.012
329.978
329.871
329.674
329.311
329.175
328.653
328.162
327.775
322.027
322.409
323.066
323.628
323.761
324.129
324.483
324.844
325.191
325.199
325.281
325.258
325.254
325.113
324.92
324.603
324.517
324.094
323.702
323.376
317.969
318.219
318.796
319.229
319.382
319.624
319.911
320.228
320.527
320.577
320.628
320.596
320.608
320.452
320.263
319.974
319.907
319.641
319.277
319.092
313.967
314.065
314.547
314.897
315.035
315.215
315.412
315.684
315.957
315.977
315.986
315.933
316.034
315.857
315.673
315.419
315.391
315.202
314.93
314.842
309.989
309.97
310.354
310.599
310.725
310.836
310.991
311.148
311.413
311.408
311.433
311.312
311.467
311.276
311.152
310.952
310.939
310.858
310.622
310.626
306.026
305.935
306.237
306.34
306.42
306.508
306.593
306.676
306.825
306.831
306.86
306.751
306.876
306.77
306.67
306.534
306.531
306.524
306.391
306.361
302.018
301.981
302.095
302.11
302.138
302.173
302.199
302.227
302.273
302.268
302.291
302.263
302.301
302.271
302.22
302.171
302.193
302.207
302.127
302.134
)
;

boundaryField
{
    hotSide
    {
        type            fixedGradient;
        gradient        nonuniform List<scalar> 
400
(
191.87
202.143
212.393
222.573
232.637
242.538
252.229
261.662
270.791
279.568
287.95
295.892
303.353
310.295
316.68
322.475
327.651
332.18
336.039
339.21
196.163
206.784
217.385
227.919
238.338
248.592
258.634
268.413
277.881
286.99
295.694
303.947
311.706
318.931
325.584
331.63
337.037
341.777
345.827
349.167
200.003
210.949
221.879
232.744
243.495
254.081
264.452
274.556
284.344
293.766
302.773
311.32
319.361
326.854
333.761
340.044
345.671
350.614
354.847
358.349
203.385
214.631
225.865
237.036
248.094
258.987
269.663
280.069
290.154
299.867
309.157
317.978
326.282
334.026
341.17
347.676
353.511
358.644
363.049
366.705
206.307
217.826
229.336
240.786
252.124
263.298
274.252
284.935
295.291
305.27
314.821
323.892
332.438
340.414
347.777
354.489
360.515
365.824
370.39
374.19
208.768
220.531
232.288
243.988
255.577
267.001
278.206
289.136
299.737
309.956
319.74
329.039
337.803
345.987
353.549
360.448
366.648
372.118
376.831
380.762
210.771
222.746
234.719
246.636
258.445
270.089
281.513
292.661
303.477
313.907
323.897
333.395
342.352
350.721
358.458
365.523
371.879
377.492
382.336
386.385
212.318
224.472
236.627
248.729
260.724
272.555
284.165
295.498
306.497
317.107
327.273
336.942
346.065
354.593
362.481
369.688
376.178
381.916
386.873
391.025
213.41
225.708
238.011
250.263
262.409
274.392
286.154
297.638
308.787
319.544
329.854
339.664
348.922
357.581
365.594
372.92
379.52
385.361
390.414
394.653
214.049
226.456
238.87
251.235
263.496
275.594
287.472
299.071
310.334
321.204
331.625
341.543
350.907
359.667
367.777
375.196
381.883
387.806
392.934
397.242
214.234
226.714
239.202
251.642
263.98
276.155
288.111
299.789
311.13
322.077
332.575
342.568
352.005
360.835
369.014
376.498
383.247
389.229
394.411
398.77
213.966
226.479
239.003
251.48
263.855
276.07
288.065
299.783
311.165
322.153
332.691
342.725
352.201
361.071
369.289
376.81
383.595
389.611
394.827
399.217
213.241
225.749
238.269
250.744
263.117
275.331
287.327
299.047
310.431
321.422
331.965
342.004
351.486
360.364
368.589
376.119
382.914
388.94
394.167
398.569
212.055
224.52
236.996
249.428
261.76
273.934
285.89
297.572
308.92
319.877
330.387
340.396
349.851
358.703
366.905
374.415
381.193
387.205
392.421
396.814
210.404
222.786
235.179
247.529
259.779
271.872
283.75
295.354
306.628
317.513
327.954
337.897
347.29
356.084
364.233
371.694
378.428
384.402
389.584
393.95
208.283
220.543
232.814
245.042
257.17
269.143
280.902
292.391
303.551
314.326
324.662
334.504
343.802
352.506
360.571
367.955
374.619
380.529
385.656
389.975
205.689
217.788
229.898
241.964
253.932
265.745
277.347
288.681
299.69
310.319
320.514
330.221
339.39
347.972
355.924
363.203
369.771
375.595
380.646
384.899
202.618
214.519
226.429
238.295
250.064
261.68
273.086
284.229
295.051
305.498
315.516
325.055
334.063
342.494
350.303
357.45
363.898
369.613
374.567
378.736
199.07
210.736
222.41
234.04
245.572
256.953
268.128
279.043
289.642
299.873
309.683
319.02
327.837
336.087
343.727
350.717
357.02
362.606
367.444
371.513
195.047
206.444
217.846
229.204
240.465
251.577
262.485
273.138
283.482
293.463
303.032
312.139
320.735
328.777
336.222
343.031
349.169
354.604
359.309
363.261
)
;
    }
    coldSide
    {
        type            mixed;
        refValue        uniform 300;
        refGradient     uniform 0;
        valueFraction   uniform 0.991591;
        source          uniform 0;
        value           nonuniform List<scalar> 
400
(
300.01
300.01
300.01
300.011
300.011
300.011
300.012
300.013
300.014
300.014
300.014
300.015
300.015
300.015
300.016
300.016
300.016
300.017
300.017
300.017
300.01
300.01
300.01
300.011
300.011
300.012
300.012
300.013
300.014
300.014
300.015
300.015
300.015
300.016
300.016