/*--------------------------------*- C++ -*----------------------------------*\
| =========                 |                                                 |
| \\      /  F ield         | OpenFOAM: The Open Source CFD Toolbox           |
|  \\    /   O peration     | Version:  2212                                  |
|   \\  /    A nd           | Website:  www.openfoam.com                      |
|    \\/     M anipulation  |                                                 |
\*---------------------------------------------------------------------------*/
FoamFile
{
    version     2.0;
    format      ascii;
    arch        "LSB;label=32;scalar=64";
    class       volScalarField;
    location    "0";
    object      T;
}
// * * * * * * * * * * * * * * * * * * * * * * * * * * * * * * * * * * * * * //

dimensions      [0 0 0 1 0 0 0];

internalField   nonuniform List<scalar> 
3200
(
312.683
312.766
312.762
312.814
312.914
312.95
312.784
312.373
312.869
312.63
312.584
312.451
312.149
312.154
312.012
311.756
311.917
311.669
311.386
311.213
310.988
311.1
311.077
311.151
311.223
311.285
311.103
310.736
311.185
311.03
310.972
310.781
310.517
310.534
310.395
310.206
310.388
310.149
309.895
309.768
309.335
309.385
309.448
309.507
309.525
309.599
309.385
309.076
309.45
309.442
309.347
309.132
308.898
308.92
308.803
308.651
308.825
308.646
308.416
308.238
307.674
307.691
307.733
307.835
307.808
307.917
307.602
307.47
307.732
307.786
307.671
307.459
307.247
307.323
307.228
307.108
307.232
307.088
306.935
306.729
305.983
305.976
306.034
306.166
306.108
306.145
305.868
305.828
306.017
306.097
305.961
305.817
305.631
305.685
305.592
305.538
305.626
305.517
305.413
305.242
304.292
304.293
304.303
304.447
304.396
304.392
304.195
304.133
304.312
304.359
304.272
304.175
304.011
304.064
304.01
303.981
304.06
303.973
303.87
303.76
302.577
302.575
302.561
302.677
302.665
302.657
302.489
302.454
302.59
302.621
302.558
302.518
302.381
302.437
302.433
302.397
302.467
302.416
302.331
302.254
300.866
300.878
300.864
300.912
300.893
300.919
300.838
300.835
300.875
300.866
300.864
300.832
300.788
300.818
300.812
300.791
300.822
300.791
300.785
300.764
313.359
313.448
313.429
313.615
313.753
313.729
313.563
313.498
313.586
313.452
313.424
313.32
313.122
312.824
312.657
312.52
312.468
312.268
312.347
311.92
311.597
311.676
311.669
311.793
311.963
311.951
311.766
311.655
311.756
311.679
311.654
311.542
311.356
311.095
310.923
310.83
310.834
310.662
310.7
310.342
309.794
309.911
309.873
309.944
310.115
310.185
309.992
309.799
309.907
309.901
309.88
309.741
309.602
309.346
309.223
309.174
309.176
309.085
309.076
308.75
308.038
308.164
308.119
308.156
308.275
308.352
308.198
307.986
308.087
308.098
308.068
307.977
307.847
307.614
307.507
307.55
307.526
307.46
307.386
307.139
306.279
306.353
306.352
306.362
306.447
306.539
306.386
306.198
306.308
306.306
306.256
306.228
306.089
305.922
305.785
305.901
305.898
305.837
305.737
305.536
304.487
304.516
304.526
304.534
304.623
304.674
304.58
304.396
304.496
304.56
304.423
304.441
304.382
304.252
304.104
304.276
304.267
304.201
304.115
303.963
302.666
302.717
302.716
302.748
302.78
302.787
302.764
302.608
302.699
302.734
302.695
302.632
302.643
302.559
302.456
302.594
302.558
302.551
302.456
302.394
300.913
300.918
300.904
300.915
300.945
300.938
300.914
300.867
300.902
300.919
300.903
300.886
300.894
300.873
300.792
300.877
300.831
300.874
300.812
300.812
314.207
314.264
314.597
314.756
314.747
314.662
314.617
314.258
314.479
314.211
314.421
314.098
313.999
313.876
313.518
313.509
313.516
313.408
313.264
312.75
312.327
312.351
312.67
312.786
312.801
312.704
312.659
312.35
312.55
312.299
312.48
312.194
312.143
311.96
311.724
311.659
311.705
311.571
311.482
311.046
310.398
310.507
310.707
310.816
310.836
310.788
310.75
310.457
310.644
310.424
310.555
310.329
310.243
310.114
309.922
309.837
309.882
309.755
309.708
309.332
308.5
308.616
308.744
308.877
308.862
308.882
308.798
308.565
308.671
308.546
308.642
308.466
308.38
308.274
308.092
308.063
308.038
307.969
307.933
307.634
306.616
306.686
306.801
306.923
306.898
306.961
306.833
306.664
306.743
306.649
306.708
306.592
306.51
306.476
306.272
306.289
306.245
306.186
306.144
305.913
304.682
304.769
304.835
304.982
304.953
304.995
304.931
304.778
304.797
304.756
304.793
304.716
304.697
304.602
304.457
304.503
304.471
304.392
304.4
304.214
302.788
302.874
302.912
302.992
302.991
303.024
302.937
302.864
302.876
302.836
302.864
302.838
302.838
302.739
302.663
302.7
302.651
302.63
302.646
302.522
300.926
300.965
300.942
301.009
301.007
301.022
300.992
300.956
300.984
300.93
300.95
300.951
300.961
300.909
300.898
300.907
300.889
300.887
300.884
300.835
315.321
315.392
315.45
315.686
315.865
315.728
315.576
315.523
315.499
315.325
315.639
315.219
315.119
314.953
314.635
314.704
314.518
314.306
314.136
313.83
313.279
313.357
313.372
313.631
313.776
313.639
313.481
313.431
313.434
313.286
313.554
313.171
313.091
312.94
312.639
312.754
312.533
312.376
312.204
311.976
311.246
311.324
311.294
311.554
311.663
311.586
311.409
311.348
311.393
311.246
311.412
311.135
311.073
310.941
310.649
310.833
310.544
310.525
310.301
310.105
309.234
309.264
309.241
309.46
309.509
309.495
309.329
309.268
309.372
309.202
309.291
309.106
309.052
308.941
308.652
308.889
308.609
308.701
308.398
308.247
307.192
307.166
307.225
307.353
307.408
307.391
307.221
307.198
307.291
307.179
307.186
307.089
307.098
306.944
306.733
306.958
306.73
306.836
306.523
306.399
305.167
305.105
305.193
305.254
305.223
305.286
305.143
305.151
305.275
305.143
305.099
305.065
305.096
304.961
304.801
304.958
304.798
304.902
304.624
304.546
303.161
303.048
303.181
303.187
303.096
303.186
303.08
303.111
303.205
303.133
303.046
303.043
303.047
302.987
302.905
302.993
302.902
302.953
302.75
302.722
301.062
301.033
301.094
301.063
301.037
301.075
301.048
301.046
301.078
301.078
301.003
300.997
301.02
300.995
300.985
300.995
300.976
300.985
300.922
300.898
316.488
316.587
316.49
316.689
316.885
316.68
316.761
316.782
316.602
316.634
316.991
316.387
316.286
316.074
315.898
315.754
315.703
315.345
315.16
314.806
314.31
314.41
314.284
314.469
314.655
314.521
314.521
314.56
314.375
314.365
314.701
314.245
314.087
313.86
313.738
313.645
313.655
313.286
313.135
312.851
312.129
312.218
312.081
312.252
312.4
312.357
312.28
312.294
312.177
312.16
312.399
312.075
311.894
311.683
311.596
311.527
311.549
311.25
311.139
310.892
309.889
310.036
309.925
310.051
310.134
310.159
309.983
310.062
309.974
309.971
310.13
309.939
309.754
309.574
309.44
309.402
309.459
309.242
309.141
308.933
307.712
307.786
307.735
307.846
307.84
307.891
307.739
307.844
307.788
307.783
307.86
307.732
307.599
307.421
307.291
307.31
307.383
307.177
307.149
306.941
305.541
305.545
305.548
305.613
305.564
305.614
305.547
305.62
305.614
305.555
305.637
305.517
305.428
305.251
305.195
305.186
305.279
305.112
305.158
304.935
303.33
303.34
303.351
303.379
303.356
303.343
303.312
303.372
303.381
303.311
303.401
303.315
303.253
303.121
303.111
303.124
303.164
303.028
303.12
302.986
301.075
301.138
301.127
301.135
301.118
301.124
301.095
301.126
301.14
301.103
301.166
301.128
301.086
301.032
301.042
301.025
301.064
301.014
301.044
300.992
317.461
317.491
317.462
317.744
318.114
317.881
317.742
317.961
318.024
317.892
318.049
317.51
317.653
317.295
316.962
316.91
316.57
316.339
316.352
316.062
315.137
315.147
315.152
315.379
315.71
315.486
315.379
315.573
315.615
315.495
315.665
315.187
315.284
314.968
314.657
314.649
314.339
314.134
314.143
313.89
312.798
312.817
312.828
313
313.262
313.075
313.035
313.186
313.181
313.053
313.218
312.882
312.926
312.647
312.374
312.374
312.124
311.94
311.965
311.763
310.476
310.48
310.512
310.59
310.829
310.656
310.692
310.778
310.794
310.63
310.8
310.564
310.566
310.297
310.11
310.087
309.912
309.75
309.766
309.667
308.092
308.161
308.141
308.228
308.393
308.28
308.346
308.427
308.41
308.256
308.413
308.208
308.227
307.985
307.863
307.829
307.687
307.6
307.574
307.514
305.76
305.853
305.831
305.893
305.974
305.903
305.96
306.044
305.989
305.877
306.011
305.85
305.874
305.691
305.623
305.581
305.517
305.436
305.387
305.325
303.478
303.513
303.489
303.509
303.576
303.53
303.58
303.627
303.601
303.536
303.591
303.534
303.524
303.407
303.363
303.364
303.308
303.282
303.222
303.185
301.158
301.17
301.154
301.179
301.208
301.179
301.201
301.22
301.196
301.178
301.19
301.17
301.178
301.142
301.131
301.119
301.102
301.099
301.073
301.055
318.338
318.529
318.575
318.829
319.044
319.074
318.916
319.123
319.062
319.084
318.987
318.77
318.873
318.498
318.142
317.98
317.726
317.548
317.393
316.938
315.898
316.083
316.07
316.335
316.533
316.581
316.39
316.575
316.488
316.529
316.466
316.236
316.373
316.023
315.697
315.531
315.364
315.214
315.055
314.739
313.502
313.638
313.605
313.843
313.99
314.059
313.861
314.04
313.95
313.979
313.931
313.683
313.829
313.589
313.27
313.125
312.975
312.863
312.702
312.511
311.069
311.175
311.143
311.359
311.474
311.525
311.342
311.536
311.378
311.427
311.402
311.128
311.348
311.143
310.876
310.699
310.552
310.498
310.368
310.237
308.563
308.709
308.674
308.872
308.945
308.996
308.858
308.961
308.832
308.858
308.839
308.646
308.839
308.697
308.446
308.294
308.177
308.188
308.054
307.983
306.115
306.236
306.222
306.365
306.419
306.428
306.366
306.412
306.282
306.34
306.321
306.187
306.316
306.221
306.045
305.943
305.805
305.843
305.759
305.748
303.691
303.77
303.753
303.831
303.87
303.862
303.825
303.812
303.78
303.808
303.806
303.728
303.793
303.734
303.585
303.551
303.456
303.496
303.432
303.445
301.238
301.273
301.256
301.276
301.299
301.297
301.274
301.265
301.258
301.285
301.275
301.247
301.268
301.253
301.211
301.198
301.158
301.156
301.144
301.147
319.163
319.582
319.697
319.984
320.114
320.158
320.153
320.235
320.231
320.12
320.144
320.193
320.009
319.608
319.416
319.159
318.942
318.628
318.386
317.975
316.643
316.997
317.107
317.325
317.439
317.475
317.53
317.555
317.53
317.435
317.455
317.512
317.328
316.94
316.813
316.6
316.384
316.124
315.961
315.554
314.133
314.383
314.487
314.649
314.781
314.829
314.867
314.827
314.865
314.777
314.78
314.819
314.629
314.317
314.236
314.028
313.836
313.638
313.478
313.148
311.565
311.757
311.85
311.992
312.099
312.18
312.188
312.096
312.186
312.114
312.102
312.109
311.976
311.699
311.632
311.459
311.25
311.165
311.035
310.735
309.015
309.173
309.205
309.326
309.433
309.518
309.532
309.435
309.487
309.438
309.403
309.411
309.325
309.139
309.047
308.961
308.704
308.679
308.582
308.347
306.477
306.569
306.573
306.677
306.737
306.83
306.837
306.775
306.778
306.749
306.743
306.725
306.678
306.558
306.45
306.388
306.188
306.17
306.117
305.992
303.936
303.978
303.93
304.03
304.041
304.082
304.133
304.025
304.069
304.049
304.047
304.02
304.02
303.95
303.887
303.81
303.679
303.695
303.664
303.633
301.333
301.337
301.324
301.334
301.369
301.357
301.398
301.366
301.361
301.365
301.36
301.345
301.351
301.315
301.315
301.287
301.218
301.224
301.239
301.207
320.278
320.494
320.933
321.06
321.034
321.208
321.313
321.732
321.492
321.364
321.082
321.307
321.106
320.704
320.382
320.198
319.927
319.653
319.42
318.85
317.613
317.786
318.184
318.296
318.25
318.36
318.5
318.826
318.598
318.489
318.289
318.433
318.327
317.913
317.625
317.495
317.25
317.007
316.861
316.336
314.961
315.082
315.378
315.515
315.444
315.502
315.684
315.941
315.729
315.635
315.484
315.613
315.483
315.139
314.857
314.78
314.567
314.351
314.24
313.818
312.276
312.341
312.531
312.682
312.62
312.658
312.85
313.029
312.847
312.802
312.708
312.745
312.699
312.321
312.09
312.056
311.901
311.723
311.624
311.345
309.614
309.602
309.723
309.838
309.794
309.834
309.991
310.106
309.95
309.974
309.897
309.909
309.894
309.561
309.359
309.342
309.261
309.093
309.02
308.833
306.879
306.879
306.965
306.975
306.948
307.018
307.134
307.178
307.115
307.161
307.082
307.076
307.065
306.816
306.652
306.654
306.598
306.487
306.438
306.36
304.104
304.112
304.208
304.162
304.192
304.198
304.285
304.269
304.279
304.309
304.27
304.236
304.211
304.113
303.969
303.969
303.945
303.911
303.859
303.841
301.381
301.394
301.422
301.384
301.429
301.399
301.44
301.406
301.442
301.467
301.428
301.399
301.41
301.383
301.326
301.326
301.329
301.307
301.309
301.277
321.358
321.528
321.936
322.131
322.133
322.22
322.482
322.7
322.7
322.597
322.259
322.235
322.256
321.794
321.439
321.18
320.841
320.435
320.145
319.914
318.595
318.712
319.023
319.194
319.172
319.255
319.545
319.653
319.696
319.571
319.278
319.298
319.278
318.901
318.58
318.351
317.987
317.688
317.441
317.234
315.789
315.881
316.088
316.244
316.202
316.288
316.561
316.602
316.639
316.57
316.291
316.388
316.282
315.975
315.713
315.513
315.206
315.016
314.756
314.622
313.006
313.022
313.176
313.291
313.28
313.344
313.611
313.594
313.591
313.593
313.336
313.454
313.326
313.109
312.868
312.69
312.431
312.366
312.075
311.991
310.18
310.151
310.209
310.331
310.332
310.388
310.632
310.573
310.588
310.556
310.4
310.499
310.401
310.162
310.006
309.884
309.665
309.665
309.393
309.32
307.317
307.273
307.278
307.393
307.404
307.47
307.61
307.562
307.573
307.544
307.446
307.544
307.43
307.228
307.111
307.047
306.919
306.952
306.707
306.68
304.386
304.38
304.362
304.433
304.429
304.465
304.56
304.53
304.533
304.528
304.468
304.554
304.47
304.334
304.27
304.193
304.138
304.203
303.987
304.015
301.482
301.453
301.495
301.478
301.489
301.49
301.54
301.504
301.517
301.524
301.495
301.537
301.501
301.435
301.433
301.398
301.393
301.412
301.326
301.334
322.26
322.644
322.897
323.203
323.254
323.353
323.52
323.715
323.724
323.519
323.483
323.292
323.211
322.863
322.735
322.29
321.984
321.448
321.067
320.941
319.359
319.651
319.893
320.136
320.142
320.252
320.407
320.598
320.567
320.39
320.348
320.183
320.111
319.833
319.685
319.298
319.049
318.555
318.273
318.174
316.428
316.655
316.863
317.07
317.032
317.095
317.262
317.49
317.44
317.251
317.254
317.111
316.999
316.748
316.623
316.317
316.129
315.659
315.495
315.419
313.516
313.619
313.8
313.975
313.929
313.959
314.123
314.353
314.284
314.137
314.187
314.063
313.918
313.679
313.611
313.358
313.179
312.8
312.686
312.628
310.563
310.591
310.719
310.859
310.853
310.811
311.004
311.202
311.123
311.032
311.069
310.919
310.843
310.641
310.604
310.387
310.189
309.954
309.856
309.807
307.631
307.569
307.652
307.736
307.758
307.704
307.845
308.01
307.973
307.884
307.924
307.786
307.719
307.616
307.596
307.41
307.267
307.099
307.075
307.032
304.634
304.533
304.598
304.651
304.677
304.637
304.706
304.825
304.8
304.755
304.754
304.691
304.602
304.577
304.57
304.422
304.386
304.261
304.273
304.216
301.561
301.527
301.556
301.546
301.58
301.543
301.568
301.6
301.602
301.607
301.599
301.574
301.543
301.526
301.511
301.484
301.477
301.435
301.437
301.412
323.161
323.509
323.77
324.139
324.438
324.363
324.473
324.595
324.689
324.542
324.56
324.476
324.245
323.883
323.857
323.473
323.285
322.478
322.201
321.912
320.139
320.385
320.619
320.932
321.154
321.137
321.225
321.311
321.379
321.287
321.295
321.19
321.007
320.659
320.708
320.368
320.203
319.485
319.231
319.008
317.065
317.216
317.467
317.754
317.886
317.891
318.017
318.048
318.063
318.003
318.028
317.939
317.797
317.474
317.523
317.276
317.113
316.512
316.246
316.078
313.966
314.079
314.279
314.525
314.656
314.644
314.78
314.752
314.792
314.715
314.735
314.675
314.537
314.302
314.374
314.172
314.033
313.529
313.309
313.167
310.863
310.973
311.086
311.315
311.417
311.392
311.515
311.447
311.492
311.444
311.408
311.418
311.302
311.113
311.219
311.053
310.959
310.562
310.342
310.257
307.782
307.855
307.891
308.102
308.152
308.139
308.217
308.137
308.198
308.198
308.11
308.171
308.078
307.909
308.004
307.897
307.85
307.569
307.415
307.321
304.661
304.706
304.683
304.856
304.895
304.895
304.967
304.873
304.921
304.941
304.855
304.897
304.856
304.765
304.81
304.748
304.714
304.532
304.454
304.414
301.562
301.557
301.577
301.632
301.664
301.645
301.674
301.639
301.664
301.667
301.618
301.629
301.628
301.599
301.629
301.593
301.586
301.529
301.491
301.471
323.627
324.207
324.558
324.965
325.524
325.549
325.5
325.634
325.726
325.459
325.54
325.467
325.28
324.89
324.927
324.752
324.391
323.382
323.149
322.673
320.479
320.987
321.292
321.659
322.178
322.167
322.096
322.165
322.279
322.104
322.107
322.037
321.92
321.575
321.594
321.532
321.126
320.266
320.096
319.713
317.369
317.75
318.006
318.389
318.789
318.762
318.653
318.745
318.842
318.737
318.691
318.635
318.519
318.28
318.284
318.301
317.853
317.182
317.008
316.721
314.23
314.477
314.775
315.071
315.399
315.408
315.268
315.389
315.414
315.36
315.293
315.236
315.136
314.953
314.953
315.058
314.615
314.076
313.883
313.73
311.055
311.297
311.518
311.753
311.985
312.044
311.864
312.007
312.001
311.933
311.849
311.841
311.763
311.663
311.61
311.766
311.376
311.012
310.818
310.707
307.915
308.096
308.261
308.393
308.586
308.618
308.468
308.599
308.574
308.497
308.472
308.44
308.389
308.372
308.295
308.434
308.154
307.901
307.736
307.648
304.769
304.873
304.964
305.039
305.166
305.149
305.095
305.167
305.086
305.131
305.11
305.046
305.029
305.031
304.979
305.111
304.896
304.78
304.665
304.608
301.603
301.634
301.673
301.68
301.733
301.71
301.727
301.732
301.684
301.732
301.733
301.674
301.686
301.671
301.673
301.714
301.631
301.614
301.572
301.537
324.543
324.959
325.392
325.75
326.228
326.338
326.485
326.546
326.807
326.423
326.613
326.44
326.102
325.923
325.613
325.401
325.123
324.582
324.096
323.61
321.252
321.635
321.984
322.316
322.763
322.869
322.938
323.006
323.232
322.941
323.076
322.882
322.621
322.45
322.196
322.043
321.788
321.301
320.866
320.466
317.935
318.322
318.622
318.889
319.306
319.388
319.39
319.429
319.67
319.418
319.49
319.317
319.177
318.997
318.808
318.685
318.443
318.075
317.668
317.339
314.668
314.944
315.28
315.447
315.846
315.9
315.86
315.843
316.063
315.914
315.912
315.758
315.689
315.54
315.428
315.365
315.114
314.781
314.448
314.216
311.394
311.609
311.909
312.034
312.311
312.352
312.346
312.307
312.499
312.4
312.363
312.241
312.186
312.092
312.013
311.984
311.763
311.52
311.247
311.078
308.134
308.312
308.495
308.621
308.782
308.789
308.788
308.809
308.909
308.845
308.83
308.728
308.679
308.615
308.565
308.575
308.409
308.252
308.029
307.925
304.923
305.023
305.094
305.192
305.278
305.259
305.255
305.28
305.359
305.297
305.302
305.239
305.199
305.14
305.144
305.126
305.02
304.98
304.818
304.809
301.662
301.676
301.724
301.724
301.76
301.757
301.761
301.753
301.78
301.789
301.8
301.738
301.729
301.711
301.718
301.71
301.684
301.647
301.622
301.635
325.406
325.744
326.223
326.401
326.836
327.066
327.263
327.431
327.529
327.41
327.372
327.348
327.16
326.754
326.593
326.208
325.995
325.273
324.795
324.437
322.013
322.334
322.717
322.921
323.263
323.514
323.632
323.796
323.928
323.746
323.747
323.678
323.549
323.222
323.082
322.716
322.536
321.947
321.465
321.21
318.645
318.943
319.231
319.441
319.67
319.876
320.01
320.188
320.287
320.108
320.093
320.013
319.961
319.673
319.521
319.213
319.068
318.596
318.148
317.97
315.22
315.523
315.711
315.927
316.136
316.244
316.363
316.551
316.601
316.509
316.44
316.396
316.319
316.109
315.975
315.739
315.612
315.241
314.808
314.706
311.83
312.066
312.203
312.385
312.546
312.612
312.718
312.912
312.954
312.886
312.743
312.8
312.664
312.584
312.448
312.243
312.125
311.852
311.542
311.457
308.448
308.615
308.717
308.823
309.006
308.968
309.108
309.248
309.227
309.218
309.071
309.194
309.064
309.038
308.909
308.72
308.661
308.483
308.281
308.208
305.081
305.193
305.266
305.268
305.447
305.385
305.494
305.572
305.546
305.578
305.425
305.55
305.462
305.46
305.32
305.257
305.184
305.101
305.009
304.924
301.717
301.733
301.773
301.763
301.843
301.796
301.862
301.877
301.843
301.872
301.817
301.878
301.804
301.823
301.787
301.767
301.73
301.702
301.683
301.646
325.987
326.362
326.956
327.169
327.599
327.827
328.191
328.117
328.299
328.411
328.157
328.382
327.982
327.776
327.335
327.095
326.804
326.147
325.455
325.142
322.572
322.856
323.395
323.534
323.903
324.11
324.401
324.369
324.507
324.617
324.423
324.612
324.223
324.096
323.723
323.463
323.202
322.692
322.057
321.79
319.121
319.384
319.849
319.92
320.221
320.391
320.611
320.605
320.709
320.817
320.652
320.805
320.482
320.421
320.107
319.848
319.618
319.258
318.682
318.447
315.692
315.895
316.26
316.311
316.549
316.678
316.85
316.909
316.941
317.012
316.914
317.037
316.789
316.757
316.473
316.239
316.006
315.8
315.294
315.095
312.222
312.377
312.679
312.732
312.852
313.022
313.099
313.143
313.159
313.188
313.155
313.291
313.034
313.078
312.82
312.68
312.417
312.314
311.935
311.718
308.747
308.86
309.072
309.101
309.208
309.3
309.352
309.402
309.375
309.384
309.384
309.556
309.319
309.361
309.142
309.092
308.85
308.793
308.55
308.392
305.272
305.334
305.471
305.46
305.551
305.598
305.615
305.645
305.618
305.644
305.622
305.75
305.608
305.61
305.472
305.453
305.345
305.287
305.172
305.05
301.784
301.772
301.837
301.834
301.864
301.883
301.898
301.905
301.878
301.894
301.896
301.938
301.893
301.864
301.83
301.84
301.803
301.766
301.758
301.697
326.816
327.284
327.662
328.121
328.364
328.645
328.911
329.067
329.237
329.219
329.195
329.139
328.828
328.679
328.093
327.948
327.339
326.858
326.346
325.804
323.298
323.688
324.002
324.4
324.599
324.852
325.08
325.189
325.352
325.319
325.292
325.277
324.989
324.843
324.384
324.245
323.679
323.316
322.84
322.4
319.774
320.08
320.392
320.672
320.821
321.033
321.244
321.294
321.473
321.447
321.34
321.405
321.116
321.024
320.675
320.523
320.03
319.774
319.255
318.967
316.233
316.474
316.705
316.89
317.041
317.196
317.399
317.404
317.563
317.534
317.44
317.518
317.283
317.221
316.959
316.832
316.378
316.188
315.693
315.516
312.663
312.841
312.985
313.152
313.279
313.39
313.52
313.537
313.621
313.659
313.562
313.61
313.424
313.419
313.207
313.117
312.756
312.6
312.209
312.1
309.047
309.192
309.305
309.389
309.476
309.594
309.679
309.67
309.66
309.74
309.716
309.743
309.574
309.598
309.427
309.414
309.132
309.024
308.753
308.62
305.443
305.567
305.603
305.646
305.725
305.8
305.776
305.779
305.765
305.839
305.875
305.897
305.722
305.784
305.645
305.701
305.508
305.451
305.257
305.168
301.835
301.863
301.885
301.894
301.926
301.951
301.934
301.924
301.957
301.966
301.976
301.982
301.917
301.95
301.891
301.916
301.857
301.841
301.749
301.727
327.314
327.865
328.438
328.748
329.105
329.338
329.723
329.746
329.855
329.764
329.837
329.771
329.651
329.291
328.897
328.626
328.04
327.452
327.16
326.646
323.702
324.209
324.658
324.907
325.22
325.432
325.753
325.808
325.922
325.819
325.858
325.795
325.726
325.4
325.084
324.82
324.254
323.783
323.553
323.129
320.067
320.53
320.867
321.06
321.313
321.547
321.79
321.883
321.988
321.842
321.869
321.826
321.78
321.538
321.281
320.972
320.513
320.182
319.956
319.627
316.445
316.832
317.097
317.219
317.424
317.679
317.843
317.95
318.026
317.851
317.837
317.881
317.836
317.693
317.441
317.226
316.786
316.568
316.337
316.042
312.782
313.117
313.316
313.409
313.52
313.78
313.9
313.985
314.041
313.866
313.829
313.937
313.922
313.847
313.624
313.384
313.048
312.908
312.74
312.456
309.136
309.387
309.533
309.592
309.646
309.861
309.966
310.031
310.081
309.879
309.882
309.969
309.945
309.925
309.759
309.598
309.322
309.234
309.092
308.903
305.515
305.657
305.769
305.745
305.79
305.933
305.979
306.037
306.072
305.913
305.972
306.02
305.973
305.988
305.892
305.771
305.613
305.577
305.459
305.352
301.83
301.906
301.937
301.931
301.964
302.004
301.99
302.006
302.027
301.974
302.016
302.021
301.991
302.013
301.983
301.946
301.905
301.872
301.817
301.797
327.853
328.48
328.833
329.142
329.492
329.99
330.492
330.501
330.494
330.424
330.365
330.314
330.421
329.99
329.596
329.058
328.581
328.273
327.559
327.271
324.17
324.715
324.985
325.302
325.543
325.984
326.478
326.429
326.465
326.378
326.292
326.266
326.378
326.084
325.654
325.177
324.735
324.491
323.902
323.654
320.461
320.947
321.137
321.378
321.608
321.95
322.441
322.352
322.397
322.39
322.228
322.2
322.308
322.141
321.716
321.318
320.921
320.766
320.221
320.028
316.758
317.192
317.288
317.486
317.698
318.001
318.345
318.291
318.365
318.346
318.16
318.185
318.285
318.14
317.816
317.464
317.153
317.013
316.583
316.375
313.036
313.419
313.402
313.66
313.779
314.051
314.229
314.233
314.275
314.274
314.092
314.171
314.253
314.13
313.894
313.626
313.31
313.308
312.922
312.765
309.288
309.556
309.525
309.746
309.847
310.042
310.155
310.193
310.185
310.154
310.066
310.138
310.203
310.06
309.937
309.741
309.466
309.554
309.3
309.118
305.573
305.735
305.686
305.826
305.934
306.044
306.094
306.112
306.12
306.081
306.056
306.081
306.155
306.037
305.966
305.832
305.677
305.796
305.603
305.525
301.866
301.921
301.885
301.956
301.996
302.024
302.055
302.054
302.044
302.018
302.032
302.03
302.065
301.997
301.997
301.959
301.912
301.961
301.877
301.86
328.066
328.738
329.089
329.553
330.026
330.593
330.823
330.753
331.071
330.904
330.775
330.752
330.708
330.329
329.844
329.507
329.205
328.54
327.83
327.623
324.358
324.914
325.209
325.587
325.959
326.477
326.714
326.645
326.944
326.836
326.651
326.702
326.611
326.293
325.876
325.491
325.321
324.712
324.121
323.938
320.606
321.104
321.336
321.647
321.907
322.375
322.672
322.59
322.803
322.777
322.517
322.624
322.513
322.295
321.914
321.53
321.447
320.912
320.427
320.308
316.83
317.311
317.436
317.658
317.894
318.278
318.545
318.507
318.665
318.698
318.425
318.551
318.442
318.261
317.922
317.6
317.593
317.128
316.736
316.619
313.06
313.443
313.537
313.742
313.913
314.21
314.395
314.414
314.546
314.597
314.345
314.447
314.381
314.193
313.928
313.713
313.702
313.359
312.996
312.947
309.316
309.597
309.651
309.836
309.938
310.136
310.284
310.289
310.399
310.437
310.279
310.374
310.29
310.127
309.936
309.746
309.763
309.568
309.296
309.246
305.581
305.761
305.787
305.897
305.965
306.068
306.184
306.2
306.242
306.261
306.163
306.258
306.203
306.085
305.988
305.844
305.869
305.752
305.615
305.593
301.875
301.917
301.922
302.001
302.008
302.022
302.056
302.075
302.084
302.091
302.077
302.1
302.087
302.057
302.028
301.98
301.974
301.939
301.887
301.881
)
;

boundaryField
{
    hotSide
    {
        type            fixedGradient;
        gradient        nonuniform List<scalar> 
400
(
129.838
140.332
150.93
161.584
172.246
182.867
193.394
203.777
213.964
223.903
233.544
242.835
251.729
260.179
268.142
275.575
282.441
288.704
294.334
299.302
130.979
141.773
152.678
163.648
174.631
185.577
196.432
207.144
217.659
227.924
237.887
247.494
256.698
265.449
273.701
281.412
288.543
295.056
300.919
306.104
131.787
142.853
154.04
165.297
176.573
187.816
198.972
209.986
220.803
231.368
241.627
251.527
261.016
270.045
278.567
286.537
293.913
300.66
306.742
312.131
132.288
143.598
155.036
166.551
178.09
189.601
201.028
212.314
223.404
234.24
244.769
254.934
264.684
273.966
282.733
290.94
298.542
305.503
311.788
317.365
132.512
144.035
155.693
167.434
179.206
190.952
202.618
214.145
225.476
236.554
247.321
257.723
267.704
277.213
286.2
294.619
302.425
309.579
316.046
321.793
132.489
144.193
156.038
167.973
179.943
191.892
203.763
215.497
227.037
238.323
249.298
259.904
270.087
279.794
288.973
297.576
305.561
312.885
319.513
325.411
132.249
144.101
156.101
168.195
180.328
192.445
204.486
216.392
228.105
239.565
250.713
261.491
271.844
281.716
291.057
299.818
307.954
315.423
322.188
328.217
131.822
143.789
155.907
168.125
180.386
192.633
204.808
216.85
228.7
240.298
251.583
262.499
272.987
282.993
292.464
301.352
309.611
317.198
324.076
330.211
131.234
143.28
155.482
167.787
180.139
192.48
204.751
216.891
228.841
240.539
251.925
262.942
273.53
283.635
293.204
302.188
310.54
318.217
325.181
331.398
130.507
142.598
154.848
167.203
179.608
192.005
204.333
216.533
228.544
240.304
251.754
262.834
273.486
283.656
293.289
302.335
310.749
318.486
325.509
331.783
129.66
141.76
154.021
166.39
178.81
191.223
203.57
215.791
227.823
239.607
251.082
262.188
272.868
283.065
292.727
301.803
310.247
318.015
325.069
331.374
128.705
140.779
153.014
165.359
177.756
190.147
202.474
214.676
226.691
238.459
249.92
261.014
271.684
281.873
291.529
300.601
309.043
316.811
323.866
330.176
127.65
139.662
151.836
164.118
176.454
188.785
201.052
213.196
225.154
236.868
248.276
259.321
269.943
280.088
289.702
298.736
307.143
314.881
321.91
328.197
126.496
138.411
150.487
162.671
174.907
187.14
199.309
211.355
223.218
234.838
246.156
257.112
267.65
277.714
287.252
296.215
304.556
312.233
319.207
325.444
125.239
137.023
148.965
161.014
173.114
185.21
197.243
209.153
220.883
232.372
243.56
254.392
264.809
274.757
284.185
293.044
301.287
308.873
315.764
321.927
123.872
135.49
147.264
159.142
171.07
182.992
194.851
206.589
218.148
229.468
240.491
251.161
261.422
271.221
280.505
289.228
297.343
304.81
311.591
317.654
122.381
133.802
145.373
157.046
168.766
180.479
192.129
203.658
215.009
226.125
236.948
247.422
257.493
267.108
276.217
284.773
292.731
300.052
306.698
312.637
120.752
131.943
143.28
154.714
166.192
177.662
189.068
200.354
211.463
222.34
232.929
243.174
253.023
262.424
271.328
279.688
287.462
294.61
301.096
306.889
118.967
129.898
140.969
152.133
163.338
174.532
185.661
196.671
207.506
218.113
228.435
238.421
248.017
257.174
265.844
273.982
281.546
288.497
294.801
300.427
117.009
127.651
138.427
149.291
160.192
171.08
181.902
192.605
203.136
213.442
223.469
233.166
242.482
251.368
259.778
267.669
274.999
281.732
287.834
293.275
)
;
    }
    coldSide
    {
        type            mixed;
        refValue        uniform 300;
        refGradient     uniform 0;
        valueFraction   uniform 0.991591;
        source          uniform 0;
        value           nonuniform List<scalar> 
400
(
300.007
300.008
300.008
300.009
300.009
300.01
300.01
300.011
300.012
300.012
300.013
300.013
300.013
300.014
300.014
300.015
300.015
300.015
300.016
300.016
300.007
300.008
300.008
300.009
300.01
300.01
300.011
300.011
300.012
300.012
300.013
300.013
300.014
300.014
300.015
300.015
300.016
300.016