/*--------------------------------*- C++ -*----------------------------------*\
| =========                 |                                                 |
| \\      /  F ield         | OpenFOAM: The Open Source CFD Toolbox           |
|  \\    /   O peration     | Version:  2212                                  |
|   \\  /    A nd           | Website:  www.openfoam.com                      |
|    \\/     M anipulation  |                                                 |
\*---------------------------------------------------------------------------*/
FoamFile
{
    version     2.0;
    format      ascii;
    arch        "LSB;label=32;scalar=64";
    class       volScalarField;
    location    "./ITHACAoutput/true/14.8";
    object      error;
}
// * * * * * * * * * * * * * * * * * * * * * * * * * * * * * * * * * * * * * //

dimensions      [0 0 0 1 0 0 0];

internalField   nonuniform List<scalar> 
3200
(
-2.37775
-0.642899
0.86028
1.85171
2.39316
2.59648
2.60927
2.453
2.2817
1.99822
1.90137
1.84118
1.5989
1.61986
1.42566
1.10747
0.543409
-0.391169
-1.87843
-3.62496
-1.78824
-0.364928
0.941922
1.82006
2.19682
2.40055
2.2867
2.30804
2.12791
1.93888
1.84336
1.80796
1.62179
1.61458
1.38925
1.16603
0.644692
-0.159848
-1.3736
-2.79044
-1.31835
-0.161189
0.880625
1.53724
2.03735
2.11895
2.15269
2.0849
1.97652
1.86644
1.59467
1.55123
1.54586
1.44779
1.37667
1.1518
0.76786
0.0937992
-1.01414
-2.16503
-0.934431
-0.0180402
0.783998
1.39701
1.73594
1.79298
1.78701
1.78399
1.59669
1.58034
1.5108
1.34627
1.38676
1.23678
1.1921
1.01112
0.669156
0.152489
-0.751338
-1.63572
-0.647213
0.0094048
0.72741
1.13028
1.29993
1.49347
1.47623
1.39266
1.2987
1.24163
1.21063
1.10624
1.10412
1.03548
0.974781
0.859239
0.609415
0.244238
-0.529102
-1.1315
-0.436017
0.052042
0.515923
0.851205
1.0457
1.15185
1.01502
1.03375
0.983963
0.955978
0.879751
0.845322
0.827946
0.810006
0.737706
0.698992
0.48513
0.212106
-0.311442
-0.790382
-0.198009
0.0578425
0.364548
0.447061
0.70901
0.630759
0.649844
0.631088
0.54347
0.589989
0.491655
0.487423
0.462395
0.500193
0.444867
0.42597
0.28605
0.0505886
-0.127304
-0.444248
-0.06327
0.0143397
0.140117
0.159206
0.250168
0.303154
0.277137
0.203473
0.168618
0.267935
0.214354
0.160202
0.171379
0.160779
0.166705
0.199572
0.0539988
0.0834678
-0.0212857
-0.175875
-2.28885
-0.581152
0.904032
1.77711
2.31047
2.56337
2.49889
2.25008
2.16227
1.89463
1.62519
1.54675
1.43664
1.44904
1.25344
0.985657
0.494937
-0.415242
-1.896
-3.62675
-1.79821
-0.29186
0.956875
1.71883
2.17881
2.38335
2.26533
2.12264
2.02874
1.77961
1.66187
1.58235
1.50268
1.34552
1.30564
1.10453
0.608654
-0.16946
-1.41078
-2.84233
-1.35484
-0.192652
0.96349
1.55184
1.98654
2.10206
2.02131
1.87779
1.78463
1.59594
1.56208
1.39738
1.28299
1.32801
1.21485
0.953169
0.641706
-0.0135658
-0.993592
-2.15239
-0.986292
-0.11225
0.749142
1.32456
1.59705
1.7589
1.68959
1.66848
1.51959
1.35571
1.30515
1.18652
1.16898
1.22186
1.1125
0.980884
0.735091
0.127043
-0.681235
-1.60366
-0.676896
-0.0282692
0.679839
1.03537
1.27419
1.3952
1.4127
1.36426
1.19095
1.15626
1.08506
1.02145
0.985866
0.891949
0.930431
0.804238
0.583192
0.14249
-0.489832
-1.17011
-0.438799
0.0451875
0.558011
0.817634
0.965236
1.00851
0.998808
0.999585
0.877585
0.833895
0.73165
0.692283
0.733551
0.661996
0.642976
0.588823
0.387863
0.123242
-0.32169
-0.842881
-0.223604
0.0559151
0.272798
0.476094
0.606105
0.530354
0.579082
0.644901
0.54762
0.467587
0.504204
0.429016
0.51
0.506933
0.441533
0.377834
0.256938
0.0764432
-0.211486
-0.388357
-0.0869662
0.0829714
0.0498807
0.195654
0.207792
0.321388
0.111732
0.180906
0.178049
0.158019
0.158878
0.259674
0.146068
0.165141
0.153058
0.127205
0.104619
-0.034774
-0.0837126
-0.0681615
-2.35428
-0.611047
0.761753
1.66847
2.14495
2.26897
2.16546
1.99451
1.72448
1.46134
1.32414
1.16977
1.15322
1.18285
1.02297
0.80218
0.325756
-0.595148
-2.05566
-3.6028
-1.94255
-0.395305
0.813161
1.62281
2.03557
2.17006
2.04105
1.86998
1.70959
1.55993
1.28559
1.15889
1.14472
1.09568
1.19454
0.895862
0.483387
-0.350793
-1.46158
-2.82131
-1.28587
-0.223393
0.801428
1.43595
1.8506
1.91465
1.88208
1.7086
1.50419
1.34996
1.28847
1.11311
1.14121
1.10443
1.04451
0.923926
0.549632
-0.116007
-1.1279
-2.16184
-1.00025
-0.0705126
0.749919
1.26591
1.56933
1.60794
1.59621
1.4942
1.34742
1.22412
1.13636
0.956582
0.925225
1.11634
1.03084
0.837842
0.546177
0.0117203
-0.677456
-1.70561
-0.736328
-0.00181716
0.6514
1.05162
1.32522
1.28235
1.29612
1.31282
1.0631
0.928013
0.987712
0.789623
0.785813
0.787272
0.868195
0.79848
0.484041
0.0837217
-0.554825
-1.14576
-0.43313
0.0477657
0.396034
0.783285
0.837523
0.898648
0.949179
0.84403
0.75641
0.751358
0.65471
0.638078
0.616273
0.611753
0.618467
0.584334
0.357777
0.040203
-0.297384
-0.872754
-0.292215
0.00899921
0.250268
0.570198
0.543319
0.650286
0.543946
0.499108
0.465808
0.375877
0.42005
0.434039
0.399465
0.384656
0.366112
0.349491
0.296975
0.0139968
-0.181827
-0.451528
-0.107692
0.0902031
0.11599
0.151029
0.239366
0.192212
0.101975
0.194539
0.112873
0.162429
0.164927
0.150842
0.0524403
0.132419
0.199312
0.177612
0.10124
0.0152373
-0.0893916
-0.24226
-2.55191
-0.918648
0.556306
1.41443
1.91637
2.04641
1.86052
1.68437
1.39182
1.09084
0.876813
0.708724
0.71154
0.727378
0.699776
0.513404
0.0873874
-0.86078
-2.20632
-3.84245
-1.95188
-0.604051
0.598238
1.40117
1.70642
1.79084
1.7484
1.50824
1.25611
1.13047
0.943511
0.831181
0.853905
0.808759
0.816697
0.644248
0.230873
-0.497408
-1.64087
-2.96558
-1.41872
-0.453345
0.613738
1.297
1.61806
1.66061
1.60555
1.46886
1.27068
1.0521
0.883293
0.817516
0.816914
0.847172
0.832434
0.781153
0.342601
-0.248801
-1.23235
-2.23377
-1.08985
-0.190386
0.599075
1.15334
1.37958
1.45638
1.41987
1.27364
1.14397
0.923368
0.771912
0.741746
0.694407
0.799316
0.784609
0.699295
0.394008
-0.132171
-0.847201
-1.74545
-0.753745
-0.184965
0.535351
0.897369
1.12138
1.17321
1.17571
1.00616
0.90725
0.724744
0.748081
0.689817
0.643779
0.609924
0.596761
0.642327
0.352276
-0.0775202
-0.628141
-1.25135
-0.474754
-0.0682402
0.383062
0.653605
0.755287
0.852603
0.86165
0.802205
0.74685
0.711093
0.581834
0.490441
0.458379
0.47235
0.514112
0.497153
0.311668
0.0353838
-0.348837
-0.872549
-0.298066
-0.008287
0.219612
0.446197
0.57862
0.543187
0.563578
0.526446
0.412983
0.442817
0.42455
0.275761
0.327459
0.281948
0.355425
0.268249
0.180107
0.047313
-0.245229
-0.45418
-0.0975598
-0.0328821
0.0936615
0.0998493
0.127708
0.13327
0.183695
0.147438
0.080266
0.0944017
0.104357
0.117092
0.187899
0.145521
0.0718631
0.0665765
0.00319987
0.00106793
-0.0236392
-0.144042
-2.86456
-1.23897
0.13665
1.15429
1.5299
1.64657
1.45115
1.27194
0.93958
0.655791
0.361236
0.307467
0.213482
0.405797
0.33992
0.136481
-0.150559
-1.14021
-2.40485
-4.00387
-2.17564
-0.817001
0.412046
1.17885
1.54843
1.61663
1.45969
1.28093
1.06139
0.746611
0.568447
0.476952
0.454696
0.517857
0.599324
0.445509
0.0247655
-0.712369
-1.83375
-3.07532
-1.67442
-0.572212
0.498244
1.11156
1.4356
1.44233
1.40549
1.23397
0.997824
0.712736
0.631145
0.504258
0.595804
0.574762
0.599524
0.492873
0.140212
-0.403161
-1.38711
-2.39478
-1.2098
-0.379868
0.334718
1.00979
1.23387
1.26397
1.17114
1.0946
0.858271
0.725586
0.527337
0.513771
0.509159
0.526882
0.613683
0.522134
0.195945
-0.283147
-0.928178
-1.84964
-0.931929
-0.242528
0.389577
0.806166
0.941625
1.00853
0.974327
0.905491
0.792664
0.658433
0.45614
0.505785
0.488945
0.539504
0.51502
0.454692
0.233149
-0.058541
-0.703529
-1.36065
-0.629946
-0.153982
0.424598
0.601068
0.739239
0.754793
0.689986
0.644918
0.539561
0.513283
0.368325
0.379626
0.330669
0.393544
0.392972
0.280581
0.189474
-0.0710606
-0.424781
-0.900837
-0.317918
-0.116162
0.191279
0.284401
0.480625
0.443634
0.446778
0.431252
0.316115
0.269123
0.233905
0.257618
0.25372
0.252508
0.242161
0.249199
0.169592
0.0166217
-0.274378
-0.506911
-0.0637258
-0.014912
0.0438806
0.158047
0.169582
0.0926409
0.133887
0.189736
0.16688
0.0670584
0.11545
0.0376765
0.025368
0.0603616
0.108895
0.0617205
0.0923022
0.0289878
0.000463433
-0.233012
-3.10477
-1.4725
-0.155334
0.751651
1.10143
1.27882
1.20983
0.802542
0.507947
0.245878
-0.0617307
-0.126084
-0.128932
-0.0373996
0.00149599
-0.177676
-0.57954
-1.38784
-2.71092
-4.19254
-2.45628
-1.09181
0.0493749
0.796583
1.12476
1.26639
1.16403
0.912436
0.658611
0.409587
0.0685621
0.123579
0.164014
0.190193
0.194841
0.119116
-0.314752
-1.02458
-2.07723
-3.29534
-1.81123
-0.786996
0.200382
0.834202
1.15587
1.2375
1.12972
0.855875
0.689917
0.429413
0.301767
0.166044
0.218631
0.34162
0.247335
0.215915
-0.11952
-0.703753
-1.61235
-2.51785
-1.30483
-0.515269
0.267049
0.758695
0.945286
1.08047
1.02112
0.777608
0.624787
0.394391
0.281196
0.27646
0.258751
0.406461
0.35038
0.183562
0.091453
-0.461775
-1.12437
-1.94302
-1.03699
-0.319256
0.23083
0.604672
0.86221
0.878018
0.766756
0.713056
0.513295
0.346845
0.324722
0.324925
0.238338
0.35172
0.318693
0.327413
0.0450151
-0.240742
-0.876967
-1.43627
-0.667794
-0.27424
0.163484
0.399099
0.654173
0.672133
0.603399
0.557985
0.385752
0.39485
0.20723
0.243072
0.238776
0.235633
0.304108
0.194508
0.127567
-0.152105
-0.546656
-0.964156
-0.34484
-0.0901011
0.139942
0.33875
0.370492
0.455037
0.47453
0.298691
0.201187
0.153361
0.193259
0.102157
0.0926082
0.218634
0.151833
0.103235
0.116349
-0.0537912
-0.274737
-0.530477
-0.0717884
-0.0320223
0.119699
0.0715076
0.057772
0.0912423
0.051638
0.124067
0.0764652
0.0949488
0.102722
0.08716
0.0949036
0.0243748
0.0120692
0.0259834
0.0320415
-0.0202062
-0.0474197
-0.206244
-3.34499
-1.84005
-0.557577
0.296722
0.850902
0.935747
0.821143
0.48996
0.143998
-0.159238
-0.435419
-0.529624
-0.480576
-0.456311
-0.334192
-0.477082
-0.976266
-1.71895
-2.96563
-4.41627
-2.59876
-1.41039
-0.254058
0.584844
0.81016
0.972309
0.792939
0.685026
0.377807
0.0222972
-0.152245
-0.268005
-0.215249
-0.121313
-0.133059
-0.12918
-0.636308
-1.21238
-2.33864
-3.49911
-2.08541
-1.12527
-0.137866
0.549279
0.932457
0.985364
0.803633
0.719495
0.429117
0.175025
0.00862005
-0.0942326
-0.065461
-0.0590425
0.0860517
-0.0470608
-0.293736
-0.885227
-1.73523
-2.68744
-1.57559
-0.7239
0.0143585
0.545095
0.793359
0.839297
0.761523
0.647658
0.420866
0.177938
0.1346
0.0487898
0.0597325
0.0757144
0.163353
0.124207
-0.166506
-0.608763
-1.31787
-2.03391
-1.10739
-0.564758
0.0150129
0.514079
0.633082
0.644619
0.742029
0.527932
0.419445
0.262891
0.0726473
0.115169
0.074015
0.0980657
0.172149
0.120506
0.00471061
-0.36802
-0.942727
-1.573
-0.74759
-0.350356
0.0785129
0.352733
0.497958
0.532473
0.527744
0.41165
0.348986
0.155595
0.102751
0.067934
0.0772769
0.106634
0.150139
0.100367
-0.0308742
-0.253095
-0.616846
-0.980626
-0.353549
-0.236627
0.0460278
0.221703
0.332639
0.376526
0.289371
0.341071
0.21731
0.122726
0.0864281
0.0380076
0.0825484
0.0499273
0.137371
0.0876118
0.0278363
-0.147363
-0.397005
-0.656939
-0.203525
0.0634419
-0.0295778
0.0612441
0.0972441
0.128286
0.054814
0.113018
0.0599703
-0.0204517
-0.000752491
0.0810968
0.0166071
0.0653963
-0.0325441
0.0484522
0.0189713
-0.0706155
-0.131634
-0.191627
-3.61986
-2.11851
-0.898097
-0.0103835
0.51131
0.56915
0.491432
0.166237
-0.158547
-0.51381
-0.831984
-0.888624
-0.710908
-0.682418
-0.626263
-0.794611
-1.20155
-2.04522
-3.20245
-4.60478
-2.85071
-1.68968
-0.577317
0.166971
0.622862
0.77259
0.610851
0.418959
0.150783
-0.254729
-0.494026
-0.542736
-0.412523
-0.417821
-0.346943
-0.407563
-0.776798
-1.51994
-2.46874
-3.66377
-2.30202
-1.25748
-0.344793
0.301386
0.633101
0.731869
0.677362
0.526289
0.232821
-0.050347
-0.209035
-0.309598
-0.258988
-0.194564
-0.0962817
-0.240611
-0.477724
-1.00042
-1.9007
-2.9124
-1.70518
-0.958406
-0.242786
0.275317
0.595432
0.638491
0.613475
0.405942
0.275681
0.00827685
-0.116701
-0.1029
-0.0631143
-0.0990245
-0.0103257
-0.0751352
-0.265367
-0.760913
-1.46375
-2.20934
-1.25564
-0.689675
-0.0839577
0.272515
0.544041
0.498018
0.542154
0.406612
0.19646
0.101442
0.00488527
-0.118711
0.0109172
-0.0325589
0.0628122
0.0421542
-0.200243
-0.560314
-1.04341
-1.64037
-0.953123
-0.347604
-0.0795189
0.290218
0.446693
0.426409
0.353848
0.346735
0.215177
0.100523
-0.0478726
0.00844397
-0.0320664
0.0493068
-0.0273234
0.0863301
-0.0259562
-0.312741
-0.659954
-1.0905
-0.451454
-0.292729
0.00293116
0.170866
0.198496
0.255001
0.247319
0.228183
0.079817
0.0572358
0.00768221
-0.0197136
0.051683
-0.0410066
0.124563
0.113699
-0.105524
-0.155085
-0.332544
-0.638581
-0.148906
-0.0201198
0.000145388
0.0246831
0.0617446
0.0508755
0.0810691
0.128107
0.0683134
-0.0241194
0.0325555
-0.00629468
-0.0148859
-0.0528481
-0.00501608
0.0586556
0.0530975
-0.0277454
-0.101474
-0.191893
-3.81227
-2.51972
-1.25905
-0.401366
0.209084
0.362173
0.240115
0.00473068
-0.255058
-0.684863
-0.980725
-1.09581
-1.04581
-1.00031
-0.897875
-0.975471
-1.42281
-2.18572
-3.38347
-4.69814
-3.12735
-1.91165
-0.778712
0.048187
0.365376
0.486987
0.437897
0.248973
-0.0157263
-0.451832
-0.610383
-0.736689
-0.707514
-0.622858
-0.496677
-0.569323
-0.991589
-1.66828
-2.66062
-3.74899
-2.49797
-1.47713
-0.53955
0.0855416
0.46765
0.581053
0.521358
0.370484
0.102747
-0.147451
-0.318953
-0.509568
-0.412737
-0.361946
-0.284591
-0.377642
-0.556981
-1.26584
-2.00571
-2.94594
-1.83951
-1.12634
-0.278913
0.139092
0.414843
0.548899
0.479615
0.342674
0.133731
-0.0309197
-0.246166
-0.241609
-0.244595
-0.0944063
-0.0958701
-0.219673
-0.477772
-0.861727
-1.54691
-2.19528
-1.29008
-0.761192
-0.19832
0.215497
0.437834
0.531175
0.445457
0.325499
0.104015
-0.00832134
-0.0821961
-0.172341
-0.098695
-0.045075
0.0460214
-0.0889833
-0.229593
-0.621135
-1.18548
-1.63117
-0.933406
-0.497143
-0.0822633
0.229992
0.271124
0.360975
0.365784
0.223586
0.0937265
0.0858202
-0.0143933
-0.0148141
-0.131353
0.00211726
-0.0162581
-0.061213
-0.202376
-0.373317
-0.718255
-1.20232
-0.64629
-0.343598
-0.0824818
0.0897881
0.129014
0.195628
0.233923
0.139618
0.0732385
0.0591226
0.00885445
0.0378192
0.000992926
0.167004
0.0346004
0.00839589
-0.0882932
-0.179257
-0.490261
-0.654645
-0.198053
-0.0800827
-0.0595167
-0.0004373
0.0617658
0.0119493
0.0545433
0.0477744
0.0469886
0.0499174
0.0793993
-0.0808986
-0.0710581
-0.0162772
0.0209453
0.0025732
0.0130826
-0.0605978
-0.169157
-0.198365
-3.96872
-2.72176
-1.39761
-0.483839
0.0470611
0.15618
0.144277
-0.142044
-0.481468
-0.78294
-1.05347
-1.08799
-1.12487
-0.99335
-0.90796
-1.11774
-1.51189
-2.23443
-3.55072
-4.75939
-3.10936
-2.0658
-1.08337
-0.324862
0.1402
0.378109
0.340831
0.11798
-0.145721
-0.434056
-0.68544
-0.797168
-0.799605
-0.637852
-0.565614
-0.625211
-1.07958
-1.77291
-2.71718
-3.80735
-2.55553
-1.60211
-0.675671
0.0530781
0.308461
0.504601
0.405211
0.252074
-0.0434733
-0.229901
-0.355088
-0.405424
-0.408646
-0.369316
-0.302076
-0.401754
-0.743412
-1.29631
-2.08377
-2.92685
-1.95078
-1.21874
-0.434764
0.134043
0.329693
0.515062
0.420881
0.299726
0.147376
-0.0832273
-0.272434
-0.333992
-0.259043
-0.175262
-0.178125
-0.217244
-0.444343
-0.947551
-1.63214
-2.31703
-1.49961
-0.840007
-0.226534
0.0623098
0.281302
0.405603
0.401535
0.251946
0.12205
-0.0709513
-0.0859446
-0.14398
-0.120987
-0.0841103
-0.0916554
-0.159189
-0.283908
-0.663346
-1.10701
-1.58693
-0.932087
-0.547188
-0.230808
0.103529
0.290372
0.29624
0.38494
0.210976
0.144074
0.0136766
-0.0427793
0.00671016
-0.030744
-0.120297
0.0269656
-0.0640558
-0.144505
-0.482066
-0.784944
-1.14114
-0.520259
-0.293834
-0.05245
0.0364201
0.158273
0.282422
0.206863
0.0937252
0.124136
0.0342911
0.0295071
-0.042683
-0.107428
0.00507786
-0.0366186
0.0215152
-0.0868169
-0.27682
-0.415481
-0.747824
-0.214066
-0.069158
-0.0685232
4.23961e-05
0.0706151
0.149956
0.043812
0.0829631
-0.0120259
-0.0481853
0.00218786
0.00967322
0.055217
0.0121208
0.0907253
0.0219352
-0.0760585
-0.163401
-0.103129
-0.152905
-4.11343
-2.72314
-1.59153
-0.598772
-0.0698303
0.159564
0.107245
-0.0433621
-0.416068
-0.728634
-0.819742
-0.967173
-0.998661
-0.94526
-0.969724
-1.05861
-1.47871
-2.2599
-3.45441
-4.6759
-3.18406
-2.1208
-1.04841
-0.346449
0.101885
0.385112
0.307149
0.163467
-0.103332
-0.325974
-0.483235
-0.754542
-0.617693
-0.553669
-0.488161
-0.723378
-1.03743
-1.66776
-2.71053
-3.64968
-2.50011
-1.63295
-0.820214
-0.144591
0.237389
0.449939
0.405196
0.272163
0.0548868
-0.15978
-0.36982
-0.423966
-0.393082
-0.295684
-0.329623
-0.467509
-0.745541
-1.21397
-2.10036
-2.89588
-1.88012
-1.18056
-0.563815
0.0494246
0.327206
0.450555
0.425347
0.2869
0.159304
-0.0629693
-0.143393
-0.232939
-0.257356
-0.227037
-0.171749
-0.24511
-0.388644
-0.861531
-1.47183
-2.26512
-1.35873
-0.907314
-0.401276
0.0231807
0.321775
0.367655
0.344362
0.419762
0.255769
0.104562
-0.0278935
-0.104126
-0.0848509
-0.0782154
-0.0429156
-0.132335
-0.301622
-0.615507
-1.10376
-1.62114
-0.953225
-0.588728
-0.21656
0.0994171
0.291874
0.308079
0.342677
0.305976
0.134281
0.0318322
-0.0601988
-0.0562713
0.0114
0.0698718
0.0428335
-0.0104159
-0.203026
-0.393731
-0.810115
-0.998994
-0.513564
-0.284518
-0.127463
0.025696
0.14079
0.222103
0.252973
0.19847
0.0487687
-0.00603561
-0.0288073
0.0603536
0.105264
-0.0532926
0.0216227
-0.0481423
-0.0840044
-0.174197
-0.464593
-0.561251
-0.158143
-0.078483
-0.0458938
0.0471606
0.0837831
0.084427
0.0615865
0.126992
-0.0433095
0.110528
-0.019226
0.00913375
0.00071754
-0.0416151
0.152087
-0.0216471
0.0424163
-0.102676
-0.14878
-0.193263
-3.90279
-2.69972
-1.574
-0.630223
-0.141413
0.256573
0.255161
0.084206
-0.180154
-0.394816
-0.710012
-0.799902
-0.758916
-0.71688
-0.750044
-0.929176
-1.3748
-2.19073
-3.24191
-4.54076
-3.10104
-2.08441
-1.13787
-0.356602
0.10709
0.459019
0.398235
0.252714
0.0488979
-0.0541593
-0.295629
-0.489505
-0.39106
-0.313413
-0.396206
-0.462937
-0.890504
-1.5827
-2.49079
-3.56215
-2.43395
-1.58911
-0.6992
-0.120702
0.29281
0.499007
0.555682
0.295741
0.203115
0.093921
-0.12428
-0.196716
-0.152931
-0.126999
-0.169697
-0.294703
-0.592958
-1.17135
-1.91163
-2.69284
-1.8733
-1.22022
-0.478143
-0.0200412
0.433014
0.504121
0.521401
0.457732
0.261782
0.166698
-0.013972
0.0403169
-0.0847944
0.0105657
0.0407949
-0.0714448
-0.314022
-0.789498
-1.45655
-2.15653
-1.35094
-0.841917
-0.360069
0.10144
0.411426
0.454237
0.446917
0.32615
0.285408
0.0933708
0.0901421
-0.00199286
-0.0065736
0.14191
0.0698334
-0.0419632
-0.134412
-0.506533
-1.06499
-1.5036
-0.971232
-0.484707
-0.241901
0.0490393
0.297662
0.338524
0.406673
0.372736
0.231557
0.132069
0.0417
0.076034
0.0111186
0.140312
0.0468176
-0.00710497
-0.097941
-0.379614
-0.661389
-1.08401
-0.588928
-0.310633
-0.104583
0.0965238
0.0756731
0.277104
0.261296
0.189401
0.172217
0.0813172
0.0789114
0.0599207
0.0646008
0.0348572
0.126541
-0.0176956
-0.049446
-0.222379
-0.483457
-0.613918
-0.16112
-0.0423766
-0.0207523
-0.0637716
0.0862936
0.103825
0.0303871
0.0520639
0.0388444
0.0245311
0.0345269
-0.0199394
-0.011171
0.0873086
0.0243405
0.0597076
-0.0267139
-0.0358766
-0.116635
-0.213258
-3.83224
-2.54169
-1.37758
-0.479778
0.0629088
0.41128
0.513641
0.422207
0.279588
0.00394481
-0.269133
-0.345237
-0.282078
-0.353776
-0.311967
-0.541145
-1.18631
-1.91848
-2.96641
-4.12116
-2.95973
-1.91848
-0.913506
-0.167156
0.316321
0.581004
0.726079
0.569833
0.392971
0.249648
0.0524435
0.019651
-0.026049
-0.00330437
-0.0144465
-0.264008
-0.645651
-1.42986
-2.30105
-3.24953
-2.26648
-1.42562
-0.645829
-0.00443907
0.526277
0.751378
0.631933
0.625131
0.459837
0.359866
0.211091
0.160725
0.145925
0.19275
0.138014
-0.0554007
-0.389618
-0.927913
-1.66063
-2.50151
-1.69199
-1.04007
-0.330873
0.149036
0.466915
0.658108
0.647989
0.6325
0.486574
0.422558
0.353994
0.226174
0.204833
0.250009
0.215717
0.0846383
-0.186449
-0.59267
-1.23091
-1.93284
-1.21886
-0.719595
-0.231994
0.162999
0.419108
0.605279
0.550946
0.558558
0.385602
0.360123
0.26771
0.189625
0.298634
0.266016
0.217449
0.125968
-0.0802117
-0.458862
-0.817251
-1.40469
-0.849615
-0.487329
-0.0868902
0.191645
0.324297
0.352546
0.428951
0.443787
0.249708
0.292987
0.291916
0.243999
0.257794
0.189812
0.22011
0.169521
0.0362917
-0.243461
-0.57852
-0.882974
-0.475775
-0.254456
-0.0452225
0.181044
0.225169
0.287438
0.265433
0.297305
0.260141
0.137382
0.192163
0.0585813
0.068128
0.135743
0.118166
0.14384
0.0274103
-0.12649
-0.26795
-0.551905
-0.106247
-0.112106
-0.0444806
0.0610561
0.0757057
0.0372078
0.0868062
0.115012
0.0851845
-0.0149756
0.0442572
0.00781319
-0.00682181
0.0827236
0.0238571
0.0560659
0.029664
-0.0187422
-0.0202652
-0.174169
-3.52501
-2.25009
-1.07249
-0.163345
0.52774
0.806904
1.00779
0.804241
0.684476
0.548299
0.428552
0.264103
0.228594
0.20456
0.150091
-0.100077
-0.602017
-1.45706
-2.50193
-3.62054
-2.64852
-1.58709
-0.70323
0.133954
0.640645
0.921817
1.07413
1.00091
0.759177
0.662505
0.553931
0.497632
0.521564
0.389758
0.349888
0.131809
-0.319008
-0.939006
-1.81394
-2.75438
-1.92449
-1.23712
-0.44109
0.229041
0.677711
0.905831
1.06358
0.934621
0.819024
0.804024
0.616121
0.6302
0.585092
0.551971
0.503895
0.275887
-0.0586492
-0.646024
-1.39157
-2.1424
-1.56319
-0.866075
-0.159754
0.272594
0.686438
0.990562
0.941719
0.934026
0.835837
0.792506
0.631579
0.618698
0.526783
0.595481
0.487048
0.325224
0.0772167
-0.329713
-0.932985
-1.54465
-1.0512
-0.561838
-0.126594
0.320149
0.637217
0.728344
0.828951
0.71354
0.681669
0.633595
0.569742
0.536479
0.550192
0.446861
0.436319
0.355479
0.182629
-0.168597
-0.668071
-1.12136
-0.742592
-0.391875
-0.00219202
0.284353
0.438179
0.525002
0.616296
0.587237
0.519446
0.478378
0.444798
0.382734
0.355632
0.413342
0.396252
0.352898
0.190243
-0.114917
-0.428215
-0.717284
-0.43748
-0.236614
-0.085035
0.228161
0.345748
0.352426
0.353927
0.372153
0.335709
0.342385
0.334341
0.279736
0.254182
0.233761
0.237715
0.152856
0.102781
-0.0770467
-0.221572
-0.438597
-0.139707
-0.101385
0.029564
0.0827442
0.1042
0.186448
0.115982
0.0941845
0.0817384
0.10681
0.0382013
0.0932858
0.162499
0.113626
0.0192277
0.0249692
0.0209602
-0.0538784
-0.140715
-0.121575
-3.04598
-1.77207
-0.662443
0.249483
0.873196
1.30902
1.48498
1.50124
1.38639
1.34381
1.14389
1.10368
1.01042
0.908121
0.779479
0.461785
-0.0819088
-0.843372
-1.93217
-3.00057
-2.21448
-1.19949
-0.286774
0.549524
0.85574
1.34537
1.48242
1.54356
1.4238
1.33205
1.20858
1.10718
1.18148
1.03507
0.920081
0.678022
0.278012
-0.482833
-1.30205
-2.25072
-1.57202
-0.858633
-0.1478
0.534748
1.00157
1.2704
1.45354
1.41323
1.39731
1.23873
1.22056
1.13991
1.06214
1.08598
0.982508
0.762558
0.373629
-0.1481
-0.87763
-1.67398
-1.16155
-0.588206
0.00516506
0.583584
0.932369
1.16353
1.26601
1.22707
1.25238
1.26822
1.16551
1.05224
1.09994
1.00773
0.937656
0.764723
0.426103
0.0920888
-0.646268
-1.21246
-0.812376
-0.260186
0.0571957
0.501042
0.879824
0.99922
1.06198
1.00542
1.02502
0.939672
0.894732
0.879849
0.899793
0.906635
0.765801
0.653011
0.466077
0.0762269
-0.346145
-0.888978
-0.514035
-0.197705
0.0925324
0.371351
0.611443
0.739181
0.826253
0.777248
0.763431
0.651065
0.641309
0.661345
0.61232
0.667148
0.600781
0.50692
0.364396
0.0644933
-0.199112
-0.574055
-0.26802
-0.0875159
0.0869684
0.284107
0.424529
0.466614
0.450218
0.448117
0.581833
0.450961
0.397146
0.397412
0.477144
0.407768
0.335533
0.346206
0.220376
0.0439738
-0.126073
-0.317435
-0.14193
-0.0158866
0.0609465
0.0608619
0.136882
0.100745
0.190709
0.203863
0.169236
0.207167
0.111842
0.155663
0.172065
0.147093
0.212109
0.0599158
0.158791
0.0583171
-0.0292069
-0.0483053
-2.25517
-1.16962
-0.0178596
0.834157
1.48826
1.92334
2.13186
2.22436
2.19615
2.05094
2.03114
1.88882
1.85242
1.72528
1.52599
1.26225
0.611827
-0.12389
-1.12549
-2.28526
-1.73451
-0.702623
0.15551
0.950101
1.63944
1.99747
2.08449
2.1788
2.1026
2.07555
1.99805
1.87725
1.95883
1.82466
1.65903
1.37836
0.925205
0.173229
-0.675411
-1.60178
-1.24168
-0.480269
0.360336
1.00022
1.51166
1.76776
1.94538
1.94347
2.01548
1.94494
1.85237
1.75344
1.80522
1.74199
1.55903
1.29149
0.970547
0.347944
-0.358787
-1.04436
-0.890101
-0.244933
0.482227
0.949911
1.3749
1.54372
1.74626
1.73612
1.73748
1.64541
1.67055
1.59967
1.54225
1.50114
1.36051
1.24742
0.918046
0.505138
-0.150903
-0.730933
-0.542128
-0.113331
0.41854
0.82938
1.15683
1.27309
1.41326
1.42857
1.47247
1.42195
1.36983
1.30774
1.22746
1.2779
1.19008
1.02312
0.781117
0.445336
-0.0737928
-0.484035
-0.37615
-0.073939
0.416618
0.577665
0.803781
1.0016
1.06338
1.05776
1.06176
1.02615
0.956213
0.970846
1.00322
0.904923
0.838905
0.822892
0.658812
0.312724
0.0659033
-0.240484
-0.204471
0.0561457
0.303637
0.326135
0.500797
0.544351
0.617319
0.649034
0.623408
0.605132
0.598627
0.587001
0.624992
0.598596
0.513145
0.419683
0.317831
0.225284
0.0822556
-0.0796839
-0.0337969
-0.045821
0.0822531
0.181934
0.24422
0.176537
0.278377
0.231155
0.147911
0.266613
0.244584
0.266401
0.197835
0.163236
0.167623
0.0805171
0.125767
0.0519879
-0.02791
-0.0303193
-1.6567
-0.535175
0.594791
1.46912
2.25522
2.72563
2.88825
3.13379
3.07004
3.09762
3.07201
2.93592
2.83055
2.71131
2.46995
2.08772
1.56363
0.762913
-0.262356
-1.38576
-1.00788
-0.115444
0.887595
1.61855
2.21898
2.58223
2.85863
2.9584
2.96627
2.86746
2.82233
2.8091
2.79842
2.55706
2.40029
2.04567
1.62603
0.933328
0.0420619
-0.798856
-0.721376
0.18232
0.944835
1.61893
2.06524
2.32937
2.61008
2.67802
2.63874
2.5869
2.62001
2.5466
2.52885
2.41627
2.24568
1.97632
1.57851
1.00686
0.36054
-0.486203
-0.391865
0.192769
0.875561
1.42777
1.82721
2.04773
2.23571
2.3048
2.2657
2.34676
2.24843
2.16742
2.09855
2.00055
1.93141
1.67443
1.43726
1.02073
0.449007
-0.229501
-0.171272
0.211642
0.753081
1.16601
1.47233
1.63533
1.752
1.81078
1.84248
1.82716
1.81723
1.77778
1.81029
1.68915
1.55382
1.37982
1.20827
0.812796
0.396537
-0.0921099
-0.0489154
0.215145
0.598237
0.852356
1.12902
1.20012
1.2845
1.32969
1.43623
1.33963
1.34861
1.27866
1.30771
1.19707
1.25717
1.10038
0.914357
0.660619
0.254686
0.0749527
0.016019
0.123893
0.373526
0.580544
0.62886
0.722429
0.826992
0.790347
0.803065
0.838223
0.788423
0.700381
0.798574
0.767209
0.746898
0.616325
0.498596
0.41907
0.224427
0.0263591
0.022801
0.0359609
0.0551833
0.126512
0.214982
0.219951
0.195707
0.345847
0.266725
0.259598
0.227752
0.247614
0.291059
0.278216
0.181751
0.183929
0.207794
0.109302
0.078387
0.0111233
-0.808292
0.28371
1.50826
2.39828
3.10831
3.62218
3.88787
4.03601
4.13452
4.14699
4.11354
4.06313
3.86728
3.73371
3.50637
3.10902
2.51085
1.63719
0.67556
-0.381376
-0.298861
0.624346
1.58977
2.3432
2.98407
3.36167
3.64473
3.73032
3.76589
3.83098
3.84987
3.72619
3.62089
3.53885
3.26024
2.95125
2.55937
1.7954
0.830422
-0.0385683
0.0303272
0.780189
1.52531
2.22054
2.70973
2.95835
3.22832
3.34875
3.43701
3.38797
3.46227
3.30194
3.31296
3.15014
3.02349
2.69552
2.33881
1.73663
0.998736
0.254011
0.122152
0.70873
1.39258
1.91905
2.32849
2.60657
2.78073
2.83242
2.86036
2.99292
2.88272
2.8188
2.76565
2.63351
2.57457
2.2887
1.99144
1.46863
0.907109
0.294036
0.200568
0.705973
1.10365
1.61464
1.87869
2.03365
2.19333
2.30536
2.30426
2.36457
2.26655
2.28116
2.20043
2.19341
2.14048
1.86582
1.58665
1.16623
0.869856
0.38832
0.195878
0.517422
0.794663
1.19552
1.35956
1.50699
1.60214
1.66648
1.69571
1.606
1.71256
1.65474
1.65982
1.575
1.56153
1.37529
1.27599
0.950803
0.601584
0.30251
0.153441
0.290576
0.497882
0.720468
0.815845
1.00003
0.986188
1.09891
1.0052
0.978959
1.04888
0.997709
1.07069
0.932636
0.91983
0.83052
0.731167
0.545136
0.405337
0.244462
0.113438
0.102469
0.159368
0.21968
0.316475
0.302554
0.294928
0.431288
0.35967
0.447808
0.289044
0.423114
0.22902
0.30613
0.27844
0.223266
0.249072
0.171135
0.167615
0.0495459
0.0809343
1.27451
2.42681
3.26015
4.0071
4.46924
4.8611
5.10526
5.20528
5.19528
5.14006
5.1117
4.91211
4.75697
4.50083
4.00517
3.46902
2.67817
1.57488
0.534956
0.434179
1.40233
2.33239
3.09899
3.70069
4.17274
4.50777
4.63727
4.64915
4.75701
4.703
4.67034
4.49277
4.39444
4.11642
3.86465
3.30131
2.50896
1.65054
0.755069
0.594475
1.37114
2.06964
2.83996
3.28562
3.69311
3.95696
4.15618
4.13699
4.1911
4.21474
4.06516
4.05709
3.97694
3.69598
3.39428
2.94496
2.42009
1.62782
0.928981
0.600368
1.20942
1.86602
2.43972
2.74756
3.04234
3.33018
3.40546
3.51407
3.55528
3.42251
3.43006
3.37403
3.34092
3.13279
2.90781
2.54041
2.08796
1.49379
0.935763
0.640593
1.08189
1.57013
1.98261
2.18043
2.49786
2.64366
2.73057
2.82226
2.75563
2.76101
2.70741
2.67754
2.67221
2.50936
2.35097
2.0309
1.68076
1.23949
0.827998
0.421479
0.780266
1.11414
1.43308
1.64502
1.80722
1.93408
1.98313
2.04782
1.98048
1.98882
2.05002
1.95986
1.86644
1.7721
1.74636
1.53789
1.29918
0.973568
0.567778
0.302477
0.506207
0.723538
0.833622
0.913773
1.19711
1.21377
1.18001
1.1957
1.27198
1.30467
1.27428
1.25739
1.19742
1.11447
1.09014
0.948939
0.689198
0.673611
0.364531
0.19462
0.156076
0.238136
0.302652
0.334031
0.382756
0.41287
0.401016
0.338404
0.450122
0.424202
0.365503
0.35817
0.344521
0.392242
0.341582
0.33633
0.217079
0.214042
0.201313
0.929504
1.94968
3.12274
4.00018
4.78969
5.33435
5.73164
5.92864
5.99678
6.02087
5.94085
6.00844
5.7818
5.61646
5.29448
4.973
4.28969
3.39828
2.43726
1.37981
1.08104
1.93472
2.88118
3.73629
4.34206
4.80399
5.09427
5.28099
5.39614
5.43777
5.40034
5.41215
5.29256
5.08503
4.82172
4.43542
3.96593
3.34327
2.35348
1.44702
1.09159
1.8285
2.61634
3.2602
3.83752
4.19113
4.45707
4.67824
4.73116
4.76211
4.74772
4.67177
4.55344
4.45099
4.25217
3.94004
3.48715
2.88116
2.18524
1.57668
0.958435
1.63281
2.21753
2.72314
3.19708
3.54416
3.70695
3.83346
3.9351
3.98294
3.97713
3.90197
3.84825
3.70343
3.59101
3.29325
3.03126
2.51832
2.0133
1.38488
0.906747
1.28831
1.74766
2.21482
2.48522
2.7633
2.99543
3.11639
3.09963
3.11327
3.06516
3.13137
3.04703
2.96631
2.859
2.68175
2.421
1.9805
1.58909
1.15436
0.660373
0.997345
1.32228
1.60297
1.81554
1.95558
2.1149
2.19755
2.23449
2.22775
2.28085
2.31016
2.23301
2.06943
1.99347
1.91888
1.71699
1.47457
1.13996
0.888344
0.435318
0.643314
0.802692
1.03999
1.14366
1.27355
1.29268
1.25942
1.32175
1.40112
1.30832
1.33681
1.30216
1.28158
1.23845
1.12835
1.13972
0.875124
0.685557
0.505434
0.111287
0.253412
0.209072
0.244832
0.374593
0.402554
0.40365
0.493715
0.458262
0.544128
0.415586
0.387036
0.388467
0.471803
0.451758
0.421832
0.404224
0.35425
0.233673
0.199439
)
;

boundaryField
{
    hotSide
    {
        type            calculated;
        value           nonuniform List<scalar> 
400
(
-1.75857
-1.66749
-1.72853
-1.91955
-2.22337
-2.45247
-2.6793
-2.93845