/*--------------------------------*- C++ -*----------------------------------*\
| =========                 |                                                 |
| \\      /  F ield         | OpenFOAM: The Open Source CFD Toolbox           |
|  \\    /   O peration     | Version:  2212                                  |
|   \\  /    A nd           | Website:  www.openfoam.com                      |
|    \\/     M anipulation  |                                                 |
\*---------------------------------------------------------------------------*/
FoamFile
{
    version     2.0;
    format      ascii;
    arch        "LSB;label=32;scalar=64";
    class       volScalarField;
    location    "0";
    object      stateMean;
}
// * * * * * * * * * * * * * * * * * * * * * * * * * * * * * * * * * * * * * //

dimensions      [0 0 0 1 0 0 0];

internalField   nonuniform List<scalar> 
3200
(
340.729
339.279
338.139
337.544
337.411
337.608
337.965
338.433
338.832
339.236
339.333
339.273
339.287
338.954
338.778
338.697
338.853
339.39
340.514
341.976
334.93
333.748
332.755
332.219
332.196
332.338
332.772
333.021
333.397
333.69
333.786
333.717
333.707
333.444
333.35
333.227
333.394
333.857
334.757
335.932
329.293
328.336
327.558
327.192
326.99
327.201
327.437
327.732
328.006
328.205
328.476
328.432
328.271
328.142
327.943
327.875
327.961
328.345
329.189
330.14
323.777
323.022
322.436
322.059
321.964
322.147
322.373
322.562
322.884
322.973
323.042
323.135
322.959
322.923
322.748
322.689
322.787
323.068
323.755
324.479
318.388
317.856
317.305
317.086
317.105
317.098
317.287
317.514
317.713
317.825
317.856
317.906
317.803
317.728
317.616
317.546
317.607
317.788
318.394
318.872
313.098
312.697
312.353
312.149
312.089
312.116
312.375
312.459
312.584
312.652
312.728
312.723
312.665
312.58
312.53
312.436
312.515
312.657
313.06
313.452
307.797
307.593
307.358
307.355
307.174
307.332
307.386
307.467
307.6
307.577
307.675
307.656
307.636
307.536
307.518
307.457
307.516
307.672
307.778
308.043
302.609
302.55
302.448
302.455
302.391
302.365
302.416
302.51
302.559
302.468
302.522
302.568
302.542
302.532
302.501
302.441
302.56
302.505
302.585
302.722
340.793
339.368
338.243
337.763
337.634
337.777
338.206
338.764
339.076
339.462
339.732
339.691
339.577
339.256
339.087
338.958
339.045
339.562
340.683
342.131
335.072
333.805
332.867
332.445
332.334
332.473
332.907
333.315
333.603
333.955
334.073
334.05
333.935
333.826
333.55
333.408
333.555
333.993
334.924
336.116
329.441
328.477
327.583
327.281
327.142
327.316
327.664
328.032
328.289
328.564
328.598
328.677
328.627
328.357
328.203
328.176
328.191
328.56
329.278
330.238
323.92
323.206
322.558
322.217
322.186
322.261
322.548
322.753
323.035
323.269
323.32
323.368
323.252
323.016
322.908
322.802
322.807
323.18
323.775
324.538
318.489
317.962
317.42
317.247
317.196
317.259
317.41
317.602
317.878
317.968
318.039
318.048
317.98
317.931
317.724
317.666
317.699
317.958
318.424
318.982
313.151
312.754
312.359
312.229
312.216
312.304
312.434
312.535
312.731
312.814
312.916
312.917
312.801
312.771
312.67
312.592
312.659
312.794
313.121
313.555
307.853
307.625
307.479
307.354
307.304
307.459
307.483
307.478
307.619
307.723
307.687
307.738
307.613
307.555
307.547
307.532
307.573
307.676
307.892
308.017
302.643
302.491
302.547
302.428
302.442
302.356
302.589
302.541
302.559
302.586
302.585
302.477
302.576
302.536
302.524
302.523
302.519
302.632
302.658
302.624
341.165
339.7
338.681
338.16
338.079
338.343
338.804
339.275
339.764
340.143
340.28
340.318
340.117
339.786
339.589
339.422
339.502
340.038
341.145
342.414
335.481
334.169
333.266
332.79
332.719
332.921
333.358
333.789
334.138
334.388
334.662
334.689
334.514
334.303
333.896
333.859
333.93
334.43
335.236
336.359
329.595
328.727
327.961
327.607
327.482
327.701
327.995
328.387
328.752
328.99
329.052
329.143
328.955
328.773
328.571
328.409
328.493
328.878
329.632
330.471
324.116
323.344
322.733
322.447
322.381
322.573
322.798
323.079
323.357
323.548
323.636
323.747
323.648
323.278
323.15
323.112
323.167
323.471
323.95
324.822
318.689
318.075
317.585
317.363
317.274
317.497
317.648
317.77
318.122
318.31
318.25
318.395
318.297
318.157
317.911
317.801
317.931
318.152
318.628
319.099
313.246
312.85
312.618
312.359
312.435
312.503
312.571
312.775
312.935
312.978
313.074
313.053
313.003
312.908
312.784
312.689
312.784
312.974
313.195
313.686
307.982
307.732
307.56
307.317
307.423
307.393
307.57
307.674
307.751
307.863
307.819
307.783
307.774
307.729
307.677
307.617
307.59
307.796
307.923
308.142
302.685
302.504
302.501
302.492
302.43
302.503
302.617
302.544
302.64
302.599
302.596
302.602
302.687
302.587
302.496
302.491
302.542
302.602
302.683
302.819
341.823
340.462
339.332
338.849
338.731
338.977
339.506
339.973
340.476
340.888
341.102
341.159
340.945
340.64
340.323
340.134
340.176
340.749
341.749
343.113
335.888
334.77
333.866
333.387
333.414
333.654
333.995
334.486
334.92
335.142
335.328
335.345
335.14
334.934
334.628
334.476
334.557
334.961
335.807
336.902
330.063
329.287
328.471
328.062
328.023
328.254
328.561
328.909
329.261
329.561
329.73
329.714
329.561
329.32
329.083
328.86
329.016
329.334
330.066
330.878
324.479
323.732
323.148
322.818
322.821
322.969
323.211
323.529
323.785
324.072
324.223
324.187
324.109
323.832
323.64
323.502
323.577
323.879
324.389
325.134
318.918
318.467
317.906
317.718
317.673
317.795
317.952
318.256
318.452
318.686
318.663
318.669
318.618
318.518
318.371
318.152
318.263
318.519
318.91
319.415
313.439
313.115
312.777
312.631
312.657
312.684
312.789
312.945
313.069
313.142
313.271
313.326
313.289
313.179
313.023
312.915
312.973
313.125
313.396
313.837
308.078
307.838
307.678
307.526
307.47
307.581
307.628
307.724
307.878
307.87
307.888
308.015
307.923
307.91
307.769
307.781
307.792
307.851
308.075
308.234
302.705
302.656
302.552
302.571
302.569
302.589
302.561
302.617
302.698
302.691
302.681
302.661
302.576
302.599
302.65
302.63
302.668
302.645
302.647
302.751
342.752
341.389
340.347
339.692
339.685
339.928
340.453
340.908
341.441
341.83
342.125
342.074
341.967
341.498
341.235
341.079
340.997
341.624
342.555
343.891
336.643
335.506
334.566
334.111
334.062
334.304
334.746
335.164
335.557
335.962
336.141
336.141
335.99
335.688
335.322
335.164
335.265
335.69
336.523
337.542
330.765
329.848
329.021
328.671
328.617
328.874
329.152
329.525
329.907
330.269
330.351
330.401
330.163
329.982
329.716
329.56
329.643
329.922
330.663
331.486
324.964
324.282
323.765
323.306
323.303
323.488
323.778
324.019
324.375
324.57
324.769
324.719
324.605
324.422
324.138
324.015
324.12
324.383
324.83
325.604
319.379
318.805
318.325
318.077
318.113
318.213
318.401
318.598
318.803
318.986
319.188
319.09
319.014
318.835
318.707
318.6
318.65
318.774
319.266
319.808
313.796
313.4
312.931
312.875
312.859
312.963
313.137
313.273
313.444
313.506
313.651
313.604
313.587
313.433
313.325
313.317
313.287
313.427
313.671
314.067
308.219
308.065
307.824
307.803
307.68
307.788
307.851
307.922
308.077
308.144
308.179
308.135
308.099
308.045
307.99
307.912
307.917
307.998
308.223
308.408
302.711
302.679
302.642
302.552
302.564
302.665
302.646
302.609
302.645
302.752
302.704
302.774
302.774
302.72
302.649
302.672
302.618
302.657
302.664
302.88
343.763
342.385
341.387
340.826
340.829
340.992
341.373
342.041
342.524
342.885
343.193
343.158
342.973
342.62
342.27
342.108
342.158
342.62
343.623
344.851
337.588
336.438
335.574
335.125
335.102
335.256
335.628
336.106
336.522
336.856
337.197
337.057
336.854
336.602
336.327
336.108
336.237
336.648
337.423
338.427
331.463
330.617
329.863
329.482
329.417
329.585
329.921
330.385
330.689
331.022
331.149
331.213
331.022
330.709
330.576
330.357
330.436
330.767
331.442
332.17
325.516
324.869
324.277
323.992
324.016
324.086
324.331
324.729
324.995
325.285
325.398
325.344
325.248
324.946
324.816
324.777
324.66
325.006
325.478
326.154
319.839
319.231
318.828
318.615
318.522
318.665
318.92
319.095
319.383
319.594
319.616
319.571
319.57
319.335
319.224
319.057
319.175
319.3
319.789
320.238
314.087
313.77
313.438
313.317
313.179
313.274
313.447
313.578
313.812
313.836
314.024
313.955
313.897
313.814
313.642
313.638
313.588
313.753
314.043
314.383
308.398
308.189
308.022
307.892
307.932
307.915
307.957
308.184
308.32
308.388
308.348
308.419
308.39
308.213
308.218
308.199
308.115
308.216
308.374
308.583
302.77
302.746
302.615
302.686
302.723
302.713
302.773
302.718
302.779
302.767
302.759
302.768
302.747
302.801
302.792
302.755
302.726
302.755
302.761
302.904
344.932
343.669
342.692
342.166
341.944
342.181
342.588
343.162
343.684
344.079
344.355
344.358
344.133
343.865
343.451
343.272
343.439
343.853
344.795
346.003
338.532
337.548
336.655
336.1
336.163
336.28
336.712
337.03
337.489
337.925
338.099
338.135
337.93
337.626
337.385
337.102
337.321
337.613
338.477
339.432
332.412
331.622
330.857
330.41
330.27
330.453
330.847
331.11
331.529
331.85
332.016
332.052
331.894
331.71
331.352
331.249
331.253
331.604
332.232
333.014
326.337
325.622
325.065
324.73
324.682
324.828
325.08
325.339
325.671
325.969
326.012
326.043
325.927
325.766
325.504
325.351
325.442
325.688
326.216
326.795
320.336
319.899
319.46
319.113
319.149
319.287
319.325
319.652
319.843
320.042
320.232
320.147
320.106
319.969
319.76
319.661
319.622
319.843
320.277
320.802
314.471
314.147
313.819
313.654
313.619
313.692
313.793
313.99
314.111
314.334
314.387
314.392
314.325
314.214
314.074
314.017
314.038
314.151
314.414
314.704
308.59
308.517
308.294
308.183
308.139
308.159
308.305
308.302
308.461
308.573
308.61
308.64
308.56
308.544
308.399
308.384
308.377
308.487
308.677
308.893
302.963
302.711
302.824
302.755
302.742
302.732
302.825
302.783
302.848
302.934
302.915
302.827
302.879
302.815
302.893
302.791
302.797
302.865
302.906
302.951
346.294
345.023
344.091
343.512
343.303
343.545
343.895
344.446
344.933
345.373
345.691
345.663
345.323
345.068
344.74
344.609
344.704
345.238
346.106
347.279
339.721
338.755
337.892
337.415
337.23
337.339
337.737
338.124
338.532
339.012
339.251
339.226
338.956
338.766
338.459
338.261
338.359
338.835
339.534
340.534
333.419
332.536
331.834
331.414
331.311
331.431
331.685
332.001
332.413
332.758
332.917
332.956
332.786
332.557
332.259
332.185
332.193
332.489
333.18
334.029
327.111
326.494
325.95
325.617
325.484
325.621
325.808
326.15
326.377
326.696
326.821
326.756
326.619
326.52
326.269
326.154
326.157
326.468
327
327.615
320.985
320.519
320.046
319.833
319.707
319.893
319.975
320.215
320.501
320.636
320.732
320.816
320.611
320.55
320.328
320.209
320.306
320.522
320.872
321.369
315.033
314.498
314.325
314.058
314.005
314.125
314.288
314.37
314.555
314.697
314.846
314.762
314.749
314.593
314.578
314.366
314.374
314.558
314.81
315.17
308.901
308.785
308.546
308.439
308.475
308.477
308.54
308.604
308.784
308.824
308.873
308.884
308.78
308.828
308.607
308.559
308.716
308.704
308.825
309.089
302.98
302.865
302.864
302.86
302.844
302.875
302.863
302.831
302.902
303
302.943
302.976
302.974
302.997
302.931
302.847
302.832
302.892
302.946
303.023
347.732
346.658
345.669
345.1
344.781
344.906
345.279
345.722
346.13
346.638
346.934
346.971
346.773
346.519
346.166
345.965
346.122
346.596
347.521
348.618
341.073
340.042
339.144
338.567
338.502
338.621
338.887
339.256
339.65
340.153
340.311
340.371
340.213
339.948
339.605
339.436
339.607
340.033
340.791
341.695
334.521
333.653
332.914
332.5
332.331
332.421
332.665
332.968
333.344
333.65
333.822
333.957
333.751
333.548
333.287
333.177
333.143
333.64
334.182
334.969
327.985
327.394
326.708
326.463
326.361
326.394
326.613
326.874
327.172
327.384
327.599
327.548
327.462
327.187
327.039
326.996
327.08
327.291
327.815
328.34
321.593
321.158
320.72
320.442
320.354
320.391
320.594
320.81
321.1
321.248
321.322
321.376
321.234
321.084
320.876
320.881
320.887
321.143
321.582
321.934
315.422
315.052
314.727
314.511
314.567
314.569
314.648
314.858
315.038
315.072
315.172
315.147
315.213
315.012
314.946
314.899
314.943
315.018
315.273
315.691
309.341
309.079
308.87
308.756
308.775
308.764
308.776
308.911
309.008
309.037
309.087
309.043
309.05
308.843
308.925
308.896
308.934
308.967
309.225
309.35
303.111
303.007
303.004
302.964
302.921
302.99
302.964
302.985
302.996
302.998
302.969
303.124
303.104
303.035
302.981
302.98
302.951
303.005
303.096
303.111
349.297
348.254
347.185
346.54
346.279
346.426
346.668
347.143
347.618
347.99
348.26
348.225
348.126
347.805
347.49
347.444
347.568
348.021
349.083
350.087
342.269
341.399
340.636
340.111
339.879
339.863
340.1
340.487
340.868
341.217
341.468
341.519
341.405
341.079
340.807
340.644
340.866
341.326
342.05
342.967
335.603
334.792
334.051
333.52
333.462
333.453
333.721
334.013
334.407
334.646
334.771
334.769
334.674
334.495
334.26
334.172
334.316
334.671
335.274
335.974
328.931
328.314
327.681
327.273
327.239
327.207
327.439
327.674
327.908
328.18
328.369
328.389
328.233
328.035
327.9
327.786
327.851
328.194
328.727
329.297
322.45
321.879
321.383
321.219
321.126
321.12
321.232
321.47
321.663
321.889
321.904
321.929
321.843
321.718
321.618
321.566
321.565
321.819
322.146
322.537
315.883
315.56
315.328
315.082
314.986
315.065
315.053
315.29
315.402
315.555
315.612
315.539
315.532
315.558
315.334
315.34
315.331
315.579
315.798
316.092
309.492
309.303
309.111
309.077
309.009
308.936
309.057
309.208
309.205
309.309
309.313
309.372
309.409
309.259
309.255
309.145
309.2
309.336
309.424
309.72
303.22
303.088
303.104
303.053
303
302.939
303.06
303.034
303.138
303.178
303.128
303.116
303.062
303.092
302.998
303.049
303.129
303.198
303.122
303.159
351.011
349.812
348.918
348.175
347.894
347.899
348.161
348.483
348.979
349.356
349.447
349.53
349.439
349.213
349.029
348.883
349.055
349.586
350.543
351.574
343.699
342.797
341.929
341.443
341.21
341.131
341.39
341.683
342.055
342.334
342.491
342.707
342.464
342.251
342.004
342.035
342.134
342.549
343.387
344.165
336.688
335.956
335.315
334.823
334.622
334.582
334.78
335.039
335.346
335.608
335.818
335.825
335.704
335.481
335.362
335.327
335.424
335.709
336.423
337.084
329.791
329.2
328.723
328.26
328.13
328.147
328.299
328.54
328.741
329.002
329.082
329.133
329.084
328.951
328.77
328.702
328.698
329.021
329.491
330.176
323.032
322.663
322.266
321.958
321.774
321.838
321.96
321.964
322.185
322.366
322.499
322.545
322.469
322.382
322.249
322.228
322.283
322.481
322.86
323.294
316.419
316.113
315.819
315.586
315.476
315.538
315.573
315.667
315.88
316.003
316.095
316.07
315.962
315.846
315.803
315.778
315.888
315.996
316.334
316.465
309.795
309.601
309.49
309.386
309.321
309.287
309.298
309.387
309.561
309.629
309.652
309.55
309.48
309.604
309.487
309.51
309.496
309.537
309.781
309.842
303.268
303.199
303.183
303.107
303.086
303.102
303.138
303.085
303.263
303.113
303.243
303.211
303.211
303.242
303.034
303.192
303.112
303.24
303.27
303.303
352.534
351.509
350.603
349.889
349.627
349.444
349.636
349.963
350.337
350.61
350.925
350.957
350.806
350.608
350.451
350.415
350.634
351.22
352.051
353.172
345.111
344.245
343.488
342.906
342.64
342.473
342.699
342.979
343.279
343.431
343.673
343.818
343.623
343.41
343.328
343.21
343.44
343.933
344.652
345.572
337.883
337.163
336.432
336.023
335.776
335.727
335.81
336.184
336.357
336.509
336.727
336.757
336.633
336.493
336.396
336.364
336.495
336.904
337.486
338.142
330.812
330.259
329.647
329.327
329.011
329.068
329.165
329.322
329.584
329.713
329.894
329.806
329.865
329.675
329.531
329.515
329.621
329.958
330.496
331.096
323.821
323.389
323.008
322.655
322.451
322.508
322.604
322.797
322.89
323.108
323.111
323.177
323.13
322.909
322.892
322.904
322.89
323.155
323.612
323.974
317.006
316.574
316.403
316.189
316.016
316.046
316.042
316.127
316.305
316.424
316.514
316.461
316.489
316.309
316.338
316.321
316.336
316.541
316.75
317.119
310.211
309.966
309.803
309.647
309.714
309.555
309.61
309.713
309.752
309.854
309.856
309.864
309.837
309.836
309.705
309.808
309.793
309.92
310.138
310.236
303.385
303.277
303.27
303.329
303.194
303.19
303.277
303.266
303.286
303.304
303.294
303.345
303.329
303.22
303.27
303.22
303.292
303.285
303.352
303.437
354.36
353.235
352.274
351.588
351.252
351.099
351.168
351.4
351.642
351.969
352.242
352.267
352.104
352.036
351.822
351.856
352.294
352.814
353.659
354.649
346.607
345.704
344.875
344.311
344.009
343.912
343.917
344.194
344.457
344.644
344.842
344.83
344.79
344.646
344.507
344.589
344.79
345.391
346.087
346.897
339.094
338.37
337.738
337.25
336.873
336.791
337.036
337.146
337.383
337.521
337.67
337.682
337.625
337.475
337.404
337.454
337.636
338.02
338.605
339.33
331.756
331.197
330.608
330.255
330.061
329.987
330.101
330.201
330.405
330.5
330.569
330.666
330.628
330.499
330.429
330.443
330.59
330.87
331.388
331.997
324.562
324.135
323.74
323.443
323.285
323.189
323.324
323.381
323.6
323.65
323.742
323.796
323.641
323.609
323.577
323.578
323.686
323.967
324.232
324.748
317.507
317.195
316.861
316.653
316.59
316.626
316.607
316.639
316.866
316.84
316.841
316.872
316.825
316.846
316.759
316.744
316.809
317.017
317.287
317.54
310.472
310.28
310.111
309.927
309.925
309.902
309.958
309.954
310.011
310.144
310.089
310.212
310.183
310.087
310.071
310.006
310.081
310.192
310.294
310.548
303.455
303.471
303.416
303.326
303.325
303.377
303.338
303.32
303.356
303.46
303.401
303.433
303.442
303.342
303.39
303.345
303.357
303.391
303.379
303.523
356.114
354.991
354
353.285
352.783
352.68
352.635
352.964
353.173
353.355
353.474
353.593
353.539
353.438
353.337
353.411
353.724
354.385
355.243
356.21
348.073
347.14
346.417
345.748
345.405
345.277
345.26
345.442
345.76
345.896
346.005
346.021
345.921
345.944
345.849
345.914
346.201
346.653
347.367
348.178
340.25
339.67
339.01
338.482
338.172
338.073
338.029
338.25
338.431
338.48
338.668
338.62
338.6
338.541
338.475
338.574
338.77
339.215
339.825
340.468
332.848
332.237
331.642
331.325
331.026
330.827
330.969
331.052
331.204
331.274
331.435
331.421
331.459
331.316
331.331
331.387
331.521
331.812
332.304
332.83
325.342
324.919
324.57
324.213
323.985
323.976
323.947
324.121
324.195
324.264
324.328
324.341
324.285
324.329
324.268
324.267
324.35
324.612
325.025
325.412
318.076
317.772
317.443
317.221
317.131
317.103
317.063
317.134
317.232
317.288
317.321
317.368
317.365
317.266
317.232
317.216
317.315
317.556
317.808
318.05
310.838
310.666
310.551
310.276
310.196
310.226
310.255
310.262
310.316
310.319
310.327
310.372
310.38
310.375
310.34
310.389
310.401
310.543
310.651
310.84
303.625
303.595
303.476
303.436
303.428
303.358
303.438
303.469
303.487
303.465
303.534
303.476
303.401
303.44
303.525
303.507
303.498
303.56
303.635
303.607
357.856
356.722
355.784
355.05
354.598
354.321
354.285
354.381
354.576
354.659
354.859
354.858
354.872
354.862
354.851
355.009
355.381
355.965
356.882
357.811
349.553
348.657
347.893
347.209
347.052
346.702
346.686
346.722
346.91
347.038
347.161
347.227
347.085
347.133
347.127
347.23
347.481
348.089
348.76
349.59
341.512
340.898
340.311
339.758
339.417
339.266
339.185
339.308
339.382
339.57
339.588
339.639
339.659
339.553
339.553
339.656
339.919
340.311
340.917
341.614
333.763
333.268
332.777
332.304
332.059
331.923
331.905
332.012
332.034
332.043
332.145
332.234
332.139
332.163
332.149
332.226
332.462
332.69
333.326
333.813
326.123
325.632
325.394
325.033
324.734
324.69
324.692
324.802
324.819
324.923
324.968
324.964
324.907
324.847
324.923
324.961
325.068
325.375
325.718
326.2
318.575
318.302
318.067
317.848
317.665
317.591
317.55
317.637
317.677
317.803
317.813
317.779
317.802
317.709
317.729
317.769
317.855
318.096
318.303
318.635
311.105
310.951
310.81
310.648
310.542
310.532
310.577
310.601
310.483
310.623
310.677
310.668
310.572
310.619
310.663
310.621
310.712
310.853
310.989
311.154
303.773
303.656
303.59
303.602
303.537
303.584
303.503
303.498
303.538
303.503
303.598
303.551
303.53
303.547
303.473
303.614
303.504
303.593
303.669
303.679
359.437
358.482
357.487
356.796
356.298
356.007
355.923
355.932
356.031
356.212
356.232
356.338
356.304
356.33
356.404
356.524
357.018
357.593
358.437
359.467
351.119
350.196
349.473
348.819
348.265
348.031
348.053
348.046
348.183
348.242
348.32
348.409
348.266
348.312
348.369
348.526
348.844
349.456
350.168
350.986
342.903
342.232
341.507
340.985
340.587
340.437
340.352
340.428
340.408
340.505
340.598
340.67
340.566
340.555
340.646
340.808
341.014
341.519
342.111
342.705
334.894
334.322
333.688
333.317
332.985
332.903
332.776
332.847
332.888
333.002
332.976
333.025
333.041
333.021
333.086
333.113
333.349
333.665
334.228
334.735
326.941
326.568
326.108
325.774
325.518
325.47
325.388
325.42
325.41
325.477
325.529
325.574
325.622
325.523
325.553
325.652
325.822
326.082
326.529
326.883
319.212
318.949
318.51
318.403
318.229
318.079
318.06
318.099
318.118
318.166
318.236
318.209
318.154
318.218
318.242
318.21
318.322
318.614
318.809
319.076
311.506
311.27
311.053
311.063
310.919
310.905
310.858
310.846
310.886
310.911
310.917
310.922
310.87
310.876
310.936
311
311.071
311.132
311.244
311.382
303.821
303.841
303.723
303.634
303.582
303.659
303.566
303.62
303.708
303.591
303.613
303.59
303.653
303.681
303.668
303.745
303.69
303.753
303.823
303.817
361.339
360.336
359.35
358.623
357.978
357.637
357.587
357.432
357.559
357.563
357.589
357.693
357.735
357.764
357.893
358.145
358.528
359.182
360.063
361.068
352.542
351.75
350.871
350.267
349.79
349.54
349.36
349.34
349.386
349.514
349.559
349.543
349.5
349.662
349.722
349.963
350.26
350.826
351.593
352.333
344.19
343.371
342.712
342.146
341.804
341.635
341.437
341.435
341.521
341.597
341.564
341.613
341.584
341.631
341.718
341.893
342.186
342.65
343.192
343.955
335.867
335.349
334.751
334.287
333.973
333.831
333.71
333.696
333.773
333.711
333.81
333.872
333.902
333.945
333.948
334.126
334.278
334.606
335.093
335.705
327.709
327.378
326.903
326.559
326.319
326.217
326.152
326.136
326.134
326.164
326.174
326.198
326.137
326.215
326.298
326.411
326.517
326.843
327.193
327.63
319.696
319.469
319.133
318.928
318.698
318.671
318.623
318.608
318.524
318.63
318.621
318.681
318.63
318.711
318.614
318.727
318.866
319.07
319.429
319.572
311.772
311.686
311.465
311.287
311.267
311.201
311.118
311.173
311.173
311.145
311.195
311.276
311.164
311.178
311.176
311.28
311.369
311.42
311.586
311.762
303.926
303.921
303.911
303.849
303.771
303.774
303.806
303.662
303.745
303.754
303.786
303.764
303.717
303.724
303.812
303.802
303.768
303.857
303.879
303.938
363.055
362.073
360.98
360.224
359.643
359.246
359.082
359.014
358.972
358.989
359.022
359.044
359.183
359.236
359.362
359.642
360.111
360.851
361.681
362.628
354.03
353.2
352.348
351.711
351.181
350.905
350.71
350.695
350.709
350.669
350.65
350.749
350.804
350.816
351.007
351.214
351.495
352.143
352.994
353.77
345.279
344.606
343.957
343.359
342.964
342.803
342.607
342.546
342.499
342.57
342.496
342.634
342.582
342.685
342.738
342.978
343.241
343.745
344.387
345.055
336.844
336.319
335.713
335.268
334.936
334.728
334.615
334.613
334.619
334.503
334.613
334.66
334.679
334.762
334.76
334.975
335.196
335.637
336.121
336.672
328.489
328.031
327.694
327.246
327.042
326.942
326.831
326.757
326.784
326.737
326.835
326.807
326.862
326.831
326.836
327.055
327.274
327.632
327.867
328.302
320.269
319.982
319.747
319.391
319.27
319.163
319.102
319.065
319.054
319.153
319.046
319.095
319.071
319.129
319.108
319.255
319.311
319.591
319.897
320.162
312.125
312.007
311.826
311.631
311.561
311.401
311.435
311.338
311.444
311.476
311.406
311.451
311.366
311.488
311.481
311.546
311.62
311.779
311.893
312.034
304
304.018
303.97
303.918
303.83
303.851
303.866
303.736
303.81
303.724
303.883
303.747
303.938
303.855
303.876
303.923
303.889
303.958
303.952
304.063
364.636
363.544
362.513
361.803
361.173
360.818
360.519
360.348
360.299
360.335
360.39
360.392
360.541
360.623
360.786
361.175
361.594
362.262
363.244
364.182
355.387
354.505
353.68
353.02
352.52
352.141
351.886
351.821
351.853
351.768
351.822
351.832
351.965
352
352.198
352.356
352.818
353.503
354.256
355.066
346.446
345.74
345.13
344.45
344.091
343.763
343.567
343.422
343.478
343.444
343.42
343.55
343.521
343.547
343.76
343.983
344.345
344.78
345.483
346.111
337.757
337.205
336.621
336.121
335.884
335.655
335.422
335.392
335.314
335.289
335.421
335.398
335.423
335.411
335.564
335.724
336.021
336.399
336.92
337.421
329.115
328.718
328.286
327.931
327.789
327.522
327.419
327.367
327.3
327.378
327.373
327.415
327.42
327.391
327.511
327.618
327.883
328.175
328.561
328.928
320.797
320.47
320.176
319.898
319.726
319.6
319.504
319.48
319.432
319.509
319.5
319.43
319.503
319.572
319.635
319.625
319.793
319.991
320.276
320.65
312.425
312.24
312.046
311.96
311.904
311.643
311.645
311.694
311.688
311.617
311.584
311.61
311.617
311.662
311.726
311.728
311.845
312.081
312.072
312.362
304.068
304.113
304.039
303.983
303.96
303.918
303.894
303.911
303.978
303.868
303.894
303.95
303.954
303.962
303.909
303.952
303.95
304.06
304.055
304.062
365.731
364.807
363.748
362.986
362.306
361.862
361.549
361.42
361.4
361.4
361.48
361.389
361.567
361.665
361.902
362.123
362.696
363.473
364.32
365.281
356.322
355.549
354.702
353.948
353.438
353.063
352.847
352.72
352.646
352.625
352.663
352.63
352.708
352.856
353.045
353.345
353.718
354.24
355.131
355.956
347.218
346.549
345.845
345.286
344.79
344.511
344.308
344.138
344.12
344.107
344.121
344.179
344.263
344.314
344.45
344.688
345.059
345.58
346.192
346.733
338.394
337.773
337.257
336.822
336.415
336.129
336.018
335.934
335.861
335.827
335.833
335.894
335.919
336.022
336.082
336.319
336.514
336.957
337.393
337.967
329.597
329.258
328.851
328.439
328.221
327.99
327.799
327.711
327.749
327.748
327.796
327.718
327.78
327.828
327.894
328.024
328.233
328.618
328.957
329.35
321.08
320.772
320.485
320.244
320.068
319.962
319.832
319.772
319.753
319.767
319.714
319.677
319.737
319.878
319.925
319.965
320.13
320.332
320.629
320.852
312.6
312.409
312.272
312.059
311.977
311.868
311.867
311.914
311.861
311.787
311.88
311.846
311.871
311.878
311.904
311.993
311.959
312.2
312.366
312.53
304.254
304.118
304.17
304.142
304.019
303.998
304.003
303.918
303.957
303.873
304.001
304.028
304.024
303.935
303.949
303.972
303.983
304.025
304.137
304.166
)
;

boundaryField
{
    hotSide
    {
        type            fixedGradient;
        gradient        nonuniform List<scalar> 
400
(
321.511
322.87
325.591
329.677
335.133
341.965
350.181
359.788
370.794
383.208
397.037
412.289
428.971
447.088
466.647
487.651
510.105
534.011
559.372
586.191
323.738
325.08
327.767
331.802
337.194
343.949
352.078
361.591
372.498
384.81
398.537
413.687
430.268
448.289
467.755
488.672
511.043
534.872
560.161
586.913
326.149
327.47
330.116
334.091
339.406
346.071
354.099
363.503
374.296
386.491
400.101
415.136
431.606
449.52
468.885
489.706
511.988
535.735
560.948
587.63
328.704
330
332.597
336.503
341.73
348.292
356.205
365.485
376.15
388.215
401.695
416.604
432.954
450.753
470.009
490.73
512.919
536.579
561.714
588.325
331.33
332.599
335.142
338.97
344.099
350.546
358.332
367.477
378.003
389.928
403.271
418.047
434.27
451.949
471.095
491.712
513.807
537.382
562.439
588.978
333.918
335.158
337.643
341.389
346.414
352.74
360.392
369.397
379.779
391.562
404.765
419.407
435.503
453.065
472.101
492.618
514.622
538.114
563.096
589.569
336.321
337.531
339.959
343.622
348.544
354.751
362.274
371.142
381.385
393.031
406.101
420.618
436.595
454.047
472.983
493.409
515.33
538.747
563.663
590.076
338.36
339.543
341.92
345.509
350.339
356.44
363.847
372.595
382.718
394.244
407.2
421.608
437.485
454.844
473.695
494.045
515.897
539.253
564.114
590.478
339.852
341.015
343.352
346.885
351.645
357.665
364.985
373.643
383.675
395.113
407.984
422.312
438.116
455.407
474.197
494.491
516.294
539.606
564.428
590.758
340.643
341.795
344.11
347.613
352.334
358.311
365.584
374.193
384.176
395.567
408.393
422.679
438.443
455.699
474.456
494.722
516.498
539.788
564.589
590.901
340.643
341.795
344.11
347.613
352.334
358.311
365.584
374.193
384.176
395.567
408.393
422.679
438.443
455.699
474.456
494.722
516.498
539.788
564.589
590.901
339.852
341.015
343.352
346.885
351.645
357.665
364.985
373.643
383.675
395.113
407.984
422.312
438.116
455.407
474.197
494.491
516.294
539.606
564.428
590.758
338.36
339.543
341.92
345.509
350.339
356.44
363.847
372.595
382.718
394.244
407.2
421.608
437.485
454.844
473.695
494.045
515.897
539.253
564.114
590.478
336.321
337.531
339.959
343.622
348.544
354.751
362.274
371.142
381.385
393.031
406.101
420.618
436.595
454.047
472.983
493.409
515.33
538.747
563.663
590.076
333.918
335.158
337.643
341.389
346.414
352.74
360.392
369.397
379.779
391.562
404.765
419.407
435.503
453.065
472.101
492.618
514.622
538.114
563.096
589.569
331.33
332.599
335.142
338.97
344.099
350.546
358.332
367.477
378.003
389.928
403.271
418.047
434.27
451.949
471.095
491.712
513.807
537.382
562.439
588.978
328.704
330
332.597
336.503
341.73
348.292
356.205
365.485
376.15
388.215
401.695
416.604
432.954
450.753
470.009
490.73
512.919
536.579
561.714
588.325
326.149
327.47
330.116
334.091
339.406
346.071
354.099
363.503
374.296
386.491
400.101
415.136
431.606
449.52
468.885
489.706
511.988
535.735
560.948
587.63
323.738
325.08
327.767
331.802
337.194
343.949
352.078
361.591
372.498
384.81
398.537
413.687
430.268
448.289
467.755
488.672
511.043
534.872
560.161
586.913
321.511
322.87
325.591
329.677
335.133
341.965
350.181
359.788
370.794
383.208
397.037
412.289
428.971
447.088
466.647
487.651
510.105
534.011
559.372
586.191
)
;
    }
    coldSide
    {
        type            mixed;
        refValue        uniform 300;
        refGradient     uniform 0;
        valueFraction   uniform 0.991591;
        source          uniform 0;
        value           nonuniform List<scalar> 
400
(
300.022
300.022
300.023
300.023
300.023
300.023
300.025
300.025
300.026
300.027
300.027
300.028
300.029
300.03
300.032
300.032
300.033
300.034
300.034
300.036
300.021
300.021
300.021
300.022
300.023
300.023
300.023
300.024
300.025
300.026
300.027
300.028
300.029
300.03
300.031
300.032
300.033
300.034
300.035
300.035
300.021
300.021
300.021