/*--------------------------------*- C++ -*----------------------------------*\
| =========                 |                                                 |
| \\      /  F ield         | OpenFOAM: The Open Source CFD Toolbox           |
|  \\    /   O peration     | Version:  2212                                  |
|   \\  /    A nd           | Website:  www.openfoam.com                      |
|    \\/     M anipulation  |                                                 |
\*---------------------------------------------------------------------------*/
FoamFile
{
    version     2.0;
    format      ascii;
    arch        "LSB;label=32;scalar=64";
    class       volScalarField;
    location    "0";
    object      T;
}
// * * * * * * * * * * * * * * * * * * * * * * * * * * * * * * * * * * * * * //

dimensions      [0 0 0 1 0 0 0];

internalField   nonuniform List<scalar> 
3200
(
322.596
322.838
323.061
323.536
323.666
324.219
324.194
324.345
323.916
324.187
324.086
323.918
323.673
323.829
323.673
323.507
322.813
322.142
321.758
321.41
319.845
320.026
320.257
320.616
320.752
321.24
321.23
321.386
320.971
321.218
321.139
321.021
320.791
320.924
320.829
320.678
319.997
319.464
319.12
318.828
316.987
317.139
317.318
317.605
317.742
318.116
318.161
318.316
317.903
318.141
318.058
317.971
317.773
317.906
317.85
317.718
317.116
316.671
316.386
316.122
314.059
314.134
314.299
314.512
314.619
314.923
314.992
315.187
314.745
314.955
314.899
314.885
314.666
314.767
314.753
314.625
314.125
313.768
313.564
313.29
311.058
311.053
311.208
311.406
311.447
311.663
311.722
311.868
311.522
311.644
311.647
311.678
311.509
311.542
311.576
311.38
311.072
310.739
310.62
310.386
307.996
307.935
308.075
308.232
308.185
308.335
308.408
308.52
308.265
308.348
308.386
308.42
308.276
308.275
308.342
308.138
307.936
307.704
307.619
307.466
304.828
304.773
304.901
304.988
304.909
305.021
305.039
305.128
304.998
305.041
305.059
305.087
304.994
304.981
305.044
304.9
304.787
304.623
304.604
304.522
301.614
301.613
301.632
301.681
301.648
301.687
301.693
301.732
301.686
301.7
301.68
301.7
301.671
301.687
301.701
301.637
301.624
301.529
301.565
301.515
323.408
323.743
323.906
324.339
324.739
324.96
325.022
325.036
325.045
325.024
325.136
325.089
324.831
324.829
324.413
324.036
323.677
323.017
322.524
322.267
320.496
320.814
320.965
321.332
321.656
321.878
321.938
321.993
321.968
321.922
322.037
321.998
321.759
321.794
321.449
321.136
320.775
320.158
319.736
319.508
317.541
317.838
317.942
318.182
318.462
318.674
318.754
318.787
318.772
318.724
318.845
318.797
318.55
318.6
318.331
318.101
317.714
317.228
316.89
316.688
314.506
314.732
314.792
314.987
315.159
315.476
315.448
315.53
315.463
315.41
315.494
315.522
315.278
315.344
315.119
314.958
314.551
314.189
313.929
313.755
311.371
311.53
311.587
311.738
311.808
312.158
312.027
312.17
312.064
312.028
312.08
312.164
311.917
311.993
311.875
311.709
311.341
311.077
310.884
310.764
308.162
308.254
308.34
308.415
308.446
308.74
308.635
308.73
308.618
308.621
308.635
308.714
308.568
308.621
308.54
308.409
308.129
307.96
307.794
307.75
304.909
304.967
305.048
305.061
305.067
305.291
305.144
305.272
305.183
305.198
305.171
305.245
305.171
305.193
305.159
305.056
304.871
304.782
304.701
304.681
301.667
301.659
301.709
301.717
301.715
301.763
301.722
301.784
301.746
301.746
301.736
301.754
301.725
301.764
301.74
301.673
301.627
301.583
301.578
301.559
324.296
324.737
325.128
325.504
325.921
326.123
326.39
326.239
326.241
326.16
326.3
326.2
326.004
325.723
325.396
325.062
324.847
324.307
323.773
323.537
321.3
321.685
321.982
322.33
322.692
322.873
323.081
322.976
322.988
322.913
323.029
322.982
322.774
322.54
322.289
321.952
321.759
321.265
320.847
320.563
318.193
318.527
318.71
319.056
319.339
319.512
319.67
319.621
319.629
319.581
319.611
319.638
319.503
319.265
319.026
318.683
318.525
318.117
317.793
317.512
315.025
315.266
315.374
315.642
315.917
316.072
316.17
316.174
316.179
316.148
316.108
316.18
316.129
315.905
315.642
315.337
315.222
314.888
314.688
314.434
311.8
311.941
312.012
312.196
312.422
312.563
312.642
312.652
312.663
312.612
312.546
312.673
312.64
312.465
312.232
311.969
311.863
311.66
311.481
311.298
308.489
308.592
308.598
308.726
308.937
308.992
309.06
309.093
309.1
309.068
308.983
309.095
309.083
308.941
308.784
308.592
308.461
308.403
308.278
308.078
305.111
305.182
305.169
305.269
305.358
305.408
305.44
305.477
305.47
305.45
305.406
305.465
305.459
305.373
305.315
305.15
305.071
305.081
305.008
304.864
301.725
301.742
301.733
301.772
301.781
301.796
301.837
301.837
301.834
301.843
301.815
301.836
301.838
301.795
301.779
301.713
301.688
301.703
301.689
301.626
325.231
325.749
326.182
326.567
327.181
327.173
327.47
327.608
327.593
327.446
327.583
327.388
327.308
326.862
326.683
326.24
326.108
325.584
324.927
324.64
322.086
322.515
322.886
323.245
323.772
323.813
324.072
324.154
324.15
324.026
324.166
323.909
323.862
323.494
323.358
322.944
322.887
322.371
321.789
321.533
318.835
319.178
319.48
319.806
320.233
320.353
320.5
320.632
320.59
320.479
320.603
320.351
320.328
320.013
319.897
319.572
319.553
319.045
318.521
318.356
315.554
315.789
316.06
316.265
316.631
316.796
316.893
317.028
316.942
316.857
316.991
316.754
316.72
316.461
316.411
316.13
316.09
315.662
315.259
315.107
312.171
312.325
312.58
312.694
312.96
313.161
313.229
313.35
313.236
313.175
313.232
313.13
313.076
312.855
312.811
312.613
312.591
312.253
311.937
311.779
308.741
308.833
309.014
309.081
309.265
309.463
309.5
309.568
309.529
309.44
309.484
309.456
309.377
309.236
309.179
309.031
309.03
308.819
308.604
308.439
305.256
305.338
305.405
305.443
305.558
305.674
305.712
305.749
305.752
305.687
305.719
305.718
305.629
305.568
305.553
305.445
305.408
305.326
305.198
305.062
301.768
301.781
301.81
301.818
301.861
301.878
301.927
301.91
301.926
301.891
301.93
301.932
301.91
301.906
301.859
301.819
301.811
301.782
301.746
301.688
326.635
326.903
327.32
327.975
328.352
328.457
328.501
328.874
328.788
328.972
328.888
328.473
328.449
328.229
328.043
327.605
327.41
326.758
326.277
326.021
323.311
323.53
323.882
324.427
324.828
324.885
324.934
325.298
325.184
325.285
325.243
324.876
324.871
324.669
324.556
324.099
323.959
323.389
322.94
322.807
319.893
320.072
320.336
320.837
321.203
321.214
321.285
321.651
321.484
321.509
321.506
321.188
321.197
321.012
320.972
320.544
320.42
319.958
319.538
319.457
316.402
316.507
316.726
317.15
317.458
317.448
317.501
317.83
317.668
317.681
317.691
317.453
317.474
317.29
317.299
316.901
316.808
316.416
316.066
316.003
312.816
312.909
313.04
313.383
313.626
313.694
313.665
313.923
313.835
313.822
313.84
313.636
313.653
313.49
313.55
313.216
313.161
312.806
312.516
312.49
309.185
309.227
309.325
309.594
309.762
309.833
309.835
310.012
309.964
309.888
309.904
309.761
309.789
309.711
309.749
309.479
309.471
309.169
308.978
308.968
305.538
305.551
305.609
305.771
305.844
305.939
305.911
306.052
305.993
305.949
305.952
305.866
305.895
305.884
305.868
305.717
305.679
305.544
305.426
305.411
301.852
301.875
301.876
301.936
301.952
301.996
302.006
302.043
302.024
301.978
301.981
301.976
301.99
301.973
301.97
301.915
301.893
301.859
301.832
301.826
327.675
328.049
328.625
329.069
329.375
329.61
329.946
330.073
330.237
330.185
330.254
329.994
329.989
329.754
329.377
328.977
328.542
327.982
327.546
327.123
324.197
324.543
324.958
325.384
325.651
325.883
326.161
326.297
326.462
326.391
326.437
326.237
326.205
326.004
325.684
325.321
324.91
324.417
324.05
323.781
320.641
320.946
321.254
321.643
321.844
322.068
322.316
322.413
322.553
322.503
322.493
322.379
322.3
322.135
321.883
321.598
321.221
320.801
320.489
320.304
316.998
317.266
317.468
317.782
318.014
318.19
318.358
318.447
318.598
318.49
318.5
318.439
318.402
318.192
317.987
317.78
317.406
317.107
316.883
316.732
313.265
313.466
313.602
313.873
314.094
314.244
314.31
314.41
314.565
314.409
314.434
314.42
314.42
314.181
314.02
313.928
313.591
313.349
313.233
313.074
309.507
309.669
309.711
309.936
310.127
310.225
310.242
310.298
310.467
310.285
310.325
310.357
310.357
310.124
310.038
310.02
309.783
309.62
309.51
309.336
305.697
305.83
305.83
305.989
306.115
306.171
306.165
306.181
306.334
306.166
306.193
306.27
306.195
306.086
306.011
306.043
305.904
305.813
305.759
305.636
301.927
301.972
301.954
301.995
302.053
302.056
302.076
302.071
302.119
302.068
302.09
302.105
302.079
302.044
302.003
302.008
301.983
301.951
301.931
301.884
328.54
329.136
329.764
330.296
330.821
331.072
331.351
331.467
331.621
331.62
331.601
331.404
331.224
331.046
330.939
330.209
329.779
329.224
328.822
328.236
324.917
325.509
326.015
326.499
326.939
327.142
327.398
327.538
327.645
327.648
327.602
327.449
327.27
327.108
327.002
326.409
326.03
325.51
325.202
324.722
321.23
321.734
322.18
322.585
322.979
323.117
323.312
323.494
323.57
323.549
323.466
323.343
323.164
323.042
322.967
322.525
322.212
321.691
321.464
321.09
317.478
317.868
318.25
318.568
318.909
319.005
319.143
319.349
319.429
319.387
319.297
319.217
319.022
318.939
318.886
318.558
318.29
317.811
317.696
317.361
313.652
313.929
314.24
314.514
314.787
314.825
314.899
315.096
315.182
315.186
315.102
315.026
314.868
314.761
314.764
314.523
314.294
313.927
313.869
313.544
309.766
309.976
310.166
310.435
310.594
310.623
310.645
310.821
310.856
310.891
310.823
310.762
310.659
310.588
310.58
310.425
310.235
310.015
309.965
309.681
305.861
306.019
306.119
306.287
306.351
306.377
306.377
306.506
306.532
306.565
306.514
306.45
306.42
306.392
306.376
306.297
306.172
306.023
306.01
305.804
301.953
302.045
302.073
302.11
302.125
302.127
302.141
302.173
302.172
302.19
302.186
302.177
302.16
302.16
302.141
302.11
302.085
302.015
302.027
301.936
329.707
330.579
330.829
331.505
331.949
332.352
332.493
332.906
332.868
332.863
332.801
332.655
332.639
332.314
332.102
331.511
331.01
330.467
329.872
329.465
325.944
326.719
326.943
327.526
327.856
328.285
328.413
328.757
328.735
328.706
328.637
328.554
328.553
328.217
328.076
327.51
327.094
326.612
326.062
325.771
322.097
322.755
322.967
323.467
323.713
324.111
324.207
324.531
324.48
324.416
324.35
324.338
324.347
324.042
323.932
323.447
323.101
322.663
322.16
321.974
318.21
318.731
318.942
319.312
319.504
319.842
319.866
320.15
320.131
320.104
319.974
320.025
320.047
319.771
319.685
319.326
319.039
318.64
318.242
318.092
314.246
314.632
314.818
315.105
315.268
315.476
315.496
315.762
315.731
315.714
315.602
315.649
315.648
315.421
315.382
315.08
314.873
314.581
314.292
314.144
310.196
310.474
310.646
310.858
310.939
311.072
311.075
311.298
311.297
311.264
311.155
311.231
311.231
311.073
311.031
310.821
310.635
310.477
310.265
310.175
306.129
306.329
306.438
306.531
306.579
306.695
306.669
306.808
306.812
306.825
306.69
306.761
306.779
306.659
306.627
306.51
306.389
306.306
306.146
306.141
302.071
302.124
302.165
302.203
302.183
302.231
302.236
302.282
302.29
302.28
302.25
302.258
302.281
302.207
302.214
302.184
302.138
302.113
302.066
302.061
330.733
331.38
331.889
332.674
332.911
333.396
333.735
334.23
334.155
333.975
333.899
334.07
333.844
333.683
333.314
332.618
332.168
331.783
331.202
330.535
326.877
327.388
327.876
328.539
328.724
329.211
329.459
329.957
329.884
329.693
329.614
329.803
329.581
329.457
329.1
328.507
328.118
327.771
327.252
326.702
322.924
323.327
323.744
324.299
324.392
324.881
325.107
325.542
325.447
325.288
325.238
325.407
325.217
325.144
324.765
324.347
323.982
323.633
323.202
322.788
318.868
319.198
319.482
320.022
320.028
320.529
320.668
320.993
320.95
320.812
320.74
320.878
320.787
320.722
320.373
320.059
319.786
319.419
319.117
318.785
314.729
315.017
315.174
315.654
315.624
316.051
316.126
316.375
316.396
316.255
316.189
316.269
316.25
316.178
315.933
315.691
315.472
315.16
314.965
314.672
310.574
310.768
310.865
311.241
311.21
311.494
311.556
311.758
311.8
311.653
311.62
311.625
311.658
311.577
311.43
311.263
311.105
310.847
310.75
310.513
306.351
306.541
306.555
306.778
306.763
306.881
306.972
307.095
307.114
307.008
307
306.955
307.023
307.002
306.872
306.769
306.697
306.554
306.463
306.333
302.144
302.188
302.2
302.281
302.262
302.296
302.345
302.39
302.381
302.344
302.356
302.321
302.359
302.362
302.317
302.281
302.231
302.18
302.18
302.135
331.915
332.622
333.143
333.544
334.279
334.499
334.948
335.137
335.432
335.287
335.13
335.318
335.139
334.89
334.333
333.825
333.341
332.736
332.243
331.738
327.884
328.527
328.926
329.308
329.92
330.133
330.525
330.683
330.966
330.817
330.65
330.865
330.684
330.476
330.011
329.536
329.086
328.593
328.195
327.732
323.759
324.324
324.607
324.965
325.446
325.669
326.007
326.127
326.362
326.261
326.04
326.291
326.108
325.971
325.564
325.139
324.81
324.378
324.014
323.648
319.591
320.093
320.254
320.559
320.892
321.113
321.396
321.497
321.71
321.593
321.403
321.631
321.466
321.413
321.041
320.641
320.441
320.099
319.762
319.468
315.338
315.742
315.822
316.071
316.316
316.481
316.757
316.798
316.982
316.893
316.714
316.869
316.765
316.774
316.409
316.131
315.963
315.754
315.478
315.195
310.975
311.315
311.343
311.534
311.682
311.776
312.015
312.034
312.164
312.15
311.936
312.055
312.012
312.066
311.772
311.572
311.419
311.284
311.131
310.857
306.632
306.82
306.796
306.905
307.02
307.032
307.236
307.226
307.308
307.347
307.16
307.211
307.231
307.278
307.086
306.938
306.86
306.809
306.7
306.534
302.223
302.282
302.295
302.306
302.362
302.347
302.422
302.409
302.44
302.476
302.409
302.406
302.416
302.452
302.383
302.339
302.302
302.288
302.257
302.192
332.975
333.795
334.246
334.775
335.254
335.687
336.079
336.214
336.509
336.476
336.413
336.653
336.148
336.038
335.496
335.154
334.651
333.904
333.419
332.979
328.812
329.552
329.912
330.348
330.819
331.177
331.534
331.643
331.913
331.853
331.814
332.029
331.539
331.514
331.001
330.711
330.252
329.614
329.202
328.829
324.544
325.161
325.478
325.847
326.229
326.523
326.834
326.912
327.167
327.119
327.102
327.25
326.86
326.861
326.452
326.114
325.777
325.259
324.847
324.568
320.184
320.738
320.933
321.254
321.569
321.791
322.036
322.109
322.334
322.31
322.288
322.375
322.094
322.142
321.791
321.479
321.158
320.806
320.439
320.238
315.782
316.177
316.298
316.617
316.835
316.965
317.191
317.256
317.456
317.429
317.403
317.469
317.244
317.343
317.073
316.821
316.513
316.258
315.94
315.799
311.323
311.588
311.631
311.92
312.05
312.156
312.303
312.368
312.496
312.488
312.495
312.504
312.338
312.481
312.235
312.053
311.828
311.645
311.44
311.315
306.796
306.964
306.985
307.15
307.223
307.284
307.42
307.466
307.504
307.472
307.519
307.519
307.388
307.548
307.353
307.249
307.094
307.002
306.888
306.826
302.291
302.333
302.338
302.409
302.431
302.431
302.506
302.509
302.505
302.493
302.509
302.507
302.482
302.54
302.463
302.439
302.378
302.354
302.321
302.282
333.898
334.772
335.368
335.832
336.465
336.801
337.165
337.468
337.666
337.752
337.427
337.732
337.293
337.209
336.532
336.337
335.774
335.271
334.549
333.892
329.611
330.352
330.867
331.292
331.84
332.139
332.463
332.681
332.907
332.937
332.664
332.96
332.584
332.484
331.886
331.729
331.231
330.781
330.148
329.563
325.235
325.866
326.257
326.675
327.132
327.369
327.653
327.805
328.034
327.946
327.818
328.075
327.709
327.674
327.167
326.996
326.58
326.21
325.669
325.179
320.772
321.317
321.585
321.955
322.26
322.485
322.703
322.825
323.057
322.95
322.88
323.111
322.794
322.764
322.354
322.159
321.851
321.553
321.122
320.715
316.196
316.657
316.842
317.131
317.353
317.505
317.673
317.82
318.031
317.921
317.859
318.044
317.795
317.776
317.453
317.244
317.097
316.811
316.511
316.176
311.581
311.938
312.069
312.28
312.382
312.496
312.637
312.778
312.9
312.858
312.798
312.905
312.758
312.761
312.476
312.314
312.239
312.058
311.824
311.582
306.933
307.202
307.266
307.371
307.417
307.512
307.573
307.697
307.721
307.727
307.673
307.772
307.683
307.681
307.475
307.408
307.37
307.253
307.103
306.952
302.316
302.405
302.443
302.467
302.494
302.537
302.527
302.578
302.589
302.587
302.578
302.592
302.577
302.576
302.51
302.504
302.486
302.426
302.377
302.354
334.894
335.506
336.284
336.748
337.116
337.716
338.108
338.601
338.787
338.76
338.702
338.702
338.446
338.283
337.647
337.318
336.563
336.147
335.575
334.793
330.522
331.017
331.702
332.085
332.428
332.921
333.259
333.74
333.828
333.843
333.772
333.769
333.527
333.388
332.862
332.62
331.953
331.564
331.019
330.396
326.031
326.43
326.942
327.308
327.598
328.015
328.335
328.738
328.773
328.814
328.729
328.713
328.539
328.371
327.961
327.808
327.188
326.922
326.361
325.867
321.382
321.761
322.114
322.376
322.663
323.041
323.316
323.639
323.612
323.682
323.584
323.581
323.439
323.301
322.965
322.889
322.369
322.168
321.679
321.283
316.694
316.988
317.256
317.419
317.702
317.995
318.236
318.45
318.421
318.486
318.367
318.368
318.277
318.195
317.9
317.876
317.462
317.328
316.895
316.653
312.017
312.138
312.388
312.448
312.657
312.888
313.076
313.216
313.209
313.238
313.106
313.135
313.074
313.043
312.814
312.808
312.508
312.391
312.104
311.959
307.238
307.323
307.427
307.508
307.615
307.77
307.851
307.946
307.943
307.949
307.872
307.886
307.833
307.831
307.687
307.711
307.532
307.465
307.275
307.186
302.415
302.444
302.473
302.52
302.549
302.619
302.619
302.672
302.665
302.655
302.638
302.652
302.619
302.65
302.598
302.586
302.527
302.536
302.438
302.416
335.633
336.362
336.946
337.695
338.268
338.811
338.954
339.408
339.575
339.854
339.706
339.559
339.305
339.026
338.659
338.09
337.668
336.94
336.372
335.651
331.118
331.732
332.313
332.942
333.34
333.865
333.967
334.414
334.544
334.801
334.657
334.52
334.344
334.064
333.729
333.221
332.91
332.264
331.783
331.157
326.487
327.029
327.502
328.077
328.359
328.86
328.88
329.267
329.448
329.621
329.476
329.335
329.263
328.957
328.722
328.265
328.042
327.479
327.134
326.525
321.798
322.21
322.631
323.109
323.283
323.762
323.698
324.092
324.22
324.338
324.208
324.085
324.092
323.794
323.609
323.23
323.027
322.616
322.337
321.86
317.025
317.355
317.737
318.044
318.162
318.6
318.476
318.796
318.892
319.037
318.869
318.789
318.8
318.608
318.4
318.116
317.973
317.674
317.414
317.106
312.187
312.44
312.746
312.961
312.965
313.347
313.218
313.441
313.529
313.69
313.496
313.473
313.496
313.344
313.118
312.965
312.888
312.635
312.487
312.27
307.342
307.496
307.723
307.833
307.768
308.041
307.975
308.083
308.093
308.252
308.099
308.117
308.134
308.03
307.912
307.772
307.774
307.594
307.498
307.379
302.448
302.517
302.595
302.613
302.611
302.712
302.686
302.704
302.721
302.771
302.727
302.743
302.734
302.694
302.667
302.581
302.623
302.554
302.491
302.483
336.363
337.049
337.838
338.564
339.135
339.689
339.914
340.328
340.65
340.71
340.606
340.57
340.175
339.911
339.556
339.234
338.655
337.943
337.136
336.598
331.765
332.313
333.046
333.62
334.203
334.604
334.817
335.208
335.516
335.534
335.432
335.421
335.061
334.862
334.494
334.254
333.78
333.089
332.425
331.965
327.069
327.541
328.16
328.587
329.127
329.458
329.587
329.976
330.237
330.238
330.13
330.135
329.855
329.663
329.325
329.161
328.765
328.174
327.617
327.221
322.276
322.673
323.175
323.512
323.988
324.218
324.296
324.615
324.842
324.826
324.759
324.791
324.549
324.392
324.095
323.932
323.694
323.14
322.718
322.347
317.387
317.709
318.12
318.371
318.742
318.888
318.981
319.173
319.432
319.397
319.339
319.336
319.209
319.025
318.79
318.639
318.523
318.091
317.731
317.418
312.447
312.685
313.003
313.159
313.449
313.557
313.609
313.72
313.956
313.909
313.844
313.823
313.773
313.643
313.46
313.304
313.261
312.956
312.692
312.462
307.54
307.654
307.785
307.91
308.089
308.187
308.173
308.256
308.386
308.38
308.33
308.292
308.29
308.206
308.087
307.997
307.966
307.784
307.61
307.451
302.526
302.567
302.603
302.634
302.73
302.759
302.745
302.776
302.805
302.838
302.8
302.764
302.784
302.765
302.708
302.688
302.677
302.619
302.552
302.498
336.949
337.598
338.566
339.306
340.125
340.451
340.702
341.006
341.41
341.398
341.366
341.239
341.106
340.912
340.493
340.247
339.521
338.858
338.125
337.303
332.23
332.858
333.634
334.246
335.034
335.286
335.519
335.771
336.107
336.162
336.086
336.018
335.841
335.726
335.324
335.099
334.549
333.891
333.256
332.582
327.391
327.948
328.582
329.121
329.824
330.027
330.19
330.476
330.71
330.819
330.693
330.672
330.477
330.433
330.085
329.859
329.454
328.863
328.242
327.697
322.512
322.963
323.485
323.915
324.534
324.715
324.827
325.061
325.236
325.374
325.214
325.2
325.04
325.034
324.728
324.526
324.213
323.758
323.186
322.791
317.57
317.932
318.325
318.663
319.159
319.31
319.327
319.553
319.673
319.807
319.673
319.722
319.518
319.54
319.322
319.152
318.922
318.55
318.069
317.813
312.582
312.871
313.136
313.366
313.732
313.864
313.83
313.982
314.07
314.159
314.111
314.179
313.936
314.069
313.848
313.715
313.538
313.297
312.955
312.805
307.572
307.776
307.883
308.028
308.266
308.357
308.324
308.413
308.475
308.497
308.512
308.525
308.355
308.463
308.323
308.263
308.149
307.982
307.81
307.7
302.538
302.616
302.655
302.696
302.779
302.809
302.801
302.811
302.842
302.85
302.859
302.868
302.806
302.817
302.796
302.785
302.759
302.679
302.623
302.575
337.581
338.327
339.052
339.787
340.522
340.985
341.425
341.685
342.279
342.332
342.398
342.159
342.008
341.565
341.336
340.806
340.336
339.512
338.958
338.037
332.793
333.441
334.062
334.771
335.354
335.756
336.104
336.362
336.889
336.945
336.976
336.797
336.672
336.264
336.127
335.568
335.176
334.521
334.009
333.185
327.887
328.47
328.95
329.598
330.067
330.432
330.735
330.952
331.378
331.437
331.422
331.304
331.212
330.824
330.744
330.258
329.939
329.434
328.951
328.219
322.899
323.417
323.752
324.348
324.753
324.993
325.253
325.419
325.79
325.843
325.806
325.699
325.62
325.367
325.244
324.864
324.596
324.229
323.762
323.191
317.87
318.321
318.528
319.066
319.325
319.521
319.679
319.799
320.101
320.184
320.123
320.077
319.995
319.827
319.673
319.439
319.176
318.933
318.523
318.09
312.811
313.12
313.261
313.685
313.849
313.99
314.106
314.176
314.378
314.469
314.36
314.389
314.315
314.189
314.056
313.92
313.743
313.586
313.27
312.944
307.679
307.874
307.977
308.249
308.34
308.432
308.489
308.553
308.656
308.729
308.652
308.656
308.648
308.53
308.448
308.387
308.275
308.201
307.97
307.832
302.577
302.641
302.667
302.786
302.809
302.824
302.837
302.863
302.89
302.946
302.892
302.901
302.912
302.859
302.835
302.813
302.773
302.756
302.665
302.647
338.107
338.924
339.842
340.702
341.148
341.568
341.928
342.414
342.861
342.857
342.995
342.605
342.48
342.296
341.917
341.497
341.154
340.265
339.515
338.329
333.249
333.934
334.81
335.524
335.909
336.241
336.547
336.999
337.399
337.363
337.531
337.165
337.072
336.881
336.546
336.243
335.932
335.164
334.481
333.482
328.302
328.945
329.649
330.246
330.543
330.845
331.099
331.495
331.82
331.76
331.941
331.635
331.548
331.359
331.055
330.848
330.543
329.931
329.343
328.526
323.272
323.84
324.365
324.846
325.067
325.354
325.601
325.879
326.144
326.092
326.192
325.976
325.957
325.766
325.515
325.397
325.074
324.589
324.15
323.493
318.209
318.648
319.064
319.388
319.527
319.822
320.002
320.198
320.41
320.344
320.441
320.29
320.275
320.094
319.916
319.844
319.586
319.223
318.88
318.349
313.035
313.364
313.671
313.875
313.978
314.21
314.329
314.474
314.648
314.571
314.654
314.586
314.513
314.381
314.262
314.253
314.038
313.799
313.557
313.136
307.849
308.036
308.218
308.361
308.425
308.568
308.639
308.696
308.814
308.748
308.821
308.768
308.718
308.612
308.6
308.591
308.437
308.298
308.139
307.883
302.627
302.695
302.743
302.802
302.836
302.877
302.888
302.919
302.955
302.939
302.931
302.938
302.911
302.871
302.864
302.868
302.826
302.769
302.736
302.645
338.473
339.231
340.118
341.116
341.5
342.165
342.591
342.942
343.157
343.39
343.315
343.359
343.133
342.732
342.343
341.911
341.535
340.772
339.838
338.915
333.558
334.237
335.029
335.896
336.212
336.772
337.195
337.43
337.683
337.839
337.779
337.839
337.59
337.227
336.92
336.545
336.218
335.554
334.726
333.962
328.559
329.174
329.837
330.554
330.816
331.284
331.626
331.833
332.052
332.159
332.117
332.228
331.992
331.666
331.38
331.091
330.792
330.236
329.546
328.882
323.49
324.027
324.553
325.139
325.356
325.716
325.955
326.156
326.335
326.442
326.357
326.511
326.269
326.033
325.759
325.536
325.3
324.876
324.248
323.749
318.356
318.776
319.228
319.671
319.812
320.101
320.215
320.428
320.605
320.632
320.556
320.704
320.491
320.336
320.09
319.951
319.767
319.428
318.927
318.521
313.131
313.458
313.758
314.107
314.225
314.425
314.507
314.651
314.785
314.776
314.701
314.848
314.654
314.553
314.365
314.314
314.185
313.931
313.567
313.267
307.881
308.109
308.268
308.488
308.542
308.667
308.742
308.77
308.91
308.875
308.845
308.93
308.818
308.74
308.618
308.598
308.555
308.383
308.161
308.013
302.636
302.714
302.771
302.847
302.853
302.923
302.936
302.927
302.999
302.981
302.968
303.007
302.952
302.931
302.904
302.872
302.879
302.797
302.741
302.681
338.744
339.416
340.242
341.208
341.694
342.559
342.868
343.276
343.642
343.892
343.84
343.776
343.45
342.893
342.778
342.158
341.78
341.07
340.295
339.145
333.83
334.377
335.018
335.905
336.359
337.107
337.356
337.711
338.041
338.259
338.198
338.135
337.845
337.373
337.275
336.78
336.426
335.857
335.094
334.152
328.788
329.236
329.76
330.524
330.941
331.506
331.824
332.049
332.377
332.525
332.435
332.4
332.133
331.789
331.679
331.305
331.013
330.501
329.819
329.029
323.672
324.022
324.443
325.041
325.426
325.856
326.189
326.328
326.599
326.677
326.623
326.638
326.296
326.112
325.984
325.718
325.501
325.046
324.486
323.809
318.488
318.75
319.033
319.508
319.846
320.146
320.437
320.541
320.793
320.797
320.762
320.781
320.514
320.37
320.261
320.004
319.947
319.535
319.112
318.596
313.255
313.42
313.612
314.011
314.217
314.422
314.614
314.719
314.918
314.878
314.843
314.876
314.719
314.58
314.547
314.284
314.314
313.983
313.673
313.302
307.942
308.072
308.169
308.429
308.566
308.659
308.785
308.859
308.997
308.971
308.928
308.919
308.866
308.764
308.767
308.592
308.628
308.414
308.216
307.995
302.656
302.703
302.74
302.831
302.883
302.912
302.94
302.958
303.001
303.013
302.98
302.976
302.991
302.954
302.964
302.9
302.887
302.834
302.751
302.692
)
;

boundaryField
{
    hotSide
    {
        type            fixedGradient;
        gradient        nonuniform List<scalar> 
400
(
208.923
220.899
232.878
244.807
256.631
268.294
279.742
290.918
301.767
312.232
322.262
331.804
340.808
349.227
357.016
364.136
370.549
376.222
381.126
385.237
212.519
224.87
237.23
249.545
261.757
273.81
285.647
297.209
308.438
319.279
329.675
339.572
348.919
357.667
365.771
373.186
379.876
385.806
390.945
395.268
215.573
228.271
240.984
253.656
266.229
278.644
290.842
302.763
314.348
325.539
336.277
346.508
356.177
365.235
373.634
381.329
388.281
394.454
399.817
404.343
218.097
231.11
244.144
257.142
270.044
282.791
295.32
307.572
319.484
330.997
342.051
352.59
362.558
371.903
380.576
388.531
395.729
402.13
407.703
412.421
220.102
233.397
246.719
260.01
273.208
286.253
299.082
311.631
323.839
335.644
346.985
357.804
368.043
377.651
386.575
394.769
402.191
408.803
414.571
419.466
221.605
235.147
248.722
262.27
275.729
289.037
302.13
314.943
327.413
339.477
351.073
362.141
372.623
382.464
391.613
400.022
407.647
414.449
420.393
425.451
222.626
236.378
250.168
263.936
277.618
291.151
304.47
317.511
330.207
342.495
354.311
365.596
376.289
386.334
395.68
404.277
412.08
419.05
425.151
430.353
223.184
237.107
251.073
265.021
278.887
292.606
306.113
319.341
332.225
344.7
356.701
368.167
379.037
389.255
398.767
407.523
415.478
422.591
428.826
434.153
223.296
237.35
251.452
265.539
279.548
293.412
307.066
320.442
333.474
346.097
358.244
369.854
380.866
391.222
400.868
409.754
417.832
425.063
431.408
436.838
222.979
237.124
251.321
265.505
279.614
293.581
307.339
320.822
333.96
346.69
358.944
370.66
381.776
392.235
401.981
410.964
419.136
426.457
432.888
438.398
222.249
236.443
250.691
264.93
279.096
293.122
306.941
320.486
333.69
346.484
358.804
370.586
381.769
392.294
402.105
411.152
419.387
426.768
433.259
438.826
221.116
235.316
249.573
263.823
278.001
292.043
305.879
319.443
332.667
345.484
357.828
369.636
380.846
391.398
401.239
410.316
418.582
425.995
432.518
438.118
219.589
233.752
247.974
262.19
276.337
290.349
304.157
317.696
330.897
343.693
356.019
367.812
379.009
389.551
399.385
408.457
416.722
424.137
430.664
436.271
217.671
231.755
245.898
260.037
274.107
288.044
301.781
315.25
328.383
341.116
353.381
365.117
376.261
386.756
396.545
405.579
413.81
421.196
427.7
433.29
215.365
229.327
243.347
257.364
271.315
285.133
298.752
312.107
325.13
337.755
349.918
361.556
372.608
383.016
392.725
401.686
409.851
417.179
423.632
429.179
212.669
226.467
240.322
254.174
267.96
281.615
295.074
308.27
321.139
333.615
345.634
357.134
368.054
378.339
387.933
396.786
404.854
412.094
418.469
423.95
209.581
223.173
236.821
250.465
264.044
277.493
290.748
303.744
316.417
328.702
340.537
351.859
362.61
372.734
382.178
390.892
398.831
405.955
412.227
417.617
206.097
219.443
232.843
246.239
259.568
272.77
285.78
298.534
310.97
323.025
334.635
345.743
356.288
366.217
375.477
384.02
391.802
398.782
404.926
410.204
202.214
215.276
228.388
241.495
254.536
267.45
280.175
292.648
304.809
316.594
327.944
338.8
349.105
358.806
367.851
376.194
383.79
390.601
396.594
401.738
197.93
210.67
223.458
236.239
248.953
261.541
273.944
286.099
297.947
309.428
320.482
331.053
341.085
350.527
359.327
367.441
374.827
381.446
387.265
392.257
)
;
    }
    coldSide
    {
        type            mixed;
        refValue        uniform 300;
        refGradient     uniform 0;
        valueFraction   uniform 0.991591;
        source          uniform 0;
        value           nonuniform List<scalar> 
400
(
300.014
300.014
300.015
300.015
300.016
300.016
300.016
300.017
300.018
300.019
300.019
300.019
300.02
300.021
300.021
300.021
300.022
300.022
300.022
300.022
300.014
300.014
300.015
300.015
300.016
300.017
300.017
300.018
300.018
300.019
300.02
300.02
300.021
300.021
300.022
300.022
300.022