/*--------------------------------*- C++ -*----------------------------------*\
| =========                 |                                                 |
| \\      /  F ield         | OpenFOAM: The Open Source CFD Toolbox           |
|  \\    /   O peration     | Version:  2212                                  |
|   \\  /    A nd           | Website:  www.openfoam.com                      |
|    \\/     M anipulation  |                                                 |
\*---------------------------------------------------------------------------*/
FoamFile
{
    version     2.0;
    format      ascii;
    arch        "LSB;label=32;scalar=64";
    class       volScalarField;
    location    "0";
    object      relativeErrorField;
}
// * * * * * * * * * * * * * * * * * * * * * * * * * * * * * * * * * * * * * //

dimensions      [0 0 0 1 0 0 0];

internalField   nonuniform List<scalar> 
3200
(
0.00979126
0.0038418
0.00493916
0.00766433
0.00706459
0.0134512
0.00715018
0.011034
0.0170772
0.0144104
0.0140113
0.00686289
0.0128057
0.0114662
0.0101814
0.00253111
0.00695168
0.00228739
0.00416972
0.00695625
0.0125352
0.0028671
0.00253948
0.00312894
0.00746636
0.00765845
0.00664152
0.00989065
0.0063647
0.01021
0.00550219
0.00670514
0.0101989
0.00125923
0.00640417
0.00688138
6.54762e-05
0.0020705
0.00538725
0.00519967
0.00727706
0.00413339
0.00368467
0.00439814
0.00374184
0.00462807
0.00903549
0.00949101
0.00533413
0.00960621
0.0117938
0.0137126
0.00829191
0.00740781
0.00887722
0.00746637
0.001926
0.000258745
0.00346067
0.0137327
0.00832277
0.00638881
0.00354924
0.000451856
0.00988439
0.00150963
0.00317703
0.00621436
0.000269963
0.0103467
0.00936472
0.00877068
0.0068303
0.00736732
0.00281044
0.00494242
0.0099
0.00181588
0.00129226
0.00479006
0.00879258
0.00476518
0.00422986
0.00580772
0.00118623
0.00735566
0.00528651
0.00203221
0.00546946
0.000760295
0.00488376
0.00316703
0.00471649
0.00224309
0.00488564
0.00459416
0.00550923
0.00183919
0.00459168
0.00189523
0.000268706
0.0017123
0.00102927
0.0024774
0.00709063
0.0036506
0.00403931
0.00769391
0.00236736
0.00558187
0.00553901
0.000374245
0.00272732
0.0014268
0.00181259
0.00600486
0.00283766
0.00589925
0.00451721
6.74072e-05
0.00305466
0.00354703
0.00195718
0.000962271
0.00729536
0.00494745
0.0065478
0.00626464
0.00109996
0.00591606
0.000266248
0.00156178
0.00923026
0.006998
0.00396062
0.00576178
0.0049393
0.00203454
0.00913417
0.00104677
0.00320264
0.00273441
0.00581423
0.00366346
0.0047551
0.00094326
0.00490475
0.00537708
0.00279892
0.000261222
0.00394106
0.00256186
0.00205114
0.00182067
0.00355582
0.00336904
0.00502759
0.00381793
0.000721073
0.000730701
0.0101507
0.00670172
0.00155925
0.00381091
0.00701243
0.00973726
0.0130047
0.0131305
0.0105847
0.00782441
0.00818072
0.00412315
0.0112116
0.00565752
0.00783289
0.00401745
0.00609532
0.00364362
0.00570497
0.0105387
0.0202612
0.00105732
0.000216764
0.00132587
0.00600108
0.000240354
0.00549065
0.00116304
0.0103403
0.00179697
0.000574234
0.00701127
0.00150961
0.014947
0.000742323
0.011596
0.000489491
0.00644319
0.000854506
0.00546829
0.00446792
0.00291716
0.000290919
0.00281893
0.00826762
0.00391994
0.01069
0.0027814
0.0130224
0.00295153
0.0068498
0.0110828
0.00351547
0.0086198
0.00674759
0.00623988
0.00567766
0.00240906
0.000273193
0.00753736
0.000853138
0.00222424
0.00354092
0.00417393
0.00109091
0.00325799
0.00766118
0.00569648
0.00393839
0.0123918
0.00171439
0.012019
0.00679331
0.00447671
0.00177066
0.00303841
0.00322297
0.00195703
0.000369923
0.00690199
0.0102084
0.000832352
0.00300589
0.000284801
0.00316219
0.00127163
0.000307364
0.000861083
0.00605978
0.00195062
0.00777384
0.00737783
0.010647
0.00787208
0.00429621
0.000309871
0.00791053
0.00388481
0.00277683
0.00704408
0.00258453
0.00720112
0.00514628
0.0015683
0.000172073
0.00447297
0.00134375
0.00594585
0.00510862
0.00419163
0.00146034
0.00365899
0.0110666
0.00529224
0.00876765
0.00525632
0.0028696
0.00895127
0.00479218
0.00474776
0.00566304
0.000554357
0.00163737
0.000827975
0.00388888
0.00394425
0.000429154
0.000791938
0.000549362
0.00400848
0.0017008
0.00352295
0.00271798
0.00251331
0.00153793
0.00368652
0.00405794
0.00238719
0.00400346
0.00251404
0.00422043
0.00436768
0.00585179
0.00185137
0.00751036
0.0073396
0.00167312
0.000701277
0.000962518
0.00155237
0.00781614
0.00541432
0.00163367
0.00260144
0.00158272
0.000377712
0.00519194
0.00272999
0.000153022
0.00765613
0.0096169
0.00397677
0.00789629
0.00250963
0.00748249
0.0114552
0.0101471
0.00931027
0.0120852
0.00277634
0.00813081
0.00899672
0.00843247
0.00696059
0.00742147
0.00716631
0.0115266
0.00348365
0.00385889
0.00322727
0.0120848
0.00499836
0.00362357
0.00110516
0.00960422
0.00461938
0.00561113
0.00887423
0.00826083
0.0097444
0.00733347
0.00444116
0.010395
0.00994668
0.00163359
0.00169214
0.00250617
0.00174237
0.00690975
0.00626302
0.0113319
0.00398846
0.00130932
9.39598e-05
0.00645935
0.00212665
0.00283474
0.00127893
0.00681909
0.00493608
0.00352018
0.00749474
0.0042229
0.00444691
0.00398766
0.00301437
0.00643308
0.00192449
0.00848679
0.00718079
0.0046461
0.013709
0.000761732
0.00382386
0.00624885
0.0074795
0.00292367
0.00447155
0.0135573
0.00738608
0.00965071
0.000642955
0.00213191
0.00377023
0.00543102
0.00166124
0.000272245
0.00534106
0.00555161
0.00292893
0.00385401
0.00233388
0.003985
0.00217023
0.00122719
0.0041255
0.00126494
0.00143389
0.000730643
0.0017514
0.0024321
0.000779843
0.00617651
0.00541182
0.00556518
0.0032778
0.00245
0.00579484
0.000741625
0.00491233
0.00381551
0.00445226
0.000881337
0.00235254
0.00357242
0.00144637
0.00215797
0.00157554
0.00391719
0.00509074
0.00665495
0.00485494
0.00357457
0.00748499
0.0022518
0.000800362
0.00684964
0.00629161
0.00274022
0.00449536
0.00300299
0.00465086
0.00226156
0.00132825
0.00261641
0.00240856
0.00262912
0.00300188
0.00343035
0.00259328
0.00123778
0.000742711
0.00657006
0.00102303
0.00131515
0.00294578
0.00287374
0.00161987
0.00176168
0.00112915
0.00182626
0.00318031
0.00152229
0.00147081
0.00670266
0.000242344
0.00497993
0.00438106
0.00302021
0.00447546
0.00139425
0.00405459
0.00872218
0.00273239
0.00218817
0.00238928
0.00110957
0.000233597
0.00225412
0.000363107
0.0111162
0.00072054
0.0021001
0.00711746
0.00728303
0.00824973
0.00114245
0.00600612
0.00972544
0.00625448
0.00570254
0.00665305
0.00562345
0.00201967
0.0117596
0.000771715
0.00172887
0.00112136
0.00299139
0.00511387
0.00951392
0.00032194
7.29728e-05
0.000108497
0.00336464
0.00180265
0.00612937
0.000211592
0.00450494
0.00070384
0.00127525
0.00523528
0.00186837
0.0058652
6.2132e-05
0.00217607
0.00106398
0.000838286
0.000607925
0.00136359
0.00876374
0.00507085
0.000460785
0.00119472
0.00860866
0.00262729
0.00801489
0.00711351
0.00739751
0.00265565
0.00262605
0.00558932
0.00459895
0.00133574
0.00708191
0.00334015
0.00380573
0.00400379
0.00201174
0.00661551
7.53225e-07
0.00464957
8.22811e-05
0.000691059
0.00633864
0.00578491
0.00858378
0.00529103
0.00221031
0.00570915
0.00330017
0.00457018
0.00631148
0.000103444
0.00180636
0.00223864
0.00319296
0.000647589
0.00734072
0.00215586
0.000943153
0.00253873
0.00253598
0.00159861
0.00554832
0.00685201
0.00142942
0.00798967
0.000698233
0.00324771
0.00322056
0.0016842
0.00213807
1.83812e-05
0.000324773
0.000258165
0.000513876
0.00312222
0.00425093
0.00209101
0.00064476
0.00165063
0.000737378
0.00450024
0.00547132
0.00127648
0.00327056
0.00930603
0.000820658
0.00346567
0.00766009
0.0043981
0.00724719
0.00553005
0.0020543
0.00175956
0.00119981
0.00915426
0.00407245
0.00178311
0.00386285
0.00168925
0.00334005
0.00618828
0.00451628
0.00236895
0.00131791
0.00388835
0.00652572
0.000456435
0.00740884
0.0049348
0.00410175
0.00380328
0.000301088
0.00291023
0.0037088
0.00452909
0.000314604
0.0104209
0.00636664
0.00291272
0.000370836
0.00020449
0.00299455
0.00284652
0.000278932
0.00381005
0.00378727
0.000192756
0.00223033
0.000924594
0.00276515
0.00159495
0.00365772
0.00736821
0.0020847
0.00239822
0.000833637
0.00261315
0.011565
0.00182869
0.00648921
0.00137535
0.0073142
0.00719699
0.00681197
0.00903018
0.00852569
0.00307337
0.00188048
0.00218366
0.00409083
0.00101589
0.000880464
0.00121993
0.00236735
0.00285199
0.000125354
0.00763421
0.012724
0.00513536
6.99051e-05
0.00855979
0.000128531
0.00814034
0.00366576
0.00377206
0.00571422
0.00235254
0.0025833
0.00394748
0.000550126
0.000106111
0.00464265
0.00305628
0.00585405
0.00301337
0.00235153
0.00762017
0.00225943
0.00134769
0.00180528
0.00185753
0.000332476
0.00606653
0.000975972
0.0032658
0.00339216
0.00287646
0.00285368
0.00267801
0.00331719
0.00797953
0.00288245
0.00304072
0.00173938
0.000964074
0.0054283
0.00374068
0.00806496
0.000782208
0.00292456
0.00527822
6.33286e-05
0.000715314
0.00725604
0.00298684
0.00158135
0.000736264
0.00164343
0.000515433
0.00261284
0.00354268
0.0051607
0.00368522
0.00237271
0.000160591
0.0033325
0.00776367
0.0013307
0.00267216
1.13029e-06
0.00152716
0.00214718
0.00544522
0.00364105
0.00216725
0.000767271
0.00289172
0.00614529
0.0043347
0.00206864
0.00400715
0.00298458
0.00068999
0.000325248
0.00455038
0.00383639
0.000908294
0.00309037
0.00119112
0.00348591
0.00194997
0.00136937
0.000346551
3.32081e-05
0.00523849
0.00535646
0.0049491
0.00107607
0.000308663
0.00326401
0.00243797
4.84599e-05
0.00332694
0.000945101
0.00198204
0.00279813
0.00107677
0.00556338
0.00394464
0.0052922
0.000955122
0.000385815
0.00316069
0.00246932
0.000705513
0.00338143
0.00110159
0.00471797
0.00396067
0.00128671
0.00083695
0.0010962
0.000833355
0.000378468
0.00617454
0.000935256
0.00437845
0.00112571
0.00357234
0.00188961
0.00406128
0.00611205
0.00396749
0.00153093
0.00093465
0.000557288
0.00226001
0.00865407
0.00203711
0.00122112
0.00352194
0.00311573
0.00497703
0.00544024
0.00326323
0.00462133
0.00337671
0.00445922
0.00882321
0.0072387
0.0060938
0.00394945
0.00325388
0.00215413
0.000717331
0.00211274
0.00282159
0.000344005
0.00217944
0.00643296
0.0033305
0.000737792
0.00292416
0.00292311
0.00797132
0.00637624
0.0113378
0.0110563
0.000923886
0.00325528
0.000689763
0.00131039
0.000953021
0.00103976
0.00058895
0.00166761
0.00105316
0.00023788
0.000247532
0.000176601
0.00881482
0.000666205
0.00827967
2.88515e-05
0.00100284
0.00167384
0.00541508
0.00708369
0.00100342
0.00075927
0.000808435
0.00181339
0.00706103
0.00163556
8.38319e-06
0.00611692
0.00213566
0.00398294
0.0012991
0.00365344
0.00503705
0.000876126
0.00264971
0.0029788
0.00123183
0.00693827
0.00927117
0.00663017
0.00166111
0.001434
0.00233831
0.00540481
4.08706e-05
0.00204916
0.000184509
0.00341866
0.00385246
0.000558942
0.00909786
0.00593012
0.00300191
0.00516917
0.00842182
0.00156588
0.00257597
0.000336699
0.00277912
0.00852147
0.0013055
0.00412215
0.00114527
0.00184622
0.000573263
0.000578026
0.00148721
0.00180815
0.0130833
0.0023088
0.00366829
0.00404447
0.001391
0.0103924
0.00236748
0.000254609
0.0031145
0.00331684
0.00619762
0.0070033
0.00357357
0.00242096
0.00105404
0.00226516
0.000686169
0.00134341
0.00190866
0.000320735
0.00211586
0.000186681
4.37832e-05
0.00499947
0.00326383
0.00240284
0.0043761
0.00156322
0.00338466
0.00763957
0.00315432
0.003474
0.00266939
0.00719765
0.00369371
0.00747458
0.00400445
0.00222142
0.0105528
0.00303778
0.00164421
0.00216267
0.0076729
0.0034311
0.00162465
0.00569683
0.00336015
0.0014913
0.00591453
0.00115952
0.00603853
0.00176017
0.000537847
0.0023603
0.000130482
0.00647361
0.000408174
0.00204073
0.00424875
0.00365439
0.00177834
0.0034415
0.00393255
0.00700197
0.00314847
0.00349367
0.00110103
0.00336663
0.00571294
0.00723362
0.000151497
0.0161263
0.00718595
0.000896604
0.00130232
0.00422383
0.000631051
0.00693316
0.00213542
0.0033895
0.0042335
0.00174687
0.00504224
0.000780932
0.00510949
0.00386077
0.000263448
0.000764193
0.00315412
0.00492226
0.00871346
0.0108676
0.00417661
0.00141272
0.00157311
0.00486659
0.00273095
0.00603409
0.00330179
0.00686305
0.00125044
0.00382193
0.00875519
0.00313747
0.0055511
0.00278672
0.0012605
0.00628144
0.0025668
0.00264936
0.00875953
0.00939693
0.00494039
0.00333227
0.0019467
0.00201771
0.00162468
0.00336838
0.00341664
0.00201077
0.00533475
0.000902148
0.00158298
0.00317166
0.00188528
0.000381945
0.000321114
3.50399e-05
0.00190501
0.00405809
0.00214665
0.00798476
0.00190668
0.00284912
8.88593e-05
0.00079644
0.00407717
0.000211452
0.00383011
0.00289412
0.00112886
0.00386739
0.0017856
0.000399358
0.00294237
0.00340216
0.00531905
0.000280161
0.00346068
0.00376911
0.00792696
0.00801324
0.00240735
0.00708258
0.00659864
0.00182095
0.000453576
4.36322e-05
0.00168879
0.0068394
0.00248417
0.00380755
0.00202613
0.000963312
0.00170728
0.00608141
0.00238095
6.28734e-05
0.00162662
7.42077e-05
0.00199275
0.00484847
0.00569812
8.65072e-05
0.0020449
0.00123017
0.00677792
0.00140692
0.00183105
0.00186496
0.000625332
0.00185752
0.000981028
0.00264401
0.0017234
0.00295406
0.00299362
0.0038762
0.00144208
0.000753679
5.72286e-05
0.000250053
0.000639025
6.30356e-05
0.00155927
0.00715089
0.00264201
0.00223113
0.000589432
0.000608188
0.00358772
0.00111067
0.000819965
0.00589164
0.00895128
0.00389162
0.000203186
0.000430044
0.000128938
0.00237467
0.00134711
0.00182358
0.00220955
0.00402084
0.00372451
4.57336e-05
0.00156244
0.0028001
0.00135869
0.00162534
0.0045292
0.00271636
0.00247745
0.0036235
0.00663603
0.00036884
0.000967529
0.0034989
0.00324615
0.00260433
0.000741757
0.0138225
0.00109453
0.00183348
0.00206994
0.00470734
0.000109859
0.00173411
0.00161675
0.000272734
0.00188277
0.000654747
0.00460122
0.00409577
0.00883341
0.00441335
0.00780038
0.00299271
0.0118422
0.000693568
0.0145967
0.00802953
0.000121805
0.00482892
0.00125317
0.00321245
0.00135582
0.00595145
0.000165464
0.00442406
0.00131468
0.00135622
0.00715515
0.000846809
0.00176298
0.00129915
0.00623836
0.00234896
0.000300145
0.00042672
0.00531041
0.0127299
0.00204548
0.00798129
0.00200548
0.00327378
0.00253792
0.0029779
0.000329867
0.00428907
0.0021478
0.00669491
0.00170039
0.00315339
0.00433802
0.00124579
0.00118054
0.00469477
0.000769645
0.00918076
0.0104788
0.0116795
0.00608289
0.0056352
0.0025178
0.00453047
0.00340979
0.0014739
0.00268971
0.00126403
0.00210735
1.23236e-05
0.00183208
0.00696319
0.00426483
0.00282599
0.00133935
0.00155343
0.00405861
0.00377405
0.00890727
0.00897343
0.00148651
0.00418555
0.000800079
0.00279378
0.00131657
0.00700677
0.00293709
0.00380618
7.81085e-05
0.00926051
0.00176469
0.00037248
0.00399528
0.00182885
0.00527896
0.00352045
0.00611363
0.00306372
0.00680819
0.00254987
0.00577774
0.00620257
0.00103638
0.000408063
0.00256611
0.00242315
0.000709892
0.00275705
0.000415561
0.00327071
0.00144108
0.00193888
0.00219074
0.00641118
0.000983343
0.00426161
0.00146451
0.00363664
0.00262224
0.00117618
0.00739941
0.00147041
0.00190152
0.00232583
0.00474254
0.00231506
0.00550862
0.00277403
0.0053442
3.64684e-05
0.00404892
0.00643802
0.00729057
0.00396951
0.00158191
0.000883412
0.00546529
0.00719776
0.00681456
0.00147762
0.00953126
0.00243452
0.00182792
0.00293583
6.28938e-05
0.00385267
0.00211914
0.00302859
0.00164878
0.0022553
0.00246933
0.00366037
0.000151553
0.00240569
0.00207128
0.00258954
0.00352925
0.00070825
0.00274204
0.00755221
0.0033917
0.00568397
0.000401739
0.0040332
0.00356078
0.00330109
0.00137184
0.00108636
0.00652564
0.00854611
0.0088068
0.00532819
0.00669959
0.00116597
0.00176487
0.00223467
0.00116908
0.00819542
0.00568465
0.0109692
0.00742281
0.00401686
0.0059334
0.000998848
0.00221471
0.00527636
0.00500529
0.0103991
0.00650839
0.0037579
0.00699668
0.00890507
0.00611543
0.00769324
0.000487263
0.00457467
0.00782958
0.0104677
0.00991743
0.00623206
0.00947693
0.000284367
0.00821132
0.00171548
0.000261599
0.00585548
0.000663107
0.00180329
0.00837789
0.00520629
0.00353195
0.00528225
0.00706503
0.000923601
0.00456637
0.00417235
0.00290426
0.00663007
0.011175
0.0120253
0.00205359
0.00119138
0.00149551
0.00199496
0.000560601
0.0011213
0.00446411
0.00300335
0.00428319
0.00924047
0.00137291
0.00401333
0.00969457
0.000559087
0.00124215
0.00287153
0.00321373
0.00434713
0.00935101
0.00598038
0.00266656
0.00113785
7.19903e-05
0.00691018
0.00198735
0.00467074
0.00564073
0.00506112
0.00219201
0.00837175
0.00258138
0.00134962
0.00187575
0.00214422
6.63726e-05
0.00451677
0.00101478
0.00424961
0.0017405
0.00562191
0.00427945
0.00334982
0.00245913
0.0039188
0.00103313
0.0045079
0.000377896
0.00754634
0.00111069
0.00632407
0.000563893
0.00421364
0.00141894
0.00273894
0.00202494
0.00150153
0.000593141
0.00208064
0.000669976
0.00435583
0.00198644
0.00611804
0.0043166
0.00205122
0.00100774
0.000517016
0.00516012
0.000661669
0.00419352
0.000538857
0.0024198
0.00344694
0.00332656
0.00357097
0.00282106
0.000866221
0.00591614
0.00238072
0.00425721
0.00297071
0.00155511
0.00206598
1.57923e-05
0.00675997
0.00229566
0.000794062
0.000230163
0.00146073
0.000536287
0.00206469
0.00739912
0.00361834
0.00888877
0.00141601
0.00108691
0.000102081
0.000368426
0.00395038
0.00485228
0.00728557
0.00485958
0.00155186
0.00327832
0.000230682
0.000952377
0.00162001
0.00396885
0.00737032
0.0023224
0.00801289
0.00801171
0.0114514
0.0031073
0.00940512
0.00316477
0.00743433
0.00750732
0.00741036
0.00761218
0.00903881
0.000260557
0.00895982
0.000892477
0.000752905
0.000897979
0.00890923
0.00122799
0.00608589
0.00115974
0.000782571
0.00711341
0.000867883
0.00322277
0.000704797
0.000773827
0.0011039
0.00128135
0.00136401
0.00598775
0.0045396
0.00902738
0.00398532
0.00431221
0.00228528
0.00246258
0.00232652
0.00242627
0.00561689
0.00998175
0.00521496
0.0025914
0.00532178
0.00517179
0.00470773
0.0005639
0.00118966
0.00412717
0.01041
0.00933597
0.00642713
0.00886323
0.00219485
0.000489508
0.00479066
0.00231282
0.00286778
0.00284898
0.00590568
0.000391631
0.0104161
0.00402586
0.00954648
0.00513101
0.00937716
0.00369978
0.00111567
0.0010869
0.00491238
0.00906008
0.014787
0.00288434
0.00926211
0.000293131
0.00105489
0.00452044
0.000940997
0.00750876
0.00718401
0.00572751
0.00193535
0.00532831
0.0072911
0.00046168
0.00585778
0.00579233
0.000243626
0.00160588
0.0080434
0.00885109
0.00450181
0.000465908
0.00528815
0.00326534
0.0026117
0.00458153
0.00361103
0.0106127
0.00403253
0.00356039
0.00175057
0.00235868
0.00832443
0.000332413
0.000617129
0.00188654
0.00195089
0.00428104
0.00173464
0.0053005
0.000553064
0.00234993
0.000157944
0.00415603
0.00509927
0.000483717
0.000433392
0.002282
3.63682e-05
0.000527971
0.00359895
0.0015163
0.00216086
0.00595679
0.00219514
0.00319291
0.00248286
0.00277803
0.00139212
0.000759454
0.00366922
0.000945249
0.00178173
0.006603
0.001789
0.00554054
0.00767536
0.000969271
0.0036712
0.00205349
3.85351e-05
0.00532008
0.00287292
0.00473926
0.00168156
0.00276615
0.00350537
0.00578033
0.00119788
0.00155634
0.0118182
0.00473265
0.000664477
0.00283584
0.00611894
0.00266646
0.00790595
0.00590533
0.00693656
0.0139119
0.0109951
0.00830334
0.0109225
0.00761823
0.00959188
0.00172496
0.00680283
0.00533423
0.00867179
0.0191387
0.0151509
0.00138836
0.00361377
0.000221016
0.00463986
0.000548355
0.00411409
0.00060775
0.00761426
0.000426524
0.000147776
0.00496565
0.000919611
0.00899895
0.000269049
0.00351963
0.000121121
0.00481153
0.000883982
0.0107049
0.0103365
0.00924555
0.00757853
0.00295705
0.00384417
0.000263067
0.0022742
0.00225324
0.00841792
0.00121466
0.00505976
0.0100831
0.00632789
0.00491777
0.00725458
0.000149842
0.00431787
0.00622388
0.0103972
0.00789132
0.002807
0.00234668
0.00484888
0.00463644
0.00568307
0.000622746
0.00118754
0.00449387
0.00657966
0.00140358
0.00660988
0.00552844
0.00262839
0.00306037
0.00327619
0.000272061
9.26568e-05
0.00158621
0.0025842
0.0101727
0.00578014
0.00105554
0.00324165
0.00555707
0.0062133
0.000909785
0.00448595
0.00299241
0.00519449
0.000171552
0.00631778
0.00588686
0.00621482
0.00593352
0.000305074
0.000169672
0.00213362
0.00221664
0.00498694
0.00288739
0.00200183
0.0022457
0.00878417
0.00336802
0.00138571
0.000849932
0.00318674
0.000441073
0.0056617
0.000362503
0.00177624
0.00102243
0.0100383
0.00894161
0.00244528
0.00037085
0.00202561
0.00401608
0.0066978
0.00411221
0.00237697
0.0061137
0.00747334
0.00422297
0.00326175
0.00493468
0.000377044
0.000576567
0.00265247
0.000649842
0.00120325
0.00325461
0.00359872
0.000796005
0.000701074
4.46539e-05
0.00594701
0.00175504
0.00357811
0.00412665
0.00412619
0.00105035
0.000137921
0.00054303
0.00585735
0.00227631
0.00437745
0.00179161
1.36568e-05
0.00418198
0.0028698
0.00213396
0.00684532
0.000632513
0.00237657
0.00282228
0.00263461
0.002179
0.00339652
0.00122801
0.00879109
0.0128976
0.00213081
0.00513872
0.000331178
0.00448656
0.000200507
0.000662494
0.0100352
0.00524162
0.00771424
0.00132985
0.00577741
0.00672
0.0100108
0.0022899
0.0039904
0.00533351
0.0050256
0.00941999
0.00961176
0.00852234
0.00276175
0.00172351
0.00244707
0.000371881
0.00343037
0.00109908
0.00457755
0.0118608
0.00709377
0.0102865
0.00971624
0.00148909
0.00425316
0.000634973
0.000748208
0.00371658
0.00813131
0.00974918
0.010205
0.0122109
0.00410498
0.00461368
0.000124206
0.00137317
0.00161844
0.00888811
0.00203153
0.00481735
7.03905e-05
0.00144738
0.0102574
0.00224599
0.00193163
0.00789962
0.00616579
0.00839074
0.00538484
0.0054578
0.0084873
0.00764911
0.000770859
0.000274285
0.0053128
0.00462315
0.00477954
0.00401986
0.0064572
0.00680972
0.0108249
0.00505128
0.00129806
0.000474831
0.00154071
0.0136428
0.00312212
0.00104125
0.00683868
0.00354817
0.000382408
0.000106553
0.00303165
0.000662472
0.000627332
0.00309947
0.000997138
0.000718721
0.00645896
0.00177939
0.000156303
0.00351317
0.00497897
0.00236341
0.00602359
0.00588608
0.00136012
0.000944028
0.0085196
0.00170451
0.00354727
0.00135678
0.0031051
0.00691246
0.000857059
9.62927e-05
4.71391e-06
0.00218373
0.00308179
0.00238383
0.00211684
0.00160669
0.00230515
0.00623649
0.0059652
0.000650867
0.00399642
0.00219522
0.00063632
0.00283955
0.00118608
0.00379636
0.000342975
0.00329205
0.00348277
0.000612369
0.0051641
0.00206453
0.0010222
0.000848403
0.00199299
0.000347285
0.000384493
0.00221165
0.00160318
0.000694594
0.00226074
0.00128906
0.00123704
0.00173142
0.00316656
0.00579074
0.000309243
0.000883208
0.00123947
0.0086286
0.00195537
0.00803406
0.00180871
0.00161387
0.00177309
0.00119846
0.000715311
0.000722669
0.00300416
0.00118589
0.00146513
0.000422135
0.000581499
0.00526334
0.011036
0.00703482
0.00523524
0.00592221
0.000229231
0.00480864
0.00267989
0.00400867
0.00353537
0.00210633
0.010951
0.00115729
0.00487099
0.0115459
0.00310057
0.00315446
0.00516156
0.00727336
0.00668097
0.00921788
0.0113306
4.10565e-05
0.00752888
5.88032e-05
0.00546187
0.000581751
0.000145976
0.00131059
0.00758266
0.000132601
0.000403083
0.00620177
0.000214098
0.0126156
0.00141197
0.00496615
6.99236e-05
0.00734282
0.001814
0.0143663
0.00818407
0.00707367
0.00448274
0.00059133
0.00250119
0.00480118
0.00235303
0.00267193
0.0027764
0.00464171
0.00654177
0.00230111
0.000771218
0.00625169
0.00276526
0.00732374
0.00229832
5.23362e-05
0.00225058
0.0113572
0.00770879
0.000784364
0.00358333
0.00593013
0.00342721
0.00694454
0.00237625
0.00426245
0.0070297
0.00214607
0.00382802
0.00563919
0.00435604
0.00220566
0.000838874
0.00135813
0.00249053
0.00328316
0.00559939
0.00203279
0.00273033
0.00543789
0.00156181
0.000292545
0.00141539
0.00548022
1.72083e-05
0.00134349
0.00791896
0.00248372
0.00950177
0.00280198
0.00374685
0.00133878
0.000287209
0.00557194
0.00180847
0.00199988
0.00716491
0.00147622
0.0021503
0.00580237
0.00128907
0.00110401
0.00310643
0.00641669
0.00440566
0.00064041
0.000169224
0.00707381
0.0077873
0.00221536
0.00810081
0.00276433
0.0025245
0.00487243
0.00203501
0.00540262
0.0038422
0.00979175
0.0049421
0.00280677
0.00031809
3.78738e-05
0.0033159
0.00109035
0.00117197
0.000435339
0.00592762
0.00169204
0.000983132
0.004948
0.0011823
0.00628984
0.00604035
0.000664122
0.00120799
0.000251203
0.0002395
0.00502422
0.000626552
0.000947574
0.00208324
0.00212283
0.00866172
0.00224236
0.00562575
0.00277496
0.000293269
0.00440736
0.00051004
0.00759026
0.00436528
0.00159365
0.00353407
0.00393989
0.00326952
0.00275037
0.0036832
0.00435192
0.00885084
0.00772558
0.00237958
0.00153194
0.00267143
0.000604086
0.000829424
0.000152097
0.000122478
0.00502397
0.00764016
0.00586318
0.00195937
0.000445316
0.000840807
0.00965955
5.01464e-05
0.00329666
0.00612958
0.00758967
0.00868329
0.00678735
0.00545913
0.00297434
0.00597574
0.000589609
0.00151616
0.00353849
0.00594495
0.00363514
0.000590315
0.00608421
0.00124931
0.00209696
0.00777809
0.00200419
0.00236192
0.0037787
0.00497191
0.00930179
0.00747938
0.00449693
0.00345891
0.000880767
0.00136955
0.00441724
0.00155943
0.00116315
0.00210186
0.00517041
0.00470782
0.008399
0.00359166
0.000673947
0.00268365
0.00239824
0.00336288
0.00606912
0.00524576
0.00363978
0.00952044
0.00277298
0.00208295
0.00125863
0.0043383
0.00276231
0.00114197
0.00296255
0.00064227
0.00107955
0.00294726
0.0022217
0.00474473
0.00192412
0.00440945
0.000409908
0.00547183
0.00154072
0.00288899
0.00781901
0.00746833
0.00535075
0.000486788
0.00492786
0.00383291
0.00376179
0.00373707
0.00220669
1.97399e-05
0.00382008
0.00363177
0.00522899
0.00429637
0.00265116
0.00523772
0.00205643
0.00225284
0.00454331
0.0043696
0.00415634
0.00283677
0.000469078
0.000760438
0.00402414
0.00644408
0.00287127
0.00360804
0.00152505
0.00143642
0.00508257
0.000518549
0.00660687
0.000285296
0.000275042
0.00161601
0.000798269
0.00766985
0.00223217
0.00307564
0.00292091
0.000777297
0.00547889
0.000961308
0.00447668
0.00486655
0.00318442
0.00182578
0.000761483
0.0038691
0.000899961
0.00796839
0.00612245
0.000630197
0.000949582
0.00278028
0.00412155
0.00203009
0.00413345
0.00139996
0.000523258
0.00291471
0.000809035
0.00365873
0.0040369
0.000164198
0.00367711
0.00295421
0.0040795
0.000328659
0.00120924
0.00323551
0.00360626
0.000230219
0.00775723
0.00126062
0.00390393
0.00408297
0.00721771
0.00391323
0.00439187
0.00445718
0.00168241
0.00180763
0.00692134
0.0017942
7.73751e-05
0.00314268
0.00180277
0.00148608
0.000570341
0.00728684
0.00238831
0.0106507
0.00239539
0.000275257
0.00221506
0.00117082
0.00438918
0.00107692
0.0089221
0.00693437
0.00226534
0.00145949
0.00227402
0.00306071
0.00095348
0.00126691
0.00111204
0.00738934
0.00137129
0.000459966
0.00134637
0.00123096
0.000748495
0.00103585
0.00281609
0.000384541
0.00567581
0.00122915
0.008534
0.00356387
0.0105347
0.00139973
0.00200858
0.00123822
0.000858113
0.000546372
0.000135411
0.00192473
0.000799513
0.00789804
0.00100228
0.00609385
0.00120224
0.00180822
0.00137992
0.00357594
0.00180353
0.00879614
0.00196943
0.00893321
0.00575098
0.00838053
0.00576301
0.00339373
0.00314142
0.00146589
0.00120625
0.00108879
0.00276727
3.44604e-06
0.00143918
0.00129105
0.000838405
0.0051956
0.00695907
0.00288258
0.00377003
0.00093646
0.00628672
0.00602079
0.0114294
0.00535673
0.00615597
0.00117941
0.00196951
0.00263345
0.00459121
0.000512319
0.00483428
0.00264857
0.00126502
0.00480868
0.00165744
0.00250069
0.000576069
0.00296225
0.00369484
0.000616805
0.00454231
0.000697912
0.00995039
0.000256339
0.0046795
0.00478208
0.00423952
0.00193023
0.00087611
0.000999709
0.000391768
0.00473514
0.000783575
0.00389388
0.00120204
0.00317449
0.00238573
0.00438874
0.00371458
0.00693303
0.00123387
9.52658e-05
0.00170185
0.00150644
0.0074749
0.00207202
0.00164128
0.000407576
0.00520921
0.00113114
0.00228153
0.00205186
0.00205724
0.000451442
0.0049855
0.00131971
6.57231e-05
0.00257283
0.000188017
0.00115348
0.00546651
0.00419134
0.000743426
0.000286612
0.000691935
0.00343171
0.00436352
0.00212464
0.00561534
0.00271087
0.00294051
0.0028593
0.0101741
0.00017218
6.25164e-06
0.00179825
0.00492463
7.47759e-05
0.00412408
0.00420714
0.000528225
0.00454744
0.00466163
0.00101332
0.00351534
0.00561653
0.00182551
0.00328566
0.00264614
0.00140131
0.00382959
0.00232269
0.00145787
0.0065511
0.00143322
0.000367357
0.005051
0.00286812
0.00489233
0.00553637
0.0030391
0.00176035
0.00394498
0.00139146
0.00109643
0.00498296
0.0024498
0.00115297
0.00383385
0.00037141
0.00518635
0.00270338
0.00430101
0.00196662
0.00157877
0.000591267
0.000591148
0.00509739
2.16469e-05
0.00348034
0.00180015
0.00441591
0.000793049
0.00564815
0.00170266
0.00079161
0.00584282
0.00365027
0.00507109
0.00175311
0.000247347
0.0033131
0.00352431
0.00123789
0.0033529
0.0075676
0.00429784
0.000132307
0.000724483
0.00137524
0.00205559
0.00349233
0.0038039
0.00149592
0.00332108
0.00360514
0.00254854
0.0028687
0.00125459
0.00117492
0.00268494
0.00383058
0.00150509
0.00495864
0.00227539
0.000484386
0.00350622
0.00276109
0.0029187
0.00307602
0.00416827
0.00229429
0.000294622
0.0034007
0.00346144
0.004202
0.00128333
0.00143216
0.00126906
0.000633581
0.0002667
0.00373356
0.00262896
0.00216199
0.00255241
0.00444673
0.000973093
0.00403027
0.00409853
0.00225581
0.00321258
0.00469546
0.000472927
0.00259832
0.00150782
0.00207128
0.00979735
0.00374072
0.00571655
0.000942508
0.00632992
0.00483833
0.00391332
0.000199204
0.0037108
0.00269414
0.000578179
0.00229143
0.0038693
0.0028634
0.00372792
0.00734123
0.00364384
0.000439593
0.000389891
0.00240739
0.00263039
0.00253745
0.00142004
0.00421402
2.43129e-05
0.00564148
0.00129854
0.000371135
0.00430692
0.00441262
0.00248188
0.000438834
0.00158326
0.00379323
0.00150402
0.00240368
0.00231698
0.000832189
0.00384593
0.00273377
0.00556269
0.00329007
0.00661363
0.00207466
0.00105228
0.000966989
0.000441178
0.000521873
0.00380216
0.00395039
0.00543492
0.00268095
0.000144461
0.00306942
0.000879821
0.000833552
0.00306992
0.00147513
0.00647082
0.00268571
0.00589311
0.00566849
0.0125114
0.00107893
0.00585869
0.00195469
0.00318105
0.00402106
6.30539e-05
0.0060195
0.00326484
0.00142153
0.00608279
0.00159163
0.00177924
0.000286251
0.00130881
0.00233366
0.000320688
0.00523833
0.000539019
0.000356666
0.0010721
0.000448021
3.53589e-05
0.000477029
0.00363304
0.000625471
0.00569266
0.000988186
0.00491894
0.00132538
0.00306581
0.000724423
0.00263579
0.00233573
0.00697696
0.00154455
0.000816785
0.00368384
0.000517032
0.00158533
0.0026103
0.00371382
0.000761682
0.00392771
0.00054708
0.00199801
0.00691635
0.00526992
0.00406998
0.00705101
0.00436753
0.0030079
0.0038924
0.00225055
0.00337367
0.00468874
0.000336528
0.00267631
0.000430072
0.00192516
0.00247448
0.00205396
0.00145244
0.00217411
0.00397142
0.000265299
3.00024e-05
0.00261148