/*--------------------------------*- C++ -*----------------------------------*\
| =========                 |                                                 |
| \\      /  F ield         | OpenFOAM: The Open Source CFD Toolbox           |
|  \\    /   O peration     | Version:  2212                                  |
|   \\  /    A nd           | Website:  www.openfoam.com                      |
|    \\/     M anipulation  |                                                 |
\*---------------------------------------------------------------------------*/
FoamFile
{
    version     2.0;
    format      ascii;
    arch        "LSB;label=32;scalar=64";
    class       volScalarField;
    location    "0";
    object      T;
}
// * * * * * * * * * * * * * * * * * * * * * * * * * * * * * * * * * * * * * //

dimensions      [0 0 0 1 0 0 0];

internalField   nonuniform List<scalar> 
3200
(
327.811
327.098
326.563
326.465
326.774
327.357
327.811
328.439
328.773
329.188
329.37
329.181
328.98
328.559
328.019
327.496
327.097
327.106
327.465
328.211
323.998
323.414
322.958
322.868
323.168
323.661
324.075
324.63
324.925
325.27
325.463
325.293
325.088
324.732
324.26
323.82
323.443
323.479
323.77
324.39
320.254
319.778
319.361
319.326
319.597
319.985
320.353
320.838
321.087
321.397
321.576
321.403
321.211
320.911
320.505
320.151
319.8
319.87
320.112
320.607
316.543
316.157
315.797
315.798
316.045
316.324
316.66
317.055
317.24
317.53
317.688
317.5
317.345
317.083
316.769
316.486
316.154
316.257
316.45
316.84
312.857
312.557
312.274
312.289
312.492
312.675
312.954
313.275
313.382
313.633
313.767
313.63
313.489
313.265
313.06
312.812
312.532
312.652
312.792
313.086
309.175
308.963
308.774
308.78
308.925
309.047
309.249
309.499
309.561
309.723
309.842
309.768
309.64
309.456
309.36
309.171
308.92
309.057
309.125
309.353
305.511
305.368
305.272
305.287
305.386
305.434
305.548
305.698
305.743
305.846
305.925
305.887
305.784
305.666
305.629
305.513
305.342
305.445
305.464
305.615
301.84
301.803
301.773
301.776
301.811
301.819
301.86
301.908
301.929
301.963
301.981
301.974
301.93
301.898
301.886
301.853
301.782
301.828
301.826
301.881
327.892
327.195
326.699
326.715
326.993
327.59
328.126
328.884
329.215
329.57
329.837
329.635
329.357
328.811
328.277
327.855
327.421
327.304
327.599
328.233
324.08
323.524
323.059
323.095
323.327
323.863
324.341
324.994
325.273
325.573
325.833
325.666
325.423
324.966
324.5
324.132
323.755
323.652
323.892
324.411
320.315
319.863
319.442
319.507
319.696
320.141
320.591
321.146
321.366
321.607
321.857
321.69
321.498
321.127
320.735
320.414
320.086
320.021
320.202
320.623
316.572
316.23
315.849
315.91
316.085
316.439
316.837
317.291
317.467
317.675
317.895
317.736
317.573
317.284
316.974
316.703
316.415
316.382
316.523
316.848
312.832
312.598
312.297
312.357
312.493
312.755
313.067
313.471
313.582
313.757
313.918
313.804
313.668
313.432
313.202
312.979
312.747
312.723
312.864
313.085
309.14
308.993
308.782
308.811
308.919
309.088
309.322
309.63
309.685
309.838
309.942
309.877
309.775
309.608
309.435
309.26
309.104
309.09
309.194
309.35
305.474
305.412
305.273
305.276
305.365
305.455
305.564
305.792
305.813
305.921
305.978
305.947
305.859
305.764
305.69
305.558
305.458
305.466
305.535
305.617
301.83
301.807
301.767
301.775
301.803
301.826
301.859
301.941
301.955
301.989
302.005
301.993
301.966
301.928
301.907
301.861
301.842
301.836
301.863
301.882
328.143
327.409
327.124
327.143
327.329
327.985
328.579
329.357
329.775
330.194
330.338
330.127
329.883
329.35
328.736
328.199
327.827
327.601
327.98
328.531
324.299
323.702
323.413
323.485
323.667
324.221
324.735
325.423
325.768
326.145
326.255
326.078
325.891
325.417
324.895
324.424
324.111
323.883
324.216
324.675
320.509
320.014
319.769
319.856
320.006
320.479
320.913
321.504
321.798
322.1
322.208
322.067
321.926
321.511
321.052
320.664
320.386
320.215
320.485
320.836
316.761
316.341
316.14
316.232
316.349
316.733
317.097
317.576
317.83
318.046
318.176
318.06
317.944
317.619
317.223
316.904
316.659
316.531
316.736
317.005
313.012
312.683
312.546
312.616
312.718
312.986
313.266
313.651
313.868
314.036
314.162
314.067
313.956
313.707
313.398
313.166
312.95
312.865
313.022
313.22
309.268
309.047
308.948
308.99
309.095
309.272
309.45
309.742
309.908
310.033
310.122
310.047
309.973
309.802
309.564
309.412
309.241
309.187
309.31
309.436
305.535
305.431
305.378
305.388
305.458
305.568
305.657
305.834
305.941
306.041
306.079
306.025
305.963
305.888
305.732
305.654
305.546
305.532
305.603
305.666
301.862
301.82
301.808
301.798
301.827
301.864
301.897
301.947
301.982
302.035
302.03
302.023
301.995
301.972
301.925
301.891
301.872
301.851
301.887
301.903
328.552
327.918
327.574
327.595
327.927
328.577
329.183
330.023
330.474
330.946
331.016
330.926
330.63
330.077
329.396
328.701
328.272
328.134
328.323
329.063
324.643
324.106
323.837
323.891
324.146
324.717
325.26
325.987
326.382
326.791
326.852
326.783
326.537
326.04
325.428
324.867
324.495
324.361
324.516
325.149
320.793
320.337
320.127
320.2
320.402
320.884
321.354
321.976
322.327
322.659
322.733
322.659
322.46
322.028
321.5
321.043
320.736
320.624
320.735
321.248
316.974
316.616
316.46
316.522
316.695
317.054
317.454
317.984
318.264
318.533
318.621
318.535
318.399
318.033
317.592
317.241
316.979
316.874
316.958
317.358
313.183
312.913
312.812
312.852
312.977
313.245
313.566
313.984
314.208
314.405
314.503
314.399
314.312
314.018
313.69
313.437
313.218
313.126
313.169
313.487
309.391
309.231
309.16
309.178
309.273
309.461
309.705
309.964
310.136
310.286
310.38
310.286
310.216
310.004
309.787
309.608
309.446
309.366
309.398
309.631
305.624
305.535
305.515
305.521
305.582
305.691
305.826
305.97
306.085
306.175
306.234
306.175
306.131
306.031
305.888
305.778
305.686
305.628
305.623
305.772
301.885
301.852
301.842
301.853
301.876
301.908
301.952
302.008
302.039
302.066
302.09
302.076
302.055
302.034
301.968
301.941
301.911
301.884
301.881
301.938
329.132
328.551
328.185
328.199
328.579
329.194
329.884
330.748
331.257
331.671
331.952
331.805
331.527
330.812
330.107
329.421
328.987
328.838
328.898
329.602
325.138
324.677
324.373
324.371
324.727
325.26
325.868
326.631
327.059
327.441
327.645
327.541
327.317
326.698
326.071
325.499
325.073
324.986
325.013
325.597
321.195
320.84
320.582
320.596
320.904
321.354
321.874
322.524
322.876
323.221
323.375
323.289
323.119
322.593
322.034
321.6
321.187
321.132
321.148
321.617
317.292
317.02
316.813
316.831
317.081
317.466
317.886
318.421
318.719
318.992
319.121
319.064
318.926
318.502
318.027
317.683
317.316
317.289
317.296
317.661
313.419
313.216
313.037
313.093
313.287
313.594
313.88
314.324
314.543
314.768
314.865
314.841
314.736
314.411
314.027
313.755
313.475
313.448
313.438
313.729
309.582
309.42
309.294
309.35
309.495
309.736
309.905
310.226
310.402
310.537
310.627
310.628
310.558
310.319
310.034
309.83
309.626
309.594
309.599
309.803
305.755
305.638
305.579
305.62
305.694
305.845
305.945
306.152
306.252
306.322
306.395
306.391
306.356
306.216
306.046
305.895
305.777
305.74
305.766
305.895
301.933
301.888
301.875
301.888
301.903
301.959
301.991
302.055
302.107
302.117
302.15
302.145
302.129
302.094
302.03
301.972
301.938
301.927
301.925
301.973
329.767
329.233
328.97
328.886
329.352
330.025
330.777
331.591
332.093
332.534
332.769
332.643
332.297
331.724
330.829
330.305
329.789
329.582
329.711
330.271
325.694
325.248
325.049
324.987
325.401
325.976
326.665
327.356
327.768
328.161
328.353
328.26
327.953
327.487
326.717
326.272
325.786
325.636
325.713
326.166
321.664
321.297
321.165
321.117
321.48
321.951
322.56
323.112
323.474
323.806
323.991
323.908
323.648
323.244
322.603
322.227
321.811
321.684
321.729
322.097
317.672
317.373
317.26
317.26
317.572
317.97
318.445
318.889
319.202
319.466
319.642
319.569
319.373
319.013
318.51
318.186
317.843
317.753
317.745
318.064
313.718
313.473
313.418
313.41
313.657
313.976
314.326
314.693
314.938
315.15
315.257
315.225
315.096
314.78
314.412
314.158
313.888
313.829
313.769
314.052
309.783
309.608
309.581
309.563
309.75
309.984
310.216
310.49
310.676
310.828
310.904
310.871
310.784
310.559
310.292
310.104
309.925
309.904
309.822
310.069
305.87
305.751
305.75
305.73
305.85
305.99
306.132
306.308
306.414
306.492
306.55
306.532
306.468
306.322
306.184
306.055
305.945
305.959
305.882
306.06
301.967
301.93
301.921
301.92
301.957
301.997
302.06
302.124
302.148
302.18
302.192
302.19
302.178
302.116
302.072
302.035
301.979
302.001
301.971
302.028
330.518
330.038
329.793
329.802
330.206
330.683
331.643
332.364
333.125
333.503
333.798
333.657
333.202
332.501
331.658
331.04
330.793
330.454
330.603
331.103
326.313
325.964
325.77
325.753
326.127
326.553
327.4
328.012
328.686
329.037
329.268
329.147
328.747
328.144
327.425
326.877
326.681
326.377
326.491
326.893
322.186
321.904
321.77
321.738
322.069
322.451
323.178
323.697
324.246
324.578
324.737
324.651
324.311
323.813
323.196
322.742
322.576
322.294
322.386
322.7
318.1
317.877
317.809
317.758
318.041
318.374
318.953
319.385
319.83
320.099
320.226
320.18
319.876
319.482
318.966
318.609
318.48
318.219
318.315
318.565
314.049
313.862
313.848
313.78
314.029
314.293
314.725
315.071
315.42
315.624
315.725
315.707
315.464
315.154
314.724
314.482
314.376
314.189
314.248
314.457
310.026
309.875
309.901
309.823
310.021
310.199
310.508
310.76
311.011
311.158
311.224
311.225
311.068
310.851
310.492
310.359
310.278
310.16
310.18
310.343
306.013
305.914
305.949
305.881
306.034
306.118
306.317
306.478
306.602
306.711
306.742
306.739
306.664
306.521
306.294
306.233
306.167
306.118
306.113
306.199
302.011
301.983
302.002
301.97
302.03
302.051
302.124
302.168
302.206
302.247
302.262
302.259
302.235
302.191
302.108
302.092
302.073
302.057
302.056
302.072
331.371
330.917
330.77
330.792
331.106
331.658
332.381
333.21
334.056
334.592
334.79
334.574
334.141
333.451
332.67
332.076
331.74
331.421
331.57
331.86
327.059
326.678
326.598
326.631
326.913
327.385
328.046
328.761
329.498
329.972
330.12
329.946
329.557
328.954
328.32
327.777
327.512
327.229
327.325
327.575
322.82
322.522
322.499
322.519
322.758
323.147
323.708
324.319
324.977
325.351
325.48
325.323
324.991
324.493
323.984
323.494
323.288
323.037
323.096
323.312
318.617
318.395
318.415
318.413
318.61
318.926
319.402
319.889
320.441
320.753
320.836
320.718
320.419
320.031
319.636
319.239
319.068
318.858
318.891
319.086
314.454
314.283
314.332
314.325
314.465
314.734
315.105
315.478
315.889
316.135
316.199
316.103
315.879
315.597
315.294
314.972
314.843
314.682
314.705
314.839
310.309
310.194
310.25
310.238
310.33
310.525
310.783
311.061
311.341
311.543
311.564
311.507
311.35
311.155
310.935
310.719
310.613
310.489
310.533
310.589
306.196
306.128
306.151
306.158
306.215
306.315
306.493
306.651
306.818
306.923
306.95
306.917
306.825
306.7
306.572
306.447
306.363
306.307
306.33
306.356
302.078
302.055
302.061
302.066
302.083
302.122
302.189
302.219
302.288
302.31
302.331
302.329
302.286
302.242
302.206
302.16
302.14
302.116
302.12
302.131
332.461
331.987
331.735
331.761
331.996
332.696
333.392
334.092
335.045
335.572
335.618
335.432
335.043
334.364
333.659
333.033
332.659
332.42
332.593
332.855
328.039
327.655
327.434
327.484
327.702
328.301
328.906
329.555
330.359
330.828
330.85
330.669
330.363
329.761
329.173
328.611
328.297
328.093
328.222
328.434
323.65
323.363
323.183
323.253
323.439
323.93
324.445
325.016
325.678
326.098
326.101
325.925
325.683
325.181
324.707
324.199
323.974
323.753
323.854
324.015
319.319
319.085
318.962
319.034
319.165
319.572
319.986
320.481
321.011
321.342
321.352
321.2
321.013
320.614
320.235
319.799
319.643
319.441
319.491
319.633
315.013
314.811
314.744
314.799
314.918
315.217
315.517
315.938
316.348
316.598
316.602
316.456
316.346
316.052
315.736
315.375
315.287
315.16
315.165
315.275
310.719
310.571
310.53
310.582
310.644
310.864
311.065
311.399
311.685
311.858
311.868
311.751
311.69
311.471
311.243
310.992
310.915
310.849
310.827
310.912
306.425
306.348
306.333
306.364
306.398
306.533
306.639
306.847
307.025
307.122
307.138
307.055
307.046
306.89
306.747
306.603
306.549
306.525
306.492
306.563
302.15
302.128
302.126
302.138
302.153
302.187
302.236
302.297
302.353
302.388
302.385
302.355
302.359
302.302
302.262
302.222
302.189
302.183
302.173
302.207
333.534
333.034
332.625
332.761
333.038
333.631
334.318
335.103
335.806
336.319
336.524
336.333
335.88
335.339
334.56
333.899
333.537
333.429
333.566
333.794
328.963
328.555
328.187
328.356
328.578
329.114
329.722
330.403
331.017
331.463
331.636
331.463
331.079
330.586
329.945
329.368
329.059
328.943
329.086
329.258
324.444
324.106
323.805
323.964
324.154
324.628
325.145
325.715
326.239
326.614
326.751
326.61
326.283
325.883
325.34
324.825
324.604
324.478
324.589
324.751
319.954
319.683
319.457
319.622
319.762
320.148
320.586
321.043
321.468
321.761
321.874
321.757
321.482
321.183
320.719
320.295
320.155
320.019
320.091
320.25
315.514
315.294
315.129
315.279
315.372
315.66
316.013
316.365
316.696
316.906
317.025
316.912
316.727
316.493
316.126
315.774
315.695
315.566
315.621
315.749
311.067
310.922
310.805
310.921
310.98
311.19
311.443
311.699
311.92
312.068
312.181
312.091
311.96
311.793
311.529
311.3
311.237
311.123
311.162
311.271
306.634
306.555
306.491
306.57
306.591
306.705
306.892
307.016
307.17
307.243
307.321
307.257
307.198
307.089
306.942
306.801
306.771
306.677
306.71
306.793
302.214
302.198
302.188
302.201
302.22
302.255
302.321
302.346
302.397
302.427
302.46
302.428
302.416
302.385
302.325
302.284
302.277
302.238
302.251
302.279
334.446
334.116
333.652
333.891
334.13
334.599
335.085
335.888
336.594
337.109
337.288
337.222
336.831
336.179
335.458
334.934
334.576
334.433
334.443
334.879
329.751
329.501
329.116
329.332
329.522
329.952
330.379
331.092
331.693
332.141
332.324
332.231
331.907
331.353
330.725
330.28
329.932
329.827
329.835
330.196
325.113
324.919
324.606
324.778
324.939
325.31
325.686
326.288
326.835
327.186
327.369
327.254
327.004
326.544
326.002
325.624
325.307
325.239
325.201
325.533
320.485
320.37
320.108
320.263
320.393
320.69
321.011
321.498
321.958
322.254
322.424
322.305
322.086
321.73
321.267
320.973
320.698
320.655
320.605
320.892
315.902
315.826
315.614
315.767
315.845
316.085
316.358
316.717
317.081
317.302
317.456
317.361
317.183
316.903
316.547
316.312
316.094
316.063
316.028
316.248
311.356
311.31
311.138
311.268
311.318
311.478
311.712
311.925
312.189
312.369
312.47
312.415
312.293
312.083
311.82
311.667
311.489
311.478
311.47
311.592
306.808
306.796
306.691
306.755
306.793
306.885
307.049
307.155
307.317
307.436
307.486
307.462
307.405
307.25
307.125
307.01
306.904
306.882
306.893
306.959
302.282
302.271
302.241
302.263
302.279
302.313
302.38
302.395
302.458
302.498
302.509
302.494
302.495
302.426
302.389
302.353
302.315
302.293
302.319
302.331
335.471
335.06
334.723
334.985
335.104
335.554
336.087
336.75
337.364
337.782
338.022
337.915
337.663
337.107
336.593
335.872
335.496
335.434
335.446
335.793
330.632
330.315
330.024
330.265
330.383
330.796
331.223
331.817
332.365
332.73
332.943
332.852
332.635
332.171
331.727
331.079
330.758
330.701
330.704
330.999
325.85
325.603
325.373
325.544
325.677
326.053
326.404
326.895
327.383
327.68
327.892
327.781
327.612
327.224
326.851
326.315
326.022
325.956
325.979
326.208
321.1
320.94
320.739
320.861
321.009
321.3
321.591
322.007
322.408
322.632
322.858
322.714
322.584
322.289
321.99
321.518
321.286
321.233
321.265
321.425
316.381
316.281
316.1
316.211
316.336
316.543
316.777
317.112
317.421
317.61
317.813
317.677
317.58
317.339
317.113
316.747
316.543
316.527
316.566
316.661
311.692
311.643
311.49
311.552
311.672
311.786
311.974
312.233
312.46
312.571
312.738
312.648
312.572
312.383
312.24
311.977
311.808
311.833
311.837
311.893
307.014
307
306.899
306.931
306.992
307.056
307.191
307.353
307.485
307.547
307.651
307.596
307.544
307.424
307.351
307.191
307.082
307.129
307.109
307.114
302.343
302.342
302.307
302.33
302.341
302.365
302.416
302.463
302.51
302.534
302.561
302.546
302.534
302.491
302.46
302.412
302.369
302.39
302.391
302.378
336.627
336.146
335.888
335.943
336.158
336.527
337.071
337.608
338.095
338.474
338.651
338.571
338.436
337.954
337.314
336.852
336.449
336.325
336.588
336.705
331.662
331.256
331.025
331.096
331.291
331.617
332.113
332.589
333.008
333.338
333.469
333.42
333.311
332.894
332.349
331.95
331.586
331.479
331.708
331.781
326.753
326.402
326.198
326.25
326.463
326.741
327.187
327.548
327.931
328.212
328.314
328.258
328.196
327.843
327.38
327.04
326.736
326.652
326.827
326.874
321.857
321.563
321.413
321.454
321.652
321.878
322.249
322.529
322.848
323.096
323.184
323.112
323.07
322.8
322.401
322.137
321.879
321.817
321.933
322.011
316.975
316.767
316.652
316.664
316.845
317.021
317.315
317.517
317.771
317.973
318.035
317.978
317.938
317.737
317.427
317.241
317.027
316.984
317.048
317.166
312.102
311.961
311.899
311.883
312.034
312.162
312.378
312.515
312.692
312.841
312.899
312.845
312.82
312.68
312.438
312.328
312.165
312.158
312.18
312.289
307.263
307.175
307.145
307.119
307.216
307.306
307.428
307.514
307.619
307.715
307.776
307.719
307.707
307.622
307.466
307.409
307.312
307.31
307.311
307.364
302.437
302.41
302.4
302.39
302.423
302.448
302.5
302.519
302.552
302.587
302.608
302.595
302.579
302.55
302.495
302.484
302.455
302.445
302.462
302.468
337.604
337.269
337.079
337.011
337.176
337.473
337.891
338.404
338.808
339.224
339.316
339.308
339.033
338.616
338.107
337.679
337.34
337.283
337.625
337.791
332.528
332.22
332.071
332.03
332.183
332.43
332.803
333.252
333.618
333.981
334.039
334.067
333.8
333.456
333.031
332.673
332.349
332.296
332.6
332.751
327.482
327.211
327.112
327.085
327.213
327.411
327.736
328.112
328.46
328.746
328.788
328.825
328.584
328.311
327.969
327.672
327.371
327.326
327.605
327.721
322.443
322.231
322.16
322.146
322.259
322.409
322.697
322.98
323.308
323.529
323.564
323.586
323.388
323.173
322.901
322.676
322.408
322.34
322.609
322.712
317.427
317.261
317.226
317.211
317.34
317.432
317.664
317.878
318.151
318.306
318.329
318.343
318.186
318.035
317.829
317.656
317.43
317.361
317.599
317.698
312.438
312.303
312.307
312.289
312.405
312.463
312.616
312.773
312.97
313.082
313.104
313.112
313.005
312.872
312.75
312.638
312.449
312.406
312.571
312.682
307.461
307.379
307.395
307.369
307.478
307.501
307.585
307.67
307.793
307.865
307.884
307.891
307.798
307.729
307.645
307.597
307.465
307.455
307.549
307.615
302.499
302.47
302.465
302.469
302.522
302.511
302.545
302.565
302.613
302.643
302.648
302.651
302.621
302.583
302.563
302.55
302.505
302.498
302.536
302.538
338.615
338.354
338.118
338.049
338.149
338.405
338.712
339.133
339.476
339.812
340.066
339.932
339.788
339.433
339.041
338.592
338.309
338.248
338.485
338.736
333.37
333.188
332.959
332.904
333.031
333.232
333.508
333.884
334.214
334.476
334.736
334.619
334.471
334.177
333.859
333.442
333.192
333.148
333.349
333.546
328.184
328.039
327.857
327.794
327.938
328.094
328.34
328.681
328.95
329.151
329.423
329.287
329.153
328.922
328.647
328.306
328.079
328.044
328.216
328.354
323.048
322.923
322.774
322.702
322.862
322.976
323.181
323.462
323.681
323.835
324.093
323.951
323.857
323.673
323.451
323.157
322.95
322.963
323.091
323.195
317.921
317.84
317.709
317.643
317.777
317.886
318.055
318.271
318.426
318.544
318.763
318.629
318.547
318.414
318.224
318.019
317.854
317.877
317.96
318.051
312.812
312.758
312.628
312.584
312.697
312.772
312.919
313.071
313.171
313.265
313.426
313.314
313.25
313.15
313.023
312.867
312.746
312.76
312.828
312.908
307.697
307.678
307.581
307.546
307.63
307.67
307.756
307.856
307.911
307.966
308.078
307.988
307.954
307.885
307.811
307.742
307.647
307.659
307.706
307.738
302.588
302.563
302.535
302.534
302.562
302.568
302.606
302.632
302.654
302.667
302.706
302.672
302.66
302.642
302.618
302.603
302.557
302.555
302.596
302.584
339.779
339.407
339.11
338.914
339.122
339.181
339.605
339.936
340.292
340.454
340.698
340.606
340.532
340.091
339.781
339.462
339.179
339.136
339.39
339.629
334.369
334.07
333.831
333.644
333.888
333.918
334.279
334.574
334.885
335.044
335.276
335.195
335.136
334.762
334.492
334.211
333.941
333.894
334.132
334.298
329.02
328.794
328.588
328.415
328.663
328.685
328.996
329.228
329.494
329.64
329.864
329.78
329.751
329.449
329.219
328.972
328.697
328.655
328.861
329.004
323.722
323.519
323.386
323.208
323.467
323.47
323.704
323.902
324.11
324.268
324.448
324.384
324.35
324.114
323.912
323.726
323.47
323.475
323.594
323.714
318.45
318.263
318.192
318.02
318.259
318.252
318.434
318.584
318.761
318.874
319.052
318.98
318.927
318.765
318.613
318.467
318.245
318.27
318.337
318.429
313.177
313.03
312.986
312.873
313.052
313.043
313.163
313.283
313.405
313.469
313.644
313.581
313.517
313.4
313.299
313.189
313.035
313.059
313.077
313.161
307.93
307.818
307.782
307.744
307.844
307.847
307.896
307.978
308.042
308.092
308.207
308.173
308.123
308.046
307.996
307.922
307.83
307.831
307.844
307.9
302.659
302.626
302.602
302.602
302.63
302.628
302.655
302.679
302.683
302.702
302.756
302.74
302.723
302.691
302.68
302.661
302.62
302.622
302.626
302.641
340.879
340.449
340.089
339.9
340.049
340.167
340.474
340.779
341.05
341.235
341.396
341.329
341.245
340.853
340.631
340.313
340.071
340.162
340.271
340.603
335.344
334.973
334.668
334.514
334.644
334.774
335.042
335.317
335.585
335.73
335.868
335.823
335.742
335.405
335.223
334.94
334.709
334.809
334.856
335.156
329.855
329.532
329.289
329.172
329.281
329.404
329.634
329.871
330.134
330.22
330.36
330.293
330.244
329.939
329.808
329.588
329.354
329.437
329.468
329.719
324.384
324.11
323.936
323.845
323.946
324.055
324.218
324.447
324.668
324.731
324.871
324.763
324.754
324.491
324.394
324.223
324.004
324.047
324.091
324.286
318.965
318.722
318.601
318.526
318.61
318.723
318.824
319.018
319.19
319.238
319.361
319.237
319.266
319.049
318.999
318.864
318.672
318.701
318.743
318.875
313.56
313.354
313.278
313.227
313.283
313.391
313.439
313.581
313.7
313.766
313.843
313.734
313.753
313.606
313.586
313.495
313.343
313.363
313.414
313.475
308.152
308.005
307.967
307.938
307.972
308.05
308.057
308.152
308.226
308.266
308.317
308.256
308.259
308.167
308.169
308.109
308.009
308.021
308.051
308.098
302.731
302.681
302.67
302.653
302.678
302.707
302.696
302.732
302.758
302.761
302.791
302.776
302.776
302.737
302.747
302.708
302.695
302.685
302.692
302.711
341.873
341.465
341.211
340.907
340.908
341.041
341.388
341.513
341.818
341.998
342.016
341.985
341.943
341.581
341.302
341.157
340.958
341.045
341.192
341.613
336.188
335.849
335.658
335.394
335.391
335.518
335.831
335.962
336.231
336.403
336.397
336.371
336.367
336.015
335.777
335.643
335.468
335.543
335.668
336.034
330.571
330.278
330.143
329.911
329.924
330.058
330.301
330.435
330.652
330.802
330.788
330.766
330.78
330.461
330.283
330.14
329.998
330.055
330.171
330.454
324.964
324.743
324.653
324.466
324.46
324.582
324.789
324.906
325.089
325.19
325.185
325.152
325.206
324.935
324.77
324.654
324.538
324.554
324.694
324.896
319.375
319.223
319.168
319.019
319.012
319.124
319.288
319.387
319.535
319.593
319.566
319.565
319.618
319.404
319.245
319.168
319.076
319.088
319.215
319.342
313.819
313.736
313.708
313.59
313.573
313.672
313.78
313.868
313.983
314.008
313.976
313.965
314.02
313.88
313.742
313.692
313.609
313.641
313.736
313.816
308.288
308.266
308.225
308.16
308.141
308.205
308.273
308.332
308.4
308.422
308.387
308.392
308.439
308.335
308.248
308.211
308.171
308.203
308.271
308.302
302.774
302.771
302.757
302.741
302.727
302.747
302.774
302.802
302.818
302.817
302.807
302.822
302.83
302.791
302.762
302.744
302.732
302.756
302.766
302.786
342.686
342.332
342.164
341.88
341.866
341.976
342.109
342.231
342.444
342.592
342.69
342.647
342.535
342.336
342.067
341.944
341.847
341.838
342.01
342.392
336.842
336.608
336.458
336.245
336.211
336.305
336.475
336.539
336.747
336.864
336.988
336.923
336.842
336.67
336.454
336.338
336.244
336.216
336.363
336.705
331.087
330.928
330.791
330.619
330.591
330.666
330.861
330.872
331.077
331.174
331.278
331.207
331.146
331.033
330.851
330.752
330.653
330.636
330.738
331.05
325.396
325.27
325.17
325.05
325.008
325.036
325.252
325.238
325.447
325.495
325.597
325.509
325.472
325.38
325.25
325.146
325.066
325.046
325.139
325.4
319.735
319.635
319.568
319.493
319.444
319.457
319.622
319.626
319.803
319.815
319.917
319.844
319.805
319.748
319.655
319.556
319.498
319.463
319.571
319.755
314.104
314.024
313.993
313.923
313.886
313.891
313.998
314.018
314.153
314.16
314.242
314.173
314.149
314.098
314.062
313.969
313.93
313.905
313.981
314.105
308.475
308.418
308.411
308.354
308.333
308.345
308.382
308.428
308.506
308.505
308.553
308.511
308.508
308.48
308.461
308.394
308.356
308.347
308.406
308.465
302.848
302.823
302.828
302.801
302.795
302.797
302.795
302.835
302.862
302.86
302.872
302.853
302.864
302.844
302.832
302.807
302.803
302.796
302.82
302.837
343.383
342.979
342.823
342.531
342.484
342.593
342.731
342.794
343.017
343.076
343.123
343.126
343.128
342.833
342.722
342.485
342.468
342.429
342.754
343.139
337.419
337.102
336.992
336.751
336.708
336.801
336.941
337.023
337.214
337.247
337.322
337.304
337.329
337.084
336.99
336.786
336.751
336.677
336.959
337.287
331.543
331.296
331.224
331.046
330.992
331.065
331.198
331.277
331.447
331.439
331.527
331.528
331.538
331.362
331.263
331.063
331.048
330.965
331.225
331.525
325.738
325.562
325.516
325.371
325.318
325.357
325.49
325.568
325.703
325.659
325.77
325.759
325.779
325.659
325.581
325.398
325.374
325.284
325.517
325.76
320.004
319.859
319.818
319.705
319.685
319.704
319.826
319.904
320.001
319.94
320.056
320.013
320.017
319.965
319.916
319.753
319.726
319.654
319.813
320.011
314.311
314.171
314.149
314.067
314.062
314.104
314.166
314.261
314.285
314.251
314.337
314.258
314.272
314.284
314.256
314.112
314.097
314.045
314.151
314.284
308.61
308.497
308.479
308.446
308.44
308.485
308.496
308.585
308.577
308.564
308.627
308.55
308.575
308.592
308.577
308.477
308.465
308.426
308.495
308.569
302.891
302.844
302.846
302.824
302.82
302.848
302.84
302.873
302.869
302.879
302.905
302.868
302.88
302.879
302.881
302.845
302.85
302.82
302.847
302.877
)
;

boundaryField
{
    hotSide
    {
        type            fixedGradient;
        gradient        nonuniform List<scalar> 
400
(
310.915
311.489
314
318.397
324.486
331.988
340.603
350.059
360.13
370.641
381.458
392.49
403.673
414.968
426.357
437.841
449.428
461.137
472.983
484.974
299.079
299.823
302.639
307.464
314.064
322.106
331.249
341.19
351.687
362.556
373.663
384.918
396.262
407.663
419.11
430.612
442.19
453.87
465.679
477.631
292.564
293.665
296.811
301.931
308.792
317.064
326.405
336.511
347.135
358.091
369.245
380.504
391.812
403.142
414.488
425.865
437.298
448.822
460.466
472.25
291.031
292.663
296.172
301.485
308.401
316.637
325.888
335.871
346.351
357.142
368.107
379.156
390.232
401.31
412.391
423.491
434.64
445.874
457.225
468.716
293.145
295.408
299.334
304.846
311.775
319.888
328.93
338.648
348.826
359.283
369.888
380.551
391.222
401.881
412.534
423.206
433.929
444.741
455.677
466.764
297.387
300.322
304.73
310.525
317.556
325.624
334.502
343.966
353.813
363.873
374.023
384.182
394.313
404.409
414.491
424.595
434.762
445.037
455.458
466.055
302.503
306.117
311.066
317.254
324.531
332.707
341.565
350.886
360.471
370.154
379.821
389.409
398.904
408.327
417.723
427.148
436.661
446.315
456.154
466.211
307.534
311.798
317.319
323.99
331.652
340.104
349.116
358.453
367.895
377.271
386.473
395.464
404.268
412.947
421.586
430.272
439.083
448.083
457.323
466.838
311.719
316.553
322.621
329.805
337.934
346.789
356.108
365.614
375.047
384.21
392.998
401.407
409.516
417.445
425.33
433.291
441.429
449.817
458.509
467.538
314.449
319.7
326.2
333.825
342.397
351.674
361.36
371.124
380.651
389.7
398.164
406.08
413.589
420.878
428.13
435.497
443.097
451.008
459.283
467.951
315.293
320.729
327.443
335.311
344.15
353.706
363.657
373.633
383.271
392.296
400.596
408.235
415.402
422.328
429.227
436.271
443.584
451.247
459.312
467.806
314.066
319.402
326.044
333.87
342.692
352.251
362.221
372.229
381.91
390.988
399.346
407.046
414.271
421.249
428.195
435.28
442.63
450.332
458.439
466.978
310.896
315.852
322.147
329.656
338.192
347.498
357.262
367.14
376.805
386.011
394.639
402.717
410.376
417.797
425.164
432.635
440.333
448.346
456.735
465.533
306.239
310.594
316.347
323.375
331.491
340.444
349.939
359.669
369.35
378.763
387.79
396.415
404.71
412.794
420.807
428.882
437.134
445.651
454.5
463.72
300.862
304.477
309.598
316.11
323.822
332.48
341.796
351.477
361.265
370.956
380.426
389.629
398.586
407.37
416.08
424.823
433.703
442.808
452.206
461.942
295.832
298.649
303.136
309.188
316.601
325.096
334.368
344.119
354.094
364.094
373.986
383.705
393.246
402.647
411.981
421.336
430.807
440.483
450.433
460.704
292.556
294.588
298.49
304.163
311.373
319.801
329.105
338.969
349.131
359.392
369.617
379.733
389.719
399.595
409.416
419.26
429.217
439.378
449.816
460.578
292.719
294.067
297.446
302.763
309.756
318.067
327.322
337.193
347.415
357.792
368.191
378.536
388.797
398.983
409.138
419.33
429.647
440.179
451.002
462.158
297.811
298.666
301.577
306.461
313.062
321.023
329.977
339.602
349.641
359.906
370.265
380.641
390.997
401.331
411.677
422.092
432.652
443.439
454.523
465.94
308.292
308.866
311.358
315.703
321.689
329.015
337.365
346.45
356.035
365.94
376.037
386.246
396.52
406.851
417.255
427.775
438.468
449.397
460.614
472.145
)
;
    }
    coldSide
    {
        type            mixed;
        refValue        uniform 300;
        refGradient     uniform 0;
        valueFraction   uniform 0.991591;
        source          uniform 0;
        value           nonuniform List<scalar> 
400
(
300.015
300.015
300.016
300.016
300.016
300.017
300.017
300.017
300.018
300.019
300.019
300.02
300.02
300.021
300.022
300.022
300.023
300.023
300.024
300.024
300.015
300.015
300.015
300.016
300.016
300.016
300.017
300.017
300.018
300.018
300.019
300.02
300.02
300.021
300.022
300.022
300.023
300.023
300.024