/*--------------------------------*- C++ -*----------------------------------*\
| =========                 |                                                 |
| \\      /  F ield         | OpenFOAM: The Open Source CFD Toolbox           |
|  \\    /   O peration     | Version:  2212                                  |
|   \\  /    A nd           | Website:  www.openfoam.com                      |
|    \\/     M anipulation  |                                                 |
\*---------------------------------------------------------------------------*/
FoamFile
{
    version     2.0;
    format      ascii;
    arch        "LSB;label=32;scalar=64";
    class       volScalarField;
    location    "./ITHACAoutput/true/19";
    object      error;
}
// * * * * * * * * * * * * * * * * * * * * * * * * * * * * * * * * * * * * * //

dimensions      [0 0 0 1 0 0 0];

internalField   nonuniform List<scalar> 
3200
(
0.532588
1.40836
0.46296
1.45869
1.22963
1.3542
1.54415
1.6578
0.990923
1.55802
0.258056
1.01677
1.38498
1.3335
2.25494
1.20715
1.14749
1.07625
-0.198481
0.808718
0.149618
0.531497
0.619445
0.334282
2.07922
1.98436
1.47076
1.18143
1.76064
0.179473
-0.0553427
0.614873
1.6174
0.117729
0.829386
0.389933
0.829226
1.22035
0.939709
0.100845
0.440619
0.434258
1.63823
0.000843378
0.763197
1.49565
1.61862
0.655696
1.03617
1.26675
1.61695
1.7144
0.927181
0.673919
0.774114
1.45506
0.624231
0.165977
0.0487599
-0.846773
-0.148079
0.290416
1.21608
0.248574
0.63564
1.44954
0.110638
0.249656
0.92209
0.984413
0.205036
1.03372
1.29794
1.37757
1.37971
0.5594
0.00623394
1.00206
-0.159118
0.860366
0.829692
0.515019
-0.595872
0.431303
0.810976
1.486
1.81238
0.388068
0.653409
1.82296
1.5821
0.578635
1.2907
0.235057
0.25691
0.0432948
-0.384745
0.237597
0.247183
0.268742
-0.368981
0.185892
-0.289386
0.0936961
0.406293
0.875845
0.686204
0.129989
0.177351
0.377635
0.921758
-0.522443
0.943775
0.184148
-0.7838
-0.038242
-0.236024
-0.188645
0.340476
-0.0208112
-0.239298
-0.405091
0.391577
0.325869
0.241118
-0.817469
-0.0568576
0.821591
0.828764
-0.0610377
0.683961
-1.36007
0.860896
1.14957
0.0647333
-0.848864
0.691305
-0.00924237
0.160105
0.0578168
0.235089
0.748572
0.325198
-0.00204099
0.515917
0.251305
0.393749
0.2618
0.663439
0.39516
0.808145
1.02033
0.125188
-0.0695408
-0.492204
-0.485404
0.250113
0.313939
-0.369762
-0.463032
-0.0859434
0.245568
1.10141
1.3056
1.51068
0.519582
1.00799
1.16375
1.6154
0.614981
1.28937
0.692885
0.186373
2.11938
-0.676764
2.22045
1.17775
0.769914
-0.0723084
-0.313199
0.11029
-0.0442314
0.386401
0.263005
1.06932
0.0867864
1.74981
-0.0909346
0.392566
-0.0356219
-0.151074
0.918083
-0.214806
0.495035
0.368281
0.554325
-0.195488
0.075069
-0.183623
0.180968
-0.526539
-0.211858
0.479969
0.618797
0.0362956
1.13045
0.84155
1.47069
0.401744
0.148367
-0.517616
0.173432
0.67562
1.07118
-0.434123
0.109836
0.509842
1.20278
0.596359
-0.0367828
-1.36329
-0.987906
-0.799985
1.19043
1.11293
0.341516
1.29884
1.38586
0.361212
-0.37122
0.199823
1.01896
0.640785
0.0912045
1.02993
0.482646
0.576788
0.461796
0.549165
-0.135227
0.397258
-0.0398179
0.0361898
0.380085
0.976962
0.255392
-0.191746
0.12638
0.798573
-0.492153
-0.64429
1.24558
-1.37978
0.136645
1.49905
0.500967
0.929679
1.172
0.802311
-0.243843
-0.470837
-0.0999856
0.693992
0.193753
-0.352918
-0.00801855
1.93971
-0.503077
-0.31164
0.568342
0.971229
-1.15323
0.257023
-0.910724
0.821665
0.275957
0.573764
0.128903
0.156602
0.675221
0.106935
-0.43334
-0.512982
0.576632
1.23816
0.54831
0.0724279
1.15014
1.47621
-0.451408
-0.370115
-0.467211
0.511467
1.20733
1.63962
-0.0433198
-0.117181
-0.276818
-0.423008
1.61862
0.470432
0.108083
-0.000357205
0.301008
1.03701
-0.151674
0.466128
0.0175826
-0.155381
-0.0356968
0.159458
0.426715
0.49444
-0.0367746
0.307203
0.310089
-0.0571443
1.08817
-0.51698
0.0939394
-0.955901
0.06486
0.697685
0.975808
0.696367
1.23061
0.901084
1.70734
0.966801
1.07159
0.34111
0.0970087
0.541069
0.760231
0.14031
0.1389
0.665825
0.0929767
-0.791459
-0.238896
-0.958377
1.07972
0.428542
1.29455
1.38863
1.16376
1.1333
0.621801
0.895555
0.249602
-0.158478
1.16108
0.397255
0.938207
0.965016
1.50481
1.02091
1.18713
0.842283
-0.801209
0.24115
0.14144
0.16633
1.30117
0.8894
0.532607
1.43747
0.304068
1.10842
1.70256
0.839417
1.27517
1.34379
0.976776
-0.232159
0.636156
0.075126
0.451191
-0.434768
-0.865501
-0.458238
0.233374
-0.604563
0.759041
0.491649
0.316909
1.72065
0.196068
1.16079
0.277431
0.59403
-1.14319
0.897074
0.366521
-0.0161422
0.832272
-0.0416089
-0.318096
0.509343
-1.69442
-0.48735
0.173772
0.687067
0.566032
0.639374
0.521098
0.679273
1.52886
0.0367514
0.510595
0.252297
0.632476
0.670363
-0.10086
1.91462
0.902493
0.783176
0.595961
0.0945502
-0.390496
0.169425
0.27933
-0.307525
0.116946
0.657392
0.0635435
0.0771642
0.724703
0.175134
0.215639
-0.87577
0.0555273
-0.774656
-0.240579
0.148939
0.476766
0.490696
-1.81947
0.967781
-0.855629
-0.762138
0.0357426
0.14096
0.685738
0.273833
-0.162041
0.0880276
0.0676063
-0.160584
0.374211
0.895621
-0.0551642
-0.284607
-0.0138771
0.352824
0.33312
0.186088
0.210796
0.188104
-0.381943
-0.0159501
-0.153654
-0.448332
1.22951
1.19243
0.41036
0.482854
0.0126678
0.357581
0.147557
0.0515779
-0.374011
0.405427
0.188069
-0.348261
0.24723
-0.775954
-0.133931
0.300046
0.0422088
-0.0161829
-0.534576
0.853516
0.294455
0.485197
0.822336
1.13462
1.85674
0.508025
-0.680478
0.480857
1.0074
0.854378
1.01507
0.92422
0.369964
1.59663
0.204385
0.459636
-2.41867
-0.440933
0.107672
-0.176123
0.0601103
0.849914
-0.258933
1.39575
-0.227461
0.118279
0.122496
-0.0829531
-0.363937
0.0671519
-0.0513536
-0.0098705
0.489671
-0.22835
-0.023861
0.259597
-0.258234
-0.135915
0.130195
1.03593
0.294481
1.13267
0.295382
-0.0537248
1.23913
0.12233
0.695869
0.179761
0.509274
0.226732
0.521263
0.530989
0.678886
-0.577652
0.0619117
-0.791077
0.501017
-0.296888
1.19544
0.415984
0.0859003
0.539588
1.17461
-0.291632
-0.00741082
0.430104
0.582305
-0.67274
-0.384666
0.0374849
0.235209
-0.0460151
0.203268
-0.503813
-0.284547
-0.00490855
-1.87577
-0.854264
0.0104083
0.527979
0.449186
-0.283553
0.909595
-0.134877
0.286008
0.398827
0.641516
0.961013
0.261498
-0.37556
-0.513403
0.58284
-0.28688
-0.351603
0.357144
-0.444739
0.412301
0.28158
0.910762
-0.186955
-0.387433
-0.0277383
0.0485621
-0.470598
0.187702
0.496852
-0.186391
0.588218
0.478431
0.0425993
-0.215137
1.6544
-0.313718
0.328534
0.0302713
0.39495
0.172088
0.219153
0.136112
-0.374434
-0.120766
0.381931
0.130374
0.42309
-0.395435
-1.08658
-0.15528
-0.0597177
-0.363171
0.922177
-1.22999
0.205611
-0.806755
0.449419
0.349459
0.649952
-0.543181
0.265371
0.122321
1.266
0.716607
0.738183
0.661981
0.225839
0.665421
0.19923
-0.00795958
0.38358
0.92453
-0.610861
0.334367
0.941108
0.523152
0.642535
-0.556506
-0.10165
-0.635923
-0.286021
0.71192
0.532385
0.692402
0.862211
0.915982
0.573976
0.434173
1.0219
0.422144
0.492093
0.164739
-0.480339
0.202058
0.726742
0.486853
0.591742
0.126673
0.739267
-0.672914
-0.0227121
0.607743
0.105245
0.608829
0.424142
0.285061
0.599515
0.818511
0.170767
0.605224
-1.61437
0.016375
0.68507
0.405103
-0.140024
0.0570106
0.896373
1.4698
-0.0736226
-0.0553348
-0.398985
-0.0450694
0.293316
0.363057
0.781819
0.722124
0.4179
1.01648
-0.08467
-0.24613
-0.316457
-0.296291
-1.17444
-0.116191
0.485759
0.687551
0.811622
1.77953
-0.680228
-0.457147
-0.272927
0.573551
0.807153
0.482793
1.29136
0.90964
1.55711
1.47686
0.253093
-0.669289
-0.936928
0.953111
-0.362403
-0.474698
-0.282193
0.362856
0.634619
0.0430193
0.455136
0.909034
0.422123
-0.653656
0.350688
1.17016
0.429313
0.0815277
0.420777
0.301875
0.486813
0.150907
-0.720903
1.2147
-1.0613
0.124742
0.0253898
-0.122832
-0.510068
0.35477
0.615554
-0.957949
0.333243
-0.208885
0.0626806
0.207111
0.658882
-0.117826
1.20701
-0.293009
-0.656732
0.140469
0.262244
-0.712298
-0.267682
-0.390106
-0.162757
-0.474045
0.0729169
-0.273625
0.239725
-0.323268
0.89994
0.605206
0.0646323
1.08488
0.503251
0.35329
0.564734
0.327726
0.276173
1.48871
-0.153074
0.457023
0.292411
-0.557037
-0.855471
0.626826
-0.0519252
-0.680271
-0.347435
-0.777003
-0.0186876
-0.344401
-0.946456
0.721102
-0.00313772
-1.08996
-0.463213
-0.109968
0.0323022
0.22536
0.472338
-0.258683
1.62446
-0.268086
0.690721
0.000321786
0.344258
-0.776327
0.456212
-0.245715
-1.13216
-0.455311
0.29157
0.768508
0.411143
0.733173
0.498402
1.52693
-0.0182273
0.387578
-0.328644
0.507896
-0.460631
-0.226464
0.522232
-0.316561
-0.31198
0.85809
-0.828071
-1.1199
-0.933029
-0.13424
0.424458
-0.184753
-0.0946748
-0.119413
0.688004
0.0666607
-0.0365055
0.320223
0.0476623
-0.133261
-0.126658
0.0277245
-0.208023
-0.280544
0.572519
-0.270957
0.0872836
-1.01337
-0.881349
0.357799
0.206081
-1.0817
0.500151
0.302168
0.486728
-0.112048
-0.386569
-0.538702
0.174191
-0.427429
-0.564304
-0.169166
0.361449
-0.547173
-0.242314
-0.0869492
-0.706093
-0.476215
0.0224583
-0.232095
-0.0422616
0.501128
0.152436
0.114985
0.138967
0.36961
0.460308
-0.249198
-0.405449
-0.242596
-1.0142
0.0196902
-0.630422
1.16825
0.628526
1.33595
-0.404044
-0.945729
0.250259
0.106848
-0.239732
0.956307
-0.0887678
0.392202
-0.542385
-0.338698
0.163545
0.933692
0.174217
0.56801
-0.26267
0.036957
0.0189846
0.0790714
0.585484
0.771099
-0.587028
-0.651183
0.149298
0.145223
-0.94794
0.429131
-0.243129
-0.0686434
0.376193
-0.702779
0.303985
-1.17061
0.328113
-0.18662
0.315057
-0.0196306
-0.299031
0.772149
-0.304258
0.148241
-0.223357
0.590795
-0.369588
0.502702
0.771059
0.458784
-0.532442
-0.298351
-0.0529719
-0.624326
-0.647876
-0.321699
-0.192272
-0.46883
-0.328108
-0.492167
0.359362
-0.100393
0.0259312
0.986001
-0.349815
0.418797
0.188929
0.0189907
0.915031
1.17986
0.369196
-0.543253
-0.550944
-0.70059
0.346634
-0.692875
-0.464913
-0.171381
0.257833
-0.269902
0.137678
-0.26198
0.596959
-0.226068
0.0375259
-0.444011
-1.04712
-0.492588
1.38192
-0.291475
0.203506
0.0906257
-0.469873
0.699098
0.316012
-0.258175
-0.186212
-0.351009
-0.459507
0.390091
0.792016
0.549744
-0.00474818
-0.437741
-0.937953
-1.80848
-1.7161
-0.0907631
1.13038
0.516861
1.03187
-0.922226
1.29282
-0.189709
0.0695889
-1.05403
1.0853
0.0169769
-0.732052
0.0366463
-0.271437
-0.672548
0.556785
-0.411572
-0.265817
-0.980372
-0.78799
0.392558
0.878702
0.107431
0.262834
0.13599
0.0466333
-1.11256
-0.669427
0.362736
-0.169845
-1.65497
-0.334871
-0.613801
-0.921714
0.265225
-0.0909823
0.0805827
-1.3104
-0.339888
-1.36531
-0.72066
1.30642
0.726689
-0.866757
0.0796952
-0.529955
-0.893153
0.347384
-0.801058
-0.598885
0.0238255
0.302748
-0.182879
-0.746831
0.132325
-0.793924
-0.168583
-0.640144
-0.201041
-0.386267
0.625019
1.10764
0.204952
0.13573
-0.046689
-0.417495
0.134206
0.572452
-0.0409745
-1.48278
-1.30746
0.893059
-0.69443
-0.463743
0.381827
0.188019
-0.50846
-0.049896
0.101067
-1.14037
-1.0043
0.00525928
-1.15817
0.484381
0.714544
0.607332
0.936658
-1.45488
-0.528927
-0.0103242
-0.750608
-0.187842
-0.51325
0.543126
-0.02147
-0.812428
-0.322032
0.145268
0.454987
-0.68307
-0.879173
-0.388257
0.249358
-1.06551
-0.303832
0.590211
-0.653311
-0.176072
-0.439916
0.838668
-0.0230315
-0.536514
-1.41964
-0.48868
-0.238104
-0.465344
-0.466149
0.122574
-0.596734
0.752244
0.430501
-0.125638
-0.0859361
-0.267896
-0.439291
0.0800443
-0.0712778
0.0477489
-0.98642
0.887571
0.516883
-0.13616
-0.496923
0.0166785
0.0338253
-0.692155
0.831566
-1.38277
-0.467405
-1.43933
-0.645424
0.456409
1.02329
1.19481
0.394889
-0.679129
-0.815634
-0.806279
-0.517471
-1.38372
-1.0034
-1.12021
-0.446104
-1.28171
-0.336836
-0.123532
-0.380394
-0.424277
-1.17366
-0.949563
-0.362766
0.535599
-0.524407
-0.244675
-0.136573
-0.273878
0.0475942
-0.43835
0.123573
-0.0357255
-0.732923
-0.00231687
-1.11481
-0.200741
0.300414
0.0726555
-1.57258
-0.00502302
-1.68098
-1.51721
-0.252329
-0.524027
-0.506059
0.966887
0.0989307
-0.657737
-0.0851257
-0.974746
-0.0480062
-1.62772
-0.198846
-0.960638
-0.555713
0.240716
-0.50706
0.520492
-0.084438
-1.43919
-0.911961
-1.17929
-0.357762
0.385301
-0.0887587
0.301392
0.356035
-0.433725
-1.00577
-0.0161492
-0.527468
-1.06918
-0.835322
-0.792973
-0.34697
-0.621818
-1.22249
-0.467645
-1.5149
-0.28282
-1.15108
-0.742168
0.293952
-0.304127
1.07041
-1.40703
-0.394456
-0.363194
-1.01308
-0.862806
-1.18027
-0.124539
-1.14773
-0.395424
-0.698449
0.850104
0.710414
0.0259547
0.166753
-1.17018
-1.27846
-0.954692
-0.337524
0.0840368
-0.0790759
0.848645
-0.0591749
-0.702643
-0.320281
0.0128137
-0.259321
-0.953419
-0.671145
-1.1725
-0.294671
0.0393286
-0.66773
-0.067198
-0.0610047
-0.161262
-1.03954
-0.608824
0.292851
0.101804
-0.760026
0.109982
-0.575417
-0.430189
0.263741
0.256064
-0.953817
-0.227015
-0.568244
0.163568
-0.950864
0.289376
0.0372492
-0.565965
-0.559153
0.20726
-1.03246
-0.712459
1.14117
-1.5719
-0.640598
-0.175208
1.02266
-1.05967
0.270927
-0.00762534
0.753921
0.175332
-0.128639
0.69585
-0.650108
0.309636
0.585408
0.606127
1.07207
-0.788367
-0.272524
0.209674
-0.911512
-0.0637558
-0.135206
-0.606583
0.354705
-0.531204
0.195121
-1.16189
-0.937804
-0.418936
-0.71702
-0.706074
-0.876131
-0.295503
-0.295827
-0.364932
0.0995578
-1.0307
-1.44085
0.233726
-0.541329
-0.220565
1.00857
-0.643055
-0.735968
-0.701281
0.458389
0.331396
-0.50782
-1.21438
-0.646681
-0.487834
-0.914059
-0.0771019
-1.61048
-0.235933
-0.0546164
-0.209148
-1.86299
-0.150054
-0.729433
-0.57741
0.116426
0.143659
0.478962
0.0143853
-0.610675
-1.422
-0.737656
-1.54912
0.0357542
-1.49415
-1.33762
-0.208442
-0.73982
-0.604067
-0.127094
-0.415863
0.0972806
-0.480658
-0.129396
-1.20582
0.192534
0.384027
0.125655
-0.153501
-0.542506
-0.514522
-1.10063
-0.40143
-0.0291636
-0.883615
-0.184507
-0.643228
0.913855
-0.59777
-0.0636015
-0.698838
0.357641
-0.830909
-1.32243
-0.00326776
-0.134249
-0.453275
-1.0976
-0.846719
-0.615931
-0.762068
-1.47919
-0.322117
-0.567056
-1.73316
-0.58418
-1.04558
-0.615359
-0.506503
-0.619994
-0.256987
-1.27233
-0.742575
-0.352889
0.526031
0.768175
-0.785433
0.600153
-0.185725
-1.10574
-0.599434
-0.949173
-0.529688
0.426066
0.14328
-0.64986
0.250139
0.0302317
0.427856
-1.10868
0.103818
-0.170262
0.338542
-0.378721
0.296055
-0.0437171
-0.439348
0.961782
0.614005
0.793298
-0.76038
0.0518823
-0.945451
-1.01342
-0.434839
-0.621375
-0.175917
-0.265119
0.0990487
-0.652958
-0.840511
-1.35891
-0.580397
0.23836
0.447143
-0.339103
0.0621801
0.0122389
0.398298
-0.383254
-0.504109
-0.182692
-0.218402
-0.313701
0.335604
-0.904234
-0.503534
0.886217
0.141567
-0.172364
0.0726946
-0.708827
-1.31519
-1.17875
-0.286525
-0.991029
0.573082
0.685247
0.629032
-1.32262
-1.04873
-1.72089
-1.3392
-1.99709
-1.44899
-0.527048
-0.773167
-0.123271
-0.245491
-0.0497299
-0.643878
-1.9285
-1.16942
0.272781
-0.950873
-0.1097
-0.116643
0.32519
0.28954
-0.140757
-0.791924
0.150417
-0.0927879
-1.30989
0.218625
-0.0838092
0.0359563
-0.855939
-0.0707477
-0.924067
-0.280194
-1.23421
-0.122254
-0.602768
-0.500517
-0.677366
-0.860693
0.319917
0.355991
0.440277
0.0168333
-1.69453
-0.922077
-0.837179
-0.608493
0.164831
0.312964
-0.98784
0.220542
-0.708148
-1.9691
-0.404322
-1.74094
0.677852
-0.679156
0.53178
-0.0101422
-0.574761
-0.697798
-0.504672
-0.993541
-0.801747
-0.294213
-0.781998
-0.41777
-1.08015
0.0360396
-0.260676
-0.412719
-0.055274
-0.612108
-0.627034
-0.31198
-1.70337
-0.294148
0.269001
0.321638
-0.000538589
-0.642846
-1.11327
0.493823
-0.139729
0.214648
-1.87764
-1.12018
0.276954
-0.221718
0.653598
-0.101676
-0.305836
-1.78561e-05
-1.8397
-1.04499
-0.49593
-0.486418
-0.215334
-0.113129
-0.119044
-0.473118
-1.4457
-0.563964
-1.37417
-0.507217
-0.702895
-0.74006
-0.242472
0.514111
0.930583
-0.777881
-0.640031
-0.661729
-0.522412
0.127054
-0.976666
0.302617
0.663939
-0.44937
0.315349
-0.242244
-0.213905
-0.52347
-0.541315
-0.0468441
-0.425518
0.522432
-0.882121
-0.478032
-0.0981457
-0.0759736
0.13961
0.0873584
0.162297
-1.48511
1.24185
-0.305457
0.594619
-0.73482
0.0635627
0.102022
-0.471933
-0.976994
0.276452
-0.199057
1.34277
0.045348
0.0875209
0.383607
-0.351255
0.553302
0.137088
0.199897
-0.643997
-1.38956
-1.22557
-0.0776197
-0.918677
-0.448694
0.086959
0.00557681
-0.883326
-1.31184
-0.288387
-1.60309
-1.15851
-0.455166
-2.11072
-0.885421
-0.776022
-0.62466
-1.61895
-0.210674
-0.917479
-1.27626
-0.0168757
-0.487728
0.521713
-0.398659
-0.345856
-0.471055
0.0232702
-1.89051
-0.251715
-0.374103
-0.911944
-0.205402
0.444204
0.0933236
-0.50124
0.152778
-0.700092
-0.0538046
-0.197141
-1.38274
-0.416279
-0.861729
1.07392
-0.498427
-0.697517
-0.13784
0.171842
-0.437329
-0.587643
-0.606738
-0.96105
-0.952254
-0.920379
-0.628545
-0.128938
-0.589898
-0.760809
-0.52687
-1.06888
-0.655268
-0.19869
-0.539415
-1.68803
0.138803
-0.878676
0.15441
-0.197807
-0.977257
-1.22377
-1.32867
-1.54396
-1.33343
-0.513919
-0.014841
-0.973275
-1.26654
-0.79119
-1.21473
-1.13883
-0.982291
0.0281075
0.607793
-0.883204
-0.0726218
0.0238958
-0.233335
-0.802155
-0.020178
-0.968036
-1.3475
-0.62427
-0.896104
-0.895453
-0.395225
0.155289
-0.434184
-0.47242
-0.994553
-1.10012
-0.972557
0.185435
0.0230248
-0.459839
0.222934
0.280036
-0.560142
-0.39483
-0.583728
-0.090263
-0.743549
-0.346005
-0.206713
-0.89358
0.29688
-0.350196
-0.448719
-0.505589
0.20473
-0.155756
-1.39357
-0.24228
-0.743577
0.507113
0.365903
-1.37014
-0.409742
0.964006
0.754505
0.0542202
-0.0461582
0.268075
-1.14567
0.396445
-0.221196
-0.480425
-0.949701
-0.787723
-0.058543
0.362748
0.229835
0.237987
-0.468308
-1.50743
-1.19109
-0.07887
-0.120153
-0.462065
0.430877
1.21804
-0.583077
0.59309
1.06337
-0.399478
-0.901811
0.450703
0.234929
-1.05798
-0.305257
-0.726363
-0.842606
-0.0568042
-1.20344
-0.545104
0.252181
-0.634566
-0.675099
0.103921
-1.00445
0.508381
-1.66508
-1.62454
-1.51364
-0.310613
-0.115601
-0.419205
-1.00464
-0.268697
-0.751287
-1.95733
-0.556561
-0.845048
-0.264235
-0.342672
-0.0723822
-0.545499
-1.14841
-0.808043
-1.35462
-0.826017
-1.6932
-1.85898
-1.31755
-0.53666
0.0196638
-0.71853
-0.291278
-0.465285
-0.785344
-1.13727
-0.577207
-0.408352
-1.21313
0.30212
-0.613589
-0.716211
-0.0497491
0.059252
0.0451371
0.16406
-2.51851
-2.51937
-1.00759
-0.133553
-0.959745
-0.721948
-0.887124
-0.411503
-1.04914
-0.330246
-1.40853
-1.071
-0.218644
-0.223437
0.0670147
-0.308561
-0.506417
-1.17603
0.616399
0.521105
-0.880609
-0.782397
-0.995834
-1.25434
0.186034
0.113289
-0.136021
-1.00973
-0.96182
-0.734346
-0.503345
-0.479989
-0.591254
-0.390525
-0.532044
-0.123977
-0.544198
0.0244198
-0.7747
-0.138566
-1.02719
-0.00597627
-0.938024
-1.06081
-0.335094
-0.108801
0.383725
0.51776
-0.756612
-0.711329
-0.652267
-0.264871
-0.437798
-0.150583
-1.12364
-1.34098
-0.184403
-0.526497
-1.14697
-0.930504
-0.573813
-0.310338
-0.166183
-0.627859
-0.316484
0.404131
-0.52704
-0.382908
-0.875518
-1.68577
-0.332468
0.0916874
1.26701
0.424478
-0.12779
-0.536019
-0.0976529
-1.08386
-0.529498
-0.365596
-0.460738
-1.00022
1.1556
-0.226625
0.409378
0.48981
0.632003
-0.0792252
0.134216
-0.468974
0.0804639
-1.0338
-0.374316
-0.321216
-0.136076
-0.258139
0.942877
0.415651
0.102862
-0.674533
0.196259
0.0635458
-0.0909244
0.559587
-0.803115
0.115156
-0.126875
1.19193
-1.07678
-0.405534
-1.52083
-0.44739
0.00445146
-0.477423
-0.247232
-0.6197
0.572759
-0.509889
-0.718961
-1.57267
-0.391413
-0.58866
-0.313296
-0.0720405
-0.933411
-1.00697
-0.0618655
-0.332212
-0.758086
-1.70684
-1.83305
-0.358798
-1.37783
-0.26164
0.322788
0.111709
-1.12231
0.238716
-1.03474
-0.123318
-0.0248847
-0.805993
0.0610055
-0.188585
-0.101593
-0.931265
-0.234341
-0.338303
0.0488165
-0.989567
-1.10913
-1.22043
0.268837
0.194567
0.0214407
0.339126
-1.26417
0.389617
-0.906525
-0.508236
-1.03282
-1.54592
0.000248737
-0.624527
-0.589571
-1.99611
-0.825312
-0.893631
-0.00270432
-1.29656
-0.791382
-1.24633
-0.355052
-0.0482754
0.310994
-0.0140606
1.23679
-0.276792
-0.810715
-0.650891
0.456526
-0.958809
0.0362472
-0.113412
-0.820792
-0.90437
0.309614
-0.473393
-0.0527381
-1.58112
-0.790882
-0.810464
-1.04124
0.543206
-0.281283
-0.0828434
-1.08635
-0.46689
0.376419
-0.590806
-0.0525063
-0.490162
-0.783813
-0.165655
-0.826695
0.0210243
-0.429587
-0.031751
-0.532622
-0.619769
-0.839067
-0.128798
-0.414248
-0.357584
-0.53348
-0.346772
-0.248994
-0.0284676
-0.567636
-0.669537
-0.102641
-0.290388
-1.17358
-0.835985
-1.08765
0.0214198
0.419584
-0.0887867
-0.478679
-0.586061
0.789785
-0.381137
-0.525858
0.0709469
0.236996
0.666789
-0.954667
-0.118459
-0.750477
-0.255612
-0.415209
-0.556232
-1.36359
0.162826
-0.673066
0.0050878
0.177837
0.531853
-0.274272
0.614637
-0.380723
-0.620196
-0.2499
2.02897
0.108213
0.0949822
-0.960815
-1.10819
0.243512
1.42803
-0.879159
0.469007
-1.05815
0.911726
-1.11888
0.0636059
0.129767
0.36234
0.0262257
1.28147
-1.74135
0.435593
0.141247
0.0153465
0.927036
-0.116842
1.11137
0.166896
-0.59101
-0.551984
-0.740837
-1.03286
-0.289473
-0.945874
-1.87226
0.070006
-0.597751
-2.25787
-0.501657
-1.07214
-0.221171
0.0252912
-0.402063
-0.0800385
0.305061
0.0737125
-0.362036
0.148416
-1.15284
-1.10555
-0.741573
-0.410901
-0.443476
-0.322652
-0.768492
-1.36277
0.461244
-0.601689
-0.173568
-1.36063
-0.334491
-0.375521
-0.656529
0.135069
-0.284357
-1.06333
-0.775038
-0.247829
0.428748
-0.391753
-1.64228
0.434383
-0.658344
-0.38687
-0.768613
-1.60788
0.248731
-1.39264
-1.10934
-1.61811
-0.985801
-0.631166
1.28498
-0.569327
0.206588
-0.650738
-0.0590939
0.4384
-0.346531
-0.611962
-1.42607
-0.0578687
0.229476
-0.844039
0.785145
-0.410162
-0.620826
-0.437545
-0.785384
-0.923776
-0.000377557
-0.664126
-0.517151
-0.0866963
-0.273366
-0.564496
-0.307752
-0.193674
-0.588623
0.196211
-1.66082
-0.0728973
-0.777856
-1.02706
0.00621208
-0.319987
-0.572969
-0.931335
-1.49135
-1.04202
-0.755183
0.611075
0.306839
-0.526558
0.937777
-0.244493
0.126181
-0.939616
-0.122025
0.0553578
0.26188
-0.757378
-0.54671
-0.555092
-0.917432
0.400686
-1.05648
0.0767048
0.803511
-0.303604
-0.61761
-0.855498
-0.108238
-0.33481
0.312035
-0.773077
0.223029
-0.337567
0.485322
1.20339
0.169621
-1.43228
-0.3799
0.372981
0.589752
0.463857
0.541803
-0.24945
-0.59239
-0.0742338
1.00454
0.136327
0.366578
-0.330149
0.0962338
-0.604019
-0.290092
0.196531
0.199253
-0.596507
-0.274129
0.474133
0.640459
0.249415
0.0763668
0.705703
0.791005
0.581898
-0.168218
-0.240353
-1.20136
-1.32371
-0.973935
1.65503
0.602917
-0.617078
0.709398
0.0913275
-0.62947
-0.830393
-0.925924
0.372087
-0.699892
0.138319
0.121162
0.29851
-0.0124778
0.294145
-0.598361
-0.132301
-1.42355
-0.126936
-0.991605
-0.127332
-0.900038
0.175379
-0.534663
-0.312982
-0.523419
0.148879
-0.18232
-1.26129
-0.321068
-0.0692484
0.304281
-0.804448
-0.388142
-0.76202
-0.257246
-1.25754
-0.81221
-0.0754092
-0.352969
-1.16641
0.397117
-0.934341
0.252559
0.674303
-0.396613
-0.068476
-0.356428
-0.757002
-0.431522
0.0178562
0.984576
-0.142556
-1.06906
0.368926
-0.207082
-0.33774
-0.785223
-0.476193
0.485655
0.06397
-0.53544
0.632871
-0.925067
-0.48179
-0.60875
-1.58261
-0.502177
-1.33359
0.526252
0.18455
0.337871
0.339959
-0.727721
-0.0635708
-0.564463
-0.901938
-0.287148
-0.963304
-0.120616
-0.414073
0.0612696
-1.16336
0.392293
-0.376929
-0.368368
-0.311744
-0.107835
-0.327216
0.131549
0.790009
-0.545903
0.502675
0.211778
0.324213
-0.316544
-0.984703
-0.655245
-0.196046
0.631592
0.0936697
-0.398413
-1.22686
-0.197566
-0.0271154
0.016949
-0.0308947
-0.240809
-0.481486
-0.247
-1.0577
-0.255137
0.476761
1.17141
-0.0386929
0.0709736
-0.256381
-0.0568244
0.640055
0.107782
0.438935
-0.111905
1.05615
0.194545
-0.837106
-0.114302
0.468796
-0.558266
-0.719494
-0.387692
0.494149
-0.0307476
-0.159174
-0.372459
-0.432047
0.365026
0.141596
0.304447
-0.389269
-0.271979
-0.197665
0.40107
0.396751
0.0349931
-0.470063
-0.0974464
-0.72577
-0.445175
0.464056
0.401513
0.726512
-0.27482
0.390056
-0.230883
0.0777402
0.0712071
-0.29125
-0.545996
-0.845041
-0.394466
0.58528
0.684757
1.31344
-0.247332
0.459661
0.690632
0.962664
-0.890464
-1.23119
-0.182586
0.750058
-0.398257
-0.543064
-0.681787
0.274587
-0.57925
-1.01454
0.104998
-0.419645
-0.0419857
-0.0740922
0.366125
-0.155303
-0.0501361
1.06488
0.104645
-0.119711
0.462368
0.0807577
0.394764
-0.0176079
-1.17034
0.0297775
-0.120326
-0.114898
0.184599
-0.745601
-0.462591
0.00855104
-0.126528
-0.263617
0.272262
0.782656
0.805177
-0.000407442
1.1055
-0.000279764
0.00254651
-0.97555
0.563172
0.286175
-0.351548
0.256127
0.439442
0.0512685
0.236395
-0.0392478
-0.50429
-0.160583
0.666892
0.13525
0.659478
0.408774
0.944896
0.540471
-0.0956518
-0.383335
0.0833773
-0.200745
0.452643
0.208409
0.986002
-0.237614
-0.942029
-0.423208
-1.39215
-1.02837
-1.61351
-0.335969
-0.498302
0.306104
0.497255
0.26723
-0.371157
-0.316685
-0.731694
0.477847
-0.110183
-0.00224712
-1.40471
-0.468123
0.931467
-0.679925
-0.241099
0.693181
-0.394251
-1.81546
-0.523691
-0.745837
0.84782
-0.0600509
0.679893
0.209647
-0.571539
-0.418704
0.925193
-0.272783
-0.22796
-0.293477
0.236109
0.249658
0.584808
0.663314
0.881265
-0.420847
0.557479
-0.209722
-0.725996
0.14126
0.692887
0.384747
-0.342659
0.243879
0.1067
-0.250258
0.0181127
0.283618
0.123247
-0.67082
0.099459
-0.0733616
0.148803
-1.08858
0.028743
-0.05087
0.865914
1.07851
-0.438245
0.213442
0.208693
0.058567
-0.053656
-0.518183
0.766276
0.893453
-0.0301571
-0.823389
-0.576539
-0.0122668
-0.648772
0.206369
0.0705037
0.192118
0.817337
-0.375563
-0.4815
0.971276
-1.44446
-1.54112
0.5563
1.9352
1.17277
0.0475759
0.915224
0.603405
0.0698713
1.4781
0.576812
1.35418
0.590379
0.211718
-0.0852868
0.767779
-0.712222
-0.643222
0.651745
0.905372
0.0516352
-0.347819
0.357306
-0.160473
0.337594
-0.11978
0.571396
0.060133
-0.186137
0.196071
-0.0563109
-0.561045
0.294174
1.17269
-0.0319516
0.664413
-0.0910924
0.905673
-0.0450958
0.288135
-0.856017
-0.598905
0.567674
-0.344484
0.615513
0.485839
0.18738
1.17106
0.61292
0.949031
1.03349
0.158466
1.42062
0.0512467
0.12491
-0.400367
1.66417
-0.353895
0.308672
-0.815242
-0.166953
0.579241
-0.355558
0.575687
-0.760172
0.728955
-0.510599
-0.205778
-0.0204834
0.353057
0.0880669
0.460072
1.08665
0.0305992
-0.953924
0.188616
0.0402072
0.408238
-0.585074
-0.401539
-0.00296423
0.0922938
-0.00832703
0.771953
0.172589
0.69768
0.792557
-0.44434
-0.0204613
0.337651
0.19202
-0.701326
-0.269624
-0.555002
-0.788671
-0.564411
0.0433886
0.543382
0.74592
0.0016068
-0.783021
0.467224
-0.0119846
0.0400844
-0.255008
-0.546332
-0.0205205
-0.252608
-0.266822
-0.67523
0.666654
0.121414
0.294733
-0.336841
0.486765
0.389009
0.714109
0.0572868
0.825174
-0.334437
0.0488457
-1.46639
0.033554
1.24844
0.234389
-0.607403
-0.479154
-0.260363
0.055985
-0.260993
-0.450233
-0.0635347
0.640456
-0.327075
0.782256
-0.53509
-0.10373
0.222454
-0.884513
-0.222496
-0.363859
-0.0663935
-0.358458
-0.75425
-0.314494
0.754104
-1.39266
1.29118
0.262492
0.122834
-1.0175
0.210707
-0.710611
1.01954
-0.27679
0.970995
0.0858272
-1.15661
-0.705053
-0.371401
-0.669269
0.391088
1.03873
1.32216
2.11018
1.64535
1.34597
1.58151
1.97361
1.28039
0.345703
1.18078
0.771884
0.806063
0.395582
1.55852
0.963906
0.45371
0.600259
0.804754
-0.150607
-0.372234
0.260299
0.727242
1.09237
1.45582
1.5869
0.255697
1.0894
0.238738
-0.874743
-1.2066
1.11031
1.43775
0.069453
0.547072
1.69447
-0.178422
-0.489272
1.23305
0.116266
0.479152
1.28052
0.659228
0.467263
1.38692
1.50794
0.436635
0.486169
0.606017
0.756325
0.299833
0.434404
1.24901
1.59526
0.292369
0.563913
0.00857248
0.254789
0.14719
-1.86237
-0.790969
0.830535
0.773161
0.643559
0.675605
0.882242
0.68392
0.663693
0.372077
1.00733
1.41586
0.619562
1.44822
1.20143
1.00409
0.13956
-0.0541918
-0.397363
-0.249969
-0.25733
0.202139
0.732234
1.14082
-0.071691
0.529223
-0.404366
0.0745455
1.1566
0.728475
-0.413759
0.325731
-0.13423
0.565321
-0.00694076
0.6052
-0.0886419
0.553103
-1.34484
0.415262
1.33474
0.0739584
-0.155577
0.627182
0.697604
0.678637
0.589568
0.354434
0.178809
0.54733
0.719849
0.434624
-0.810171
0.240962
0.102901
0.779704
1.13764
-0.819593
-0.972275
0.0743977
-0.710981
-0.408467
0.704011
-0.0207948
-0.498183
-0.872541
0.443748
-0.0992826
0.392518
-0.476355
1.16784
0.275511
-0.0698597
-0.447497
-0.211203
-0.669379
1.29412
0.745427
-0.0471817
0.290979
-0.295872
0.221265
-0.0475883
0.261086
1.0649
0.686639
0.0839256
-1.34516
-0.118903
-0.0214675
-0.584933
1.0495
0.391172
-0.248267
0.642307
0.37503
0.65789
-0.687555
-0.269514
0.0693421
0.529438
0.598692
1.97624
1.06415
1.66648
0.990153
1.59934
1.71152
2.42051
1.01031
1.71258
1.04544
2.27571
1.49297
1.14197
1.2564
1.16265
2.00679
1.21146
0.411751
1.14095
0.189905
0.934183
-0.252037
0.556175
0.106219
2.00367
-0.104756
1.46624
0.0994218
0.228251
1.02937
-0.297846
1.73549
0.233907
1.29744
-0.179548
0.950887
0.174086
0.148916
-0.222793
0.0212913
1.22384
2.27219
1.6859
0.2224
1.78215
0.929597
1.5202
0.830061
1.42025
0.856761
1.59962
1.04289
1.10485
1.9385
0.234052
-0.183346
0.194943
0.581968
0.91022
-0.0376494
-0.0700878
1.55675
0.17676
0.881128
1.04768
1.67073
1.04064
0.772277
1.00149
1.87221
1.71029
0.666294
0.740727
1.06534
1.25212
0.840072
1.04853
0.598922
0.178631
-0.654656
1.0548
0.0041984
1.81001
1.0235
0.982089
-0.558338
0.984161
1.55829
-0.0185598
0.597706
0.121745
0.139575
0.0120121
1.09812
0.780515
0.624074
0.275033
-0.593473
0.59544
-0.548939
0.0859432
1.1297
1.3457
0.379092
0.137752
-0.274788
-0.0708382
1.08291
0.347615
0.395122
0.738549
0.368358
-0.519472
-0.0728535
0.119257
0.092763
0.780005
0.0357411
1.56802
-0.350193
0.337982
0.345559
0.986501
-0.00443075
0.321794
0.516344
0.0564986
1.04605
0.557079
0.625861
1.09815
0.654677
0.640929
0.431136
1.00631
0.143273
0.1426
0.238364
0.335518
0.767299
0.0693251
-0.312816
-0.490551
0.552933
0.135482
-0.0363311
-0.310351
-0.763476
0.412097
-0.469018
0.428192
-0.56763
0.0107933
0.22237
-0.470382
0.183709
-0.657386
-0.509324
1.20726
0.297138
1.52643
1.52791
3.3085
2.27526
2.68469
2.30613
1.54486
1.89798
2.71524
1.37049
3.06378
2.68519
2.47422
1.96811
0.828068
1.22495
1.90814
0.649011
0.58868
1.97176
1.31789
1.09085
1.51939
2.28436
1.90766
1.45574
2.05661
2.42747
1.17409
2.2742
1.43718
1.97631
2.24075
0.851245
1.85552
1.29791
0.100959
0.735778
0.163336
0.731294
0.65691
1.93407
1.06895
1.63118
1.9801
1.76538
1.05827
2.43073
0.836267
0.956072
1.06868
1.72549
1.50993
1.12144
0.223111
2.06568
0.463079
0.325396
0.757536
0.601815
-0.203975
0.766459
0.869922
0.146706
0.876244
1.03702
0.968874
1.04536
0.863937
0.795778