/*--------------------------------*- C++ -*----------------------------------*\
| =========                 |                                                 |
| \\      /  F ield         | OpenFOAM: The Open Source CFD Toolbox           |
|  \\    /   O peration     | Version:  2212                                  |
|   \\  /    A nd           | Website:  www.openfoam.com                      |
|    \\/     M anipulation  |                                                 |
\*---------------------------------------------------------------------------*/
FoamFile
{
    version     2.0;
    format      ascii;
    arch        "LSB;label=32;scalar=64";
    class       volScalarField;
    location    "./ITHACAoutput/true/11.5";
    object      error;
}
// * * * * * * * * * * * * * * * * * * * * * * * * * * * * * * * * * * * * * //

dimensions      [0 0 0 1 0 0 0];

internalField   nonuniform List<scalar> 
3200
(
3.75832
3.97302
4.2561
4.57465
5.02078
5.39702
5.79257
6.17806
6.51319
6.65325
6.77501
6.62742
6.43137
6.1538
5.91848
5.53561
5.15213
4.82176
4.69814
4.62015
3.20445
3.32605
3.54726
3.9329
4.31467
4.59722
5.00193
5.30996
5.61086
5.76401
5.76239
5.71968
5.546
5.31706
4.97127
4.70421
4.42262
4.22408
4.05801
3.9346
2.69586
2.79849
3.01768
3.23762
3.56073
3.8793
4.15864
4.42191
4.60731
4.79056
4.86084
4.747
4.62617
4.46945
4.21511
3.96985
3.73041
3.42903
3.37251
3.21799
2.23395
2.30178
2.42391
2.68659
2.85068
3.19785
3.34503
3.59389
3.69535
3.91383
3.95491
3.90484
3.78078
3.61284
3.41588
3.24286
2.98365
2.92666
2.71603
2.6231
1.65322
1.76576
1.91159
1.99696
2.18382
2.44539
2.56253
2.74815
2.99656
3.03304
3.0366
2.96294
2.98247
2.77625
2.62736
2.5054
2.3723
2.19764
2.10507
2.00406
1.14304
1.22411
1.29752
1.48403
1.54407
1.75106
1.8561
1.93399
2.04313
2.18259
2.1918
2.13192
2.05421
1.95131
1.89616
1.77022
1.63655
1.55609
1.54075
1.51985
0.697453
0.754783
0.711383
0.856051
0.927605
1.04299
1.04971
1.17238
1.22439
1.32075
1.2729
1.24092
1.19731
1.1708
1.10114
1.04109
0.953485
0.92854
0.924995
0.889266
0.252442
0.188076
0.297161
0.247116
0.342236
0.385717
0.378049
0.437443
0.419149
0.518732
0.467527
0.436853
0.43773
0.474601
0.344177
0.351864
0.328868
0.332182
0.384956
0.266793
3.10567
3.31933
3.50246
3.82284
4.30603
4.60686
5.0984
5.48524
5.7671
5.95458
5.98804
5.93691
5.68596
5.4015
5.04323
4.78263
4.4204
4.17031
3.92452
3.85435
2.6904
2.82098
3.0073
3.34465
3.63785
4.03222
4.36505
4.63347
5.00909
5.10219
5.12846
5.07353
4.92835
4.74654
4.39638
4.1109
3.79932
3.66765
3.46866
3.27792
2.263
2.37839
2.58969
2.82738
3.08912
3.34935
3.65914
3.92494
4.19289
4.23182
4.22165
4.26264
4.09539
3.93715
3.71667
3.44164
3.21846
3.04269
2.93588
2.82509
1.8695
1.93749
2.05309
2.21201
2.52911
2.72272
2.91031
3.21081
3.38281
3.47096
3.48629
3.44962
3.3976
3.23268
2.99139
2.79733
2.65
2.43446
2.3878
2.31341
1.50644
1.59253
1.63034
1.74579
1.925
2.05594
2.36267
2.51363
2.58312
2.68173
2.74231
2.6272
2.63561
2.47837
2.30627
2.17828
2.0295
1.92326
1.81761
1.76699
1.0281
1.06012
1.11246
1.25643
1.31325
1.5027
1.61842
1.74685
1.8304
1.93246
1.91462
1.93445
1.80258
1.72112
1.70664
1.54645
1.44817
1.40238
1.27185
1.2361
0.607541
0.58165
0.62284
0.711724
0.830456
0.862375
0.968521
1.13565
1.1403
1.1197
1.14337
1.14944
1.10937
1.11582
0.971484
1.00374
0.852004
0.771337
0.778549
0.747326
0.233118
0.246275
0.232947
0.215764
0.237985
0.239822
0.327862
0.400238
0.283366
0.347622
0.374359
0.438474
0.366487
0.428004
0.377919
0.275788
0.253482
0.278367
0.328821
0.238308
2.35183
2.53178
2.59003
2.94732
3.32137
3.72656
4.14639
4.35986
4.72954
4.88962
4.93787
4.77313
4.66528
4.41596
4.04438
3.77668
3.52129
3.25677
3.09997
3.06525
2.05647
2.14659
2.30643
2.54992
2.86823
3.15283
3.52185
3.85512
4.09899
4.15604
4.1331
4.14135
3.99221
3.77917
3.44977
3.24002
3.04598
2.8426
2.64228
2.57804
1.7416
1.81856
1.931
2.13034
2.46419
2.6832
3.01924
3.2488
3.40394
3.54889
3.56552
3.45529
3.38856
3.10131
2.94977
2.77101
2.52772
2.43798
2.32636
2.16526
1.41649
1.42348
1.62977
1.7728
1.99393
2.25916
2.45008
2.66951
2.79574
2.90395
2.90271
2.81695
2.69235
2.55732
2.40098
2.20804
2.03172
1.94422
1.87601
1.83577
1.17541
1.18682
1.19601
1.31971
1.49482
1.68068
1.88134
2.00603
2.11308
2.26326
2.29984
2.2504
2.17291
1.95132
1.91357
1.74067
1.60162
1.51162
1.37525
1.39529
0.800024
0.845374
0.831096
0.968799
1.11162
1.26912
1.34894
1.3787
1.53823
1.61527
1.63048
1.54347
1.57135
1.41911
1.40681
1.24174
1.14068
1.11576
0.991958
1.03179
0.512992
0.455368
0.534616
0.568167
0.674495
0.742723
0.741273
0.89473
0.877361
0.948304
0.990368
0.952352
0.883333
0.83662
0.811329
0.780657
0.71806
0.655936
0.582831
0.580838
0.166046
0.140682
0.229219
0.219488
0.268692
0.194352
0.260768
0.277794
0.329168
0.346992
0.308304
0.296519
0.359631
0.296202
0.289664
0.262101
0.225457
0.184218
0.247076
0.262108
1.50546
1.59561
1.76264
2.09662
2.38111
2.72853
2.92995
3.35054
3.63657
3.68955
3.79209
3.68859
3.50083
3.27298
3.07036
2.76615
2.57353
2.24534
2.15276
2.12042
1.35238
1.45226
1.54779
1.70102
1.97091
2.28505
2.63026
2.88895
3.161
3.22297
3.31058
3.24774
3.04986
2.775
2.64591
2.41119
2.18347
1.95576
1.87155
1.87789
1.13287
1.18816
1.29428
1.42289
1.71886
1.92469
2.14682
2.45997
2.68201
2.71322
2.71613
2.68763
2.56002
2.38548
2.1669
2.0323
1.81564
1.65108
1.56999
1.53297
0.935734
0.969842
1.10746
1.25917
1.35274
1.55555
1.77581
1.96917
2.18375
2.27526
2.23731
2.25083
2.10297
1.97512
1.77107
1.62586
1.53695
1.36898
1.23939
1.28275
0.700657
0.771799
0.85363
0.933827
1.08017
1.23167
1.43685
1.5035
1.6794
1.69575
1.76048
1.73609
1.71167
1.56172
1.40426
1.28122
1.18693
1.04544
0.959901
1.04701
0.462331
0.525407
0.570847
0.621645
0.760695
0.907204
0.991982
1.10334
1.17042
1.16425
1.24813
1.19143
1.20906
1.13441
0.952486
0.889078
0.85165
0.736742
0.738983
0.679831
0.333251
0.319108
0.339865
0.440842
0.465561
0.5469
0.595011
0.669741
0.798772
0.679289
0.726294
0.718947
0.661828
0.668637
0.605189
0.525319
0.518046
0.447792
0.409912
0.459339
0.0947778
0.109873
0.0947617
0.133868
0.232748
0.185447
0.179402
0.203029
0.220797
0.198378
0.27337
0.284423
0.280181
0.188036
0.180494
0.203845
0.173203
0.1636
0.141122
0.143915
0.717933
0.804763
0.907025
1.11588
1.42834
1.6896
1.9585
2.1663
2.48874
2.60693
2.63468
2.56316
2.39675
2.2114
2.05793
1.7232
1.4843
1.41122
1.28771
1.24136
0.635824
0.696566
0.76986
0.981293
1.17726
1.42859
1.67823
1.93076
2.09512
2.2463
2.25486
2.18999
2.07566
1.87352
1.71797
1.56948
1.31422
1.16091
1.02781
1.00871
0.565863
0.608343
0.600531
0.850869
0.971059
1.27586
1.40576
1.63316
1.80488
1.90606
1.90989
1.89109
1.77879
1.57474
1.39397
1.16052
1.12121
0.97297
0.914156
0.894524
0.440853
0.573664
0.559091
0.735555
0.800579
1.0779
1.1632
1.37677
1.44574
1.55027
1.51468
1.46359
1.48936
1.28695
1.14076
0.98731
0.878723
0.848568
0.836919
0.698364
0.35514
0.382235
0.374636
0.543593
0.605413
0.774881
0.929577
1.06441
1.09933
1.19242
1.23017
1.17158
1.17415
1.01896
0.892742
0.764819
0.735516
0.661156
0.666282
0.578638
0.313831
0.268524
0.307927
0.363599
0.405974
0.546263
0.663393
0.734018
0.772407
0.89634
0.829094
0.784954
0.818181
0.645742
0.685257
0.554589
0.471288
0.444092
0.404784
0.341604
0.170217
0.141417
0.242548
0.209821
0.287382
0.373726
0.399181
0.383141
0.526246
0.532107
0.545285
0.502517
0.416075
0.47132
0.39407
0.367693
0.336453
0.280821
0.232127
0.250002
0.0077821
0.0812457
0.0314129
0.0955026
0.135612
0.159682
0.180826
0.193496
0.165819
0.132681
0.146394
0.13979
0.22302
0.143393
0.0933395
0.179703
0.117505
0.0892101
0.088819
0.076999
-0.0377091
0.0124633
0.0993781
0.295688
0.430558
0.697708
0.996492
1.18709
1.39354
1.52666
1.51557
1.53921
1.36671
1.12358
1.00517
0.804937
0.538265
0.489072
0.408914
0.440009
-0.00192444
0.0506348
0.0828011
0.335919
0.394108
0.599375
0.855698
1.03429
1.10621
1.27261
1.34521
1.28748
1.15045
0.986245
0.871785
0.677932
0.477959
0.406995
0.443439
0.377406
0.123746
0.0736314
0.0981764
0.1681
0.375031
0.508207
0.74979
0.924082
1.03957
1.06188
1.11146
1.15088
0.972935
0.787322
0.673643
0.545133
0.437012
0.356712
0.30482
0.33453
0.0378099
0.0485952
0.0775497
0.157101
0.334888
0.474472
0.607175
0.712613
0.815875
0.927141
0.92067
0.882208
0.784898
0.666611
0.646057
0.448057
0.353157
0.295033
0.266577
0.287141
-0.0148452
-0.00106697
0.0592258
0.12346
0.201251
0.319063
0.479669
0.54185
0.643285
0.711434
0.676905
0.604
0.623608
0.568208
0.42876
0.346008
0.317466
0.207649
0.194298
0.15012
0.0104688
-0.0329843
-0.0405833
0.0265324
0.104476
0.141001
0.317684
0.356025
0.417377
0.513808
0.52138
0.502221
0.462583
0.362356
0.325313
0.209372
0.226354
0.156584
0.0991327
0.133018
-0.0137248
-0.0799088
-0.0358741
0.0598649
0.0605352
0.177927
0.157032
0.169333
0.257308
0.309835
0.272342
0.289775
0.216035
0.233016
0.137452
0.140504
0.141853
0.0539969
0.0206534
0.0842883
-0.0444701
0.0143862
0.0408535
0.0286302
0.00212636
0.0340109
0.0196695
0.138842
0.0645275
0.114702
0.103281
0.0985703
0.0896884
0.0466353
0.1074
0.0696859
0.0740533
0.0265561
-0.0160447
0.0166684
-0.653732
-0.662863
-0.649496
-0.593435
-0.361808
-0.209816
0.0645315
0.207533
0.341511
0.465604
0.47564
0.485063
0.279614
0.158351
0.0234151
-0.120182
-0.260507
-0.37411
-0.331635
-0.339319
-0.556753
-0.524315
-0.544087
-0.4176
-0.332576
-0.180842
0.0352021
0.182406
0.366633
0.351624
0.436128
0.40835
0.321514
0.08176
-0.0237684
-0.132958
-0.241025
-0.301134
-0.305146
-0.253397
-0.465547
-0.440641
-0.54481
-0.409322
-0.302945
-0.174145
0.0398913
0.0802719
0.250191
0.350576
0.33154
0.307837
0.215757
0.156744
0.0331977
-0.0704258
-0.278582
-0.229617
-0.239905
-0.266525
-0.332371
-0.442071
-0.347858
-0.244788
-0.230401
-0.164591
0.0074142
0.128299
0.274899
0.193797
0.269034
0.250081
0.190974
0.0723644
0.0304448
-0.12874
-0.121489
-0.282229
-0.159034
-0.15166
-0.271601
-0.322285
-0.259966
-0.215539
-0.218327
-0.0807536
-0.0684141
0.0726699
0.174593
0.213988
0.231792
0.195624
0.135861
0.00672571
0.0766957
-0.0663472
-0.129063
-0.178152
-0.144548
-0.154871
-0.216165
-0.181
-0.166197
-0.173143
-0.129129
-0.0429008
0.0206699
0.0822861
0.0653339
0.136816
0.186554
0.142169
0.0626534
0.0149821
0.0120932
-0.0540586
-0.0967231
-0.182186
-0.109373
-0.134123
-0.155522
-0.143324
-0.167064
-0.133246
-0.0927514
-0.105942
-0.0157819
0.0275247
0.0502967
0.0699512
0.0968037
0.0299699
0.0524448
0.0412333
0.0200113
-0.0657244
-0.0756399
-0.0257369
-0.0333572
-0.119582
0.023241
-0.0507334
-0.000941653
0.00405121
-0.00471592
0.0507863
0.0265782
-0.0594616
0.0154296
-0.00986287
0.0811339
-0.012219
0.020029
0.0177264
-0.0451955
-0.0160073
0.0160622
-0.0429893
-0.0600634
-0.0384786
-1.12322
-1.17698
-1.2941
-1.23657
-1.05548
-1.04142
-0.87226
-0.631296
-0.627853
-0.529303
-0.491268
-0.543362
-0.548957
-0.735896
-0.8894
-0.942861
-1.10219
-1.09166
-1.0603
-1.02714
-0.932709
-1.04048
-1.14447
-1.03893
-0.975317
-0.867329
-0.762119
-0.603364
-0.508617
-0.434483
-0.389262
-0.456914
-0.533766
-0.692878
-0.772629
-0.846196
-0.960644
-0.987481
-0.898992
-0.820597
-0.862188
-0.897045
-0.947351
-0.877187
-0.861584
-0.687278
-0.63961
-0.503635
-0.393696
-0.319115
-0.313698
-0.373511
-0.458656
-0.607002
-0.663258
-0.703865
-0.841795
-0.781667
-0.772456
-0.679409
-0.657008
-0.687121
-0.789182
-0.689479
-0.706378
-0.624207
-0.518242
-0.450466
-0.335532
-0.274464
-0.28058
-0.286528
-0.347359
-0.407339
-0.587147
-0.578246
-0.661736
-0.666497
-0.649157
-0.559316
-0.590203
-0.58831
-0.502897
-0.604424
-0.584854
-0.528665
-0.412559
-0.398723
-0.191091
-0.214888
-0.196463
-0.272153
-0.251209
-0.33385
-0.439624
-0.465472
-0.489089
-0.461854
-0.522816
-0.486334
-0.397302
-0.420372
-0.476598
-0.459937
-0.36645
-0.346431
-0.287472
-0.221368
-0.199203
-0.137521
-0.117593
-0.184174
-0.305205
-0.199419
-0.304165
-0.318879
-0.344563
-0.332841
-0.332707
-0.397986
-0.233518
-0.197448
-0.218219
-0.162197
-0.225459
-0.1611
-0.134708
-0.148377
-0.126031
-0.110158
-0.0899046
-0.177142
-0.126212
-0.144475
-0.209278
-0.203807
-0.18913
-0.172247
-0.227316
-0.255876
-0.084135
-0.15905
-0.143784
-0.0718668
-0.062809
-0.0387411
0.0144506
-0.06793
0.0345816
-0.00528769
-0.0629974
-0.0364783
-0.0463492
0.0315558
-0.0482665
-0.0510705
-0.0723047
-0.112017
-0.0956032
-0.0406657
-1.63263
-1.72524
-1.81195
-1.82794
-1.80565
-1.79084
-1.6272
-1.54913
-1.40381
-1.38727
-1.31502
-1.38496
-1.47632
-1.53629
-1.64839
-1.70905
-1.76153
-1.68012
-1.67488
-1.58909
-1.37707
-1.43949
-1.59472
-1.55676
-1.58898
-1.55958
-1.44282
-1.28917
-1.1643
-1.11193
-1.08361
-1.1465
-1.26604
-1.329
-1.46701
-1.54065
-1.5501
-1.49711
-1.38337
-1.30674
-1.15435
-1.30703
-1.27888
-1.34986
-1.31436
-1.30318
-1.21056
-1.04021
-1.0448
-1.05516
-1.01519
-1.03223
-1.08859
-1.15802
-1.16511
-1.30205
-1.28793
-1.31282
-1.22611
-1.10043
-0.904271
-1.03225
-1.11817
-1.07171
-1.10595
-0.999259
-0.980282
-0.855292
-0.821957
-0.851935
-0.844442
-0.803623
-0.888932
-0.913672
-0.998008
-1.03126
-1.07797
-1.04497
-0.886023
-0.930034
-0.649662
-0.832363
-0.871176
-0.839956
-0.872498
-0.80556
-0.84191
-0.727828
-0.632426
-0.591293
-0.624461
-0.652505
-0.657184
-0.726915
-0.741828
-0.802458
-0.875692
-0.732409
-0.745852
-0.75115
-0.593303
-0.565773
-0.660946
-0.557122
-0.568333
-0.557207
-0.454728
-0.545075
-0.492276
-0.486775
-0.414152
-0.395285
-0.484278
-0.549784
-0.547208
-0.553829
-0.595248
-0.545039
-0.565328
-0.496352
-0.296803
-0.35709
-0.404011
-0.3858
-0.354232
-0.388539
-0.276276
-0.31509
-0.255507
-0.317376
-0.215037
-0.221283
-0.333697
-0.282499
-0.345906
-0.414012
-0.401121
-0.374886
-0.327589
-0.27097
-0.133696
-0.14263
-0.108106
-0.11196
-0.109303
-0.13307
-0.10663
-0.0773455
-0.115927
-0.106585
-0.108931
-0.10325
-0.163249
-0.070304
-0.113354
-0.144421
-0.144564
-0.0913663
-0.136579
-0.0978887
-1.93381
-2.0644
-2.39074
-2.38784
-2.36868
-2.28855
-2.25328
-2.24043
-2.16577
-2.0913
-2.12218
-2.20293
-2.19091
-2.29581
-2.34191
-2.29596
-2.32733
-2.27133
-2.11999
-1.99474
-1.67184
-1.88202
-2.05075
-2.04852
-2.03007
-2.07308
-1.99798
-1.9546
-1.84472
-1.8339
-1.76406
-1.84556
-1.95092
-2.04462
-2.01696
-2.0713
-1.96729
-1.92155
-1.84485
-1.70807
-1.42278
-1.57203
-1.58478
-1.76287
-1.78344
-1.74674
-1.66087
-1.65539
-1.52867
-1.51473
-1.55919
-1.58005
-1.58778
-1.69636
-1.69923
-1.73881
-1.75988
-1.69099
-1.52988
-1.45801
-1.19149
-1.24666
-1.35254
-1.40273
-1.42152
-1.38371
-1.42134
-1.32312
-1.26099
-1.24192
-1.28305
-1.21814
-1.2837
-1.32272
-1.48857
-1.37096
-1.38874
-1.27489
-1.25444
-1.20924
-0.918388
-0.939731
-1.06131
-1.11968
-1.15942
-1.1001
-1.07901
-1.09227
-0.98252
-1.0318
-1.00416
-1.01226
-1.06187
-1.0809
-1.06719
-1.07241
-1.08139
-0.99425
-0.923021
-0.938626
-0.616632
-0.721371
-0.77866
-0.792511
-0.792248
-0.789022
-0.686105
-0.743957
-0.725603
-0.687257
-0.729179
-0.712007
-0.747093
-0.768836
-0.716156
-0.755968
-0.830874
-0.684889
-0.640722
-0.672653
-0.436477
-0.5116
-0.398171
-0.48483
-0.544581
-0.485899
-0.505493
-0.480305
-0.444121
-0.424024
-0.406966
-0.397755
-0.452673
-0.425742
-0.34657
-0.420711
-0.551988
-0.430046
-0.391036
-0.34995
-0.0711073
-0.132246
-0.202209
-0.224156
-0.238771
-0.174571
-0.147284
-0.156367
-0.0939517
-0.186274
-0.101592
-0.0987367
-0.130272
-0.180151
-0.180199
-0.13142
-0.158879
-0.15763
-0.155343
-0.123103
-2.21238
-2.42779
-2.57326
-2.80537
-2.72027
-2.86969
-2.86919
-2.82555
-2.76743
-2.72068
-2.77013
-2.84903
-2.85917
-2.86114
-2.94373
-2.88439
-2.85051
-2.69037
-2.53155
-2.28353
-1.83029
-2.0691
-2.23008
-2.35173
-2.42903
-2.4206
-2.45169
-2.45391
-2.40099
-2.38225
-2.35284
-2.43024
-2.47315
-2.46547
-2.59988
-2.54333
-2.38601
-2.35198
-2.14038
-1.996
-1.57591
-1.76788
-1.85566
-1.94736
-2.07616
-2.05212
-2.02618
-2.06057
-2.00207
-2.00887
-2.04801
-2.0757
-2.0567
-2.04521
-2.11827
-2.01983
-2.04626
-1.94634
-1.77707
-1.67285
-1.37504
-1.38498
-1.54262
-1.66454
-1.69522
-1.70915
-1.69559
-1.68327
-1.64457
-1.61758
-1.68981
-1.69284
-1.65278
-1.66133
-1.719
-1.7023
-1.70277
-1.57239
-1.53838
-1.39776
-1.01877
-1.13819
-1.19776
-1.2378
-1.30067
-1.33108
-1.30571
-1.22344
-1.22169
-1.34395
-1.29517
-1.23666
-1.29044
-1.38858
-1.39891
-1.3099
-1.28761
-1.29439
-1.20043
-1.02551
-0.791103
-0.815432
-0.868479
-0.944267
-0.905386
-0.995032
-0.92013
-0.940109
-0.878017
-0.910733
-0.895295
-0.878839
-0.881826
-0.925452
-0.930341
-0.967981
-0.887083
-0.913569
-0.770924
-0.792404
-0.398631
-0.40976
-0.473593
-0.514563
-0.491365
-0.529861
-0.632506
-0.544817
-0.573045
-0.511499
-0.558731
-0.619866
-0.56933
-0.571969
-0.612528
-0.498581
-0.584972
-0.535959
-0.509961
-0.484025
-0.12225
-0.139578
-0.142328
-0.21098
-0.256619
-0.17362
-0.173397
-0.184219
-0.154792
-0.221552
-0.155161
-0.158647
-0.217658
-0.16417
-0.154983
-0.261803
-0.252594
-0.163761
-0.113302
-0.107668
-2.29501
-2.54495
-2.81677
-2.99073
-3.07638
-3.23711
-3.27356
-3.19427
-3.26787
-3.2394
-3.2493
-3.28298
-3.36609
-3.34297
-3.3427
-3.30294
-3.1073
-2.98062
-2.79502
-2.55765
-1.97252
-2.16357
-2.38535
-2.52221
-2.63503
-2.75376
-2.80884
-2.77361
-2.78283
-2.85897
-2.86738
-2.83384
-2.85386
-2.90132
-2.88795
-2.89804
-2.67187
-2.62041
-2.46171
-2.20596
-1.7132
-1.88163
-2.0026
-2.16425
-2.26347
-2.3625
-2.38343
-2.39876
-2.45623
-2.43263
-2.42325
-2.4533
-2.38144
-2.46167
-2.43628
-2.40989
-2.28793
-2.20004
-2.00173
-1.83309
-1.38251
-1.57875
-1.65126
-1.73097
-1.87065
-1.90402
-1.95393
-1.97217
-1.99681
-1.99876
-1.96307
-1.90212
-1.99182
-2.04814
-1.97538
-1.86966
-1.87915
-1.77403
-1.60277
-1.49657
-1.03738
-1.17677
-1.27925
-1.35818
-1.46223
-1.51172
-1.51744
-1.49194
-1.52882
-1.47248
-1.5342
-1.42534
-1.58115
-1.5052
-1.61205
-1.46261
-1.43729
-1.39885
-1.30814
-1.20715
-0.753937
-0.79754
-0.829489
-1.05318
-1.00332
-1.05353
-1.05531
-1.04317
-1.07118
-1.11444
-1.05041
-1.11299
-1.13479
-1.0623
-1.1142
-1.06423
-1.00289
-0.964129
-0.897764
-0.871244
-0.452532
-0.476774
-0.589869
-0.57197
-0.645378
-0.667913
-0.716057
-0.62259
-0.643295
-0.699651
-0.607338
-0.656343
-0.661033
-0.713195
-0.65862
-0.64193
-0.633763
-0.505102
-0.500641
-0.503977
-0.0869937
-0.164808
-0.168557
-0.150784
-0.247383
-0.174681
-0.208808
-0.227622
-0.200478
-0.24724
-0.243115
-0.234508
-0.293562
-0.235716
-0.232297
-0.238056
-0.266788
-0.183237
-0.224887
-0.171604
-2.39291
-2.65116
-2.91972
-3.1525
-3.36442
-3.438
-3.53626
-3.54133
-3.62585
-3.69776
-3.68653
-3.73157
-3.66406
-3.71411
-3.69846
-3.51265
-3.35867
-3.1106
-2.92545
-2.6567
-2.00103
-2.31964
-2.50313
-2.73275
-2.83075
-3.02386
-3.13743
-3.0751
-3.13475
-3.1251
-3.1411
-3.16559
-3.24216
-3.22798
-3.1653
-3.02299
-2.93779
-2.73583
-2.55207
-2.23445
-1.73163
-1.88354
-2.05563
-2.25872
-2.3562
-2.47361
-2.60375
-2.59765
-2.64585
-2.66531
-2.66257
-2.67174
-2.74626
-2.62794
-2.67969
-2.54245
-2.52313
-2.24291
-2.11762
-1.88183
-1.3666
-1.45968
-1.68708
-1.84256
-1.9229
-2.09151
-2.10076
-2.15073
-2.11415
-2.21274
-2.24093
-2.16324
-2.19683
-2.21009
-2.24007
-2.1404
-1.95466
-1.88043
-1.73083
-1.56553
-1.11484
-1.14011
-1.3271
-1.44721
-1.51344
-1.58853
-1.59365
-1.66721
-1.63086
-1.7175
-1.65603
-1.73851
-1.77179
-1.6646
-1.62525
-1.59724
-1.53956
-1.45865
-1.31186
-1.21837
-0.759885
-0.808051
-0.94848
-1.02008
-1.07302
-1.14122
-1.17733
-1.20505
-1.12167
-1.14327
-1.18557
-1.18113
-1.20868
-1.20592
-1.19386
-1.16949
-1.11878
-1.08046
-0.964017
-0.902224
-0.449074
-0.477586
-0.540167
-0.671542
-0.652936
-0.688241
-0.703982
-0.730098
-0.685017
-0.739381
-0.742232
-0.731934
-0.73126
-0.71519
-0.625792
-0.71552
-0.610835
-0.635868
-0.555627
-0.522204
-0.199639
-0.157437
-0.167762
-0.193957
-0.323871
-0.285262
-0.238595
-0.304178
-0.195898
-0.206845
-0.235135
-0.275964
-0.19498
-0.280913
-0.18084
-0.279206
-0.212533
-0.22508
-0.166198
-0.111192
-2.20022
-2.50495
-2.83357
-3.16187
-3.379
-3.54323
-3.609
-3.75413
-3.85915
-3.90474
-3.90604
-3.90623
-3.82951
-3.85801
-3.78453
-3.69963
-3.55834
-3.27543
-2.97322
-2.58339
-1.88221
-2.15581
-2.47253
-2.66939
-2.85328
-3.03178
-3.22647
-3.32336
-3.32978
-3.39978
-3.34854
-3.35677
-3.3619
-3.31907
-3.28584
-3.16107
-2.99831
-2.81319
-2.4788
-2.21431
-1.61007
-1.72082
-2.09257
-2.25134
-2.37654
-2.59404
-2.61141
-2.76095
-2.80564
-2.8051
-2.83116
-2.83466
-2.83132
-2.78141
-2.68114
-2.6341
-2.5358
-2.28039
-2.06687
-1.92437
-1.24772
-1.44964
-1.66697
-1.88599
-2.0657
-2.09649
-2.18953
-2.21572
-2.31218
-2.25951
-2.32305
-2.27351
-2.26001
-2.29308
-2.27804
-2.12322
-2.06403
-1.88618
-1.72964
-1.58139
-1.04953
-1.15686
-1.3222
-1.4363
-1.57649
-1.65179
-1.66343
-1.72454
-1.8205
-1.81008
-1.70811
-1.81372
-1.75464
-1.72169
-1.77138
-1.7189
-1.61244
-1.47244
-1.35976
-1.27058
-0.665016
-0.775724
-0.868222
-1.07629
-1.16962
-1.19548
-1.19676
-1.19872
-1.2652
-1.26145
-1.23576
-1.2737
-1.27734
-1.29799
-1.22468
-1.24324
-1.14228
-1.02144
-0.971149
-0.867172
-0.452661
-0.540061
-0.569424
-0.5941
-0.665477
-0.71562
-0.742888
-0.717676
-0.833752
-0.751486
-0.696508
-0.747169
-0.803131
-0.791569
-0.734047
-0.727359
-0.674646
-0.618153
-0.568221
-0.520116
-0.172737
-0.18181
-0.179545
-0.255166
-0.186886
-0.249799
-0.214518
-0.235512
-0.292191
-0.320954
-0.26081
-0.25608
-0.308077
-0.239205
-0.315971
-0.234924
-0.214084
-0.226874
-0.17739
-0.103855
-1.94536
-2.27284
-2.71169
-3.02916
-3.37034
-3.51556
-3.75323
-3.84993
-3.89852
-3.99007
-3.95124
-3.91168
-3.93792
-3.97696
-3.79501
-3.62759
-3.39437
-3.12161
-2.7738
-2.40921
-1.66687
-2.02195
-2.32503
-2.6273
-2.84674
-3.05982
-3.23587
-3.33833
-3.39504
-3.42406
-3.46389
-3.36892
-3.43973
-3.37461
-3.21575
-3.14872
-2.9634
-2.65747
-2.33991
-2.11924
-1.37237
-1.66626
-1.90987
-2.13367
-2.36872
-2.5855
-2.73884
-2.7772
-2.77439
-2.82343
-2.87397
-2.87622
-2.91107
-2.82418
-2.77274
-2.6844
-2.5504
-2.27144
-2.02355
-1.78218
-1.09242
-1.30885
-1.47891
-1.77251
-1.94352
-2.04128
-2.12534
-2.24768
-2.30791
-2.32364
-2.34367
-2.35989
-2.3385
-2.35987
-2.21122
-2.12681
-2.03162
-1.88021
-1.64648
-1.43743
-0.825869
-1.01897
-1.22541
-1.33153
-1.49636
-1.60897
-1.65475
-1.81854
-1.72771
-1.77273
-1.86887
-1.84525
-1.83856
-1.87758
-1.76389
-1.68132
-1.68178
-1.41625
-1.25935
-1.16822
-0.59736
-0.717367
-0.825251
-0.993178
-1.03688
-1.18782
-1.19786
-1.28637
-1.32106
-1.2788
-1.32309
-1.25845
-1.2635
-1.28369
-1.20946
-1.20621
-1.11514
-1.02737
-0.911157
-0.813528
-0.429808
-0.417003
-0.419805
-0.615256
-0.608026
-0.705886
-0.714983
-0.734165
-0.722445
-0.813247
-0.792468
-0.79482
-0.784034
-0.707948
-0.817215
-0.683783
-0.722228
-0.656927
-0.599228
-0.453857
-0.170393
-0.186376
-0.11765
-0.243549
-0.215207
-0.199222
-0.207936
-0.212294
-0.248978
-0.237682
-0.206988
-0.261962
-0.330928
-0.204249
-0.244411
-0.229085
-0.23676
-0.201941
-0.204934
-0.224557
-1.54324
-1.86626
-2.3256
-2.74555
-3.01157
-3.33783
-3.52049
-3.651
-3.79391
-3.83635
-3.95438
-3.88066
-3.8613
-3.74136
-3.66627
-3.47145
-3.2601
-2.82839
-2.48416
-2.11743
-1.26218
-1.61964
-1.97827
-2.41761
-2.62547
-2.89556
-3.07217
-3.17404
-3.20495
-3.34969
-3.38423
-3.37976
-3.32949
-3.24309
-3.17034
-3.05555
-2.8174
-2.48389
-2.16818
-1.78139
-1.11637
-1.34287
-1.70738
-1.95432
-2.23877
-2.42255
-2.60445
-2.66921
-2.79042
-2.74718
-2.82553
-2.82739
-2.78213
-2.73727
-2.64807
-2.50772
-2.31639
-2.05126
-1.76626
-1.53431
-0.879037
-1.1249
-1.41345
-1.61865
-1.69144
-1.95112
-2.06784
-2.21056
-2.25287
-2.2124
-2.31546
-2.28187
-2.30141
-2.25521
-2.17772
-2.01248
-1.9312
-1.69109
-1.44964
-1.20654
-0.722537
-0.856317
-1.05668
-1.22566
-1.4072
-1.50281
-1.63737
-1.67675
-1.75199
-1.76771
-1.72441
-1.74787
-1.79773
-1.7343
-1.73736
-1.56174
-1.45787
-1.34336
-1.12316
-0.988842
-0.46872
-0.580428
-0.742368
-0.871501
-0.953768
-1.12046
-1.22241
-1.18911
-1.24247
-1.27921
-1.21652
-1.31594
-1.23613
-1.22145
-1.14679
-1.13263
-1.05998
-1.00589
-0.799381
-0.636426
-0.263035
-0.37673
-0.431944
-0.501328
-0.615199
-0.610964
-0.753941
-0.753802
-0.71071
-0.775466
-0.814075
-0.785033
-0.836448
-0.776389
-0.743512
-0.683046
-0.629369
-0.537492
-0.482905
-0.445853
-0.161459
-0.136771
-0.121224
-0.156385
-0.232291
-0.174001
-0.218361
-0.249412
-0.300271
-0.288172
-0.233698
-0.257935
-0.289129
-0.24455
-0.241645
-0.245067
-0.215924
-0.203118
-0.161079
-0.160927
-0.963228
-1.44263
-1.88736
-2.37359
-2.74059
-3.08488
-3.20915
-3.42056
-3.5343
-3.61873
-3.73077
-3.70029
-3.68258
-3.53658
-3.36971
-3.15672
-2.94041
-2.45472
-2.09781
-1.69123
-0.831398
-1.21863
-1.61128
-2.0457
-2.34076
-2.52496
-2.79423
-2.95016
-3.04968
-3.11653
-3.09617
-3.11928
-3.16735
-3.02756
-2.89581
-2.6835
-2.46253
-2.16647
-1.79599
-1.42726
-0.602713
-1.01069
-1.42359
-1.71749
-1.90191
-2.11823
-2.3112
-2.5132
-2.5347
-2.64959
-2.63811
-2.68669
-2.61858
-2.52094
-2.42761
-2.28157
-2.06266
-1.79478
-1.4801
-1.1746
-0.523118
-0.761073
-1.05246
-1.35251
-1.5403
-1.79776
-1.90589
-2.05053
-2.08917
-2.0747
-2.18512
-2.15634
-2.09104
-2.0156
-1.97286
-1.87509
-1.69692
-1.42984
-1.18445
-0.948767
-0.416928
-0.607664
-0.81498
-1.08356
-1.23006
-1.39082
-1.43893
-1.57694
-1.66459
-1.71203
-1.64981
-1.65818
-1.66186
-1.59163
-1.55796
-1.46107
-1.2162
-1.12448
-0.892628
-0.726317
-0.379269
-0.453814
-0.569963
-0.730275
-0.845937
-0.936319
-1.05388
-1.10002
-1.12077
-1.15393
-1.21192
-1.1696
-1.16208
-1.15661
-1.02658
-1.04404
-0.910668
-0.823593
-0.64412
-0.525005
-0.190452
-0.24453
-0.354318
-0.462222
-0.452129
-0.549059
-0.635067
-0.624196
-0.741477
-0.722406
-0.730591
-0.692437
-0.675614
-0.677962
-0.639513
-0.517326
-0.506629
-0.503309
-0.319072
-0.413799
-0.06358
-0.0624463
-0.052769
-0.0919239
-0.158607
-0.192902
-0.240613
-0.219514
-0.200887
-0.180972
-0.295924
-0.247115
-0.256071
-0.237886
-0.269677
-0.205856
-0.166983
-0.185916
-0.149242
-0.137154
-0.37034
-0.837426
-1.34982
-1.76399
-2.22557
-2.53575
-2.80853
-3.0164
-3.19475
-3.22197
-3.2821
-3.32296
-3.21936
-3.11449
-3.01251
-2.7643
-2.45464
-2.0179
-1.60342
-1.15133
-0.262746
-0.686202
-1.16497
-1.56838
-1.89988
-2.18361
-2.42444
-2.58933
-2.71279
-2.80903
-2.83494
-2.83429
-2.75867
-2.71443
-2.57568
-2.33055
-2.09375
-1.72104
-1.34834
-0.980124
-0.167053
-0.593109
-0.88977
-1.23942
-1.64892
-1.80919
-2.04615
-2.10607
-2.25868
-2.30377
-2.30558
-2.34453
-2.31202
-2.33335
-2.17273
-1.92833
-1.69457
-1.36834
-1.07249
-0.791017
-0.145605
-0.436685
-0.675677
-1.05477
-1.26317
-1.50629
-1.58002
-1.80777
-1.87057
-1.95886
-1.95952
-1.90318
-1.90968
-1.8476
-1.72522
-1.61089
-1.35036
-1.20982
-0.886682
-0.63686
-0.0939333
-0.362533
-0.583181
-0.747215
-1.01831
-1.233
-1.2754
-1.28979
-1.47526
-1.46398
-1.49987
-1.56918
-1.50953
-1.4498
-1.32257
-1.23183
-1.05519
-0.951392
-0.691424
-0.426541
-0.0637951
-0.290755
-0.421367
-0.550356
-0.608855
-0.832459
-0.866751
-0.941223
-1.05693
-1.07306
-1.01834
-1.13935
-0.973737
-1.00087
-0.983834
-0.87669
-0.702913
-0.668772
-0.543735
-0.395832
-0.0793188
-0.126377
-0.208038
-0.349426
-0.391835
-0.476171
-0.586715
-0.560978
-0.664012
-0.681473
-0.614273
-0.652616
-0.565677
-0.621015
-0.609382
-0.509396
-0.437006
-0.389119
-0.314796
-0.225643
0.00140989
0.00416335
-0.0718128
-0.134253
-0.144608
-0.146654
-0.183846
-0.2027
-0.187332
-0.177242
-0.219298
-0.265558
-0.226715
-0.183584
-0.109083
-0.17024
-0.127915
-0.168573
-0.12256
-0.0571114
0.342321
-0.107829
-0.732463
-1.2701
-1.6461
-2.01022
-2.21966
-2.53905
-2.74681
-2.75732
-2.90231
-2.9036
-2.83505
-2.65636
-2.47203
-2.1983
-1.83491
-1.47826
-0.995295
-0.509544
0.309864
-0.122433
-0.552809
-0.990357
-1.42131
-1.73036
-1.99244
-2.24392
-2.32988
-2.37367
-2.51933
-2.44709
-2.49063
-2.21137
-2.13844
-1.92033
-1.60375
-1.24599
-0.81912
-0.463099
0.315208
-0.0561263
-0.429808
-0.844779
-1.18064
-1.39489
-1.65685
-1.84353
-1.94446
-2.06518
-2.01448
-2.1246
-2.00265
-1.90194
-1.75186
-1.58012
-1.33624
-1.02111
-0.672496
-0.360465
0.298022
-0.00414937
-0.312024
-0.700823
-0.982432
-1.1541
-1.31955
-1.51279
-1.52543
-1.63604
-1.61562
-1.60851
-1.64889
-1.55927
-1.45327
-1.31082
-1.02049
-0.816161
-0.532234
-0.286612
0.171828
-0.0430907
-0.277512
-0.502804
-0.70412
-0.875734
-1.01632
-1.12902
-1.20176
-1.2618
-1.29607
-1.23425
-1.24731
-1.19645
-1.06487
-0.973814
-0.820363
-0.62023
-0.48717
-0.13354
0.153652
0.00655738
-0.238627
-0.295952
-0.52089
-0.57254
-0.758979
-0.86819
-0.882183
-0.858144
-0.941667
-0.880851
-0.896448
-0.836841
-0.853726
-0.739759
-0.575829
-0.46683
-0.321274
-0.116372
0.0593245
0.00968111
-0.149551
-0.172289
-0.293345
-0.330329
-0.385219
-0.490411
-0.577448
-0.544935
-0.541878
-0.495711
-0.529825
-0.51238
-0.50104
-0.471706
-0.350288
-0.32742
-0.176986
-0.0641419
-0.0207108
0.00582296
-0.0852013
-0.105772
-0.122968
-0.124337
-0.169595
-0.146795
-0.186919
-0.156424
-0.182969
-0.155347
-0.181982
-0.168142
-0.115559
-0.200849
-0.125377
-0.0385386
-0.0682003
-0.0256593
0.906217
0.361717
-0.172568
-0.664077
-1.08196
-1.55224
-1.7627
-2.09165
-2.25888
-2.45262
-2.42157
-2.42473
-2.40301
-2.30816
-2.0328
-1.71034
-1.39811
-0.900452
-0.5326
-0.0292162
0.812172
0.295858
-0.129365
-0.489239
-0.973775
-1.34517
-1.61179
-1.79738
-1.98808
-2.11736
-2.08301
-2.09748
-2.08084
-2.01009
-1.73804
-1.49477
-1.22549
-0.756442
-0.422087
-0.0449922
0.654727
0.303737
-0.0610961
-0.541631
-0.814352
-1.08491
-1.34842
-1.54701
-1.69644
-1.79976
-1.75611
-1.83217
-1.76464
-1.60561
-1.56202
-1.27038
-1.02958
-0.682367
-0.323752
-0.0838006
0.522996
0.261145
-0.0961518
-0.448019
-0.624228
-0.900292
-1.10778
-1.28938
-1.37643
-1.40469
-1.43862
-1.39602
-1.45345
-1.35925
-1.21014
-1.06396
-0.911795
-0.612294
-0.317994
0.0786383
0.34966
0.133171
-0.0417189
-0.324735
-0.522086
-0.777376
-0.876649
-1.02246
-1.08472
-1.10939
-1.11924
-1.14812
-1.1345
-1.0412
-0.938532
-0.882484
-0.650032
-0.383215
-0.205556
0.0259566
0.247395
0.094551
-0.0658193
-0.229504
-0.424839
-0.494233
-0.531374
-0.721286
-0.729976
-0.774391
-0.79571
-0.826872
-0.797784
-0.704575
-0.667572
-0.614758
-0.467209
-0.30199
-0.18889
0.0123835
0.182272
0.0554219
-0.0420221
-0.121554
-0.253362
-0.304214
-0.365306
-0.369473
-0.447697
-0.507916
-0.524133
-0.486309
-0.463847
-0.407092
-0.403527
-0.343169
-0.283131
-0.134526
-0.0401523
-0.0378046
0.0600341
0.0672173
0.0109481
-0.0514235
-0.0202484
-0.130908
-0.140183
-0.117933
-0.202963
-0.110483
-0.162392
-0.194781
-0.102772
-0.140657
-0.176652
-0.131402
-0.115245
-0.114353