/*--------------------------------*- C++ -*----------------------------------*\
| =========                 |                                                 |
| \\      /  F ield         | OpenFOAM: The Open Source CFD Toolbox           |
|  \\    /   O peration     | Version:  2212                                  |
|   \\  /    A nd           | Website:  www.openfoam.com                      |
|    \\/     M anipulation  |                                                 |
\*---------------------------------------------------------------------------*/
FoamFile
{
    version     2.0;
    format      ascii;
    arch        "LSB;label=32;scalar=64";
    class       volScalarField;
    location    "0";
    object      stateMean;
}
// * * * * * * * * * * * * * * * * * * * * * * * * * * * * * * * * * * * * * //

dimensions      [0 0 0 1 0 0 0];

internalField   nonuniform List<scalar> 
3200
(
318.139
318.32
318.543
318.775
318.897
319.078
319.197
319.246
319.227
319.254
319.132
319.113
318.993
318.836
318.557
318.382
318.198
317.977
317.595
317.277
315.865
316.078
316.294
316.385
316.494
316.694
316.733
316.801
316.773
316.764
316.766
316.664
316.565
316.418
316.32
316.105
315.895
315.617
315.346
315.134
313.507
313.683
313.83
314.013
314.105
314.195
314.29
314.344
314.389
314.327
314.257
314.249
314.14
313.98
313.859
313.696
313.521
313.419
313.108
312.985
311.07
311.226
311.403
311.469
311.645
311.63
311.79
311.8
311.887
311.767
311.726
311.677
311.613
311.522
311.412
311.253
311.172
310.9
310.812
310.681
308.725
308.784
308.87
309.041
309.118
309.115
309.236
309.251
309.148
309.189
309.185
309.182
309.017
309.023
308.933
308.797
308.666
308.584
308.445
308.374
306.288
306.329
306.421
306.417
306.546
306.523
306.588
306.654
306.649
306.564
306.555
306.56
306.534
306.493
306.378
306.32
306.264
306.163
306.012
305.911
303.773
303.787
303.931
303.895
303.937
303.932
304.027
303.991
304.002
303.938
303.986
303.985
303.966
303.906
303.874
303.824
303.798
303.713
303.617
303.581
301.247
301.336
301.26
301.347
301.29
301.283
301.325
301.295
301.334
301.245
301.296
301.316
301.294
301.228
301.325
301.28
301.265
301.225
301.139
301.232
318.854
319.034
319.352
319.577
319.656
319.906
319.924
319.966
319.996
319.973
319.94
319.826
319.765
319.62
319.47
319.179
318.98
318.684
318.428
318.106
316.434
316.635
316.882
317.016
317.21
317.292
317.399
317.501
317.395
317.444
317.418
317.33
317.206
317.017
316.928
316.737
316.562
316.221
315.987
315.846
313.986
314.147
314.299
314.462
314.611
314.753
314.814
314.861
314.821
314.902
314.912
314.751
314.691
314.536
314.385
314.258
314.071
313.846
313.589
313.424
311.473
311.627
311.808
311.975
311.994
312.129
312.245
312.2
312.213
312.223
312.208
312.146
312.013
311.922
311.861
311.726
311.537
311.427
311.176
311.029
308.902
308.985
309.179
309.316
309.398
309.523
309.451
309.499
309.574
309.551
309.491
309.53
309.377
309.336
309.273
309.145
309.033
308.886
308.76
308.641
306.425
306.513
306.626
306.663
306.792
306.785
306.838
306.85
306.87
306.822
306.839
306.766
306.794
306.735
306.581
306.559
306.471
306.336
306.301
306.217
303.875
303.973
304.03
304.05
304.044
304.121
304.115
304.033
304.091
304.144
304.121
304.082
304.06
303.968
304.012
303.87
303.91
303.882
303.776
303.736
301.271
301.282
301.328
301.381
301.397
301.431
301.377
301.334
301.471
301.417
301.391
301.316
301.368
301.277
301.293
301.359
301.344
301.283
301.199
301.266
319.734
319.941
320.376
320.555
320.731
320.864
320.942
321.146
321.08
321.081
321.033
321.037
320.841
320.672
320.547
320.275
319.981
319.709
319.373
319.021
317.178
317.414
317.68
317.9
318.058
318.24
318.3
318.328
318.347
318.429
318.452
318.305
318.191
318.043
317.943
317.686
317.404
317.143
316.919
316.656
314.6
314.795
315.041
315.234
315.303
315.478
315.504
315.579
315.646
315.618
315.601
315.595
315.439
315.422
315.211
314.996
314.836
314.534
314.288
314.177
312.002
312.214
312.299
312.476
312.584
312.641
312.747
312.776
312.831
312.818
312.819
312.81
312.754
312.64
312.499
312.37
312.217
311.985
311.761
311.582
309.292
309.448
309.666
309.79
309.871
309.936
309.966
310.034
310.068
309.992
309.955
309.931
309.867
309.896
309.703
309.625
309.508
309.35
309.26
309.072
306.695
306.769
306.945
306.984
307.024
307.046
307.13
307.238
307.179
307.155
307.14
307.174
307.046
307.06
306.908
306.894
306.812
306.66
306.622
306.463
303.995
304.124
304.141
304.215
304.218
304.257
304.357
304.286
304.364
304.325
304.283
304.289
304.298
304.261
304.189
304.111
304.065
304.02
303.996
303.927
301.346
301.395
301.339
301.385
301.372
301.483
301.449
301.46
301.429
301.421
301.46
301.461
301.378
301.414
301.387
301.379
301.379
301.384
301.289
301.25
320.771
321.058
321.371
321.559
321.809
321.983
322.261
322.244
322.251
322.352
322.25
322.199
322.094
321.918
321.642
321.424
321.082
320.889
320.501
320.156
318.047
318.267
318.585
318.883
319.076
319.213
319.283
319.373
319.354
319.425
319.337
319.267
319.212
319.138
318.852
318.636
318.401
318.177
317.847
317.521
315.35
315.56
315.803
316.055
316.15
316.326
316.454
316.435
316.427
316.508
316.505
316.421
316.335
316.216
316.084
315.837
315.662
315.446
315.178
314.95
312.598
312.777
312.925
313.084
313.31
313.419
313.485
313.532
313.492
313.492
313.53
313.425
313.398
313.286
313.204
313.037
312.806
312.663
312.508
312.251
309.856
309.949
310.088
310.25
310.353
310.443
310.46
310.581
310.54
310.595
310.531
310.483
310.372
310.335
310.271
310.152
309.997
309.897
309.761
309.51
307.098
307.151
307.262
307.384
307.422
307.45
307.523
307.546
307.575
307.632
307.548
307.554
307.44
307.381
307.405
307.294
307.154
307.096
306.937
306.88
304.214
304.297
304.371
304.373
304.455
304.478
304.525
304.53
304.459
304.61
304.563
304.539
304.538
304.451
304.42
304.396
304.296
304.263
304.206
304.088
301.43
301.438
301.485
301.481
301.417
301.5
301.538
301.541
301.542
301.576
301.501
301.479
301.464
301.529
301.505
301.446
301.442
301.416
301.407
301.381
321.813
322.093
322.455
322.749
322.95
323.189
323.379
323.555
323.511
323.54
323.512
323.437
323.324
323.126
322.821
322.655
322.381
321.951
321.61
321.29
318.985
319.234
319.562
319.786
320.035
320.215
320.363
320.442
320.519
320.495
320.486
320.424
320.297
320.167
319.926
319.643
319.453
319.171
318.903
318.612
316.106
316.321
316.665
316.783
317.039
317.1
317.305
317.358
317.389
317.395
317.391
317.303
317.212
317.136
316.982
316.849
316.513
316.293
316.015
315.777
313.248
313.322
313.612
313.735
313.978
314
314.188
314.204
314.3
314.284
314.319
314.282
314.092
314.064
313.937
313.792
313.592
313.322
313.059
312.991
310.323
310.455
310.676
310.74
310.918
310.98
311.038
311.082
311.176
311.151
311.113
311.103
310.972
310.949
310.862
310.758
310.548
310.39
310.171
310.099
307.332
307.49
307.603
307.714
307.842
307.868
307.903
307.959
308.013
307.938
308.005
308
307.875
307.92
307.729
307.693
307.607
307.467
307.354
307.304
304.429
304.525
304.515
304.648
304.673
304.686
304.752
304.844
304.756
304.779
304.766
304.779
304.811
304.68
304.666
304.592
304.522
304.477
304.434
304.349
301.535
301.484
301.565
301.533
301.528
301.537
301.547
301.56
301.606
301.648
301.635
301.632
301.53
301.585
301.604
301.484
301.511
301.507
301.476
301.466
322.891
323.194
323.553
323.836
324.191
324.399
324.534
324.706
324.761
324.766
324.777
324.616
324.526
324.406
324.092
323.817
323.594
323.163
322.797
322.413
319.903
320.149
320.501
320.664
321.03
321.236
321.354
321.49
321.645
321.597
321.525
321.464
321.374
321.224
320.963
320.746
320.522
320.177
319.757
319.524
316.786
317.083
317.383
317.665
317.816
318.031
318.106
318.196
318.272
318.35
318.301
318.161
318.147
318.069
317.865
317.646
317.396
317.124
316.852
316.575
313.846
314.034
314.269
314.478
314.593
314.738
314.864
314.974
315.028
314.999
315.005
314.962
314.902
314.804
314.566
314.48
314.282
314.052
313.816
313.597
310.846
310.985
311.129
311.289
311.439
311.541
311.582
311.688
311.708
311.704
311.738
311.747
311.606
311.494
311.431
311.294
311.095
310.98
310.79
310.681
307.745
307.897
308.051
308.142
308.228
308.349
308.316
308.398
308.423
308.372
308.365
308.338
308.291
308.272
308.165
308.123
307.943
307.853
307.765
307.622
304.679
304.809
304.853
304.853
304.949
304.927
305.034
305.095
305.059
305.033
305.071
305.026
305.048
304.958
304.968
304.869
304.771
304.763
304.708
304.581
301.609
301.572
301.575
301.619
301.679
301.678
301.721
301.626
301.718
301.677
301.689
301.684
301.675
301.694
301.605
301.611
301.574
301.589
301.602
301.548
323.897
324.243
324.654
325.054
325.286
325.581
325.713
325.909
326.019
326.023
326.013
325.876
325.837
325.62
325.348
325.044
324.722
324.379
323.912
323.582
320.798
321.05
321.437
321.706
322.021
322.256
322.392
322.538
322.565
322.69
322.606
322.524
322.398
322.345
322.099
321.821
321.529
321.194
320.831
320.494
317.664
317.876
318.289
318.486
318.719
318.917
319.001
319.208
319.217
319.209
319.228
319.159
319.072
318.884
318.71
318.486
318.356
317.974
317.675
317.465
314.453
314.753
314.911
315.081
315.343
315.545
315.617
315.698
315.697
315.854
315.779
315.722
315.635
315.552
315.35
315.242
314.957
314.845
314.47
314.273
311.287
311.484
311.617
311.785
312.002
312.073
312.249
312.265
312.277
312.297
312.279
312.256
312.202
312.174
311.915
311.85
311.698
311.535
311.307
311.17
308.104
308.172
308.296
308.455
308.565
308.627
308.698
308.75
308.847
308.818
308.768
308.77
308.769
308.704
308.572
308.49
308.379
308.312
308.1
308.022
304.9
304.949
305.057
305.114
305.166
305.268
305.259
305.283
305.309
305.315
305.288
305.329
305.259
305.202
305.142
305.139
305.057
304.916
304.839
304.864
301.568
301.663
301.641
301.667
301.706
301.68
301.732
301.84
301.782
301.816
301.725
301.809
301.761
301.741
301.776
301.717
301.655
301.683
301.672
301.629
324.827
325.201
325.72
326.093
326.345
326.748
326.957
327.03
327.253
327.272
327.234
327.168
326.948
326.821
326.596
326.233
325.958
325.518
325.084
324.731
321.575
321.953
322.404
322.671
322.983
323.236
323.458
323.571
323.672
323.7
323.655
323.62
323.502
323.389
323.142
322.854
322.593
322.247
321.812
321.463
318.401
318.66
319.003
319.247
319.55
319.681
319.91
320.004
320.059
320.07
320.065
320.039
319.959
319.877
319.657
319.392
319.212
318.838
318.535
318.218
315.057
315.268
315.609
315.766
316.043
316.211
316.331
316.45
316.471
316.48
316.487
316.422
316.347
316.22
316.174
315.915
315.739
315.486
315.23
314.959
311.823
311.96
312.06
312.361
312.544
312.683
312.742
312.874
312.771
312.85
312.831
312.852
312.726
312.663
312.594
312.424
312.246
312.019
311.895
311.719
308.441
308.562
308.751
308.877
308.927
309.046
309.113
309.151
309.203
309.182
309.162
309.188
309.235
309.025
309.004
308.88
308.762
308.607
308.475
308.442
305.072
305.094
305.194
305.224
305.373
305.393
305.442
305.518
305.541
305.548
305.528
305.592
305.496
305.451
305.441
305.352
305.251
305.148
305.124
305.094
301.707
301.802
301.813
301.77
301.79
301.794
301.766
301.869
301.781
301.829
301.887
301.852
301.847
301.748
301.803
301.778
301.77
301.781
301.739
301.664
325.869
326.263
326.729
327.147
327.53
327.902
328.087
328.297
328.359
328.45
328.378
328.34
328.224
327.996
327.759
327.433
327.081
326.597
326.213
325.825
322.482
322.8
323.283
323.593
323.975
324.282
324.467
324.562
324.616
324.658
324.63
324.599
324.539
324.353
324.189
323.927
323.586
323.185
322.744
322.412
319.086
319.452
319.699
320.064
320.325
320.597
320.76
320.801
320.957
321.046
321.006
320.944
320.85
320.707
320.459
320.313
320.002
319.733
319.371
319.032
315.628
315.926
316.237
316.432
316.708
316.833
317.023
317.07
317.161
317.256
317.248
317.143
317.104
316.957
316.832
316.633
316.438
316.164
315.78
315.654
312.135
312.449
312.662
312.818
313.038
313.153
313.351
313.371
313.371
313.381
313.414
313.392
313.3
313.236
313.089
312.968
312.854
312.523
312.363
312.236
308.817
308.883
309.102
309.132
309.278
309.395
309.409
309.595
309.611
309.642
309.569
309.514
309.534
309.504
309.385
309.264
309.17
308.986
308.882
308.72
305.244
305.359
305.481
305.543
305.592
305.704
305.661
305.757
305.74
305.822
305.72
305.705
305.776
305.667
305.661
305.652
305.558
305.452
305.33
305.218
301.793
301.821
301.811
301.842
301.866
301.916
301.913
301.902
301.955
301.953
301.955
301.942
301.988
301.876
301.896
301.901
301.875
301.794
301.815
301.757
326.776
327.19
327.871
328.243
328.598
328.875
329.159
329.41
329.524
329.547
329.578
329.561
329.361
329.202
328.928
328.525
328.182
327.751
327.246
326.837
323.305
323.755
324.23
324.552
324.858
325.21
325.412
325.597
325.65
325.724
325.654
325.651
325.593
325.459
325.154
324.899
324.47
324.101
323.718
323.341
319.804
320.152
320.422
320.875
321.169
321.395
321.543
321.73
321.742
321.799
321.843
321.793
321.663
321.578
321.347
321.125
320.872
320.528
320.11
319.839
316.283
316.499
316.815
317.089
317.333
317.509
317.737
317.797
317.848
317.887
317.928
317.805
317.758
317.639
317.614
317.282
317.075
316.737
316.506
316.301
312.69
312.836
313.12
313.353
313.567
313.674
313.802
313.937
313.916
314.011
313.983
313.945
313.907
313.804
313.641
313.48
313.314
313.053
312.819
312.711
309.047
309.238
309.412
309.551
309.674
309.79
309.794
309.939
309.984
309.978
310.02
309.97
309.942
309.877
309.717
309.638
309.589
309.318
309.158
309.103
305.506
305.634
305.59
305.752
305.887
305.899
305.982
306.01
306.011
306.011
305.994
305.965
305.983
305.903
305.76
305.763
305.819
305.622
305.513
305.42
301.772
301.85
301.944
301.991
302.031
301.991
301.984
302.011
301.961
302.06
301.976
301.966
301.985
302.017
301.996
301.923
301.926
301.9
301.873
301.824
327.736
328.217
328.692
329.271
329.531
330.008
330.299
330.495
330.607
330.649
330.698
330.689
330.528
330.291
330.082
329.695
329.317
328.809
328.321
327.808
324.056
324.52
324.966
325.388
325.764
326.039
326.323
326.532
326.627
326.685
326.656
326.656
326.551
326.336
326.218
325.878
325.422
325.088
324.591
324.222
320.461
320.839
321.167
321.512
321.894
322.11
322.297
322.508
322.573
322.645
322.684
322.647
322.504
322.316
322.176
321.838
321.611
321.257
320.848
320.558
316.88
317.041
317.394
317.724
317.961
318.171
318.333
318.463
318.527
318.553
318.625
318.575
318.433
318.298
318.181
317.968
317.762
317.423
317.194
316.903
313.114
313.349
313.56
313.762
313.986
314.168
314.279
314.308
314.386
314.549
314.5
314.401
314.375
314.362
314.236
313.995
313.812
313.656
313.411
313.121
309.452
309.558
309.719
309.91
309.986
310.185
310.207
310.307
310.302
310.364
310.348
310.303
310.249
310.212
310.12
310.049
309.853
309.765
309.514
309.453
305.608
305.668
305.797
305.907
305.952
306.057
306.218
306.178
306.24
306.196
306.244
306.287
306.202
306.157
306.14
305.96
305.977
305.859
305.768
305.693
301.869
301.904
301.927
302.02
302.089
302.028
302.046
302.073
302.056
302.129
302.062
302.06
302.107
302.037
302.009
302.094
302.062
301.949
301.877
301.855
328.578
329.075
329.653
330.147
330.548
331.007
331.309
331.445
331.673
331.724
331.734
331.688
331.617
331.378
331.113
330.775
330.263
329.817
329.325
328.841
324.86
325.26
325.745
326.159
326.546
326.924
327.208
327.361
327.503
327.648
327.656
327.554
327.441
327.3
327.058
326.809
326.309
325.98
325.558
325.093
321.159
321.502
321.845
322.24
322.571
322.889
323.104
323.279
323.448
323.484
323.474
323.445
323.261
323.183
322.963
322.718
322.364
322.042
321.622
321.279
317.349
317.685
317.938
318.21
318.54
318.752
318.96
319.108
319.225
319.275
319.239
319.13
319.128
319.054
318.823
318.539
318.358
318.061
317.709
317.463
313.492
313.739
313.981
314.21
314.461
314.65
314.779
314.855
314.963
314.944
315.006
314.859
314.944
314.767
314.75
314.462
314.289
314.101
313.87
313.662
309.672
309.792
309.923
310.254
310.309
310.46
310.549
310.609
310.688
310.758
310.694
310.73
310.701
310.556
310.52
310.37
310.204
310.058
309.892
309.789
305.817
305.886
306.06
306.106
306.242
306.325
306.426
306.376
306.427
306.5
306.407
306.44
306.414
306.423
306.316
306.239
306.168
305.975
305.91
305.868
301.886
301.979
302.004
302.007
302.124
302.072
302.124
302.158
302.14
302.192
302.188
302.175
302.224
302.151
302.129
302.115
302.123
302.018
302.039
301.971
329.513
330
330.552
331.079
331.579
331.923
332.261
332.461
332.684
332.827
332.816
332.79
332.584
332.439
332.183
331.728
331.285
330.743
330.274
329.777
325.617
326.13
326.557
327.041
327.39
327.818
328.138
328.245
328.424
328.476
328.492
328.455
328.412
328.229
327.959
327.582
327.246
326.79
326.362
325.85
321.797
322.11
322.487
322.906
323.215
323.531
323.837
323.974
324.123
324.194
324.192
324.149
324.122
323.861
323.737
323.401
323.17
322.674
322.344
321.947
317.841
318.064
318.458
318.79
319.044
319.376
319.528
319.695
319.741
319.883
319.911
319.79
319.741
319.637
319.524
319.261
318.902
318.651
318.335
318.04
313.966
314.091
314.407
314.664
314.865
315.068
315.185
315.349
315.377
315.497
315.435
315.485
315.454
315.256
315.104
314.949
314.757
314.539
314.263
314.069
309.962
310.08
310.313
310.483
310.632
310.791
310.907
311
310.963
311.007
311.05
311.022
311.004
310.936
310.844
310.728
310.582
310.445
310.236
310.104
305.984
306.055
306.172
306.363
306.402
306.491
306.555
306.62
306.603
306.671
306.674
306.65
306.621
306.566
306.429
306.465
306.302
306.268
306.133
306.057
302.057
302.028
302.057
302.103
302.252
302.232
302.202
302.28
302.181
302.197
302.225
302.261
302.171
302.244
302.128
302.207
302.122
302.114
302.037
301.968
330.236
330.753
331.342
331.939
332.419
332.829
333.111
333.431
333.659
333.769
333.77
333.706
333.507
333.36
333.071
332.74
332.335
331.783
331.221
330.619
326.295
326.749
327.29
327.719
328.131
328.523
328.904
329.153
329.267
329.392
329.341
329.294
329.192
328.997
328.777
328.439
328.048
327.63
327.072
326.627
322.352
322.612
323.173
323.528
323.847
324.244
324.42
324.698
324.834
324.88
324.906
324.863
324.768
324.59
324.331
324.104
323.813
323.36
322.958
322.666
318.278
318.6
318.971
319.351
319.689
319.867
320.091
320.222
320.392
320.378
320.441
320.354
320.266
320.194
320.049
319.746
319.529
319.19
318.88
318.611
314.335
314.533
314.818
315.057
315.32
315.511
315.623
315.767
315.919
315.939
315.837
315.913
315.797
315.682
315.63
315.463
315.233
314.968
314.736
314.556
310.177
310.354
310.531
310.828
311.01
311.117
311.191
311.252
311.359
311.376
311.351
311.368
311.33
311.292
311.147
311.083
310.894
310.684
310.549
310.379
306.175
306.3
306.38
306.459
306.583
306.683
306.754
306.764
306.904
306.834
306.78
306.817
306.849
306.803
306.701
306.645
306.54
306.429
306.328
306.242
302.092
302.114
302.129
302.222
302.172
302.252
302.231
302.264
302.328
302.361
302.301
302.292
302.336
302.255
302.318
302.22
302.181
302.176
302.109
302.023
330.975
331.499
332.176
332.739
333.319
333.687
334.118
334.372
334.531
334.679
334.64
334.544
334.46
334.342
333.966
333.577
333.104
332.586
332
331.439
326.945
327.466
327.974
328.489
328.917
329.322
329.666
329.904
330.057
330.135
330.175
330.031
330.006
329.805
329.478
329.219
328.825
328.306
327.784
327.397
322.849
323.28
323.697
324.101
324.512
324.891
325.187
325.34
325.418
325.509
325.56
325.52
325.474
325.272
325.079
324.827
324.517
324.058
323.638
323.259
318.725
319.052
319.364
319.805
320.12
320.35
320.551
320.768
320.894
320.944
320.964
320.946
320.859
320.786
320.52
320.303
320.064
319.765
319.389
319.07
314.58
314.858
315.174
315.395
315.671
315.888
316.025
316.262
316.222
316.294
316.39
316.339
316.282
316.248
316.043
315.856
315.745
315.365
315.098
314.922
310.446
310.626
310.812
311.062
311.186
311.411
311.486
311.626
311.698
311.675
311.719
311.635
311.603
311.572
311.432
311.355
311.184
311.014
310.82
310.663
306.354
306.377
306.426
306.671
306.712
306.854
306.902
306.953
306.963
307.065
307.044
307.036
307.003
306.895
306.965
306.788
306.778
306.663
306.559
306.378
302.157
302.185
302.133
302.275
302.262
302.261
302.283
302.298
302.342
302.335
302.304
302.355
302.417
302.279
302.306
302.276
302.268
302.217
302.204
302.212
331.641
332.144
332.822
333.466
333.949
334.475
334.832
335.103
335.344
335.437
335.555
335.431
335.313
335.053
334.803
334.408
333.98
333.324
332.762
332.215
327.468
327.979
328.525
329.159
329.554
329.999
330.326
330.55
330.666
330.855
330.889
330.841
330.705
330.497
330.273
329.985
329.558
329.031
328.527
327.987
323.38
323.733
324.256
324.668
325.112
325.443
325.752
325.92
326.113
326.107
326.186
326.15
326.033
325.885
325.668
325.381
325.03
324.6
324.156
323.798
319.157
319.505
319.923
320.263
320.465
320.846
321.068
321.295
321.396
321.386
321.489
321.425
321.385
321.255
321.073
320.786
320.575
320.201
319.83
319.485
314.98
315.191
315.493
315.767
316.049
316.239
316.454
316.56
316.681
316.721
316.677
316.677
316.681
316.551
316.473
316.204
315.999
315.779
315.458
315.246
310.678
310.844
311.078
311.282
311.437
311.67
311.83
311.844
311.93
311.984
311.922
312.004
311.891
311.829
311.697
311.616
311.47
311.342
311.063
310.845
306.403
306.55
306.648
306.762
306.919
306.956
307.134
307.162
307.139
307.213
307.252
307.213
307.244
307.156
307.089
306.987
306.89
306.753
306.656
306.586
302.221
302.208
302.206
302.256
302.347
302.302
302.358
302.398
302.456
302.447
302.393
302.414
302.438
302.385
302.37
302.36
302.316
302.288
302.232
302.221
332.19
332.835
333.479
334.17
334.734
335.259
335.539
335.877
336.078
336.208
336.32
336.244
336.139
335.867
335.544
335.15
334.736
334.047
333.49
332.918
328.017
328.545
329.11
329.722
330.187
330.528
330.933
331.198
331.374
331.48
331.459
331.443
331.415
331.167
330.899
330.53
330.139
329.665
329.122
328.613
323.697
324.221
324.779
325.222
325.551
325.9
326.208
326.502
326.589
326.737
326.725
326.741
326.608
326.418
326.21
325.931
325.568
325.15
324.69
324.269
319.481
319.812
320.222
320.645
320.951
321.317
321.52
321.74
321.831
321.844
321.954
321.898
321.78
321.63
321.492
321.286
320.989
320.6
320.235
319.907
315.203
315.466
315.765
316.129
316.367
316.613
316.734
316.931
317.06
317.128
317.066
317.053
317.016
316.887
316.78
316.598
316.261
316.074
315.751
315.512
310.966
311.091
311.273
311.501
311.683
311.833
312.004
312.092
312.142
312.19
312.248
312.191
312.154
312.107
311.924
311.881
311.682
311.527
311.281
311.112
306.557
306.642
306.791
306.94
306.969
307.103
307.22
307.234
307.369
307.359
307.368
307.32
307.286
307.263
307.194
307.034
306.985
306.94
306.716
306.781
302.2
302.208
302.212
302.265
302.345
302.391
302.45
302.437
302.424
302.407
302.522
302.47
302.473
302.447
302.468
302.392
302.34
302.345
302.295
302.273
332.756
333.376
334.072
334.672
335.313
335.786
336.2
336.52
336.777
336.845
336.905
336.905
336.723
336.505
336.263
335.851
335.363
334.74
334.142
333.537
328.45
329.002
329.639
330.204
330.691
331.117
331.479
331.742
331.934
332.065
332.091
332.055
331.912
331.769
331.509
331.122
330.73
330.195
329.664
329.167
324.105
324.638
325.069
325.554
326.096
326.376
326.716
326.859
327.07
327.145
327.147
327.156
327.065
327.003
326.74
326.375
326.01
325.547
325.117
324.729
319.793
320.17
320.518
321.009
321.324
321.665
321.825
322.12
322.231
322.343
322.344
322.263
322.222
322.093
321.884
321.672
321.304
321.052
320.62
320.284
315.415
315.75
316.054
316.305
316.66
316.952
317.06
317.128
317.35
317.358
317.394
317.444
317.348
317.235
317.042
316.874
316.613
316.422
316.078
315.748
311.032
311.306
311.496
311.687
311.806
312.084
312.166
312.278
312.42
312.45
312.395
312.502
312.311
312.3
312.236
312.074
311.84
311.744
311.559
311.364
306.675
306.75
306.868
307.046
307.125
307.242
307.382
307.378
307.497
307.522
307.455
307.486
307.383
307.416
307.375
307.242
307.134
307.049
306.939
306.822
302.211
302.218
302.306
302.38
302.403
302.416
302.463
302.49
302.479
302.472
302.514
302.558
302.514
302.463
302.378
302.428
302.374
302.403
302.345
302.269
333.157
333.748
334.541
335.25
335.79
336.302
336.64
337.061
337.34
337.387
337.532
337.497
337.357
337.076
336.764
336.342
335.815
335.287
334.635
334.009
328.827
329.378
329.955
330.541
331.114
331.552
331.925
332.266
332.414
332.489
332.634
332.531
332.513
332.144
331.96
331.613
331.155
330.648
330.075
329.6
324.415
324.885
325.383
325.923
326.38
326.704
327.06
327.322
327.475
327.623
327.572
327.656
327.481
327.305
327.061
326.779
326.414
325.974
325.501
325.09
319.989
320.371
320.779
321.272
321.651
321.913
322.157
322.411
322.466
322.599
322.579
322.55
322.547
322.396
322.212
321.98
321.591
321.283
320.899
320.574
315.642
315.918
316.231
316.537
316.815
317.057
317.257
317.418
317.525
317.602
317.636
317.557
317.536
317.437
317.246
317.085
316.854
316.573
316.362
315.948
311.163
311.354
311.656
311.77
312.05
312.152
312.382
312.525
312.563
312.551
312.635
312.562
312.553
312.46
312.433
312.269
312.05
311.884
311.682
311.433
306.746
306.821
307.014
307.071
307.225
307.292
307.373
307.499
307.6
307.575
307.572
307.519
307.539
307.5
307.463
307.404
307.249
307.191
307.008
306.869
302.303
302.285
302.387
302.42
302.448
302.459
302.514
302.497
302.542
302.514
302.541
302.51
302.532
302.512
302.451
302.526
302.439
302.341
302.359
302.308
333.462
334.138
334.832
335.483
336.054
336.663
336.993
337.417
337.65
337.877
337.846
337.816
337.728
337.538
337.144
336.682
336.217
335.559
335.033
334.397
329.037
329.666
330.229
330.728
331.347
331.839
332.21
332.477
332.726
332.884
332.85
332.835
332.761
332.608
332.232
331.868
331.464
330.856
330.384
329.894
324.651
325.096
325.578
326.177
326.563
326.937
327.288
327.557
327.755
327.884
327.84
327.891
327.775
327.546
327.414
327.019
326.665
326.199
325.724
325.39
320.218
320.556
321.008
321.458
321.727
322.088
322.368
322.607
322.734
322.784
322.818
322.754
322.771
322.619
322.398
322.167
321.922
321.524
321.135
320.662
315.807
316.082
316.332
316.691
316.96
317.281
317.438
317.628
317.723
317.763
317.773
317.786
317.741
317.602
317.443
317.32
317.016
316.673
316.421
316.131
311.311
311.504
311.718
311.936
312.183
312.3
312.377
312.6
312.631
312.687
312.709
312.728
312.677
312.551
312.474
312.373
312.173
311.954
311.788
311.546
306.765
306.917
307.046
307.158
307.321
307.4
307.486
307.509
307.602
307.668
307.684
307.64
307.604
307.528
307.5
307.411
307.319
307.139
307.012
306.985
302.27
302.271
302.337
302.41
302.39
302.51
302.528
302.512
302.602
302.511
302.563
302.594
302.497
302.529
302.556
302.501
302.474
302.462
302.348
302.376
)
;

boundaryField
{
    hotSide
    {
        type            fixedGradient;
        gradient        nonuniform List<scalar> 
400
(
321.511
322.87
325.591
329.677
335.133
341.965
350.181
359.788
370.794
383.208
397.037
412.289
428.971
447.088
466.647
487.651
510.105
534.011
559.372
586.191
323.738
325.08
327.767
331.802
337.194
343.949
352.078
361.591
372.498
384.81
398.537
413.687
430.268
448.289
467.755
488.672
511.043
534.872
560.161
586.913
326.149
327.47
330.116
334.091
339.406
346.071
354.099
363.503
374.296
386.491
400.101
415.136
431.606
449.52
468.885
489.706
511.988
535.735
560.948
587.63
328.704
330
332.597
336.503
341.73
348.292
356.205
365.485
376.15
388.215
401.695
416.604
432.954
450.753
470.009
490.73
512.919
536.579
561.714
588.325
331.33
332.599
335.142
338.97
344.099
350.546
358.332
367.477
378.003
389.928
403.271
418.047
434.27
451.949
471.095
491.712
513.807
537.382
562.439
588.978
333.918
335.158
337.643
341.389
346.414
352.74
360.392
369.397
379.779
391.562
404.765
419.407
435.503
453.065
472.101
492.618
514.622
538.114
563.096
589.569
336.321
337.531
339.959
343.622
348.544
354.751
362.274
371.142
381.385
393.031
406.101
420.618
436.595
454.047
472.983
493.409
515.33
538.747
563.663
590.076
338.36
339.543
341.92
345.509
350.339
356.44
363.847
372.595
382.718
394.244
407.2
421.608
437.485
454.844
473.695
494.045
515.897
539.253
564.114
590.478
339.852
341.015
343.352
346.885
351.645
357.665
364.985
373.643
383.675
395.113
407.984
422.312
438.116
455.407
474.197
494.491
516.294
539.606
564.428
590.758
340.643
341.795
344.11
347.613
352.334
358.311
365.584
374.193
384.176
395.567
408.393
422.679
438.443
455.699
474.456
494.722
516.498
539.788
564.589
590.901
340.643
341.795
344.11
347.613
352.334
358.311
365.584
374.193
384.176
395.567
408.393
422.679
438.443
455.699
474.456
494.722
516.498
539.788
564.589
590.901
339.852
341.015
343.352
346.885
351.645
357.665
364.985
373.643
383.675
395.113
407.984
422.312
438.116
455.407
474.197
494.491
516.294
539.606
564.428
590.758
338.36
339.543
341.92
345.509
350.339
356.44
363.847
372.595
382.718
394.244
407.2
421.608
437.485
454.844
473.695
494.045
515.897
539.253
564.114
590.478
336.321
337.531
339.959
343.622
348.544
354.751
362.274
371.142
381.385
393.031
406.101
420.618
436.595
454.047
472.983
493.409
515.33
538.747
563.663
590.076
333.918
335.158
337.643
341.389
346.414
352.74
360.392
369.397
379.779
391.562
404.765
419.407
435.503
453.065
472.101
492.618
514.622
538.114
563.096
589.569
331.33
332.599
335.142
338.97
344.099
350.546
358.332
367.477
378.003
389.928
403.271
418.047
434.27
451.949
471.095
491.712
513.807
537.382
562.439
588.978
328.704
330
332.597
336.503
341.73
348.292
356.205
365.485
376.15
388.215
401.695
416.604
432.954
450.753
470.009
490.73
512.919
536.579
561.714
588.325
326.149
327.47
330.116
334.091
339.406
346.071
354.099
363.503
374.296
386.491
400.101
415.136
431.606
449.52
468.885
489.706
511.988
535.735
560.948
587.63
323.738
325.08
327.767
331.802
337.194
343.949
352.078
361.591
372.498
384.81
398.537
413.687
430.268
448.289
467.755
488.672
511.043
534.872
560.161
586.913
321.511
322.87
325.591
329.677
335.133
341.965
350.181
359.788
370.794
383.208
397.037
412.289
428.971
447.088
466.647
487.651
510.105
534.011
559.372
586.191
)
;
    }
    coldSide
    {
        type            mixed;
        refValue        uniform 300;
        refGradient     uniform 0;
        valueFraction   uniform 0.991591;
        source          uniform 0;
        value           nonuniform List<scalar> 
400
(
300.01
300.011
300.011
300.012
300.013
300.014
300.013
300.014
300.015
300.015
300.016
300.016
300.017
300.018
300.018
300.019
300.018
300.019
300.019
300.019
300.011
300.011
300.012
300.012
300.012
300.013
300.014
300.015
300.015
300.016
300.016
300.017
300.017
300.018
300.018
300.019
300.019
300.019
300.019
300.019
300.011
300.011
300.011