/*--------------------------------*- C++ -*----------------------------------*\
| =========                 |                                                 |
| \\      /  F ield         | OpenFOAM: The Open Source CFD Toolbox           |
|  \\    /   O peration     | Version:  2212                                  |
|   \\  /    A nd           | Website:  www.openfoam.com                      |
|    \\/     M anipulation  |                                                 |
\*---------------------------------------------------------------------------*/
FoamFile
{
    version     2.0;
    format      ascii;
    arch        "LSB;label=32;scalar=64";
    class       volScalarField;
    location    "./ITHACAoutput/true/14.6";
    object      error;
}
// * * * * * * * * * * * * * * * * * * * * * * * * * * * * * * * * * * * * * //

dimensions      [0 0 0 1 0 0 0];

internalField   nonuniform List<scalar> 
3200
(
-4.23929
-0.417762
-1.29992
1.57463
1.59745
0.156717
2.65817
2.23489
-0.0489977
2.59657
2.67055
2.06886
-0.600813
3.56024
4.33687
2.32809
1.67039
1.03048
-2.36449
-2.29358
-1.05568
-0.521877
-1.55675
1.73986
0.656273
2.28211
2.59362
1.79749
1.3913
1.64069
2.92276
3.17439
3.34202
2.56592
1.65746
1.56379
0.350247
-0.103008
-0.530446
-1.15394
0.846429
0.131554
1.04217
1.99171
3.3447
2.52524
2.65023
3.07986
1.8709
3.31028
2.80876
1.68051
0.220397
-0.215312
0.169735
2.74165
1.13933
-1.18202
-1.3457
-2.21549
-1.14512
-1.97551
0.0363184
2.80733
0.70684
2.92996
1.20323
1.1654
-0.53631
1.26231
1.0736
2.96391
2.69939
0.170965
0.182119
0.568421
1.26402
-0.276928
0.28755
-1.45337
-0.25365
-0.161469
-0.997891
2.4781
1.27436
1.27367
1.6471
2.73976
1.14673
-0.0169801
0.485263
0.902831
-0.205309
2.59325
1.71938
2.88616
0.6582
1.46335
-0.567998
-3.84932
0.519443
-1.48101
0.690319
1.38541
1.44253
1.26659
1.09731
0.222206
0.737076
0.31678
1.08886
0.823885
2.02907
0.862011
0.7052
0.573915
1.50002
-0.964581
1.52402
0.273401
-1.27399
-0.765392
1.74063
-1.00779
-0.872446
2.01807
-1.10874
0.168367
0.627256
1.63489
-1.00345
1.08184
1.29169
0.818375
0.529428
-1.6799
1.35532
0.66588
0.447205
0.0804071
-0.734979
-0.53452
-0.633532
-0.913211
2.32181
-0.278099
0.5204
-0.628847
0.817345
0.0597429
0.873506
1.76276
-0.867722
-0.308085
0.29267
0.184678
-2.64695
-0.0848386
-2.84668
1.16935
-2.8333
-0.812302
-0.176863
1.14609
0.360733
1.9294
1.34897
1.19607
-0.688851
2.2457
1.42098
2.64138
1.87802
3.11745
-0.026869
3.38831
-0.368567
1.38941
0.317434
-5.09174
-2.03488
0.0263605
1.28092
-0.194098
0.701072
-0.0384912
1.43775
0.0318358
2.05471
-0.294359
0.0908194
3.56331
0.564164
0.854471
-0.115054
2.32232
0.699174
-0.0118551
-0.249605
-0.490795
-2.63295
-0.387886
0.633007
1.20781
1.64585
0.693723
1.26638
0.932143
1.63285
2.49263
1.56605
1.60664
1.34648
0.943445
-0.512762
2.31258
1.53938
0.599247
-1.11447
-0.991703
-0.668547
1.60582
0.34094
0.0914639
0.375923
1.5216
2.37439
2.48318
0.770228
1.38069
1.09528
1.1372
2.38286
1.67197
1.74835
0.0549657
1.75661
0.0342604
0.309103
-0.376816
-1.6523
0.953934
3.07114
1.48643
-0.0545347
-0.12176
0.516275
-0.189041
0.797498
-0.123439
0.0988716
-0.581481
-0.242399
0.818685
2.44568
0.926138
1.76748
-0.881609
-1.36997
0.450228
-1.79482
-1.5193
0.280091
1.56892
1.37095
0.280624
-1.85074
-0.454131
0.119823
2.43281
0.773891
-0.560239
0.862682
1.61999
0.554047
-0.541078
-1.54348
0.636188
0.770222
-1.82691
-1.21698
0.932566
-0.501823
-0.313127
0.758289
1.38026
-1.57164
0.967258
0.58933
-0.0437141
-0.670897
2.4382
1.01439
0.131277
0.136571
0.350809
0.578797
1.00537
0.255859
-1.25544
1.46988
0.27465
0.34206
0.219012
2.79014
-0.333049
-0.61033
0.0647246
-0.355919
-0.890551
0.936634
2.72287
-1.69327
-0.322856
-0.311998
-1.76176
-0.44777
-0.329177
2.17582
-1.55001
-2.18643
-0.916115
-0.0178453
0.483017
1.44013
0.666213
0.101826
-0.536433
2.40794
-0.206784
0.218673
1.74354
0.26299
1.68051
1.03499
0.546044
1.16871
-0.0562844
1.22895
-1.13411
-0.30105
-0.790786
0.220602
0.748555
0.240925
3.55508
0.307247
1.76701
1.86324
0.633056
1.40527
1.20213
1.40284
3.21059
2.5506
1.09168
-0.716377
2.06238
-0.606325
-1.57871
-2.78298
-0.299834
-1.43824
3.41669
-0.673088
2.8185
2.52813
1.64131
0.0989443
2.1171
1.73506
1.51417
0.974612
1.21205
-0.0446239
2.17022
0.84404
1.00637
-0.661826
-1.59523
-0.24468
0.930156
1.01416
0.668064
1.86678
0.986673
0.0632901
1.76927
0.165837
0.120966
-1.3558
-0.116192
0.378817
-1.36673
0.00261087
2.23981
0.0762018
0.648397
-1.24223
-0.732164
-2.38481
-1.91888
0.864509
-0.156661
-1.76329
1.92989
0.54062
-2.19587
-0.465259
2.21775
1.34178
0.849654
1.27994
0.853624
-0.198659
1.49948
2.16938
0.111791
-0.336579
-1.26747
-1.50032
-3.33243
-0.666594
-1.6782
0.266803
1.25283
1.1473
0.177732
1.05144
-0.294114
1.01703
1.17231
1.44525
1.70718
-1.22815
-0.798631
0.648868
0.905007
-1.22301
-1.70689
0.257028
-0.570843
0.31457
-1.82607
-2.75445
-0.441381
2.14624
-0.280712
0.186166
2.34434
-0.0884078
-0.967047
-1.02711
-0.790252
1.20799
0.491628
-1.5873
0.685147
0.377409
-0.218792
-1.20531
-1.13451
1.0042
-0.979925
0.144968
-0.674365
-1.02566
1.79389
-0.670619
0.419852
0.0349053
-0.0654056
1.46626
-0.121033
0.384821
-0.554945
0.834056
-0.26309
1.0413
0.448146
-1.69312
-1.99042
-0.529218
1.17406
2.29399
1.31126
0.885173
0.352734
-0.0852079
1.27364
1.53985
-0.666836
-0.139198
1.14984
1.29972
0.467136
-0.614333
0.675121
-1.29576
0.159669
-4.59622
-0.335574
-0.602658
0.727367
-0.218219
-0.231275
2.2774
0.152651
0.506617
-0.0673141
-0.226819
1.3286
0.305407
-0.837264
-0.285312
0.598322
-0.0537843
-0.947313
-0.156036
-2.72018
-0.00040939
-1.54276
1.81123
0.742264
3.13071
2.23441
-0.187318
2.49084
3.2077
1.38607
1.77853
-0.233542
0.303202
1.96702
0.239605
0.411566
0.204291
0.933816
-0.83169
-0.117816
-1.06116
-0.276256
0.142886
0.140422
-0.599118
1.94928
1.5789
1.00426
3.80706
1.47476
1.96172
0.938372
-0.894354
1.65478
0.687595
-0.994576
0.704539
0.0935743
-0.67074
-2.17062
-2.93975
-0.885432
-0.33235
0.795704
0.423765
-0.409979
-1.09856
-0.0889199
-0.971925
0.951817
-0.0790738
0.392602
-0.964862
-0.381076
0.623438
-0.975739
-1.45918
-0.393887
-1.08435
-1.67715
-1.00104
0.0251502
0.06888
0.924491
0.31774
0.831603
-0.0161923
0.134711
-0.104599
2.25591
0.571701
0.459167
0.150605
0.558908
2.84594
1.224
-0.106572
-0.236302
1.44337
0.804491
-0.800584
-0.759846
2.38617
-0.688139
1.88308
-0.11785
0.10588
-0.468204
-1.22637
0.286871
-0.163299
-1.64986
0.481532
1.01595
2.93902
1.02235
0.820109
0.114467
-0.0372195
0.673569
1.10929
0.843372
-0.670487
0.215166
-0.564654
-0.0156948
0.492707
-1.14974
0.315138
-0.0362615
0.596508
-0.0410664
0.603533
0.189309
1.1847
-0.845243
1.3028
1.26769
1.85145
-1.49223
-2.80021
-0.831044
2.01398
-0.0285754
0.295709
1.9448
2.31151
1.81369
0.753943
1.18293
-0.30514
1.12252
-1.032
-0.112042
0.940506
2.24921
1.17772
0.782595
-1.66787
-4.86293
-4.20056
-0.414238
0.373766
0.817365
-1.37959
1.51715
-1.40482
0.0513762
0.49913
-0.126374
2.59725
0.450859
0.284896
1.07897
2.90778
0.0321774
1.14469
0.0583618
-1.70282
-2.93235
-4.53187
-0.682673
-0.35178
0.468842
2.0285
1.04259
-1.59935
1.50289
-0.332046
-1.379
-0.329952
1.13276
0.848226
2.27528
1.32445
1.28373
1.89916
1.44355
-1.23106
-0.530299
-1.08992
-0.321608
-0.303665
0.980955
-1.2767
0.0502745
0.254006
0.958814
-3.61891
-0.662163
1.03684
0.356081
0.768269
0.60619
-1.52638
-1.59545
-0.924622
-0.220208
-0.605549
-0.335665
0.264496
-0.777784
-1.40442
0.126315
0.724471
0.958682
0.521884
0.486289
-0.56033
1.5495
1.5146
1.90697
-0.462803
2.42028
0.0483623
0.241241
1.20772
-0.698643
-0.788671
0.33016
-1.18125
-0.955729
-0.7506
-0.423163
0.469864
1.33337
2.13119
0.196887
2.02688
0.662185
1.95122
0.299716
1.35107
-0.696559
0.48131
0.0715194
2.09299
0.873867
0.270217
-0.456108
-0.711956
1.18356
0.286836
0.671985
0.135367
-0.606771
1.38868
2.19056
0.849461
1.10846
-0.284447
0.493377
-0.0280475
0.998803
1.04866
1.50882
1.62031
2.16396
-0.141506
-2.13812
1.2676
-0.841009
-0.493499
0.667886
-0.0111617
-0.139909
0.198394
1.85896
1.21882
0.645425
-0.240912
-0.313817
1.08129
2.56028
-0.0198872
1.15083
-0.890501
0.810469
0.0507981
-0.399305
-2.52653
-0.19641
0.524541
-0.521061
1.31593
2.90718
0.797388
1.16872
-1.05266
-0.165291
0.336837
0.254746
-2.10948
0.868907
0.693011
1.86126
0.280919
-1.8094
-2.65935
-3.97556
-1.86865
0.399495
-0.528591
0.0414239
1.49831
-0.187093
3.18299
0.101029
0.959309
-0.140214
0.581676
-1.53224
-0.173552
0.0855512
-0.29884
-1.4777
-0.175742
-0.211767
-0.364904
-1.97084
-3.87205
0.196922
0.746251
2.38311
1.37867
1.02204
1.17631
1.48803
0.284911
1.75207
-0.590994
-0.881701
1.05475
-0.63999
2.46663
1.05638
0.597736
-1.70665
-2.27897
-1.59263
1.18368
0.635255
-0.766584
-0.0152584
-0.933696
-0.883472
-0.602888
0.167007
-0.00246867
0.984436
0.0911287
0.851067
-1.7022
1.34074
0.567946
-0.0585463
-0.648897
-0.687401
-0.363777
-0.555294
-2.14752
-1.3682
0.293433
0.921685
-1.10104
0.773483
1.07895
0.0933914
1.49314
1.40877
0.485726
2.36113
1.60908
-1.49613
0.289429
0.246304
0.091559
-0.800671
-0.548075
-1.4407
-2.58156
-1.67183
0.149077
-0.206911
-0.774449
0.0639229
-0.372028
-1.20582
0.35832
-0.418402
-1.15474
-0.411504
0.99111
1.90623
0.103327
1.09206
-1.44184
-0.624973
-0.602481
-0.751863
-0.529735
-2.50754
-0.475065
1.81246
2.25509
0.466009
-0.769754
1.36076
-0.217452
1.23372
-0.92323
1.31736
-0.687945
0.0701806
-1.8461
0.438703
0.178482
0.778356
-0.875637
1.14864
0.260987
-0.395951
0.804051
0.345868
-0.146891
0.201538
1.19296
0.252029
0.257713
0.910814
1.44589
1.03545
0.559637
-0.475802
0.201458
0.323705
-0.0585534
0.316724
2.52078
0.92257
-3.63668
-1.09138
-0.510031
-1.82153
-0.0345723
0.333166
-0.452215
-0.583731
-2.62753
-1.51679
-1.54959
-2.04539
-1.37394
-0.66182
-0.555052
0.366704
-0.121621
0.489926
-1.98963
-2.04785
-2.21066
-1.79749
-1.40793
-0.10317
-0.641186
1.24397
1.44832
0.905365
-1.26573
0.541401
-1.6733
-1.22854
-0.688353
-0.54167
-2.36094
-2.16311
-1.32578
-2.20007
-1.97937
-2.52937
-3.75373
-4.28731
-0.332821
0.174466
-0.115186
0.583832
-0.0804993
-0.659608
-1.0289
0.566119
-0.509484
0.515582
1.30826
-0.532882
-0.347823
1.82258
-2.64619
-1.02098
-1.46899
-0.81877
-0.178004
-0.784764
-0.186462
-0.334584
-0.652431
0.505601
-0.133272
-0.0844412
-0.205587
-1.90526
-1.15346
0.197347
1.15932
-0.727121
-1.62862
0.339171
-0.712307
-2.67231
-1.13481
-2.67087
-1.63704
0.890931
0.344833
1.60809
-1.257
0.399615
1.05249
-0.187972
-0.407054
-0.530383
-0.622954
-0.863253
-0.766005
-0.0167044
-0.129866
1.13853
-0.47416
0.680977
-0.702595
-0.975374
-1.39157
-1.5317
-0.708625
1.37485
1.54918
0.305935
0.82617
-1.13921
1.56387
-0.174619
-1.57284
1.18644
0.82464
1.57581
1.46442
-0.207729
-0.54574
2.12844
-1.17724
0.718013
0.622035
-1.10491
0.937939
0.59617
0.191113
-1.08911
-0.434566
-0.551301
0.935641
-1.50388
0.604603
-0.36969
0.421421
-1.65631
1.93608
-0.146235
0.491407
0.136718
-1.55193
-2.43084
-0.664108
0.211206
-1.56728
0.191604
0.541794
0.608567
-0.585408
-1.05552
1.15334
-0.554085
2.71475
1.81469
1.85253
0.342639
0.331164
1.15705
0.371589
-1.08947
2.33117
-1.15594
-3.0507
-1.40989
-2.04825
-0.724675
0.061119
-2.54158
0.910001
0.369378
-0.267558
-2.28016
-1.49159
-2.26618
-0.752657
-0.708131
-1.42941
-1.89853
-1.61113
-1.51656
-3.27783
-1.55364
-2.61259
-0.264306
-2.24972
-0.12443
-2.15069
0.784402
2.06935
-0.117133
-2.6879
-0.21657
-0.109068
-1.98593
0.0156516
-0.379884
-0.149055
-2.24352
-0.281865
-3.26643
-0.211421
-2.63219
-2.69478
-1.51016
-0.252987
-1.24594
0.0320896
-0.899993
1.76605
-0.550254
0.176463
-0.444493
-1.8795
0.849485
0.347769
0.816519
-1.5378
-0.859977
-1.3121
-1.44575
0.578
-4.59376
-5.00818
0.0675402
-0.153533
-0.152966
1.12154
-0.808084
-1.05755
-0.378332
0.590749
-0.625077
-1.49457
-0.984856
1.20015
2.04454
0.644929
-0.0727092
-1.28423
-2.53613
-2.25299
-0.585628
-2.43958
-0.681957
-0.430871
-0.695268
0.708948
0.12044
-0.586307
1.63516
0.248794
1.88818
-0.582418
1.35351
-0.655284
-0.12946
0.579947
0.0161906
-0.543352
-1.30897
-2.39456
0.700737
-0.987071
0.504488
-2.1122
-1.21356
-1.72515
0.370858
-1.83517
-0.255104
-1.46293
2.56281
-0.14364
-1.8184
-0.50903
-1.01034
0.707635
-1.17494
1.36169
0.970341
-0.799592
-0.336072
-1.36202
-2.77713
1.10429
-0.16004
-0.963143
0.335979
-0.817809
0.705964
0.426148
1.41339
-1.36244
0.835381
0.138308
-0.0980765
-0.341847
0.125715
-0.373232
-0.496511
0.354494
1.03714
2.09749
1.71062
-1.49875
-0.890274
-0.170809
-1.00887
0.734701
0.341519
0.807455
1.81946
1.66479
-0.286564
-0.78442
1.00686
-0.380008
0.605473
-0.361809
0.712892
0.46919
-1.98656
-5.30755
-1.20365
-1.72086
-1.10937
1.05022
-1.0015
-1.63769
1.75647
-1.23514
-2.50804
0.531074
-3.00673
-2.11096
-2.56388
0.504215
-3.15608
0.404216
-1.70109
-3.68277
-4.39154
-4.93366
-2.34082
-0.273949
-0.377399
1.0247
0.46527
-1.22438
-1.3888
1.21286
-0.41086
-2.63355
-2.19186
-1.28135
-0.556746
-0.32617
-2.00249
-1.88466
-0.858904
-1.3357
-1.98374
-2.92992
0.53624
-1.44617
1.12152
-1.82855
-2.69284
-1.83833
-1.52198
0.280814
-0.667394
-2.06398
-1.29802
-2.94693
-0.378896
-0.875138
0.714428
-2.49148
-0.832956
-1.9966
-2.51534
-1.98037
-3.37833
-2.03464
-1.26041
-0.73401
-3.44226
-0.384076
0.284596
-1.26658
-1.32101
-2.11847
-3.20477
-2.08311
0.197792
-2.45403
-2.38566
0.013158
-0.974545
-1.20945
-2.01151
-1.90809
-0.953135
-0.056109
0.0375401
-0.259583
0.0743331
-0.680127
1.73738
-0.439123
-0.136546
-0.782979
0.161838
1.7115
1.2818
0.832081
0.803075
-0.371224
0.0383502
0.805643
-3.46466
-1.03771
-0.550784
-0.0401947
-0.648508
-0.405709
0.762317
0.862106
0.557309
-0.728937
-0.546274
2.48864
0.626966
0.411593
-0.987425
1.7796
-1.63449
0.7562
-2.05637
-0.0208317
-0.691294
0.0777362
-1.81114
-0.790802
0.581225
-0.437308
0.479196
0.618863
0.690997
-0.326715
0.909751
-1.2229
-1.00132
-1.21463
0.614261
0.650565
-0.0262004
1.00576
0.550556
-0.477703
-0.53147
3.10156
-0.795188
-0.243561
-1.83306
1.31353
0.241378
0.303317
0.200672
2.07755
-0.662887
-0.120504
0.277789
-1.00186
0.948756
2.05236
-0.63979
-0.15634
-0.454152
0.152071
-0.790422
-5.2668
-2.83673
-2.92577
-0.496802
0.706962
-2.31539
-3.36567
0.232069
-2.36599
-1.93474
-3.83938
-1.11872
-0.00840481
-2.68035
-2.16408
0.097765
-0.233258
-1.18178
-3.67993
-3.0793
-4.97549
-0.617224
-2.34266
-0.118224
0.40912
-0.074429
-0.685349
0.343973
0.371158
-0.161509
-0.123256
-1.32964
0.210795
-1.3719
-0.265486
-3.46582
-0.402709
-1.75239
-0.873004
-3.20484
-3.93935
-2.61537
-2.51239
-0.662015
-1.66452
-0.613647
-0.338305
0.424443
-2.49811
-1.4998
-1.53155
1.13269
0.103421
-1.06938
0.58769
-3.24117
-0.876794
-0.484877
-3.31324
-1.79933
-2.8378
-1.03423
-2.32846
0.27367
1.76814
0.22265
-2.04258
-0.0547649
-0.663886
-0.965124
-0.5883
-0.899268
-3.08804
1.37709
-0.448655
-3.31143
-2.49667
-1.63199
-0.612716
-3.79877
-1.09188
-2.90504
-1.69362
0.457384
0.775893
-0.444146
-0.212978
-0.102081
-0.0898408
-1.78742
1.68753
-1.54855
-1.40252
0.168947
-0.0613123
0.717545
0.143107
-1.97908
-1.24092
-1.7756
-0.835047
-0.297004
1.16752
-0.235737
-0.23969
-0.703982
-0.531152
-0.949929
-0.610772
0.346853
-0.452921
0.201538
1.13904
-0.34331
0.60058
-0.233512
-1.49024
-1.29915
-0.812391
-0.197726
-0.324308
0.153627
0.556214
-0.329529
0.615627
1.09002
1.5999
0.910373
0.655456
-0.862871
-0.167986
0.726641
-0.689112
-0.199389
-0.862301
-2.22432
0.9183
-0.446893
-1.23003
0.517291
-0.848814
-0.84288
0.0887629
-0.930786
0.16027
0.700821
-0.410849
-1.095
-1.58205
1.27385
1.52275
-0.72286
-0.270557
-0.762464
0.438823
1.98831
-0.79043
-1.11971
-0.852195
-0.841482
-3.98961
-4.80689
-3.47141
-1.05152
-2.18576
-2.25567
-1.10081
1.01399
0.278441
-2.43982
-2.44412
0.0375073
-2.98769
-2.03204
-2.35877
-1.49303
-1.4044
-0.941029
-6.35599
-3.94928
-3.53293
-0.578487
1.19733
-0.205977
-0.97326
-0.386424
-0.746155
-0.466724
0.639852
0.0501852
0.0650191
-1.68281
0.317317
-1.4698
-0.437936
-0.351007
-0.563115
-0.461928
-0.0943607
-3.89275
-3.78701
0.060555
-4.7284
1.48485
0.649678
0.614044
-1.23545
-0.285616
-1.73194
-1.3349
-0.753772
0.273144
-0.500197
-1.98109
-0.230634
-1.74896
-2.01523
-1.84801
-0.477539
-1.09765
-3.27441
-0.454546
-3.68313
1.18613
-1.947
-0.681788
-1.17076
2.42405
0.331306
-1.58118
-0.0869441
-1.03485
-1.22127
0.288303
-0.0772927
-0.943595
-2.6811
-3.93904
-2.84852
-3.38696
-3.27003
-2.23014
-0.00678805
0.618987
-0.272525
-2.01532
0.358278
0.284863
0.339606
-0.265343
-0.0144014
-0.745422
0.326361
-0.89214
-1.79418
-0.0463825
-1.2677
0.25779
-1.69854
-1.63743
-2.80962
-2.67136
-2.16738
-0.409104
-0.77752
2.00601
0.526208
-0.97278
1.52604
-0.264657
-0.237478
0.279273
-0.143761
-0.302537
-0.699528
0.245891
-1.84828
-1.05918
-1.94972
-1.99982
-1.9864
-2.44191
1.93433
1.48978
-3.25317
0.674008
-0.962764
0.705247
0.556456
-0.843662
-0.0896
-1.35291
-1.49109
2.3191
-0.189427
-1.04195
-0.178977
-2.41022
-0.741316
-2.04517
0.217911
0.446558
-1.44358
-0.0870213
-0.461983
1.51903
-0.867921
1.38751
1.2591
0.736897
0.635017
-1.8949
-2.8474
-1.04321
-0.559727
-0.959372
-0.134588
-1.75922
0.927688
-0.902284
-5.48959
-2.57731
-2.77185
-3.22586
-1.51651
-2.29121
-1.0729
-1.25952
-1.9693
-1.94122
-2.86163
-2.09595
-0.318657
-0.322588
-2.05785
-0.914644
-1.82947
-1.40696
-2.8902
-5.362
-3.56595
-2.9447
-2.4331
-2.99008
-0.918236
0.713267
-2.4267
1.32533
-0.296289
-1.19535
-1.26532
-1.40565
0.194373
-2.42667
-2.03659
-0.627542
-1.11312
-2.54212
-2.41266
-2.38273
-3.59674
-3.05269
1.56776
-0.0662955
1.96731
-0.971389
-1.49411
-0.313047
0.631502
-1.20897
-1.24863
-1.02323
1.55152
-2.62451
0.231929
-0.563529
-1.89436
-0.235728
-1.6092
-4.90959
-1.98216
-0.876846
-3.48099
-3.36692
-0.956895
-0.469635
-2.1512
-0.0257311
-1.29748
-0.429324
0.405187
-0.971683
-1.15818
1.53779
-1.34926
-0.592919
0.615384
-2.65308
0.332268
-2.13969
-3.25762
-0.918082
-1.0503
1.66045
-0.385489
-0.0131843
0.135321
-1.64345
0.266204
-1.97318
-2.09786
-1.59498
0.94779
0.167307
-0.0395996
-0.955644
0.933497
-0.678063
0.291413
-4.14099
-0.896937
-1.42265
0.704242
-1.3828
-1.19915
-0.708052
-1.19776
0.580695
1.18741
-0.597918
0.544327
-0.940644
1.88127
-1.89821
-1.02811
-0.634227
-0.727063
-0.320464
-1.76614
-2.26021
-1.13996
-0.663654
-2.06763
-0.705741
-0.391015
0.282548
0.936625
2.63638
-2.22302
-0.212201
0.368905
2.00794
-2.44146
1.99529
0.552462
0.293491
-0.0023938
-2.19688
-1.80852
-0.519607
-0.36765
-0.816506
0.178801
-0.527002
0.769775
1.0772
0.141292
0.486683
-1.5551
1.03853
0.938681
0.312659
1.83325
-0.446508
-1.13359
1.47966
-0.775136
0.367624
0.456056
-0.236255
-5.00465
-1.13839
-3.03291
-0.255048
-3.10512
0.61613
-0.125326
0.128816
-1.43396
-0.729066
-0.0700909
-1.80066
-0.0483844
-1.38135
-1.95146
-0.571716
-1.11707
-0.837288
-3.73847
-1.92227
-4.4901
-0.0371503
-3.43289
-0.258293
-0.899461
-0.517264
0.418336
0.105188
-0.158978
0.416357
0.101134
-1.27389
-0.154619
-0.554318
0.339024
-1.07278
0.547979
-1.46279
-0.0379634
-4.02913
-3.65122
-1.75825
-1.75958
0.749044
-2.82814
-1.81583
0.746368
0.117895
1.83386
0.163499
-0.468119
1.244
-0.165801
-1.45851
-0.00264717
-0.864226
0.513474
-1.91934
-1.35737
-3.25137
-4.70865
0.633428
-0.179913
-1.61143
-0.0677409
-0.525858
0.623339
0.782743
-0.215887
-0.28339
1.34516
1.01238
-1.26989
-0.60378
-1.90362
-1.44089
-0.511768
0.0950974
-2.32524
-4.53816
1.13245
-1.29275
0.0105638
-1.38891
1.58281
0.246656
-0.694481
-1.87025
0.148457
-0.489576
-3.10444
-0.709161
0.367037
-0.1156
-0.617983
1.44581
0.750858
-1.30099
0.0470387
-1.36742
-0.830893
0.00694243
-1.15337
-0.716829
1.09674
-1.42997
1.21408
0.964814
-0.603414
1.4589
0.967104
-2.1917
-3.6512
-0.857046
-1.59933
-1.2201
-0.537423
0.372327
0.852334
-1.41505
-0.978454
-1.17816
-2.20732
-0.697609
1.27194
-0.150236
1.67716
-0.769452
-1.3226
0.514616
-1.49258
-1.08949
0.769329
-0.115841
-1.51165
1.25732
-0.464959
0.308394
0.221884
1.29515
0.012783
-1.19374
0.228469
0.346561
-0.536323
0.42381
1.18864
0.745548
0.711293
1.55428
0.262886
0.715663
-2.12198
-0.151123
-1.51819
0.599601
0.215676
0.472373
0.791695
0.065512
-4.38347
-1.46271
-2.3555
-1.05935
0.128338
-0.535503
-0.329877
0.36763
0.791916
-2.27376
0.815925
-1.58389
-1.95748
-0.22376
-0.828831
-3.04159
-1.01752
-0.215512
-2.20251
-3.47529
-2.02621
-3.63256
-2.16689
-0.035198
-0.309621
1.46371
0.816103
1.9184
0.0867625
0.857321
0.248633
-2.49738
1.66378
-0.049438
0.552846
-1.40633
-0.302394
-3.45047
-0.202008
-2.33066
-2.32486
-2.48624
-2.62475
-1.34073
-0.382002
-1.60314
-1.88125
1.368
-0.632292
-0.381231
0.297111
-1.54601
0.612038
-0.659654
-0.230541
-1.23422
-0.293783
-1.14208
-1.86041
-0.363621
-2.10019
-2.44158
-1.15008
-0.416303
-0.683722
-0.0161813
-0.464356
-0.079306
0.0852851
-0.169706
-0.0949306
-0.0903526
4.24819
-0.654702
0.953654
0.262943
0.783208
-1.11747
-0.33842
-1.8155
-0.470941
-1.24124
0.713367
-1.08762
0.219622
0.211534
-1.73747
1.60624
0.127955
0.282237
-1.25726
1.04889
-1.04197
0.893425
-1.19725
1.29167
-0.279075
-0.563052
-0.351219
-1.213
-0.266711
-1.34084
0.375608
-0.332194
1.28326
1.71282
0.642153
0.715921
-1.47684
-0.37697
-0.315808
-0.611015
-0.523419
-1.00472
-0.29311
0.137087
-0.218043
0.437635
0.942235
0.986574
-1.23279
-0.926151
-0.0783299
-1.47118
-0.00385516
-1.32515
-0.887346
0.0176687
0.457435
1.62728
1.9281
-0.0787916
-0.67581
1.35309
0.799702
-1.25266
1.94966
2.20089
-0.904445
-1.03515
-0.535539
0.616654
-1.2582
-0.237279
2.46447
0.456874
-0.296021
-0.352144
-0.400315
-1.17495
-0.76445
0.0433191
0.980622
-0.838619
-1.35617
-2.15701
0.713044
0.606336
-0.623073
0.194506
-4.13226
-2.25515
-1.07829
-0.626951
-1.36639
1.39725
1.60855
0.842845
1.34366
-0.318854
2.51131
1.30364
0.203994
0.346468
0.116186
1.49716
0.514752
-2.26621
-2.07228
-2.51235
-1.61381
-0.0417254
-2.19953
0.216446
0.136265
-0.641954
0.40585
0.254964
0.471796
0.0705006
0.321097
-1.97469
0.342884
-0.45667
0.42463
-1.02369
0.00523762
0.391325
0.0962262
-2.77192
-2.96635
-0.00118105
-2.05562
0.0465128
-0.0914518
0.432811
-1.87591
-0.714401
-1.08023
0.996326
-0.670976
0.499986
-1.87528
0.12791
-0.766225
0.0798124
0.323706
-0.659731
-2.56108
-1.83911
-1.95935
-1.86831
-1.97717
0.401828
0.93632
0.112693
-0.178445
0.415636
0.141119
-0.943992
0.722046
0.115419
-0.38335
0.926228
0.749226
-0.616684
-0.08206
-0.211162
-0.012841
-0.149984
-0.63501
-1.54846
-0.673404
-0.478898
0.0551301
-0.288488
-0.835276
1.16837
-0.116227
-1.93226
-0.310257
0.160805
1.89966
1.50371
-0.179578
0.369615
4.17581
1.25064
-2.31687
0.311126
0.644089
0.191315
-0.222487
-0.0573264
0.276309
1.60763
1.63319
0.0248288
1.57681
-1.08988
0.0267612
1.95455
2.59672
0.316448
1.15504
0.989116
0.771591
-0.341875
-0.643489
-0.0974249
-2.03932
-2.0027
-0.86131
1.44306
1.09139
0.795958
-0.404715
-1.84183
-0.631252
-0.421844
0.26963
-1.64441
1.28136
0.432045
1.13136
0.642519
-1.02485
1.69651
-0.565102
-0.746416
-0.869262
1.87393
-0.0100842
-0.204179
0.678024
1.43607
-1.6728
1.67919
-0.914494
-0.466919
1.16731
-0.0665106
0.378942
0.523755
-1.73276
-1.09394
0.207356
1.85744
-2.63343
0.769545
-3.59677
-1.76816
-0.347334
-0.319153
-0.0746738
-0.452116
0.541903
-1.45663
1.68296
2.40338
-0.566944
0.480105
2.07326
2.41831
-1.11471
-0.714161
0.200461
-0.977879
-0.0968771
-2.17171
-2.93373
-0.859788
-1.01845
1.28143
-0.964171
3.58669
-0.641315
0.966038
0.380773
0.298987
-0.130674
1.08294
0.424262
0.816655
-0.356953
1.12656
0.239958
-0.0308118
-2.79706
-2.11048
-0.750992
-3.36589
-0.999551
-1.29857
1.43021
0.549426
0.744732
1.25248
0.591227
2.64625
0.209601
0.28546
0.719571
0.388896
0.215094
-0.338481
-0.133074
0.421419
-0.686078
-2.61248
-2.07167
-0.917907
0.635906
0.464796
-0.433544
0.294365
0.235212
0.445431
2.81817
1.85719
1.37872
0.197779
0.237495
0.176171
1.47926
0.779211
1.27908
-0.126441
-0.27937
-0.714045
-2.08222
-0.237797
-0.70068
0.696719
-1.03877
-0.844399
0.419175
0.110701
0.863058
2.37578
-0.385187
2.0772
1.01604
-0.774384
-1.82922
0.581922
-0.406513
1.091
-0.707539
-0.420645
-0.902912
-0.706725
-1.00486
1.2288
0.866249
-0.811247
0.571832
2.11116
0.749271
-1.42919
1.05468
-0.0910704
0.871279
0.131706
2.08006
-2.04657
2.27708
-0.175706
0.515447
-1.76481
0.0553532
1.73814
-1.32899
0.831823
-0.751928
1.32939
-1.77336
0.878231
0.191744
0.353644
1.48646
-0.238868
-1.31506
-1.44402
0.0291094
-1.24632
0.751388
-0.51827
1.51177
-2.38346
0.532979
-0.619015
0.905303
0.307671
-0.0970083
0.608293
-1.14155
0.18331
1.06342
-0.80229
-0.350735
0.0436222
-0.984744
0.233816
2.02629
-0.505178
-1.27815
0.12423
-0.0642367
-0.219152
-1.26956
0.104184
0.821134
-1.10153
2.85488
0.572151
2.36261
2.7034
0.372427
3.71207
0.724249
2.05375
1.83676
1.19569
4.1216
0.943284
-0.0809407
-0.110602
-1.42559
-1.60257
-2.11956
0.131064
0.864336
-0.0412801
0.649699
0.268607
-0.401067
-0.293915
2.2063
-0.453725
0.214022
2.06713
-0.653237
2.31265
0.415841
-1.34225
0.111716
1.2679
-0.375502
-2.83645
-4.38823
1.61748
-0.495286
0.38647
1.80781
1.38724
-1.47996
1.23896
1.78377
0.804318
0.594261
1.04817
1.97253
0.410245
0.988925
0.785013
0.866009
-0.756488
-0.257458
0.0799498
-2.19659
-0.784458
0.102106
0.647765
2.80224
1.54095
-0.0779383
1.30258
1.37184
1.48385
1.62705
1.66178
2.05824
2.4677
1.82123
-1.64157
-0.620343
1.15432
-1.61546
1.5004
-0.278571
-0.675574
0.301394
1.15675
-1.19133
0.363478
0.946031
1.1939
1.50489
0.973239
2.08587
1.65672
0.389519
-0.152232
-0.249517
2.23698
1.09441
0.204226
0.440083
0.801442
0.659099
0.147202
-0.204693
-0.110308
-0.199714
0.149528
2.23161
0.905344
-0.0829775
1.31294
1.95435
0.0506382
1.92442
1.52473
2.76727
0.211123
0.656683
0.703293
0.886047
0.0720521
-0.631396
1.89266
0.81578
-0.686551
0.648546
0.689117
-0.371276
0.466731
1.87969
-0.20644
-0.830866
2.56944
-1.32662
0.371075
-0.660878
-0.223179
1.82252
1.91237
0.894227
-0.328455
-1.41225
-0.0896896
-0.712291
-0.0611804
-2.37822
2.27237
-0.0666728
-1.7421
-0.843788
-1.74341
-1.12663
-1.58936
0.263132
0.588677
-0.0933209
0.689335
0.0376012
-2.41347
-1.38083
0.789258
-1.05689
1.36824
-0.255595
2.84431
1.73444
1.43975
2.01336
1.92708
1.09188
3.4033
2.14723
1.52783
0.922127
3.80429
2.90432
2.24685
-0.031965
2.79296
0.534412
-3.12343
-1.92909
-0.564466
-0.525157
0.585676
0.698288
1.59545
1.65476
3.24923
3.19003
1.64149
1.84107
2.6339
5.17904
3.05253
1.85762
3.65165
2.49467
0.610075
-0.455234
0.902483
-0.76963
-0.378348
0.0710145
-0.831588
1.9598
0.993717
0.135014
2.28924
1.64749
3.49432
1.70911
2.07209
2.90485
4.03836
0.771932
1.96232
-0.935392
3.39372
-0.502475
0.454224
0.247606
2.47932
1.16732
2.3689
0.852025
2.53958
1.92366
1.65474
2.09283
2.18084
2.02106
1.88427
2.44483
2.61389
2.47711
1.70541
0.504601
-1.81992
-0.789315
-0.17495
-1.26148
1.75953
2.10051
2.01564
-0.278073
1.9592
2.22847
1.19679
1.15026
-0.199545
0.339171
2.99228
2.09816
0.502348
2.08689
3.22194
1.71462
0.80155
0.413956
-1.33495
0.463753
1.50716
1.38529
-1.728
1.75582
0.36175
1.55539
2.99143
2.42075
-0.90499
2.13625
1.11872
-0.376926
0.417701
3.15908
0.777652
3.12445
-0.242468
-0.951303
-0.568919
0.0397256
0.423394
2.02412
-0.518713
-0.503814
0.5792
0.0376712
3.60786
0.461077
1.43446
-1.23566
2.55966
-0.537884
2.0898
0.248036
1.08968
0.0462625
1.17876
1.26997
1.76994
-1.0022
-0.840359
-0.76719
1.41724
-0.746519
1.42079
0.61224
-2.36696
-1.13609
0.354346
1.41994
-0.639157
-0.0185061
2.54104
1.74494
0.881448
-0.159273
-1.46006
-0.292277
0.703161
0.434859
-1.77967
0.0673762
-0.0597743
2.58561
0.889376
3.41018
1.63473
3.28424
4.79933
1.92041
3.13126
4.4009
3.30497
4.35242
1.41734
1.81896
1.14373
0.436484
-1.5874
-0.698748
0.164642
1.23027
0.0726633
2.50705
0.0896119
4.31357
0.217593
3.6921
-0.718604
0.325131
2.66779
-0.285053
3.8731
0.387407
2.91835
0.103786
2.7343
-0.29974
2.13569
1.41717
2.00669
0.78579
1.10945
2.15193
2.24802
3.38551
2.47281
6.37412
2.06398
1.52515
2.31353
3.78463
2.08071
2.89396
1.81691
2.14362
1.43402
0.981757
1.96051
-1.08001
2.35721
0.254175
0.0618916
1.55163
2.90723
3.76426
3.10791
1.04901
2.36131
-0.510581
2.4608
1.29619
-0.883384
1.04925
2.97543
1.83795
3.08463
0.837847
-0.288026
-0.476496
-0.701229
0.917513
0.95993
1.44742
0.952372
1.3237
1.03323
0.499064
1.37292
1.80526
1.14255
1.59266
0.47811
0.706167
2.18586
2.64593
0.301188
-0.661909
-0.196053
-0.965453
0.873646
1.95875
1.64539
1.07033
-0.0391466
1.86714
1.6731
2.52229
-0.943427
-0.10947
1.04681
1.69399
1.53564
1.89491
1.79872
0.994431
0.763964
0.012666
1.18735
-0.777416
0.606068
0.416776
0.197484
2.01908
1.04601
1.76431
1.22127
0.265125
1.09539
1.05637
-0.210602
0.507691
-0.301228
-0.0244125
-1.21231
0.129779
2.07446
1.02338
0.575546
-0.359295
1.32776
-1.1712
-1.00403
2.48619
-1.40252
2.63038
2.43041
-1.39471
-0.182974
1.08984
0.505996
1.60407
0.835192
-0.444356
0.496973
-1.50723
0.212693
-1.49162
-0.278021
-3.53051
-0.861287
2.23777
3.19524
1.28497
4.41739
3.65434
4.58466
6.02422
5.1209
1.68932
4.04024
4.1114
3.3842
3.23482
1.02471
1.41569
3.79826
1.54339
-0.151399
2.26953
-0.341199
1.95552
1.80045
0.615511
2.71095
4.09009
4.2051
4.72683
4.41031
5.00733
5.92889
2.01485
4.53626
2.6374
4.67962
2.38389
2.15057
-0.12358
0.29615
-0.628997
1.14297
0.699788
1.06361
1.65287
3.4524
4.10752
4.75221
3.37392
-0.396397
3.94676
3.61788
3.67345
4.49611
3.05844
1.9183
2.88453
0.992578
2.66668
0.128962
-0.528952
0.424811
-0.749073
1.46931
1.74729
0.590375
3.89539
1.02546
2.46272
3.42979
3.31644
3.8038
3.053
2.8374
1.922
-0.725648
2.76613
0.942128
1.00527
0.151835
1.04649
1.78689
3.4454
1.47747
0.72124
0.995387
1.4931
0.196933
1.81004
1.45644
1.09341
4.3603
0.636969
2.70235
2.43141
3.0173
0.431641
1.99137
1.58407
0.248158
1.30258
1.12226
0.250241
-0.78662
0.466278
3.10597
0.864447
0.99457
1.71285
2.49752
2.91875
3.30556
2.0411
0.296395
1.7524
0.425841
1.84008
2.34566
-0.660367
0.784552
-0.604895
0.511809
1.21395
1.9626
0.967303
1.74168
-0.906922
1.66529
1.20049
-2.58062
2.4395
-1.36549
-0.0348609
0.897509
-1.21382
-0.825278
0.0414953
1.81684
0.764292
1.90958
0.865496
-0.196907
0.67894
1.2152
2.17801
0.787834
-0.679298
1.46935
1.22046
-0.449303
2.67775
0.0531611
1.77988
0.575346
1.36757
0.278603
0.0669764
0.145818
0.666955
1.31773
)
;

boundaryField
{
    hotSide
    {
        type            calculated;
        value           nonuniform List<scalar> 
400
(
-3.76696
-2.35952
-1.70975
-1.21206
-2.31329
-2.03221
-3.13341
-2.5369
-4.78158
-4.72701
-3.43429
-4.91701
-4.41305
-3.77107
-3.49724
-2.9373
-0.583779
-0.342943
1.17884
-2.75459
0.0645351
-0.328636
-0.429701
-1.49985
-0.334898
0.306789
-0.579614
-0.88801
-0.670049