/*--------------------------------*- C++ -*----------------------------------*\
| =========                 |                                                 |
| \\      /  F ield         | OpenFOAM: The Open Source CFD Toolbox           |
|  \\    /   O peration     | Version:  2212                                  |
|   \\  /    A nd           | Website:  www.openfoam.com                      |
|    \\/     M anipulation  |                                                 |
\*---------------------------------------------------------------------------*/
FoamFile
{
    version     2.0;
    format      ascii;
    arch        "LSB;label=32;scalar=64";
    class       volScalarField;
    location    "0";
    object      relativeErrorField;
}
// * * * * * * * * * * * * * * * * * * * * * * * * * * * * * * * * * * * * * //

dimensions      [0 0 0 1 0 0 0];

internalField   nonuniform List<scalar> 
3200
(
0.012614
0.00124198
0.00386032
0.00467049
0.00473235
0.000463701
0.00785636
0.00659912
0.00014458
0.00765906
0.00787727
0.00610469
0.00177406
0.0105225
0.0128321
0.00689683
0.00495452
0.00306016
0.00702944
0.00682455
0.00318776
0.00157471
0.0046928
0.00523924
0.0019741
0.00685739
0.00778579
0.00539144
0.0041706
0.00491661
0.00875855
0.00951565
0.0100242
0.00770265
0.00498042
0.00470394
0.0010547
0.000310516
0.00160056
0.00348449
0.00259404
0.000402919
0.00318928
0.00608961
0.0102168
0.00770663
0.00808131
0.00938471
0.00569795
0.0100789
0.00855193
0.00511811
0.000671577
0.000656547
0.000518005
0.00837472
0.00348349
0.00361726
0.00412155
0.00678977
0.00356214
0.00614211
0.000112842
0.00871586
0.00219282
0.00908269
0.00372734
0.00360804
0.00165968
0.00390553
0.00332165
0.00917223
0.00835719
0.000529611
0.000564557
0.0017634
0.00392439
0.000860419
0.000894032
0.00452103
0.00080099
0.000509694
0.00314826
0.00781356
0.00401565
0.0040111
0.00518425
0.00861943
0.00360644
5.33928e-05
0.00152587
0.0028394
0.000645911
0.00816228
0.00541475
0.00909464
0.00207533
0.00461675
0.00179295
0.0121556
0.00166544
0.00474704
0.00221181
0.00443702
0.00461791
0.00405289
0.00350983
0.000710503
0.00235623
0.00101253
0.00348033
0.00263374
0.00648796
0.00275721
0.00225654
0.00183724
0.00480405
0.00309056
0.00488492
0.00087658
0.00414794
0.00249158
0.00566492
0.00327903
0.00283789
0.00656265
0.00360469
0.000547273
0.00203858
0.00531296
0.00326096
0.00351597
0.00419862
0.00266065
0.00172167
0.00546435
0.00440975
0.00216712
0.00145578
0.000261795
0.00243055
0.00176754
0.00209478
0.00301927
0.00767569
0.000919285
0.0017201
0.00207841
0.00270128
0.000197441
0.0028868
0.00582582
0.00286792
0.00101832
0.000967454
0.000610527
0.00875138
0.000280519
0.00941335
0.00386698
0.00842692
0.00241392
0.000525008
0.00339808
0.00106824
0.00570671
0.00398555
0.00353052
0.00203196
0.00662195
0.00419008
0.00779147
0.00554348
0.00921054
7.94721e-05
0.0100338
0.00109278
0.00412438
0.000943318
0.0151441
0.00614234
7.9511e-05
0.00385994
0.000584287
0.00210816
0.000115623
0.00431467
9.54609e-05
0.00615747
0.000881848
0.000272079
0.0106784
0.00169167
0.00256425
0.000345609
0.00698332
0.0021047
3.57243e-05
0.000752883
0.00148148
0.00806661
0.00118763
0.00193656
0.00369177
0.00502605
0.00211656
0.00386052
0.00283963
0.00497171
0.00758752
0.00476702
0.0048919
0.00410185
0.00287607
0.00156444
0.00706207
0.00470523
0.00183328
0.0034123
0.0030383
0.00207913
0.00499143
0.00105904
0.000283898
0.00116594
0.00471581
0.00735371
0.00768621
0.00238309
0.00427092
0.00338805
0.0035185
0.00737568
0.00517824
0.00541854
0.000170479
0.00545239
0.000106421
0.000960798
0.00117187
0.00521667
0.00301058
0.00968724
0.00468589
0.000171814
0.000383382
0.0016247
0.000594633
0.00250771
0.000388084
0.000310845
0.00182845
0.000762473
0.00257637
0.00770065
0.00291784
0.00557187
0.00278085
0.00432357
0.00142147
0.00575368
0.00486909
0.000897295
0.00502401
0.00438817
0.000897841
0.005919
0.00145191
0.000382995
0.00777512
0.00247331
0.00179072
0.0027581
0.00518103
0.00177264
0.00173189
0.00494256
0.00203808
0.00246842
0.00585657
0.00396195
0.00303551
0.00163305
0.00101873
0.00246636
0.00448817
0.00510923
0.00314382
0.00191518
0.000142049
0.00218008
0.00792356
0.00329702
0.000426767
0.000444086
0.00114102
0.00188306
0.00327172
0.000832824
0.00408718
0.0048607
0.000908175
0.00113099
0.000724078
0.0092237
0.0011009
0.00201729
0.000213916
0.00117626
0.00294307
0.00309536
0.0089987
0.0055963
0.00106712
0.00103132
0.00582407
0.00148038
0.00108839
0.00719472
0.00512568
0.0064975
0.00272016
5.29301e-05
0.00143098
0.00426143
0.00196906
0.000300632
0.00158234
0.00709816
0.000609347
0.000644382
0.00513962
0.000775755
0.00496158
0.00305903
0.00161577
0.00346241
0.000166942
0.00364904
0.00337028
0.000908055
0.00238351
0.000664295
0.0022518
0.000723989
0.0106722
0.000921472
0.00529528
0.00558042
0.00189543
0.00420751
0.0036004
0.00420394
0.00962896
0.00765678
0.00328053
0.002155
0.00621043
0.00182753
0.00476185
0.00852087
0.000917467
0.00439735
0.0104372
0.00205428
0.00859453
0.00770285
0.00499742
0.000301115
0.00644125
0.00527888
0.00460803
0.00296748
0.00369293
0.000136073
0.00662354
0.00257836
0.00307692
0.00202514
0.00488424
0.000760536
0.00288975
0.00314864
0.00207261
0.0057872
0.00305654
0.000195929
0.00547412
0.000512886
0.000374034
0.00419219
0.000359348
0.00117206
0.00423103
8.08802e-06
0.00694361
0.000236409
0.00201306
0.00385929
0.00227578
0.00752627
0.00605349
0.00272583
0.000493674
0.00555323
0.00607443
0.00170072
0.00690484
0.00146252
0.00697019
0.0042171
0.00267084
0.00402474
0.00268539
0.000625288
0.00472239
0.00683619
0.000352483
0.0010618
0.00400005
0.00480818
0.0106767
0.00213488
0.00537245
0.000853756
0.00400731
0.00366835
0.000568093
0.00335997
0.000939752
0.0032496
0.00374623
0.00461954
0.00545851
0.00392838
0.00255558
0.00207723
0.00289843
0.00391838
0.00547018
0.00083662
0.00185777
0.00102351
0.00593994
0.00895745
0.001435
0.00697612
0.000912247
0.000604908
0.00761687
0.000287241
0.00314221
0.00333785
0.00256863
0.00392739
0.00159877
0.00516325
0.00222925
0.00122825
0.000712164
0.00398555
0.00375123
0.0033201
0.00323956
0.00047921
0.00222901
0.00338989
0.00592856
0.00221619
0.00138745
0.000115348
0.000216145
0.00484577
0.000400024
0.00127197
0.00183445
0.00275733
0.000869832
0.00344304
0.00148187
0.00502513
0.00590265
0.00156778
0.00347413
0.00678027
0.00387126
0.00261061
0.0010394
0.000250922
0.0037494
0.00453308
0.00196371
0.000410173
0.00339119
0.00383721
0.0013807
0.00181787
0.00200001
0.00384262
0.000473892
0.0138482
0.00101036
0.00181284
0.0021858
0.000655097
0.000693602
0.00682378
0.00045704
0.00151598
0.000201369
0.000678523
0.00397563
0.000914393
0.0025087
0.000855661
0.00179618
0.000161626
0.00284959
0.000469799
0.00819578
1.25228e-06
0.00471632
0.00553271
0.00226544
0.00954676
0.00680779
0.000570274
0.00757817
0.0097545
0.00421395
0.00540711
0.000710192
0.000922466
0.00598844
0.00073003
0.00125503
0.000623509
0.00285251
0.00254253
0.000360386
0.0032958
0.000857595
0.000443279
0.000435329
0.001856
0.00603438
0.00488463
0.00310515
0.0117668
0.00455721
0.00606196
0.00290029
0.00276534
0.00511936
0.00212858
0.00308108
0.00218417
0.000290299
0.00208221
0.00674163
0.00927187
0.00279157
0.00104729
0.00250599
0.00133384
0.00128972
0.00345412
0.000279463
0.00305368
0.00299001
0.0002484
0.00123351
0.00303243
0.00119819
0.00196123
0.00307123
0.00459554
0.0012412
0.00341872
0.00528968
0.00320667
8.05428e-05
0.000220504
0.00295836
0.00101634
0.00265893
5.17531e-05
0.000430423
0.000334135
0.00720551
0.00182605
0.00146678
0.000481207
0.00178636
0.00909947
0.00391516
0.000341029
0.000756469
0.00462234
0.00257706
0.00260518
0.0024722
0.00776177
0.00223784
0.00612225
0.000383059
0.000344073
0.0015212
0.00398396
0.000931855
0.000530452
0.00535969
0.00156451
0.00330147
0.00955294
0.00332385
0.002667
0.000372339
0.000121096
0.00219186
0.0036677
0.00278833
0.00221657
0.000711262
0.00186638
5.18724e-05
0.0016283
0.00379942
0.00104136
0.000119821
0.00197108
0.000135702
0.00199444
0.000625632
0.00391551
0.00279382
0.00430658
0.00419087
0.00612121
0.00493386
0.00829695
0.0024604
0.00595659
8.44233e-05
0.000872673
0.00573315
0.00680744
0.00533692
0.00221719
0.00347767
0.000897072
0.00330111
0.00303673
0.000329965
0.00277255
0.0066377
0.00347946
0.00231462
0.0049379
0.0144087
0.0126374
0.00124539
0.00112272
0.00245285
0.00413597
0.00454406
0.00420397
0.000153632
0.00149178
0.000377598
0.00776042
0.00134751
0.000851936
0.00322884
0.00870918
9.64671e-05
0.00343513
0.000175307
0.00511946
0.00882199
0.0138449
0.00208438
0.00107326
0.00142924
0.00617857
0.00317301
0.00486383
0.0045676
0.0010087
0.00418818
0.00100211
0.00344115
0.00257794
0.00691939
0.00403083
0.0039101
0.0057895
0.0044042
0.00375875
0.00162007
0.00338158
0.000997356
0.000941123
0.0030381
0.0039513
0.00015549
0.000785109
0.00296207
0.0111757
0.00204445
0.00320127
0.00109963
0.00237342
0.00187368
0.00472083
0.00493781
0.00286364
0.000682472
0.0018779
0.00104144
0.000833526
0.00245018
0.00442203
0.000397509
0.00227863
0.00301366
0.00163976
0.0015273
0.00175931
0.00486434
0.00475477
0.00598747
0.00145353
0.00760454
0.000152029
0.000758759
0.00380065
0.00219979
0.00248448
0.00104046
0.00378168
0.00305889
0.0024015
0.00135336
0.00150211
0.00426101
0.00680816
0.000628774
0.00647161
0.00211404
0.0062293
0.00095696
0.00431475
0.00222518
0.00153811
0.000228641
0.00669377
0.00279588
0.000864851
0.0014602
0.00231593
0.0038494
0.0009327
0.00218456
0.000439957
0.0019716
0.00451131
0.00711502
0.00275872
0.00359959
0.000923708
0.0016023
9.10994e-05
0.00324474
0.00340746
0.00490382
0.00526747
0.00703651
0.00046023
0.00695513
0.00419061
0.00278018
0.00163127
0.00220753
3.68892e-05
0.000462361
0.000655585
0.0061425
0.00402713
0.00213251
0.000795983
0.00103689
0.00357287
0.00846036
6.57216e-05
0.00380347
0.00294333
0.00267903
0.000167926
0.00132008
0.00747022
0.000580286
0.00154824
0.00153636
0.00387594
0.00855408
0.00234404
0.00343295
0.00309028
0.000485098
0.000988555
0.000747855
0.00619627
0.00255428
0.00203911
0.00548218
0.000828297
0.00534063
0.00785693
0.0117546
0.00561144
0.00119887
0.00158494
0.000124093
0.00448431
0.000559447
0.00950999
0.000301642
0.00286278
0.000418318
0.00173539
0.00457251
0.000518175
0.000255606
0.000893592
0.0044226
0.000526469
0.00063497
0.00109506
0.0059183
0.0118105
0.000600317
0.0022733
0.00725394
0.00419318
0.0031061
0.00357241
0.00451644
0.000864387
0.00531439
0.0017926
0.00267497
0.00320135
0.00194363
0.00749636
0.00321294
0.00181945
0.00519894
0.00694744
0.00485782
0.00366768
0.00196747
0.0023728
4.71984e-05
0.00288625
0.00272924
0.00186136
0.000515367
7.61536e-06
0.00303623
0.000281062
0.00262537
0.00525282
0.00413942
0.00175451
0.000180979
0.00200721
0.0021277
0.00112667
0.0017206
0.00676065
0.00430574
0.000922998
0.00289769
0.00345973
0.00242924
0.00338705
0.000293061
0.00468412
0.0044188
0.00152355
0.00740711
0.00504926
0.00469664
0.000908997
0.000773948
0.000287853
0.00251852
0.0017248
0.0045355
0.00825852
0.00534688
0.000476617
0.000661273
0.00247414
0.00020414
0.00118769
0.00384844
0.00114337
0.00133494
0.00368427
0.00131307
0.00316319
0.00608557
0.000329979
0.00348881
0.00460801
0.00199812
0.00192687
0.00240524
0.0017224
0.00815183
0.00154408
0.00588959
0.0073262
0.0015136
0.00249965
0.0044181
0.000705933
0.00400487
0.00299696
0.00427664
0.00223361
0.000227901
0.00599615
0.00142523
0.00057998
0.00252985
0.00284663
0.00373472
0.000862676
0.00130872
0.00265741
0.00114301
0.000485404
0.000665934
0.00394157
0.00083266
0.000851404
0.00300898
0.00477666
0.0034208
0.00184894
0.00157206
0.00066567
0.00106968
0.000193505
0.00104678
0.00833183
0.00304949
0.0107253
0.00321635
0.00150172
0.00535796
0.000101592
0.000978077
0.0013264
0.00171091
0.00769723
0.00444215
0.00453822
0.00599187
0.00402701
0.0019412
0.00162947
0.00107757
0.000357744
0.00144252
0.00586357
0.00603954
0.00662374
0.0053824
0.00421251
0.000308416
0.00191507
0.0037123
0.00431879
0.00269801
0.00377017
0.00161226
0.00498298
0.0036594
0.00205131
0.00161523
0.00704559
0.00646072
0.00396329
0.00658258
0.00592702
0.00757869
0.0114278
0.0130453
0.001012
0.000530102
0.00034972
0.0017713
0.000244067
0.00199878
0.0031166
0.00171444
0.00154293
0.00156172
0.00396435
0.00161565
0.00105526
0.00553357
0.00804024
0.00310449
0.00446982
0.00249266
0.000550686
0.00242675
0.000576271
0.00103341
0.00201387
0.0015597
0.000410898
0.000260226
0.000633356
0.00586858
0.00355288
0.000607972
0.00357273
0.00224182
0.00502406
0.00104693
0.00220007
0.00825893
0.00350919
0.00826277
0.0051472
0.00280033
0.00108337
0.00504974
0.00394527
0.00125365
0.00330038
0.000589225
0.00127564
0.0016619
0.00195197
0.00270529
0.00240116
5.23813e-05
0.00040741
0.00357344
0.00148896
0.00213945
0.00220836
0.00306678
0.00444766
0.00489437
0.00226359
0.00439018
0.00494505
0.000976221
0.00263543
0.00363305
0.00498639
0.000556719
0.00501451
0.00378296
0.00262986
0.00502673
0.00467287
0.000663084
0.00174266
0.00679896
0.00376173
0.00229488
0.00202139
0.00359004
0.00304691
0.00193625
0.000620562
0.0035357
0.00141051
0.00178911
0.00303605
0.00487963
0.00196175
0.0011996
0.00136762
0.00537604
0.00628529
0.000474838
0.00159599
0.00044413
0.00504247
0.00789936
0.00219475
0.00069796
0.00517896
0.000633095
0.00179005
0.00201052
0.00193388
0.0034867
0.00380967
0.0018302
0.00896708
0.00599423
0.00611945
0.0011319
0.00109407
0.00382283
0.0012278
0.00360007
0.00770369
0.00382017
0.00897052
0.0041429
0.00601349
0.00212561
0.000179107
0.00744132
0.00266216
0.00107987
0.000781823
0.00666109
0.00435741
0.00662195
0.00220038
0.0020716
0.00418507
0.00556357
0.00472576
0.00445249
0.00963174
0.00456843
0.00780772
0.00078941
0.00671421
0.000371053
0.00640814
0.00233534
0.00615652
0.000348274
0.00798862
0.000643517
0.000324085
0.00590233
4.65374e-05
0.00113019
0.00044377
0.00668474
0.000840526
0.00974853
0.000631455
0.00786629
0.00818572
0.00458501
0.000767594
0.00377769
9.7227e-05
0.00272501
0.00534398
0.00166419
0.000533501
0.00134358
0.0056812
0.00256825
0.0010518
0.00247074
0.00465617
0.00260561
0.0039783
0.00438658
0.00175487
0.0139541
0.0154651
0.000208477
0.000473654
0.000471631
0.00345596
0.00248865
0.00325526
0.00116406
0.00181707
0.00192236
0.00459638
0.0030293
0.00369263
0.00629334
0.00198618
0.000224049
0.0039596
0.00782406
0.00695432
0.0018084
0.00765941
0.00214042
0.00135177
0.00218027
0.00222213
0.000377341
0.00183616
0.00511919
0.00077871
0.00590915
0.00182271
0.00423641
0.00205149
0.000405435
0.00181698
5.07478e-05
0.00170388
0.00410665
0.00751566
0.00220007
0.00315152
0.00161036
0.00674019
0.00387126
0.00550138
0.00118226
0.00584862
0.000812809
0.00466034
0.00816341
0.000457542
0.00579275
0.00162186
0.0032199
0.00225586
0.0037468
0.00434379
0.00309643
0.00255235
0.00107301
0.00442325
0.00901762
0.00358505
0.000519462
0.00312555
0.00109009
0.00265292
0.00228976
0.00138204
0.00458351
0.0044183
0.00270923
0.000448596
0.000318153
0.00110913
0.000407963
0.00121145
0.00161192
0.00115108
0.00336818
0.0069303
0.00565179
0.00495146
0.00294101
0.000564226
0.00333232
0.0024266
0.00112792
0.00266666
0.00600873
0.00549795
0.000946393
0.00259068
0.0033255
0.00125518
0.00200004
0.00119523
0.0023552
0.00155017
0.00656377
0.0155539
0.00352502
0.00503566
0.00324347
0.00306789
0.00292315
0.00477647
0.00511974
0.00359858
0.00730545
0.00154692
0.00876011
0.00615299
0.00747776
0.00147168
0.00921949
0.00118181
0.00497779
0.0107854
0.0128695
0.0147005
0.00697088
0.000815226
0.00112223
0.00304469
0.00138145
0.00363295
0.0041186
0.00359543
0.00121771
0.00780536
0.00649759
0.00379993
0.00165197
0.000968444
0.00595002
0.0056042
0.00255596
0.00397767
0.00591082
0.00887737
0.00162399
0.00437701
0.00339219
0.00552708
0.00813442
0.00555
0.0045928
0.000847112
0.00201293
0.00622517
0.00391564
0.00889276
0.00114391
0.00264358
0.00215947
0.00753586
0.00252105
0.00604667
0.00762124
0.00610243
0.0104062
0.00626406
0.00387833
0.00225734
0.0105806
0.00118
0.000874023
0.0038887
0.00405522
0.00650329
0.00983943
0.00639745
0.000607676
0.00754306
0.00733673
4.04878e-05
0.00300035
0.00372544
0.00619838
0.00598076
0.00298663
0.000175746
0.000117534
0.000812373
0.000232531
0.0021268
0.00543123
0.00137244
0.000426715
0.00244685
0.000505809
0.00535032
0.00400827
0.00260295
0.00251325
0.00116226
0.000120121
0.00252447
0.0108597
0.00330918
0.00175603
0.000128114
0.00206636
0.00129231
0.0024275
0.00274452
0.0017738
0.00231968
0.00173825
0.00791889
0.00199518
0.00131002
0.00314347
0.0056669
0.00520638
0.0024095
0.00655432
6.64166e-05
0.00220449
0.000252267
0.00587669
0.00256549
0.00188523
0.00141815
0.00155371
0.00200622
0.00223976
0.00105889
0.00294838
0.00396323
0.00324528
0.00393703
0.0019913
0.00210934
8.49658e-05
0.00326222
0.00178609
0.00155002
0.00172471
0.0102453
0.0026266
0.000804462
0.00605407
0.00433793
0.000797098
0.00100158
0.000662605
0.0068597
0.0021887
0.000397876
0.000917211
0.00330807
0.00313288
0.00677746
0.0021129
0.000516346
0.00150003
0.00050231
0.00261097
0.0153757
0.00827637
0.00852972
0.0014472
0.00205776
0.0067343
0.00978235
0.000674134
0.00687015
0.00561676
0.0111461
0.00324843
2.4415e-05
0.00779047
0.00629421
0.000284565
0.00067949
0.00344534
0.0107365
0.00898958
0.0147756
0.00183199
0.00694868
0.000350421
0.0012118
0.000220308
0.00202739
0.00101704
0.00109703
0.000477282
0.000364239
0.00393
0.000623266
0.00405836
0.000785833
0.0102656
0.00119365
0.00519786
0.00259118
0.00951731
0.0119017
0.00789813
0.00758281
0.00199686
0.00501771
0.00184878
0.00101871
0.00127754
0.00751682
0.00451221
0.0046077
0.00340828
0.000311291
0.00322013
0.00177057
0.00977054
0.00264471
0.00146344
0.0100056
0.00543616
0.00872379
0.0031782
0.00715204
0.000840171
0.00542548
0.000682865
0.00626186
0.000167832
0.00203402
0.00295657
0.0018022
0.00275519
0.00946357
0.0042217
0.00137602
0.010161
0.00766483
0.00501278
0.00188289
0.011678
0.003416
0.00908597
0.00529509
0.00142944
0.00242389
0.00138698
0.000664862
0.00031858
0.000280324
0.0055766
0.00526495
0.00483182
0.00437709
0.000527409
0.000191466
0.00224161
0.000447244
0.00618758
0.00388118
0.00555505
0.00265929
0.000945646
0.00371633
0.000750151
0.00076251
0.00223892
0.00168883
0.00301974
0.00194131
0.00110237
0.00143948
0.000640581
0.00362092
0.00109158
0.00191006
0.000742858
0.00474217
0.00413531
0.00258661
0.00062968
0.00105156
0.000498071
0.00180299
0.00106799
0.00199486
0.00353146
0.0051826
0.00294863
0.00212278
0.0027944
0.000544021
0.00235333
0.00223198
0.00064589
0.0027937
0.00720764
0.00297617
0.00144862
0.00398785
0.0016773
0.00280306
0.00278335
0.000293095
0.00307327
0.000529149
0.0023137
0.00135631
0.00361469
0.00522233
0.00420489
0.00502652
0.00238616
0.000893132
0.00251707
0.00144873
0.00656463
0.00260984
0.00369728
0.00281411
0.00277885
0.0115978
0.0139657
0.0100786
0.00305063
0.0063366
0.00653473
0.00318708
0.00293423
0.000805451
0.00705637
0.00706881
0.000108498
0.00864565
0.00588321
0.00683343
0.00432836
0.00407439
0.0027321
0.0184664
0.0114806
0.0104527
0.0017107
0.00353855
0.000608344
0.00287261
0.00113985
0.00219975
0.00137534
0.00188491
0.000147814
0.000191505
0.00495731
0.000935068
0.00433314
0.00129179
0.00103601
0.00166313
0.00136517
0.000279043
0.0115173
0.011405
0.000182292
0.0142267
0.00446506
0.00195254
0.00184448
0.00370931
0.000857204
0.00519653
0.0040047
0.00226131
0.000819546
0.00150121
0.00594803
0.000692781
0.00525634
0.00605998
0.00556025
0.00143756
0.00330568
0.0100394
0.00139317
0.0112837
0.00363216
0.00595934
0.00208589
0.00358044
0.00741092
0.00101265
0.00483237
0.000265717
0.00316307
0.00373373
0.000881695
0.000236472
0.00288814
0.00821007
0.0120678
0.00873063
0.0103844
0.0102091
0.00696068
2.11794e-05
0.00193059
0.000849681
0.00628118
0.0011163
0.000887336
0.00105767
0.000826304
4.48475e-05
0.00232154
0.0010166
0.00277968
0.00559196
0.000144612
0.00395389
0.000804333
0.00530147
0.00511209
0.00893396
0.00849268
0.00688873
0.00129993
0.00246992
0.00637078
0.00167078
0.00308813
0.00484384
0.000839998
0.000753732
0.00088645
0.000456376
0.000960595
0.0022216
0.000781112
0.00587292
0.00336648
0.00619849
0.00635898
0.00643486
0.00790957
0.0062645
0.00482401
0.0105322
0.00218178
0.00311605
0.00228232
0.00180066
0.00272993
0.000289928
0.00437794
0.00482546
0.00750592
0.000613179
0.00337335
0.000579539
0.00780574
0.00240119
0.00662525
0.000719387
0.00147416
0.00476523
0.00028724
0.00152483
0.00501347
0.00286438
0.00457898
0.00415509
0.00243177
0.00209556
0.00625327
0.00939683
0.00344289
0.00184735
0.00316651
0.000444248
0.00580715
0.00306244
0.0029787
0.015884
0.00745346
0.00801087
0.00931666
0.00437694
0.00660868
0.00309291
0.00362921
0.00567256
0.00559073
0.00824152
0.00603737
0.000918188
0.000929939
0.0059356
0.00263983
0.00528374
0.00406622
0.00835831
0.0155148
0.0105072
0.00867277
0.00716193
0.00879616
0.00269965
0.00209587
0.00712709
0.00389085
0.000869586
0.00350774
0.00371308
0.00412548
0.000570634
0.00712701
0.00598431
0.001845
0.00327457
0.00748283
0.00710581
0.00702082
0.010794
0.00915775
0.00470083
0.00019868
0.0058928
0.00290825
0.00447133
0.000936512
0.00188873
0.00361541
0.00373399
0.00306035
0.00464155
0.00785422
0.000694374
0.00168797
0.00567717
0.000706813
0.00482743
0.0147339
0.00605964
0.00267975
0.010634
0.0102811
0.00292071
0.00143288
0.00656111
7.84563e-05
0.0039553
0.00130863
0.00123506
0.00296213
0.00353138
0.00469023
0.00411665
0.00180975
0.00187912
0.00810486
0.00101545
0.00654122
0.0101469
0.00285897
0.00326965
0.00516732
0.00119924
4.1003e-05
0.000420726
0.00510846
0.000827329
0.00613187
0.00651932
0.00495699
0.00294609
0.000520174
0.000123154
0.00297297
0.00290505
0.00211085
0.000907481
0.0128985
0.00284728
0.00451534
0.00223467
0.00438676
0.00380322
0.00224513
0.00379714
0.00184061
0.00376327
0.00189486
0.00172503
0.00298118
0.00596301
0.00601773
0.00325999
0.00201151
0.00230651
0.00101688
0.00560555
0.00717494
0.00368907
0.00214745
0.00668948
0.00228297
0.00126468
0.000913733
0.00302857
0.00852385
0.00718685
0.000686004
0.0011926
0.00649154
0.00789365
0.00645174
0.00178661
0.000949256
7.74358e-06
0.00710765
0.00585202
0.00168153
0.00121329
0.00269448
0.000590016
0.00173894
0.00253988
0.00355405
0.000466151
0.00160561
0.00513029
0.00342607
0.00309668
0.00103147
0.00604805
0.00147312
0.0037401
0.00488217
0.0025577
0.00121311
0.00150499
0.000779675
0.0144074
0.00327563
0.00872173
0.000732984
0.0089184
0.00176862
0.00035957
0.00036943
0.00411126
0.00208997
0.000200925
0.00516262
0.000138762
0.0039632
0.00560173
0.00164206
0.00321037
0.00240778
0.0107571
0.00553384
0.0131714
0.000108932
0.0100607
0.000756557
0.00263316
0.00151352
0.00122351
0.000307533
0.000464676
0.00121681
0.000295567
0.00372344
0.000452052
0.00162122
0.000991988
0.00314054
0.00160507
0.00428695
0.000111316
0.0118192
0.0109156
0.00525455
0.00525616
0.00223646
0.00844023
0.00541675
0.00222561
0.000351444
0.00546553
0.000487228
0.00139499
0.00370755
0.000494252
0.00434917
7.89671e-06
0.00257917
0.00153311
0.00573339
0.00405652
0.00972018
0.014349
0.00192973
0.000547898
0.00490544
0.000206134
0.00159959
0.00189551
0.00237961
0.000656199
0.000861293
0.00408829
0.00307718
0.00386058
0.00183603
0.00579054
0.00438458
0.0015579
0.000289604
0.0070838
0.0138294
0.00351852
0.00401567
3.28044e-05
0.00431176
0.00491217
0.000765267
0.00215412
0.0057999
0.000460318
0.00151791
0.00962515
0.00219888
0.00113823
0.000358567
0.00191733
0.00448702
0.00233097
0.00404007
0.000146116
0.00424857
0.00263282
2.19946e-05
0.00365326
0.00227
0.00347231
0.00452635
0.00384231
0.00305296
0.00190918
0.00461563
0.00305971
0.00693446
0.0115535
0.00271236
0.00506246
0.00386289
0.00170187
0.00117933
0.00270031
0.00448382
0.00316289
0.00380804
0.00713359
0.00225421
0.00410951
0.000485333
0.00541742
0.00248518
0.00427147
0.00166194
0.00482025
0.00351862
0.00248479
0.00037418
0.00488333
0.00406227
0.00150244
0.000996662
0.000717174
0.0041866
4.21693e-05
0.00393788
0.000753629
0.00114311
0.00176895
0.00139779
0.00392017
0.00245875
0.00234574
0.00512572
0.000866947
0.00236015
0.00699812
0.000498407
0.00500723
0.00197766
0.000711396
0.00155817
0.00261161
0.000216116
0.01255
0.00418591
0.00673721
0.00302822
0.000366664
0.00152915
0.000941552
0.00104892
0.00225891
0.00648494
0.00232709
0.00451798
0.00558508
0.000638666
0.00236676
0.00868984
0.00290866
0.000616408
0.00630303
0.00994987
0.00591511
0.0106004
0.00632034
0.000102614
0.000902207
0.00426319
0.00237601
0.00558343
0.000252462
0.00249434
0.000723388
0.0072669
0.00484237
0.000143934
0.00161021
0.00409793
0.000881576
0.0100643
0.000589493
0.00680388
0.00692157
0.00739962
0.00780866
0.00398696
0.00113549
0.0047634
0.00558784
0.00406219
0.00187719
0.0011317
0.00088199
0.00458991
0.00181741
0.00195936
0.000685007
0.00366869
0.000873628
0.00339769
0.00553699
0.00108257
0.00637802
0.00741282
0.00349052
0.00126304
0.00207364
4.90597e-05
0.00140747
0.000240321
0.000258397
0.000514133
0.000287596
0.000273751
0.0128733
0.00198441
0.00289137
0.000797474
0.00237621
0.00339154
0.00102747
0.00551346
0.00145923
0.00384524
0.00220934
0.00336747
0.000679798
0.000654593
0.00537537
0.00496845
0.00039574
0.000872849
0.00388821
0.00324402
0.00322305
0.00276407
0.00370488
0.00399813
0.000864066
0.0017438
0.00108804
0.00375853
0.000843442
0.00423961
0.0011874
0.00104994
0.00405509
0.00541144
0.00202846
0.00226118
0.00466403
0.00119046
0.000997308
0.00192966
0.00165318
0.00317376
0.000926044
0.000433193
0.000689149
0.00138348
0.00297926
0.00311992
0.00398019
0.00298991
0.000252843
0.00474825
1.2441e-05
0.00427591
0.00286293
5.70016e-05
0.00147566
0.00524936
0.00621975
0.000254177
0.00218026
0.00436561
0.00258043
0.00404247
0.00629256
0.00710429
0.00291984
0.00334211
0.00176594
0.00203335
0.00414861
0.000782338
0.00812532
0.00150625
0.000975901
0.00116089
0.00131967
0.00387325
0.00252003
0.000142804
0.00323275
0.0027647
0.00447107
0.00711161
0.00235099
0.00199925
0.00205452
0.000641382
0.0117613
0.00641603
0.00306628
0.00178191
0.0038816
0.00396742
0.00456558
0.00239148
0.0038116
0.000904397
0.00712308
0.00369807
0.000578811
0.000983385
0.000329904
0.00425308
0.00146302
0.00644429
0.00589574
0.0071507
0.00468687
0.000121137
0.00638287
0.000627827
0.000395078
0.00186048
0.00117579
0.000738445
0.00136617
0.000204126
0.000929701
0.00571809
0.000993088
0.00132303
0.00123064
0.00296801
1.51923e-05
0.00113559
0.000279363
0.00805028
0.0087922
3.49956e-06
0.00608869
0.000137716
0.000270669
0.00128054
0.00554845
0.00211248
0.00319368
0.00294535
0.00198354
0.0014782
0.00554521
0.000378323
0.00226699
0.00023622
0.000958436
0.00195411
0.00758871
0.00545108
0.00592836
0.00565152
0.00597892
0.00121472
0.00282959
0.000340461
0.000538966
0.00125511
0.000426078
0.00284996
0.00217989
0.000348485
0.00115761
0.00279754
0.00226352
0.00186364
0.000248067
0.000638549
3.88431e-05
0.000453803
0.00196185
0.00478303
0.00207955
0.00147852
0.000170161
0.000890221
0.00257698
0.00360402
0.000358479
0.00595932
0.000956871
0.000495972
0.00585981
0.00463923
0.000554145
0.00114083
0.0128921
0.00386215
0.00715656
0.000961218
0.00203252
0.00060364
0.000701864
0.00018081
0.000871328
0.00506873
0.00514854
7.82619e-05
0.00496978
0.00343494
8.43421e-05
0.00616034
0.008185
0.000997585
0.00364173
0.00311914
0.00243363
0.00107849
0.00203034
0.000307439
0.00657558
0.00645697
0.00277666
0.00465155
0.00351759
0.00256512
0.00130415
0.00593466
0.00203388
0.00135914
0.000868722
0.00529827
0.00412874
0.00139222
0.00364602
0.00207086
0.00330351
0.00546915
0.00182196
0.00240675
0.00286511
0.00617635
3.32356e-05
0.000672909
0.00223446
0.00473247
0.00551242
0.00553333
0.00301343
0.00153857
0.00384648
0.000219165
0.0012487
0.00172594
0.00571019
0.00360514
0.000683379
0.00612177
0.00867963
0.00253644
0.0101734
0.00499932
0.000981612
0.000901548
0.000210845
0.00127605
0.00152891
0.00410851
0.0047459
0.00677674
0.0015986
0.00135388
0.00584773
0.00682295
0.00314615
0.00201647
0.000566265
0.00276362
0.000273912
0.0061426
0.00847347
0.00248252
0.00293946
0.00369694
0.00278055
0.0103398
0.0018482
0.00278331
0.00109687
0.000861192
0.000376388
0.00311954
0.00122236
0.00235351
0.00102903
0.00324885
0.000692283
8.89294e-05
0.00807613
0.00609568
0.00221543
0.00992668
0.00294687
0.00382707
0.00421357
0.00161817
0.00219278
0.00368696
0.00174014
0.007788
0.000616863
0.000840182
0.00211822
0.00114506
0.000633495
0.000997207
0.000392188
0.00124243
0.00202338
0.00770684
0.00624359
0.00276576
0.00191551
0.00139967
0.00130518
0.00088595
0.000707754
0.00134005
0.00847719
0.00558613
0.00414699
0.00059493
0.000714489
0.0005301
0.00445213
0.00234581
0.00385177
0.000380872
0.000841776
0.00215199
0.00641297
0.000732258
0.00215714
0.00214444
0.00319651
0.00259785
0.00128938
0.000340467
0.00265409
0.00730567
0.00118447
0.00638785
0.00312488
0.002382
0.00562771
0.00179069
0.00125121
0.00335881
0.00217875
0.00129554
0.00284282
0.00222484
0.00316288
0.00386709
0.00272566
0.0025522
0.00179876
0.00664014
0.00235647
0.00449465
0.00331687
0.000286418
0.0027404
0.000414294
0.0065439
0.00643957
0.00716606
0.000553047
0.00162268
0.00555652
0.000178233
0.00559624
0.00427849
0.00267764
0.00242021
0.00427848
0.00570684
0.00282605
0.000616984
0.00113791
0.00478292
0.000768616
0.00423172
0.00464699
9.36848e-05
0.00401151
0.00241872
0.00166849
0.00486741
0.00767456
0.00175588
0.00203927
0.0029823
0.00101351
0.000319548
0.00200367
0.00376005
0.000603774
0.00350258
0.00264248
0.0011552
0.000143678
0.00324349
0.000770149
0.00667443
0.00166407
0.0042104
0.000409245
0.000211619
0.000721987
0.00356745
0.000292658
0.00230565
0.00309166
0.00800956
0.00160461
0.00662389
0.00757738
0.00104369
0.0104017
0.00202944
0.00575541
0.00514826
0.00335226
0.0115592
0.00264645
0.000227176
0.000310556
0.00400455
0.00450323
0.00608679
0.000376268
0.00248049
0.000118423
0.00186316
0.000770042
0.00114944
0.000842158
0.00632073
0.00129975
0.00061309
0.00592202
0.00187173
0.00662797
0.00119213
0.00384921
0.000320486
0.00363866
0.00107802
0.00814551
0.0128815
0.00474687
0.00145308
0.00113347
0.00530041
0.00406619
0.00433686
0.00362993
0.00522539
0.00235601
0.00174071
0.00307052
0.00577915
0.00120218
0.00289866
0.00230163
0.00253989
0.0022194
0.000755569
0.00023469
0.00659294
0.00235403
0.000306321
0.0019428
0.00840241
0.00461936
0.00023359