/*--------------------------------*- C++ -*----------------------------------*\
| =========                 |                                                 |
| \\      /  F ield         | OpenFOAM: The Open Source CFD Toolbox           |
|  \\    /   O peration     | Version:  2212                                  |
|   \\  /    A nd           | Website:  www.openfoam.com                      |
|    \\/     M anipulation  |                                                 |
\*---------------------------------------------------------------------------*/
FoamFile
{
    version     2.0;
    format      ascii;
    arch        "LSB;label=32;scalar=64";
    class       volScalarField;
    location    "0";
    object      T;
}
// * * * * * * * * * * * * * * * * * * * * * * * * * * * * * * * * * * * * * //

dimensions      [0 0 0 1 0 0 0];

internalField   nonuniform List<scalar> 
3200
(
387.808
387.265
387.351
387.242
387.411
388.537
389.775
389.259
390.056
390.655
391.076
391.101
390.093
389.428
387.845
387.052
386.804
386.934
386.537
385.786
379.455
379.026
379.079
379.053
379.122
379.962
381.225
380.543
381.225
381.826
382.185
382.217
381.385
380.84
379.465
378.833
378.535
378.759
378.334
377.686
370.563
370.2
370.322
370.25
370.148
370.893
372.048
371.402
371.833
372.477
372.752
372.915
372.122
371.652
370.527
370.09
369.687
370.069
369.61
369.043
360.89
360.447
360.819
360.586
360.462
361.077
362.102
361.399
361.8
362.361
362.657
362.763
362.24
361.77
360.805
360.363
360.164
360.468
360.066
359.65
350.249
349.825
350.231
349.882
349.839
350.302
351.077
350.552
350.838
351.283
351.529
351.654
351.344
350.924
350.141
349.704
349.6
349.921
349.487
349.257
338.221
337.944
338.251
337.948
338.001
338.268
338.806
338.387
338.624
338.974
339.147
339.176
339.072
338.76
338.148
337.865
337.793
338.001
337.703
337.453
324.677
324.455
324.611
324.503
324.438
324.619
324.974
324.721
324.863
325.009
325.176
325.228
325.11
324.994
324.592
324.4
324.3
324.439
324.297
324.044
309.042
308.967
309.064
308.993
308.979
309.094
309.202
309.048
309.115
309.182
309.2
309.227
309.228
309.191
309.092
308.979
308.943
308.901
308.955
308.829
387.2
387.395
387.189
387.255
387.745
388.644
389.923
389.478
390.392
391.328
391.468
391.425
390.253
389.754
388.413
387.623
386.892
386.494
385.982
385.83
378.86
379.048
378.893
379.134
379.449
380.158
381.184
380.768
381.595
382.238
382.439
382.322
381.462
381.127
379.811
379.356
378.761
378.385
377.958
377.722
370.12
370.257
370.113
370.288
370.651
371.167
371.943
371.568
372.225
372.751
372.933
372.779
372.176
372.017
370.702
370.583
370.024
369.727
369.3
369.091
360.579
360.577
360.594
360.659
360.966
361.26
361.876
361.603
362.184
362.614
362.758
362.653
362.166
362.129
360.943
360.978
360.514
360.234
359.801
359.734
350.032
349.909
349.875
350.107
350.243
350.378
350.934
350.715
351.092
351.548
351.615
351.533
351.186
351.153
350.123
350.243
349.954
349.668
349.337
349.342
338.155
337.979
338.011
338.232
338.316
338.273
338.713
338.565
338.779
339.189
339.229
339.169
338.995
338.837
338.109
338.215
338.02
337.885
337.578
337.584
324.629
324.489
324.456
324.592
324.727
324.686
324.886
324.83
324.983
325.166
325.221
325.173
325.041
324.977
324.557
324.672
324.447
324.518
324.238
324.247
309.051
308.953
309.01
308.996
309.087
309.064
309.112
309.106
309.19
309.223
309.235
309.205
309.184
309.183
309.009
309.081
309.02
309.011
308.896
308.931
387.816
386.876
387.224
387.196
387.859
389.031
389.592
389.809
391.236
392.175
392.153
391.642
391.358
390.075
389.089
388.072
386.684
386.492
386.072
386.532
379.303
378.782
378.972
378.914
379.514
380.42
380.881
380.968
382.221
383.012
383.063
382.519
382.425
381.288
380.486
379.575
378.56
378.43
378.033
378.243
370.366
369.912
370.136
369.993
370.618
371.347
371.836
371.702
372.805
373.348
373.436
372.93
372.998
372.034
371.42
370.648
369.92
369.836
369.426
369.532
360.737
360.335
360.486
360.321
360.905
361.473
361.976
361.716
362.627
363.048
363.151
362.803
362.875
362.059
361.549
360.929
360.345
360.334
359.955
360.184
350.107
349.648
349.767
349.767
350.241
350.559
351.087
350.846
351.504
351.854
351.917
351.758
351.762
351.002
350.704
350.318
349.699
349.757
349.462
349.719
338.16
337.683
337.922
337.906
338.3
338.436
338.809
338.684
339.076
339.343
339.421
339.281
339.306
338.72
338.633
338.316
337.834
337.865
337.677
337.949
324.555
324.257
324.523
324.487
324.651
324.82
324.979
324.888
325.097
325.277
325.342
325.217
325.357
324.863
324.859
324.733
324.383
324.43
324.261
324.512
308.993
308.899
309.052
309.031
309.041
309.13
309.133
309.112
309.234
309.284
309.263
309.206
309.324
309.098
309.162
309.062
308.984
308.987
308.899
309.024
387.236
387.058
386.92
387.504
388.115
389.007
390.115
390.88
391.969
392.562
393.003
392.862
391.972
390.914
389.585
388.372
387.283
386.665
386.436
386.581
378.844
378.88
378.733
379.153
379.709
380.463
381.208
381.903
382.938
383.327
383.729
383.511
382.865
381.936
380.906
379.899
379.135
378.432
378.358
378.466
370.083
370.054
370.032
370.223
370.798
371.478
371.768
372.395
373.458
373.642
373.859
373.671
373.278
372.606
371.772
370.828
370.457
369.647
369.707
369.718
360.608
360.437
360.497
360.577
361.138
361.613
361.661
362.13
363.229
363.327
363.489
363.216
363.045
362.491
361.793
361.039
360.901
360.145
360.32
360.251
350.117
349.814
349.927
349.925
350.405
350.748
350.697
351.148
351.948
352.001
352.247
351.873
351.895
351.312
350.921
350.403
350.34
349.585
349.858
349.726
338.217
337.991
338.054
338.012
338.45
338.63
338.526
338.885
339.441
339.463
339.72
339.26
339.377
338.93
338.735
338.474
338.282
337.768
337.987
337.986
324.582
324.514
324.587
324.542
324.833
324.909
324.754
325.003
325.318
325.312
325.519
325.169
325.289
325.059
324.935
324.777
324.659
324.395
324.519
324.504
309.02
309.004
309.052
309.005
309.127
309.183
309.103
309.18
309.275
309.288
309.351
309.209
309.301
309.199
309.164
309.12
309.069
308.953
309.047
308.995
387.359
387.719
387.924
387.808
388.69
389.594
390.107
392.28
393.124
393.163
393.504
393.885
392.737
391.895
390.097
388.487
387.543
387.558
387.003
388.301
379.007
379.342
379.543
379.43
380.197
381.031
381.311
383.078
383.732
383.822
384.074
384.394
383.477
382.707
381.21
380.019
379.184
379.191
378.732
380.006
370.111
370.291
370.737
370.536
371.177
371.955
371.938
373.409
374.037
374.011
374.236
374.617
373.889
373.102
371.859
370.951
370.38
370.167
369.903
371.091
360.502
360.536
361.05
360.841
361.35
362.049
361.964
363.049
363.647
363.564
363.742
364.08
363.582
362.755
361.821
361.108
360.779
360.454
360.312
361.381
349.945
349.865
350.429
350.183
350.555
351.165
350.997
351.792
352.304
352.241
352.35
352.517
352.218
351.475
350.817
350.345
350.145
349.771
349.686
350.546
338.048
337.964
338.38
338.203
338.342
338.89
338.778
339.355
339.629
339.698
339.736
339.749
339.578
338.97
338.543
338.316
338.17
337.869
337.796
338.401
324.551
324.481
324.742
324.594
324.622
324.949
324.961
325.246
325.422
325.539
325.491
325.44
325.331
325.014
324.76
324.672
324.62
324.419
324.33
324.734
309.03
309.007
309.115
309.002
309.038
309.108
309.137
309.263
309.316
309.386
309.348
309.279
309.287
309.181
309.048
309.015
309.06
308.96
308.944
309.072
387.759
387.55
388.003
388.351
389.149
390.563
391.244
392.54
393.683
394.307
394.474
394.268
393.589
392.954
391.238
388.94
388.012
387.956
388.208
389.049
379.253
379.159
379.631
379.935
380.572
381.802
382.189
383.247
384.294
384.733
384.899
384.728
384.202
383.69
382.269
380.246
379.572
379.51
379.795
380.588
370.354
370.22
370.742
370.829
371.435
372.562
372.726
373.577
374.494
374.709
374.917
374.79
374.471
374.015
372.873
371.073
370.624
370.62
370.863
371.564
360.712
360.508
361.04
361.066
361.645
362.466
362.617
363.147
364.071
364.149
364.257
364.182
364.062
363.57
362.708
361.189
360.895
360.926
361.172
361.728
350.074
349.882
350.247
350.252
350.828
351.398
351.444
351.822
352.567
352.594
352.684
352.646
352.623
352.107
351.654
350.314
350.19
350.257
350.391
350.868
338.142
337.931
338.247
338.227
338.619
339.104
339.039
339.313
339.864
339.847
339.896
339.822
339.872
339.522
339.275
338.395
338.188
338.243
338.328
338.49
324.659
324.394
324.628
324.626
324.78
325.062
325.015
325.266
325.565
325.523
325.557
325.47
325.567
325.338
325.198
324.792
324.608
324.607
324.628
324.666
309.089
308.942
309.016
309.052
309.09
309.219
309.1
309.233
309.394
309.32
309.338
309.344
309.353
309.26
309.263
309.133
309.032
309.061
309.045
309.033
389.058
388.302
388.402
388.874
390.102
391.125
392.304
393.88
394.325
395.222
395.488
395.092
394.513
393.532
392.109
390.701
389.473
388.431
388.718
388.707
380.345
379.789
379.921
380.183
381.443
382.21
383.126
384.444
384.803
385.397
385.61
385.363
384.953
384.099
383.069
381.837
380.802
379.978
380.245
380.266
371.121
370.755
370.921
371.089
372.209
372.797
373.433
374.515
374.813
375.27
375.444
375.237
374.996
374.265
373.524
372.426
371.546
371.023
371.213
371.252
361.305
360.996
361.141
361.278
362.131
362.681
363.063
363.898
364.089
364.59
364.747
364.534
364.359
363.796
363.199
362.299
361.618
361.371
361.504
361.518
350.555
350.247
350.424
350.531
351.113
351.58
351.747
352.41
352.448
353.019
353.173
352.9
352.917
352.373
351.931
351.244
350.682
350.582
350.65
350.747
338.572
338.246
338.445
338.487
338.761
339.224
339.199
339.67
339.779
340.179
340.272
339.956
340.104
339.688
339.421
338.863
338.455
338.431
338.536
338.504
324.955
324.605
324.817
324.736
324.893
325.199
325.18
325.507
325.483
325.844
325.802
325.575
325.691
325.524
325.315
324.991
324.711
324.727
324.846
324.766
309.19
309.076
309.122
309.066
309.106
309.247
309.218
309.42
309.337
309.466
309.447
309.344
309.418
309.333
309.32
309.181
309.086
309.079
309.108
309.089
389.503
388.66
389.389
389.929
391.027
391.532
393.46
394.363
395.529
396.118
397.045
395.944
395.249
393.943
393.192
391.056
390.089
389.196
389.14
389.092
380.735
380.19
380.826
381.259
382.16
382.452
384.199
384.953
385.723
386.225
387.057
386.117
385.511
384.416
383.952
382.013
381.237
380.631
380.507
380.411
371.444
371.188
371.772
372.054
372.765
372.899
374.447
375.071
375.604
375.984
376.789
376.021
375.381
374.611
374.267
372.608
371.856
371.582
371.525
371.325
361.553
361.348
361.827
362.04
362.576
362.768
363.949
364.527
364.82
365.214
365.861
365.281
364.69
364.136
363.901
362.428
361.872
361.763
361.753
361.492
350.722
350.526
350.873
351.04
351.499
351.567
352.491
353
353.161
353.422
354.003
353.611
353.033
352.721
352.502
351.304
351.022
350.811
350.969
350.774
338.603
338.46
338.778
338.733
339.147
339.18
339.813
340.15
340.233
340.493
340.88
340.576
340.244
340.022
339.826
338.881
338.81
338.598
338.862
338.792
324.772
324.818
325.014
324.952
325.19
325.167
325.589
325.743
325.716
325.985
326.209
326.01
325.811
325.729
325.592
324.908
324.91
324.775
325.042
325.063
309.085
309.148
309.203
309.158
309.202
309.213
309.353
309.391
309.382
309.519
309.56
309.504
309.459
309.47
309.38
309.12
309.174
309.097
309.191
309.189
390.063
389.189
390.249
391.048
391.807
392.422
393.583
394.661
395.857
396.541
397.116
396.803
396.284
394.74
393.423
391.903
390.941
390.013
390.06
390.174
381.16
380.401
381.342
382.1
382.75
383.226
384.148
385.093
385.971
386.557
387.044
386.702
386.431
385.075
384.071
382.841
381.907
381.372
381.283
381.331
371.832
371.24
371.992
372.606
373.264
373.633
374.345
375.148
375.757
376.272
376.718
376.369
376.216
375.078
374.275
373.252
372.366
372.196
372.016
372.016
361.887
361.383
361.928
362.431
362.99
363.32
363.894
364.489
364.943
365.411
365.833
365.427
365.215
364.534
363.79
363.013
362.212
362.17
362.058
362.045
350.899
350.476
350.882
351.25
351.811
352.025
352.513
352.935
353.257
353.596
354.036
353.64
353.474
352.984
352.425
351.822
351.111
351.2
351.093
351.083
338.592
338.384
338.689
338.852
339.33
339.455
339.836
340.121
340.287
340.573
340.941
340.571
340.522
340.105
339.732
339.304
338.845
338.916
338.915
338.834
324.784
324.69
324.941
325.024
325.314
325.323
325.6
325.653
325.911
325.953
326.216
326.029
326.001
325.769
325.528
325.299
325
325.025
325.04
324.966
309.074
309.068
309.132
309.193
309.284
309.258
309.389
309.37
309.473
309.482
309.581
309.518
309.53
309.458
309.352
309.273
309.197
309.132
309.227
309.172
390.729
390.284
390.567
390.983
392.464
393.009
394.665
394.874
396.127
397.327
398.188
397.792
396.935
395.107
394.148
392.408
391.338
390.896
390.781
391.02
381.684
381.35
381.629
382.1
383.307
383.625
385.143
385.269
386.201
387.356
387.945
387.678
386.856
385.299
384.588
383.149
382.237
381.961
381.909
382.08
372.193
372.033
372.221
372.765
373.647
373.875
375.189
375.306
375.997
377.033
377.483
377.131
376.468
375.303
374.668
373.63
372.776
372.524
372.617
372.659
362.077
362.013
362.151
362.662
363.409
363.502
364.523
364.686
365.255
365.91
366.34
366.068
365.514
364.652
364.133
363.392
362.567
362.451
362.608
362.518
351.03
350.948
351.075
351.54
352.133
352.177
352.937
353.104
353.441
353.958
354.348
354.102
353.706
352.986
352.602
352.067
351.493
351.372
351.667
351.491
338.808
338.694
338.82
339.16
339.596
339.618
340.152
340.214
340.465
340.86
341.169
340.943
340.722
340.148
339.89
339.488
339.122
339.046
339.435
339.11
324.941
324.894
324.937
325.088
325.474
325.44
325.772
325.792
325.97
326.26
326.407
326.213
326.08
325.734
325.631
325.373
325.137
325.124
325.407
325.165
309.12
309.178
309.169
309.205
309.347
309.313
309.399
309.432
309.444
309.593
309.649
309.573
309.576
309.381
309.355
309.313
309.172
309.199
309.286
309.228
391.573
391.37
391.339
391.58
393.503
393.697
395.122
395.856
396.748
397.971
398.226
398.491
397.529
395.71
394.759
393.141
392.091
391.982
391.599
391.872
382.45
382.453
382.226
382.559
384.233
384.284
385.511
385.97
386.679
387.785
387.928
388.216
387.407
385.867
385.118
383.907
382.994
382.859
382.657
382.725
372.954
372.903
372.73
373.069
374.498
374.502
375.473
375.732
376.293
377.373
377.355
377.616
376.9
375.689
374.948
374.22
373.428
373.303
373.227
373.208
362.621
362.636
362.664
362.862
363.966
364.067
364.758
364.784
365.379
366.329
366.272
366.358
365.746
364.886
364.275
363.829
363.159
363.03
363.025
362.987
351.403
351.474
351.564
351.717
352.5
352.595
353.108
352.945
353.548
354.271
354.314
354.276
353.831
353.176
352.711
352.404
351.832
351.725
351.896
351.914
339.017
339.117
339.236
339.227
339.803
339.838
340.223
340.05
340.552
341.026
341.014
341.095
340.716
340.252
339.966
339.759
339.284
339.306
339.487
339.436
325.061
325.147
325.335
325.194
325.545
325.598
325.802
325.748
326.011
326.225
326.343
326.331
326.143
325.827
325.666
325.577
325.183
325.283
325.492
325.351
309.153
309.189
309.303
309.23
309.329
309.372
309.47
309.447
309.515
309.6
309.637
309.627
309.571
309.469
309.452
309.406
309.217
309.238
309.387
309.303
392.37
392.007
391.629
391.907
393.299
394.546
395.258
396.25
397.095
398.08
398.452
398.284
397.595
396.525
394.926
393.624
393.307
392.341
392.46
392.173
383.095
382.904
382.592
382.733
383.887
385.081
385.626
386.306
386.978
387.842
388.118
387.949
387.347
386.591
385.2
384.135
383.965
383.107
383.242
382.966
373.333
373.363
373.094
373.162
374.112
375.184
375.584
376.075
376.538
377.358
377.53
377.34
376.827
376.326
375.202
374.38
374.164
373.503
373.583
373.389
362.891
363.178
362.876
362.933
363.692
364.56
364.906
365.14
365.435
366.285
366.436
366.136
365.731
365.445
364.582
363.921
363.711
363.182
363.297
363.139
351.596
351.956
351.623
351.756
352.301
352.947
353.265
353.331
353.465
354.286
354.372
354.125
353.904
353.636
352.95
352.404
352.333
351.865
351.951
351.872
339.139
339.395
339.297
339.31
339.567
340.102
340.477
340.428
340.369
341.091
341.136
340.918
340.754
340.573
340.149
339.738
339.723
339.254
339.362
339.401
325.197
325.318
325.36
325.351
325.382
325.76
326.052
325.961
325.827
326.284
326.292
326.195
326.147
325.98
325.736
325.467
325.504
325.29
325.252
325.331
309.245
309.269
309.315
309.329
309.285
309.464
309.606
309.517
309.461
309.602
309.606
309.588
309.552
309.5
309.458
309.345
309.369
309.27
309.247
309.288
393.171
392.914
392.742
392.696
393.746
394.943
395.744
396.776
397.459
398.192
398.625
398.345
397.519
397.435
395.783
394.22
393.783
393.16
392.754
393.068
383.81
383.683
383.425
383.33
384.242
385.264
385.939
386.778
387.325
387.867
388.195
388.022
387.326
387.355
386.025
384.593
384.37
383.822
383.422
383.811
374.02
373.931
373.775
373.577
374.336
375.326
375.814
376.452
376.813
377.271
377.638
377.36
376.924
376.951
375.959
374.708
374.556
373.981
373.707
374.134
363.504
363.52
363.364
363.078
363.816
364.651
365.06
365.532
365.679
366.137
366.5
366.164
365.989
365.968
365.209
364.216
364.114
363.569
363.308
363.735
352.191
352.186
352.039
351.674
352.332
353.02
353.385
353.704
353.747
354.093
354.415
354.141
354.116
353.97
353.517
352.711
352.706
352.192
351.984
352.351
339.508
339.596
339.448
339.064
339.576
340.246
340.484
340.677
340.72
340.913
341.111
340.85
340.992
340.775
340.505
339.971
339.994
339.531
339.422
339.668
325.317
325.435
325.285
325.031
325.356
325.838
325.91
326.037
326.127
326.186
326.298
326.068
326.24
326.049
325.912
325.698
325.699
325.343
325.25
325.448
309.265
309.3
309.228
309.195
309.273
309.43
309.496
309.511
309.557
309.573
309.614
309.499
309.608
309.464
309.501
309.428
309.385
309.287
309.263
309.341
393.64
393.441
393.617
393.713
393.959
395.284
396.367
397.056
398.119
398.478
398.703
398.452
397.72
397.281
396.387
395.307
394.34
393.81
393.678
394.473
384.222
384.002
384.228
384.231
384.438
385.551
386.468
386.973
387.896
388.177
388.28
388.082
387.438
387.152
386.508
385.536
384.799
384.348
384.299
384.963
374.221
374.234
374.351
374.381
374.514
375.456
376.295
376.68
377.303
377.538
377.537
377.454
376.953
376.786
376.213
375.456
374.854
374.525
374.533
375.08
363.741
363.749
363.792
363.96
364.025
364.778
365.444
365.77
366.114
366.341
366.328
366.223
365.863
365.91
365.365
364.735
364.246
364.015
364.155
364.447
352.366
352.322
352.372
352.476
352.492
353.141
353.594
353.902
354.075
354.354
354.243
354.174
353.82
353.996
353.64
353.095
352.747
352.598
352.738
352.81
339.65
339.636
339.738
339.75
339.817
340.336
340.559
340.81
340.912
341.16
340.965
340.921
340.719
340.802
340.667
340.253
339.962
339.947
339.98
339.995
325.446
325.45
325.473
325.479
325.59
325.909
326.02
326.23
326.349
326.404
326.177
326.201
326.044
326.115
326.08
325.814
325.653
325.645
325.641
325.733
309.274
309.341
309.344
309.336
309.385
309.538
309.507
309.543
309.672
309.618
309.604
309.552
309.51
309.545
309.52
309.432
309.428
309.375
309.383
309.446
394.4
394.37
394.156
393.986
394.962
395.58
396.614
397.245
397.943
398.969
398.941
399.383
398.033
397.303
396.549
396.055
395.151
394.586
394.56
394.902
384.836
384.797
384.49
384.494
385.164
385.882
386.656
387.201
387.709
388.6
388.595
388.861
387.646
387.088
386.592
386.189
385.527
385.024
384.948
385.333
374.874
374.88
374.47
374.585
375.05
375.76
376.349
376.869
377.218
377.925
377.92
378.101
377.078
376.654
376.301
375.955
375.48
375.014
374.996
375.393
364.176
364.318
363.859
364.012
364.375
365.085
365.451
365.969
366.181
366.693
366.647
366.757
365.88
365.577
365.418
365.082
364.758
364.385
364.417
364.726
352.614
352.856
352.329
352.549
352.819
353.348
353.627
354.05
354.238
354.58
354.537
354.542
353.786
353.585
353.687
353.315
353.135
352.865
352.963
353.094
339.862
340.04
339.62
339.83
340.083
340.406
340.597
340.913
340.989
341.273
341.223
341.16
340.683
340.566
340.699
340.35
340.247
340.023
340.272
340.339
325.581
325.697
325.444
325.525
325.783
325.911
326.035
326.144
326.259
326.416
326.378
326.26
326.082
326.064
326.081
325.754
325.824
325.691
325.876
325.896
309.337
309.369
309.294
309.341
309.474
309.492
309.515
309.556
309.594
309.658
309.607
309.589
309.591
309.544
309.538
309.41
309.468
309.412
309.464
309.505
395.597
394.823
394.667
394.678
395.789
396.274
397.404
398.002
398.47
399.164
399.021
399.266
398.65
397.738
397.305
396.279
396.109
395.116
395.028
395.326
385.787
385.223
385.027
385.008
385.926
386.418
387.311
387.819
388.227
388.791
388.525
388.836
388.311
387.569
387.216
386.315
386.264
385.56
385.429
385.56
375.671
375.216
375.115
375.105
375.708
376.107
376.892
377.35
377.653
378.149
377.844
377.999
377.692
377.01
376.799
375.947
376.053
375.499
375.484
375.444
364.883
364.59
364.518
364.549
364.919
365.225
365.888
366.239
366.515
366.842
366.667
366.691
366.444
365.941
365.804
365.111
365.242
364.762
364.811
364.735
353.19
353.085
352.98
353.018
353.148
353.43
353.997
354.226
354.43
354.664
354.702
354.511
354.334
353.978
353.943
353.406
353.446
353.02
353.266
353.071
340.312
340.212
340.099
340.113
340.214
340.503
340.853
341.064
341.14
341.272
341.415
341.119
341.041
340.887
340.823
340.367
340.552
340.155
340.463
340.226
325.819
325.753
325.691
325.723
325.845
325.907
326.192
326.394
326.302
326.451
326.476
326.323
326.213
326.17
326.151
325.924
326.015
325.753
326.032
325.772
309.465
309.407
309.438
309.389
309.444
309.456
309.583
309.623
309.596
309.677
309.673
309.639
309.571
309.514
309.601
309.506
309.503
309.436
309.526
309.441
396.648
395.436
395.663
395.477
396.485
396.913
397.605
398.117
398.506
399.421
399.299
399.138
399.099
398.47
397.74
396.854
396.597
396.209
395.833
396.1
386.751
385.617
385.892
385.739
386.579
387.026
387.548
387.795
388.159
388.981
388.796
388.71
388.604
388.153
387.721
386.896
386.74
386.399
386.013
386.313
376.479
375.449
375.686
375.64
376.308
376.735
377.119
377.308
377.524
378.238
378.105
377.922
377.916
377.413
377.316
376.414
376.487
376.215
375.834
376.121
365.561
364.718
364.899
364.922
365.423
365.864
366.079
366.188
366.382
366.854
366.803
366.513
366.598
366.138
366.291
365.491
365.481
365.432
365.055
365.246
353.748
353.146
353.194
353.18
353.733
353.964
354.118
354.233
354.304
354.672
354.608
354.305
354.451
354.03
354.315
353.658
353.61
353.649
353.377
353.534
340.656
340.312
340.207
340.271
340.788
340.804
341
341.108
341.021
341.299
341.239
341.069
341.06
340.8
341.06
340.536
340.572
340.656
340.449
340.603
326.117
325.816
325.775
325.857
326.201
326.099
326.281
326.34
326.241
326.412
326.366
326.289
326.202
326.078
326.311
326.034
325.922
326.034
325.947
326.102
309.551
309.396
309.417
309.452
309.587
309.526
309.571
309.639
309.569
309.677
309.653
309.61
309.53
309.542
309.619
309.563
309.442
309.463
309.509
309.541
396.742
396.625
396.372
396.348
396.845
397.35
398.191
398.657
399.497
399.704
399.46
399.651
399.146
398.528
398.339
397.117
396.573
396.69
396.844
396.957
386.798
386.662
386.471
386.453
386.885
387.293
387.883
388.348
389.046
389.14
388.846
389.013
388.638
388.122
388.113
386.959
386.619
386.71
386.833
386.924
376.522
376.42
376.19
376.165
376.683
376.92
377.326
377.678
378.251
378.265
378.011
378.176
377.914
377.466
377.513
376.46
376.319
376.467
376.569
376.643
365.692
365.511
365.264
365.241
365.723
365.927
366.331
366.503
366.797
366.829
366.759
366.727
366.567
366.144
366.375
365.494
365.404
365.598
365.631
365.717
353.88
353.691
353.476
353.422
353.874
354.049
354.351
354.456
354.587
354.629
354.697
354.566
354.447
354.056
354.415
353.573
353.566
353.763
353.757
353.873
340.896
340.647
340.414
340.44
340.74
340.832
341.185
341.134
341.231
341.278
341.47
341.33
341.083
340.873
341.254
340.472
340.539
340.675
340.666
340.797
326.195
326.01
325.919
325.925
326.077
326.138
326.409
326.348
326.453
326.451
326.548
326.493
326.172
326.152
326.415
325.868
325.979
326.049
325.987
326.16
309.557
309.522
309.504
309.504
309.521
309.58
309.616
309.609
309.62
309.666
309.672
309.685
309.502
309.524
309.636
309.465
309.5
309.506
309.477
309.555
397.427
397.385
396.981
397.124
397.261
398.199
398.242
398.759
399.302
399.95
399.757
399.861
399.364
398.694
398.518
397.903
397.229
397.259
397.571
398.432
387.285
387.211
386.894
387.047
387.079
388.038
387.899
388.437
388.889
389.391
389.208
389.309
388.924
388.299
388.288
387.651
387.052
387.246
387.528
388.232
376.81
376.744
376.44
376.678
376.672
377.674
377.302
377.822
378.246
378.554
378.314
378.554
378.129
377.689
377.678
377.042
376.631
376.838
377.095
377.569
365.766
365.649
365.338
365.752
365.687
366.601
366.124
366.682
366.94
367.095
367.063
367.199
366.766
366.392
366.455
365.848
365.584
365.795
366.095
366.385
353.902
353.742
353.542
353.919
353.803
354.496
354.117
354.655
354.66
354.867
354.858
354.903
354.509
354.272
354.433
353.784
353.733
353.874
354.218
354.317
340.884
340.654
340.595
340.786
340.656
341.243
341.015
341.309
341.38
341.348
341.439
341.433
341.14
341.079
341.164
340.576
340.672
340.741
341.063
341.06
326.213
326.126
326.055
326.106
325.975
326.445
326.303
326.422
326.561
326.481
326.546
326.483
326.26
326.3
326.318
325.948
326.043
326.109
326.288
326.326
309.549
309.574
309.535
309.536
309.492
309.657
309.596
309.636
309.734
309.643
309.693
309.682
309.512
309.606
309.641
309.438
309.506
309.569
309.602
309.625
398.443
397.987
398.32
397.716
397.443
398.405
398.78
399.289
399.703
400.265
400.189
399.972
400.264
399.674
398.649
398.457
397.848
397.574
398.564
398.897
388.075
387.707
388.064
387.412
387.22
388.041
388.299
388.791
389.061
389.636
389.53
389.413
389.523
389.127
388.341
388.129
387.478
387.348
388.307
388.508
377.397
377.12
377.347
376.906
376.687
377.464
377.662
377.973
378.191
378.661
378.676
378.602
378.591
378.261
377.708
377.517
376.906
376.727
377.715
377.917
366.26
366
366.131
365.849
365.622
366.339
366.343
366.721
366.743
367.135
367.246
367.26
367.191
366.899
366.521
366.289
365.799
365.543
366.586
366.654
354.288
354.075
354.055
353.934
353.692
354.278
354.264
354.566
354.524
354.761
354.996
355.06
354.884
354.656
354.438
354.227
353.98
353.612
354.444
354.432
341.086
340.895
340.814
340.712
340.616
341.045
340.995
341.205
341.078
341.308
341.521
341.588
341.464
341.302
341.254
341.052
340.908
340.598
341.187
341.004
326.393
326.147
326.198
326.006
326.069
326.251
326.235
326.353
326.24
326.42
326.54
326.625
326.503
326.39
326.415
326.275
326.146
326.112
326.463
326.247
309.639
309.598
309.593
309.478
309.574
309.562
309.598
309.637
309.578
309.617
309.622
309.755
309.636
309.666
309.627
309.539
309.531
309.536
309.633
309.597
)
;

boundaryField
{
    hotSide
    {
        type            fixedGradient;
        gradient        nonuniform List<scalar> 
400
(
647.023
644.202
644.28
647.157
652.503
659.854
668.718
678.656
689.312
700.425
711.82
723.401
735.141
747.08
759.318
772.007
785.338
799.505
814.659
830.872
631.919
629.59
630.359
634.1
640.408
648.73
658.495
669.211
680.489
692.053
703.724
715.409
727.093
738.833
750.751
763.034
775.912
789.628
804.375
820.244
626.036
624.592
626.187
630.677
637.649
646.544
656.786
667.872
679.405
691.1
702.776
714.344
725.797
737.202
748.701
760.492
772.822
785.944
800.063
815.285
628.703
628.521
631.099
636.278
643.692
652.843
663.211
674.319
685.78
697.312
708.731
719.952
730.978
741.887
752.829
764.007
775.658
788.018
801.282
815.558
637.569
638.904
642.654
648.642
656.542
665.929
676.344
687.352
698.586
709.771
720.731
731.391
741.767
751.955
762.117
772.459
783.206
794.577
806.751
819.845
649.919
652.919
658.039
665.079
673.724
683.583
694.229
705.25
716.291
727.082
737.46
747.37
756.859
766.056
775.15
784.365
793.931
804.065
814.943
826.691
663.4
668.132
674.795
683.153
692.877
703.564
714.774
726.074
737.089
747.54
757.276
766.279
774.65
782.579
790.314
798.121
806.258
814.955
824.397
834.719
676.062
682.501
690.795
700.675
711.776
723.647
735.787
747.691
758.915
769.14
778.219
786.19
793.245
799.678
805.829
812.033
818.595
825.766
833.744
842.668
686.229
694.204
704.06
715.503
728.128
741.421
754.782
767.58
779.247
789.381
797.831
804.712
810.353
815.193
819.696
824.283
829.307
835.043
841.691
849.39
692.47
701.606
712.712
725.486
739.495
754.165
768.789
782.591
794.839
805.014
812.947
818.854
823.222
826.659
829.752
833
836.794
841.419
847.074
853.886
693.712
703.417
715.191
728.731
743.59
759.158
774.66
789.211
801.952
812.268
819.972
825.35
829.011
831.675
834.009
836.558
839.73
843.815
849.007
855.426
689.461
699.002
710.678
724.184
739.068
754.709
770.323
785.019
797.939
808.462
816.395
822.013
825.91
828.796
831.337
834.078
837.434
841.699
847.075
853.683
679.978
688.636
699.471
712.179
726.305
741.244
756.259
770.548
783.36
794.16
802.757
809.336
814.357
818.406
822.067
825.848
830.155
835.292
841.472
848.834
666.307
673.521
682.991
694.418
707.357
721.231
735.374
749.09
761.76
772.937
782.431
790.323
796.914
802.63
807.94
813.287
819.055
825.549
833
841.558
650.176
655.611
663.473
673.483
685.204
698.079
711.481
724.792
737.472
749.13
759.569
768.79
776.969
784.405
791.458
798.509
805.914
813.979
822.941
832.961
633.916
637.446
643.691
652.398
663.119
675.277
688.24
701.407
714.271
726.463
737.774
748.158
757.711
766.644
775.248
783.854
792.804
802.406
812.91
824.477
620.462
622.143
626.902
634.51
644.482
656.177
668.92
682.09
695.188
707.852
719.869
731.163
741.787
751.9
761.744
771.627
781.883
792.839
804.756
817.793
613.214
613.287
616.743
623.374
632.656
643.887
656.349
669.411
682.576
695.494
707.953
719.864
731.252
742.24
753.038
763.932
775.25
787.329
800.441
814.738
615.149
614.036
616.368
621.965
630.32
640.749
652.552
665.122
677.985
690.806
703.374
715.593
727.467
739.09
750.64
762.369
774.58
787.586
801.643
816.883
627.272
625.436
626.811
631.255
638.356
647.541
658.21
669.828
681.964
694.303
706.642
718.875
730.986
743.041
755.181
767.61
780.574
794.325
809.067
824.902
)
;
    }
    coldSide
    {
        type            mixed;
        refValue        uniform 300;
        refGradient     uniform 0;
        valueFraction   uniform 0.991591;
        source          uniform 0;
        value           nonuniform List<scalar> 
400
(
300.076
300.076
300.076
300.076
300.076
300.076
300.077
300.076
300.076
300.077
300.077
300.078
300.078
300.078
300.079
300.08
300.08
300.08
300.08
300.081
300.075
300.075
300.075
300.076
300.076
300.075
300.076
300.077
300.076
300.077
300.077
300.078
300.078
300.079
300.079
300.079
300.079
300.08
300.081
300.081
300.076
300.076
300.076