/*--------------------------------*- C++ -*----------------------------------*\
| =========                 |                                                 |
| \\      /  F ield         | OpenFOAM: The Open Source CFD Toolbox           |
|  \\    /   O peration     | Version:  2212                                  |
|   \\  /    A nd           | Website:  www.openfoam.com                      |
|    \\/     M anipulation  |                                                 |
\*---------------------------------------------------------------------------*/
FoamFile
{
    version     2.0;
    format      ascii;
    arch        "LSB;label=32;scalar=64";
    class       volScalarField;
    location    "0";
    object      T;
}
// * * * * * * * * * * * * * * * * * * * * * * * * * * * * * * * * * * * * * //

dimensions      [0 0 0 1 0 0 0];

internalField   nonuniform List<scalar> 
3200
(
327.642
327.211
326.889
326.949
327.276
328.141
328.876
329.598
330.228
330.479
330.638
330.239
329.662
329.18
328.255
327.372
326.568
326.155
326.136
326.501
324.318
323.935
323.665
323.683
323.951
324.719
325.329
325.96
326.498
326.697
326.851
326.497
325.977
325.598
324.809
324.021
323.339
322.968
322.951
323.238
320.848
320.503
320.262
320.273
320.501
321.139
321.643
322.156
322.647
322.777
322.935
322.655
322.19
321.87
321.209
320.538
319.982
319.678
319.624
319.84
317.243
316.916
316.74
316.765
316.933
317.441
317.834
318.254
318.686
318.784
318.92
318.665
318.308
318.04
317.493
316.924
316.515
316.285
316.21
316.347
313.522
313.247
313.141
313.137
313.266
313.663
313.955
314.283
314.613
314.715
314.819
314.597
314.355
314.128
313.674
313.255
312.969
312.783
312.668
312.803
309.741
309.512
309.467
309.423
309.537
309.817
310.024
310.272
310.49
310.581
310.641
310.507
310.327
310.141
309.813
309.507
309.352
309.2
309.091
309.205
305.896
305.736
305.708
305.689
305.752
305.914
306.066
306.198
306.343
306.379
306.408
306.347
306.25
306.107
305.911
305.736
305.661
305.552
305.471
305.533
301.982
301.927
301.919
301.888
301.923
301.982
302.034
302.085
302.132
302.137
302.151
302.121
302.123
302.048
301.993
301.929
301.912
301.86
301.827
301.848
328.069
327.548
327.156
327.309
327.772
328.487
329.378
330.114
330.677
331.008
331.1
330.889
330.216
329.55
328.659
327.607
326.919
326.543
326.38
326.689
324.711
324.234
323.894
323.998
324.383
324.994
325.747
326.388
326.872
327.121
327.208
327.055
326.459
325.867
325.136
324.227
323.645
323.322
323.164
323.411
321.172
320.745
320.491
320.555
320.86
321.375
321.979
322.546
322.938
323.116
323.229
323.116
322.592
322.074
321.487
320.731
320.231
319.958
319.815
320.036
317.487
317.146
316.931
316.976
317.217
317.633
318.115
318.579
318.924
319.039
319.142
319.055
318.63
318.189
317.735
317.106
316.706
316.486
316.386
316.565
313.718
313.446
313.265
313.295
313.47
313.813
314.188
314.54
314.804
314.884
314.98
314.883
314.566
314.216
313.888
313.389
313.108
312.92
312.84
312.993
309.875
309.657
309.528
309.554
309.651
309.934
310.197
310.442
310.625
310.666
310.748
310.675
310.438
310.199
309.973
309.609
309.432
309.277
309.235
309.368
305.96
305.818
305.743
305.768
305.81
305.994
306.142
306.291
306.395
306.426
306.466
306.437
306.28
306.146
306.002
305.797
305.697
305.598
305.571
305.644
302.001
301.957
301.925
301.941
301.941
302.019
302.055
302.115
302.145
302.153
302.167
302.163
302.102
302.06
302.021
301.955
301.915
301.883
301.874
301.891
328.402
327.852
327.603
327.835
328.412
329.089
330.031
330.822
331.533
331.788
331.942
331.667
331.038
330.249
329.241
328.252
327.466
326.986
326.938
327.082
324.967
324.513
324.259
324.445
324.934
325.503
326.322
326.966
327.602
327.795
327.926
327.699
327.146
326.442
325.607
324.75
324.098
323.686
323.662
323.778
321.389
321.011
320.762
320.919
321.332
321.811
322.477
323.01
323.539
323.701
323.79
323.595
323.15
322.528
321.856
321.155
320.602
320.244
320.237
320.336
317.645
317.378
317.147
317.249
317.609
317.991
318.52
318.962
319.391
319.521
319.591
319.405
319.073
318.543
318.007
317.45
316.998
316.685
316.678
316.795
313.801
313.634
313.409
313.478
313.774
314.06
314.502
314.841
315.149
315.281
315.318
315.148
314.937
314.498
314.067
313.654
313.308
313.066
313.049
313.183
309.921
309.801
309.633
309.668
309.877
310.082
310.406
310.662
310.841
310.973
310.985
310.837
310.724
310.409
310.091
309.807
309.543
309.393
309.362
309.479
305.969
305.911
305.795
305.815
305.942
306.069
306.263
306.427
306.514
306.627
306.615
306.535
306.476
306.265
306.065
305.901
305.754
305.676
305.644
305.709
301.99
301.979
301.94
301.958
301.993
302.026
302.099
302.165
302.182
302.235
302.227
302.188
302.179
302.107
302.028
301.989
301.941
301.913
301.894
301.921
329.033
328.546
328.295
328.535
329.162
329.903
330.749
331.638
332.44
332.797
332.752
332.597
332.079
331.145
330.059
329.06
328.205
327.606
327.465
327.689
325.533
325.106
324.873
325.059
325.582
326.204
326.923
327.67
328.364
328.673
328.629
328.496
328.038
327.24
326.275
325.454
324.729
324.217
324.096
324.288
321.865
321.511
321.315
321.455
321.878
322.375
322.981
323.597
324.156
324.429
324.394
324.271
323.913
323.232
322.375
321.726
321.131
320.714
320.598
320.779
318.071
317.793
317.633
317.737
318.041
318.448
318.941
319.441
319.886
320.11
320.074
319.956
319.7
319.126
318.411
317.907
317.424
317.094
316.982
317.171
314.167
313.962
313.828
313.894
314.13
314.434
314.833
315.232
315.549
315.728
315.7
315.594
315.405
314.95
314.381
314.013
313.645
313.378
313.277
313.463
310.182
310.048
309.958
309.996
310.166
310.351
310.651
310.925
311.159
311.266
311.265
311.177
311.046
310.728
310.308
310.054
309.808
309.607
309.527
309.673
306.149
306.054
306.006
306.034
306.12
306.219
306.414
306.574
306.714
306.779
306.788
306.719
306.657
306.449
306.207
306.053
305.905
305.777
305.753
305.833
302.064
302.03
302.021
302.036
302.051
302.083
302.16
302.217
302.251
302.275
302.268
302.249
302.24
302.163
302.075
302.027
301.984
301.934
301.938
301.962
329.767
329.167
329.009
329.39
329.925
330.784
331.63
332.583
333.421
333.783
333.867
333.644
333.075
332.141
330.993
330.051
329.019
328.441
328.275
328.534
326.171
325.655
325.493
325.799
326.243
326.967
327.694
328.514
329.227
329.52
329.575
329.368
328.912
328.088
327.081
326.302
325.414
324.932
324.786
325.03
322.413
321.952
321.83
322.091
322.43
323.023
323.634
324.327
324.93
325.155
325.208
325.002
324.653
323.929
323.053
322.433
321.692
321.293
321.194
321.414
318.507
318.123
318.044
318.23
318.49
318.974
319.468
320.021
320.532
320.701
320.733
320.565
320.295
319.693
318.96
318.461
317.889
317.574
317.474
317.67
314.478
314.196
314.13
314.258
314.498
314.825
315.233
315.642
316.052
316.165
316.207
316.069
315.857
315.389
314.809
314.434
313.973
313.764
313.648
313.848
310.388
310.205
310.154
310.227
310.417
310.614
310.917
311.218
311.519
311.574
311.626
311.534
311.345
311.039
310.601
310.362
310.014
309.885
309.783
309.933
306.262
306.154
306.115
306.163
306.271
306.393
306.581
306.773
306.937
306.963
306.997
306.951
306.828
306.653
306.375
306.245
306.04
305.948
305.899
305.988
302.098
302.074
302.051
302.065
302.107
302.148
302.199
302.272
302.332
302.349
302.351
302.329
302.292
302.231
302.134
302.095
302.024
302.005
301.98
302.01
330.607
330.035
329.824
330.127
330.746
331.781
332.696
333.565
334.506
334.949
335.062
334.879
334.244
333.242
332.043
330.965
330.006
329.45
329.218
329.328
326.885
326.38
326.187
326.424
326.946
327.845
328.615
329.366
330.149
330.518
330.617
330.449
329.907
329.046
328.003
327.088
326.258
325.821
325.604
325.694
322.99
322.572
322.386
322.583
323.017
323.767
324.391
325.025
325.677
325.988
326.103
325.916
325.458
324.718
323.846
323.111
322.397
322.04
321.87
321.942
318.983
318.643
318.471
318.645
318.974
319.587
320.087
320.61
321.1
321.362
321.494
321.306
320.932
320.34
319.607
319.006
318.442
318.191
318.031
318.116
314.876
314.608
314.467
314.597
314.861
315.328
315.703
316.1
316.469
316.662
316.805
316.649
316.328
315.892
315.305
314.85
314.43
314.243
314.102
314.183
310.679
310.5
310.379
310.493
310.681
311.001
311.253
311.524
311.809
311.928
312.043
311.943
311.708
311.408
310.981
310.645
310.355
310.239
310.119
310.188
306.445
306.325
306.241
306.324
306.442
306.623
306.768
306.94
307.113
307.172
307.244
307.186
307.048
306.872
306.61
306.4
306.234
306.173
306.106
306.168
302.165
302.119
302.094
302.119
302.164
302.223
302.265
302.333
302.391
302.401
302.426
302.409
302.357
302.297
302.216
302.151
302.093
302.075
302.045
302.071
331.558
330.974
330.893
331.249
331.785
332.795
333.681
334.648
335.555
336.107
336.337
336.134
335.474
334.287
333.138
332.063
331.1
330.591
330.362
330.262
327.709
327.218
327.095
327.425
327.867
328.73
329.445
330.295
331.041
331.531
331.705
331.517
330.975
329.962
328.938
328.044
327.203
326.808
326.635
326.525
323.698
323.281
323.152
323.459
323.816
324.566
325.112
325.812
326.438
326.845
326.976
326.829
326.384
325.532
324.661
323.886
323.184
322.884
322.761
322.675
319.576
319.233
319.1
319.342
319.631
320.272
320.691
321.232
321.744
322.069
322.172
322.063
321.671
321.014
320.286
319.656
319.096
318.872
318.762
318.722
315.348
315.06
314.959
315.137
315.345
315.877
316.184
316.597
316.971
317.233
317.321
317.241
316.89
316.417
315.842
315.364
314.948
314.785
314.693
314.671
311.03
310.813
310.739
310.86
310.993
311.408
311.589
311.902
312.165
312.348
312.419
312.365
312.097
311.759
311.352
311.022
310.724
310.634
310.56
310.545
306.638
306.522
306.459
306.533
306.614
306.877
306.975
307.183
307.322
307.429
307.469
307.452
307.265
307.066
306.825
306.636
306.435
306.41
306.357
306.366
302.234
302.176
302.16
302.192
302.227
302.298
302.34
302.408
302.459
302.483
302.516
302.496
302.433
302.359
302.289
302.23
302.146
302.151
302.139
302.13
332.636
332.167
331.994
332.436
332.992
333.937
334.676
335.729
336.712
337.344
337.488
337.199
336.505
335.281
334.134
333.319
332.235
331.593
331.336
331.406
328.635
328.217
328.056
328.431
328.91
329.707
330.331
331.211
332.06
332.603
332.703
332.421
331.84
330.819
329.829
329.152
328.202
327.664
327.454
327.509
324.465
324.132
323.987
324.281
324.663
325.349
325.859
326.596
327.293
327.761
327.847
327.595
327.076
326.259
325.422
324.853
324.062
323.611
323.44
323.492
320.177
319.913
319.785
320.022
320.319
320.88
321.292
321.884
322.455
322.819
322.884
322.691
322.266
321.627
320.901
320.441
319.823
319.463
319.324
319.376
315.813
315.594
315.506
315.659
315.884
316.327
316.645
317.091
317.547
317.815
317.879
317.734
317.391
316.919
316.32
315.983
315.497
315.217
315.131
315.18
311.359
311.181
311.139
311.228
311.376
311.705
311.93
312.256
312.578
312.783
312.805
312.73
312.464
312.138
311.684
311.474
311.104
310.913
310.853
310.883
306.852
306.749
306.709
306.763
306.833
307.05
307.175
307.375
307.572
307.697
307.701
307.684
307.501
307.314
307.029
306.887
306.685
306.565
306.534
306.546
302.295
302.272
302.249
302.275
302.291
302.361
302.403
302.477
302.544
302.583
302.581
302.581
302.521
302.461
302.366
302.303
302.24
302.207
302.183
302.198
333.626
333.373
333.201
333.47
334.065
334.941
335.813
336.785
337.72
338.383
338.615
338.352
337.638
336.484
335.299
334.295
333.315
332.751
332.477
332.401
329.507
329.304
329.124
329.317
329.837
330.584
331.321
332.169
332.94
333.491
333.702
333.488
332.853
331.854
330.821
329.972
329.149
328.681
328.44
328.375
325.238
325.056
324.892
325.019
325.452
326.086
326.713
327.436
328.041
328.496
328.69
328.507
327.941
327.141
326.253
325.54
324.867
324.5
324.291
324.219
320.845
320.655
320.52
320.607
320.981
321.477
321.98
322.608
323.048
323.417
323.585
323.426
322.942
322.321
321.609
321.026
320.472
320.215
320.04
319.974
316.348
316.161
316.058
316.118
316.412
316.782
317.181
317.681
317.997
318.288
318.398
318.273
317.923
317.456
316.891
316.429
316.002
315.832
315.684
315.609
311.754
311.618
311.548
311.555
311.768
312.01
312.312
312.695
312.892
313.102
313.17
313.068
312.838
312.541
312.118
311.764
311.464
311.372
311.251
311.19
307.104
306.991
306.977
306.949
307.07
307.235
307.423
307.642
307.77
307.88
307.924
307.863
307.721
307.55
307.306
307.081
306.891
306.838
306.788
306.74
302.387
302.342
302.344
302.35
302.372
302.423
302.496
302.569
302.613
302.637
302.654
302.632
302.578
302.527
302.447
302.383
302.309
302.298
302.276
302.266
334.78
334.42
334.416
334.673
335.141
336.024
336.766
337.845
338.663
339.34
339.617
339.359
338.625
337.607
336.475
335.362
334.522
333.9
333.638
333.516
330.5
330.202
330.164
330.388
330.775
331.505
332.129
333.088
333.769
334.34
334.563
334.335
333.721
332.827
331.836
330.927
330.177
329.68
329.456
329.33
326.059
325.819
325.764
325.962
326.269
326.877
327.389
328.206
328.739
329.235
329.392
329.207
328.701
327.959
327.126
326.379
325.744
325.334
325.142
325.016
321.491
321.327
321.261
321.41
321.648
322.132
322.554
323.206
323.628
324.033
324.135
324.006
323.595
322.997
322.297
321.716
321.202
320.864
320.73
320.607
316.812
316.723
316.651
316.771
316.942
317.308
317.644
318.123
318.459
318.744
318.817
318.72
318.411
317.962
317.404
316.956
316.569
316.329
316.213
316.127
312.051
312
311.964
312.045
312.175
312.421
312.671
312.998
313.228
313.44
313.458
313.384
313.182
312.877
312.454
312.141
311.868
311.711
311.63
311.579
307.243
307.23
307.208
307.264
307.355
307.489
307.651
307.824
307.966
308.1
308.102
308.029
307.928
307.752
307.47
307.305
307.142
307.068
307.009
306.968
302.423
302.431
302.421
302.433
302.463
302.517
302.578
302.629
302.673
302.727
302.718
302.69
302.667
302.601
302.501
302.447
302.389
302.376
302.357
302.335
335.878
335.532
335.529
335.839
336.25
336.918
337.919
338.773
339.684
340.258
340.495
340.29
339.499
338.586
337.637
336.44
335.567
335.045
334.846
334.775
331.466
331.165
331.138
331.389
331.768
332.279
333.121
333.892
334.651
335.151
335.352
335.143
334.477
333.682
332.872
331.864
331.098
330.664
330.532
330.442
326.893
326.64
326.597
326.787
327.119
327.506
328.212
328.897
329.508
329.928
330.075
329.904
329.349
328.678
327.989
327.147
326.503
326.161
326.102
325.986
322.188
321.991
321.93
322.067
322.32
322.659
323.236
323.791
324.264
324.622
324.728
324.553
324.139
323.583
323.014
322.358
321.808
321.55
321.529
321.417
317.375
317.21
317.149
317.252
317.441
317.707
318.155
318.588
318.954
319.223
319.3
319.159
318.836
318.412
317.96
317.479
317.04
316.86
316.836
316.756
312.487
312.33
312.311
312.362
312.508
312.696
312.999
313.326
313.603
313.794
313.819
313.737
313.51
313.181
312.865
312.547
312.24
312.094
312.088
312.034
307.527
307.421
307.407
307.442
307.538
307.648
307.824
308.028
308.204
308.298
308.303
308.263
308.13
307.923
307.748
307.551
307.381
307.283
307.287
307.236
302.533
302.497
302.493
302.5
302.525
302.569
302.626
302.681
302.76
302.784
302.788
302.773
302.733
302.655
302.599
302.539
302.484
302.45
302.438
302.426
337.014
336.693
336.699
336.962
337.301
337.969
338.73
339.595
340.413
340.947
341.173
341.029
340.347
339.589
338.525
337.483
336.611
336.137
335.913
335.841
332.44
332.152
332.168
332.379
332.653
333.211
333.843
334.604
335.263
335.733
335.931
335.793
335.217
334.567
333.644
332.768
331.996
331.622
331.433
331.375
327.721
327.471
327.479
327.647
327.862
328.283
328.836
329.466
330.053
330.404
330.577
330.436
329.969
329.437
328.671
327.925
327.256
326.969
326.807
326.776
322.868
322.657
322.665
322.799
322.946
323.279
323.725
324.223
324.723
324.994
325.131
324.97
324.633
324.204
323.605
322.993
322.429
322.186
322.086
322.067
317.913
317.722
317.743
317.837
317.938
318.193
318.533
318.912
319.321
319.526
319.608
319.457
319.249
318.893
318.449
317.974
317.53
317.344
317.266
317.241
312.879
312.721
312.729
312.8
312.861
313.054
313.274
313.546
313.843
314.006
314.038
313.921
313.802
313.546
313.209
312.87
312.559
312.451
312.394
312.373
307.761
307.661
307.664
307.71
307.751
307.86
307.986
308.143
308.323
308.436
308.428
308.36
308.32
308.155
307.964
307.747
307.566
307.497
307.462
307.433
302.607
302.571
302.571
302.591
302.599
302.641
302.683
302.726
302.8
302.829
302.815
302.803
302.792
302.74
302.67
302.615
302.539
302.512
302.503
302.493
338.038
337.858
337.883
338.022
338.322
338.894
339.715
340.425
341.261
341.677
341.922
341.653
341.124
340.266
339.34
338.381
337.665
337.197
336.955
336.819
333.342
333.173
333.21
333.286
333.505
333.992
334.713
335.338
336.026
336.375
336.584
336.338
335.896
335.13
334.356
333.533
332.934
332.55
332.336
332.195
328.484
328.327
328.384
328.399
328.535
328.967
329.606
330.103
330.66
330.956
331.138
330.928
330.551
329.883
329.249
328.581
328.074
327.756
327.576
327.445
323.498
323.367
323.414
323.392
323.5
323.828
324.372
324.764
325.208
325.447
325.603
325.425
325.124
324.529
324.028
323.538
323.124
322.847
322.714
322.599
318.403
318.283
318.306
318.305
318.384
318.623
319.042
319.333
319.683
319.874
319.996
319.86
319.612
319.154
318.752
318.411
318.09
317.873
317.759
317.664
313.22
313.11
313.136
313.136
313.192
313.355
313.641
313.874
314.106
314.225
314.335
314.248
314.039
313.72
313.416
313.213
312.99
312.815
312.747
312.662
307.971
307.901
307.898
307.917
307.953
308.047
308.206
308.347
308.495
308.551
308.631
308.573
308.456
308.259
308.062
307.954
307.835
307.718
307.699
307.626
302.674
302.651
302.638
302.659
302.67
302.694
302.755
302.802
302.849
302.863
302.9
302.873
302.853
302.773
302.702
302.668
302.634
302.582
302.593
302.562
339.096
338.987
338.851
339.124
339.298
339.912
340.544
341.215
341.908
342.292
342.489
342.216
341.773
341.037
340.238
339.359
338.688
338.152
338
337.907
334.245
334.149
334.019
334.243
334.369
334.898
335.441
335.992
336.585
336.908
337.071
336.834
336.455
335.835
335.164
334.396
333.829
333.378
333.259
333.187
329.238
329.157
329.029
329.227
329.302
329.752
330.218
330.656
331.143
331.399
331.557
331.346
331.026
330.513
329.959
329.308
328.836
328.473
328.369
328.336
324.093
324.032
323.942
324.085
324.147
324.485
324.858
325.237
325.604
325.812
325.94
325.771
325.489
325.093
324.634
324.128
323.754
323.449
323.384
323.356
318.852
318.782
318.737
318.837
318.903
319.146
319.408
319.724
319.995
320.157
320.246
320.121
319.902
319.586
319.242
318.86
318.564
318.349
318.298
318.275
313.521
313.471
313.46
313.515
313.573
313.729
313.905
314.144
314.33
314.44
314.489
314.417
314.238
314.029
313.809
313.537
313.298
313.173
313.148
313.103
308.13
308.112
308.111
308.139
308.18
308.262
308.361
308.518
308.629
308.693
308.724
308.691
308.54
308.431
308.325
308.169
308.01
307.942
307.929
307.897
302.723
302.723
302.724
302.733
302.756
302.78
302.808
302.864
302.891
302.913
302.927
302.915
302.864
302.819
302.793
302.743
302.695
302.67
302.665
302.649
340.285
340.047
339.901
340.096
340.411
340.933
341.458
341.996
342.431
342.873
343.201
342.853
342.447
341.891
341.123
340.33
339.63
339.179
339.033
338.981
335.291
335.116
334.933
335.105
335.366
335.817
336.244
336.676
337.052
337.427
337.706
337.388
337.032
336.575
335.92
335.255
334.629
334.27
334.159
334.113
330.138
329.992
329.825
329.951
330.18
330.562
330.914
331.23
331.547
331.856
332.086
331.817
331.519
331.124
330.62
330.056
329.536
329.227
329.125
329.11
324.855
324.734
324.59
324.656
324.875
325.18
325.475
325.718
325.959
326.197
326.356
326.147
325.945
325.591
325.184
324.723
324.345
324.055
323.969
323.991
319.45
319.375
319.244
319.277
319.453
319.691
319.94
320.105
320.293
320.479
320.566
320.409
320.277
319.975
319.672
319.299
319.028
318.826
318.748
318.773
313.966
313.909
313.818
313.825
313.948
314.119
314.294
314.394
314.56
314.69
314.718
314.625
314.541
314.296
314.096
313.83
313.638
313.498
313.464
313.465
308.405
308.371
308.314
308.314
308.383
308.506
308.591
308.665
308.775
308.856
308.834
308.818
308.746
308.606
308.489
308.349
308.197
308.129
308.106
308.126
302.826
302.809
302.786
302.792
302.809
302.859
302.88
302.911
302.941
302.966
302.961
302.954
302.939
302.883
302.862
302.814
302.748
302.732
302.736
302.73
341.43
341.165
341.027
341.21
341.56
341.932
342.276
342.788
343.185
343.595
343.729
343.476
343.122
342.552
341.842
341.222
340.651
340.257
340.045
339.986
336.293
336.079
335.942
336.085
336.357
336.683
336.973
337.388
337.701
338.066
338.17
337.943
337.674
337.163
336.56
336.022
335.53
335.193
335.063
334.984
330.978
330.796
330.687
330.799
331.008
331.288
331.503
331.851
332.096
332.424
332.481
332.294
332.09
331.628
331.144
330.686
330.285
330.005
329.93
329.842
325.522
325.396
325.302
325.382
325.531
325.767
325.922
326.213
326.408
326.68
326.698
326.556
326.401
326.004
325.627
325.245
324.955
324.725
324.649
324.581
319.977
319.882
319.813
319.854
319.951
320.15
320.257
320.488
320.617
320.862
320.851
320.725
320.63
320.3
320.013
319.723
319.527
319.349
319.286
319.22
314.338
314.26
314.222
314.239
314.304
314.436
314.513
314.698
314.772
314.95
314.948
314.852
314.803
314.551
314.324
314.134
314.007
313.903
313.858
313.782
308.637
308.583
308.559
308.563
308.605
308.685
308.738
308.843
308.89
309.026
308.999
308.929
308.91
308.755
308.624
308.492
308.435
308.396
308.373
308.279
302.888
302.879
302.863
302.881
302.887
302.923
302.93
302.967
302.975
303.039
303.023
302.993
302.984
302.935
302.914
302.854
302.825
302.821
302.817
302.773
342.542
342.349
342.138
342.298
342.493
342.925
343.181
343.518
343.896
344.211
344.398
344.084
343.721
343.226
342.7
342.103
341.579
341.129
341.023
341.104
337.253
337.109
336.882
337.051
337.205
337.543
337.752
338.019
338.318
338.593
338.742
338.495
338.194
337.753
337.317
336.807
336.34
335.969
335.902
335.957
331.797
331.69
331.492
331.602
331.754
331.988
332.177
332.393
332.617
332.869
332.957
332.767
332.541
332.142
331.787
331.369
330.96
330.703
330.632
330.663
326.214
326.099
325.953
326.027
326.174
326.348
326.486
326.657
326.799
327.022
327.083
326.943
326.773
326.435
326.163
325.824
325.459
325.3
325.255
325.239
320.514
320.397
320.311
320.35
320.466
320.601
320.715
320.836
320.926
321.108
321.142
321.04
320.919
320.668
320.445
320.18
319.883
319.794
319.753
319.721
314.716
314.623
314.547
314.6
314.683
314.758
314.838
314.954
314.975
315.123
315.172
315.103
315.012
314.818
314.65
314.461
314.256
314.21
314.174
314.149
308.846
308.794
308.759
308.78
308.835
308.874
308.907
309.007
309.016
309.105
309.148
309.084
309.042
308.92
308.802
308.705
308.59
308.559
308.544
308.503
302.965
302.953
302.942
302.957
302.955
302.978
302.992
303.022
303.043
303.065
303.073
303.046
303.022
302.991
302.943
302.935
302.883
302.878
302.869
302.85
343.5
343.293
343.208
343.195
343.39
343.705
344.004
344.272
344.734
344.747
344.929
344.709
344.418
343.976
343.378
342.865
342.39
342.158
342.132
342.144
338.103
337.922
337.852
337.794
337.965
338.218
338.471
338.686
339.08
339.102
339.248
339.066
338.785
338.421
337.919
337.458
337.043
336.903
336.85
336.854
332.517
332.379
332.295
332.233
332.384
332.609
332.801
332.961
333.279
333.327
333.436
333.268
333.014
332.728
332.306
331.909
331.544
331.471
331.443
331.426
326.813
326.67
326.622
326.545
326.662
326.877
326.986
327.124
327.377
327.423
327.51
327.357
327.171
326.928
326.568
326.238
325.945
325.904
325.898
325.884
320.976
320.865
320.828
320.752
320.865
321.023
321.091
321.202
321.383
321.4
321.501
321.37
321.225
321.048
320.744
320.497
320.247
320.264
320.242
320.246
315.057
314.977
314.95
314.886
314.972
315.066
315.12
315.205
315.343
315.338
315.422
315.299
315.202
315.093
314.855
314.694
314.489
314.559
314.544
314.532
309.064
309.016
308.994
308.963
309.027
309.053
309.108
309.168
309.228
309.23
309.292
309.208
309.149
309.07
308.941
308.846
308.721
308.773
308.762
308.738
303.046
303.028
303.026
303.012
303.036
303.022
303.059
303.08
303.085
303.102
303.121
303.081
303.068
303.05
302.996
302.965
302.93
302.943
302.942
302.94
344.486
344.427
344.225
344.177
344.39
344.519
344.646
345.026
345.374
345.385
345.386
345.288
345.075
344.557
344.201
343.575
343.183
343.033
342.921
342.968
338.936
338.895
338.715
338.655
338.824
338.944
339.048
339.341
339.638
339.669
339.639
339.547
339.369
338.9
338.61
338.08
337.754
337.626
337.526
337.568
333.257
333.162
333.051
332.976
333.09
333.216
333.312
333.52
333.768
333.821
333.748
333.656
333.531
333.127
332.876
332.448
332.178
332.086
331.99
332.027
327.419
327.305
327.247
327.169
327.248
327.35
327.459
327.589
327.761
327.835
327.764
327.684
327.593
327.26
327.048
326.681
326.477
326.421
326.336
326.377
321.455
321.341
321.319
321.236
321.317
321.371
321.481
321.57
321.675
321.761
321.682
321.628
321.556
321.309
321.143
320.834
320.697
320.668
320.592
320.625
315.393
315.311
315.312
315.231
315.281
315.311
315.406
315.471
315.514
315.609
315.532
315.487
315.465
315.309
315.172
314.924
314.859
314.825
314.782
314.789
309.271
309.22
309.229
309.173
309.199
309.216
309.268
309.314
309.333
309.407
309.345
309.308
309.287
309.239
309.142
308.978
308.966
308.928
308.916
308.893
303.106
303.092
303.104
303.081
303.083
303.099
303.11
303.128
303.125
303.159
303.13
303.115
303.112
303.1
303.064
303.018
303.016
303
302.997
302.976
345.07
345.04
344.933
344.919
344.984
345.053
345.353
345.581
345.802
346.005
345.946
345.843
345.388
344.972
344.623
344.173
343.862
343.703
343.583
343.749
339.394
339.403
339.301
339.293
339.34
339.361
339.61
339.81
339.989
340.193
340.107
340.05
339.629
339.268
338.957
338.579
338.328
338.176
338.055
338.226
333.569
333.598
333.538
333.529
333.545
333.536
333.782
333.894
334.046
334.239
334.143
334.094
333.726
333.458
333.15
332.847
332.678
332.499
332.418
332.597
327.638
327.673
327.639
327.633
327.623
327.603
327.81
327.88
328.016
328.148
328.07
328.013
327.728
327.536
327.243
327.003
326.911
326.744
326.667
326.83
321.601
321.637
321.612
321.619
321.599
321.576
321.747
321.777
321.896
321.977
321.924
321.858
321.662
321.507
321.252
321.087
321.037
320.907
320.845
320.974
315.501
315.531
315.508
315.488
315.473
315.491
315.596
315.616
315.704
315.749
315.714
315.667
315.547
315.418
315.198
315.102
315.087
314.983
314.959
315.031
309.336
309.36
309.355
309.32
309.33
309.335
309.409
309.405
309.453
309.474
309.449
309.426
309.367
309.282
309.125
309.1
309.072
309.019
309.02
309.056
303.131
303.147
303.136
303.132
303.13
303.126
303.166
303.163
303.174
303.184
303.178
303.157
303.141
303.102
303.062
303.044
303.045
303.036
303.033
303.046
)
;

boundaryField
{
    hotSide
    {
        type            fixedGradient;
        gradient        nonuniform List<scalar> 
400
(
252.15
254.658
259.04
265.233
273.021
282.102
292.152
302.878
314.037
325.439
336.946
348.459
359.914
371.275
382.528
393.679
404.746
415.755
426.733
437.696
244.908
247.732
252.567
259.331
267.765
277.51
288.194
299.489
311.135
322.933
334.742
346.466
358.048
369.458
380.694
391.773
402.726
413.591
424.407
435.202
243.065
246.42
251.75
258.963
267.799
277.894
288.876
300.413
312.237
324.146
335.997
347.695
359.185
370.446
381.481
392.319
402.998
413.567
424.072
434.549
246.216
250.304
256.184
263.76
272.799
282.983
293.976
305.464
317.187
328.942
340.586
352.022
363.199
374.103
384.746
395.163
405.401
415.515
425.557
435.568
252.892
257.838
264.348
272.315
281.536
291.743
302.64
313.944
325.408
336.836
348.085
359.064
369.731
380.081
390.139
399.953
409.579
419.08
428.514
437.929
261.413
267.28
274.51
282.983
292.509
302.844
313.718
324.868
336.057
347.093
357.842
368.226
378.22
387.842
397.139
406.179
415.035
423.783
432.487
441.206
270.357
277.164
285.196
294.316
304.325
314.981
326.013
337.15
348.149
358.818
369.032
378.734
387.932
396.684
405.073
413.201
421.164
429.056
436.952
444.915
278.585
286.305
295.181
305.059
315.722
326.904
338.306
349.622
360.576
370.957
380.646
389.621
397.941
405.724
413.111
420.245
427.257
434.256
441.328
448.539
285.147
293.68
303.363
314.027
325.437
337.293
349.244
360.923
371.987
382.185
391.398
399.648
407.072
413.87
420.253
426.415
432.516
438.683
445.005
451.547
289.252
298.392
308.717
320.053
332.15
344.677
357.231
369.363
380.647
390.771
399.608
407.235
413.88
419.832
425.373
430.742
436.121
441.644
447.4
453.45
290.316
299.741
310.399
322.114
334.63
347.597
360.574
373.057
384.552
394.696
403.353
410.64
416.85
422.335
427.42
432.369
437.375
442.574
448.054
453.872
288.073
297.388
307.972
319.648
332.157
345.144
358.163
370.706
382.28
392.519
401.284
408.686
415.01
420.601
425.783
430.821
435.909
441.186
446.744
452.639
282.673
291.488
301.602
312.839
324.937
337.55
350.256
362.594
374.129
384.538
393.683
401.627
408.58
414.82
420.625
426.236
431.841
437.581
443.554
449.825
274.692
282.703
292.067
302.612
314.083
326.147
338.416
350.487
361.993
372.657
382.341
391.051
398.907
406.101
412.845
419.339
425.756
432.235
438.877
445.756
265.096
272.113
280.595
290.381
301.218
312.781
324.702
336.614
348.192
359.188
369.459
378.965
387.761
395.963
403.722
411.199
418.543
425.885
433.33
440.953
255.2
261.145
268.734
277.821
288.144
299.362
311.101
322.998
334.745
346.105
356.928
367.148
376.776
385.879
394.564
402.958
411.194
419.392
427.654
436.057
246.685
251.576
258.333
266.822
276.756
287.755
299.414
311.36
323.282
334.951
346.213
356.99
367.269
377.087
386.522
395.679
404.676
413.628
422.636
431.77
241.528
245.487
251.494
259.428
268.976
279.719
291.226
303.112
315.073
326.883
338.392
349.515
360.227
370.545
380.528
390.263
399.857
409.418
419.043
428.795
241.467
244.719
250.053
257.364
266.347
276.592
287.677
299.231
310.962
322.651
334.153
345.379
356.292
366.896
377.233
387.371
397.4
407.416
417.504
427.719
247.079
249.874
254.605
261.188
269.373
278.816
289.152
300.052
311.247
322.533
333.765
344.851
355.744
366.433
376.941
387.318
397.629
407.948
418.339
428.843
)
;
    }
    coldSide
    {
        type            mixed;
        refValue        uniform 300;
        refGradient     uniform 0;
        valueFraction   uniform 0.991591;
        source          uniform 0;
        value           nonuniform List<scalar> 
400
(
300.017
300.017
300.017
300.017
300.018
300.018
300.019
300.019
300.02
300.02
300.021
300.022
300.022
300.023
300.024
300.024
300.025
300.026
300.026
300.026
300.016
300.016
300.017
300.017
300.017
300.018
300.018
300.019
300.02
300.02
300.021
300.022
300.022
300.023
300.024