/*--------------------------------*- C++ -*----------------------------------*\
| =========                 |                                                 |
| \\      /  F ield         | OpenFOAM: The Open Source CFD Toolbox           |
|  \\    /   O peration     | Version:  2212                                  |
|   \\  /    A nd           | Website:  www.openfoam.com                      |
|    \\/     M anipulation  |                                                 |
\*---------------------------------------------------------------------------*/
FoamFile
{
    version     2.0;
    format      ascii;
    arch        "LSB;label=32;scalar=64";
    class       volScalarField;
    location    "0";
    object      T;
}
// * * * * * * * * * * * * * * * * * * * * * * * * * * * * * * * * * * * * * //

dimensions      [0 0 0 1 0 0 0];

internalField   nonuniform List<scalar> 
3200
(
331.023
330.059
329.387
329.286
329.376
329.953
330.562
331.07
331.548
331.924
332.251
332.389
332.147
331.782
331.213
330.835
330.67
330.969
331.724
332.581
327.286
326.481
325.879
325.787
325.803
326.296
326.811
327.253
327.651
327.981
328.252
328.335
328.144
327.824
327.309
326.982
326.84
327.14
327.791
328.495
323.37
322.71
322.171
322.097
322.088
322.5
322.926
323.301
323.614
323.904
324.116
324.174
324.035
323.733
323.299
323.01
322.909
323.176
323.719
324.296
319.296
318.787
318.328
318.268
318.267
318.571
318.918
319.204
319.463
319.713
319.89
319.93
319.803
319.545
319.216
318.934
318.879
319.095
319.526
320.002
315.132
314.746
314.367
314.317
314.344
314.529
314.813
315.02
315.211
315.435
315.591
315.59
315.491
315.302
315.031
314.811
314.783
314.94
315.251
315.642
310.871
310.611
310.351
310.293
310.329
310.407
310.641
310.795
310.907
311.079
311.189
311.175
311.117
310.974
310.772
310.634
310.606
310.712
310.921
311.214
306.545
306.401
306.254
306.209
306.229
306.261
306.405
306.525
306.563
306.673
306.74
306.729
306.69
306.612
306.466
306.409
306.389
306.443
306.562
306.749
302.2
302.148
302.101
302.082
302.1
302.097
302.142
302.189
302.2
302.244
302.259
302.254
302.245
302.222
302.176
302.153
302.141
302.167
302.191
302.256
331.23
330.322
329.732
329.548
329.784
330.353
330.959
331.511
332.128
332.527
332.771
332.695
332.744
332.11
331.509
331.299
331.057
331.224
331.895
332.791
327.477
326.701
326.207
325.997
326.185
326.658
327.15
327.611
328.122
328.468
328.691
328.63
328.662
328.099
327.549
327.363
327.19
327.33
327.92
328.679
323.543
322.884
322.485
322.28
322.426
322.804
323.19
323.595
323.984
324.286
324.484
324.422
324.481
323.976
323.482
323.291
323.213
323.318
323.827
324.45
319.468
318.933
318.606
318.412
318.535
318.815
319.125
319.474
319.772
320.017
320.176
320.116
320.198
319.746
319.327
319.151
319.108
319.202
319.609
320.135
315.272
314.853
314.607
314.457
314.531
314.722
314.957
315.256
315.472
315.67
315.777
315.725
315.805
315.443
315.109
314.982
314.941
315.004
315.337
315.742
310.984
310.677
310.509
310.398
310.445
310.566
310.717
310.97
311.098
311.264
311.314
311.284
311.345
311.082
310.842
310.756
310.726
310.757
311.01
311.301
306.618
306.418
306.347
306.272
306.304
306.373
306.452
306.621
306.688
306.787
306.795
306.79
306.827
306.68
306.537
306.48
306.466
306.481
306.63
306.804
302.219
302.151
302.133
302.105
302.12
302.143
302.17
302.226
302.239
302.279
302.275
302.278
302.299
302.238
302.198
302.179
302.168
302.179
302.22
302.286
331.817
330.782
330.346
330.164
330.38
330.931
331.661
332.187
333.002
333.254
333.432
333.367
333.346
332.805
332.138
331.931
331.775
331.759
332.423
333.241
327.959
327.096
326.736
326.525
326.702
327.177
327.766
328.205
328.895
329.123
329.25
329.182
329.18
328.689
328.128
327.921
327.808
327.795
328.38
329.07
323.941
323.221
322.942
322.721
322.849
323.235
323.736
324.103
324.669
324.844
324.947
324.889
324.903
324.449
323.975
323.802
323.714
323.733
324.21
324.806
319.791
319.208
318.99
318.794
318.878
319.164
319.593
319.888
320.313
320.473
320.518
320.521
320.504
320.12
319.726
319.591
319.501
319.535
319.947
320.433
315.513
315.057
314.926
314.741
314.801
315.031
315.325
315.573
315.902
316.028
316.051
316.061
316.038
315.72
315.407
315.321
315.249
315.278
315.6
315.972
311.139
310.837
310.765
310.585
310.647
310.807
310.992
311.168
311.425
311.491
311.525
311.502
311.497
311.263
311.021
310.987
310.949
310.946
311.185
311.451
306.712
306.542
306.502
306.388
306.416
306.512
306.629
306.726
306.895
306.936
306.953
306.938
306.914
306.769
306.623
306.626
306.596
306.596
306.752
306.878
302.247
302.205
302.186
302.146
302.148
302.178
302.225
302.255
302.316
302.329
302.341
302.327
302.311
302.269
302.222
302.229
302.222
302.207
302.27
302.299
332.379
331.469
331.044
330.858
331.194
331.623
332.478
333.019
333.814
334.259
334.438
334.473
334.135
333.676
333.146
332.618
332.467
332.629
333.159
333.973
328.465
327.673
327.33
327.136
327.406
327.732
328.477
328.935
329.609
329.962
330.105
330.124
329.847
329.431
328.971
328.513
328.409
328.576
329.028
329.728
324.381
323.705
323.426
323.243
323.468
323.699
324.32
324.705
325.255
325.555
325.68
325.672
325.468
325.095
324.688
324.32
324.233
324.403
324.755
325.365
320.14
319.59
319.375
319.205
319.399
319.585
320.057
320.373
320.808
321.033
321.162
321.124
320.983
320.672
320.308
320.053
319.959
320.095
320.397
320.889
315.783
315.363
315.206
315.058
315.227
315.345
315.701
315.949
316.269
316.415
316.537
316.509
316.401
316.196
315.862
315.688
315.605
315.708
315.98
316.348
311.362
311.051
310.919
310.841
310.948
311.02
311.267
311.444
311.654
311.767
311.857
311.821
311.76
311.62
311.38
311.233
311.184
311.248
311.481
311.747
306.839
306.68
306.574
306.552
306.589
306.64
306.772
306.897
307.015
307.098
307.14
307.128
307.09
306.998
306.861
306.75
306.749
306.775
306.916
307.072
302.299
302.237
302.199
302.21
302.211
302.226
302.274
302.317
302.363
302.394
302.393
302.386
302.377
302.361
302.294
302.262
302.263
302.274
302.333
302.371
333.348
332.359
331.911
331.775
332.062
332.555
333.361
334.056
334.717
335.229
335.468
335.459
335.271
334.839
334.351
333.678
333.476
333.571
334.113
334.809
329.338
328.474
328.054
327.915
328.132
328.573
329.244
329.824
330.365
330.822
330.998
330.978
330.819
330.462
330.023
329.431
329.295
329.39
329.868
330.46
325.138
324.385
324.031
323.888
324.07
324.422
324.967
325.469
325.93
326.284
326.404
326.408
326.287
325.977
325.583
325.091
324.99
325.093
325.494
326.002
320.758
320.17
319.843
319.735
319.872
320.162
320.583
321.014
321.368
321.632
321.714
321.746
321.649
321.389
321.051
320.645
320.585
320.668
321.008
321.427
316.266
315.807
315.554
315.464
315.585
315.793
316.107
316.448
316.724
316.908
316.955
317.013
316.925
316.741
316.454
316.135
316.101
316.168
316.414
316.737
311.689
311.362
311.163
311.115
311.191
311.336
311.562
311.816
312.001
312.14
312.138
312.218
312.145
312.008
311.802
311.567
311.545
311.603
311.767
312
307.043
306.86
306.727
306.7
306.751
306.832
306.958
307.129
307.219
307.317
307.312
307.353
307.314
307.238
307.096
306.954
306.957
306.99
307.08
307.233
302.367
302.3
302.259
302.257
302.27
302.289
302.341
302.396
302.427
302.455
302.453
302.474
302.452
302.431
302.389
302.342
302.33
302.342
302.374
302.436
334.427
333.567
332.989
332.76
333.184
333.692
334.435
335.129
335.866
336.428
336.61
336.755
336.514
336.064
335.429
334.875
334.595
334.675
335.104
335.919
330.266
329.521
329.014
328.798
329.127
329.553
330.189
330.767
331.385
331.873
331.984
332.128
331.929
331.528
330.99
330.506
330.288
330.341
330.764
331.415
325.913
325.264
324.835
324.654
324.908
325.252
325.768
326.234
326.785
327.201
327.233
327.383
327.212
326.895
326.412
325.995
325.847
325.905
326.253
326.778
321.411
320.854
320.524
320.382
320.531
320.829
321.223
321.593
322.067
322.411
322.394
322.544
322.39
322.153
321.746
321.389
321.284
321.362
321.625
322.037
316.768
316.347
316.098
315.972
316.036
316.319
316.588
316.871
317.263
317.519
317.496
317.625
317.5
317.322
317.011
316.72
316.655
316.722
316.913
317.208
312.043
311.765
311.564
311.476
311.475
311.724
311.899
312.095
312.366
312.583
312.526
312.644
312.55
312.407
312.231
311.989
311.968
312.017
312.131
312.333
307.256
307.097
306.969
306.912
306.912
307.06
307.171
307.283
307.425
307.594
307.528
307.61
307.562
307.474
307.389
307.212
307.212
307.243
307.311
307.417
302.437
302.387
302.348
302.315
302.317
302.373
302.411
302.447
302.493
302.545
302.529
302.557
302.535
302.516
302.483
302.422
302.431
302.433
302.449
302.492
335.555
334.731
334.29
334.104
334.37
334.937
335.714
336.434
337.093
337.587
337.829
338.129
337.732
337.366
336.706
336.022
335.761
335.792
336.408
337.143
331.242
330.522
330.157
329.963
330.178
330.635
331.29
331.876
332.463
332.888
333.035
333.326
332.976
332.669
332.108
331.514
331.292
331.338
331.857
332.503
326.728
326.138
325.813
325.614
325.817
326.184
326.709
327.185
327.687
328.052
328.118
328.393
328.081
327.829
327.364
326.869
326.694
326.74
327.168
327.711
322.05
321.574
321.334
321.136
321.31
321.589
322.012
322.387
322.796
323.105
323.12
323.356
323.098
322.913
322.529
322.131
322.006
322.039
322.379
322.803
317.261
316.886
316.721
316.542
316.675
316.896
317.205
317.495
317.846
318.054
318.053
318.227
318.052
317.902
317.615
317.318
317.217
317.232
317.54
317.8
312.38
312.127
312.013
311.87
311.958
312.132
312.33
312.557
312.814
312.936
312.941
313.062
312.945
312.83
312.649
312.417
312.35
312.371
312.591
312.754
307.46
307.322
307.239
307.141
307.194
307.31
307.416
307.555
307.716
307.79
307.776
307.839
307.793
307.71
307.626
307.483
307.443
307.46
307.606
307.675
302.507
302.459
302.432
302.389
302.411
302.439
302.491
302.535
302.591
302.623
302.597
302.628
302.619
302.583
302.559
302.514
302.487
302.5
302.559
302.572
336.881
336.091
335.659
335.379
335.67
336.275
336.868
337.676
338.326
338.941
339.287
339.32
339.041
338.558
337.853
337.412
337.13
337.07
337.653
338.382
332.402
331.705
331.326
331.079
331.316
331.808
332.302
333
333.522
334.047
334.342
334.365
334.118
333.72
333.102
332.718
332.462
332.457
332.96
333.566
327.725
327.15
326.816
326.612
326.78
327.171
327.584
328.16
328.583
329.026
329.263
329.3
329.042
328.753
328.219
327.883
327.68
327.705
328.117
328.619
322.887
322.434
322.15
321.963
322.099
322.42
322.721
323.19
323.551
323.899
324.055
324.128
323.875
323.651
323.227
322.96
322.802
322.836
323.153
323.556
317.918
317.589
317.357
317.205
317.304
317.545
317.741
318.136
318.41
318.714
318.79
318.854
318.657
318.467
318.155
317.965
317.824
317.864
318.099
318.401
312.878
312.643
312.462
312.356
312.434
312.584
312.715
313.004
313.209
313.439
313.454
313.53
313.381
313.229
313.021
312.89
312.792
312.813
312.97
313.181
307.754
307.622
307.515
307.441
307.499
307.577
307.654
307.83
307.943
308.108
308.081
308.132
308.058
307.965
307.835
307.767
307.72
307.718
307.793
307.93
302.603
302.563
302.531
302.495
302.513
302.546
302.581
302.621
302.672
302.722
302.718
302.724
302.709
302.675
302.639
302.599
302.596
302.592
302.616
302.66
338.16
337.573
337.074
336.789
336.967
337.502
338.14
338.983
339.672
340.267
340.628
340.574
340.259
339.801
339.229
338.764
338.527
338.572
339.002
339.618
333.503
332.996
332.577
332.301
332.449
332.905
333.398
334.134
334.733
335.205
335.517
335.468
335.176
334.802
334.304
333.907
333.701
333.739
334.126
334.657
328.642
328.23
327.9
327.644
327.744
328.124
328.502
329.146
329.648
330.019
330.255
330.235
329.967
329.643
329.237
328.924
328.744
328.791
329.095
329.546
323.622
323.305
323.053
322.833
322.883
323.224
323.494
324.032
324.408
324.709
324.914
324.877
324.637
324.358
324.061
323.817
323.683
323.709
323.932
324.325
318.474
318.272
318.051
317.898
317.907
318.184
318.378
318.806
319.062
319.289
319.493
319.45
319.247
319.026
318.78
318.593
318.523
318.561
318.691
319.026
313.26
313.14
312.966
312.87
312.861
313.07
313.194
313.482
313.667
313.814
313.995
313.948
313.821
313.641
313.443
313.329
313.28
313.315
313.403
313.658
307.983
307.91
307.812
307.753
307.747
307.868
307.961
308.119
308.224
308.314
308.436
308.39
308.329
308.193
308.077
308.021
308.01
308.028
308.079
308.225
302.679
302.646
302.62
302.608
302.613
302.637
302.675
302.72
302.757
302.789
302.839
302.813
302.797
302.735
302.705
302.69
302.694
302.702
302.721
302.762
339.569
338.989
338.581
338.342
338.441
338.906
339.493
340.316
340.865
341.581
341.739
341.942
341.591
341.071
340.668
340.121
339.982
340.053
340.395
340.928
334.73
334.265
333.896
333.668
333.693
334.1
334.596
335.304
335.761
336.374
336.483
336.667
336.362
335.917
335.562
335.108
334.991
335.045
335.345
335.798
329.694
329.308
329.02
328.78
328.792
329.142
329.521
330.153
330.515
331.022
331.095
331.259
330.98
330.624
330.316
329.96
329.858
329.916
330.162
330.526
324.504
324.196
323.966
323.765
323.749
324.031
324.346
324.87
325.131
325.515
325.593
325.743
325.507
325.191
324.946
324.644
324.603
324.658
324.837
325.153
319.197
318.963
318.788
318.612
318.586
318.802
319.058
319.465
319.654
319.908
320.003
320.135
319.943
319.65
319.49
319.258
319.246
319.288
319.425
319.656
313.803
313.649
313.509
313.371
313.341
313.513
313.672
313.956
314.106
314.265
314.347
314.438
314.301
314.075
313.979
313.816
313.811
313.816
313.935
314.103
308.317
308.242
308.127
308.057
308.03
308.157
308.235
308.381
308.494
308.583
308.641
308.699
308.61
308.456
308.401
308.319
308.302
308.301
308.384
308.478
302.794
302.777
302.728
302.712
302.685
302.738
302.771
302.808
302.853
302.886
302.91
302.924
302.892
302.83
302.812
302.793
302.777
302.784
302.814
302.842
341.144
340.619
340.065
339.87
339.894
340.34
340.926
341.507
342.199
342.675
343.055
343.041
342.792
342.479
341.859
341.568
341.373
341.429
341.864
342.427
336.123
335.675
335.187
335.004
334.985
335.358
335.868
336.345
336.943
337.322
337.645
337.615
337.409
337.136
336.618
336.342
336.211
336.262
336.616
337.125
330.886
330.519
330.106
329.924
329.914
330.202
330.626
331.007
331.506
331.802
332.086
332.064
331.874
331.652
331.21
330.962
330.902
330.932
331.226
331.652
325.496
325.188
324.89
324.683
324.67
324.907
325.223
325.542
325.955
326.161
326.416
326.404
326.24
326.044
325.704
325.484
325.458
325.465
325.717
326.056
319.976
319.746
319.522
319.344
319.316
319.474
319.704
319.996
320.314
320.445
320.665
320.652
320.527
320.326
320.095
319.919
319.935
319.912
320.122
320.373
314.356
314.199
314.031
313.904
313.867
313.963
314.135
314.355
314.58
314.654
314.833
314.816
314.713
314.545
314.417
314.299
314.299
314.268
314.448
314.602
308.655
308.575
308.436
308.381
308.358
308.42
308.519
308.654
308.782
308.824
308.934
308.92
308.859
308.738
308.694
308.605
308.621
308.598
308.706
308.801
302.913
302.884
302.827
302.811
302.815
302.824
302.866
302.899
302.947
302.966
303.005
303.003
302.97
302.925
302.919
302.883
302.898
302.891
302.923
302.956
342.746
342.049
341.726
341.471
341.385
341.698
342.253
342.814
343.338
343.907
344.238
344.167
344.094
343.715
343.139
342.925
342.696
342.799
343.219
343.814
337.516
336.935
336.637
336.402
336.286
336.56
337.021
337.493
337.933
338.411
338.684
338.629
338.552
338.231
337.732
337.556
337.392
337.451
337.839
338.341
332.094
331.597
331.333
331.134
331
331.242
331.609
332.007
332.354
332.754
332.98
332.936
332.867
332.616
332.172
332.012
331.898
331.963
332.271
332.709
326.472
326.101
325.881
325.693
325.565
325.762
326.074
326.392
326.645
326.981
327.163
327.106
327.062
326.87
326.484
326.344
326.278
326.336
326.58
326.956
320.745
320.485
320.286
320.129
319.989
320.148
320.416
320.654
320.843
321.117
321.236
321.171
321.175
321.007
320.707
320.585
320.563
320.602
320.786
321.11
314.912
314.741
314.573
314.462
314.348
314.453
314.668
314.809
314.954
315.152
315.247
315.168
315.185
315.042
314.858
314.754
314.755
314.792
314.908
315.164
308.995
308.892
308.79
308.705
308.639
308.701
308.834
308.916
309.01
309.132
309.179
309.138
309.154
309.049
308.944
308.877
308.9
308.917
308.973
309.126
303.022
302.987
302.96
302.923
302.893
302.927
302.968
302.999
303.032
303.068
303.073
303.071
303.073
303.037
303.008
302.981
302.991
302.999
303.022
303.07
344.186
343.526
343.111
342.819
342.776
343.116
343.647
344.156
344.65
345.143
345.4
345.374
345.153
344.956
344.528
344.366
344.141
344.235
344.583
345.244
338.806
338.231
337.861
337.56
337.506
337.786
338.243
338.672
339.079
339.488
339.718
339.692
339.473
339.347
338.958
338.833
338.641
338.732
339.017
339.598
333.197
332.712
332.413
332.101
332.035
332.303
332.665
333.009
333.322
333.68
333.871
333.834
333.642
333.561
333.237
333.133
332.984
333.048
333.293
333.776
327.397
327.048
326.764
326.493
326.407
326.639
326.952
327.197
327.448
327.743
327.903
327.846
327.69
327.618
327.387
327.277
327.186
327.22
327.41
327.832
321.462
321.208
320.982
320.752
320.654
320.857
321.086
321.295
321.457
321.683
321.857
321.743
321.633
321.564
321.43
321.333
321.265
321.295
321.439
321.769
315.415
315.222
315.079
314.888
314.808
314.976
315.135
315.291
315.39
315.532
315.68
315.593
315.51
315.436
315.372
315.317
315.236
315.266
315.4
315.613
309.284
309.156
309.092
308.962
308.913
309.015
309.123
309.218
309.257
309.332
309.45
309.394
309.331
309.271
309.263
309.232
309.179
309.186
309.269
309.388
303.12
303.077
303.051
303.009
302.998
303.018
303.068
303.098
303.106
303.132
303.179
303.159
303.123
303.105
303.124
303.098
303.082
303.086
303.109
303.152
345.602
345.124
344.7
344.337
344.396
344.577
344.848
345.475
345.907
346.252
346.448
346.559
346.397
346.121
345.834
345.69
345.517
345.692
346.093
346.695
340.055
339.597
339.252
338.88
338.944
339.089
339.314
339.859
340.193
340.486
340.623
340.724
340.609
340.355
340.094
339.978
339.838
340.016
340.34
340.845
334.276
333.837
333.561
333.236
333.265
333.411
333.589
334.044
334.305
334.55
334.662
334.726
334.632
334.416
334.177
334.095
333.978
334.152
334.408
334.83
328.313
327.913
327.708
327.411
327.428
327.57
327.715
328.069
328.244
328.444
328.557
328.603
328.53
328.337
328.14
328.088
327.996
328.139
328.34
328.682
322.185
321.862
321.703
321.45
321.459
321.577
321.695
321.972
322.08
322.237
322.346
322.365
322.299
322.161
321.993
321.962
321.894
322.016
322.163
322.41
315.95
315.712
315.587
315.38
315.389
315.493
315.573
315.754
315.824
315.948
316.027
316.055
315.986
315.891
315.775
315.74
315.718
315.775
315.913
316.077
309.62
309.479
309.386
309.275
309.25
309.324
309.373
309.48
309.521
309.605
309.657
309.683
309.621
309.583
309.507
309.472
309.461
309.504
309.573
309.685
303.235
303.183
303.156
303.116
303.113
303.12
303.15
303.177
303.203
303.228
303.245
303.262
303.234
303.217
303.195
303.176
303.172
303.196
303.214
303.256
347.151
346.723
346.356
345.935
345.946
345.969
346.227
346.615
347.096
347.402
347.622
347.702
347.558
347.293
347.107
347.105
346.871
347.113
347.6
348.103
341.383
341.024
340.713
340.299
340.285
340.286
340.503
340.833
341.211
341.477
341.672
341.752
341.595
341.39
341.225
341.223
341.052
341.25
341.659
342.097
335.407
335.097
334.817
334.45
334.418
334.418
334.597
334.882
335.172
335.383
335.541
335.623
335.479
335.307
335.152
335.173
335.052
335.214
335.544
335.912
329.24
328.961
328.754
328.428
328.4
328.395
328.53
328.751
328.968
329.164
329.257
329.349
329.246
329.108
328.93
328.952
328.895
329.006
329.297
329.597
322.915
322.67
322.538
322.249
322.24
322.232
322.341
322.471
322.625
322.836
322.887
322.941
322.882
322.793
322.602
322.637
322.584
322.711
322.922
323.138
316.483
316.282
316.176
315.973
315.958
315.967
316.047
316.135
316.217
316.404
316.44
316.464
316.42
316.379
316.204
316.226
316.203
316.302
316.448
316.605
309.923
309.819
309.744
309.643
309.606
309.614
309.671
309.717
309.752
309.888
309.905
309.922
309.888
309.887
309.755
309.766
309.738
309.807
309.915
310.009
303.32
303.303
303.266
303.239
303.227
303.23
303.249
303.258
303.273
303.315
303.325
303.325
303.313
303.335
303.275
303.275
303.274
303.284
303.324
303.36
348.708
348.19
347.743
347.463
347.4
347.431
347.577
347.867
348.297
348.564
348.666
348.769
348.685
348.527
348.293
348.333
348.376
348.635
349.144
349.597
342.754
342.305
341.919
341.613
341.591
341.608
341.683
341.932
342.306
342.512
342.594
342.685
342.589
342.458
342.264
342.308
342.373
342.585
343.048
343.428
336.577
336.17
335.872
335.558
335.525
335.541
335.612
335.816
336.114
336.277
336.314
336.446
336.304
336.224
336.05
336.088
336.161
336.337
336.763
337.065
330.207
329.867
329.634
329.351
329.311
329.309
329.372
329.541
329.757
329.898
329.909
330.041
329.884
329.844
329.717
329.731
329.779
329.956
330.293
330.563
323.684
323.387
323.21
322.988
322.933
322.949
322.985
323.143
323.266
323.401
323.4
323.513
323.355
323.34
323.245
323.261
323.28
323.424
323.694
323.9
317.024
316.797
316.661
316.52
316.471
316.496
316.508
316.616
316.681
316.793
316.765
316.872
316.759
316.734
316.68
316.672
316.672
316.8
316.994
317.145
310.263
310.114
310.045
309.958
309.923
309.95
309.963
310.002
310.036
310.105
310.089
310.164
310.091
310.063
310.04
310.043
310.031
310.136
310.239
310.334
303.452
303.397
303.364
303.343
303.33
303.343
303.341
303.351
303.372
303.398
303.378
303.409
303.388
303.381
303.37
303.377
303.359
303.4
303.432
303.469
350.17
349.676
349.193
348.915
348.752
348.845
348.914
349.162
349.379
349.638
349.634
349.899
349.75
349.674
349.553
349.586
349.642
350.045
350.539
351.01
344.014
343.59
343.183
342.915
342.768
342.828
342.876
343.057
343.25
343.464
343.453
343.671
343.543
343.485
343.372
343.439
343.487
343.828
344.272
344.683
337.64
337.255
336.924
336.703
336.551
336.571
336.617
336.77
336.948
337.117
337.063
337.251
337.125
337.102
337.005
337.105
337.128
337.416
337.805
338.138
331.067
330.74
330.49
330.307
330.136
330.168
330.198
330.318
330.455
330.582
330.53
330.674
330.561
330.585
330.495
330.599
330.582
330.812
331.162
331.426
324.353
324.087
323.883
323.753
323.564
323.607
323.64
323.716
323.824
323.905
323.891
323.97
323.881
323.925
323.86
323.964
323.917
324.084
324.393
324.597
317.516
317.299
317.135
317.04
316.909
316.931
316.982
317.016
317.101
317.134
317.136
317.179
317.124
317.16
317.116
317.186
317.156
317.279
317.509
317.653
310.573
310.423
310.319
310.267
310.17
310.193
310.241
310.243
310.303
310.309
310.317
310.336
310.308
310.353
310.31
310.345
310.321
310.408
310.548
310.634
303.549
303.492
303.464
303.446
303.423
303.423
303.45
303.439
303.467
303.45
303.466
303.467
303.458
303.476
303.449
303.466
303.462
303.498
303.543
303.573
351.704
351.152
350.666
350.313
350.226
350.166
350.298
350.399
350.609
350.907
350.773
350.834
350.816
350.883
350.815
350.854
351.002
351.313
351.864
352.303
345.351
344.89
344.463
344.14
344.028
343.972
344.083
344.14
344.33
344.576
344.438
344.504
344.49
344.558
344.487
344.515
344.664
344.933
345.423
345.798
338.778
338.359
338.009
337.755
337.626
337.578
337.651
337.682
337.853
338.048
337.922
337.988
337.948
338.034
337.97
337.978
338.134
338.353
338.778
339.091
332.007
331.635
331.357
331.174
331.042
330.987
331.042
331.059
331.203
331.358
331.258
331.301
331.259
331.337
331.306
331.293
331.42
331.612
331.959
332.207
325.078
324.76
324.576
324.429
324.311
324.273
324.276
324.293
324.428
324.515
324.449
324.49
324.464
324.518
324.512
324.483
324.586
324.728
324.996
325.204
318.024
317.771
317.676
317.559
317.461
317.421
317.44
317.421
317.532
317.578
317.545
317.581
317.558
317.587
317.596
317.579
317.628
317.74
317.943
318.087
310.86
310.704
310.657
310.592
310.519
310.494
310.521
310.502
310.577
310.572
310.577
310.596
310.57
310.596
310.599
310.591
310.599
310.682
310.811
310.905
303.649
303.599
303.583
303.564
303.531
303.52
303.54
303.523
303.551
303.541
303.552
303.562
303.543
303.57
303.554
303.558
303.544
303.582
303.634
303.671
353.036
352.483
351.836
351.503
351.38
351.339
351.513
351.506
351.628
351.887
351.891
351.872
351.906
351.902
352.014
352.077
352.156
352.455
353.033
353.697
346.515
346.026
345.457
345.125
345.051
344.974
345.165
345.14
345.202
345.438
345.422
345.4
345.411
345.41
345.521
345.586
345.648
345.914
346.413
347.019
339.783
339.321
338.834
338.526
338.51
338.412
338.572
338.563
338.576
338.78
338.74
338.74
338.716
338.731
338.842
338.881
338.944
339.162
339.626
340.115
332.822
332.436
332.047
331.765
331.789
331.668
331.807
331.778
331.796
331.946
331.918
331.93
331.882
331.899
332
332.018
332.074
332.249
332.667
333.07
325.699
325.398
325.105
324.856
324.892
324.765
324.904
324.842
324.858
324.961
324.95
324.959
324.92
324.946
325.033
325.059
325.089
325.224
325.574
325.878
318.456
318.218
318.035
317.838
317.858
317.765
317.877
317.811
317.832
317.892
317.896
317.892
317.873
317.885
317.958
317.983
318.015
318.104
318.327
318.57
311.134
310.962
310.865
310.761
310.744
310.705
310.768
310.717
310.741
310.769
310.776
310.77
310.741
310.774
310.798
310.833
310.851
310.904
311.038
311.181
303.734
303.668
303.647
303.616
303.602
303.596
303.614
303.596
303.61
303.618
303.612
303.614
303.601
303.619
303.623
303.631
303.643
303.662
303.705
303.747
353.991
353.414
352.886
352.406
352.351
352.092
352.418
352.252
352.406
352.598
352.551
352.59
352.713
352.578
352.825
352.755
353.013
353.296
353.911
354.5
347.299
346.817
346.328
345.885
345.849
345.587
345.896
345.733
345.871
346.034
345.987
346
346.103
345.969
346.196
346.127
346.355
346.654
347.157
347.665
340.406
340.002
339.541
339.14
339.131
338.905
339.193
339.024
339.145
339.24
339.22
339.244
339.327
339.172
339.369
339.338
339.519
339.788
340.233
340.64
333.339
333.009
332.582
332.227
332.237
332.055
332.307
332.167
332.244
332.302
332.287
332.328
332.379
332.24
332.403
332.387
332.53
332.749
333.132
333.447
326.104
325.875
325.471
325.18
325.204
325.053
325.281
325.161
325.219
325.25
325.248
325.25
325.315
325.192
325.336
325.309
325.425
325.581
325.907
326.174
318.747
318.582
318.267
318.05
318.048
317.973
318.148
318.052
318.084
318.109
318.11
318.086
318.158
318.073
318.181
318.143
318.23
318.332
318.581
318.783
311.284
311.207
311
310.873
310.864
310.812
310.923
310.872
310.889
310.907
310.913
310.872
310.935
310.88
310.948
310.92
310.973
311.028
311.185
311.295
303.789
303.767
303.688
303.654
303.642
303.625
303.664
303.648
303.663
303.665
303.662
303.648
303.67
303.654
303.686
303.661
303.674
303.695
303.762
303.785
)
;

boundaryField
{
    hotSide
    {
        type            fixedGradient;
        gradient        nonuniform List<scalar> 
400
(
282.12
284.254
288.706
295.415
304.148
314.569
326.316
339.059
352.523
366.489
380.791
395.304
409.938
424.628
439.327
454.004
468.639
483.221
497.745
512.214
270.249
272.582
277.398
284.621
293.97
305.049
317.443
330.789
344.789
359.218
373.908
388.738
403.621
418.497
433.33
448.094
462.778
477.378
491.894
506.336
264.63
267.373
272.566
280.126
289.774
301.116
313.74
327.28
341.436
355.978
370.737
385.591
400.455
415.273
430.014
444.659
459.203
473.648
488.002
502.279
264.866
268.215
273.809
281.565
291.244
302.509
314.994
328.362
342.323
356.651
371.174
385.767
400.348
414.863
429.284
443.6
457.812
471.929
485.967
499.942
269.372
273.433
279.478
287.419
297.059
308.124
320.307
333.311
346.868
360.762
374.824
388.932
403.006
417.002
430.898
444.693
458.397
472.028
485.606
499.154
276.35
281.161
287.72
295.933
305.624
316.562
328.481
341.116
354.223
367.596
381.076
394.552
407.959
421.266
434.471
447.586
460.635
473.647
486.65
499.669
284.334
289.893
297.027
305.629
315.53
326.511
338.323
350.712
363.441
376.312
389.179
401.951
414.588
427.089
439.48
451.799
464.089
476.391
488.742
501.169
292.218
298.49
306.232
315.324
325.59
336.804
348.708
361.03
373.521
385.976
398.26
410.31
422.127
433.758
445.269
456.734
468.219
479.778
491.455
503.28
299.146
306.042
314.366
323.987
334.718
346.314
358.486
370.923
383.335
395.492
407.264
418.624
429.635
440.403
451.051
461.688
472.406
483.269
494.325
505.602
304.443
311.801
320.587
330.669
341.85
353.864
366.385
379.052
391.513
403.498
414.875
425.66
435.984
446.022
455.95
465.911
476.012
486.327
496.9
507.757
307.633
315.206
324.229
334.571
346.029
358.325
371.108
383.974
396.526
408.456
419.627
430.088
440.016
449.636
459.156
468.738
478.498
488.51
498.82
509.451
308.507
315.993
324.957
335.264
346.71
359.012
371.815
384.712
397.303
409.28
420.504
431.016
440.992
450.65
460.198
469.799
479.571
489.591
499.905
510.538
307.189
314.293
322.908
332.899
344.06
356.111
368.712
381.486
394.074
406.197
417.715
428.634
439.073
449.2
459.19
469.189
479.309
489.63
500.204
511.063
304.156
310.641
318.702
328.207
338.948
350.653
362.998
375.645
388.277
400.648
412.613
424.136
435.268
446.115
456.799
467.441
478.14
488.973
499.999
511.253
300.217
305.932
313.343
322.325
332.668
344.093
356.283
368.915
381.698
394.402
406.873
419.043
430.913
442.533
453.982
465.349
476.717
488.158
499.731
511.476
296.512
301.388
308.141
316.657
326.71
337.995
350.174
362.917
375.936
389.004
401.962
414.721
427.249
439.564
451.711
463.754
475.762
487.801
499.927
512.179
294.556
298.599
304.738
312.865
322.724
333.961
346.199
359.088
372.331
385.703
399.043
412.252
425.285
438.137
450.834
463.424
475.963
488.512
501.123
513.835
296.176
299.486
305.065
312.815
322.447
333.564
345.755
358.654
371.963
385.46
398.986
412.442
425.772
438.961
452.022
464.988
477.908
490.835
503.819
516.892
302.995
305.766
310.832
318.105
327.298
338.021
349.865
362.473
375.557
388.9
402.349
415.8
429.193
442.502
455.728
468.893
482.033
495.192
508.41
521.715
315.508
317.96
322.552
329.211
337.704
347.699
358.842
370.813
383.347
396.236
409.33
422.523
435.747
448.964
462.163
475.352
488.553
501.794
515.103
528.498
)
;
    }
    coldSide
    {
        type            mixed;
        refValue        uniform 300;
        refGradient     uniform 0;
        valueFraction   uniform 0.991591;
        source          uniform 0;
        value           nonuniform List<scalar> 
400
(
300.018
300.019
300.019
300.019
300.02
300.02
300.021
300.022
300.023
300.023
300.024
300.025
300.026
300.027
300.028
300.029
300.03
300.031
300.031
300.032
300.018
300.018
300.019
300.019
300.019
300.02
300.021
300.022
300.022
300.023
300.024
300.025
300.026
300.027
300.028
300.029
300.029
300.03
300.031
300.032