/*--------------------------------*- C++ -*----------------------------------*\
| =========                 |                                                 |
| \\      /  F ield         | OpenFOAM: The Open Source CFD Toolbox           |
|  \\    /   O peration     | Version:  2212                                  |
|   \\  /    A nd           | Website:  www.openfoam.com                      |
|    \\/     M anipulation  |                                                 |
\*---------------------------------------------------------------------------*/
FoamFile
{
    version     2.0;
    format      ascii;
    arch        "LSB;label=32;scalar=64";
    class       volScalarField;
    location    "0";
    object      relativeErrorField;
}
// * * * * * * * * * * * * * * * * * * * * * * * * * * * * * * * * * * * * * //

dimensions      [0 0 0 1 0 0 0];

internalField   nonuniform List<scalar> 
3200
(
0.0253665
0.0248202
0.0244841
0.0241954
0.0241279
0.0240658
0.0242829
0.0243656
0.0244824
0.0248087
0.0247435
0.0248366
0.0244757
0.0244721
0.0242162
0.0243182
0.024601
0.0248943
0.0253237
0.0256852
0.0219248
0.0214111
0.0210213
0.0206033
0.0208113
0.0209055
0.0209987
0.0210971
0.0212261
0.0212135
0.0213975
0.0214103
0.0214064
0.02116
0.0210497
0.020993
0.0212244
0.0215549
0.021819
0.022185
0.0183464
0.0179851
0.0177038
0.0175087
0.0176472
0.0179015
0.0176429
0.0178364
0.0179279
0.0179289
0.0181897
0.0180009
0.0180138
0.0178214
0.0176376
0.0178511
0.0179746
0.01793
0.0183201
0.0190167
0.0152031
0.014687
0.0146012
0.014665
0.0143998
0.0143631
0.0143446
0.0146778
0.0146538
0.0149637
0.0146106
0.0147099
0.0146268
0.0148825
0.0146201
0.0145126
0.0146004
0.0147927
0.0150116
0.0151383
0.0116322
0.011576
0.0114766
0.0112451
0.0111306
0.0112183
0.0114392
0.0113663
0.0115657
0.0116555
0.0115089
0.0114025
0.0114137
0.0112316
0.0113947
0.0114265
0.0114528
0.0114237
0.0117785
0.0118731
0.0084389
0.00826454
0.00795682
0.00815086
0.00817336
0.0080036
0.0079943
0.00836752
0.0082473
0.00821414
0.00843798
0.00848227
0.00817863
0.00831168
0.00818372
0.00791708
0.00815204
0.00825021
0.0083898
0.00875301
0.00491774
0.00512071
0.00508069
0.00483324
0.00514409
0.00500208
0.00508798
0.00490436
0.00507992
0.00495004
0.00521981
0.00513583
0.00508908
0.00515624
0.00501873
0.0050599
0.00520367
0.00473885
0.00516538
0.00523954
0.00174191
0.00144295
0.00163715
0.00155365
0.00171784
0.00182089
0.00162874
0.0017148
0.00173386
0.00163951
0.00180886
0.00161667
0.00152447
0.00190463
0.00153467
0.00142376
0.00173847
0.0015594
0.00191049
0.00178013
0.0234257
0.0226965
0.0221531
0.0220252
0.0218835
0.0218009
0.0221583
0.0221001
0.0224169
0.0223566
0.0223212
0.0224844
0.0222179
0.0222875
0.0219842
0.0220673
0.0224073
0.0226632
0.0231527
0.0238128
0.0203139
0.0197832
0.0194187
0.0192294
0.018832
0.0188376
0.0191007
0.0194165
0.0193023
0.0196099
0.0191966
0.01928
0.0191687
0.0195301
0.0189931
0.0193583
0.0194184
0.0196623
0.0200579
0.0206458
0.0170497
0.0168037
0.0163382
0.0164319
0.0161826
0.0158792
0.0161637
0.0162998
0.0164824
0.0165119
0.0164544
0.0164573
0.0164643
0.0163365
0.0162095
0.0163485
0.0165301
0.0165779
0.0170224
0.017473
0.014309
0.0137007
0.0135513
0.013313
0.0132887
0.0131642
0.0132216
0.0134325
0.0137229
0.0135971
0.0135095
0.0136333
0.0133327
0.0133758
0.013477
0.0134065
0.0135115
0.0137773
0.0139449
0.0143544
0.0110448
0.010902
0.0104719
0.0103318
0.0103194
0.010354
0.0104271
0.0105975
0.0103137
0.0105179
0.0105321
0.010557
0.0105455
0.0106359
0.0106363
0.0105655
0.0106695
0.0108462
0.0110266
0.0111773
0.0076872
0.00788256
0.00767986
0.00746728
0.0073927
0.00744841
0.00743819
0.00741478
0.00766824
0.00768935
0.00786211
0.00768753
0.00760121
0.00760925
0.00747188
0.0074694
0.0075159
0.00784614
0.00799173
0.00808899
0.00492482
0.00467052
0.0044494
0.00449727
0.00461091
0.00460858
0.00453709
0.0045281
0.0043212
0.00489891
0.00468534
0.00472591
0.00472482
0.00460027
0.00486749
0.00467257
0.0045147
0.00457214
0.00470831
0.00490492
0.0017312
0.00151718
0.00143199
0.00148985
0.00172748
0.00155081
0.00135492
0.00144463
0.00159649
0.00146384
0.00175204
0.0015909
0.00145414
0.00140159
0.00170144
0.00154552
0.00186121
0.00167087
0.00154278
0.00176947
0.0212686
0.0203573
0.019865
0.0194225
0.0192155
0.0192464
0.0192311
0.0193023
0.019244
0.0196273
0.0196701
0.0194606
0.0193402
0.0193709
0.0192949
0.0196871
0.0200244
0.020355
0.0206564
0.0213643
0.0183757
0.0178047
0.0173521
0.0168179
0.0166303
0.0169096
0.0168114
0.016709
0.0170113
0.0170662
0.0169996
0.0170511
0.0169507
0.0167685
0.0168604
0.0168023
0.0170165
0.0173909
0.0181517
0.0184147
0.0155415
0.0151995
0.0145943
0.0143224
0.0142141
0.014279
0.014222
0.0141994
0.0145322
0.0143935
0.0143243
0.0143543
0.0144691
0.014313
0.0142888
0.0143897
0.0146091
0.0149526
0.0153411
0.0156971
0.0127575
0.0123642
0.0118761
0.0117852
0.0117735
0.0116753
0.0117697
0.0117625
0.0119085
0.0118464
0.0118672
0.0119131
0.0118656
0.0117755
0.0118614
0.0119519
0.0120117
0.0123817
0.0125454
0.0128961
0.00993912
0.00949321
0.00958955
0.00928405
0.00924523
0.00904977
0.00924029
0.00914879
0.0093703
0.00921746
0.0094599
0.00920805
0.00956133
0.00908531
0.00924062
0.00909718
0.00936366
0.00963707
0.00967635
0.0100199
0.00726319
0.00683335
0.0067928
0.00662453
0.00643311
0.00645619
0.0064424
0.00657035
0.00676093
0.00687962
0.00672215
0.00667434
0.00651588
0.00668136
0.00663588
0.00662278
0.00677072
0.00668274
0.00705683
0.00754592
0.00434001
0.00408817
0.00433683
0.00405192
0.00391792
0.00409705
0.00428767
0.0041738
0.00393316
0.00417666
0.00410169
0.0040189
0.0039764
0.00385048
0.004115
0.00409602
0.00421004
0.00415252
0.00445613
0.0044378
0.00128155
0.00132167
0.00121721
0.0014918
0.00149102
0.00129464
0.00116351
0.00140606
0.00142462
0.0015497
0.00127811
0.00137584
0.00127102
0.00145981
0.00134796
0.00136393
0.00127824
0.00147446
0.00154741
0.00153486
0.0189873
0.0182448
0.0175428
0.0171605
0.0165967
0.0166486
0.0165511
0.0165947
0.0165934
0.0165557
0.0166668
0.0167862
0.0163899
0.0164975
0.0167223
0.0168565
0.0172227
0.0176965
0.01841
0.0189972
0.0162135
0.0157748
0.0152354
0.014609
0.0146164
0.0142445
0.0141378
0.0142139
0.0144411
0.014475
0.0141954
0.0145199
0.0144957
0.0142572
0.0144721
0.0146421
0.0148894
0.0152347
0.0159555
0.0162737
0.0139498
0.013227
0.0129766
0.0125838
0.0124034
0.0122438
0.0121365
0.0122123
0.0122219
0.0121408
0.0124394
0.0122529
0.0121628
0.0124159
0.0123038
0.0122588
0.0125724
0.0129843
0.0136349
0.0138732
0.0112622
0.0108442
0.0106643
0.0103369
0.0100005
0.00989654
0.0100978
0.0100446
0.0100472
0.00996589
0.010232
0.0100948
0.0100029
0.010129
0.0101312
0.0100183
0.0104018
0.0107181
0.0111044
0.0116148
0.0089647
0.00857756
0.00829643
0.00791345
0.00812261
0.00804436
0.00769638
0.0077653
0.00783574
0.00794507
0.00808586
0.00784396
0.00795029
0.0079333
0.00780232
0.00795509
0.00824505
0.00831612
0.00866035
0.0089358
0.00647072
0.00628111
0.0057928
0.00576013
0.0054428
0.00571605
0.00579493
0.00564309
0.00571569
0.00572867
0.00586716
0.00563964
0.00597149
0.00564769
0.00581547
0.00587027
0.00577178
0.00591676
0.00651682
0.0064883
0.00374481
0.00374558
0.00357476
0.00335084
0.00351618
0.00354039
0.00331176
0.00328737
0.00354957
0.00346551
0.00355365
0.00348474
0.00329054
0.00354312
0.00346795
0.00349893
0.00373101
0.00355451
0.00358887
0.00403948
0.00118894
0.00137337
0.00101505
0.00117722
0.00110712
0.00130303
0.00119503
0.0012802
0.000905718
0.00116329
0.00119438
0.00128986
0.00109021
0.00106422
0.00115594
0.00109279
0.00134096
0.00116874
0.0012223
0.00143608
0.0171559
0.016074
0.0153316
0.0148115
0.0142723
0.0141332
0.0140708
0.0139827
0.0141967
0.0138138
0.0140443
0.0138563
0.0139466
0.0139865
0.0140936
0.0142904
0.0147899
0.0152571
0.0162967
0.0169674
0.0144836
0.0138645
0.0133024
0.0128518
0.0122248
0.0123011
0.0119756
0.0120049
0.0118835
0.0119164
0.0120363
0.0119104
0.0121552
0.0120818
0.0119558
0.0124619
0.0127802
0.0134734
0.01411
0.0146801
0.012359
0.0117233
0.0110903
0.0110316
0.0104899
0.0103062
0.010464
0.0102603
0.0102856
0.0100897
0.0104166
0.0100241
0.0103216
0.0102728
0.0103326
0.0108335
0.0110389
0.011548
0.0118801
0.0123241
0.0104349
0.00957154
0.00901897
0.00885553
0.0088724
0.00854957
0.00837675
0.00853451
0.00839587
0.00849925
0.00851082
0.00852256
0.00865627
0.00852162
0.00850768
0.00866182
0.0091493
0.00935929
0.00980507
0.0103825
0.00797108
0.00752556
0.00729323
0.006629
0.00680973
0.00676998
0.00660266
0.00685602
0.00674635
0.00657801
0.00657129
0.00650156
0.00639922
0.006372
0.00658781
0.00694064
0.00700805
0.00730809
0.00783255
0.00793986
0.00568638
0.00554843
0.00514548
0.00530416
0.0049847
0.00460628
0.00478307
0.00485543
0.00478729
0.0046831
0.00481375
0.0048344
0.00470195
0.00492164
0.00476418
0.00482524
0.00503009
0.00529515
0.00545477
0.00543695
0.00341624
0.00307333
0.00314879
0.00299372
0.00289085
0.00299288
0.00285218
0.00277549
0.002778
0.00266094
0.00300718
0.00308024
0.002738
0.00293866
0.00298574
0.00290766
0.00312917
0.00323962
0.0033589
0.00355879
0.00113823
0.00127905
0.000936574
0.00112946
0.000984136
0.000937715
0.00107794
0.00102677
0.000894129
0.00105199
0.000883752
0.00104864
0.00114842
0.0011013
0.00104149
0.00116901
0.00116078
0.000945404
0.00122351
0.00123116
0.0153679
0.0144691
0.0134407
0.012482
0.0124311
0.0120201
0.0116151
0.0118577
0.011525
0.0113529
0.0115199
0.0116148
0.0115326
0.0120497
0.0119035
0.0122611
0.0127921
0.013425
0.0145634
0.0153344
0.0130704
0.012458
0.0114846
0.011056
0.0106888
0.0104385
0.0104108
0.0100596
0.00988093
0.0100745
0.00987556
0.0100374
0.0100182
0.0101375
0.0102758
0.0104562
0.0111252
0.0114461
0.0125424
0.0131166
0.0111908
0.0105068
0.00987107
0.00946185
0.00899113
0.00847747
0.00838467
0.00855854
0.0085441
0.00842176
0.00833934
0.00853508
0.00835603
0.00850724
0.00877912
0.00917324
0.00938255
0.00987448
0.0104024
0.0113423
0.00909008
0.00863635
0.00804094
0.00778002
0.00720559
0.0072101
0.00707474
0.00714903
0.00693658
0.00703053
0.006879
0.00716497
0.00702666
0.00717831
0.00734691
0.00713957
0.00755097
0.00793047
0.00894539
0.00921277
0.00715016
0.00669836
0.00633377
0.00611683
0.00590418
0.00566679
0.00567295
0.00555835
0.00560652
0.00543884
0.00547939
0.00544445
0.00539425
0.00540556
0.00561239
0.00589415
0.00605162
0.00652566
0.00685475
0.00708075
0.00507247
0.00496496
0.00458323
0.0043766
0.00424889
0.00404372
0.00388014
0.00382237
0.00400271
0.00386845
0.00410767
0.00391984
0.00389955
0.00371386
0.00396535
0.00423465
0.00450999
0.00429122
0.00487084
0.00522113
0.00310555
0.00302084
0.00280945
0.0026852
0.00249597
0.00226414
0.00255905
0.00218443
0.00220696
0.00270152
0.00255839
0.00231435
0.00250054
0.00253652
0.00261323
0.00247995
0.00236349
0.00273205
0.0030214
0.00300774
0.00100252
0.000948486
0.000802356
0.000739162
0.00087078
0.000945964
0.000675492
0.000907284
0.000780425
0.000772466
0.000944925
0.000909396
0.000613235
0.000774915
0.000893584
0.000854729
0.000816599
0.000901707
0.00100061
0.00101298
0.0142222
0.0128174
0.0119635
0.0115124
0.0107084
0.0102177
0.00977595
0.00964137
0.00946883
0.00975039
0.00945135
0.00952539
0.00967539
0.00974128
0.00998885
0.0105379
0.0112127
0.0119452
0.0128826
0.0140772
0.0119502
0.0112192
0.0103603
0.00978774
0.00936076
0.00874103
0.00836606
0.0086532
0.00829171
0.00824808
0.00842702
0.00833018
0.00822976
0.0086085
0.00875654
0.00915769
0.00928807
0.0104241
0.0112983
0.0120602
0.0102088
0.00952201
0.00888258
0.00802151
0.00775572
0.00767132
0.00730729
0.00729566
0.0070628
0.00692209
0.00672453
0.00696119
0.00679076
0.00735053
0.00728162
0.00776797
0.0081606
0.0086951
0.00926671
0.0101582
0.00839894
0.00779635
0.0072328
0.00656583
0.00618712
0.00602704
0.00594971
0.00584084
0.00591146
0.00559286
0.00543053
0.00577411
0.00578268
0.00604044
0.00598548
0.0064556
0.0067116
0.0071177
0.00777894
0.00844524
0.00637301
0.00634874
0.00543631
0.00514916
0.00521187
0.00477475
0.00459276
0.00457376
0.00473629
0.00448983
0.00467306
0.00451774
0.00456147
0.00455171
0.00462077
0.00487254
0.00527741
0.00560461
0.0060343
0.00656393
0.00465305
0.00448081
0.00412513
0.00386448
0.00349618
0.00345651
0.00349316
0.00317592
0.00334641
0.00324432
0.00319671
0.00325066
0.00319477
0.0031924
0.00337241
0.00368129
0.0038274
0.00401119
0.00428505
0.00453677
0.00289447
0.00259135
0.0025689
0.00243398
0.00201875
0.00205588
0.00173363
0.00194145
0.00214365
0.00197957
0.00200901
0.00172943
0.00213218
0.00201441
0.00203438
0.0018413
0.00208253
0.00235557
0.00282096
0.00294978
0.00108417
0.000767305
0.000835086
0.000835844
0.000775268
0.000805446
0.000472738
0.000736593
0.000645269
0.000670098
0.000706372
0.000463407
0.000737946
0.000686699
0.000536918
0.000844741
0.00086132
0.000793246
0.000664423
0.00090085
0.0133818
0.012387
0.0110057
0.0102944
0.00936823
0.00885284
0.00848891
0.00814499
0.00795783
0.00798089
0.0079166
0.00807728
0.00832332
0.00832989
0.00878698
0.00938561
0.00994072
0.0107896
0.0118493
0.0131623
0.0115527
0.0103955
0.00942695
0.00874432
0.00805534
0.00774498
0.00719482
0.00694789
0.00673964
0.00697451
0.00682308
0.00695212
0.00705013
0.00706254
0.00746053
0.00792172
0.00852624
0.00916223
0.0102912
0.0113643
0.00941923
0.00895083
0.00795353
0.00735137
0.00679741
0.00646108
0.00613513
0.00617521
0.00569729
0.0055412
0.00566395
0.0058207
0.00607849
0.0061976
0.00654717
0.00671037
0.00730803
0.0079378
0.00873718
0.00927195
0.00791585
0.00740742
0.00655346
0.00606422
0.0057149
0.0052966
0.00503347
0.00470862
0.00458863
0.00482565
0.00463496
0.00459739
0.00474291
0.00481409
0.00526132
0.00554988
0.00587938
0.00652082
0.00697267
0.00765445
0.00615281
0.00589964
0.0051907
0.00477799
0.00452339
0.00419079
0.00413012
0.00359759
0.00386779
0.00369992
0.00367652
0.00370729
0.00373997
0.00388966
0.00377203
0.00427664
0.00476448
0.00494437
0.00547399
0.00607646
0.00430214
0.00403603
0.00382119
0.00354759
0.0031912
0.00307806
0.00262445
0.00283393
0.00268612
0.00250518
0.00268369
0.00266847
0.00266958
0.00275052
0.00273448
0.00316281
0.00333408
0.00346369
0.00403067
0.00429578
0.00267855
0.00236271
0.00209432
0.00231124
0.00186583
0.00166847
0.00182065
0.00150397
0.00169452
0.00173728
0.0016633
0.00155159
0.00164144
0.00184362
0.0017449
0.00189758
0.00218907
0.00215095
0.00256071
0.00290763
0.00110511
0.000909437
0.000609695
0.000757855
0.000726514
0.000620422
0.000515813
0.000581239
0.000544884
0.000530583
0.000622118
0.00068127
0.000642053
0.000706407
0.000406294
0.00078461
0.000764926
0.000856016
0.000784457
0.000806611
0.0128866
0.0119285
0.010699
0.00947679
0.00858532
0.00820837
0.0076899
0.00750272
0.00681618
0.0070863
0.0069252
0.00693432
0.00739052
0.00733316
0.00790254
0.00835898
0.00936181
0.010283
0.011554
0.0125657
0.0112842
0.0102252
0.00899514
0.00821402
0.0072168
0.0068709
0.00643196
0.00615566
0.00606001
0.00591091
0.00578404
0.00594206
0.00596469
0.00607101
0.00680011
0.00726089
0.00800569
0.00874207
0.00968018
0.0108073
0.00934123
0.00874934
0.00786581
0.00679716
0.006189
0.00574118
0.00534957
0.00516063
0.00501161
0.00496968
0.00504663
0.00496037
0.00513328
0.00522208
0.00563242
0.00599497
0.00677727
0.00735954
0.00814001
0.00912682
0.00778754
0.00693637
0.00618009
0.00570128
0.0050767
0.00467916
0.004636
0.0040099
0.00412552
0.00409942
0.00405484
0.0040377
0.00408328
0.00443838
0.00466976
0.00508943
0.0053484
0.00607926
0.00667634
0.00745942
0.00608695
0.00542738
0.00474457
0.00423379
0.00385547
0.00373952
0.00340826
0.00346115
0.003223
0.00289373
0.00299541
0.00307731
0.00323105
0.00358817
0.00344487
0.00405047
0.00430985
0.0046844
0.00529805
0.00577217
0.00445185
0.00387296
0.00355143
0.00304987
0.00270635
0.00249336
0.00265033
0.00233978
0.00235017
0.0021963
0.00217624
0.00218838
0.00225304
0.00248585
0.0025254
0.00281501
0.00298122
0.00315952
0.00360053
0.00404387
0.0024303
0.00248435
0.00203289
0.00192483
0.00148409
0.00165369
0.00167946
0.00148552
0.00148132
0.00139773
0.00153909
0.00144245
0.00145178
0.00153885
0.00166951
0.0014548
0.00189629
0.00192228
0.00228772
0.00248445
0.00095291
0.000735113
0.000926626
0.000818441
0.000635593
0.000466553
0.000648
0.000510645
0.000497407
0.000448786
0.000418415
0.00044107
0.000604625
0.000423069
0.000407561
0.000425857
0.000604929
0.000559387
0.000817653
0.000926467
0.0131309
0.0121067
0.0104996
0.00956829
0.00848319
0.00767679
0.00717732
0.0065674
0.00652671
0.00626126
0.00609979
0.00640337
0.00633648
0.0068792
0.00733682
0.00800344
0.0090763
0.0100391
0.0113755
0.0127388
0.011342
0.0101912
0.00896524
0.00804592
0.00718345
0.00671831
0.0059127
0.00590848
0.00557698
0.00553435
0.0051608
0.00530324
0.00552701
0.00577919
0.0062864
0.00694229
0.0077101
0.00862416
0.00982104
0.010913
0.00955548
0.00871518
0.00742301
0.00656186
0.00597773
0.00555407
0.00515253
0.00505577
0.00471663
0.00456152
0.00438331
0.00452668
0.00444342
0.00496666
0.00528772
0.00588531
0.00633461
0.00707577
0.00810441
0.00902268
0.00786364
0.00701146
0.0063627
0.00536845
0.00494337
0.00441954
0.00385342
0.00384187
0.00378146
0.00362101
0.00382278
0.00352192
0.00389268
0.00418607
0.00419421
0.00455749
0.00511663
0.00599585
0.00647543
0.00716483
0.00588159
0.00536966
0.00492342
0.004265
0.00389429
0.00332712
0.00306854
0.00294075
0.00280442
0.00283314
0.00264958
0.00303007
0.00286311
0.00295886
0.00338309
0.00376401
0.00391237
0.00502045
0.00530004
0.00573717
0.00435636
0.0042723
0.00336603
0.0031755
0.00279439
0.00246758
0.00237935
0.00230722
0.00207141
0.00202216
0.00204531
0.00194382
0.00207154
0.00207277
0.00234135
0.00289645
0.00290155
0.00330411
0.00370995
0.00398976
0.00284724
0.00233929
0.00211063
0.00180559
0.00172177
0.0018801
0.0014013
0.000999746
0.00117875
0.0011755
0.00125508
0.00111561
0.00137134
0.00146244
0.0013609
0.00155109
0.00188921
0.00190097
0.0023544
0.00238832
0.000886108
0.000693736
0.000547264
0.00078287
0.000544543
0.000538127
0.000264455
0.000420113
0.000404285
0.000129701
0.000326284
0.000361891
0.000312981
0.000185323
0.000303652
0.000617396
0.000678594
0.000722313
0.000703722
0.0008776
0.0137433
0.0124306
0.0109375
0.00984931
0.00868467
0.00782923
0.00712169
0.00656516
0.00639255
0.00623383
0.006108
0.00639365
0.00643182
0.00694141
0.00734392
0.00809416
0.00899623
0.010451
0.0120051
0.0131872
0.0117936
0.0107271
0.00950116
0.00823528
0.00735266
0.00675457
0.00602949
0.00568999
0.00548901
0.00518984
0.00504952
0.00512842
0.00562211
0.00580121
0.00649325
0.00688963
0.00758193
0.00894749
0.0100188
0.0111282
0.00994995
0.00904456
0.00791126
0.00687519
0.00623845
0.00547903
0.00504745
0.00473602
0.00452371
0.00440117
0.00419106
0.00429589
0.00471061
0.00488359
0.00518083
0.00589762
0.00643186
0.00742844
0.00837454
0.00947638
0.0082945
0.00718955
0.00636674
0.00572408
0.00502453
0.00451298
0.00410522
0.00382634
0.00346191
0.00340237
0.00340907
0.00346031
0.00370649
0.00390851
0.00423247
0.00465734
0.00514807
0.00603057
0.00676087
0.00777855
0.0061002
0.00562021
0.00513226
0.00449139
0.00400956
0.00371877
0.00317443
0.00300796
0.0028749
0.00253421
0.00265097
0.00262613
0.00293677
0.00327878
0.00336794
0.00378615
0.003972
0.00485164
0.00535383
0.00609954
0.00457457
0.00410045
0.00370251
0.00315109
0.002698
0.00261208
0.00220424
0.00218714
0.00205735
0.00207121
0.00205947
0.00192392
0.00203147
0.0020823
0.00245595
0.00260644
0.0029452
0.0033365
0.00390037
0.00424201
0.00257117
0.00236482
0.00232395
0.00184742
0.00162561
0.00138383
0.00142686
0.00130432
0.00126474
0.00129688
0.00119337
0.00119708
0.00121784
0.00155543
0.0017019
0.00156295
0.00179608
0.00197826
0.00242908
0.00237535
0.00100575
0.000964466
0.000751875
0.000680896
0.000436361
0.000515136
0.00048251
0.000658159
0.000420182
0.000458511
0.000459059
0.000455084
0.000464617
0.000409007
0.000360405
0.000609427
0.000562189
0.000599174
0.000707549
0.000755734
0.0150913
0.0134765
0.0121226
0.0104797
0.00926518
0.00859653
0.0077769
0.00720397
0.00682119
0.00653202
0.00662948
0.00667381
0.00687259
0.00718162
0.00790726
0.0090462
0.00970564
0.0113048
0.0126087
0.0141308
0.0127534
0.0115732
0.0102658
0.00884097
0.00789017
0.00713177
0.00651805
0.00617814
0.0056747
0.00583512
0.00562933
0.00580118
0.00592408
0.00605057
0.00680331
0.00744528
0.00841953
0.00968266
0.010896
0.0119227
0.0107979
0.00978636
0.0087848
0.00749122
0.00655048
0.00608224
0.00546761
0.00509904
0.00468612
0.00454803
0.00454524
0.00460051
0.00484286
0.00509981
0.00567803
0.00617345
0.00717427
0.00803416
0.00919051
0.0101421
0.00892626
0.00799066
0.00710844
0.00632213
0.00558713
0.0048363
0.0043121
0.0041367
0.00382348
0.00365081
0.0036455
0.00377215
0.00394419
0.00423438
0.00428496
0.00517564
0.00565352
0.00649401
0.00744067
0.00803883
0.00667826
0.00625803
0.00561247
0.00477759
0.00451077
0.00361135
0.00349519
0.00313942
0.0029482
0.00283469
0.00278337
0.00288518
0.00302189
0.00329598
0.00343185
0.00390138
0.00448977
0.00506353
0.00592596
0.00648441
0.00482161
0.00445758
0.00382886
0.00344859
0.00317327
0.0026087
0.00255201
0.00240084
0.00217981
0.00203226
0.00197143
0.00214019
0.00210961
0.00228114
0.00238148
0.00261361
0.00324309
0.00366996
0.00418677
0.00456623
0.0030815
0.00259543
0.00252316
0.00205348
0.00186841
0.00178403
0.00148927
0.00120449
0.00143755
0.00132283
0.00122457
0.00130544
0.00142344
0.00139201
0.00163634
0.00146527
0.00189842
0.00216331
0.00267881
0.00258374
0.00105646
0.00107166
0.000681853
0.000814592
0.000633896
0.000563339
0.000657086
0.000273798
0.000544312
0.000389545
0.000365107
0.000389203
0.000569575
0.000333934
0.000295863
0.000477038
0.000642103
0.000740695
0.000838024
0.00115579
0.0166995
0.015076
0.0134046
0.0119282
0.0105555
0.00956387
0.00892315
0.00829135
0.00777106
0.00768883
0.00744354
0.00765454
0.00791493
0.00833551
0.00901962
0.0100337
0.011279
0.0126777
0.0141956
0.0156875
0.0140373
0.0129616
0.0115561
0.0102174
0.00914135
0.00827269
0.00754008
0.00707051
0.00657484
0.00631769
0.00637891
0.00645715
0.00681268
0.00705928
0.00762789
0.00865619
0.00956259
0.0106047
0.0121061
0.0133372
0.0121841
0.0109515
0.00987039
0.00867279
0.00757563
0.00688591
0.00627562
0.00578094
0.00554239
0.00549304
0.00522847
0.00513684
0.00570162
0.00618791
0.00651689
0.00702299
0.00815879
0.00890515
0.0102992
0.0112062
0.010022
0.00879124
0.0078048
0.00694747
0.0061235
0.00545549
0.00514738
0.00475349
0.00449278
0.00428216
0.00413242
0.00452646
0.00466578
0.00496914
0.00518079
0.00581288
0.00656241
0.00758
0.00816938
0.00899353
0.00769515
0.00693599
0.00617634
0.00552305
0.00483051
0.00435172
0.00402369
0.00352924
0.00328128
0.00302082
0.00337183
0.00308425
0.00348817
0.00372088
0.00420015
0.00460313
0.00506019
0.00566655
0.00638324
0.00726678
0.00562256
0.00491969
0.00445332
0.00383164
0.00335205
0.00311688
0.00273531
0.00257706
0.00257883
0.00228976
0.0022106
0.00228941
0.00262555
0.00250976
0.00271908
0.00323942
0.00355652
0.00427213
0.00479489
0.00507426
0.00325231
0.00303218
0.00288896
0.00229642
0.00213808
0.00192032
0.00165847
0.00151221
0.00139973
0.00135497
0.001303
0.00161671
0.00155533
0.00166351
0.00186072
0.00185085
0.00236298
0.00257985
0.002683
0.00301248
0.00106475
0.000992299
0.000935791
0.000805294
0.000484897
0.000802348
0.000468051
0.000620767
0.000570548
0.000670725
0.000704757
0.000345688
0.000556113
0.000753667
0.00061831
0.000601116
0.000916643
0.000905057
0.000975597
0.0012621
0.0190759
0.0173066
0.015471
0.0138637
0.0124443
0.011202
0.0104321
0.00982775
0.00922962
0.00918825
0.00905346
0.00921508
0.00920368
0.00972114
0.0107162
0.0116324
0.0129008
0.014454
0.0162113
0.017572
0.0161136
0.0147305
0.0133803
0.0117401
0.0108716
0.00962646
0.00879396
0.00831052
0.00793923
0.00775505
0.00755335
0.00761825
0.00787932
0.00855974
0.00918246
0.0100882
0.0110915
0.0125317
0.0138377
0.0152773
0.0136537
0.012538
0.0112094
0.0100687
0.00886311
0.0078537
0.00762984
0.00710941
0.00650369
0.00657858
0.0064409
0.00641743
0.00661199
0.00718504
0.00776188
0.00842609
0.00935232
0.0102763
0.0117609
0.0127708
0.0111831
0.00997196
0.00915477
0.0082565
0.00732855
0.00674995
0.00604925
0.00591574
0.00532456
0.00523748
0.0050221
0.00514986
0.00539654
0.00582568
0.00617006
0.00672815
0.00746933
0.00839863
0.00951036
0.0103801
0.00862483
0.00775931
0.00722686
0.00632175
0.00561709
0.00505448
0.00466855
0.00453549
0.00405589
0.00424558
0.00391476
0.00406427
0.00423369
0.00445836
0.00500229
0.00540193
0.00600461
0.00689346
0.0074482
0.00822845
0.00620096
0.00589184
0.00514803
0.00474928
0.00406189
0.00363069
0.0032761
0.00328254
0.00332454
0.00289443
0.00286714
0.00280641
0.00293602
0.00315789
0.00354713
0.00379772
0.00416825
0.00482994
0.00534079
0.0057405
0.00362353
0.00345801
0.002928
0.00277994
0.00254641
0.00236843
0.00211075
0.00193341
0.00171917
0.0017845
0.0018356
0.0018758
0.0017878
0.00185282
0.00200801
0.00247317
0.00261503
0.00285721
0.00322337
0.0036209
0.00134743
0.0013768
0.00132154
0.00088365
0.000789194
0.000721585
0.000691902
0.00075352
0.000662407
0.000660582
0.000379925
0.00078179
0.000603183
0.000527139
0.000814706
0.000948356
0.00113811
0.000943389
0.00116461
0.00127143
0.0216464
0.0197911
0.0179601
0.0162843
0.0145435
0.0136144
0.012613
0.0119434
0.0115137
0.0110375
0.0109109
0.0112591
0.0113665
0.0121408
0.0128764
0.0138933
0.0153489
0.0167796
0.0186285
0.020194
0.0181746
0.0168835
0.0154214
0.0140886
0.0126276
0.0116827
0.0108477
0.00996918
0.00976444
0.00960843
0.00944549
0.00952014
0.0097924
0.0104051
0.0109389
0.0117908
0.0133742
0.0143989
0.0160733
0.0172366
0.0156265
0.0144691
0.0131063
0.0115483
0.0105425
0.00989723
0.00905874
0.0084253
0.0081099
0.00788278
0.00796066
0.00812334
0.0082565
0.00860622
0.00943439
0.0100652
0.0112914
0.0122769
0.0133722
0.0147609
0.0128186
0.0118088
0.0105035
0.00962115
0.00874634
0.00802872
0.00762121
0.00690426
0.00682998
0.00629973
0.00629052
0.00655782
0.00681523
0.00705524
0.00756021
0.00835085
0.00899826
0.00985382
0.010986
0.0120179
0.00996459
0.00912751
0.00828889
0.00748986
0.00680414
0.00601764
0.00552387
0.00534469
0.00515162
0.00496587
0.00492036
0.00502661
0.00510319
0.00557528
0.00562361
0.00643497
0.00708442
0.00772999
0.00875725
0.00923916
0.00752451
0.00655332
0.0060731
0.00538967
0.00486845
0.00446571
0.00410726
0.00410924
0.00358497
0.00354245
0.00360195
0.00386972
0.00368757
0.00388714
0.00428985
0.00454398
0.0052156
0.00578386
0.00633445
0.00670734
0.00465058
0.00421639
0.00354874
0.00331379
0.00307593
0.00294731
0.00269046
0.00224496
0.00239176
0.00192586
0.00220882
0.0021069
0.00214465
0.00250955
0.00251705
0.00297181
0.00318322
0.00352002
0.00354388
0.00394952
0.001386
0.00152646
0.00114113
0.00127521
0.00105465
0.00078902
0.000984967
0.000786674
0.000799399
0.00078869
0.000875154
0.000729506
0.00074241
0.00079098
0.0010605
0.00108897
0.000988536
0.00115473
0.00133843
0.00149488
0.0245727
0.0229425
0.0208912
0.0192939
0.0175669
0.0163371
0.0154317
0.0144721
0.0139808
0.0134887
0.0133399
0.0137505
0.0141785
0.0147969
0.0157065
0.016635
0.0181111
0.0196915
0.0215457
0.0233614
0.0213347
0.0197761
0.0182434
0.0166132
0.0151833
0.0140834
0.013097
0.0125161
0.0116974
0.0117694
0.0117927
0.0118518
0.012198
0.0125811
0.0137122
0.0144366
0.0156031
0.0170129
0.0184534
0.0198953
0.0180661
0.016648
0.0152075
0.0140507
0.0128612
0.0119555
0.0110626
0.0105711
0.00999171
0.00999168
0.00978638
0.00975277
0.0101528
0.0105925
0.0113751
0.0121485
0.0130657
0.014349
0.0158419
0.0168388
0.0145408
0.0137918
0.012389
0.0115598
0.0105556
0.00955475
0.00927422
0.00859009
0.00821216
0.0080837
0.00816368
0.00785435
0.00830614
0.00878452
0.00936473
0.00973452
0.0109294
0.0117045
0.0128875
0.0138594
0.0115398
0.0105653
0.00970541
0.00903791
0.00816578
0.00743047
0.00699003
0.00669035
0.00624443
0.00615531
0.00625908
0.0063275
0.00635902
0.00661334
0.00721597
0.00763987
0.00853874
0.00933156
0.0100577
0.0108203
0.00827673
0.00766399
0.00700412
0.00655041
0.00593573
0.0054536
0.00512051
0.00485822
0.00468945
0.00447509
0.00445898
0.00439931
0.00483261
0.00494225
0.00511256
0.00562063
0.00652492
0.00656092
0.00732449
0.00777486
0.00482046
0.00462942
0.00416114
0.003928
0.00358407
0.00343015
0.00307394
0.00281968
0.00274119
0.00290667
0.00266506
0.00267625
0.00271163
0.00287766
0.00309139
0.00313779
0.00336284
0.0041156
0.00437519
0.00469422
0.00177546
0.00155418
0.00145573
0.00150939
0.00111679
0.00118945
0.000595891
0.000882149
0.00104957
0.000914453
0.000796381
0.00106474
0.000946725
0.0010149
0.00115208
0.00103997
0.00121043
0.00144878
0.0015583
0.00146152
0.0282244
0.026375
0.0244242
0.0225271
0.0211048
0.0197108
0.0186484
0.0175728
0.0171612
0.0168964
0.0166354
0.0168949
0.0172069
0.0181464
0.0187739
0.020052
0.0215133
0.0231215
0.0248904
0.0267608
0.0243276
0.0227418
0.0209937
0.0194078
0.017988
0.0168439
0.0160481
0.0153337
0.0144985
0.0143724
0.0144966
0.0144228
0.0149319
0.015409
0.016278
0.0172301
0.0184813
0.0198561
0.0213765
0.0229854
0.0208612
0.0194076
0.0178034
0.016443
0.0151818
0.0141936
0.0132879
0.0128279
0.0123712
0.0122202
0.011955
0.0120907
0.0125309
0.0131256
0.0135535
0.0146895
0.015582
0.0167727
0.0179594
0.0195883
0.0167996
0.0158492
0.0149136
0.0132907
0.0125802
0.0115208
0.010885
0.0107451
0.0102125
0.00973234
0.00983712
0.0099114
0.0101919
0.0106501
0.0112169
0.0119331
0.0128965
0.0137019
0.0151325
0.0159327
0.0132331
0.0123637
0.0114757
0.01063
0.00998991
0.00913849
0.00846927
0.00831386
0.00791751
0.0076777
0.00768245
0.0076284
0.00790384
0.00846245
0.00876762
0.00929135
0.00966544
0.0107483
0.0116192
0.0124815
0.00964995
0.00902709
0.00831879
0.00761654
0.00698214
0.00653888
0.0062368
0.00586144
0.00568271
0.00555408
0.00549456
0.00545592
0.00575538
0.0061547
0.00628432
0.00676228
0.00718964
0.00771489
0.0087287
0.00932489
0.00557076
0.00541099
0.00522576
0.00473684
0.00447619
0.00392676
0.00384509
0.00340484
0.00319518
0.00335752
0.0035106
0.00335911
0.00351179
0.00380402
0.00369965
0.00420289
0.00438174
0.00455781
0.00530236
0.0055308
0.00190968
0.00197146
0.00166482
0.00141308
0.00139534
0.00138133
0.00125385
0.00131256
0.00130572
0.00123919
0.00121096
0.00098086
0.00135872
0.00119803
0.00150929
0.00138782
0.00145334
0.00157394
0.001704
0.00176317
0.0322394
0.030126
0.0283121
0.0263417
0.0246034
0.0233063
0.022073
0.0213702