/*--------------------------------*- C++ -*----------------------------------*\
| =========                 |                                                 |
| \\      /  F ield         | OpenFOAM: The Open Source CFD Toolbox           |
|  \\    /   O peration     | Version:  2212                                  |
|   \\  /    A nd           | Website:  www.openfoam.com                      |
|    \\/     M anipulation  |                                                 |
\*---------------------------------------------------------------------------*/
FoamFile
{
    version     2.0;
    format      ascii;
    arch        "LSB;label=32;scalar=64";
    class       volScalarField;
    location    "0";
    object      stateMean;
}
// * * * * * * * * * * * * * * * * * * * * * * * * * * * * * * * * * * * * * //

dimensions      [0 0 0 1 0 0 0];

internalField   nonuniform List<scalar> 
3200
(
320.044
320.389
320.711
321.035
321.294
321.547
321.69
321.843
321.937
321.899
321.92
321.821
321.807
321.628
321.497
321.232
320.901
320.576
320.223
319.94
317.321
317.628
317.937
318.273
318.411
318.582
318.737
318.862
318.934
318.999
318.939
318.874
318.761
318.685
318.535
318.352
318.071
317.764
317.496
317.236
314.682
314.914
315.159
315.39
315.52
315.609
315.85
315.921
315.989
316.039
315.955
315.965
315.864
315.793
315.694
315.454
315.241
315.086
314.807
314.467
311.933
312.191
312.344
312.463
312.69
312.841
312.977
312.98
313.066
313.01
313.122
313.048
312.996
312.806
312.76
312.654
312.483
312.283
312.088
311.954
309.341
309.431
309.56
309.741
309.889
309.97
310.002
310.11
310.108
310.113
310.159
310.16
310.095
310.067
309.915
309.796
309.676
309.577
309.368
309.266
306.641
306.747
306.912
306.93
307.002
307.133
307.208
307.153
307.235
307.268
307.199
307.162
307.212
307.11
307.077
307.081
306.929
306.822
306.708
306.544
304.043
304.013
304.067
304.19
304.142
304.234
304.25
304.343
304.316
304.37
304.287
304.299
304.287
304.229
304.228
304.168
304.076
304.172
304
303.945
301.332
301.432
301.388
301.429
301.395
301.38
301.452
301.439
301.442
301.475
301.424
301.478
301.497
301.369
301.467
301.484
301.373
301.411
301.291
301.321
320.797
321.201
321.588
321.858
322.141
322.398
322.492
322.691
322.717
322.806
322.818
322.695
322.652
322.45
322.337
322.08
321.733
321.421
321.051
320.67
317.942
318.255
318.554
318.813
319.146
319.345
319.444
319.496
319.646
319.605
319.74
319.653
319.576
319.304
319.294
318.975
318.752
318.474
318.166
317.835
315.181
315.376
315.678
315.816
316.069
316.336
316.4
316.488
316.524
316.566
316.585
316.533
316.435
316.344
316.23
316.016
315.784
315.601
315.306
315.045
312.285
312.571
312.744
312.956
313.106
313.284
313.394
313.434
313.42
313.502
313.529
313.449
313.466
313.345
313.185
313.069
312.893
312.672
312.494
312.27
309.578
309.694
309.927
310.078
310.192
310.29
310.366
310.396
310.547
310.514
310.51
310.47
310.413
310.3
310.201
310.114
309.972
309.81
309.655
309.536
306.911
306.903
307.035
307.177
307.279
307.34
307.414
307.481
307.446
307.463
307.41
307.44
307.423
307.361
307.332
307.256
307.162
306.983
306.869
306.787
304.064
304.173
304.282
304.314
304.326
304.374
304.438
304.478
304.567
304.404
304.47
304.443
304.418
304.419
304.295
304.307
304.309
304.245
304.161
304.07
301.342
301.417
301.458
301.455
301.399
301.469
301.542
301.527
301.49
301.535
301.448
301.492
301.524
301.528
301.423
301.454
301.343
301.386
301.409
301.331
321.735
322.198
322.565
322.936
323.235
323.451
323.664
323.816
323.962
323.903
323.889
323.891
323.803
323.617
323.435
323.08
322.737
322.404
322.099
321.704
318.771
319.094
319.419
319.788
320.048
320.154
320.366
320.552
320.563
320.604
320.625
320.55
320.473
320.38
320.17
319.993
319.723
319.406
318.981
318.758
315.832
316.056
316.401
316.653
316.857
317.003
317.174
317.309
317.296
317.39
317.412
317.353
317.223
317.145
317
316.801
316.561
316.286
316.011
315.782
312.912
313.13
313.407
313.571
313.714
313.882
313.977
314.085
314.114
314.175
314.168
314.113
314.052
313.975
313.823
313.658
313.5
313.247
313.072
312.868
310.03
310.241
310.306
310.507
310.627
310.795
310.833
310.944
310.934
311.013
310.936
310.985
310.815
310.882
310.735
310.674
310.482
310.292
310.183
310.004
307.118
307.302
307.383
307.51
307.647
307.716
307.79
307.809
307.793
307.778
307.827
307.82
307.826
307.716
307.661
307.588
307.465
307.417
307.233
307.031
304.289
304.395
304.361
304.493
304.581
304.572
304.556
304.626
304.725
304.664
304.687
304.699
304.687
304.689
304.567
304.527
304.445
304.418
304.283
304.259
301.493
301.492
301.537
301.47
301.485
301.56
301.614
301.552
301.555
301.522
301.604
301.57
301.593
301.524
301.544
301.523
301.534
301.459
301.424
301.417
322.833
323.236
323.669
324.014
324.424
324.626
324.86
325.015
325.139
325.216
325.179
325.075
325.083
324.877
324.602
324.338
323.993
323.618
323.182
322.829
319.772
320.049
320.399
320.792
320.985
321.296
321.505
321.627
321.66
321.705
321.796
321.634
321.536
321.467
321.222
320.976
320.701
320.399
319.991
319.752
316.594
316.938
317.166
317.453
317.676
317.889
318.071
318.17
318.258
318.332
318.235
318.248
318.186
317.981
317.869
317.723
317.457
317.164
316.807
316.619
313.592
313.815
313.992
314.228
314.469
314.635
314.692
314.811
314.883
314.949
314.864
314.868
314.824
314.682
314.561
314.464
314.207
313.975
313.732
313.48
310.494
310.685
310.866
311.09
311.129
311.257
311.46
311.517
311.552
311.549
311.505
311.55
311.459
311.386
311.333
311.182
310.986
310.86
310.659
310.503
307.477
307.585
307.804
307.887
308.06
308.049
308.092
308.196
308.215
308.232
308.189
308.239
308.094
308.138
308.018
307.928
307.884
307.765
307.512
307.472
304.539
304.568
304.661
304.773
304.768
304.805
304.916
304.957
304.902
304.941
304.914
304.922
304.956
304.845
304.827
304.773
304.657
304.667
304.616
304.449
301.544
301.498
301.621
301.587
301.623
301.579
301.624
301.61
301.731
301.659
301.649
301.615
301.668
301.664
301.623
301.627
301.537
301.574
301.544
301.469
323.9
324.41
324.851
325.234
325.628
325.885
326.099
326.29
326.336
326.525
326.449
326.449
326.302
326.127
325.898
325.622
325.241
324.876
324.337
323.962
320.734
321.066
321.419
321.749
322.141
322.299
322.572
322.703
322.844
322.887
322.848
322.836
322.654
322.538
322.412
322.064
321.772
321.363
320.986
320.67
317.442
317.755
318.101
318.276
318.608
318.823
318.914
319.098
319.175
319.284
319.178
319.259
319.078
318.975
318.814
318.498
318.273
317.953
317.704
317.453
314.129
314.491
314.782
314.962
315.086
315.316
315.487
315.534
315.648
315.652
315.649
315.608
315.495
315.441
315.329
315.153
314.869
314.674
314.417
314.145
311.019
311.226
311.389
311.697
311.742
311.852
311.995
311.991
312.08
312.162
312.164
312.157
312.135
312.068
311.91
311.7
311.578
311.385
311.13
311.029
307.872
307.963
308.152
308.174
308.345
308.533
308.543
308.574
308.635
308.688
308.647
308.621
308.622
308.5
308.484
308.395
308.259
308.106
307.992
307.95
304.73
304.864
304.88
304.97
305.045
305.056
305.138
305.195
305.217
305.266
305.16
305.124
305.206
305.112
305.058
305.039
304.929
304.852
304.777
304.687
301.59
301.558
301.674
301.63
301.689
301.717
301.687
301.714
301.762
301.718
301.769
301.715
301.677
301.68
301.685
301.633
301.62
301.672
301.575
301.562
325.071
325.517
326.045
326.564
326.788
327.124
327.442
327.515
327.736
327.851
327.796
327.706
327.623
327.298
327.163
326.844
326.462
326.05
325.486
325.082
321.696
322.022
322.501
322.817
323.116
323.372
323.539
323.787
323.941
323.928
323.993
323.89
323.8
323.629
323.425
323.192
322.794
322.514
321.994
321.681
318.239
318.564
318.907
319.187
319.49
319.804
319.967
320.023
320.109
320.192
320.218
320.112
320.089
319.928
319.706
319.432
319.213
318.906
318.598
318.191
314.9
315.129
315.43
315.635
315.942
316.061
316.214
316.282
316.416
316.421
316.469
316.343
316.321
316.181
316.017
315.963
315.708
315.465
315.03
314.861
311.543
311.75
311.952
312.114
312.278
312.446
312.53
312.638
312.674
312.754
312.741
312.725
312.689
312.614
312.463
312.281
312.135
311.891
311.701
311.565
308.252
308.333
308.513
308.644
308.754
308.884
308.996
309.065
309.046
309.107
309.032
309.072
309.041
309.048
308.908
308.758
308.603
308.603
308.362
308.206
304.94
304.994
305.095
305.174
305.274
305.385
305.332
305.477
305.492
305.353
305.397
305.459
305.38
305.339
305.278
305.279
305.273
305.119
304.994
304.97
301.669
301.696
301.752
301.785
301.759
301.75
301.844
301.784
301.83
301.837
301.785
301.791
301.873
301.814
301.766
301.764
301.761
301.722
301.68
301.666
326.151
326.758
327.221
327.563
328.025
328.377
328.696
328.883
329.045
329.005
329.105
329.026
328.872
328.707
328.453
328.082
327.662
327.227
326.737
326.199
322.665
323.025
323.461
323.815
324.124
324.491
324.763
324.793
325.001
325.063
325.004
324.988
324.932
324.684
324.486
324.191
323.979
323.44
322.999
322.63
319.064
319.386
319.723
320.142
320.372
320.538
320.782
320.891
321.041
321.127
321.191
321.074
321.054
320.768
320.664
320.368
320.097
319.783
319.468
319.08
315.534
315.807
316.093
316.421
316.66
316.824
316.952
317.072
317.112
317.246
317.297
317.156
317.091
316.923
316.837
316.574
316.374
316.13
315.812
315.52
312.108
312.178
312.548
312.728
312.8
313.026
313.164
313.237
313.233
313.337
313.279
313.302
313.241
313.177
313.075
312.907
312.688
312.495
312.277
312.048
308.612
308.71
308.879
309.024
309.204
309.279
309.326
309.472
309.454
309.504
309.518
309.484
309.466
309.419
309.305
309.147
309.036
308.914
308.77
308.648
305.142
305.261
305.304
305.384
305.55
305.577
305.71
305.675
305.634
305.696
305.687
305.761
305.617
305.624
305.584
305.604
305.491
305.369
305.191
305.125
301.692
301.796
301.787
301.801
301.832
301.836
301.947
301.877
301.912
301.908
301.897
301.967
301.877
301.883
301.917
301.811
301.793
301.799
301.827
301.747
327.251
327.717
328.345
328.762
329.254
329.602
329.884
330.131
330.29
330.331
330.353
330.25
330.072
329.937
329.624
329.249
328.88
328.417
327.895
327.324
323.503
323.997
324.46
324.841
325.227
325.481
325.801
325.997
326.149
326.115
326.164
326.079
325.964
325.844
325.575
325.271
324.913
324.547
324.031
323.565
319.915
320.161
320.608
320.935
321.249
321.488
321.711
321.795
322.02
322.107
322.067
321.98
321.827
321.691
321.46
321.278
320.949
320.613
320.23
319.963
316.173
316.412
316.785
317.051
317.272
317.512
317.692
317.876
317.971
317.925
317.986
317.968
317.865
317.762
317.524
317.325
317.11
316.796
316.55
316.257
312.554
312.692
312.994
313.209
313.375
313.562
313.656
313.887
313.845
313.922
313.93
313.896
313.842
313.732
313.694
313.453
313.214
313.071
312.826
312.578
308.989
309.113
309.237
309.383
309.554
309.649
309.843
309.822
309.9
309.974
309.918
309.906
309.874
309.804
309.756
309.563
309.449
309.348
309.115
308.991
305.37
305.492
305.607
305.577
305.75
305.847
305.832
305.956
305.917
305.914
305.936
305.961
305.914
305.825
305.823
305.741
305.615
305.589
305.431
305.3
301.739
301.806
301.908
301.876
301.898
301.942
301.984
301.973
301.99
301.999
301.971
301.949
301.955
301.927
302.006
301.88
301.874
301.833
301.844
301.829
328.357
328.805
329.373
329.95
330.419
330.709
331.03
331.214
331.531
331.487
331.541
331.491
331.252
331.149
330.811
330.494
329.989
329.511
328.929
328.464
324.402
324.857
325.399
325.804
326.28
326.536
326.808
327.006
327.113
327.201
327.243
327.151
327.068
326.927
326.559
326.266
325.872
325.483
325.036
324.558
320.623
320.904
321.307
321.778
322.1
322.367
322.602
322.753
322.866
322.913
322.888
322.882
322.762
322.643
322.402
322.163
321.784
321.471
321.101
320.692
316.77
317.114
317.451
317.706
318.009
318.235
318.337
318.611
318.627
318.662
318.677
318.655
318.588
318.401
318.238
318.005
317.819
317.483
317.197
316.875
313.006
313.269
313.558
313.799
313.999
314.112
314.285
314.326
314.442
314.567
314.535
314.488
314.399
314.228
314.205
313.937
313.775
313.577
313.31
313.105
309.25
309.47
309.622
309.835
310
310.121
310.121
310.258
310.284
310.348
310.354
310.334
310.285
310.172
310.111
309.966
309.856
309.744
309.554
309.377
305.63
305.637
305.807
305.874
306.044
306.025
306.047
306.131
306.15
306.184
306.141
306.162
306.141
306.09
306.02
306.053
305.883
305.841
305.697
305.614
301.847
301.921
301.873
301.918
301.984
302.046
302.001
302.052
302.062
302.079
302.089
302.079
302.023
302.069
302.064
302.047
301.982
301.984
301.896
301.855
329.339
329.8
330.487
330.957
331.478
331.898
332.201
332.518
332.611
332.741
332.796
332.652
332.595
332.301
332.012
331.638
331.121
330.641
330.044
329.47
325.297
325.778
326.311
326.752
327.173
327.457
327.841
327.939
328.118
328.168
328.291
328.208
328.065
327.885
327.6
327.252
326.862
326.423
325.9
325.438
321.323
321.68
322.208
322.605
322.911
323.16
323.39
323.503
323.672
323.753
323.811
323.734
323.702
323.451
323.247
322.941
322.679
322.321
321.878
321.496
317.373
317.714
318.011
318.424
318.656
318.914
319.177
319.248
319.316
319.392
319.328
319.399
319.231
319.071
318.986
318.78
318.505
318.128
317.885
317.596
313.557
313.771
313.981
314.263
314.455
314.704
314.85
314.942
315.022
315.033
315.091
314.951
314.967
314.885
314.687
314.496
314.374
313.951
313.793
313.602
309.627
309.69
310.022
310.134
310.305
310.458
310.531
310.591
310.691
310.72
310.713
310.731
310.664
310.627
310.497
310.274
310.219
310.041
309.865
309.741
305.711
305.889
305.989
306.113
306.172
306.153
306.327
306.473
306.434
306.443
306.419
306.454
306.359
306.308
306.313
306.224
306.088
306.053
305.884
305.852
301.937
302.002
302.057
301.996
302.079
302.091
302.183
302.143
302.154
302.24
302.18
302.167
302.175
302.207
302.162
302.057
302.028
302.004
301.999
301.94
330.318
330.869
331.509
332.021
332.558
332.983
333.344
333.633
333.764
333.855
333.897
333.763
333.678
333.405
333.146
332.756
332.307
331.672
331.012
330.504
326.168
326.615
327.14
327.686
328.105
328.423
328.77
328.969
329.099
329.23
329.277
329.218
328.992
328.845
328.509
328.258
327.902
327.323
326.849
326.388
322.053
322.426
322.897
323.342
323.656
324.006
324.237
324.413
324.535
324.603
324.672
324.609
324.422
324.291
324.103
323.767
323.486
323.054
322.644
322.207
317.934
318.352
318.699
318.994
319.306
319.553
319.759
319.909
320.07
320.111
320.109
320.071
319.948
319.822
319.643
319.423
319.178
318.807
318.489
318.099
314.031
314.231
314.45
314.721
314.942
315.099
315.329
315.429
315.505
315.631
315.594
315.584
315.452
315.296
315.21
315.013
314.885
314.539
314.315
314.031
309.946
310.128
310.298
310.519
310.709
310.782
310.951
310.99
311.055
311.063
311.067
311.096
311.039
310.989
310.831
310.738
310.584
310.412
310.19
310.049
306.027
306.111
306.152
306.327
306.425
306.527
306.539
306.597
306.624
306.621
306.653
306.644
306.623
306.5
306.43
306.444
306.343
306.258
306.092
306.087
301.979
301.998
302.072
302.103
302.187
302.172
302.19
302.144
302.221
302.212
302.212
302.21
302.203
302.212
302.219
302.135
302.139
302.118
302.076
302.055
331.17
331.817
332.402
333.089
333.633
333.984
334.372
334.658
334.851
334.982
334.95
334.901
334.769
334.573
334.216
333.707
333.35
332.677
332.109
331.493
326.974
327.454
327.998
328.588
329.019
329.381
329.682
329.874
330.098
330.074
330.142
330.056
329.959
329.837
329.49
329.167
328.728
328.191
327.678
327.249
322.722
323.127
323.547
324.069
324.475
324.72
325.003
325.191
325.374
325.444
325.445
325.402
325.275
325.123
324.852
324.598
324.172
323.792
323.321
322.936
318.502
318.862
319.223
319.557
319.874
320.191
320.427
320.54
320.679
320.756
320.757
320.696
320.601
320.452
320.368
320.006
319.772
319.42
319.038
318.788
314.446
314.625
314.889
315.217
315.364
315.708
315.797
315.953
316.044
316.096
316.113
316.064
315.99
315.86
315.765
315.557
315.308
315.063
314.73
314.507
310.296
310.441
310.68
310.844
310.975
311.193
311.249
311.327
311.418
311.475
311.494
311.43
311.418
311.333
311.264
311.15
310.908
310.729
310.525
310.375
306.127
306.296
306.343
306.515
306.599
306.65
306.763
306.869
306.81
306.853
306.883
306.851
306.802
306.793
306.695
306.723
306.563
306.454
306.27
306.28
302.05
302.051
302.178
302.147
302.21
302.24
302.219
302.341
302.264
302.313
302.321
302.311
302.252
302.317
302.321
302.258
302.199
302.16
302.122
302.02
332.053
332.697
333.38
334.004
334.591
335.04
335.359
335.655
335.889
335.947
336.03
335.929
335.782
335.557
335.224
334.767
334.223
333.626
332.995
332.394
327.775
328.215
328.785
329.338
329.802
330.192
330.523
330.752
330.968
331.079
331.059
331.007
330.838
330.683
330.406
329.964
329.556
329.102
328.499
328.008
323.303
323.774
324.215
324.698
325.148
325.458
325.733
325.956
326.077
326.115
326.202
326.21
325.982
325.762
325.579
325.329
324.867
324.531
323.987
323.623
318.992
319.443
319.832
320.183
320.522
320.807
320.967
321.144
321.264
321.35
321.398
321.253
321.172
321.025
320.896
320.622
320.307
319.905
319.643
319.323
314.777
315.06
315.356
315.622
315.9
316.105
316.256
316.452
316.559
316.656
316.544
316.621
316.465
316.352
316.154
315.972
315.769
315.518
315.236
314.913
310.512
310.762
310.946
311.182
311.373
311.485
311.638
311.716
311.735
311.835
311.86
311.825
311.7
311.709
311.609
311.408
311.268
311.003
310.801
310.683
306.354
306.44
306.508
306.715
306.789
306.879
306.979
307.041
307.088
307.107
307.123
307.021
307.028
306.977
306.897
306.877
306.695
306.603
306.547
306.428
302.141
302.169
302.194
302.241
302.346
302.258
302.366
302.326
302.345
302.317
302.307
302.413
302.346
302.28
302.314
302.311
302.208
302.203
302.174
302.081
332.791
333.48
334.212
334.871
335.465
335.991
336.343
336.623
336.879
336.92
336.965
336.884
336.835
336.585
336.156
335.741
335.198
334.557
333.852
333.301
328.414
328.951
329.496
330.143
330.529
331.035
331.393
331.619
331.789
331.873
331.941
331.896
331.763
331.471
331.184
330.791
330.36
329.78
329.249
328.694
323.941
324.37
324.886
325.345
325.822
326.231
326.372
326.597
326.834
326.83
326.875
326.863
326.761
326.518
326.261
325.966
325.58
325.193
324.626
324.231
319.53
319.972
320.302
320.66
321.027
321.277
321.558
321.646
321.869
321.913
321.983
321.926
321.814
321.63
321.464
321.221
320.915
320.546
320.121
319.79
315.191
315.505
315.725
316.066
316.342
316.57
316.735
316.813
316.99
316.943
317.048
316.987
316.909
316.802
316.586
316.41
316.167
315.831
315.604
315.317
310.836
310.961
311.229
311.393
311.645
311.815
311.957
311.98
311.984
312.128
312.136
312.147
312.088
311.994
311.841
311.728
311.575
311.329
311.133
310.981
306.544
306.611
306.796
306.865
306.959
307.035
307.132
307.202
307.279
307.264
307.248
307.231
307.247
307.212
307.146
306.982
306.915
306.818
306.683
306.545
302.157
302.153
302.178
302.318
302.354
302.382
302.397
302.383
302.415
302.416
302.501
302.378
302.428
302.446
302.353
302.306
302.241
302.293
302.218
302.18
333.575
334.289
335.014
335.689
336.384
336.794
337.218
337.513
337.706
337.893
337.936
337.793
337.71
337.38
337.046
336.606
336.008
335.417
334.686
334.07
329.154
329.657
330.233
330.769
331.347
331.745
332.097
332.449
332.559
332.632
332.687
332.641
332.509
332.246
331.995
331.628
331.009
330.576
329.928
329.468
324.495
324.934
325.457
326.047
326.453
326.735
327.072
327.33
327.468
327.56
327.535
327.463
327.385
327.221
326.888
326.61
326.131
325.73
325.296
324.78
319.982
320.356
320.838
321.187
321.532
321.821
322.003
322.275
322.327
322.514
322.517
322.416
322.304
322.187
321.973
321.66
321.389
321.049
320.623
320.242
315.525
315.829
316.142
316.445
316.711
317.007
317.202
317.291
317.375
317.445
317.459
317.414
317.368
317.186
317.132
316.829
316.574
316.32
315.947
315.756
310.965
311.296
311.48
311.729
311.926
312.083
312.223
312.245
312.425
312.446
312.428
312.336
312.377
312.292
312.138
312.028
311.783
311.57
311.364
311.221
306.555
306.703
306.929
307.022
307.116
307.175
307.27
307.421
307.385
307.534
307.446
307.473
307.452
307.326
307.308
307.148
307.062
306.938
306.91
306.771
302.254
302.218
302.341
302.307
302.381
302.468
302.414
302.479
302.478
302.482
302.456
302.499
302.492
302.473
302.386
302.37
302.394
302.336
302.275
302.222
334.339
334.973
335.769
336.41
337.093
337.6
337.984
338.372
338.582
338.773
338.824
338.661
338.473
338.201
337.816
337.413
336.815
336.18
335.452
334.755
329.614
330.202
330.797
331.428
331.99
332.433
332.83
333.077
333.389
333.384
333.376
333.337
333.185
333.004
332.558
332.241
331.768
331.212
330.648
330.098
324.97
325.492
326.036
326.488
326.949
327.311
327.662
327.868
328.091
328.106
328.174
328.17
328.007
327.817
327.504
327.185
326.814
326.32
325.759
325.376
320.466
320.753
321.264
321.591
321.972
322.349
322.485
322.744
322.891
322.946
322.92
323.008
322.836
322.645
322.411
322.239
321.796
321.487
321.047
320.688
315.833
316.178
316.495
316.752
317.075
317.349
317.525
317.649
317.81
317.849
317.816
317.783
317.754
317.645
317.418
317.243
316.912
316.615
316.34
316.063
311.308
311.524
311.762
311.936
312.16
312.339
312.469
312.571
312.638
312.712
312.717
312.729
312.579
312.525
312.446
312.259
311.944
311.901
311.631
311.465
306.85
306.923
307.085
307.176
307.301
307.365
307.49
307.58
307.613
307.566
307.641
307.633
307.614
307.55
307.47
307.438
307.35
307.099
307.001
306.889
302.253
302.325
302.361
302.352
302.477
302.461
302.646
302.563
302.515
302.557
302.593
302.511
302.543
302.519
302.472
302.5
302.442
302.363
302.324
302.348
334.939
335.646
336.401
337.141
337.714
338.27
338.703
339.126
339.305
339.416
339.506
339.397
339.252
338.876
338.594
338.077
337.491
336.85
336.157
335.443
330.198
330.793
331.457
332.069
332.621
333.075
333.401
333.689
334.004
334.063
334.021
334.03
333.825
333.618
333.266
332.878
332.382
331.842
331.255
330.652
325.384
325.917
326.511
327.026
327.506
327.891
328.241
328.432
328.612
328.676
328.764
328.705
328.531
328.295
328.104
327.67
327.312
326.853
326.398
325.807
320.824
321.174
321.529
322.11
322.393
322.784
323.031
323.109
323.305
323.474
323.44
323.404
323.29
323.108
322.883
322.604
322.239
321.925
321.408
321.107
316.139
316.448
316.772
317.083
317.327
317.636
317.881
317.956
318.1
318.186
318.185
318.193
318.088
317.883
317.754
317.551
317.392
317.005
316.686
316.38
311.482
311.699
311.949
312.2
312.427
312.593
312.709
312.845
312.914
312.961
312.98
312.985
312.879
312.735
312.673
312.496
312.334
312.139
311.792
311.584
306.981
307.044
307.118
307.286
307.383
307.568
307.607
307.754
307.826
307.78
307.733
307.776
307.721
307.619
307.639
307.467
307.395
307.324
307.077
306.994
302.336
302.321
302.42
302.501
302.512
302.522
302.565
302.55
302.555
302.577
302.585
302.654
302.536
302.582
302.483
302.515
302.489
302.447
302.402
302.38
335.449
336.245
336.949
337.71
338.388
338.906
339.392
339.683
339.947
340.093
340.198
340.064
339.898
339.595
339.236
338.725
338.131
337.462
336.704
336.086
330.674
331.287
331.897
332.579
333.033
333.617
333.994
334.229
334.488
334.627
334.648
334.57
334.526
334.186
333.891
333.32
332.958
332.415
331.76
331.132
325.827
326.315
326.895
327.483
327.871
328.272
328.633
328.882
329.037
329.159
329.213
329.128
329.077
328.757
328.527
328.102
327.836
327.267
326.737
326.242
321.086
321.52
321.949
322.373
322.781
323.104
323.367
323.568
323.674
323.829
323.804
323.736
323.654
323.544
323.249
323.095
322.63
322.262
321.846
321.433
316.358
316.707
316.989
317.356
317.613
317.954
318.137
318.268
318.428
318.502
318.508
318.457
318.395
318.267
318.062
317.799
317.525
317.246
316.907
316.615
311.658
311.905
312.097
312.349
312.675
312.78
312.927
313.061
313.184
313.152
313.134
313.137
313.114
312.995
312.857
312.666
312.55
312.315
311.934
311.895
306.975
307.135
307.351
307.465
307.53
307.64
307.719
307.761
307.878
307.92
307.929
307.842
307.925
307.793
307.756
307.698
307.549
307.347
307.22
307.087
302.383
302.425
302.463
302.497
302.475
302.604
302.61
302.616
302.578
302.612
302.649
302.607
302.668
302.666
302.59
302.551
302.489
302.434
302.464
302.449
335.825
336.636
337.401
338.173
338.892
339.407
339.818
340.308
340.492
340.64
340.695
340.564
340.405
340.201
339.754
339.256
338.62
338.016
337.215
336.492
330.985
331.633
332.288
332.963
333.485
333.994
334.422
334.706
335.009
335.123
335.129
334.98
334.865
334.654
334.351
333.837
333.431
332.761
332.066
331.575
326.146
326.658
327.255
327.778
328.312
328.716
328.967
329.319
329.442
329.528
329.558
329.496
329.428
329.243
328.897
328.483
328.164
327.626
327.091
326.504
321.257
321.795
322.253
322.626
323.033
323.405
323.646
323.962
324.076
324.062
324.127
324.061
324.036
323.749
323.614
323.316
322.913
322.471
322.076
321.639
316.574
316.922
317.283
317.556
317.945
318.161
318.359
318.456
318.703
318.76
318.734
318.753
318.51
318.475
318.264
318.02
317.827
317.418
317.07
316.829
311.795
311.955
312.314
312.476
312.754
312.902
313.066
313.168
313.356
313.402
313.35
313.325
313.318
313.184
313.075
312.87
312.663
312.456
312.219
312.026
307.076
307.228
307.452
307.513
307.676
307.744
307.844
307.911
307.984
307.959
307.989
307.993
307.961
307.899
307.804
307.724
307.575
307.498
307.268
307.22
302.35
302.403
302.413
302.55
302.567
302.563
302.642
302.654
302.632
302.701
302.59
302.637
302.632
302.644
302.573
302.629
302.553
302.507
302.442
302.396
336.115
336.917
337.662
338.435
339.114
339.71
340.206
340.621
340.87
341.008
341.087
340.968
340.721
340.461
340.079
339.617
339.014
338.281
337.507
336.777
331.182
331.852
332.51
333.224
333.745
334.346
334.685
335.025
335.219
335.375
335.365
335.388
335.153
334.978
334.589
334.131
333.632
333.018
332.347
331.774
326.304
326.859
327.51
328.028
328.447
328.836
329.197
329.431
329.687
329.793
329.787
329.81
329.646
329.382
329.164
328.758
328.366
327.859
327.317
326.736
321.526
321.974
322.311
322.788
323.243
323.55
323.77
324.076
324.184
324.38
324.291
324.238
324.161
323.951
323.801
323.376
323.114
322.712
322.252
321.902
316.664
317
317.328
317.733
318.049
318.26
318.474
318.675
318.803
318.846
318.846
318.881
318.766
318.671
318.463
318.184
317.983
317.642
317.307
316.966
311.879
312.126
312.383
312.631
312.85
313.053
313.189
313.306
313.337
313.414
313.472
313.42
313.381
313.263
313.178
312.985
312.781
312.516
312.302
312.114
307.128
307.306
307.452
307.544
307.705
307.883
307.923
308.017
307.983
307.999
308.053
307.994
308.045
307.951
307.927
307.805
307.689
307.523
307.427
307.22
302.396
302.389
302.514
302.49
302.608
302.671
302.652
302.694
302.639
302.716
302.714
302.689
302.64
302.707
302.66
302.607
302.558
302.558
302.463
302.4
)
;

boundaryField
{
    hotSide
    {
        type            fixedGradient;
        gradient        nonuniform List<scalar> 
400
(
321.511
322.87
325.591
329.677
335.133
341.965
350.181
359.788
370.794
383.208
397.037
412.289
428.971
447.088
466.647
487.651
510.105
534.011
559.372
586.191
323.738
325.08
327.767
331.802
337.194
343.949
352.078
361.591
372.498
384.81
398.537
413.687
430.268
448.289
467.755
488.672
511.043
534.872
560.161
586.913
326.149
327.47
330.116
334.091
339.406
346.071
354.099
363.503
374.296
386.491
400.101
415.136
431.606
449.52
468.885
489.706
511.988
535.735
560.948
587.63
328.704
330
332.597
336.503
341.73
348.292
356.205
365.485
376.15
388.215
401.695
416.604
432.954
450.753
470.009
490.73
512.919
536.579
561.714
588.325
331.33
332.599
335.142
338.97
344.099
350.546
358.332
367.477
378.003
389.928
403.271
418.047
434.27
451.949
471.095
491.712
513.807
537.382
562.439
588.978
333.918
335.158
337.643
341.389
346.414
352.74
360.392
369.397
379.779
391.562
404.765
419.407
435.503
453.065
472.101
492.618
514.622
538.114
563.096
589.569
336.321
337.531
339.959
343.622
348.544
354.751
362.274
371.142
381.385
393.031
406.101
420.618
436.595
454.047
472.983
493.409
515.33
538.747
563.663
590.076
338.36
339.543
341.92
345.509
350.339
356.44
363.847
372.595
382.718
394.244
407.2
421.608
437.485
454.844
473.695
494.045
515.897
539.253
564.114
590.478
339.852
341.015
343.352
346.885
351.645
357.665
364.985
373.643
383.675
395.113
407.984
422.312
438.116
455.407
474.197
494.491
516.294
539.606
564.428
590.758
340.643
341.795
344.11
347.613
352.334
358.311
365.584
374.193
384.176
395.567
408.393
422.679
438.443
455.699
474.456
494.722
516.498
539.788
564.589
590.901
340.643
341.795
344.11
347.613
352.334
358.311
365.584
374.193
384.176
395.567
408.393
422.679
438.443
455.699
474.456
494.722
516.498
539.788
564.589
590.901
339.852
341.015
343.352
346.885
351.645
357.665
364.985
373.643
383.675
395.113
407.984
422.312
438.116
455.407
474.197
494.491
516.294
539.606
564.428
590.758
338.36
339.543
341.92
345.509
350.339
356.44
363.847
372.595
382.718
394.244
407.2
421.608
437.485
454.844
473.695
494.045
515.897
539.253
564.114
590.478
336.321
337.531
339.959
343.622
348.544
354.751
362.274
371.142
381.385
393.031
406.101
420.618
436.595
454.047
472.983
493.409
515.33
538.747
563.663
590.076
333.918
335.158
337.643
341.389
346.414
352.74
360.392
369.397
379.779
391.562
404.765
419.407
435.503
453.065
472.101
492.618
514.622
538.114
563.096
589.569
331.33
332.599
335.142
338.97
344.099
350.546
358.332
367.477
378.003
389.928
403.271
418.047
434.27
451.949
471.095
491.712
513.807
537.382
562.439
588.978
328.704
330
332.597
336.503
341.73
348.292
356.205
365.485
376.15
388.215
401.695
416.604
432.954
450.753
470.009
490.73
512.919
536.579
561.714
588.325
326.149
327.47
330.116
334.091
339.406
346.071
354.099
363.503
374.296
386.491
400.101
415.136
431.606
449.52
468.885
489.706
511.988
535.735
560.948
587.63
323.738
325.08
327.767
331.802
337.194
343.949
352.078
361.591
372.498
384.81
398.537
413.687
430.268
448.289
467.755
488.672
511.043
534.872
560.161
586.913
321.511
322.87
325.591
329.677
335.133
341.965
350.181
359.788
370.794
383.208
397.037
412.289
428.971
447.088
466.647
487.651
510.105
534.011
559.372
586.191
)
;
    }
    coldSide
    {
        type            mixed;
        refValue        uniform 300;
        refGradient     uniform 0;
        valueFraction   uniform 0.991591;
        source          uniform 0;
        value           nonuniform List<scalar> 
400
(
300.011
300.011
300.013
300.013
300.013
300.014
300.014
300.015
300.016
300.016
300.017
300.017
300.018
300.018
300.019
300.019
300.02
300.02
300.02
300.02
300.012
300.012
300.013
300.013
300.013
300.014
300.015
300.015
300.016
300.017
300.017
300.017
300.018
300.018
300.019
300.02
300.02