/*--------------------------------*- C++ -*----------------------------------*\
| =========                 |                                                 |
| \\      /  F ield         | OpenFOAM: The Open Source CFD Toolbox           |
|  \\    /   O peration     | Version:  2212                                  |
|   \\  /    A nd           | Website:  www.openfoam.com                      |
|    \\/     M anipulation  |                                                 |
\*---------------------------------------------------------------------------*/
FoamFile
{
    version     2.0;
    format      ascii;
    arch        "LSB;label=32;scalar=64";
    class       volScalarField;
    location    "0";
    object      relativeErrorField;
}
// * * * * * * * * * * * * * * * * * * * * * * * * * * * * * * * * * * * * * //

dimensions      [0 0 0 1 0 0 0];

internalField   nonuniform List<scalar> 
3200
(
0.0010463
0.0105088
0.00833419
0.00810246
0.0116028
0.00874269
0.00279508
0.00692294
0.0029751
0.00337972
0.00186717
0.00244963
0.00812638
0.01145
0.00836097
0.00785317
0.00668942
0.0051314
0.00148614
0.00446898
0.00385507
0.000526924
0.00499937
0.00551044
0.00898513
0.00571632
0.00687721
0.00946986
0.0124407
0.00399112
0.00703379
0.00282683
0.00215286
0.0146996
0.00650693
0.0134895
0.00356035
0.00968919
0.00368131
0.00197691
0.00424839
0.000953622
0.00363487
0.00962915
0.00389876
0.0114318
0.0102396
0.000927619
0.00170594
0.00506307
0.00321757
0.0101714
0.0036463
0.00847255
0.00685199
0.00859512
0.00376146
0.00793971
0.0011999
0.000494992
0.00171766
0.00126803
0.00364295
0.0045721
0.00574551
0.00658117
0.00759004
0.00530728
0.00495687
0.00562717
0.00210733
3.70557e-06
0.00338847
0.0023824
0.00366849
0.0073702
0.00393486
0.00435797
0.000200534
0.00025692
0.000741663
0.0033526
0.000361678
0.00326324
2.95219e-05
0.00552798
0.00528184
0.00629812
0.00150693
0.00526681
0.0037063
0.00675286
0.00219771
0.00046122
0.0071182
0.00470512
0.00902865
0.00505793
0.00226955
0.00274043
0.000494323
0.000345107
0.00230675
0.00477248
0.00758606
0.00401208
0.00336437
0.00147935
0.00152706
0.000768715
0.00517502
0.00556945
0.00275555
0.0057207
0.00162723
0.00036565
0.00117286
0.0012336
0.000305411
0.00401956
0.00200447
5.66164e-05
0.00284951
0.00744585
0.00100864
0.00456951
0.00143605
0.00152943
0.00110033
0.000507903
0.00242889
0.00426296
0.00141935
0.00139426
0.00256704
0.0074997
0.00242803
0.00129785
0.000762097
0.0095059
0.00128076
0.00281298
0.0006644
0.000363589
0.00276078
0.000328088
0.00170058
0.00452083
0.0018013
0.000420274
2.56151e-05
0.00607527
0.00409291
0.00518903
0.00142036
0.000327791
0.00222723
0.00617085
0.0016829
0.00698714
0.00174073
0.00249802
0.0064723
0.0128833
0.0072488
0.00912562
0.00926023
0.00865792
0.0106141
0.00290646
0.00252015
0.00623834
0.00352437
0.00853663
0.01031
0.00902249
0.00449334
0.00198673
0.00402286
0.00207913
0.00281938
0.000624944
0.00389693
0.00118772
0.00552368
0.00111095
0.00695297
0.000308655
0.00866574
0.000945462
0.000403524
0.00532312
0.000831416
0.00775837
0.00154414
0.0122974
0.00137398
0.00563849
0.000534409
0.00135402
0.00278986
0.000894292
0.00758909
0.00822485
0.00528943
0.00857713
0.00564607
0.00382487
0.00339742
0.00288405
0.00636971
0.00382024
0.0025477
0.00346713
0.00479258
0.00544127
0.00291392
0.00475262
0.00102286
0.00107564
0.00774857
0.00172966
0.00328392
0.00601168
0.00616017
1.26394e-05
0.00580055
0.00659448
0.0119191
0.00370965
0.0037283
0.00257867
0.00588774
0.000817184
0.00403574
0.00671921
0.00950776
0.0128208
0.000427182
0.00393384
0.00547927
0.00168424
0.00665018
6.87039e-06
0.00322782
0.00437411
0.00558687
0.000684326
0.00163309
0.00528059
0.00358771
0.00322002
0.00145201
3.58145e-05
0.00327525
0.00672734
0.00217254
0.00349328
0.00313256
0.00320526
0.00253687
0.000362225
0.00165574
0.00390042
0.00285843
0.000949683
0.00538376
0.00664304
0.00556953
0.00430179
0.000173795
0.00345553
0.00348129
0.00306871
0.00135396
0.00941121
0.00381001
0.00231432
0.00343792
0.00122854
0.00141768
0.000785513
0.000447886
0.00185488
0.000563912
0.00117666
0.00464027
0.00378489
0.000352868
0.00112289
0.00113218
0.00453255
0.00373566
0.000492825
0.003118
0.00317734
0.003937
0.0048095
0.000860913
0.000840067
0.00516327
0.00677942
0.000589914
0.000909989
0.00149429
0.000123199
0.00241648
0.000148077
0.00448098
0.000306312
0.000915342
0.0010769
0.000131806
0.00131228
0.00140801
0.00199553
0.000606293
0.00456257
0.00232737
0.000926518
0.00049399
0.00516798
0.0107291
0.0092142
0.00939788
0.0120941
0.00305234
0.00592104
0.00458234
0.00153813
0.00515568
0.00368033
0.00263478
0.00492578
0.00947309
0.00653121
0.0129816
0.00804914
0.00312793
0.00303763
0.000880458
0.00211237
0.00466134
0.00970008
0.00761526
0.0104277
0.0126872
0.0104008
0.00126142
0.000416858
0.0038306
0.00917583
0.00161659
0.00743507
0.00310499
0.00224475
0.00764586
0.00782777
0.00015203
0.000635085
0.00118503
0.0061417
0.0092351
0.000591036
0.00406541
0.00797379
0.00884421
0.00613277
0.00554368
0.00246203
0.00556897
7.63031e-05
0.00786352
0.000956953
0.00747073
0.00493852
0.00767463
0.00201107
0.000578546
0.000526529
0.00519401
0.00302399
0.000866012
0.00353157
0.00341863
0.00397199
0.0075306
0.00249261
0.00270498
0.00148053
0.00104393
0.00363444
0.00644221
0.00255221
0.00343797
0.00332553
0.00552467
0.00425045
0.00314722
0.00262876
0.000598472
0.00040119
0.00205103
0.00215642
0.00099781
0.00135532
0.00115887
0.00586535
0.00238466
0.00423121
0.000489279
0.000757436
0.00774475
0.00169724
0.000176669
0.000737128
0.00555395
0.00316643
0.00625968
0.000576152
0.00488676
0.00474795
0.00279092
0.00219625
0.00430017
0.00239095
0.00243768
0.00227667
0.00279091
0.00250791
0.000667259
0.00307793
0.000439406
0.00392836
0.00019715
0.00043749
0.00299663
0.00406134
4.73416e-05
0.00131961
0.00160993
0.00175284
0.000586737
0.000167197
0.000176563
0.0018717
0.00111998
0.000129211
0.00246195
0.00210799
0.00194033
0.00200123
0.00138121
0.00201719
0.00302392
0.00314831
0.00615361
0.00162256
0.00162477
0.00279075
0.00470496
0.00245603
0.00200139
0.00159108
0.00313748
0.00451414
0.000896432
0.000194257
0.00158205
0.000515551
0.0064759
0.000418674
7.31212e-05
0.00233159
0.00186219
8.61853e-05
0.00116617
0.00118822
0.00270871
0.000786182
0.00203063
0.000386759
0.00667366
0.00882776
0.0103701
0.0111603
0.00687266
0.00769368
0.00862318
0.000629987
0.00280525
0.0027046
0.00814328
0.00199501
0.00772289
0.0107692
0.0033099
0.00250524
0.000751654
0.000795714
0.00124433
0.000700457
0.00141768
0.000430219
0.00619575
0.00155901
0.00806872
0.000373061
0.00321929
0.000571266
0.000679944
0.00152844
0.000139583
0.00294488
0.00131063
0.00496496
0.000404869
0.00667615
0.00231527
0.000783118
0.00508848
0.000398817
0.00324063
0.00385002
0.00587616
0.00716809
0.00211503
0.003277
0.00224552
0.00272821
0.00441539
0.00700119
0.00232328
0.00660877
0.000875419
0.0016103
0.00402331
0.000646909
0.000182362
0.00353896
0.00116695
0.00154015
0.00117021
0.00198022
0.00345844
0.00705648
0.00602815
0.00695842
0.00315503
0.000664059
0.000532203
0.00497803
0.0023052
0.00150729
0.000631554
0.00269834
0.00289706
0.000574423
0.00246737
0.000391569
0.00416066
0.0033775
0.00026592
0.00506674
0.00846786
0.00455589
0.00129307
0.00173687
0.00136799
0.00272839
0.000523602
0.00171548
0.000435796
0.00289037
0.00410257
0.00276219
0.00791947
0.00276388
0.00489494
0.000821851
0.00268644
0.00634682
0.000519073
0.00160519
0.000156869
0.000528012
0.00529475
0.00374578
0.000275307
0.0059461
0.0110161
0.0022479
0.000645312
0.00225555
0.000552932
0.00141834
0.00359721
0.000306271
0.00624585
0.000904439
0.00473126
0.000759443
0.00487098
0.00138781
0.00432476
0.00217982
0.000479647
0.00213889
0.000865521
0.000276193
0.00116776
0.000994593
0.00080023
2.29744e-05
0.00211806
0.00249637
0.00543377
0.00472754
0.00462669
0.00486498
0.000497373
0.00366821
0.00173264
0.000534478
0.00228744
0.0026985
0.000666049
0.00302317
0.000244534
0.00526284
0.00165281
0.00013523
0.000754772
0.000786334
0.0011282
0.00121527
0.00352747
0.000750589
0.000170192
0.00259489
0.0017539
0.00013257
0.004361
0.00850874
0.00543729
0.00489784
0.00223163
0.00656308
0.00194207
0.00146547
0.00224055
0.00367111
0.00405442
0.00116277
0.00344609
0.0049432
0.00362618
0.00468577
0.00193827
0.00100792
0.00146774
0.000874844
0.00693103
0.00532806
0.00796799
0.00392814
0.00402147
0.000155227
0.000611857
0.00257107
0.00126646
0.00472368
1.98137e-05
0.000757069
0.00246775
0.00358437
0.00441179
0.00479946
0.000830175
0.001503
0.000410083
0.0044409
0.00177549
0.0102274
0.00567071
0.00133688
0.0011655
0.00141134
0.00144832
0.00133976
0.00431608
0.00522763
0.00216466
0.00317223
0.00436175
0.00137092
0.000576783
0.00199049
2.72239e-05
0.00270677
0.0010875
0.000544141
0.00318003
0.00737854
0.000188389
0.00457851
0.00306306
0.00384777
0.00467232
0.00166274
0.00142283
0.000941507
0.000505943
0.00149409
0.00136199
0.000361787
0.0104553
0.00303391
0.00163248
0.00201049
0.000110894
0.00345026
0.00156218
0.000248744
0.000555747
0.000934651
0.0037812
0.00234556
0.00223115
0.000465264
0.00016257
0.00674148
0.00285949
0.00155006
0.00278307
0.00282382
0.00293755
0.00530151
0.00345169
0.0021743
0.00220508
0.00282443
0.00147979
0.00348008
0.00481567
0.0072351
4.45878e-05
0.00697006
0.00330736
0.00108558
0.00408347
0.00550727
0.00448741
0.0012538
0.00124435
0.00266191
0.00328864
0.00356215
0.000330949
0.00518889
0.00249167
0.000421458
1.47263e-06
0.00538064
0.00728848
0.00224832
0.000556216
0.00515998
0.00192805
3.64176e-05
0.00378757
0.0021512
0.00352055
0.00114211
0.00344558
0.00106608
0.000287011
0.00616034
0.000193886
0.00179086
0.00264488
0.00110831
0.00191592
0.00126405
0.00127757
0.00175766
0.00125495
0.000274682
0.000513553
0.000740476
0.0035297
0.000997256
0.00184232
0.00563671
0.00314781
0.00114284
0.00264742
0.000903841
0.00716516
0.00590619
0.00380137
0.00105687
0.0049898
0.00441651
0.00969415
0.000479775
0.00239025
0.00188019
0.000739151
0.000986168
0.00190773
0.00192887
0.00548301
0.00143179
0.00221634
0.000322901
0.00096322
0.00148511
0.00155812
0.00400651
0.00264091
0.000766835
0.001776
0.00158452
0.0042517
0.000180528
0.000204717
0.000674295
0.000872509
0.00133513
0.00201831
0.00368868
0.000637989
0.00586248
0.00125155
0.00476233
0.000152807
0.00188431
0.00202411
0.00174384
0.000249995
0.00134025
0.00425301
0.00242657
0.00269029
0.00461773
0.00200997
0.00133013
0.00132268
0.00113584
0.00341567
0.00145474
0.000345022
0.00133593
0.00432356
0.00194147
0.000297118
0.000966427
0.000313075
0.0076954
0.00143588
0.00176545
0.00138234
0.00172285
0.00244551
0.00565367
0.00015763
0.000911563
0.000570658
0.00689733
0.001257
0.00460906
0.00165408
0.00505425
0.00427297
0.00159639
0.00184567
0.000255108
6.9569e-05
0.00322023
0.0067945
0.000299106
0.00151398
0.00336532
0.00169658
0.000881064
0.00282785
0.000843066
0.00329729
0.00220099
0.00140794
0.00112366
0.000382271
0.00267574
0.00463615
0.00492262
0.00180012
0.00244412
0.00199296
0.00242569
0.00282369
0.0014052
0.00449974
0.00112499
0.00446741
4.76882e-06
0.00472664
0.000923869
0.00488668
0.00212243
0.000288799
0.00018303
0.00108862
0.00186438
0.00159401
0.000169452
0.0021468
0.00376624
0.000359313
0.00115187
6.32277e-05
0.00093086
0.000665011
0.00140621
0.00157083
0.00247114
0.00338165
0.00100721
0.00077075
0.000141249
0.0016306
0.00138587
0.00434462
0.00364899
0.00250097
0.00449853
0.00413381
0.000470263
0.00380439
0.00180799
0.00347328
0.000655841
0.000341188
0.00450838
4.29134e-05
0.00232538
0.000502662
0.000397065
0.00241894
0.00212805
0.00257727
0.000205332
0.00476698
0.00117658
0.00345458
0.00580626
0.00351073
0.00292156
0.00541576
0.00222615
0.00357237
0.000748762
0.000849759
0.00424264
0.00487378
0.000185551
0.00164744
0.00423035
0.000398247
0.00496497
0.00502265
0.00317925
0.00418332
0.00273885
0.00282542
0.00189679
0.00360928
0.00284938
0.00477154
0.00632804
0.00392958
0.00162734
0.00278211
0.00178924
0.000183481
0.00576729
0.00168582
0.000214398
0.00514338
0.00436956
0.00195594
0.00392127
0.00123582
0.00193076
0.0023632
0.00420097
0.000318542
0.00688351
0.00541236
0.00538138
0.00587706
0.000856803
0.000455972
0.00634706
0.00236349
0.002127
0.00116579
0.00524595
0.00157041
0.00235417
0.0064313
0.00607288
0.00154021
0.00485584
0.000994288
0.00102547
0.0012073
0.00418864
0.00131599
0.00172978
0.00353808
0.00491325
0.00234091
0.00195106
0.0027462
0.0007894
0.00415692
0.00171395
0.000232265
0.00010335
0.00581105
0.00290097
0.00148029
0.00510494
0.000121915
0.00132054
0.00642488
0.000901143
0.00287612
0.00347176
0.00125233
0.00395075
0.00405722
0.000656063
0.00254988
0.000856984
0.000335385
0.00122431
0.00145426
0.000835703
0.00274761
0.000178827
0.00392443
0.00433869
0.000133493
0.00402055
0.000964093
0.00154485
0.000282876
0.0020941
0.00157176
0.00154605
0.00412138
0.00646568
0.00299958
0.0041585
0.00251474
0.0103445
0.0055144
0.00479651
0.00257623
0.00375741
0.0018304
0.00056741
0.000999115
0.000926014
0.00189345
0.00226858
0.000825573
0.00132352
0.00209878
0.00859657
0.00396361
0.00287805
0.000462201
0.00115421
0.000306437
0.00382778
0.00276181
0.000832504
0.00450929
0.00432293
0.000777655
0.00191409
0.00137413
0.000737434
0.00146347
0.00351109
0.0077491
0.0014157
0.00118408
0.000781159
7.254e-05
0.00615246
0.00560405
0.00149889
0.000587886
0.00642681
0.00147535
0.000120117
0.000128226
0.00392908
0.00206683
0.00546207
0.00220389
0.000133362
0.00281349
0.0013498
0.000401502
0.00410256
0.00270245
0.00490995
0.000349437
0.00275805
0.00114281
0.00275183
0.0101127
0.000826258
0.00508895
0.00560447
0.00763016
0.00654543
0.00111659
0.00198759
0.00339809
0.00030285
0.00354138
0.000100045
0.00195352
0.00424277
0.00296168
0.00103408
0.000965963
0.000487325
0.0034273
0.000750369
0.000945997
0.000560263
0.00421784
0.00234801
0.000121416
0.000532143
0.000351136
0.000115348
0.000592887
0.00191493
0.000190958
0.000215941
0.00068555
0.00525364
0.00414509
0.000531638
0.000373717
0.00394398
0.000949713
0.00125941
0.003741
0.00538269
0.0016389
0.00420115
0.00167868
0.00365257
0.00430039
0.00644777
0.00527019
7.36253e-05
0.00390713
0.00317973
0.00172035
0.00515349
0.00157208
0.00194169
0.00254904
0.00429875
0.00515793
0.000547325
0.00150548
0.00286201
0.0059042
0.00242275
0.000524278
0.00566138
0.00607273
0.00357584
0.000735091
0.0016381
0.000784233
0.00267882
0.00103292
0.00766613
0.00261165
0.00143625
0.00479696
0.00455346
0.00189557
0.0013019
0.00420487
0.00090096
0.00284422
0.00470898
0.00278826
0.00109965
0.00323191
0.00327586
0.00520571
0.00118308
0.00343534
0.00210465
0.0012079
0.00472815
0.00122297
0.0043034
0.00104212
0.00129033
0.0040894
0.00336191
0.00266357
0.00222293
0.00814996
0.0076743
0.0033194
0.00508289
0.00511908
0.000183063
0.00266591
0.00516578
0.00316398
0.00404081
0.00355682
0.00644114
0.000408964
0.000935259
0.00148464
0.00291297
0.00196768
0.00649052
0.00292881
0.00285731
0.00331271
0.00604281
0.00111026
0.00118315
0.00109442
0.00189996
0.00219902
0.00293753
0.00145087
0.00339937
0.00120051
0.00448288
0.00184783
0.00254644
0.00104563
0.00338024
0.00594494
0.00272337
0.00359486
0.00193783
0.00177017
0.00603963
0.000610009
0.000891644
0.00215141
0.00239562
0.00545674
0.00257259
0.00205881
0.00090494
0.000259483
0.00511619
0.00221784
0.00176521
0.0042786
0.00303915
0.00022321
0.000969616
0.00335815
0.00193054
0.00559149
0.00940175
0.00132437
0.0100246
0.00357603
0.00382395
0.00721906
0.00145989
0.00706122
0.00224466
0.00874522
0.00816424
0.00384802
0.000922769
0.00438683
0.001764
2.97669e-05
0.00371685
0.0027434
0.00734005
0.00973559
0.000882509
0.00081218
0.00262686
0.00408424
0.00161949
0.00637008
0.0029917
0.00146094
0.00299835
0.00336931
0.00345171
0.00579023
0.00250924
0.00354478
0.00103964
0.000302587
0.00745631
0.00347386
0.0036019
0.00259999
0.00759553
0.00537963
0.00217963
0.0042286
0.00566663
0.00381427
0.00360265
0.0033942
0.00461749
0.00696208
0.00682514
0.00466428
0.00390591
0.00530591
0.00120445
0.00395228
0.00200925
0.00422014
0.00193017
0.00350573
0.0022924
0.0103257
0.00431579
0.00557033
0.00329305
0.00543496
0.00528893
0.00170762
0.0029017
0.00982311
0.00167115
0.0092672
0.000225714
0.00549647
0.00528889
0.00667548
0.00469873
0.00341422
0.00391189
0.00737779
0.00519649
0.00325251
0.00638411
0.00347112
0.00192084
0.00696854
0.00464707
0.00152509
0.00380052
0.00162327
0.0039856
0.000865358
0.00582377
0.00193336
0.00390776
0.00258399
0.000406652
0.00115513
0.00252655
0.00195355
0.00852984
0.0034001
0.00313656
0.00338667
0.00732877
0.00483072
0.00104957
0.00189376
0.0101066
0.00168228
0.000381423
0.00420738
0.000127661
0.00412235
0.00598759
0.00206245
0.00187548
0.00254484
0.00142125
0.00524122
0.00330963
0.00385963
0.00348146
0.000768032
0.00317727
0.00354486
0.00188416
0.000868677
0.0022383
0.000683692
0.00125303
0.000325869
0.00127259
0.0017173
0.000802826
0.00287391
0.000359441
0.000563382
0.00315947
0.00110606
0.000598064
0.000348206
0.000378917
0.00254336
8.84065e-05
0.00120924
0.000438621
0.000367213
0.00144688
0.00137438
0.00480065
0.00359511
0.00290919
0.00132226
0.000116047
0.00321282
0.00123634
0.00867435
0.00305956
0.00466755
0.00136137
0.00879301
0.00561125
0.00021133
0.00691091
0.0048104
0.00561743
0.00185938
0.00174198
0.00599191
0.00532117
0.0103979
0.000820651
0.00209474
0.000219398
0.00226613
0.000486257
0.00703852
0.00172465
0.00461669
0.000152331
0.00123118
0.00768695
0.00115959
0.00525085
0.000683309
0.000744978
0.00102917
0.00215573
0.000293112
0.0073351
0.00605274
0.00899169
0.00240824
0.000970769
0.00194646
0.00122362
0.00114753
0.000223525
0.000713117
0.000966368
0.00768797
0.00333813
0.00042905
0.00386238
0.00640285
0.00216567
0.00226958
0.00381187
0.00686347
0.00148665
0.0028475
0.000474894
0.00110712
0.00334535
0.00179494
0.00471997
0.00279499
0.00219479
0.00196986
0.00321562
0.00508778
0.0041384
0.00315032
0.00227705
0.00329324
0.00243657
0.00170129
0.00689905
0.00329689
0.0059477
0.00318418
0.000997818
0.000229542
0.000891001
0.0015554
0.000664886
0.00177188
0.00931361
0.00711394
0.000476817
0.00710754
0.00184969
0.00153891
0.0051531
0.000472579
0.00314272
0.00128554
0.00596176
0.00105465
0.00489693
0.00708418
0.00540966
0.000410761
0.00199099
0.000251041
0.00172013
0.00273706
0.00180615
0.00287623
0.00165779
0.00848627
0.000513923
0.00302674
0.00522235
0.00483203
0.00215919
0.00217863
0.000305745
0.00116866
0.0020505
0.00256521
0.00149474
0.000390803
0.00302803
0.00567287
0.00726437
0.00481358
0.00263287
0.00150572
0.00131525
0.00122967
0.00479155
0.00757182
0.00278845
0.000729367
0.00420751
0.00366147
0.000226821
2.56311e-05
0.00302321
0.00070284
0.0025481
0.000474731
0.00290571
0.00191661
0.00136512
0.00387286
0.000363422
0.00287028
0.00230349
0.00193556
0.00468771
0.00510424
0.00561414
0.00610831
0.000104916
0.00465208
0.000128763
0.00189618
0.00328321
0.00615175
0.00510828
0.00604397
0.00163298
0.00207369
0.00181484
0.00116135
0.000755283
0.00903098
0.00764548
0.0088113
0.00451699
0.00671654
0.000709157
0.00578043
0.00656886
0.00419489
0.00527275
0.00715182
0.00671779
0.00784298
0.000894194
0.00374327
0.000346063
0.000108557
0.000792782
0.00106921
0.000434873
0.00331136
0.00062679
0.000801165
0.00687134
0.000915592
0.0052798
0.00175168
0.00330348
0.00121687
0.00468811
0.000264133
0.00918818
0.00605376
0.000959987
0.00571879
0.00190108
0.000812433
0.0102463
0.00341069
0.0019792
0.00211711
0.00311542
0.00717822
0.00360241
0.00098516
0.00181154
0.00599203
0.000810285
0.0018235
0.00177902
0.00151456
0.00523871
0.00545829
0.001806
0.00419498
0.00316481
0.00162543
0.000604202
0.00368812
0.00389748
0.0011965
0.00382919
0.00715325
0.00325169
0.00791777
0.00415056
0.0049158
0.000133041
0.00153153
0.0077374
2.60028e-06
0.00650797
0.00253024
0.00455776
0.00199261
0.00740464
0.000509542
2.78976e-05
0.000527191
0.000436459
0.00503544
0.00264924
0.00602501
0.00545971
0.00689604
0.00115752
0.00213266
0.00246414
0.000610546
0.00604412
0.00559031
0.000788124
0.00627289
0.00632817
0.0043108
0.000507413
0.000421536
0.000397137
0.00231259
0.000877235
0.00359643
9.89376e-05
0.00147959
0.00458644
0.00731013
0.00543228
0.000429839
0.0045054
0.000530664
0.0058959
0.000554614
0.000899714
0.00161639
0.00185517
0.0043217
0.00203663
0.00203532
0.000445048
0.0111179
0.000682426
0.00155553
0.00422311
0.00601732
0.00462984
0.00255398
0.000241199
0.000751173
0.0021646
0.000538543
0.00242805
0.000449897
0.00475632
0.00542107
0.000885111
0.000456774
0.000316797
0.00160324
0.00247047
0.00149412
0.00380237
0.00211475
0.00429982
0.00309732
0.0064016
0.00794052
0.00157707
0.00301858
0.00372283
0.0031009
0.000263941
0.00314849
0.00266143
0.00631112
0.00230424
0.00257254
0.00639028
0.000407927
0.00101127
0.00555136
0.000470826
0.00554368
0.00531016
0.00781784
0.00959089
0.00421314
0.00386052
0.000478103
0.00390423
0.000534038
0.00149529
0.00244956
0.00813173
0.0146202
0.00745073
0.00139618
0.00574022
0.00326164
0.0018334
0.000661533
0.00062362
0.00182431
0.00153599
0.00868359
0.00909198
0.00737595
0.00514233
0.00225967
0.00378378
0.00183138
0.00240491
0.000185157
0.0077728
0.00391726
0.00450188
0.00390825
0.00429569
0.00662563
0.00402869
0.00115392
0.000381944
0.00159062
0.00982311
0.00689883
0.00811734
0.00626581
0.00269449
0.00535206
0.000387774
0.00630018
0.00533852
0.00453224
0.00446856
0.00164937
0.000142208
0.00299206
0.000201204
0.00773533
0.00126189
0.00936427
0.000549608
0.0008663
0.00195018
0.00467392
0.00379495
0.00216146
0.00229909
0.00134367
0.00409253
0.00798976
0.00342545
2.20075e-05
0.00337228
0.00840572
0.00454517
8.74798e-05
0.00142296
0.000786095
0.00607741
4.31058e-05
0.0013507
0.00727636
0.00304231
0.00383554
0.00984684
0.00289676
0.0014142
0.00884443
0.00117284
0.00245662
0.00333733
0.000726814
0.00727177
0.00327177
0.00232665
0.00371378
0.000995086
0.000500833
0.000298466
0.00311589
0.00431484
5.86843e-05
0.00482804
0.00261346
5.51008e-05
0.000136192
0.00241141
0.00492528
0.00143557
0.000839232
0.00154228
0.00319444
0.00499456
0.00602197
0.000712412
0.000195178
0.00436964
0.00121974
0.00483848
0.00121554
0.00367504
0.00261562
0.00564867
0.000801392
0.0013428
0.00563416
0.000554587
0.0031705
0.00417177
0.0048505
0.00364083
0.00658104
0.00110112
0.00150698
0.00516469
0.00598375
0.000194407
0.00216144
0.00174115
0.00229627
0.0011213
0.00270808
0.00304397
0.00269365
0.000895904
0.000985536
0.000919117
0.00194867
0.00149197
0.00339525
0.00263188
0.00494004
0.00301362
0.00351142
0.00336834
0.00471919
0.00216821
0.000543929
0.000173641
0.00290871
0.00366185
0.00211551
0.00359512
0.00552336
0.00512381
0.0035692
9.88359e-05
0.00246813
0.00348331
0.000356668
0.00108284
0.00104897
0.00596952
0.00892504
7.1168e-05
0.00272275
0.000376141
0.00291648
0.0019853
0.00579727
0.000338535
0.00599968
0.000736977
0.000303813
0.00390399
0.000996529
0.00482298
0.000258133
0.00100523
0.000152479
0.000774189
0.001656
0.008085
0.000204211
0.0075054
0.00358323
0.00363836
0.00529836
0.00427454
0.004277
0.000462695
0.00166185
0.000286808
0.00682368
0.00794709
0.00453216
0.00476372
0.000269317
0.000206858
0.00701785
0.00442893
0.00499242
0.00220486
0.0056338
0.000584361
0.00219438
0.00214778
0.000350325
0.00672641
0.00283704
0.00276263
0.00407477
0.00461043
0.00461813
0.00224067
0.00408092
0.0024961
0.00289893
0.00523609
0.00397036
0.00346757
0.00069315
0.00501871
0.00528258
9.77079e-05
0.00303913
9.3438e-05
0.00269379
0.00170946
0.00141959
0.00553325
0.000324521
0.00685165
0.00537805
0.00127875
0.00259128
0.00296895
0.0012833
0.00677339
0.00411807
0.00155647
3.77305e-05
0.00626821
0.00294585
0.00473826
0.00708683
0.000649865
0.00803603
0.00280358
0.00772957
0.000443558
0.00174017
0.00204658
1.10242e-05
0.00241302
0.00422237
0.00176505
0.00033136
0.00138024
0.00137166
0.00484065
0.00413976
0.00134824
0.00402136
0.00287024
0.00318032
0.000350175
0.00207584
0.00306508
0.00085463
0.000992992
0.00437515
0.00542386
0.000871412
0.000120306
0.00217396
0.00646572
0.00449477
0.00308205
0.00151872
0.00672421
0.00377476
0.00730002
0.00245474
0.000378225
0.000959018
0.00601007
0.00278371
0.00202127
0.00505069
0.000684709
0.00521897
5.0244e-05
0.00221799
0.00696246
0.00438104
0.00187275
6.53109e-05
0.00330718
0.00144437
0.00478673
0.0018694
0.00596796
0.00349838
0.00587887
0.00231504
0.000894731
0.00321143
0.00488657
0.00646205
0.00450023
0.000248757
0.000320502
0.00356445
0.00109032
0.00178467
0.000716092
0.00292272
0.00285342
1.72484e-05
0.00365653
0.00387339
0.0132316
0.00394576
0.000646066
0.00636021
0.00393027
0.00617311
0.000335984
0.000392855
0.00335922
0.00811194
0.00404595
0.00369827
0.0036946
0.00234734
0.00457445
0.00158947
0.000640807
0.00394759
0.00135089
0.00717844
0.0115675
0.00453213
0.00387022
0.00707176
0.00423042
0.00366142
0.003038
0.00499432
0.00530003
0.00165299
0.00453592
0.00223308
0.000569655
0.0017875
0.00841289
0.00208635
0.00440388
0.00402424
0.000528439
0.00474046
0.00457766
0.00356981
0.00500805
0.00283851
0.00162739
0.00560535
0.000732588
0.00204656
0.00373384
0.00141775
0.0026678
0.00059789
0.00162475
0.00121956
0.00398092
9.88788e-05
0.000699458
0.0031052
0.00279878
0.000601218
0.0088054
0.00333589
0.00235306
0.00433176
0.00407155
0.00236298
0.000674539
0.00183395
0.00157636
0.000280995
0.00325729
0.00294194
0.000423599
0.00454134
0.000591097
0.0025497
0.00121744
0.00348906
0.0066549
0.00347131
0.00701432
0.00231286
0.00476319
0.000318404
0.00113859
0.00237832
0.00235616
0.0020195
0.000199399
0.0031951
0.00372508
0.000676392
0.00104215
0.000871973
0.00260576
0.000620871
0.00295927
0.00286935
0.0033211
0.00220223
0.00266918
0.00752081
0.00445333
0.000262007
0.00285603
0.00204952
0.000863067
0.00257008
0.00628749
0.00198042
0.00151977
0.00256851
0.00208613
0.00538355
0.00263588
0.00217106
0.000498359
0.00545726
0.00208003
0.001718
0.00347659
0.000946985
0.00390709
0.00196984
0.00385256
0.000489481
0.0048063
0.00492887
0.00994685
0.00598244
0.00282843
0.00295997
0.00276516
0.00253278
0.000195718
0.00536015
0.000171345
0.00148361
0.00262455
0.000740902
0.00728207
0.00704086
0.00667714
0.000349264
0.00138305
0.00213037
0.000666255
0.00252215
0.00303213
0.00156734
0.00236868
1.622e-05
0.000742247
0.0032812
0.000649469
0.000236837
0.000519063
0.00297844
0.0031371
0.00260937
0.00772855
0.00563687
0.00115328
0.00441161
0.000330435
7.21055e-05
0.000339434
0.000452864
0.0014093
0.00115885
0.00018567
0.000762695
0.0002907
0.00123525
0.00549548
0.00100277
0.00136937
0.00162914
0.000307356
0.000796418
0.00548177
0.00506487
0.0054997
0.0066253
0.00290641
0.00422976
0.00118372
0.00200102
0.00439499
0.00273497
0.00303835
0.00254152
0.00369391
0.00511987
0.00348317
0.000568181
0.00179142
0.00345742
0.00325482
0.00271338
0.00507226
0.00769906
0.0030594
0.00148189
0.00537779
0.000263834
0.000442125
0.00320176
0.00232616
0.0020782
0.0029998
0.00128471
0.0033659
0.00382092
0.00881052
0.0012862
0.00471152
0.00312211
0.000393292
0.00228606
0.00203487
0.00405074
0.00220041
0.00171373
0.000537971
0.00174447
0.000862002
0.00333016
0.00639063
0.00184173
0.00377413
0.00370257
0.00158436
0.00104012
0.00294442
0.00237772
0.000770043
0.00408426
0.000140488
0.000132279
0.00314631
0.00308246
0.00362024
0.00204414
0.0019149
0.002085
0.00297846
0.00141889
0.00071442
0.0006891
0.0015435
0.00194483
0.00206633
0.00337815
0.00133596
0.00330313
0.00411271
0.00258302
0.00113083
0.00259674
0.00572393
0.000347331
0.00211635
0.00295493
0.00295276
0.000369097
0.00323021
0.00346887
0.00182944
0.000467489
0.00422062
0.00313747
0.000343452
0.00399237
0.00337828
0.000683863
0.00185789
0.00791402
0.00225473
0.00207968
0.000522261
0.00723356
8.95891e-05
0.0024928
0.00677281
0.00182201
0.00344849
0.00260157
0.00387804
0.00343108
0.00157643
0.00226481
0.00161838
0.000404583
0.00099417
0.00600315
0.00286915
0.00228885
0.00108944
0.00120702
0.00317597
0.00309363
0.00303733
0.000448743
7.12426e-05
0.00363344
0.00498031
0.00269278
0.00103046
0.00294515
0.00271146
1.94151e-05
0.00354706
0.00319748
0.00296383
0.00262012
0.000659635
0.000306214
0.00206552
0.000343701
0.00134059
0.00395945
0.00396135
0.00223458
0.00238604
0.00510818
0.00343316
0.00209459
0.00138292
0.00496502
0.00209433
0.0012627
0.00074815
0.00162465
0.00146536
0.00194273
0.000949728
0.000313497
0.00136019
0.000193095
0.000655304
0.00470381
0.000241685
0.00346091
0.000575754
0.000214206
0.000375543
0.00134596
0.00104807
0.00240317
0.00298377
0.00114813
0.00186128
0.00177453
0.0021724
0.00325613
0.0037455
0.00543025
0.00225421
0.000384552
0.000896443
0.00599687
0.00697481
0.00196859
0.0018109
0.00135375
0.00239505
0.00227593
0.00455507
0.000773839
0.00582831
0.00142731
0.00355297
0.00200167
0.00349556
0.00257375
0.00172384
0.00198606
0.00205786
0.000511635
0.00250276
0.00256845
0.00486979
0.000529157
0.00033315
0.00116594
0.0017915
0.0044195
5.24861e-07
0.00320241
0.00329667
0.000376556
0.000328862
0.001904
0.000612587
0.00434274
0.00271405
0.00314136
0.00204703
0.00177332
0.00675384
0.00519432
0.00113831
0.00327858
0.00264528
0.00256497
0.000758906
0.00519154
0.00018325
0.00361151
0.00166505
0.00481009
0.00196717
0.0061959
0.00289941
0.00043229
0.00391523
0.00820163
0.00292225
0.00234862
0.00151224
0.00370979
0.00401735
0.000552303
0.000179735
0.00330472
0.00259108
0.00357893
0.000333205
0.000826601
0.00188342
0.00379619
0.000796294
0.00397926
0.000223567
0.00116524
0.000677621
0.000808262
0.00576823
0.00265806
0.0004654
0.00106401
0.00667471
0.00050356
0.00134372
0.00475735
0.00143708
0.00216915
0.002577
0.00282732
0.003846
0.00105258
0.00406901
0.00233416
0.000568626
0.000193011
0.00566942
0.00457863
0.00726088
0.00784922
0.00620042
0.00167813
0.00295462
0.00568128
0.00368097
0.00563025
0.00690665
0.00272747
0.00660798
0.00186669
0.00440812
0.00171558
0.00720017
0.00191635
0.000206642
0.00628309
0.0110296
0.00235322
0.00294478
0.00197863
0.00377616
0.000551731
0.000960826
0.000686838
0.000138944
0.00282172
0.000216037
0.00389589
0.000978245
0.00323183
8.0004e-05
0.000216427
0.003811
0.00188832
0.00130721
0.000426427
0.000683318
0.000336595
0.0014083
0.00118776
0.000665573
0.00136276
0.000904081
0.000379417
0.00321251
0.00104694
0.00186371
0.00293765
0.00524887
0.00110073
0.000136213
0.00195462
0.00300487
0.000279976
0.00232028
0.0029387
0.00259507
0.00230071
0.000560703
0.000574494