/*--------------------------------*- C++ -*----------------------------------*\
| =========                 |                                                 |
| \\      /  F ield         | OpenFOAM: The Open Source CFD Toolbox           |
|  \\    /   O peration     | Version:  2212                                  |
|   \\  /    A nd           | Website:  www.openfoam.com                      |
|    \\/     M anipulation  |                                                 |
\*---------------------------------------------------------------------------*/
FoamFile
{
    version     2.0;
    format      ascii;
    arch        "LSB;label=32;scalar=64";
    class       volScalarField;
    location    "0";
    object      stateMean;
}
// * * * * * * * * * * * * * * * * * * * * * * * * * * * * * * * * * * * * * //

dimensions      [0 0 0 1 0 0 0];

internalField   nonuniform List<scalar> 
3200
(
330.903
331.395
331.96
332.445
332.877
333.237
333.483
333.675
333.71
333.672
333.63
333.484
333.256
332.915
332.51
332.106
331.51
330.865
330.202
329.731
327.056
327.507
327.951
328.443
328.808
329.122
329.292
329.535
329.573
329.573
329.501
329.322
329.137
328.775
328.487
328.089
327.571
327.06
326.503
326.01
323.13
323.446
323.85
324.221
324.513
324.851
324.996
325.185
325.197
325.202
325.191
325.024
324.932
324.576
324.259
323.962
323.471
323.014
322.617
322.15
319.063
319.281
319.672
319.942
320.302
320.444
320.568
320.643
320.687
320.72
320.704
320.575
320.404
320.285
320.024
319.699
319.325
318.904
318.619
318.292
314.863
315.093
315.371
315.585
315.831
315.997
316.088
316.172
316.229
316.18
316.225
316.143
316.049
315.799
315.678
315.417
315.097
314.838
314.588
314.268
310.642
310.843
310.972
311.275
311.379
311.46
311.542
311.661
311.69
311.622
311.653
311.54
311.412
311.351
311.201
311.036
310.834
310.649
310.393
310.254
306.427
306.524
306.648
306.749
306.898
306.949
306.91
306.917
307.027
307.08
306.968
306.992
306.912
306.851
306.73
306.662
306.615
306.412
306.218
306.196
302.191
302.217
302.256
302.209
302.308
302.337
302.314
302.375
302.361
302.445
302.359
302.382
302.364
302.333
302.208
302.174
302.24
302.175
302.088
302.054
331.845
332.35
332.8
333.472
333.887
334.208
334.478
334.696
334.829
334.841
334.709
334.535
334.259
333.978
333.511
333.051
332.418
331.884
331.213
330.627
327.764
328.239
328.697
329.238
329.542
329.958
330.233
330.298
330.435
330.402
330.291
330.18
330.001
329.751
329.352
328.881
328.471
327.809
327.23
326.787
323.742
324.044
324.483
324.939
325.222
325.475
325.66
325.867
325.91
325.848
325.829
325.772
325.511
325.321
325.031
324.597
324.18
323.707
323.253
322.839
319.505
319.82
320.168
320.424
320.747
320.917
321.212
321.306
321.329
321.275
321.243
321.177
321.005
320.807
320.497
320.225
319.878
319.542
319.094
318.786
315.207
315.391
315.668
316.023
316.209
316.357
316.474
316.609
316.707
316.626
316.596
316.559
316.401
316.288
316.002
315.795
315.536
315.235
314.952
314.763
310.958
311.059
311.3
311.553
311.616
311.705
311.837
311.93
311.894
311.851
311.88
311.908
311.783
311.593
311.457
311.317
311.095
310.838
310.645
310.458
306.603
306.646
306.847
306.856
306.993
307.082
307.075
307.196
307.21
307.161
307.183
307.186
307.052
306.998
306.962
306.831
306.726
306.599
306.476
306.309
302.205
302.2
302.283
302.285
302.327
302.298
302.408
302.401
302.41
302.383
302.395
302.336
302.333
302.39
302.284
302.26
302.233
302.189
302.179
302.175
333.005
333.529
334.141
334.719
335.156
335.644
335.846
336.072
336.24
336.195
336.113
336.009
335.701
335.394
334.967
334.421
333.794
333.19
332.532
331.932
328.873
329.332
329.884
330.342
330.754
331.12
331.272
331.483
331.584
331.627
331.561
331.369
331.163
330.889
330.471
330.091
329.545
328.968
328.364
327.85
324.533
324.916
325.356
325.823
326.227
326.452
326.677
326.817
326.923
326.898
326.874
326.759
326.474
326.272
325.929
325.568
325.107
324.654
324.083
323.725
320.23
320.58
320.87
321.237
321.516
321.684
321.894
322.052
322.091
322.103
322.015
321.913
321.85
321.589
321.333
321.037
320.724
320.234
319.826
319.48
315.796
316.012
316.243
316.497
316.779
316.947
317.073
317.208
317.354
317.303
317.241
317.201
317.083
316.856
316.66
316.417
316.117
315.8
315.483
315.252
311.362
311.494
311.703
311.831
311.955
312.162
312.283
312.369
312.334
312.365
312.31
312.308
312.258
312.163
311.907
311.764
311.496
311.321
311.11
310.887
306.805
306.945
307.084
307.222
307.271
307.309
307.363
307.345
307.445
307.445
307.372
307.378
307.413
307.236
307.201
307.02
306.946
306.79
306.688
306.582
302.3
302.318
302.362
302.373
302.353
302.538
302.456
302.446
302.488
302.461
302.518
302.463
302.438
302.474
302.437
302.344
302.334
302.345
302.236
302.276
334.299
334.859
335.526
336.226
336.608
337.033
337.364
337.604
337.691
337.667
337.66
337.456
337.292
336.894
336.4
335.969
335.265
334.627
333.889
333.315
329.94
330.464
330.978
331.537
332.022
332.358
332.582
332.774
332.876
332.826
332.808
332.732
332.538
332.199
331.763
331.298
330.819
330.199
329.59
329.045
325.515
325.943
326.373
326.799
327.222
327.543
327.753
327.854
328.048
327.956
327.918
327.827
327.655
327.384
327.089
326.653
326.126
325.706
325.156
324.727
320.917
321.31
321.76
322.027
322.402
322.636
322.837
322.982
323.006
322.965
322.927
322.851
322.678
322.466
322.25
321.887
321.57
321.132
320.609
320.288
316.381
316.656
316.985
317.239
317.413
317.724
317.705
317.9
318.032
318.051
317.973
317.889
317.622
317.525
317.369
317.083
316.748
316.491
316.172
315.841
311.704
311.896
312.172
312.366
312.475
312.59
312.777
312.855
312.902
312.837
312.911
312.756
312.657
312.602
312.41
312.185
312.052
311.832
311.512
311.351
307.011
307.188
307.321
307.482
307.487
307.61
307.694
307.721
307.709
307.739
307.717
307.742
307.625
307.512
307.5
307.326
307.279
307.015
306.963
306.749
302.364
302.4
302.445
302.512
302.459
302.543
302.549
302.496
302.607
302.621
302.506
302.6
302.618
302.528
302.452
302.549
302.452
302.37
302.351
302.346
335.579
336.264
336.891
337.589
338.107
338.525
338.889
339.063
339.169
339.237
339.222
339.044
338.771
338.388
337.972
337.433
336.752
336.065
335.262
334.636
331.113
331.681
332.203
332.8
333.229
333.588
333.909
334.109
334.221
334.277
334.14
334.039
333.834
333.528
333.086
332.613
332.048
331.511
330.792
330.223
326.523
326.873
327.422
327.92
328.226
328.554
328.861
329.017
329.143
329.09
329.094
328.996
328.824
328.571
328.198
327.801
327.31
326.784
326.188
325.702
321.758
322.113
322.566
322.864
323.191
323.472
323.668
323.872
323.919
323.99
323.928
323.806
323.64
323.427
323.124
322.831
322.469
322.035
321.533
321.096
316.954
317.255
317.551
317.902
318.104
318.325
318.487
318.534
318.667
318.663
318.679
318.617
318.472
318.297
318.058
317.856
317.501
317.178
316.854
316.408
312.174
312.41
312.614
312.886
312.944
313.188
313.294
313.323
313.385
313.414
313.435
313.27
313.28
313.056
312.964
312.782
312.502
312.356
312.03
311.756
307.279
307.452
307.57
307.746
307.869
307.882
308.019
308.053
308.041
308.079
308.058
308.013
307.934
307.872
307.747
307.679
307.556
307.405
307.252
307.151
302.389
302.5
302.563
302.584
302.683
302.64
302.733
302.701
302.613
302.671
302.722
302.698
302.669
302.666
302.596
302.564
302.599
302.531
302.409
302.418
336.873
337.574
338.365
338.998
339.565
340.1
340.293
340.612
340.701
340.842
340.655
340.569
340.346
339.963
339.485
338.926
338.293
337.544
336.7
335.997
332.181
332.791
333.377
333.982
334.482
334.833
335.207
335.428
335.598
335.626
335.563
335.293
335.168
334.854
334.412
333.952
333.313
332.75
332.054
331.426
327.445
327.938
328.389
328.872
329.376
329.676
329.936
330.141
330.202
330.277
330.213
330.116
329.912
329.58
329.269
328.82
328.326
327.889
327.236
326.776
322.618
322.864
323.317
323.782
324.131
324.346
324.622
324.759
324.83
324.855
324.773
324.706
324.602
324.373
324.019
323.729
323.299
322.851
322.409
321.916
317.513
317.935
318.246
318.541
318.812
318.997
319.183
319.369
319.34
319.437
319.384
319.274
319.229
318.995
318.746
318.455
318.177
317.827
317.464
317.129
312.571
312.84
313.059
313.197
313.443
313.653
313.839
313.92
313.862
313.965
313.859
313.792
313.671
313.565
313.434
313.239
312.997
312.787
312.49
312.358
307.596
307.748
307.912
307.997
308.141
308.167
308.305
308.37
308.392
308.38
308.29
308.319
308.28
308.229
308.114
308.001
307.794
307.725
307.502
307.42
302.546
302.586
302.68
302.701
302.69
302.764
302.826
302.79
302.828
302.777
302.745
302.788
302.819
302.728
302.655
302.701
302.662
302.648
302.504
302.417
338.193
338.868
339.669
340.34
341.022
341.516
341.808
342.171
342.257
342.36
342.19
342.059
341.834
341.453
340.948
340.411
339.643
338.939
338.11
337.391
333.33
333.927
334.572
335.163
335.699
336.156
336.437
336.733
336.815
336.901
336.848
336.702
336.512
336.134
335.775
335.232
334.585
333.952
333.267
332.621
328.453
328.905
329.405
330.008
330.354
330.74
331.036
331.275
331.29
331.426
331.34
331.175
331.026
330.713
330.413
329.974
329.363
328.827
328.257
327.779
323.349
323.776
324.199
324.669
324.983
325.22
325.539
325.665
325.8
325.719
325.769
325.666
325.564
325.257
324.943
324.635
324.18
323.673
323.216
322.769
318.19
318.504
318.926
319.213
319.584
319.721
319.906
319.973
320.096
320.119
320.103
320.014
319.908
319.752
319.486
319.136
318.856
318.495
318.086
317.776
313.094
313.279
313.49
313.754
313.961
314.077
314.252
314.377
314.419
314.419
314.377
314.316
314.267
314.086
313.93
313.725
313.551
313.229
312.937
312.741
307.818
308.024
308.067
308.239
308.429
308.474
308.612
308.632
308.735
308.652
308.69
308.656
308.543
308.442
308.405
308.261
308.106
307.984
307.8
307.641
302.657
302.652
302.77
302.727
302.85
302.877
302.875
302.949
302.926
302.844
302.919
302.886
302.871
302.865
302.765
302.778
302.679
302.699
302.594
302.589
339.395
340.271
340.935
341.671
342.37
342.812
343.208
343.518
343.708
343.829
343.699
343.557
343.295
342.946
342.4
341.88
341.206
340.303
339.517
338.737
334.395
335.068
335.786
336.418
336.927
337.43
337.764
338.032
338.152
338.306
338.138
337.965
337.777
337.475
337.011
336.465
335.829
335.11
334.493
333.692
329.286
329.777
330.395
330.902
331.427
331.821
332.115
332.412
332.496
332.507
332.478
332.333
332.115
331.761
331.442
331.03
330.494
329.905
329.297
328.698
324.167
324.491
324.975
325.444
325.835
326.199
326.399
326.585
326.66
326.695
326.628
326.487
326.352
326.098
325.833
325.426
324.99
324.607
324.065
323.635
318.831
319.13
319.455
319.811
320.097
320.396
320.56
320.751
320.789
320.802
320.814
320.753
320.61
320.393
320.154
319.944
319.545
319.136
318.721
318.488
313.507
313.697
313.975
314.201
314.41
314.519
314.765
314.879
314.874
314.951
314.903
314.85
314.771
314.642
314.428
314.246
313.978
313.695
313.43
313.26
308.156
308.31
308.363
308.565
308.61
308.852
308.861
308.911
308.967
308.971
308.908
308.893
308.867
308.871
308.648
308.557
308.462
308.262
308.089
307.931
302.658
302.761
302.819
302.908
302.913
303.019
302.945
302.964
303.002
303.004
303.029
303.012
302.974
302.949
302.911
302.796
302.868
302.779
302.677
302.661
340.725
341.452
342.225
343.095
343.697
344.254
344.614
344.956
345.201
345.271
345.239
345.04
344.729
344.296
343.832
343.222
342.469
341.652
340.828
340.049
335.486
336.096
336.858
337.559
338.038
338.593
338.957
339.233
339.462
339.457
339.43
339.245
339.033
338.654
338.246
337.697
337.083
336.286
335.546
334.869
330.23
330.676
331.36
331.921
332.347
332.781
333.096
333.365
333.493
333.577
333.499
333.343
333.131
332.862
332.514
332.03
331.563
330.873
330.256
329.658
324.758
325.289
325.749
326.189
326.595
326.966
327.156
327.377
327.534
327.581
327.539
327.431
327.244
326.971
326.667
326.322
325.903
325.358
324.727
324.359
319.457
319.715
320.117
320.465
320.864
321.037
321.302
321.376
321.441
321.47
321.472
321.393
321.287
320.961
320.794
320.527
320.165
319.732
319.343
319.045
313.961
314.117
314.401
314.632
314.874
315.043
315.22
315.352
315.374
315.395
315.405
315.255
315.248
315.074
314.896
314.663
314.425
314.195
313.882
313.596
308.288
308.455
308.697
308.796
309.008
309.054
309.151
309.257
309.291
309.23
309.208
309.22
309.22
309.075
308.946
308.827
308.715
308.434
308.326
308.204
302.793
302.841
302.941
302.938
302.938
303.048
303.03
303.123
303.075
303.134
303.111
303.079
303.036
303.037
303.076
303.015
302.927
302.904
302.835
302.712
341.849
342.637
343.516
344.332
344.969
345.552
346.06
346.315
346.54
346.607
346.544
346.448
346.128
345.675
345.223
344.59
343.823
342.961
342.034
341.26
336.477
337.152
337.958
338.619
339.171
339.66
340.086
340.411
340.521
340.684
340.603
340.484
340.203
339.833
339.388
338.827
338.202
337.427
336.657
335.962
331.061
331.64
332.251
332.84
333.368
333.769
334.058
334.304
334.458
334.557
334.473
334.424
334.196
333.877
333.472
333.066
332.454
331.844
331.062
330.56
325.481
325.971
326.466
326.942
327.386
327.674
328.034
328.173
328.329
328.365
328.241
328.283
328.086
327.889
327.506
327.095
326.591
326.149
325.62
325.189
319.906
320.254
320.665
321.02
321.413
321.598
321.825
321.973
322.081
322.149
322.207
322.066
321.928
321.71
321.421
321.154
320.725
320.403
320.034
319.622
314.198
314.537
314.737
315.09
315.301
315.504
315.642
315.78
315.857
315.901
315.81
315.758
315.615
315.56
315.363
315.101
314.863
314.619
314.312
314.068
308.56
308.724
308.837
309.082
309.228
309.322
309.39
309.492
309.542
309.57
309.567
309.504
309.381
309.296
309.276
309.069
308.965
308.759
308.631
308.429
302.867
302.987
302.947
303.087
303.072
303.17
303.207
303.25
303.231
303.126
303.198
303.182
303.129
303.169
303.09
303.095
302.95
302.944
302.866
302.808
342.941
343.735
344.69
345.433
346.115
346.785
347.225
347.591
347.82
347.903
347.917
347.772
347.446
346.998
346.448
345.782
345.084
344.192
343.292
342.372
337.389
338.156
338.87
339.719
340.31
340.816
341.174
341.501
341.764
341.781
341.716
341.598
341.383
340.923
340.503
339.945
339.249
338.484
337.722
336.979
331.856
332.375
333.058
333.706
334.3
334.586
335.079
335.263
335.381
335.49
335.42
335.372
335.099
334.821
334.469
333.908
333.357
332.742
332.015
331.428
326.222
326.554
327.138
327.673
328.148
328.485
328.742
328.955
329.096
329.151
329.152
328.972
328.849
328.659
328.279
327.873
327.382
326.828
326.342
325.789
320.397
320.805
321.184
321.534
321.905
322.182
322.455
322.55
322.704
322.737
322.705
322.712
322.551
322.332
322.056
321.706
321.417
320.979
320.521
320.16
314.604
314.932
315.194
315.42
315.688
315.905
316.05
316.178
316.324
316.323
316.324
316.228
316.139
315.955
315.767
315.582
315.281
315.022
314.678
314.467
308.768
308.961
309.13
309.285
309.43
309.592
309.628
309.727
309.762
309.793
309.732
309.794
309.701
309.64
309.482
309.407
309.174
309.063
308.837
308.7
302.876
303.008
303.094
303.149
303.161
303.159
303.315
303.302
303.212
303.276
303.302
303.257
303.231
303.231
303.204
303.117
303.078
303.013
302.986
302.919
343.92
344.802
345.731
346.586
347.335
347.943
348.505
348.842
349.074
349.168
349.127
348.938
348.621
348.214
347.757
347.025
346.196
345.393
344.409
343.493
338.271
339.037
339.9
340.61
341.275
341.804
342.254
342.538
342.815
342.856
342.784
342.668
342.368
342.04
341.548
341.074
340.34
339.517
338.69
337.95
332.587
333.155
333.878
334.466
335.033
335.511
335.908
336.191
336.364
336.419
336.391
336.202
336.043
335.74
335.28
334.797
334.266
333.544
332.818
332.238
326.779
327.267
327.875
328.344
328.71
329.248
329.478
329.749
329.84
329.903
329.808
329.773
329.571
329.346
329.044
328.643
328.084
327.563
326.951
326.482
320.91
321.333
321.762
322.146
322.486
322.809
322.966
323.113
323.274
323.345
323.236
323.268
323.074
322.932
322.611
322.296
321.911
321.583
321.014
320.663
314.977
315.223
315.541
315.88
316.059
316.288
316.393
316.612
316.689
316.713
316.698
316.576
316.479
316.406
316.151
315.974
315.698
315.379
315.093
314.8
308.992
309.131
309.341
309.469
309.665
309.785
309.936
309.995
310.055
310.039
310.031
310.013
309.96
309.831
309.795
309.551
309.477
309.271
309.042
308.884
302.977
303.056
303.178
303.184
303.265
303.368
303.347
303.325
303.34
303.355
303.334
303.292
303.302
303.243
303.237
303.25
303.02
303.131
303.031
302.954
344.891
345.742
346.716
347.65
348.391
349.043
349.51
349.93
350.188
350.303
350.324
350.082
349.876
349.409
348.882
348.149
347.376
346.488
345.504
344.545
339.134
339.937
340.758
341.483
342.21
342.69
343.235
343.542
343.761
343.807
343.835
343.603
343.414
343.015
342.566
341.959
341.205
340.451
339.604
338.879
333.35
333.926
334.677
335.246
335.886
336.259
336.763
337.036
337.167
337.322
337.25
337.07
336.877
336.632
336.144
335.59
335.037
334.337
333.593
333.022
327.364
327.873
328.405
329.009
329.463
329.813
330.147
330.316
330.517
330.676
330.607
330.433
330.268
330.043
329.687
329.252
328.78
328.267
327.646
327.105
321.416
321.718
322.21
322.615
322.981
323.266
323.524
323.754
323.854
323.834
323.807
323.785
323.715
323.434
323.147
322.81
322.451
322.006
321.527
321.212
315.343
315.518
315.896
316.229
316.426
316.695
316.825
317.012
317.067
317.154
317.087
317.051
316.916
316.785
316.517
316.368
316.139
315.74
315.411
315.128
309.233
309.307
309.56
309.771
309.91
310.083
310.11
310.206
310.28
310.359
310.269
310.223
310.167
310.05
310.015
309.776
309.722
309.437
309.254
309.148
303.137
303.106
303.214
303.275
303.349
303.348
303.372
303.435
303.419
303.422
303.421
303.424
303.423
303.358
303.4
303.295
303.272
303.19
303.113
303.049
345.768
346.665
347.634
348.574
349.299
350.069
350.575
351.037
351.333
351.414
351.354
351.191
350.894
350.44
349.871
349.256
348.333
347.468
346.406
345.573
339.871
340.688
341.581
342.335
342.976
343.538
344.093
344.423
344.641
344.758
344.766
344.614
344.33
343.969
343.469
342.828
342.127
341.234
340.407
339.704
333.981
334.575
335.293
336.006
336.523
337.031
337.463
337.698
338.014
338.052
338.026
337.949
337.663
337.315
336.966
336.395
335.844
335.135
334.344
333.709
327.882
328.433
329.001
329.525
330.057
330.413
330.818
331.027
331.138
331.231
331.304
331.107
330.975
330.626
330.343
329.923
329.398
328.85
328.212
327.684
321.771
322.093
322.606
323.064
323.392
323.727
324.029
324.196
324.403
324.381
324.417
324.296
324.126
323.952
323.633
323.342
322.862
322.426
322.004
321.649
315.535
315.887
316.172
316.48
316.764
316.998
317.167
317.282
317.434
317.462
317.428
317.396
317.348
317.131
316.917
316.723
316.495
316.102
315.703
315.514
309.388
309.455
309.699
309.97
310.082
310.277
310.357
310.407
310.477
310.566
310.425
310.549
310.432
310.31
310.195
310.03
309.888
309.673
309.501
309.296
303.143
303.224
303.291
303.311
303.358
303.327
303.49
303.482
303.505
303.521
303.556
303.574
303.512
303.47
303.393
303.367
303.305
303.283
303.154
303.156
346.569
347.526
348.531
349.432
350.272
350.958
351.508
351.912
352.195
352.302
352.348
352.16
351.859
351.444
350.891
350.152
349.326
348.344
347.318
346.424
340.627
341.348
342.205
343.082
343.839
344.462
344.955
345.271
345.476
345.656
345.633
345.473
345.209
344.811
344.286
343.689
342.967
342.133
341.189
340.429
334.506
335.159
335.878
336.604
337.293
337.771
338.223
338.478
338.679
338.741
338.756
338.606
338.427
338.087
337.605
337.102
336.456
335.826
335.018
334.335
328.34
328.871
329.473
330.078
330.569
330.981
331.236
331.56
331.729
331.823
331.834
331.725
331.522
331.234
330.906
330.461
330.009
329.369
328.741
328.203
322.197
322.546
322.955
323.487
323.841
324.124
324.413
324.647
324.818
324.8
324.846
324.789
324.611
324.411
324.116
323.765
323.338
322.957
322.474
322.032
315.831
316.169
316.476
316.766
317.056
317.3
317.497
317.659
317.686
317.767
317.787
317.688
317.629
317.42
317.266
317.066
316.701
316.385
316.045
315.753
309.523
309.714
309.97
310.075
310.356
310.457
310.485
310.632
310.713
310.659
310.615
310.663
310.58
310.466
310.383
310.182
310.113
309.867
309.666
309.562
303.227
303.172
303.313
303.363
303.416
303.47
303.543
303.545
303.515
303.545
303.556
303.522
303.513
303.497
303.429
303.436
303.414
303.264
303.205
303.211
347.257
348.179
349.242
350.199
351.071
351.818
352.38
352.79
353.08
353.205
353.112
353.129
352.791
352.346
351.777
351.026
350.126
349.207
348.168
347.212
341.168
342.042
342.902
343.778
344.468
345.167
345.63
346.052
346.276
346.38
346.403
346.219
345.938
345.518
344.992
344.384
343.666
342.871
341.922
341.09
335.039
335.694
336.514
337.205
337.833
338.357
338.771
339.055
339.274
339.397
339.416
339.324
339.025
338.692
338.287
337.707
337.106
336.443
335.598
334.988
328.724
329.385
329.939
330.52
331.061
331.532
331.828
332.108
332.237
332.374
332.334
332.269
332.05
331.724
331.409
331.006
330.545
329.911
329.286
328.739
322.472
322.857
323.348
323.884
324.22
324.537
324.826
325.103
325.122
325.26
325.248
325.092
325.004
324.803
324.457
324.157
323.83
323.248
322.835
322.399
316.082
316.391
316.766
317.084
317.302
317.63
317.72
317.9
317.985
318.038
318.081
317.98
317.876
317.781
317.522
317.315
317.035
316.641
316.366
316.003
309.726
309.864
310.061
310.261
310.418
310.609
310.697
310.836
310.843
310.865
310.887
310.812
310.763
310.687
310.492
310.387
310.233
310.071
309.814
309.713
303.298
303.312
303.368
303.461
303.546
303.563
303.615
303.582
303.539
303.672
303.649
303.553
303.631
303.632
303.517
303.493
303.368
303.337
303.266
303.199
347.905
348.878
349.919
350.916
351.754
352.538
353.016
353.537
353.864
353.952
353.988
353.853
353.564
353.102
352.489
351.715
350.935
349.885
348.872
347.955
341.749
342.555
343.488
344.337
345.175
345.748
346.282
346.632
346.91
347.048
347.04
346.857
346.635
346.268
345.662
345.094
344.362
343.508
342.55
341.734
335.441
336.256
336.92
337.767
338.379
338.879
339.24
339.641
339.828
339.954
339.882
339.852
339.668
339.344
338.833
338.359
337.704
336.939
336.138
335.464
329.186
329.705
330.338
330.908
331.478
331.877
332.275
332.521
332.724
332.862
332.804
332.752
332.491
332.272
331.928
331.424
330.88
330.299
329.615
329.079
322.672
323.181
323.739
324.184
324.563
324.849
325.175
325.373
325.515
325.623
325.522
325.531
325.312
325.129
324.865
324.527
324.137
323.632
323.164
322.684
316.338
316.589
316.978
317.299
317.577
317.801
317.995
318.161
318.286
318.322
318.264
318.251
318.158
317.976
317.772
317.59
317.272
316.937
316.572
316.261
309.773
309.911
310.198
310.343
310.591
310.725
310.775
310.913
310.987
310.966
310.959
310.988
310.92
310.846
310.766
310.559
310.402
310.113
310.015
309.834
303.316
303.373
303.396
303.434
303.549
303.601
303.624
303.641
303.695
303.727
303.677
303.669
303.691
303.599
303.61
303.567
303.525
303.445
303.286
303.288
348.342
349.381
350.466
351.472
352.397
353.059
353.736
354.204
354.536
354.728
354.643
354.49
354.163
353.745
353.122
352.415
351.472
350.573
349.488
348.572
342.219
342.99
343.998
344.858
345.609
346.302
346.767
347.11
347.467
347.591
347.576
347.49
347.187
346.833
346.226
345.678
344.81
344.035
343.084
342.257
335.91
336.559
337.366
338.142
338.77
339.374
339.731
340.081
340.381
340.47
340.397
340.275
340.085
339.762
339.336
338.718
338.083
337.413
336.518
335.915
329.428
330.052
330.694
331.296
331.807
332.329
332.611
332.999
333.114
333.307
333.167
333.142
332.832
332.645
332.215
331.842
331.277
330.717
330.042
329.422
323.025
323.404
323.967
324.467
324.855
325.173
325.418
325.63
325.817
325.94
325.842
325.782
325.669
325.445
325.107
324.798
324.341
323.895
323.395
322.97
316.538
316.804
317.07
317.505
317.76
318.043
318.259
318.312
318.482
318.497
318.522
318.424
318.343
318.194
318.009
317.727
317.489
317.038
316.736
316.45
309.9
310.068
310.347
310.478
310.691
310.807
310.989
310.995
311.078
311.12
311.183
311.17
311.024
311.011
310.81
310.726
310.515
310.279
310.142
309.905
303.361
303.437
303.504
303.483
303.617
303.581
303.715
303.767
303.714
303.618
303.674
303.711
303.717
303.681
303.636
303.607
303.488
303.458
303.405
303.271
348.811
349.842
350.875
351.969
352.828
353.608
354.222
354.734
354.981
355.223
355.142
355.036
354.741
354.286
353.725
352.933
352.045
351.001
349.951
348.996
342.559
343.387
344.363
345.272
345.999
346.676
347.138
347.58
347.887
347.995
347.997
347.939
347.628
347.195
346.711
346.079
345.367
344.466
343.529
342.706
336.174
336.868
337.681
338.421
339.074
339.624
340.058
340.418
340.707
340.839
340.739
340.683
340.505
340.126
339.719
339.147
338.485
337.714
336.998
336.191
329.75
330.224
330.845
331.482
332.093
332.584
332.989
333.178
333.401
333.436
333.474
333.438
333.206
332.939
332.523
332.121
331.521
331.023
330.301
329.759
323.206
323.576
324.17
324.588
325.049
325.391
325.689
325.933
326.027
326.117
326.027
326.09
325.874
325.698
325.437
325.016
324.576
324.078
323.684
323.244
316.631
316.953
317.257
317.641
317.963
318.244
318.367
318.565
318.633
318.691
318.673
318.633
318.52
318.341
318.123
317.919
317.627
317.332
317.013
316.613
309.973
310.104
310.365
310.567
310.833
310.87
311.11
311.115
311.241
311.234
311.229
311.278
311.078
311.021
310.996
310.805
310.626
310.438
310.168
309.963
303.368
303.394
303.463
303.56
303.627
303.694
303.733
303.695
303.739
303.782
303.767
303.798
303.691
303.754
303.618
303.628
303.551
303.442
303.321
303.334
349.125
350.046
351.227
352.232
353.074
353.947
354.611
355.073
355.347
355.487
355.492
355.428
355.101
354.624
354.017
353.283
352.408
351.34
350.285
349.297
342.814
343.627
344.604
345.467
346.282
346.89
347.497
347.929
348.099
348.317
348.29
348.196
347.942
347.548
347.027
346.354
345.605
344.701
343.75
342.949
336.321
337.097
337.836
338.684
339.313
339.89
340.36
340.696
340.949
341.023
341.061
340.91
340.719
340.41
339.9
339.345
338.703
337.971
337.093
336.431
329.894
330.462
331.104
331.688
332.274
332.784
333.108
333.46
333.58
333.688
333.695
333.579
333.394
333.153
332.752
332.292
331.767
331.078
330.496
329.961
323.309
323.734
324.231
324.743
325.133
325.431
325.841
326.03
326.27
326.259
326.279
326.154
326.028
325.818
325.556
325.154
324.713
324.29
323.728
323.359
316.71
316.988
317.301
317.756
318.044
318.308
318.467
318.704
318.754
318.768
318.755
318.772
318.661
318.564
318.326
317.99
317.673
317.328
317.001
316.737
310.096
310.21
310.441
310.707
310.808
310.991
311.08
311.236
311.374
311.266
311.324
311.264
311.187
311.056
310.928
310.836
310.605
310.459
310.193
310.026
303.369
303.51
303.56
303.653
303.631
303.67
303.767
303.773
303.777
303.758
303.765
303.739
303.774
303.723
303.706
303.649
303.61
303.55
303.374
303.373
)
;

boundaryField
{
    hotSide
    {
        type            fixedGradient;
        gradient        nonuniform List<scalar> 
400
(
321.511
322.87
325.591
329.677
335.133
341.965
350.181
359.788
370.794
383.208
397.037
412.289
428.971
447.088
466.647
487.651
510.105
534.011
559.372
586.191
323.738
325.08
327.767
331.802
337.194
343.949
352.078
361.591
372.498
384.81
398.537
413.687
430.268
448.289
467.755
488.672
511.043
534.872
560.161
586.913
326.149
327.47
330.116
334.091
339.406
346.071
354.099
363.503
374.296
386.491
400.101
415.136
431.606
449.52
468.885
489.706
511.988
535.735
560.948
587.63
328.704
330
332.597
336.503
341.73
348.292
356.205
365.485
376.15
388.215
401.695
416.604
432.954
450.753
470.009
490.73
512.919
536.579
561.714
588.325
331.33
332.599
335.142
338.97
344.099
350.546
358.332
367.477
378.003
389.928
403.271
418.047
434.27
451.949
471.095
491.712
513.807
537.382
562.439
588.978
333.918
335.158
337.643
341.389
346.414
352.74
360.392
369.397
379.779
391.562
404.765
419.407
435.503
453.065
472.101
492.618
514.622
538.114
563.096
589.569
336.321
337.531
339.959
343.622
348.544
354.751
362.274
371.142
381.385
393.031
406.101
420.618
436.595
454.047
472.983
493.409
515.33
538.747
563.663
590.076
338.36
339.543
341.92
345.509
350.339
356.44
363.847
372.595
382.718
394.244
407.2
421.608
437.485
454.844
473.695
494.045
515.897
539.253
564.114
590.478
339.852
341.015
343.352
346.885
351.645
357.665
364.985
373.643
383.675
395.113
407.984
422.312
438.116
455.407
474.197
494.491
516.294
539.606
564.428
590.758
340.643
341.795
344.11
347.613
352.334
358.311
365.584
374.193
384.176
395.567
408.393
422.679
438.443
455.699
474.456
494.722
516.498
539.788
564.589
590.901
340.643
341.795
344.11
347.613
352.334
358.311
365.584
374.193
384.176
395.567
408.393
422.679
438.443
455.699
474.456
494.722
516.498
539.788
564.589
590.901
339.852
341.015
343.352
346.885
351.645
357.665
364.985
373.643
383.675
395.113
407.984
422.312
438.116
455.407
474.197
494.491
516.294
539.606
564.428
590.758
338.36
339.543
341.92
345.509
350.339
356.44
363.847
372.595
382.718
394.244
407.2
421.608
437.485
454.844
473.695
494.045
515.897
539.253
564.114
590.478
336.321
337.531
339.959
343.622
348.544
354.751
362.274
371.142
381.385
393.031
406.101
420.618
436.595
454.047
472.983
493.409
515.33
538.747
563.663
590.076
333.918
335.158
337.643
341.389
346.414
352.74
360.392
369.397
379.779
391.562
404.765
419.407
435.503
453.065
472.101
492.618
514.622
538.114
563.096
589.569
331.33
332.599
335.142
338.97
344.099
350.546
358.332
367.477
378.003
389.928
403.271
418.047
434.27
451.949
471.095
491.712
513.807
537.382
562.439
588.978
328.704
330
332.597
336.503
341.73
348.292
356.205
365.485
376.15
388.215
401.695
416.604
432.954
450.753
470.009
490.73
512.919
536.579
561.714
588.325
326.149
327.47
330.116
334.091
339.406
346.071
354.099
363.503
374.296
386.491
400.101
415.136
431.606
449.52
468.885
489.706
511.988
535.735
560.948
587.63
323.738
325.08
327.767
331.802
337.194
343.949
352.078
361.591
372.498
384.81
398.537
413.687
430.268
448.289
467.755
488.672
511.043
534.872
560.161
586.913
321.511
322.87
325.591
329.677
335.133
341.965
350.181
359.788
370.794
383.208
397.037
412.289
428.971
447.088
466.647
487.651
510.105
534.011
559.372
586.191
)
;
    }
    coldSide
    {
        type            mixed;
        refValue        uniform 300;
        refGradient     uniform 0;
        valueFraction   uniform 0.991591;
        source          uniform 0;
        value           nonuniform List<scalar> 
400
(
300.018
300.019
300.019
300.02
300.02
300.021
300.022
300.022
300.023
300.024
300.024
300.025
300.026
300.026
300.027
300.028
300.028
300.028
300.028
300.028
300.019
300.019
300.019
300.02
300.021
300.022
300.022
300.023
300.024
300.025
300.025
300.026
300.026
300.027
300.027
300.028