/*--------------------------------*- C++ -*----------------------------------*\
| =========                 |                                                 |
| \\      /  F ield         | OpenFOAM: The Open Source CFD Toolbox           |
|  \\    /   O peration     | Version:  2212                                  |
|   \\  /    A nd           | Website:  www.openfoam.com                      |
|    \\/     M anipulation  |                                                 |
\*---------------------------------------------------------------------------*/
FoamFile
{
    version     2.0;
    format      ascii;
    arch        "LSB;label=32;scalar=64";
    class       volScalarField;
    location    "./ITHACAoutput/true/9.4";
    object      error;
}
// * * * * * * * * * * * * * * * * * * * * * * * * * * * * * * * * * * * * * //

dimensions      [0 0 0 1 0 0 0];

internalField   nonuniform List<scalar> 
3200
(
-0.557594
2.36494
3.36565
2.81928
3.39943
2.84814
2.43383
3.94294
2.76167
4.47586
4.49077
4.70365
2.50711
3.45102
3.93107
4.17569
5.01599
1.03036
-0.105179
-1.52069
1.24535
0.64596
1.48566
1.846
3.96836
2.90537
3.83004
4.63476
3.35313
1.5161
5.21263
2.04202
1.58898
3.15118
4.07248
3.69115
1.84865
3.41931
0.859874
0.195689
-1.33549
0.849041
2.16661
2.27552
1.84298
3.83169
0.852341
2.8699
2.51912
3.07912
3.42318
2.58147
-0.116248
2.09175
1.20481
3.63674
3.52797
2.68194
0.211018
-0.943104
-1.55593
0.651501
1.21965
2.05183
3.00213
2.06821
2.01381
4.10314
1.71546
1.76767
1.6507
0.899851
2.53629
2.36245
2.93097
1.02704
0.724934
2.44434
1.27108
0.574588
-0.918127
-0.592715
1.83141
3.12428
2.11299
2.3724
1.40134
2.43822
1.54135
1.08459
0.562654
3.67803
1.46705
2.89452
2.49516
1.81626
2.39208
1.38973
-0.328639
1.75412
-1.18876
-2.27432
0.939938
2.33081
0.954025
3.34562
1.29624
-0.166061
2.35049
-0.207946
3.19668
0.41916
-0.591394
2.23775
1.85165
2.94166
0.678327
0.198713
-1.33648
1.38529
1.8155
-0.68841
-1.23263
0.664602
4.04122
1.92415
0.297288
0.405834
0.391954
-0.978625
2.06452
0.826333
0.377805
0.311483
0.825594
0.743664
0.504557
-0.69364
1.46389
-0.761332
-2.4856
-0.0269858
-0.11676
1.27357
1.40101
0.886681
-0.532247
0.556058
0.22395
-0.404397
1.31683
-0.49279
0.863744
0.44581
-0.648131
1.68977
-0.134541
-0.176534
0.422511
0.459461
-3.45625
-0.611492
0.779385
1.8271
3.47582
1.95048
2.52044
3.17643
4.4468
3.63066
3.72964
2.07804
2.61478
3.53624
2.84152
3.29911
3.97799
2.71137
0.398258
0.397663
0.610096
-0.300061
0.797486
-0.564992
1.79389
0.425083
2.57617
0.166637
2.1331
-0.207968
0.29679
3.78451
0.200827
3.39705
0.272369
2.54128
0.378554
0.879821
-0.728182
-1.91806
0.918834
0.646606
2.46614
2.80825
1.9523
2.86125
2.32638
-0.00190409
2.8893
1.75023
2.48778
0.581842
1.37608
2.57808
0.869013
2.89677
1.23384
0.129881
-0.211929
1.5597
1.52566
1.30753
0.59641
0.731452
2.53519
3.87421
4.54318
2.24078
0.321611
0.828023
2.49337
0.770551
1.9746
1.55443
2.10139
2.90856
1.63987
0.867662
-1.05701
-1.05547
0.510346
0.769036
1.29703
2.21571
0.95456
1.48998
1.08479
2.72718
1.01267
-1.19928
2.3229
1.31494
0.462321
2.06792
1.65844
3.29075
0.345063
-0.661151
0.726592
1.50276
-0.584226
1.96224
-0.0230607
1.91701
0.574952
-0.152188
0.446643
1.55967
2.88515
2.18779
1.62885
1.79224
1.20358
2.09699
0.424795
0.216992
1.68367
1.09641
1.06868
-1.42072
-0.574389
0.423026
-0.755143
-0.146913
1.21233
1.7945
1.99429
0.46428
0.00833547
-0.54701
0.199208
-0.0104473
-1.15782
2.40952
0.363686
2.25784
-0.468071
1.37504
-1.25606
2.39737
1.98309
-0.806339
0.119726
-0.086559
1.72218
-1.24994
1.30404
1.25523
-0.470669
-0.121832
-0.867239
2.07485
1.28503
-0.0637202
0.463544
0.593488
-0.462383
1.04836
-0.612762
0.58961
-0.605182
1.44383
2.19152
-0.0456871
5.2547
1.02379
3.85629
2.67585
1.61196
0.7754
3.18034
1.80013
1.69506
2.55149
3.73192
3.85937
1.45151
-0.853986
2.88142
-0.500635
2.12878
1.82808
3.28398
2.86853
4.11363
-0.698998
2.0003
0.82896
4.06766
1.59302
0.399095
1.80524
1.62562
2.35003
1.91764
3.08958
0.793122
3.79448
0.817311
-0.581638
-0.299256
-1.03242
2.73775
2.21671
3.87834
1.42914
2.09996
3.05554
3.1775
2.4126
1.52438
0.589202
1.21484
1.89886
1.21024
1.40877
2.61633
1.37964
-0.524876
-0.877624
0.461122
0.262585
0.622071
2.96743
-0.253424
2.44774
0.72148
1.82295
2.28141
1.40202
3.03436
3.44025
0.233481
1.08135
1.40082
1.4106
0.94428
3.48569
0.745866
0.669691
0.265369
-2.58952
1.67607
2.53447
2.45614
2.17944
0.711259
0.504296
2.24841
2.22375
1.71535
0.191819
-2.25037
1.37065
2.42389
1.38741
1.83039
-1.80613
0.884108
-0.275612
0.134246
2.68465
3.05354
0.234698
0.804766
0.432165
0.784767
2.3696
0.941894
-0.946295
-0.459996
-0.533032
1.01431
0.733913
-0.863065
0.405374
1.30872
0.767599
1.62237
-0.347291
-1.87388
1.64388
1.55802
1.07821
0.0630364
0.941363
0.173284
0.949797
-1.27395
0.942444
1.90824
1.66161
0.321099
-0.228925
2.10825
1.86907
2.16101
0.824671
2.59991
-0.10924
-0.0648029
0.889417
2.28832
-0.144067
-0.943699
0.779458
0.89639
2.16621
-0.0706539
-0.933294
-1.09085
-0.44948
1.57825
0.244161
0.400157
-0.385932
-1.09975
1.27351
2.0871
-0.284335
-0.758687
1.49057
1.51724
3.41794
2.26908
2.34751
-0.176817
0.960009
0.89007
0.328914
0.0862781
0.147749
1.41973
4.05779
1.58033
0.90316
0.986995
0.267382
2.75185
-0.646942
-3.9623
-0.387661
1.84309
0.296049
0.926917
0.277555
1.73743
0.12576
2.07926
0.0287672
0.231841
1.37583
0.0526605
0.395761
-0.627047
2.48892
0.473088
2.23398
-0.155087
-2.19638
-1.49862
1.55206
-0.236517
2.53574
1.72367
1.48814
3.68997
1.04277
2.98116
1.0172
0.82679
2.05835
0.146051
0.342542
-0.653514
-0.433329
2.53747
2.62254
-0.0588507
-0.779086
-0.939086
-0.0718819
0.166991
1.16268
1.59032
3.59868
1.69197
1.20404
2.06588
2.82862
-0.279921
-0.0541451
0.956252
1.84211
-0.0269987
0.229544
1.20451
2.48512
0.186713
0.520559
0.406934
-0.37914
-0.0993448
-0.170043
2.33611
1.13421
4.29905
-0.0183389
-0.190913
1.10537
-1.12939
0.50824
1.22521
-1.30736
0.437207
1.3072
1.19158
-1.02005
-0.130121
0.231194
-0.721909
-0.516751
-0.540356
0.683193
1.58809
3.81463
-0.110585
3.2364
-0.994477
1.12207
1.08805
-0.275783
-0.0813675
0.701513
-0.0793602
0.484665
0.568045
1.85181
0.76353
1.15406
-0.55115
-0.543593
0.560315
0.0444513
1.14956
-0.441482
0.0717465
0.0671529
2.24262
-0.430495
0.380347
1.14632
2.1836
0.64161
0.788253
-0.723534
0.26656
1.42593
-1.08097
-0.304622
-2.24268
-0.848954
0.347134
2.01074
0.0939762
-0.537677
-1.25921
1.74151
-0.810192
-0.108139
-0.959862
1.23731
-1.42674
1.88257
-0.153112
1.5264
-2.62566
0.117317
-0.420107
0.544329
-1.1959
-0.045239
0.808397
2.02423
0.578916
3.80415
0.567451
2.48088
1.60095
0.154959
1.40905
0.0588037
-1.09155
1.54068
0.145125
0.52583
1.74738
-0.580092
0.447736
-0.71907
-2.18838
0.634899
0.731268
2.02784
2.04657
1.45141
3.61633
0.49084
2.6214
0.99969
1.34184
-1.73665
0.505052
2.77343
1.48808
0.0233054
2.31328
0.225612
-2.62709
-2.16754
-1.36715
0.596383
0.200758
1.7464
2.97705
2.99365
0.652749
1.83669
2.33525
0.16708
1.3031
-1.47518
0.162477
1.85882
2.54312
0.748929
-1.17685
3.33378
-0.0128732
-1.82965
-1.25232
1.19487
1.38082
2.61919
1.3515
2.69304
2.12076
2.22403
0.240093
0.584952
0.0128199
0.906529
-0.747291
0.0927221
1.26521
0.296495
1.62314
0.576995
-0.199246
-1.21541
-0.595673
-0.91074
1.11847
0.698582
0.578207
1.3895
2.53356
1.31259
0.421854
-0.0880625
-0.547129
0.307634
-0.0462876
-0.278847
-0.320695
1.06239
1.52491
0.956697
0.0637549
-0.0802859
-1.41604
0.360637
0.552011
0.345875
2.9237
-0.866705
0.573977
0.11564
-0.199473
0.44119
-1.39435
0.397502
0.894896
2.6938
1.49071
0.0980363
-2.16758
0.577068
1.92151
-1.12452
-1.40654
-0.808494
0.414365
-0.277399
0.924502
-0.978876
0.440363
0.510978
0.191308
0.942845
-0.482714
0.0360789
0.919991
0.972295
-0.153678
2.23459
-0.479779
-0.711787
1.23965
-0.658237
0.62856
0.238797
-0.0877891
0.519142
0.660381
0.884176
-1.0526
-0.994748
2.09744
-0.425277
-0.177392
0.783415
-0.370388
0.678539
-0.746559
-0.0653812
0.687369
-0.692012
-0.324168
-0.961786
-1.56604
-2.5939
0.240059
0.305824
0.623556
1.55915
-0.525102
-0.756072
-0.293673
-0.477527
-0.387017
0.464226
0.138431
-0.242701
-0.97316
-0.446772
0.0224769
-0.516762
0.661975
-1.85464
-2.52891
0.48145
0.805995
0.410693
-0.26672
-0.0215411
0.171783
-0.516609
-1.14326
-0.0470887
-0.443662
-0.779959
0.768805
0.314708
-0.296707
-1.62087
-0.213837
0.198085
-0.25851
-1.75666
-0.948209
-1.59824
1.68284
1.95529
0.386737
1.76154
0.096481
1.07165
1.19321
0.903181
0.462547
-0.558928
0.699483
-0.741399
-1.6801
2.1452
0.460705
0.611106
-0.733791
-1.75574
0.201806
-1.48051
0.182069
0.382749
1.10837
2.57378
0.328092
2.28174
0.817622
-0.652451
-2.23508
-0.722758
-0.21193
0.23822
-0.70716
0.617272
0.189959
0.314182
-0.604392
-2.00809
0.468828
0.906564
0.482936
0.145208
-0.077268
-2.0499
0.956646
-0.230124
-1.48634
0.0285189
1.91879
-0.42102
-1.46654
-0.358039
0.0520646
1.32003
1.50704
1.02684
0.222071
-1.67073
0.349229
1.34762
1.26118
0.634915
2.07902
-0.284764
1.77086
1.55051
-0.588533
0.394535
0.512948
0.460654
-0.88099
-0.223046
0.246505
1.64516
1.49282
1.54349
0.483788
-0.281792
-0.988144
-0.367879
-1.86173
1.25198
1.70009
-0.966425
0.187191
0.33654
-1.83206
-0.184842
-1.31449
0.552151
-0.374632
0.915828
0.681863
-2.38039
0.186087
-0.451726
-0.265073
-1.34409
-2.16239
1.33341
-2.30838
-0.884819
-1.12898
1.6338
0.170475
0.0785961
-0.177845
0.266284
0.584531
1.67481
-1.3878
-0.45712
1.37119
0.619603
-0.941024
1.07095
-0.889437
-1.53911
-1.5166
-3.08218
0.946162
-0.230459
-1.41196
0.341274
-0.606452
-2.31301
-2.04696
-1.64989
-2.96673
-0.340512
-1.20513
-1.0046
0.567898
0.800841
-0.764473
0.0391071
-0.747362
-5.00097
-2.6828
-1.8672
0.940794
2.80737
0.493786
0.209735
2.62681
0.158677
-0.075937
-2.53193
0.435449
-3.00382
-1.87825
-0.186345
-0.167663
0.221219
0.691076
-1.98774
-1.70634
-2.64394
-2.75006
-0.884841
0.00270392
0.514525
0.47531
1.44539
1.34424
-1.21964
0.410501
-1.06933
-1.19502
-2.83515
2.11084
-0.773467
2.4554
0.00252856
-1.16089
-0.389204
-1.69627
-2.56987
-1.20168
-1.31793
-0.870467
0.381586
-0.340079
1.01939
-1.53213
-0.37953
0.510341
1.45285
-1.25397
0.332616
-0.913123
-0.958222
-1.78905
-1.37815
-0.601424
0.89367
-2.09651
0.135035
-3.84524
0.170659
0.779726
0.518916
-0.914719
-1.29105
-1.06754
-0.960604
0.0781737
0.347604
-0.734157
1.54293
-0.268015
1.24123
-0.604325
-0.500707
0.895962
-0.446196
-1.08987
-1.5878
-0.988028
-0.895689
-0.464522
1.21883
1.15865
1.11883
1.68956
1.0244
0.475483
-0.0379026
0.381348
-1.33073
-1.38745
-0.400832
1.59683
0.985039
-1.23268
0.265335
-0.0982285
-1.85775
-0.206353
-1.67069
1.07496
1.69196
-0.510107
0.0164031
0.513538
1.07435
1.9178
1.40392
0.507909
0.450023
0.579347
0.268316
0.338611
-0.595065
0.716626
3.74704
1.51515
-1.39194
-0.925955
-0.150537
0.776989
0.706339
-0.39668
-1.22421
-1.18109
0.293146
0.555583
0.922011
1.85048
-0.0839707
-0.372602
-1.41962
2.09897
0.389487
0.877233
-1.52838
-2.63038
0.0359055
-2.08686
-1.78579
-0.246856
-1.14561
0.902617
-2.86286
0.547885
-1.44938
-1.50016
-1.86269
-5.71881
-3.88701
-0.625769
-3.41882
-1.45493
-1.04301
0.254369
-2.42164
-2.07819
-1.95319
-0.501074
0.0431391
0.294651
0.00493569
1.74214
0.491126
-1.77389
0.383323
-1.38046
-0.235444
0.196331
-2.96022
0.0122689
-2.61865
-0.205628
-1.60343
0.0347691
1.01645
-0.120675
-4.72953
-1.36829
-0.31468
0.67318
1.87942
0.429386
1.18535
-0.00454531
1.27524
-0.816157
-4.07269
1.22946
-1.28703
-1.00997
-1.00687
-2.16903
2.06648
0.993165
-0.0894155
-1.90111
-2.04787
-0.54547
-1.47592
0.251102
1.48716
-0.423797
0.155381
0.849526
-0.776057
-1.27718
-1.69521
0.00348744
-1.76011
-1.6999
0.849915
0.505149
-0.517444
-2.43184
0.597937
-2.27197
0.01357
-0.15174
-0.758771
-1.04584
1.3804
-0.256445
0.61158
0.614664
-1.75406
-0.360486
-0.657196
-1.19786
0.175769
-1.08926
-2.63474
0.169611
-0.120656
-0.589484
-2.03901
-0.136792
-1.54196
-0.967634
0.592195
0.499445
1.94355
0.235527
0.211029
-0.0865964
-0.382546
-0.801992
-1.10026
-0.824614
-0.561311
-1.4703
-2.34727
0.401373
0.00055428
-0.11116
-1.10469
-1.88807
-1.89071
0.380845
0.833592
-1.43622
-0.846735
2.9565
-0.835298
-1.02202
0.522761
-1.38377
-1.05384
0.120539
-0.514094
-1.28717
-0.702625
2.11756
2.17705
-1.04484
0.58279
-1.36893
-0.450987
-1.03045
0.565479
0.566127
0.280682
0.391671
2.75933
0.39017
-0.308587
-0.361798
0.710667
1.11056
-0.865461
1.7256
0.526686
0.214511
-1.08223
-0.816907
-0.802302
1.04438
-0.348266
-3.61994
-2.33254
-1.009
-0.28731
1.06666
-3.02105
-2.11814
-1.63659
-2.86457
-1.42905
-3.73542
-3.08936
-1.80409
-1.58954
-2.50474
-1.6684
-2.27971
-0.732245
-0.947381
-3.21396
-2.22742
-0.798375
-1.34363
0.609579
0.541827
-0.630076
-1.60593
0.348625
-2.41828
-2.64436
-0.847219
-3.31798
-1.67272
-1.21278
-1.9244
-1.73499
-0.943519
-2.56338
-2.90452
-4.89929
-3.28127
-1.05836
-0.00380379
-0.221405
1.38434
0.565378
1.7441
-0.607219
-1.32723
-2.34778
-1.92468
-1.90941
-1.09389
-0.695285
-1.66141
-3.2615
-0.0482608
-1.01158
-0.563595
-1.20967
-0.311813
-1.25838
-1.00321
-2.24479
-0.225011
-0.341522
0.0742215
-3.12588
1.10923
-0.860135
-3.41323
-1.95501
-2.40667
0.166369
-0.855653
0.574197
0.645512
0.171305
-2.95581
-3.27853
-1.77984
0.101853
1.90077
-1.3008
1.59121
-0.337558
-1.24849
0.289157
-0.971675
-1.23171
-1.46181
-0.835313
0.519677
-2.63691
0.0131521
0.327977
-2.16903
1.14708
-2.27831
-2.36208
-1.5353
-0.880094
0.791889
0.839793
0.234572
0.0246999
0.896722
-1.3945
-2.34076
1.8474
-0.348493
0.0019124
0.217573
-0.461279
-0.111688
-1.55472
-0.251381
-0.483433
-0.44127
-3.87867
-0.362865
1.02333
0.982636
1.49854
-1.73331
-0.373893
0.0867296
1.10117
0.661883
1.33236
2.10662
-0.541045
-0.68797
1.44841
-0.0434651
-0.415452
0.394208
0.984283
-0.78488
-0.908916
-0.941464
0.778545
-1.82237
-1.87693
0.300491
0.299577
-0.873913
0.15876
0.146924
1.46703
-0.801414
0.89982
-1.20493
-0.291855
0.0538024
-0.671017
2.0365
0.24729
0.285187
0.206585
-3.39548
-3.03445
-1.43466
-0.505232
-0.927987
-1.67662
-1.07412
-0.785017
-3.36086
-4.21297
-4.42727
-3.1949
-2.96053
-0.13821
-0.338278
-2.59713
-0.461221
-1.01918
-1.84212
-4.48893
-2.7357
0.0881083
-1.4616
0.227618
-0.626933
-0.00171603
-1.51555
-0.0174746
-1.18842
-0.128961
0.310013
-2.15135
-0.208857
-2.26721
-0.378596
-2.21487
-0.739799
-0.240363
-0.28499
-4.60864
-2.50743
-1.90405
-0.97808
-2.03725
-3.12174
0.677407
-0.442933
-0.44048
-0.503603
-0.413797
-1.09199
-3.08339
-0.816714
0.399205
-2.48153
-1.94344
-1.53714
-1.87886
-2.23486
-3.56301
-1.8403
-1.80117
-2.10694
-0.0426004
-0.780719
-1.6542
0.133164
0.155388
-0.563744
-1.06162
-1.2811
-2.80734
-0.124026
-0.748885
-1.02343
-0.653955
-2.72013
-1.42529
-1.34459
-0.648411
-1.74887
-1.72439
-0.159252
-0.667799
0.695142
2.15255
-0.7639
-0.186059
-0.966616
-0.819661
-0.334746
0.374155
-2.08356
1.49078
0.724359
-0.441279
-0.447482
-2.16995
-1.08949
-3.4834
-1.33781
-0.0114677
0.944768
-0.859733
-1.2798
-0.217829
2.81791
-1.58822
-0.585373
-1.972
-2.42007
-2.00167
-1.38561
1.10344
-1.26158
0.242584
0.455219
0.163634
-0.699173
-0.902335
-1.14319
-0.0416962
1.12215
-0.0453054
-0.324547
0.448538
-0.645588
-1.26817
-0.119856
-0.619606
-1.08097
-1.98311
0.276231
1.93897
-0.166112
-0.391802
-2.1996
-1.16125
0.0945658
0.441595
0.509824
-0.325958
-0.857186
0.103334
0.57624
0.483691
-0.281551
-0.873854
-1.21747
-0.677889
0.853236
0.496412
-0.64457
-1.58685
1.15692
-1.90539
0.787013
-0.382563
-0.722363
-1.06094
-4.41379
-1.33843
-1.709
0.306884
0.354801
-0.282039
-0.909423
-2.58422
-3.2966
-3.20758
-3.77526
-1.90779
-1.63653
-2.55781
-2.28419
-2.44494
-3.01645
-2.16657
-2.07948
-4.74603
-3.22389
-0.245144
-1.55252
-0.275152
2.62269
0.182432
-0.853029
0.298552
-4.29057
0.282147
-0.699517
-2.48175
-0.835608
-1.54373
0.150593
0.259901
0.0319296
-0.966353
-0.245562
0.278536
-3.4954
-1.04109
-1.60343
-0.250236
-0.596891
-0.592194
-1.85293
-2.93327
-1.07968
-3.20699
-1.9513
-2.69104
-2.63639
-2.18851
-0.713225
-0.0161595
-0.38953
-2.24242
-1.06997
-3.84726
-1.90842
-0.556591
-0.896334
-1.60999
1.32615
-1.47175
-2.12552
-1.19895
-1.37063
-1.66943
-0.283898
1.99056
-1.66363
-3.05242
-0.183136
-1.69259
-1.73754
-2.22674
-2.41767
-1.99663
-1.15183
-2.13839
0.0620767
-1.53852
-0.312304
-0.00882789
-0.952589
-1.56448
-3.00113
-0.319923
-1.51645
-0.0165241
-2.09059
-0.503293
-0.1658
-0.945183
-1.44168
-0.480464
-0.601832
0.122678
1.35187
0.4409
0.9858
1.26309
-0.823531
1.15158
-1.00484
-0.5412
0.082595
-0.254721
0.397283
0.168186
-2.46467
-1.11435
-3.24272
-1.50451
-0.190752
0.397525
-2.15318
-1.54304
-1.77085
-1.2957
-0.694248
0.951152
-0.0299591
-1.25557
2.37393
-0.737433
-0.797141
0.486983
0.577919
-0.399852
-0.258096
-1.89873
0.569036
-2.24792
0.178143
-0.64376
0.244534
1.2359
0.645938
-0.283751
0.459341
-0.444512
0.214043
3.01146
-0.363589
-0.0687902
0.794871
-0.808742
-1.814
-0.348081
1.37114
0.672823
-0.204221
1.4518
-1.03577
-0.493705
-1.02171
0.532228
-3.16831
-2.92773
-1.81049
-1.24666
-1.35955
-2.39667
-3.46262
-0.419442
-0.942992
-3.47225
-3.00186
-3.55217
-4.27471
-0.190559
-3.92927
-4.49975
-2.6141
-1.68183
-0.376053
-4.34924
-2.68119
-2.38895
-1.9096
-2.00475
-1.99556
-2.56926
-1.62908
-2.16685
-2.40821
-2.1277
-1.02882
-4.05677
-1.76934
-1.06653
-1.98542
-2.06168
-1.18864
-1.99476
-5.50581
-2.64585
-2.15325
-1.05115
1.07841
-0.569928
-0.273623
-0.19479
-1.51924
-0.982008
-0.473232
-0.434431
-0.583074
-2.39081
1.5298
-1.60809
0.300119
-2.02121
-0.656306
-3.26937
-1.87634
-0.238144
-1.69196
-1.23452
-1.01061
1.40049
0.233783
1.49935
0.485807
-0.289128
-1.33569
-1.25038
-2.89447
-0.827092
-3.22011
1.66135
-2.43887
-0.975203
-0.844221
-2.29665
-2.49968
-3.31613
0.573156
0.219668
0.755163
-1.00519
-0.123415
-0.758047
-0.0935308
-0.827407
0.669364
-0.681228
-1.39538
-2.84408
-1.41315
-0.353231
-0.696743
0.46736
-0.55309
-1.94214
-1.89241
-1.82006
-2.33862
-0.243683
0.0396938
-0.85522
-0.157738
0.38218
-1.34757
0.220308
-0.565338
-0.814172
-0.408692
-0.178904
-0.293628
-1.2566
0.98787
-0.528214
-3.05896
-1.09666
0.556806
-1.49193
-2.81212
-2.42062
0.0292559
0.460902
-1.3982
0.292219
-0.0636516
-0.908639
0.0628937
-0.158535
-2.3033
-1.16573
-1.16715
0.652719
-0.87065
-0.74454
-0.0659089
1.93517
0.444184
-1.42733
0.778307
0.32958
0.656555
-0.42746
-0.439991
-1.40461
0.00670694
1.55925
-1.08051
0.0155924
-0.0356174
-1.54135
1.09456
-0.294166
0.0380121
-0.86559
0.00476572
-1.02076
-0.0846231
-2.10936
-3.329
-2.8817
-1.85498
-2.89648
1.86107
-0.0901145
-1.48617
-1.03067
-2.35782
-0.632133
-1.31151
-1.4345
-1.61009
-3.52841
-0.523967
-1.5501
-1.93814
-0.73349
-1.92398
-3.20008
-2.08918
-0.0544677
-1.14625
0.403182
-3.0588
-0.302706
-1.4036
0.204357
-3.57777
-0.0553012
-0.118273
-2.41271
-0.196308
-2.43961
-0.288486
-4.17861
0.165904
-1.5592
-0.311873
-3.08926
-2.10092
-0.245452
-1.40417
-0.150749
-0.747253
-0.148831
-1.32774
0.121813
-3.29488
0.654813
0.574856
-2.07063
-2.36753
-1.96159
-1.93236
-2.73797
-1.10233
-0.845784
-1.57689
-2.25919
-3.22797
-1.20099
-0.605903
0.445526
-1.73354
-0.106992
1.26804
0.118862
-1.44384
-2.16677
-1.10094
-3.06311
-1.64004
1.44022
0.663049
-1.1073
-3.14891
-0.254166
0.0712003
-2.20187
-0.923825
0.20798
-0.0925373
-1.29811
-1.8448
-0.0506783
-1.41138
-0.337406
-0.433662
-1.10968
-3.52811
-3.05392
-0.572353
-1.59269
-0.0991759
-0.633176
0.170166
-0.668352
-0.811152
-1.83444
1.15976
0.529793
0.900754
-0.619612
-0.723517
-0.578931
-0.188224
-0.139608
-0.120037
-3.31719
0.539592
-0.605509
-2.18399
-2.42726
-0.155876
-1.0779
0.0853492
-2.21091
0.388216
-1.57411
0.784412
0.3582
-0.224097
2.18364
-2.28713
-0.108186
-0.762853
0.839252
-1.25784
-1.05173
-1.05375
1.11206
-1.86472
0.935299
-1.23399
0.760912
0.496759
1.80009
-1.5874
0.661426
1.78077
-1.25935
-0.0939327
0.293476
-1.23282
-0.371455
0.539334
0.39514
1.13437
0.215122
-0.406452
-0.223867
0.996723
-0.702513
0.52927
-0.916692
-1.89248
-0.436816
-2.59276
1.28511
-4.34534
-2.90991
-1.67024
-0.353125
-0.96214
0.0258724
-3.03571
-0.936219
-1.67144
-2.52695
-0.792139
-2.62995
-3.01336
-3.50845
-0.708776
-0.988935
0.176329
-0.677662
-1.78664
-2.55343
-2.09774
-1.95721
-1.20952
-0.944129
-0.51054
-1.06473
-1.6523
0.119948
0.22781
-1.20494
-1.82478
-2.16875
-2.89028
-1.71997
-0.197946
-0.431547
0.720347
-0.316052
-2.12193
-3.63043
-1.78579
-2.27624
-0.187112
0.712625
2.04406
-0.408248
-0.654625
-1.5492
-1.67288
0.123151
-1.90928
-0.571099
-1.09162
-0.733085
0.911052
-0.127994
-0.16133
-0.917628
-0.753193
-2.33983
-2.88016
0.174559
-2.38362
-1.27669
0.0533384
1.42358
-1.92516
-1.98112
-0.0722088
-1.58239
-2.00648
-1.65658
-1.01601
-0.0806325
-0.417374
-1.92079
-0.956935
-1.74888
-0.0924506
-2.31679
0.0398922
0.645163
2.51673
-1.22948
1.19529
0.0864666
-2.0457
-0.140096
-2.08461
-1.52066
-1.01147
-1.36855
0.55281
-1.22886
0.743074
-0.964718
0.393185
-0.445079
0.680099
-2.3387
-1.20439
-1.16836
1.23193
-0.30785
1.65509
-1.82637
-0.247601
-1.73682
-0.431246
-1.25963
-0.534118
0.750451
-0.901784
-0.554135
-0.828648
0.739188
2.19573
-1.0575
-0.556218
-2.96298
-0.0548745
-2.16681
1.15594
-0.499572
0.541482
0.899449
0.641269
-0.206716
-0.709645
-0.387722
-1.34306
-0.255382
0.571623
0.339728
1.7643
-0.862614
-0.286989
0.348546
0.918846
0.883661
1.15824
1.09492
0.696375
0.140889
1.56191
-0.575403
-0.969003
-0.638286
2.36785
1.40478
-0.748089
-1.73822
-3.01054
1.30516
0.473096
-0.434176
-0.511895
1.2013
-0.597115
-1.89746
-1.62807
-2.90229
-2.72647
1.22455
-1.09456
0.685824
-0.882355
-1.13101
-1.45374
-0.951229
-1.45815
-1.02487
-0.529793
0.343443
-0.6794
-1.29832
-2.52575
-2.81952
-2.3254
-1.91778
-4.99964
0.26196
-0.810441
0.182995
0.416169
-0.255234
-0.446427
-0.36716
0.19145
0.323431
-0.427643
-0.902639
-0.500002
0.184552
0.091002
1.77874
0.261196
-0.827781
-0.257857
-4.2138
-2.52126
-1.65585
-2.20732
1.029
0.234358
1.03902
1.3725
-0.359118
1.87113
-0.94526
1.0374
-1.41424
0.683703
-0.215111
-1.13439
-1.59016
-3.02378
-0.824661
-2.62708
-1.30195
-1.92851
-0.324727
-0.207564
0.729249
1.08786
0.43469
-1.08301
-0.565822
-0.0204679
0.347515
0.546764
0.0204826
1.06968
-1.81158
1.20935
0.904287
-0.452252
0.807236
-2.29452
-5.41259
-0.199887
-0.542675
-2.45458
-0.175978
-0.562234
-0.350654
-0.113953
-0.441987
-2.27212
-0.334568
-1.14531
0.168471
-1.24445
0.426839
1.15127
1.41101
-2.13041
1.13304
0.174532
-0.596332
1.31173
-1.70798
-0.0453427
-0.548572
0.556017
0.318978
-0.0193383
0.745845
0.506884
0.0112946
-0.803523
1.01091
-1.15623
-0.00844189
0.17646
0.90901
-1.90316
0.701441
-1.77708
-3.12206
-1.80404
-1.865
1.44215
0.399815
0.287418
1.85534
-0.825565
2.06601
-1.16767
-0.832623
-1.68821
1.24838
0.607992
-2.73413
0.303457
-0.00426668
-1.49204
-0.336892
-1.34208
-1.5308
0.256396
0.384926
-0.545248
0.91373
1.59435
1.16524
0.019799
1.44837
1.33385
-2.21127
0.306523
-0.341848
0.234276
-0.0994948
0.978668
-0.764445
-0.0340739
-1.77256
-0.236453
-1.38148
-3.00805
-1.00803
-0.502271
0.599753
-0.74729
1.18543
-0.141463
-0.018566
-0.605748
0.477963
-1.38565
0.741009
-1.08793
0.765057
-1.19226
2.71848
0.421155
0.00101309
0.357578
-2.88245
-1.67333
-1.98007
-1.53318
-0.153989
0.135804
0.914044
-0.867064
-0.0944993
0.527371
-0.690293
-0.623791
0.334956
-0.332153
-0.599896
1.00228
-1.69398
-0.527463
0.174347
-0.59414
-2.07841
-2.05726
-2.37208
0.124272
-0.391421
0.108817
2.84402
-0.00224626
-0.888954
-1.97479
-0.612851
-0.294408
-0.0311313
0.321783
0.361187
-0.650405
-0.996504
-0.425069
-0.196352
-1.57776
0.000715545
-2.80759
0.181639
-2.10302
1.60287
0.179611
0.44982
0.81494
1.95622
-0.694359
0.940545
0.120123
0.0850703
-2.92603
1.42377
0.431115
0.427305
0.18505
1.81475
-0.549031
-1.61357
-0.392899
-2.17847
-0.576941
0.0470591
1.23335
-0.899584
0.606268
-0.0691001
-0.324771
0.36645
0.563732
1.07172
0.762303
-0.189216
-1.86617
-0.678225
0.68464
1.17764
0.839878
-2.4009
-1.25578
0.164492
0.651651
0.441143
0.551259
1.6809
-0.00751636
1.09849
1.68145
2.24704
-1.33077
-1.07932
1.36253
-1.09128
0.462193
-0.0727193
-0.54518
-0.369716
-0.7777
-1.72066
-1.13624
0.686115
-0.185088
-1.2549
0.597286
1.5214
-0.0142855
0.859884
1.36241
0.314873
0.772172
0.616156
-2.06811
-0.946135
0.566491
-0.415201
2.22403
-1.07165
-1.30877
-2.2733
-1.70387
-1.96094
-1.32612
1.2201
-0.407662
-0.175818
0.523434
-0.824651
0.980916
-0.728751
1.61082
0.221898
2.65739
-0.826481
-0.360578
2.55871
-1.11297
1.26571
0.488905
0.214117
-0.216064
0.543056
0.411952
-0.283273
1.8147
1.76566
0.378769
1.55087
0.549644
-0.715722
-1.91453
-0.0882986
0.951959
1.05968
0.50378
1.12514
2.78828
0.718229
-1.33006
-2.10325
0.419222
0.132661
-0.550395
-0.275677
3.33342
-0.0578108
0.403141
-0.0119995
0.984486
-0.166332
-0.0511243
0.821649
-0.178975
1.64113
0.0323814
1.34426
-0.0805465
0.275523
0.0132023
-1.83545
-1.77384
0.657004
1.03395
1.1357
0.468203
-1.53449
-0.960335
0.818864
0.948641
2.92973
-0.223219
0.124974
-0.0490528
2.83743
0.114736
-0.184835
1.53042
-1.29327
-0.49582
-1.36386
-3.33984
-0.668073
0.324979
0.223926
1.62208
2.23279
1.43042
0.492844
-0.0178852
-0.627652
0.392768
-0.0518099
0.905409
1.67701
1.78145
1.36378
0.0155865
0.104225
-0.902725
0.610464
-3.31737
-0.490468
-1.03083
2.16404
-0.468244
1.92514
-1.25094
0.84005
0.197302
0.34235
-0.411405
-2.52407
-0.355942
2.79315
-1.15965
0.384739
0.551736
0.629379
1.19812
0.0719095
-1.65742
0.145239
-0.107551
0.585024
0.193103
0.913089
1.04219
0.0902785
-0.179338
0.670613
1.52855
-0.487798
1.28371
1.96931
1.58428
1.04394
3.73627
-0.0541501
1.95743
0.672049
-1.55096
-0.263723
0.31902
0.301894
1.5275
-0.254075
-1.28933
-1.92384
0.983699
-0.579274
0.961597
-0.786752
-0.801105
1.54206
1.15415
-1.69868
-0.45212
1.26487
0.616874
-0.61907
-0.643397
-1.23499
1.77158
-0.676712
-0.119552
0.868611
-0.0714309
-1.9724
-1.33398
-0.667547
-0.754818
2.12866
0.564364
-0.436805
-0.0368465
1.60905
-0.877654
-1.15839
0.809214
-0.958976
-0.634592
0.762338
2.39911
0.344598
2.93763
1.64086
0.723662
2.16265
0.105274
0.955561
2.19907
2.06555
1.61164
0.0273204
0.297454
2.47369
1.63389
1.02199
1.21871
-0.955678
-0.563372
-0.349339
0.312089
2.41846
3.02475
1.52298
3.35948
1.40847
1.72422
-0.274587
0.970942
0.46323
1.25899
0.126188
2.82152
2.63184
1.4465
1.40978
-2.00948
-1.48962
0.415996
-0.178935
1.24232
-3.86479
-0.244905
2.05102
1.19193
-0.122137
1.65195
2.29041
2.32853
-0.656634
0.466261
2.10394
2.16159
1.94507
0.366092
0.273642
-0.518486
-1.56632
1.67363
-0.788036
0.315706
-0.380647
1.88373
-0.458555
-0.365327
2.1473
-0.10494
-0.393695
1.75467
0.393834
2.63444
2.3567
-0.0355252
1.20401
1.42729
-0.608146
-0.767455
0.116251
0.18713
0.541121
-2.68509
0.747331
0.500501
1.40038
3.35646
0.0657751
1.62208
-0.0290808
-0.45404
-1.5438
1.7485
0.654945
1.84423
1.4935
2.43368
1.72257
-1.10422
-0.48159
-0.721906
0.355237
-0.0851397
0.707068
1.81013
1.77146
0.239673
2.68198
1.00117
-0.765477
-1.14596
0.929408
1.73446
-1.75241
1.18004
0.146973
0.100397
1.10016
-0.997243
2.39266
0.132009
-0.908019
1.26789
0.69492
-0.158176
-0.522577
-0.732855
0.595915
-0.179725
-0.974374
-1.17333
0.648904
0.312643
0.773851
-0.610457
-0.150255
2.77937
0.232432
-1.17028
2.35484
-0.242877
3.27682
0.37459
-0.211189
-0.980716
-2.35614
0.988721
-0.441777
2.04562
-0.173112
-1.2694
0.633627
0.530781
-1.38055
-0.380123
-0.948354
-1.14383
0.99042
0.945762
-2.21907
1.23979
-0.0429376
1.06592
1.70023
2.12502
1.23251
1.45398
2.41001
4.09961
1.37134
3.12654
3.77416
2.70469
3.64974
5.24438
2.40336
0.505017
3.56277
-0.343146
1.79979
-0.221855
0.553422
2.15944
0.152491
2.83524
0.192041
1.37065
0.406976
1.32959
0.077269
0.162968
1.51371
0.358437
3.08271
0.516697
2.07876
0.463516
1.86508
0.225739
1.5792
0.818193
0.835853
0.38559
1.60108
2.0434
3.83258
3.26478
4.58058
2.45143
1.20471
2.63258
3.85626
4.23959
1.56028
0.63217
0.2946
2.58579
2.4414
0.00952219
3.68538
0.147672
1.87077
1.20387
1.89519
2.12805
2.38214
0.936668
2.66608
2.5936
2.881
2.02541
1.78881
2.61448
3.21365
0.944262
1.86018
0.699224
3.73733
1.35898
-0.421921
1.63417
-0.99165
0.395042
0.0497109
-0.281189
1.62949
0.0984107
2.06211
3.08934
1.9436
2.21946
1.52684
2.97307
1.61947
-1.78007
0.431167
0.185817
1.71296
0.284461
1.274
0.756161
0.134886
0.0312559
0.714542
0.195994
-1.73918
0.128465
-0.212891
1.25971
1.11488
0.481637
-1.7826
1.59981
0.0183829
2.34511
-0.506666
1.76297
-0.852591
0.899389
0.438555
-2.71094
-0.780784
0.257843
0.137673
-0.340227
-0.525443
1.02236
0.11535
3.29358
0.386523
-2.84812
-0.964652
-0.223155
1.45131
0.396851
2.27938
0.24726
0.749762
0.658461
0.068489
-0.482954
0.571697
1.10928
0.833317
0.440573
2.01395
-0.491853
1.2553
1.2337
0.681173
1.35711
-1.49297
0.714947
0.435505
-0.618858
2.8745
-1.01331
-0.0927488
0.57403
-1.21103
0.423249
3.08754
3.26377
3.06518
3.5734
3.02447
2.74351
5.03956
3.84785
1.45744
3.88165
2.96651
2.80005
3.72903
2.6668
3.81981
2.92267
2.05203
2.84163
0.912358
-0.553997
1.98013
2.39886
2.09974
4.50159
3.9483
4.31956
5.76264
2.26284
4.53466
4.08521
4.52064
1.82615
4.60692
3.06407
1.96345
2.66123
2.55831
0.631372
-0.186769
0.125499
0.78664
2.42739
2.5589
2.11901
3.24726
2.4325
3.021
3.65041
2.89023
2.60861
4.42825
1.55345
0.926528
3.00584
2.66875
2.00629
2.63234
0.399632
-0.787892
1.43154
-0.0582831
-0.449375
1.15704
-0.21784
4.16675
1.5865
2.2579
3.19659
1.67627
0.370366
1.28624
2.71767
1.66371
0.924286
1.67312
1.99701
2.52419
1.08446
1.48
0.639825
-1.04343
3.23712
2.74329
2.96188
2.17463
0.286722
3.72738
1.14519
1.91631
1.99839
1.39983
1.52411
3.34668
3.03989
2.98328
1.97007
1.70629
1.84535
0.222653
0.525234
-1.58209
0.653835
-0.045576
2.51365
1.75388
0.439574
1.37634
-0.355259
2.21404
-1.25521
2.03128
2.57247
0.864403
1.79494
1.93411
0.31655
1.60028
1.95645
1.70992
0.853054
-0.929494
0.261713
0.410876
0.735041
1.55299
0.838025
2.2771
0.886191
-1.05656
1.42162
1.69786
-0.205387
1.95577
0.932196
-0.221216
1.43222
-0.852902
-0.441946
-0.580598
-0.675136
-4.56122
2.21758
-0.312416
-0.365157
0.330155
0.570843
-0.727369
-2.12434
0.767781
2.54713
0.850196
-0.242824
-0.279565
0.800474
-1.75594
1.6636
1.566
1.21519
-0.313395
)
;

boundaryField
{
    hotSide
    {
        type            calculated;
        value           nonuniform List<scalar> 
400
(
0.0293272
-2.86867
-0.0162588
-0.167695
-0.602047
-0.968489
-0.914393
-1.47897
-3.00523
-2.77272
-3.78168
-2.52543
-2.67386
-3.67638
-0.943686
-2.30655
0.504275
0.106333
2.00309
1.21074
2.97813
0.00214898
2.0584
2.10662
0.572901
-1.97296
-2.4576
-1.15664
-1.69774
-2.3928
-0.688629
-2.26837
-2.21127
-2.2268
-2.20483
-0.294496
1.27445
1.51341