/*--------------------------------*- C++ -*----------------------------------*\
| =========                 |                                                 |
| \\      /  F ield         | OpenFOAM: The Open Source CFD Toolbox           |
|  \\    /   O peration     | Version:  2212                                  |
|   \\  /    A nd           | Website:  www.openfoam.com                      |
|    \\/     M anipulation  |                                                 |
\*---------------------------------------------------------------------------*/
FoamFile
{
    version     2.0;
    format      ascii;
    arch        "LSB;label=32;scalar=64";
    class       volScalarField;
    location    "./ITHACAoutput/true/2.6";
    object      error;
}
// * * * * * * * * * * * * * * * * * * * * * * * * * * * * * * * * * * * * * //

dimensions      [0 0 0 1 0 0 0];

internalField   nonuniform List<scalar> 
3200
(
0.986788
1.03462
1.41026
1.89974
2.58883
3.26273
4.03967
4.76369
5.29214
5.58929
5.64556
5.427
5.00664
4.39385
3.72401
3.04592
2.41352
2.01638
1.84503
1.74954
0.808537
0.826748
1.10004
1.47967
2.01889
2.77543
3.32388
3.94995
4.51074
4.73115
4.73374
4.57312
4.13695
3.61376
3.02129
2.50824
1.98754
1.63972
1.38732
1.27965
0.516694
0.648323
0.866441
1.20137
1.67986
2.16561
2.75963
3.19734
3.60522
3.89738
3.92695
3.70767
3.32402
3.0183
2.4776
1.95232
1.62168
1.23704
1.04556
1.04087
0.426183
0.466404
0.638072
0.912259
1.33589
1.72837
2.13654
2.67284
2.92647
3.17159
3.14425
3.04742
2.74371
2.39088
1.94698
1.60479
1.25841
0.982221
0.772571
0.732493
0.375019
0.339879
0.455876
0.732256
1.02408
1.32358
1.74132
1.99134
2.23359
2.36337
2.43933
2.26264
2.07455
1.72445
1.52375
1.21422
0.88647
0.755353
0.605351
0.567207
0.232965
0.248658
0.315555
0.477064
0.683766
0.892059
1.171
1.36299
1.55848
1.65306
1.75673
1.60722
1.51847
1.26156
1.01246
0.801261
0.596878
0.450539
0.386755
0.45525
0.136107
0.119604
0.164968
0.253222
0.396525
0.504494
0.80801
0.884758
0.846178
1.03851
0.964084
0.950809
0.863631
0.811537
0.595079
0.417791
0.350892
0.288445
0.255028
0.167842
0.0396997
0.0976666
0.0943019
0.020115
0.109117
0.18158
0.248241
0.2748
0.337756
0.379552
0.34324
0.321348
0.326335
0.280792
0.218387
0.200503
0.104646
0.16215
0.0605925
0.05437
0.30043
0.399277
0.660019
1.12903
1.76335
2.51697
3.24107
3.87476
4.49037
4.74148
4.81605
4.55244
4.12857
3.54029
2.90293
2.20809
1.67803
1.39212
1.13592
1.04131
0.234819
0.328474
0.527342
0.869982
1.44627
2.02425
2.72777
3.20771
3.72489
3.97805
4.05289
3.82
3.47209
3.044
2.41549
1.79451
1.43455
1.01181
0.836189
0.829624
0.120058
0.21671
0.322199
0.686324
1.12308
1.65508
2.20467
2.65826
3.04968
3.33154
3.35245
3.15711
2.82729
2.42059
1.96154
1.5337
1.11074
0.81815
0.574125
0.601313
0.130394
0.135132
0.307116
0.556539
0.898783
1.34195
1.76421
2.22754
2.54486
2.66801
2.75438
2.50662
2.22721
1.9777
1.60606
1.18972
0.886535
0.578372
0.480242
0.488842
0.0897656
0.109252
0.235374
0.40849
0.624489
1.07632
1.38705
1.67375
1.89089
1.99898
2.07405
1.94608
1.78237
1.53942
1.17892
0.850217
0.710131
0.433313
0.373691
0.365728
0.0432702
0.0184409
0.156942
0.357326
0.468974
0.699819
0.874816
1.14772
1.38485
1.37999
1.51514
1.49065
1.29192
1.07358
0.812426
0.648118
0.365106
0.290843
0.226436
0.19445
-0.015322
0.0315239
0.0776018
0.162106
0.332497
0.449182
0.591701
0.633129
0.798466
0.838075
0.887941
0.828189
0.772483
0.641112
0.381272
0.367809
0.271711
0.193895
0.0962093
0.121442
-0.0242157
-0.013982
0.0615136
0.0218307
0.0822526
0.113386
0.113141
0.273796
0.241179
0.280702
0.266095
0.299639
0.239925
0.201031
0.150862
0.133344
0.056437
0.0105501
0.000225862
-0.00607915
-0.471095
-0.434005
-0.211002
0.242497
0.772136
1.45224
2.10675
2.80298
3.28155
3.49
3.63693
3.41287
3.02307
2.42105
1.853
1.25774
0.751796
0.401096
0.311162
0.296762
-0.551439
-0.373346
-0.24908
0.1015
0.596182
1.17893
1.80502
2.38062
2.69822
2.91673
3.03053
2.82978
2.60574
2.03918
1.43069
1.05623
0.512264
0.305524
0.183468
0.117518
-0.475547
-0.3533
-0.224349
0.0221405
0.463123
0.951226
1.51017
1.89151
2.26009
2.46004
2.54169
2.35331
2.11334
1.71704
1.21963
0.782249
0.402657
0.138478
0.0654402
0.0391034
-0.352251
-0.373597
-0.244096
0.0298811
0.335478
0.686653
1.1952
1.54657
1.82198
1.9806
1.97257
1.91733
1.65193
1.30669
0.931685
0.67504
0.278924
0.1625
-0.0112634
-0.0950369
-0.286669
-0.241569
-0.165507
-0.00817775
0.230707
0.600249
0.853957
1.09145
1.3509
1.51933
1.48323
1.43214
1.24165
0.993045
0.700261
0.396491
0.265488
0.0897262
0.00380382
-0.00285636
-0.203857
-0.182288
-0.154491
0.0147926
0.183749
0.41929
0.608582
0.856023
0.964816
1.08848
1.06016
0.981158
0.854365
0.691586
0.510518
0.299943
0.141899
-0.0124115
-0.00437773
-0.0560373
-0.0530718
-0.139446
-0.124197
-0.0302772
-0.00324332
0.260048
0.400138
0.503054
0.636444
0.654818
0.641636
0.595113
0.504942
0.383169
0.278107
0.214929
0.110637
0.0857174
0.0212991
-0.045672
-0.0622392
-0.0557085
-0.0545642
0.0695749
0.0607732
0.115453
0.186137
0.0963825
0.192482
0.14119
0.129655
0.191869
0.15127
0.147149
0.100452
0.126339
0.00427786
-0.0339978
-0.0368563
-0.0251128
-1.1892
-1.30507
-1.02058
-0.750484
-0.276278
0.320691
1.02655
1.65681
2.07918
2.37167
2.45403
2.25527
1.88814
1.31238
0.782829
0.320622
-0.193441
-0.418118
-0.516985
-0.494467
-1.15847
-1.06538
-0.926241
-0.650451
-0.216094
0.171368
0.802381
1.36361
1.70448
1.96729
2.00489
1.79455
1.53882
1.12914
0.61053
0.115155
-0.251044
-0.50618
-0.503387
-0.487874
-0.896535
-0.985155
-0.872605
-0.604383
-0.308409
0.178434
0.705996
1.10319
1.40833
1.51131
1.59842
1.42576
1.22261
0.882188
0.460541
0.0675543
-0.244692
-0.473424
-0.550808
-0.515857
-0.881586
-0.825377
-0.751397
-0.424865
-0.239747
0.0840239
0.447099
0.897158
1.11187
1.29607
1.2671
1.14825
0.981396
0.684714
0.281025
-0.0121464
-0.222622
-0.409101
-0.482173
-0.463085
-0.604017
-0.600793
-0.67148
-0.453186
-0.170567
0.164362
0.424859
0.656366
0.822488
0.956856
0.926655
0.924217
0.736298
0.503646
0.286129
0.0104314
-0.1951
-0.30348
-0.383525
-0.34449
-0.447043
-0.502498
-0.408941
-0.343429
-0.135395
0.0343572
0.234134
0.401076
0.581859
0.641089
0.698617
0.711481
0.523562
0.395185
0.186867
0.011499
-0.125175
-0.243536
-0.276784
-0.260707
-0.230182
-0.260601
-0.295487
-0.106732
-0.135443
-0.0424359
0.193567
0.259281
0.342933
0.376813
0.429385
0.337294
0.346418
0.149061
0.0893391
0.0177672
-0.0714801
-0.170385
-0.222222
-0.12539
-0.0886611
-0.0746806
-0.100652
-0.0630513
-0.0612848
0.019686
0.033364
0.0969905
0.0887254
0.12746
0.163274
0.148071
0.0779674
0.118651
0.0473178
-0.00171845
-0.0444351
-0.060901
-0.0255353
-0.0374721
-1.92617
-1.94722
-1.8569
-1.53419
-1.0861
-0.599866
-0.00467832
0.404301
0.95397
1.18131
1.17613
1.1359
0.762892
0.208961
-0.120289
-0.675917
-0.912557
-1.20977
-1.24889
-1.15495
-1.7399
-1.72893
-1.67407
-1.35766
-1.06035
-0.609757
-0.10858
0.296886
0.722193
0.969657
0.928373
0.859314
0.479867
0.188267
-0.210126
-0.620962
-0.937586
-1.14878
-1.19451
-1.0963
-1.44654
-1.51896
-1.43016
-1.20995
-0.968843
-0.567752
-0.120288
0.320468
0.566313
0.761111
0.817018
0.676714
0.403094
0.102606
-0.251672
-0.65739
-0.863341
-0.914687
-1.10072
-0.954619
-1.20096
-1.2438
-1.18745
-1.00931
-0.819625
-0.426225
-0.0896695
0.252573
0.39828
0.599648
0.587061
0.488393
0.342366
0.0756667
-0.234741
-0.501646
-0.725419
-0.851228
-0.895497
-0.889753
-0.988835
-0.975074
-0.910121
-0.789493
-0.598341
-0.351535
-0.0848636
0.133471
0.326289
0.553149
0.45447
0.384265
0.18355
0.0206759
-0.200448
-0.428205
-0.587776
-0.682722
-0.745863
-0.676456
-0.722637
-0.706428
-0.639471
-0.533913
-0.444495
-0.248056
-0.0938588
0.131247
0.187522
0.331982
0.348522
0.203922
0.12849
-0.0802904
-0.117052
-0.264333
-0.460141
-0.484563
-0.506359
-0.493164
-0.383974
-0.423346
-0.394672
-0.390647
-0.288955
-0.209078
-0.0278285
0.0411602
0.0685807
0.17282
0.235784
0.213232
0.100852
-0.0189406
-0.136667
-0.206363
-0.269182
-0.277551
-0.287424
-0.27793
-0.154479
-0.181241
-0.0770576
-0.10713
-0.0975733
-0.0350968
0.000892811
-0.00425823
0.0266728
0.081514
0.0735044
0.0575996
0.032316
-0.0522173
-0.0565107
-0.0557557
-0.0545555
-0.13558
-0.0740025
-0.118814
-2.48328
-2.47021
-2.41357
-2.27231
-1.9931
-1.44496
-0.991756
-0.56537
-0.119947
0.116007
0.192417
0.0247021
-0.222933
-0.622173
-1.01666
-1.44634
-1.67377
-1.86751
-1.7968
-1.68759
-2.24254
-2.22379
-2.20668
-2.00405
-1.70988
-1.28477
-0.925068
-0.521403
-0.178939
0.0606608
0.0419385
-0.0377706
-0.241604
-0.610315
-0.953192
-1.29292
-1.50629
-1.7306
-1.57915
-1.53906
-1.84413
-1.92158
-1.92922
-1.77233
-1.52343
-1.1244
-0.777406
-0.471103
-0.209221
-0.0665402
0.00840042
-0.108021
-0.204513
-0.570759
-0.895726
-1.14629
-1.27255
-1.46817
-1.47278
-1.29022
-1.51769
-1.62058
-1.6044
-1.46129
-1.21215
-0.945177
-0.652471
-0.390095
-0.242039
-0.0231128
-0.0100704
-0.0723237
-0.204261
-0.513219
-0.72796
-0.955283
-1.18031
-1.22071
-1.21567
-1.09726
-1.22514
-1.22074
-1.20223
-1.07301
-0.975442
-0.796382
-0.597941
-0.308309
-0.229009
-0.0076924
-0.0931904
-0.0423772
-0.233275
-0.394615
-0.635775
-0.763878
-0.955277
-0.960159
-0.938713
-0.893463
-0.895033
-0.906977
-0.876113
-0.777985
-0.744045
-0.529201
-0.386241
-0.250387
-0.143598
-0.0718106
-0.0471906
-0.161174
-0.180728
-0.332961
-0.409016
-0.533766
-0.677659
-0.761744
-0.716838
-0.658463
-0.551579
-0.563911
-0.561092
-0.465636
-0.410199
-0.300867
-0.284847
-0.158953
-0.0241951
-0.06286
-0.0349406
-0.0544669
-0.0446903
-0.226572
-0.253579
-0.367645
-0.425064
-0.429809
-0.422139
-0.324679
-0.172873
-0.163512
-0.205604
-0.186948
-0.115573
-0.084546
-0.00959884
-0.0570588
-0.0165926
0.00967415
0.0370632
0.0221915
-0.089532
-0.0477822
-0.0960666
-0.109282
-0.192018
-0.168341
-0.166244
-0.126021
-2.65861
-2.84746
-2.93496
-2.86749
-2.5576
-2.18628
-1.76432
-1.36862
-1.01985
-0.815107
-0.685796
-0.880301
-1.16427
-1.42237
-1.76674
-2.0165
-2.20805
-2.2503
-2.19839
-1.96302
-2.48339
-2.52152
-2.59288
-2.50329
-2.2949
-1.96863
-1.57562
-1.36502
-1.01195
-0.862936
-0.742452
-0.842936
-1.05856
-1.33573
-1.62313
-1.82736
-2.0535
-2.0632
-1.97691
-1.72506
-2.03253
-2.2666
-2.21772
-2.1423
-1.93769
-1.73742
-1.4089
-1.14183
-0.880821
-0.749936
-0.70071
-0.728351
-0.942792
-1.12983
-1.3773
-1.64581
-1.78663
-1.79046
-1.72731
-1.53033
-1.78356
-1.84429
-1.86331
-1.75424
-1.65278
-1.40958
-1.22025
-0.907183
-0.703361
-0.677521
-0.65122
-0.652103
-0.786925
-0.956267
-1.20442
-1.36404
-1.51893
-1.46484
-1.47702
-1.36634
-1.38141
-1.41121
-1.4175
-1.33364
-1.32429
-1.1436
-0.931039
-0.773754
-0.614656
-0.540141
-0.467836
-0.567166
-0.620271
-0.864811
-0.898106
-1.1107
-1.17442
-1.19027
-1.12237
-1.04489
-1.00358
-1.02596
-1.04549
-1.03401
-0.949011
-0.88968
-0.674393
-0.551569
-0.439453
-0.319783
-0.317725
-0.357683
-0.48629
-0.583072
-0.693917
-0.845019
-0.827139
-0.906232
-0.855163
-0.744228
-0.615444
-0.65436
-0.637218
-0.599152
-0.623827
-0.521396
-0.354525
-0.327399
-0.255004
-0.254349
-0.2053
-0.201867
-0.222584
-0.386042
-0.440943
-0.459183
-0.539059
-0.556079
-0.523333
-0.472883
-0.18395
-0.203455
-0.251121
-0.229073
-0.175435
-0.134066
-0.131782
-0.0731276
-0.0842891
-0.0775324
-0.0707634
-0.118219
-0.102698
-0.0671367
-0.161493
-0.140886
-0.124724
-0.233314
-0.130298
-0.0850784
-2.86019
-3.10199
-3.27264
-3.20921
-3.09216
-2.72023
-2.42898
-2.05756
-1.81324
-1.63214
-1.59464
-1.6612
-1.86034
-2.14873
-2.3266
-2.56909
-2.6829
-2.61405
-2.35417
-2.2043
-2.55158
-2.75529
-2.88255
-2.87273
-2.71108
-2.42634
-2.11812
-1.88701
-1.62536
-1.48528
-1.43982
-1.51447
-1.67824
-1.9064
-2.09544
-2.22109
-2.3621
-2.32636
-2.15251
-1.86102
-2.24284
-2.40389
-2.39815
-2.4692
-2.30471
-2.07942
-1.89067
-1.61672
-1.46172
-1.36093
-1.29551
-1.32578
-1.46494
-1.73775
-1.88737
-1.95345
-2.04664
-2.08983
-1.85068
-1.65477
-1.75239
-1.90133
-2.02107
-1.99471
-1.85452
-1.7332
-1.54627
-1.37082
-1.14538
-1.08777
-1.08443
-1.13059
-1.18151
-1.39264
-1.5633
-1.58861
-1.72508
-1.64421
-1.55863
-1.43581
-1.43316
-1.51491
-1.62665
-1.5578
-1.47203
-1.3716
-1.19811
-1.1338
-0.931778
-0.864121
-0.777228
-0.876716
-0.94195
-1.11441
-1.18882
-1.24814
-1.36831
-1.34519
-1.27259
-1.17163
-1.04976
-1.04373
-1.12771
-1.10025
-1.12459
-0.971161
-0.863984
-0.772856
-0.694049
-0.686532
-0.606968
-0.615973
-0.680267
-0.77561
-0.872728
-0.909964
-0.99006
-0.928697
-0.882548
-0.863262
-0.606385
-0.707722
-0.698973
-0.678801
-0.610553
-0.606391
-0.529614
-0.479499
-0.474463
-0.392758
-0.454922
-0.369158
-0.456283
-0.526314
-0.566179
-0.574838
-0.576601
-0.476469
-0.588606
-0.485875
-0.196631
-0.181189
-0.171745
-0.257115
-0.248744
-0.224345
-0.260612
-0.168858
-0.122915
-0.184521
-0.0712833
-0.0907822
-0.179209
-0.153726
-0.218813
-0.212771
-0.235419
-0.236493
-0.173399
-0.124492
-2.85665
-3.20496
-3.38553
-3.43017
-3.3079
-3.19282
-2.85829
-2.55332
-2.44874
-2.2361
-2.19944
-2.27736
-2.40484
-2.57716
-2.6919
-2.78637
-2.83952
-2.72719
-2.43272
-2.09281
-2.53375
-2.71634
-2.99594
-3.00906
-2.94771
-2.81923
-2.53863
-2.33947
-2.1385
-2.05542
-1.87354
-2.04119
-2.09497
-2.28924
-2.38273
-2.48914
-2.47418
-2.43353
-2.25108
-1.93233
-2.23687
-2.32166
-2.6646
-2.57324
-2.57096
-2.43466
-2.23576
-1.99782
-1.82042
-1.79283
-1.66334
-1.78169
-1.82071
-1.88586
-2.15439
-2.21454
-2.15602
-2.06264
-1.8957
-1.70831
-1.84181
-1.9819
-2.10239
-2.13311
-2.11728
-2.04824
-1.85963
-1.69018
-1.56467
-1.47259
-1.42967
-1.49579
-1.51458
-1.58605
-1.82141
-1.79526
-1.85372
-1.78578
-1.586
-1.44016
-1.41764
-1.52303
-1.66275
-1.67742
-1.67544
-1.48518
-1.45546
-1.3498
-1.29724
-1.14556
-1.09328
-1.2363
-1.17922
-1.28548
-1.38165
-1.50735
-1.42898
-1.34972
-1.27608
-1.12801
-0.983214
-1.10596
-1.18503
-1.19071
-1.17747
-1.17098
-0.974072
-0.954909
-0.891606
-0.854112
-0.838405
-0.796163
-0.861263
-0.898324
-1.03892
-1.00883
-1.03861
-1.01551
-0.929547
-0.838404
-0.627373
-0.654952
-0.76843
-0.738348
-0.652521
-0.600942
-0.635067
-0.652877
-0.559761
-0.525891
-0.532258
-0.498179
-0.515351
-0.587689
-0.651506
-0.644428
-0.699249
-0.583566
-0.615696
-0.447898
-0.189204
-0.215016
-0.206551
-0.216631
-0.21611
-0.227637
-0.232196
-0.243986
-0.130447
-0.174367
-0.163762
-0.139528
-0.16986
-0.238909
-0.194773
-0.2274
-0.253949
-0.198198
-0.208512
-0.259088
-2.64696
-2.99643
-3.28102
-3.43666
-3.38144
-3.37659
-3.09629
-2.9269
-2.80384
-2.64733
-2.59151
-2.55324
-2.64041
-2.86094
-2.92714
-2.83597
-2.81904
-2.64744
-2.27669
-1.85901
-2.32314
-2.58972
-2.84436
-2.94713
-3.03935
-2.92534
-2.73271
-2.60577
-2.36102
-2.39426
-2.3304
-2.37671
-2.3737
-2.52726
-2.59198
-2.57948
-2.5007
-2.31631
-2.06452
-1.69705
-2.00793
-2.25932
-2.47107
-2.62905
-2.58771
-2.60772
-2.46107
-2.26255
-2.07041
-2.03334
-2.05099
-2.05257
-2.05001
-2.10665
-2.21926
-2.27383
-2.14209
-1.99874
-1.80294
-1.52023
-1.65317
-1.91597
-2.08572
-2.09827
-2.14958
-2.1207
-1.93511
-1.93433
-1.73882
-1.76436
-1.72319
-1.71419
-1.78373
-1.85338
-1.8
-1.89969
-1.83053
-1.70203
-1.52051
-1.23038
-1.40178
-1.42698
-1.65996
-1.72714
-1.67283
-1.70934
-1.58283
-1.49693
-1.41518
-1.34553
-1.25125
-1.27653
-1.34306
-1.42212
-1.40645
-1.42626
-1.49097
-1.38224
-1.13119
-1.07901
-0.960793
-1.04383
-1.09262
-1.14415
-1.1886
-1.16417
-1.14631
-1.06674
-0.940267
-1.02733
-0.939896
-0.971019
-1.02047
-1.06319
-1.04748
-1.05155
-1.01816
-0.957148
-0.906726
-0.713515
-0.624543
-0.622889
-0.723893
-0.699288
-0.687293
-0.762667
-0.638431
-0.678546
-0.586962
-0.575158
-0.543437
-0.563894
-0.569133
-0.655073
-0.615515
-0.605911
-0.619117
-0.580215
-0.496847
-0.407341
-0.201953
-0.188433
-0.243305
-0.223195
-0.321421
-0.24328
-0.212812
-0.186564
-0.20438
-0.188244
-0.148401
-0.130531
-0.181977
-0.165058
-0.261138
-0.243744
-0.132418
-0.140578
-0.219324
-0.108625
-2.09488
-2.59358
-2.94868
-3.18757
-3.32756
-3.33663
-3.18904
-3.06538
-2.90888
-2.79531
-2.80787
-2.71802
-2.7901
-2.8231
-2.89837
-2.77543
-2.6205
-2.28013
-1.88779
-1.42481
-1.96132
-2.33858
-2.67692
-2.84737
-2.89146
-2.83958
-2.80537
-2.67963
-2.58447
-2.57342
-2.45748
-2.49385
-2.5462
-2.58579
-2.56529
-2.46547
-2.33111
-2.10624
-1.6503
-1.33908
-1.68591
-1.94345
-2.24074
-2.43154
-2.44676
-2.4784
-2.37844
-2.31866
-2.26376
-2.16755
-2.15139
-2.07511
-2.16819
-2.18739
-2.24583
-2.15153
-1.9484
-1.8331
-1.49974
-1.24365
-1.38132
-1.66473
-1.8562
-1.99802
-2.07377
-2.04348
-2.01044
-1.8431
-1.82251
-1.80831
-1.81939
-1.83544
-1.82048
-1.88946
-1.81193
-1.82016
-1.67658
-1.53693
-1.31462
-1.02663
-1.1046
-1.27046
-1.4845
-1.56256
-1.57946
-1.64864
-1.52058
-1.52474
-1.46314
-1.39292
-1.40423
-1.40344
-1.45666
-1.4402
-1.50025
-1.46358
-1.35339
-1.17221
-1.02979
-0.842601
-0.836366
-0.932413
-1.04471
-1.09003
-1.13633
-1.17687
-1.08991
-1.0907
-1.00022
-1.09083
-0.919017
-1.05649
-0.997932
-1.03553
-1.00621
-0.956464
-0.990638
-0.855256
-0.716596
-0.631183
-0.53111
-0.590444
-0.67817
-0.702405
-0.717364
-0.719758
-0.692834
-0.676042
-0.607051
-0.640392
-0.630186
-0.601142
-0.655149
-0.631644
-0.670914
-0.684437
-0.572343
-0.568955
-0.41949
-0.414178
-0.205098
-0.128872
-0.18008
-0.248581
-0.19282
-0.200381
-0.249845
-0.190428
-0.179723
-0.17873
-0.176997
-0.226648
-0.25198
-0.190824
-0.0987773
-0.222995
-0.18423
-0.184318
-0.0650678
-0.149971
-1.5863
-2.02964
-2.45155
-2.75194
-2.96237
-2.93452
-2.97538
-2.94611
-2.806
-2.71957
-2.65226
-2.71409
-2.63632
-2.61645
-2.51701
-2.44174
-2.11457
-1.75724
-1.17595
-0.755298
-1.42138
-1.77432
-2.1462
-2.42244
-2.61761
-2.64421
-2.66693
-2.55468
-2.54529
-2.44283
-2.45512
-2.3799
-2.29812
-2.33579
-2.35122
-2.18514
-1.93048
-1.65635
-1.19539
-0.762369
-1.19758
-1.52233
-1.82002
-2.1234
-2.20922
-2.28208
-2.29065
-2.19227
-2.08736
-2.20614
-2.10977
-2.07996
-2.13712
-2.06498
-1.99027
-1.87669
-1.72307
-1.44508
-1.05162
-0.683524
-1.00979
-1.29013
-1.55178
-1.69094
-1.91318
-1.93081
-1.8688
-1.89166
-1.85269
-1.85996
-1.74173
-1.71868
-1.70525
-1.67611
-1.65844
-1.57494
-1.38512
-1.22447
-0.888268
-0.617896
-0.841495
-0.98718
-1.19671
-1.32934
-1.43773
-1.45863
-1.45006
-1.3897
-1.457
-1.44791
-1.39001
-1.39219
-1.30273
-1.32393
-1.33265
-1.27837
-1.11756
-0.919924
-0.704267
-0.498436
-0.582459
-0.749077
-0.851998
-0.954445
-1.1011
-1.05368
-1.03973
-1.03893
-1.00026
-1.07884
-0.981635
-0.966825
-0.962565
-0.987418
-0.978584
-0.913613
-0.830332
-0.652473
-0.583483
-0.344384
-0.338112
-0.410533
-0.527747
-0.582216
-0.630841
-0.638663
-0.640745
-0.641099
-0.633922
-0.564493
-0.559213
-0.647187
-0.587762
-0.577076
-0.517833
-0.543455
-0.449542
-0.524336
-0.321504
-0.220097
-0.150525
-0.173227
-0.241165
-0.175618
-0.163417
-0.249213
-0.203912
-0.258831
-0.231119
-0.220196
-0.272897
-0.237404
-0.209842
-0.137161
-0.204734
-0.152503
-0.181166
-0.0695169
-0.142863
-0.152364
-0.627862
-1.08381
-1.68091
-2.12662
-2.30884
-2.51336
-2.52578
-2.43877
-2.51179
-2.47757
-2.31355
-2.32014
-2.21502
-2.12274
-2.08609
-1.78365
-1.48192
-1.05077
-0.443155
0.141236
-0.630354
-1.04268
-1.47653
-1.888
-2.10359
-2.20342
-2.28359
-2.27879
-2.20288
-2.18758
-2.18168
-2.05428
-2.06323
-1.94331
-1.83769
-1.68313
-1.31801
-0.988306
-0.428677
0.087525
-0.613985
-0.886335
-1.28834
-1.56633
-1.78468
-1.90638
-1.98599
-1.95604
-1.88774
-1.8698
-1.88235
-1.85127
-1.72019
-1.7921
-1.6857
-1.40608
-1.19394
-0.873082
-0.463529
-0.0369785
-0.463838
-0.733518
-1.14922
-1.29359
-1.5425
-1.54232
-1.63831
-1.61069
-1.59577
-1.55061
-1.49214
-1.49149
-1.48357
-1.39889
-1.39025
-1.21289
-0.993137
-0.784388
-0.410689
-0.112568
-0.345278
-0.679551
-0.862789
-1.01386
-1.20285
-1.24227
-1.25862
-1.32313
-1.26682
-1.28293
-1.22906
-1.20743
-1.13036
-1.09367
-1.08384
-0.916546
-0.815466
-0.586341
-0.371845
-0.123884
-0.320071
-0.47327
-0.586786
-0.748697
-0.844978
-0.913646
-0.883085
-0.881909
-0.863642
-0.920278
-0.82754
-0.853931
-0.836984
-0.807682
-0.793409
-0.717424
-0.60009
-0.471429
-0.202933
-0.102274
-0.190479
-0.296705
-0.354197
-0.445886
-0.510828
-0.52412
-0.445648
-0.573463
-0.577944
-0.542672
-0.468621
-0.471803
-0.534189
-0.470803
-0.437044
-0.401515
-0.310823
-0.313258
-0.223022
0.00453304
-0.0977638
-0.0558466
-0.132545
-0.11696
-0.194183
-0.210323
-0.174981
-0.207749
-0.244191
-0.173074
-0.232757
-0.189042
-0.106079
-0.188422
-0.110566
-0.153076
-0.123485
-0.0956062
-0.0612502
-0.026617
0.446557
-0.0751537
-0.728274
-1.16058
-1.41961
-1.67103
-1.84645
-1.81944
-1.83849
-1.88286
-1.6977
-1.72977
-1.6196
-1.45593
-1.3227
-1.00598
-0.547555
0.0831273
0.697543
1.27252
0.361369
-0.150222
-0.690825
-1.09169
-1.35506
-1.56405
-1.63662
-1.6148
-1.69939
-1.72373
-1.61216
-1.58403
-1.51597
-1.4573
-1.19826
-0.94923
-0.625266
-0.0777278
0.448026
0.965531
0.278374
-0.158202
-0.568912
-0.955833
-1.16515
-1.31019
-1.48069
-1.46299
-1.5007
-1.46341
-1.39721
-1.37012
-1.33973
-1.16232
-1.03452
-0.775253
-0.529239
-0.108833
0.238962
0.776921
0.212297
-0.17673
-0.489923
-0.770864
-0.940757
-1.07035
-1.10819
-1.20082
-1.23489
-1.22768
-1.19161
-1.13055
-1.09159
-1.04891
-0.868772
-0.682823
-0.444986
-0.112344
0.144204
0.592857
0.127502
-0.0770443
-0.403079
-0.647404
-0.804562
-0.894962
-0.994163
-1.01422
-1.00626
-0.975861
-0.932186
-0.957294
-0.866002
-0.849086
-0.675316
-0.601962
-0.376362
-0.159815
0.0921593
0.425645
0.120556
-0.114236
-0.265865
-0.455248
-0.576117
-0.675687
-0.631941
-0.738077
-0.682215
-0.694514
-0.675654
-0.641517
-0.670257
-0.568085
-0.475235
-0.425433
-0.301234
-0.0709013
0.0823551
0.312699
0.0942662
-0.0322603
-0.190598
-0.291967
-0.385952
-0.376632
-0.379902
-0.411351
-0.431296
-0.394077
-0.406099
-0.401032
-0.404078
-0.375655
-0.343766
-0.212032
-0.159158
-0.0866129
0.104695
0.134384
-0.00358944
-0.0275223
-0.0346893
-0.147745
-0.0655421
-0.121807
-0.130337
-0.122999
-0.0862862
-0.135521
-0.213574
-0.132261
-0.0952471
-0.149674
-0.132214
-0.0518029
-0.0837287
0.0315961
0.0314133
0.0969796
1.86609
1.22358
0.499268
-0.014205
-0.385544
-0.574021
-0.885989
-0.972888
-0.978645
-1.02585
-0.893716
-0.851588
-0.687433
-0.491471
-0.25672
0.135828
0.588448
1.2958
1.89852
2.52954
1.51952
0.961863
0.45894
-0.0022074
-0.409666
-0.677715
-0.815666
-0.898783
-0.895672
-0.998639
-0.859316
-0.81464
-0.708874
-0.49882
-0.337351
0.0321791
0.36722
0.930919
1.60064
2.12981
1.18836
0.810809
0.416341
-0.0385063
-0.332684
-0.576645
-0.746827
-0.743959
-0.805328
-0.877868
-0.744309
-0.702062
-0.607022
-0.536141
-0.234725
-0.0241463
0.353803
0.827037
1.29957
1.71086
0.936966
0.703219
0.167207
-0.110654
-0.358742
-0.517481
-0.581931
-0.658288
-0.687658
-0.706244
-0.71182
-0.635942
-0.533645
-0.51983
-0.285146
-0.0656593
0.209445
0.506921
0.969013
1.36718
0.757329
0.431823
0.138372
-0.115521
-0.296811
-0.482575
-0.50949
-0.506744
-0.525662
-0.57189
-0.487234
-0.479722
-0.416916
-0.352363
-0.28523
-0.0595121
0.144245
0.484309
0.733292
0.996277
0.5382
0.337939
0.0973723
-0.0503698
-0.244583
-0.34492
-0.344962
-0.404991
-0.370891
-0.383607
-0.372412
-0.331957
-0.318188
-0.231731
-0.184926
-0.0182784
0.0827446
0.31069
0.447806
0.754979
0.279188
0.176883
0.10505
-0.0967539
-0.153943
-0.171921
-0.215513
-0.209358
-0.286271
-0.216783
-0.215326
-0.228057
-0.200106
-0.162363
-0.127932
0.0261662
0.129616
0.166861
0.323363
0.446599
0.178091
0.066723
0.0584858
-0.00485517
-0.012076
-0.0756041
-0.0354544
0.0202252
-0.107495
-0.0812617
-0.0360321
-0.0960185
-0.074564
-0.0637997
-0.090338
-0.0382656
0.025972
0.0764205
0.0785432
0.136437
3.38141
2.74302
2.0691
1.39212
0.935094
0.637621
0.423126
0.246638
0.220235
0.209052
0.202123
0.309249
0.522872
0.742542
1.04392
1.45875
1.98602
2.69148
3.41248
4.13954
2.87363
2.3398
1.74081
1.18625
0.780223
0.486343
0.309937
0.176802
0.0315847
0.0606276
0.140318
0.205749
0.366126
0.565196
0.835937
1.21611
1.64466
2.24561
2.93866
3.49801
2.32921
1.89669
1.38709
0.978979
0.67255
0.38035
0.199644
0.0448
0.00833894
0.0750722
-0.00262325
0.139773
0.231974
0.454617
0.634808
0.99838
1.29546
1.86494
2.34698
2.9183
1.90778
1.5164
1.08307
0.772383
0.524008
0.281509
0.110304
-0.0305249
0.0277308
-0.0445064
-0.0522441
0.0402956
0.191215
0.27513
0.504042
0.754185
1.03058
1.46688
1.84979
2.29583
1.47623
1.14095
0.936198
0.522216
0.372722
0.235232
0.115626
-0.00660342
-0.00760068
-0.00301435
0.0188879
0.0622402
0.151078
0.261794
0.36341
0.590513
0.823683
1.12513
1.47279
1.75828
1.0174
0.858387
0.627489
0.415525
0.23062
0.103684
0.096687
-0.0165563
0.00566811
-0.0659213
-0.0868419
0.0527999
0.0604097
0.25319
0.262531
0.464691
0.565923
0.774794
1.02224
1.26619
0.619996
0.465611
0.366448
0.222654
0.0553139
0.127692
0.0417799
0.0817394
-0.0286709
-0.0849992
-0.0332299
0.0635969
-0.0241369
0.0982833
0.126025
0.211261
0.318886
0.40397
0.638296
0.787571
0.184445
0.101268
0.088486
0.0686891
0.050685
0.0314222
0.0547017
0.0558787
0.0060431
-0.0265682
-0.0329857
0.0240134
-0.0523651
0.0402503
0.0440044
0.0240211
0.119885
0.165061
0.18087
0.242169
5.18838
4.53769
3.72943
3.00592
2.47948
2.10555
1.86204
1.68651
1.54935
1.62183
1.68774
1.7295
1.91384
2.16024
2.54763
3.05388
3.67514
4.37117
5.19225
5.87332
4.43134
3.89833
3.13704
2.55431
2.11276
1.76731
1.47182
1.36587
1.24504
1.32518
1.27406
1.38422
1.55763
1.7609
2.09218
2.56837
3.01048
3.67619
4.3806
5.07548
3.65542
3.1681
2.62002
2.06252
1.72632
1.45326
1.21931
1.06013
1.07678
1.00617
1.07966
1.13941
1.21687
1.51173
1.73712
2.09409
2.55479
3.0913
3.65731
4.11442
3.01974
2.60492
2.11635
1.71051
1.40349
1.20341
0.945627
0.877516
0.833666
0.860536
0.850306
0.819333
1.01424
1.19934
1.42455
1.66274
2.08422
2.4306
2.93064
3.40187
2.28933
2.0181
1.58978
1.32766
1.06985
0.962739
0.780703
0.622452
0.562535
0.572306
0.661154
0.685696
0.815746
0.864777
1.00906
1.30462
1.49911
1.87205
2.24232
2.52343
1.62333
1.39589
1.18247
1.02433
0.829413
0.655245
0.537586
0.485702
0.405474
0.362919
0.384596
0.423424
0.42128
0.642265
0.760727
0.922294
1.09282
1.36184
1.66534
1.77838
0.954446
0.870333
0.666652
0.549039
0.437772
0.389387
0.320437
0.318121
0.257432
0.268874
0.254187
0.289201
0.303905
0.341561
0.455695
0.570051
0.654687
0.75686
0.932467
1.10891
0.412458
0.281866
0.230986
0.15054
0.166083
0.173181
0.121497
0.00782202
0.0635778
0.0939447
0.0199974
0.119118
0.126442
0.217788
0.121518
0.149612
0.251774
0.243122
0.288872
0.285783
7.0974
6.35826
5.58529
4.87142
4.31963
3.84378
3.49968
3.26607
3.20671
3.20644
3.25806
3.37907
3.55272
3.86894
4.23001
4.82914
5.48326
6.19603
6.98567
7.81058
6.04982
5.39252
4.7539
4.08444
3.62126
3.22391
2.94164
2.79742
2.70329
2.66046
2.67059
2.8097
3.01234
3.21506
3.53441
4.02166
4.60631
5.26237
6.03067
6.70047
5.1011
4.56137
3.98543
3.42072
2.98368
2.6581
2.42256
2.24702
2.24688
2.21686
2.21532
2.29145
2.47127
2.64205
3.01433
3.36717
3.81552
4.38259
4.9359
5.54666
4.09281
3.67925
3.19955
2.79555
2.4219
2.18742
1.9831
1.82669
1.7704
1.74722
1.70885
1.82077
2.01667
2.20704
2.37975
2.71954
3.10835
3.47043
3.9951
4.51839
3.13513
2.78152
2.40381
2.11991
1.86609
1.68079
1.51277
1.35155
1.35433
1.35259
1.36441
1.40084
1.48303
1.66893
1.80852
1.98959
2.33135
2.70457
3.09931
3.49744
2.27831
2.02489
1.76449
1.45109
1.24772
1.23947
1.04041
1.02797
0.928543
0.831275
0.971465
0.985756
1.07588
1.13342
1.2559
1.5091
1.67758
1.91496
2.19467
2.50915
1.31009
1.21599
1.09014
0.847453
0.754625
0.783232
0.641083
0.626614
0.57463
0.528675
0.584817
0.595986
0.6062
0.679533
0.750266
0.860228
1.0107
1.20291
1.29698
1.42697
0.460306
0.399358
0.35531
0.316338
0.201273
0.226548
0.201413
0.143369
0.229295
0.201796
0.219984
0.231427
0.181606
0.260382
0.274652
0.267445
0.281784
0.275759
0.482887
0.470517
9.07951
8.29529
7.45892
6.74243
6.12568
5.63523
5.17484
5.05506
4.8223
4.78698
4.82645
5.02892
5.26774
5.5957
6.01344
6.6765
7.33078
7.9767
9.02724
9.77643
7.75903
7.08033
6.39055
5.63589
5.16753
4.77298
4.46604
4.26432
4.06727
4.0363
4.03747
4.15755
4.41704
4.75271
5.15419
5.55986
6.15079
6.84693
7.51901
8.31382
6.54168
5.88776
5.28118
4.72266
4.31263
3.95628
3.6318
3.45189
3.37447
3.33279
3.35702
3.51023
3.65843
3.91821
4.21427
4.62854
5.09062
5.70699
6.37649
6.94526
5.1942
4.78217
4.28588
3.83975
3.3889
3.16969
3.01399
2.7533
2.75466
2.66095
2.71444
2.75906
2.96203
3.10908
3.46481
3.75608
4.13226
4.66356
5.08731
5.58165
3.98966
3.62774
3.28818
2.97269
2.60765
2.407
2.25826
2.10793
2.06794
2.07137
2.10013
2.17141
2.21995
2.36511
2.59353
2.88118
3.16666
3.56543
3.94993
4.26149
2.8151
2.6043
2.30233
2.13563
1.80202
1.74768
1.57785
1.51965
1.47566
1.4293
1.37092
1.56937
1.60702
1.71571
1.82401
1.95539
2.26148
2.46083
2.74864
3.03375
1.68358
1.52817
1.44242
1.259
1.15155
1.06308
0.944876
0.869519
0.887659
0.825608
0.88981
0.849501
0.957566
0.983597
1.05512
1.21944
1.34886
1.47849
1.60842
1.82827
0.525369
0.403764
0.423605
0.452077
0.316731
0.339263
0.344172
0.211835
0.244376
0.242804
0.256309
0.352177
0.258482
0.344896
0.407796
0.378085
0.42264
0.507862
0.552702
0.672145
10.6276
9.84078
8.90658
8.27339
7.5564
7.04853
6.74036
6.40492
6.27437
6.25036
6.25899
6.37997
6.72847
7.05917
7.47349
8.07368
8.7914
9.54753
10.5884
11.3896
9.0017
8.26159
7.6154
6.94861
6.32367
5.94765
5.56657
5.42988
5.26244
5.25334
5.2331
5.3139
5.60463
5.86917
6.28508
6.75635
7.38333
7.98428
8.91374
9.58777
7.41996
6.9149
6.30322
5.70477
5.24672
4.83464
4.56118
4.46476
4.19927
4.26759
4.31121
4.33748
4.55614
4.83013
5.18269
5.5381
6.0657
6.71102
7.34928
7.93725
5.95304
5.47194
5.0763
4.56342
4.1855
3.84013
3.65618
3.47117
3.46788
3.41503
3.35417
3.46799
3.67274
3.84296
4.09073
4.48848
4.878
5.34942
5.90427
6.37869
4.60165
4.20902
3.85219
3.52709
3.21763
3.03283
2.77147
2.67261
2.60287
2.53946
2.61619
2.63098
2.70629
2.95999
3.19374
3.43599
3.65096
4.10319
4.56283
4.92102
3.27079
2.98884
2.79181
2.45074
2.2644
2.15363
1.97881
1.89156
1.86055
1.84411
1.87655
1.91717
1.96895
2.04535
2.19496
2.45211
2.66367
2.90623
3.20899
3.46667
1.93291
1.80141
1.64352
1.52151
1.288
1.22096
1.19022
1.11127
1.09845
1.02794
1.16486
1.07134
1.13903
1.26097
1.33212
1.38429
1.60001
1.73651
1.89723
2.00442
0.699346
0.647016
0.540379
0.473149
0.442205
0.387201
0.339278
0.373563
0.366398
0.340018
0.345626
0.372071
0.347488
0.356986
0.446134
0.486154
0.53555
0.566673
0.659159
0.729625
)
;

boundaryField
{
    hotSide
    {
        type            calculated;
        value           nonuniform List<scalar> 
400
(
1.81074
1.12297
0.348679