/*--------------------------------*- C++ -*----------------------------------*\
| =========                 |                                                 |
| \\      /  F ield         | OpenFOAM: The Open Source CFD Toolbox           |
|  \\    /   O peration     | Version:  2212                                  |
|   \\  /    A nd           | Website:  www.openfoam.com                      |
|    \\/     M anipulation  |                                                 |
\*---------------------------------------------------------------------------*/
FoamFile
{
    version     2.0;
    format      ascii;
    arch        "LSB;label=32;scalar=64";
    class       volScalarField;
    location    "0";
    object      stateMean;
}
// * * * * * * * * * * * * * * * * * * * * * * * * * * * * * * * * * * * * * //

dimensions      [0 0 0 1 0 0 0];

internalField   nonuniform List<scalar> 
3200
(
344.393
345.256
346.22
346.991
347.816
348.454
348.923
349.321
349.589
349.667
349.596
349.482
349.153
348.721
348.114
347.411
346.579
345.612
344.652
343.795
338.572
339.324
340.148
340.847
341.567
342.099
342.545
342.86
343.057
343.086
343.065
342.971
342.655
342.249
341.789
341.177
340.405
339.688
338.806
338.096
332.675
333.294
333.965
334.661
335.213
335.69
336.053
336.362
336.442
336.539
336.577
336.404
336.195
335.872
335.394
334.84
334.252
333.528
332.917
332.247
326.866
327.389
327.892
328.373
328.843
329.167
329.569
329.77
329.934
330.024
329.955
329.861
329.62
329.394
329.063
328.589
328.047
327.512
326.851
326.48
320.884
321.295
321.658
322.154
322.51
322.756
323.003
323.095
323.298
323.348
323.326
323.166
323.069
322.911
322.606
322.314
321.898
321.439
320.98
320.583
314.965
315.183
315.551
315.837
316.099
316.259
316.416
316.622
316.658
316.702
316.651
316.633
316.443
316.338
316.191
315.912
315.69
315.264
314.956
314.724
308.998
309.094
309.286
309.47
309.643
309.754
309.876
309.941
309.963
310.091
309.966
310.079
309.902
309.839
309.736
309.606
309.447
309.278
309.091
308.892
302.944
303.141
303.133
303.183
303.284
303.25
303.289
303.266
303.285
303.311
303.37
303.323
303.287
303.313
303.261
303.193
303.126
303.165
303.037
303.004
345.362
346.262
347.231
348.108
348.926
349.597
350.055
350.547
350.68
350.902
350.732
350.611
350.275
349.808
349.283
348.53
347.681
346.726
345.684
344.796
339.373
340.116
340.996
341.77
342.391
342.969
343.432
343.799
343.97
344.1
344.035
343.936
343.608
343.196
342.717
342.051
341.282
340.486
339.666
338.804
333.369
334.04
334.677
335.389
335.967
336.463
336.831
337.039
337.285
337.395
337.258
337.149
336.929
336.588
336.195
335.668
335.023
334.345
333.472
332.969
327.395
327.838
328.44
328.958
329.408
329.91
330.145
330.33
330.593
330.595
330.506
330.359
330.222
329.919
329.566
329.213
328.655
328.058
327.458
327
321.328
321.624
322.152
322.467
322.932
323.266
323.431
323.638
323.768
323.844
323.756
323.66
323.522
323.311
323.036
322.729
322.252
321.868
321.441
320.974
315.282
315.542
315.793
316.165
316.417
316.579
316.751
316.931
316.959
317.043
316.936
317.008
316.782
316.651
316.455
316.259
315.936
315.59
315.335
315.041
309.117
309.355
309.513
309.684
309.838
309.91
310.058
310.145
310.232
310.264
310.2
310.207
310.115
310.072
309.877
309.731
309.567
309.333
309.226
309.026
303.08
303.152
303.187
303.221
303.247
303.333
303.378
303.343
303.394
303.455
303.459
303.466
303.347
303.331
303.337
303.219
303.205
303.206
303.072
302.995
346.687
347.59
348.594
349.534
350.345
351.088
351.568
351.973
352.173
352.326
352.23
352.167
351.762
351.274
350.65
349.957
349.107
348.135
347.064
346.094
340.512
341.287
342.206
342.916
343.644
344.19
344.74
345.057
345.237
345.421
345.355
345.178
344.936
344.397
343.984
343.325
342.58
341.744
340.842
339.969
334.315
334.925
335.693
336.349
336.876
337.418
337.859
338.166
338.317
338.318
338.389
338.239
337.94
337.703
337.175
336.643
336.013
335.272
334.501
333.842
328.126
328.576
329.266
329.721
330.256
330.593
330.929
331.182
331.341
331.432
331.417
331.28
330.983
330.828
330.38
330.017
329.441
328.901
328.225
327.705
321.869
322.231
322.717
323.121
323.512
323.87
324.175
324.193
324.4
324.453
324.488
324.335
324.206
323.948
323.674
323.358
322.918
322.431
322.031
321.542
315.575
315.838
316.217
316.509
316.76
317.073
317.208
317.376
317.469
317.419
317.436
317.367
317.234
317.168
316.959
316.632
316.417
316.108
315.694
315.408
309.437
309.56
309.738
309.94
310.077
310.282
310.329
310.437
310.43
310.505
310.486
310.468
310.421
310.22
310.129
310.003
309.74
309.641
309.401
309.315
303.155
303.167
303.3
303.359
303.363
303.456
303.495
303.488
303.501
303.565
303.555
303.508
303.393
303.465
303.397
303.346
303.302
303.222
303.124
303.166
348.03
348.947
350.07
351.101
351.919
352.487
353.204
353.549
353.881
354.038
353.847
353.659
353.389
352.93
352.298
351.565
350.66
349.6
348.532
347.539
341.598
342.516
343.381
344.273
344.91
345.549
346.075
346.436
346.638
346.799
346.673
346.573
346.212
345.886
345.323
344.657
343.915
343.012
342.068
341.186
335.314
335.979
336.712
337.437
338.058
338.533
338.98
339.277
339.54
339.554
339.567
339.425
339.164
338.76
338.309
337.728
337.094
336.388
335.595
334.99
328.881
329.424
330.045
330.642
331.123
331.551
331.879
332.201
332.31
332.352
332.319
332.247
332.013
331.716
331.272
330.838
330.385
329.736
329.057
328.567
322.484
322.906
323.416
323.792
324.195
324.575
324.793
325.004
325.12
325.19
325.218
325.101
324.908
324.632
324.394
323.985
323.59
323.159
322.676
322.275
316.03
316.366
316.76
316.986
317.299
317.612
317.731
317.859
317.884
318.017
318.005
317.895
317.812
317.608
317.44
317.243
316.825
316.57
316.234
315.879
309.659
309.88
310.048
310.214
310.386
310.565
310.681
310.701
310.807
310.802
310.81
310.776
310.644
310.618
310.454
310.31
310.111
309.888
309.665
309.539
303.278
303.356
303.432
303.467
303.596
303.473
303.502
303.542
303.62
303.616
303.633
303.621
303.569
303.641
303.528
303.489
303.375
303.346
303.308
303.151
349.457
350.473
351.634
352.61
353.501
354.171
354.803
355.146
355.511
355.607
355.54
355.415
355.034
354.537
353.938
353.053
352.21
351.107
350.065
348.986
342.928
343.761
344.71
345.583
346.228
346.927
347.487
347.851
348.049
348.234
348.205
347.91
347.663
347.282
346.667
346.003
345.162
344.268
343.327
342.439
336.316
337.02
337.865
338.56
339.21
339.68
340.156
340.462
340.657
340.764
340.702
340.549
340.353
339.988
339.481
338.932
338.305
337.525
336.599
335.955
329.742
330.235
330.894
331.519
332.028
332.524
332.798
333.01
333.324
333.29
333.284
333.222
333.028
332.699
332.298
331.813
331.31
330.649
329.972
329.356
323.164
323.584
324.137
324.56
324.912
325.288
325.556
325.694
325.906
325.862
325.945
325.812
325.651
325.44
325.118
324.765
324.324
323.895
323.316
322.895
316.588
316.777
317.202
317.524
317.868
318.107
318.241
318.413
318.516
318.557
318.594
318.466
318.356
318.224
317.944
317.705
317.379
316.981
316.66
316.354
310.016
310.141
310.358
310.532
310.68
310.867
310.971
311.03
311.144
311.158
311.063
311.127
311.021
310.898
310.777
310.618
310.415
310.261
310.06
309.854
303.34
303.406
303.496
303.556
303.617
303.644
303.651
303.685
303.766
303.714
303.723
303.768
303.684
303.595
303.622
303.548
303.475
303.439
303.371
303.286
350.806
351.867
353.041
354.039
355
355.706
356.294
356.714
357.017
357.22
357.182
356.914
356.647
356.085
355.479
354.64
353.693
352.611
351.463
350.457
344.157
344.926
345.944
346.834
347.636
348.293
348.776
349.253
349.373
349.578
349.52
349.335
349.007
348.632
348.042
347.377
346.554
345.611
344.58
343.712
337.374
338.044
338.821
339.609
340.305
340.847
341.277
341.605
341.834
341.943
341.918
341.72
341.438
341.131
340.69
340.003
339.355
338.554
337.688
336.978
330.587
331.15
331.845
332.459
333
333.417
333.91
334.082
334.225
334.3
334.292
334.138
333.907
333.604
333.268
332.723
332.206
331.531
330.815
330.274
323.781
324.169
324.776
325.231
325.655
326.071
326.337
326.493
326.628
326.667
326.627
326.585
326.393
326.131
325.879
325.473
325.055
324.574
324.075
323.524
317.066
317.28
317.741
317.99
318.324
318.6
318.734
318.918
319.004
319.06
318.997
318.961
318.826
318.707
318.451
318.187
317.805
317.518
317.111
316.864
310.247
310.435
310.571
310.763
311.055
311.205
311.35
311.429
311.413
311.499
311.424
311.371
311.315
311.241
311.14
310.907
310.76
310.587
310.327
310.105
303.526
303.46
303.592
303.67
303.651
303.708
303.745
303.821
303.825
303.79
303.785
303.804
303.748
303.803
303.672
303.704
303.653
303.532
303.476
303.407
352.218
353.19
354.449
355.504
356.465
357.21
357.845
358.27
358.66
358.762
358.697
358.559
358.153
357.646
356.926
356.226
355.177
354.074
352.92
351.718
345.287
346.14
347.176
348.076
348.896
349.555
350.095
350.458
350.815
350.875
350.805
350.72
350.342
349.875
349.341
348.671
347.746
346.756
345.759
344.833
338.341
339.061
339.867
340.674
341.342
341.903
342.415
342.638
342.898
343.041
342.99
342.898
342.608
342.242
341.756
341.172
340.325
339.656
338.696
337.963
331.436
331.966
332.626
333.328
333.9
334.273
334.673
334.945
335.171
335.1
335.257
335.095
334.911
334.581
334.129
333.698
333.004
332.398
331.738
331.069
324.419
324.851
325.428
325.882
326.287
326.67
326.946
327.193
327.408
327.384
327.373
327.302
327.063
326.919
326.492
326.172
325.708
325.206
324.59
324.243
317.466
317.824
318.107
318.51
318.876
319.07
319.272
319.425
319.527
319.603
319.563
319.508
319.404
319.25
318.956
318.679
318.296
317.93
317.623
317.321
310.517
310.672
310.89
311.12
311.308
311.426
311.542
311.657
311.696
311.693
311.735
311.697
311.648
311.539
311.444
311.159
311.04
310.786
310.606
310.457
303.498
303.532
303.627
303.703
303.784
303.82
303.899
303.865
303.913
303.981
303.956
303.922
303.87
303.809
303.767
303.766
303.767
303.645
303.514
303.442
353.436
354.654
355.735
356.829
357.783
358.633
359.255
359.715
360.039
360.202
360.175
359.859
359.723
359.12
358.434
357.545
356.584
355.456
354.183
353.136
346.351
347.242
348.295
349.285
350.058
350.809
351.38
351.782
352.064
352.133
352.135
351.932
351.63
351.161
350.536
349.891
348.987
348.008
346.944
346.009
339.315
340.006
340.96
341.697
342.399
343.003
343.454
343.816
344.004
344.174
344.086
343.912
343.718
343.36
342.763
342.136
341.449
340.613
339.695
338.938
332.159
332.738
333.454
334.135
334.719
335.187
335.586
335.895
336.116
336.099
336.094
335.93
335.715
335.384
335.047
334.516
333.965
333.231
332.529
331.818
325.018
325.526
326.005
326.548
327.011
327.402
327.681
327.938
328.041
328.111
328.026
327.97
327.806
327.556
327.249
326.799
326.4
325.841
325.258
324.744
317.955
318.158
318.599
318.954
319.331
319.556
319.802
319.982
320.038
320.048
320.062
319.976
319.861
319.679
319.37
319.147
318.81
318.471
318.018
317.749
310.788
310.938
311.15
311.459
311.604
311.822
311.85
311.939
312.005
312.078
312.024
311.986
311.968
311.863
311.665
311.503
311.268
311.038
310.855
310.668
303.606
303.674
303.806
303.819
303.897
303.915
303.989
304.008
303.976
304.014
304.072
304.043
303.93
303.942
303.92
303.842
303.781
303.746
303.624
303.539
354.671
355.788
356.995
358.199
359.071
360
360.608
361.224
361.473
361.605
361.619
361.352
361.04
360.425
359.852
358.886
357.947
356.742
355.499
354.324
347.413
348.399
349.504
350.475
351.173
351.977
352.513
352.957
353.242
353.44
353.398
353.141
352.872
352.373
351.832
351.067
350.101
349.132
348.059
347.076
340.077
340.936
341.814
342.629
343.329
343.971
344.371
344.795
345.021
345.164
345.164
344.931
344.691
344.369
343.87
343.15
342.395
341.588
340.571
339.83
332.889
333.438
334.192
334.916
335.46
335.991
336.344
336.68
336.872
336.916
336.895
336.832
336.571
336.235
335.857
335.326
334.701
334.044
333.266
332.594
325.575
326.06
326.572
327.088
327.597
327.944
328.24
328.506
328.717
328.739
328.744
328.616
328.586
328.176
327.866
327.406
327.005
326.472
325.881
325.398
318.287
318.651
319.028
319.333
319.706
319.932
320.238
320.381
320.478
320.528
320.504
320.498
320.318
320.086
319.872
319.567
319.317
318.858
318.477
318.156
310.947
311.163
311.413
311.604
311.818
312.058
312.193
312.263
312.348
312.293
312.301
312.304
312.204
312.117
311.982
311.751
311.588
311.372
311.112
310.912
303.71
303.78
303.837
303.92
303.972
303.999
304.078
304.131
304.12
304.101
304.171
304.134
303.992
304.064
304.039
303.955
303.903
303.891
303.725
303.654
355.822
356.932
358.212
359.365
360.428
361.251
361.908
362.441
362.78
362.954
362.962
362.72
362.302
361.769
361.08
360.218
359.129
357.905
356.638
355.471
348.413
349.298
350.469
351.404
352.366
353.085
353.631
354.129
354.311
354.515
354.477
354.309
354.008
353.56
352.928
352.14
351.263
350.2
349.064
348.124
340.899
341.832
342.7
343.46
344.292
344.927
345.364
345.764
345.983
346.082
346.125
345.906
345.682
345.292
344.766
344.123
343.281
342.453
341.507
340.762
333.527
334.149
334.973
335.642
336.223
336.74
337.151
337.392
337.674
337.748
337.694
337.635
337.337
337.03
336.671
336.084
335.419
334.716
333.942
333.323
326.141
326.567
327.133
327.596
328.182
328.502
328.93
329.123
329.293
329.387
329.322
329.217
329.069
328.835
328.483
327.999
327.584
326.984
326.365
325.925
318.64
319.08
319.402
319.777
320.114
320.426
320.611
320.788
320.911
320.964
320.958
320.843
320.713
320.57
320.328
320.05
319.719
319.289
318.861
318.511
311.207
311.428
311.684
311.933
312.128
312.215
312.401
312.497
312.545
312.635
312.586
312.518
312.495
312.418
312.123
312.027
311.777
311.599
311.411
311.185
303.804
303.827
303.885
303.924
304.046
304.14
304.146
304.205
304.205
304.148
304.228
304.192
304.243
304.111
304.077
304.059
304
303.913
303.738
303.713
356.776
357.89
359.343
360.553
361.467
362.391
363.122
363.661
364.032
364.179
364.077
363.941
363.571
363.011
362.214
361.334
360.287
359.07
357.808
356.592
349.208
350.261
351.376
352.46
353.306
354.095
354.652
355.131
355.401
355.665
355.561
355.365
355.058
354.63
353.903
353.144
352.166
351.189
350.082
349.084
341.735
342.523
343.453
344.267
345.091
345.723
346.276
346.69
346.882
347.022
347.047
346.819
346.6
346.2
345.603
344.934
344.185
343.271
342.286
341.485
334.189
334.85
335.557
336.31
336.885
337.414
337.834
338.126
338.355
338.491
338.417
338.301
338.109
337.825
337.292
336.799
336.099
335.395
334.612
333.994
326.608
327.092
327.647
328.19
328.7
329.142
329.46
329.679
329.905
329.878
329.93
329.782
329.607
329.398
329.009
328.6
328.081
327.506
326.94
326.39
318.942
319.373
319.718
320.14
320.554
320.809
320.987
321.205
321.31
321.42
321.344
321.291
321.171
320.939
320.79
320.476
320.013
319.705
319.315
318.797
311.394
311.599
311.86
312.079
312.328
312.483
312.593
312.7
312.767
312.898
312.808
312.789
312.746
312.583
312.442
312.257
312.026
311.824
311.582
311.37
303.88
303.868
303.953
304.006
304.163
304.144
304.275
304.27
304.219
304.31
304.331
304.316
304.251
304.176
304.242
304.17
304.02
304.034
303.933
303.916
357.784
358.959
360.312
361.602
362.606
363.473
364.251
364.741
365.147
365.317
365.302
365.121
364.753
364.127
363.432
362.416
361.378
360.16
358.748
357.623
350.125
351.135
352.33
353.329
354.294
354.996
355.633
356.133
356.463
356.527
356.565
356.406
356.021
355.529
354.86
354.089
353.17
351.996
350.921
349.923
342.468
343.26
344.138
345.171
345.939
346.542
347.079
347.495
347.674
347.882
347.817
347.718
347.341
347.071
346.414
345.826
344.925
344.088
343.013
342.187
334.754
335.355
336.106
336.892
337.498
338.083
338.567
338.811
339.046
339.148
339.127
338.999
338.75
338.43
337.945
337.416
336.781
336.034
335.201
334.625
327.031
327.574
328.152
328.737
329.162
329.577
329.994
330.134
330.42
330.46
330.392
330.307
330.151
329.839
329.559
329.17
328.611
328.082
327.446
326.852
319.291
319.714
320.074
320.474
320.79
321.126
321.462
321.639
321.795
321.753
321.695
321.654
321.574
321.363
321.103
320.78
320.441
320.039
319.569
319.233
311.617
311.935
312.054
312.322
312.529
312.649
312.893
312.97
313.082
313.112
313.079
312.987
312.997
312.829
312.702
312.463
312.244
312.065
311.742
311.57
303.89
304.035
304.058
304.123
304.208
304.268
304.268
304.331
304.374
304.356
304.35
304.329
304.293
304.226
304.221
304.155
304.113
304.028
303.927
303.895
358.649
359.911
361.237
362.503
363.528
364.418
365.317
365.817
366.187
366.285
366.283
366.134
365.753
365.135
364.329
363.443
362.384
361.038
359.764
358.501
350.868
351.888
353.1
354.165
355.048
355.888
356.503
357.013
357.249
357.437
357.445
357.259
356.906
356.411
355.736
354.909
353.902
352.86
351.772
350.67
343.083
343.985
344.875
345.715
346.646
347.275
347.837
348.194
348.559
348.613
348.556
348.39
348.181
347.74
347.176
346.48
345.648
344.757
343.726
342.991
335.336
335.939
336.695
337.441
338.091
338.604
339.145
339.442
339.752
339.78
339.758
339.676
339.402
339.037
338.574
337.928
337.355
336.669
335.831
335.143
327.444
327.904
328.623
329.171
329.712
330.078
330.417
330.677
330.824
330.894
330.951
330.768
330.62
330.339
329.916
329.605
329.022
328.421
327.866
327.33
319.576
319.954
320.388
320.823
321.261
321.561
321.721
321.93
322.04
322.084
322.056
322.04
321.908
321.703
321.423
321.142
320.66
320.292
319.878
319.494
311.77
312.033
312.204
312.524
312.663
312.871
313.018
313.176
313.257
313.314
313.227
313.234
313.161
312.992
312.898
312.661
312.482
312.196
311.996
311.734
303.953
304.027
304.064
304.178
304.257
304.301
304.387
304.433
304.395
304.427
304.417
304.466
304.377
304.351
304.304
304.227
304.226
304.152
303.988
303.913
359.428
360.722
362.024
363.327
364.38
365.336
366.13
366.658
367.097
367.247
367.281
366.996
366.626
366.031
365.237
364.277
363.157
361.887
360.543
359.309
351.526
352.595
353.787
354.843
355.837
356.595
357.263
357.784
358.099
358.203
358.21
358.063
357.68
357.23
356.484
355.643
354.707
353.578
352.423
351.418
343.594
344.44
345.38
346.449
347.174
347.928
348.535
348.872
349.143
349.259
349.168
349.127
348.869
348.42
347.809
347.13
346.323
345.364
344.366
343.412
335.691
336.357
337.146
337.995
338.655
339.187
339.632
339.983
340.17
340.31
340.231
340.162
339.889
339.555
339.099
338.565
337.82
337.131
336.273
335.62
327.802
328.289
328.971
329.543
330.008
330.445
330.835
331.106
331.276
331.329
331.382
331.239
330.95
330.784
330.475
329.992
329.472
328.896
328.228
327.816
319.824
320.276
320.693
321.067
321.444
321.699
322.017
322.177
322.293
322.31
322.344
322.238
322.172
321.95
321.692
321.422
321.055
320.564
320.114
319.714
311.935
312.136
312.441
312.675
312.883
313.15
313.297
313.351
313.39
313.408
313.459
313.414
313.35
313.178
313.078
312.873
312.623
312.453
312.147
311.911
304.028
304.081
304.151
304.305
304.314
304.399
304.452
304.46
304.552
304.534
304.548
304.46
304.439
304.493
304.361
304.327
304.32
304.108
304.023
303.956
360.107
361.393
362.785
364.041
365.175
366.101
366.897
367.481
367.829
368.036
368.107
367.773
367.343
366.759
366.027
365.084
363.934
362.642
361.222
359.997
352.171
353.161
354.32
355.401
356.476
357.258
358.022
358.36
358.758
358.958
358.882
358.802
358.357
357.85
357.242
356.355
355.331
354.298
353.054
352.075
344.129
345.017
345.914
346.876
347.699
348.497
349.003
349.482
349.697
349.809
349.835
349.631
349.421
348.974
348.383
347.635
346.851
345.959
344.829
343.979
336.149
336.844
337.539
338.381
339.051
339.662
340.154
340.48
340.704
340.735
340.743
340.652
340.319
340.002
339.531
339.019
338.36
337.528
336.773
335.995
328.147
328.634
329.266
329.848
330.432
330.766
331.146
331.44
331.681
331.766
331.726
331.583
331.411
331.129
330.804
330.281
329.833
329.142
328.518
328.036
320.111
320.502
320.919
321.326
321.697
322.029
322.287
322.469
322.611
322.659
322.663
322.503
322.449
322.282
321.993
321.652
321.312
320.867
320.407
320.067
312.095
312.281
312.524
312.771
313.02
313.264
313.307
313.539
313.58
313.591
313.604
313.531
313.466
313.377
313.251
313.018
312.784
312.492
312.25
312.068
304.105
304.159
304.253
304.324
304.359
304.407
304.526
304.519
304.595
304.525
304.561
304.542
304.521
304.525
304.433
304.366
304.261
304.18
304.157
304.032
360.667
361.969
363.286
364.584
365.779
366.752
367.472
368.115
368.549
368.731
368.674
368.45
368.037
367.528
366.69
365.724
364.548
363.228
361.869
360.629
352.598
353.562
354.908
356.016
356.997
357.808
358.518
359.005
359.349
359.513
359.572
359.339
358.968
358.487
357.795
356.966
355.925
354.835
353.635
352.526
344.496
345.33
346.424
347.321
348.222
348.855
349.441
349.941
350.12
350.398
350.344
350.183
349.89
349.434
348.825
348.184
347.306
346.352
345.276
344.448
336.408
337.14
337.971
338.798
339.442
340.093
340.473
340.864
341.106
341.202
341.146
341.031
340.802
340.463
339.916
339.371
338.659
337.929
337.15
336.317
328.393
328.895
329.514
330.113
330.68
331.139
331.561
331.763
331.933
332.075
332.014
331.928
331.742
331.435
331.026
330.661
330.064
329.499
328.839
328.256
320.237
320.717
321.112
321.515
321.934
322.188
322.446
322.738
322.839
322.93
322.937
322.769
322.632
322.426
322.213
321.881
321.457
321.069
320.595
320.142
312.193
312.387
312.655
312.944
313.192
313.335
313.511
313.648
313.69
313.736
313.716
313.626
313.597
313.543
313.29
313.07
312.867
312.62
312.341
312.128
304.114
304.087
304.227
304.336
304.407
304.458
304.557
304.531
304.529
304.565
304.704
304.636
304.655
304.546
304.369
304.462
304.324
304.196
304.156
304.073
361.126
362.35
363.806
365.16
366.297
367.22
368.069
368.661
369.092
369.315
369.24
369.033
368.702
368.095
367.315
366.298
365.08
363.752
362.38
361.052
352.986
354.074
355.313
356.44
357.515
358.325
358.979
359.504
359.745
360.039
359.986
359.802
359.443
358.956
358.327
357.443
356.356
355.245
353.956
352.987
344.926
345.778
346.789
347.766
348.565
349.327
349.895
350.314
350.602
350.783
350.775
350.558
350.282
349.922
349.339
348.588
347.697
346.716
345.726
344.821
336.73
337.419
338.242
339.106
339.685
340.304
340.792
341.134
341.358
341.563
341.453
341.337
341.06
340.808
340.254
339.663
338.962
338.223
337.374
336.689
328.538
329.139
329.803
330.373
330.943
331.368
331.739
332.008
332.189
332.292
332.25
332.16
331.948
331.659
331.255
330.834
330.263
329.735
329.045
328.496
320.44
320.747
321.244
321.747
322.099
322.452
322.638
322.863
323.074
323.129
323.053
322.974
322.878
322.653
322.399
322.068
321.649
321.269
320.734
320.402
312.232
312.515
312.799
312.989
313.288
313.437
313.59
313.772
313.79
313.883
313.867
313.844
313.714
313.648
313.444
313.272
313.022
312.771
312.519
312.223
304.113
304.13
304.24
304.424
304.436
304.567
304.565
304.627
304.698
304.597
304.676
304.617
304.537
304.571
304.571
304.463
304.406
304.187
304.163
304.159
361.427
362.749
364.143
365.49
366.677
367.734
368.454
369.054
369.521
369.703
369.739
369.457
369.083
368.553
367.711
366.767
365.513
364.188
362.77
361.45
353.322
354.355
355.694
356.801
357.745
358.633
359.38
359.89
360.216
360.377
360.322
360.186
359.845
359.297
358.594
357.718
356.693
355.678
354.292
353.271
345.165
346.024
347.063
348.049
348.91
349.608
350.199
350.659
350.93
351.054
351.022
350.895
350.594
350.16
349.579
348.845
348.064
347.075
345.92
345.11
336.906
337.71
338.49
339.273
339.931
340.576
341.045
341.448
341.759
341.735
341.792
341.61
341.368
341.006
340.546
339.943
339.195
338.462
337.616
336.816
328.676
329.281
329.971
330.63
331.072
331.589
331.933
332.205
332.339
332.445
332.526
332.335
332.204
331.938
331.521
331.123
330.576
329.902
329.272
328.618
320.553
320.967
321.433
321.877
322.251
322.573
322.821
323.057
323.186
323.252
323.19
323.1
323.027
322.713
322.47
322.221
321.775
321.353
320.927
320.548
312.304
312.543
312.774
313.147
313.364
313.538
313.625
313.852
313.872
314.001
314.025
313.919
313.786
313.611
313.506
313.337
313.084
312.729
312.544
312.316
304.16
304.24
304.275
304.383
304.43
304.569
304.61
304.626
304.611
304.689
304.624
304.653
304.61
304.581
304.57
304.443
304.435
304.323
304.259
304.127
361.682
362.977
364.426
365.784
366.961
368.024
368.781
369.379
369.779
369.964
370.018
369.788
369.426
368.768
368.047
367.027
365.782
364.593
363.071
361.677
353.557
354.61
355.838
356.967
358.047
358.875
359.575
360.116
360.568
360.635
360.624
360.389
360.17
359.571
358.855
358.098
357.011
355.752
354.656
353.513
345.276
346.175
347.219
348.193
349.04
349.784
350.349
350.806
351.099
351.331
351.221
351.112
350.795
350.388
349.833
349.042
348.216
347.209
346.217
345.235
337.02
337.751
338.667
339.48
340.151
340.785
341.215
341.608
341.876
341.942
341.951
341.853
341.557
341.203
340.705
340.112
339.484
338.648
337.753
337.04
328.828
329.421
330.033
330.67
331.17
331.763
332.023
332.312
332.519
332.6
332.688
332.483
332.284
332.095
331.696
331.143
330.621
330.046
329.306
328.852
320.597
321.024
321.482
321.909
322.291
322.683
322.882
323.056
323.265
323.281
323.262
323.159
323.132
322.912
322.591
322.317
321.875
321.487
320.996
320.611
312.379
312.581
312.903
313.17
313.336
313.619
313.723
313.825
313.971
313.966
313.993
313.97
313.902
313.692
313.649
313.431
313.177
312.874
312.624
312.396
304.145
304.248
304.354
304.465
304.451
304.57
304.57
304.642
304.714
304.652
304.695
304.657
304.61
304.63
304.577
304.479
304.412
304.363
304.278
304.153
361.766
363.094
364.591
365.902
367.065
368.138
368.921
369.525
369.964
370.168
370.165
369.901
369.587
368.93
368.195
367.137
365.95
364.641
363.123
361.904
353.609
354.69
355.949
357.033
358.129
359.071
359.774
360.249
360.64
360.834
360.78
360.585
360.237
359.681
359.014
358.192
357.136
356.002
354.746
353.636
345.335
346.29
347.28
348.363
349.194
349.935
350.479
350.981
351.196
351.478
351.416
351.215
350.994
350.468
349.901
349.152
348.337
347.307
346.313
345.406
337.113
337.917
338.71
339.479
340.233
340.854
341.253
341.703
341.931
342.134
342.028
341.918
341.653
341.293
340.846
340.183
339.513
338.628
337.854
337.123
328.867
329.422
330.113
330.76
331.285
331.794
332.175
332.41
332.526
332.687
332.746
332.625
332.421
332.099
331.738
331.289
330.755
330.038
329.418
328.911
320.694
321.088
321.464
321.925
322.341
322.682
322.882
323.205
323.283
323.257
323.33
323.236
323.155
322.903
322.679
322.329
321.928
321.502
321.014
320.624
312.387
312.648
312.907
313.155
313.406
313.581
313.839
313.838
314.014
314.059
314.025
313.972
313.854
313.83
313.601
313.422
313.21
312.996
312.675
312.387
304.17
304.191
304.321
304.496
304.557
304.593
304.614
304.659
304.787
304.699
304.682
304.733
304.625
304.577
304.492
304.438
304.394
304.36
304.195
304.245
)
;

boundaryField
{
    hotSide
    {
        type            fixedGradient;
        gradient        nonuniform List<scalar> 
400
(
321.511
322.87
325.591
329.677
335.133
341.965
350.181
359.788
370.794
383.208
397.037
412.289
428.971
447.088
466.647
487.651
510.105
534.011
559.372
586.191
323.738
325.08
327.767
331.802
337.194
343.949
352.078
361.591
372.498
384.81
398.537
413.687
430.268
448.289
467.755
488.672
511.043
534.872
560.161
586.913
326.149
327.47
330.116
334.091
339.406
346.071
354.099
363.503
374.296
386.491
400.101
415.136
431.606
449.52
468.885
489.706
511.988
535.735
560.948
587.63
328.704
330
332.597
336.503
341.73
348.292
356.205
365.485
376.15
388.215
401.695
416.604
432.954
450.753
470.009
490.73
512.919
536.579
561.714
588.325
331.33
332.599
335.142
338.97
344.099
350.546
358.332
367.477
378.003
389.928
403.271
418.047
434.27
451.949
471.095
491.712
513.807
537.382
562.439
588.978
333.918
335.158
337.643
341.389
346.414
352.74
360.392
369.397
379.779
391.562
404.765
419.407
435.503
453.065
472.101
492.618
514.622
538.114
563.096
589.569
336.321
337.531
339.959
343.622
348.544
354.751
362.274
371.142
381.385
393.031
406.101
420.618
436.595
454.047
472.983
493.409
515.33
538.747
563.663
590.076
338.36
339.543
341.92
345.509
350.339
356.44
363.847
372.595
382.718
394.244
407.2
421.608
437.485
454.844
473.695
494.045
515.897
539.253
564.114
590.478
339.852
341.015
343.352
346.885
351.645
357.665
364.985
373.643
383.675
395.113
407.984
422.312
438.116
455.407
474.197
494.491
516.294
539.606
564.428
590.758
340.643
341.795
344.11
347.613
352.334
358.311
365.584
374.193
384.176
395.567
408.393
422.679
438.443
455.699
474.456
494.722
516.498
539.788
564.589
590.901
340.643
341.795
344.11
347.613
352.334
358.311
365.584
374.193
384.176
395.567
408.393
422.679
438.443
455.699
474.456
494.722
516.498
539.788
564.589
590.901
339.852
341.015
343.352
346.885
351.645
357.665
364.985
373.643
383.675
395.113
407.984
422.312
438.116
455.407
474.197
494.491
516.294
539.606
564.428
590.758
338.36
339.543
341.92
345.509
350.339
356.44
363.847
372.595
382.718
394.244
407.2
421.608
437.485
454.844
473.695
494.045
515.897
539.253
564.114
590.478
336.321
337.531
339.959
343.622
348.544
354.751
362.274
371.142
381.385
393.031
406.101
420.618
436.595
454.047
472.983
493.409
515.33
538.747
563.663
590.076
333.918
335.158
337.643
341.389
346.414
352.74
360.392
369.397
379.779
391.562
404.765
419.407
435.503
453.065
472.101
492.618
514.622
538.114
563.096
589.569
331.33
332.599
335.142
338.97
344.099
350.546
358.332
367.477
378.003
389.928
403.271
418.047
434.27
451.949
471.095
491.712
513.807
537.382
562.439
588.978
328.704
330
332.597
336.503
341.73
348.292
356.205
365.485
376.15
388.215
401.695
416.604
432.954
450.753
470.009
490.73
512.919
536.579
561.714
588.325
326.149
327.47
330.116
334.091
339.406
346.071
354.099
363.503
374.296
386.491
400.101
415.136
431.606
449.52
468.885
489.706
511.988
535.735
560.948
587.63
323.738
325.08
327.767
331.802
337.194
343.949
352.078
361.591
372.498
384.81
398.537
413.687
430.268
448.289
467.755
488.672
511.043
534.872
560.161
586.913
321.511
322.87
325.591
329.677
335.133
341.965
350.181
359.788
370.794
383.208
397.037
412.289
428.971
447.088
466.647
487.651
510.105
534.011
559.372
586.191
)
;
    }
    coldSide
    {
        type            mixed;
        refValue        uniform 300;
        refGradient     uniform 0;
        valueFraction   uniform 0.991591;
        source          uniform 0;
        value           nonuniform List<scalar> 
400
(
300.025
300.026
300.027
300.028
300.028
300.03
300.029
300.03
300.031
300.032
300.033
300.033
300.033
300.034
300.035
300.035
300.035
300.035
300.035
300.035
300.026
300.027
300.027
300.028
300.029
300.029
300.03
300.031
300.032
300.032
300.033
300.034
300.034
300.034
300.035
300.034
300.035
300.036
300.036
300.035
300.026