/*--------------------------------*- C++ -*----------------------------------*\
| =========                 |                                                 |
| \\      /  F ield         | OpenFOAM: The Open Source CFD Toolbox           |
|  \\    /   O peration     | Version:  2212                                  |
|   \\  /    A nd           | Website:  www.openfoam.com                      |
|    \\/     M anipulation  |                                                 |
\*---------------------------------------------------------------------------*/
FoamFile
{
    version     2.0;
    format      ascii;
    arch        "LSB;label=32;scalar=64";
    class       volScalarField;
    location    "./ITHACAoutput/true/4.4";
    object      error;
}
// * * * * * * * * * * * * * * * * * * * * * * * * * * * * * * * * * * * * * //

dimensions      [0 0 0 1 0 0 0];

internalField   nonuniform List<scalar> 
3200
(
1.34121
1.22941
1.27317
1.54301
1.94363
2.5038
3.11034
3.62554
3.98202
4.2308
4.41064
4.26201
4.07266
3.64378
3.22
2.88767
2.63643
2.49837
2.54659
2.68394
1.08302
1.03488
1.03487
1.26105
1.68757
2.01092
2.65015
3.08996
3.40917
3.68
3.77931
3.64257
3.4847
3.13271
2.75634
2.42753
2.15619
2.08786
2.07239
2.30106
0.90125
0.798113
0.796368
0.995178
1.34593
1.69954
2.10501
2.44168
2.85724
3.09904
3.13011
3.03696
2.85361
2.54902
2.25521
1.9911
1.84987
1.71917
1.80709
1.83054
0.73132
0.621152
0.657796
0.83283
1.07025
1.39621
1.70302
2.02237
2.25422
2.43338
2.54969
2.44279
2.29772
2.04514
1.79868
1.66878
1.51502
1.39224
1.39359
1.48413
0.49184
0.529525
0.537697
0.602182
0.818538
1.00439
1.26496
1.59159
1.75919
1.91612
1.94373
1.92647
1.66423
1.55325
1.3918
1.26098
1.09266
1.01813
1.02468
1.14954
0.371336
0.301095
0.391254
0.441913
0.561149
0.729066
0.875554
1.15504
1.23066
1.3448
1.38434
1.26974
1.2439
1.18151
1.00015
0.87024
0.797231
0.736378
0.824441
0.841308
0.219738
0.179205
0.24207
0.252575
0.269965
0.42354
0.553272
0.716389
0.755867
0.831193
0.762767
0.793064
0.792571
0.704849
0.594001
0.473755
0.470922
0.464989
0.509123
0.467288
0.109454
0.0856307
0.0309775
0.0945172
0.0962122
0.129048
0.217461
0.167103
0.244256
0.298306
0.243099
0.282335
0.307598
0.183635
0.19079
0.169761
0.229989
0.197386
0.138422
0.197233
0.647468
0.523602
0.623612
0.780074
1.08554
1.62123
2.16212
2.76064
3.17728
3.45908
3.47797
3.39047
3.18283
2.78756
2.45391
2.06054
1.84698
1.73427
1.77548
2.09517
0.472067
0.510469
0.503097
0.626703
0.947241
1.3678
1.83748
2.27396
2.66605
2.94615
2.98221
2.964
2.76867
2.40041
2.03533
1.77643
1.52961
1.42756
1.51914
1.65372
0.410106
0.379561
0.390818
0.528267
0.820276
1.18412
1.55508
1.9438
2.23225
2.39589
2.56255
2.40821
2.31762
2.02769
1.67694
1.50716
1.27459
1.28393
1.30465
1.42028
0.355385
0.251668
0.264897
0.433276
0.650399
0.921525
1.21111
1.54216
1.91043
2.04482
2.09767
1.97449
1.85073
1.58633
1.40163
1.17024
1.20372
1.05188
1.02915
1.10185
0.242382
0.234121
0.271366
0.270794
0.496809
0.702446
1.01332
1.23508
1.38107
1.52583
1.59383
1.49839
1.47521
1.30609
1.08644
0.961771
0.812573
0.785513
0.80427
0.941814
0.201257
0.12952
0.106999
0.242007
0.297679
0.519061
0.702592
0.878923
0.991469
1.08434
1.07546
1.07914
1.03509
0.916098
0.775798
0.60818
0.658241
0.610693
0.545845
0.708258
0.0530343
0.0614258
0.138388
0.118923
0.276542
0.315453
0.425657
0.493089
0.574701
0.714472
0.645408
0.664374
0.565493
0.53522
0.475287
0.362557
0.380501
0.432548
0.393795
0.362776
0.00019044
0.00425113
0.0133861
0.0653948
0.0303903
0.160114
0.0964726
0.154597
0.167051
0.145359
0.203203
0.216034
0.161036
0.196866
0.123329
0.050119
0.0777425
0.0978428
0.118486
0.0543916
-0.221354
-0.376865
-0.351988
-0.186635
0.205744
0.627389
1.06198
1.61233
1.99964
2.26574
2.3363
2.24088
2.03821
1.69344
1.34298
1.06338
0.87805
0.758483
0.907276
1.12707
-0.220925
-0.221571
-0.288494
-0.180989
0.122378
0.532279
0.933393
1.4283
1.71211
1.96867
2.0173
1.9429
1.73417
1.49413
1.1629
0.864326
0.718233
0.753167
0.840289
0.972389
-0.200364
-0.24792
-0.254835
-0.169272
0.122159
0.435209
0.803245
1.14992
1.41063
1.65899
1.64957
1.71768
1.54538
1.19129
1.06454
0.854505
0.564084
0.61135
0.619572
0.777742
-0.133044
-0.251552
-0.242946
-0.0732699
0.0269387
0.328033
0.598502
0.910581
1.15597
1.26259
1.38471
1.32145
1.18961
0.989048
0.779849
0.64541
0.569627
0.509243
0.516751
0.630623
-0.0953277
-0.135031
-0.222668
-0.123068
0.0927706
0.268162
0.539928
0.666481
0.944548
0.971604
1.1301
1.01655
0.926906
0.82357
0.675374
0.550903
0.451888
0.382326
0.43794
0.448722
-0.121458
-0.133196
-0.0727042
-0.0679916
0.038682
0.191693
0.361027
0.563385
0.619498
0.664129
0.747086
0.769059
0.626481
0.590525
0.512792
0.330719
0.31532
0.2435
0.319045
0.350108
-0.0318455
-0.0726295
-0.107202
-0.0314564
-0.0483526
0.0651407
0.181455
0.323328
0.325315
0.417969
0.435199
0.460546
0.397706
0.403234
0.296879
0.168402
0.189216
0.173108
0.16047
0.184122
0.0226486
-0.102637
0.0206694
0.000627628
0.0433251
0.0833667
0.125745
0.103369
0.101846
0.0953388
0.181502
0.120555
0.194
0.0801364
0.0894715
0.00496587
0.0910077
0.00829355
0.103078
0.0520645
-0.977735
-1.11748
-1.13894
-1.02764
-0.820884
-0.433637
0.000253145
0.485427
0.873246
1.1001
1.07563
1.07297
0.943271
0.610222
0.3746
0.0727368
-0.0587029
-0.0582442
0.150988
0.37095
-0.79448
-0.937098
-1.04264
-0.913142
-0.656909
-0.38128
0.0445121
0.37681
0.71209
0.944451
1.07566
0.940705
0.783406
0.501024
0.275546
0.163035
-0.00100015
-0.021259
0.118737
0.299711
-0.721107
-0.836234
-0.803512
-0.842682
-0.594423
-0.355034
0.0775062
0.30544
0.623918
0.838834
0.834433
0.80692
0.657562
0.430809
0.236705
0.0837929
0.000873227
0.00462628
0.144598
0.265973
-0.617749
-0.681647
-0.674642
-0.605964
-0.487669
-0.244554
0.00759726
0.270152
0.530495
0.672101
0.645779
0.625957
0.558503
0.397351
0.243924
0.140396
-0.0300521
0.00109023
0.0742305
0.254094
-0.423501
-0.534053
-0.518166
-0.515381
-0.397346
-0.204536
0.0221906
0.233875
0.346834
0.51024
0.578681
0.531207
0.497488
0.336809
0.12057
0.0781527
-0.00583877
0.0252302
0.0806775
0.196094
-0.323179
-0.352698
-0.455482
-0.386261
-0.249224
-0.175801
-0.0347596
0.173825
0.31619
0.30081
0.377633
0.381227
0.328522
0.226803
0.137463
0.0171325
-0.0324319
0.00996445
0.0527403
0.102023
-0.200136
-0.172093
-0.168933
-0.262997
-0.150163
-0.132519
0.00926804
0.0937065
0.19487
0.164461
0.267265
0.253248
0.21173
0.114143
0.0414204
0.0540487
0.0404928
-0.00960706
0.0691359
0.10381
-0.0801801
-0.112331
-0.0784494
-0.0385186
0.0029515
-0.0188808
-0.0166625
0.0187644
0.0311603
0.016552
0.109538
0.0791932
0.0748884
-0.0244494
0.039332
-0.0138384
0.0687402
-0.053799
0.0242313
0.0916548
-1.62243
-1.80822
-1.92327
-1.81222
-1.60523
-1.40095
-0.951254
-0.515884
-0.223054
0.0681563
0.103893
0.0767077
-0.0953772
-0.368357
-0.635062
-0.8199
-0.86706
-0.789465
-0.50799
-0.279533
-1.3527
-1.52172
-1.70329
-1.643
-1.46381
-1.16533
-0.83743
-0.519823
-0.210969
0.0463869
0.0755108
5.00137e-05
-0.102666
-0.313879
-0.578769
-0.619995
-0.755779
-0.645565
-0.525331
-0.16746
-1.23421
-1.28073
-1.3636
-1.26541
-1.24104
-1.00921
-0.657772
-0.323299
-0.187551
0.0191083
0.134853
-0.00553141
-0.138515
-0.263222
-0.423094
-0.592263
-0.553766
-0.520317
-0.382576
-0.220005
-0.954443
-1.02214
-1.18569
-1.11559
-0.950163
-0.830995
-0.569953
-0.310993
-0.111693
0.00639686
0.0684945
0.113254
-0.0489518
-0.176144
-0.33465
-0.418721
-0.46912
-0.42257
-0.314245
-0.113615
-0.78203
-0.879159
-0.901282
-0.849665
-0.745373
-0.62852
-0.439447
-0.240763
-0.0934348
0.072902
0.04569
0.0106465
-0.0516023
-0.137654
-0.247877
-0.356421
-0.290893
-0.297444
-0.273002
-0.103166
-0.559663
-0.616872
-0.67362
-0.569068
-0.541174
-0.486401
-0.336749
-0.14519
-0.105379
-0.0271581
0.0294685
0.0197315
-0.0143047
-0.0883741
-0.187925
-0.149661
-0.251517
-0.283956
-0.145594
-0.0655964
-0.288015
-0.379027
-0.406192
-0.336634
-0.354491
-0.254787
-0.194664
-0.173912
0.0280328
0.0573907
0.0268688
0.00180437
-0.0560693
-0.0974928
-0.101971
-0.164208
-0.129648
-0.193854
-0.0918109
-0.0379526
-0.0742211
-0.136143
-0.0659981
-0.137258
-0.132939
-0.113923
-0.0321897
-0.029652
-0.0238839
-0.0552756
0.0583021
0.0204503
-0.00251815
-0.0150265
0.0188585
0.0306159
-0.0900621
-0.107499
-0.0460022
-0.0432244
-1.98622
-2.34253
-2.44561
-2.45765
-2.36034
-2.11784
-1.79137
-1.44093
-1.1995
-0.892714
-0.823773
-0.898342
-1.04251
-1.1854
-1.35211
-1.46572
-1.41738
-1.30565
-1.03903
-0.69022
-1.69489
-1.97001
-2.15275
-2.16075
-2.03961
-1.79268
-1.53228
-1.22695
-1.00149
-0.788243
-0.728092
-0.829011
-0.852255
-1.10818
-1.15386
-1.28454
-1.23823
-1.08065
-0.843274
-0.602047
-1.47754
-1.66401
-1.78388
-1.85841
-1.74067
-1.54568
-1.31808
-1.01024
-0.878037
-0.608938
-0.578247
-0.590854
-0.688217
-0.855191
-1.02342
-1.08902
-0.995042
-0.978326
-0.750668
-0.510431
-1.2267
-1.31163
-1.49852
-1.43374
-1.33782
-1.3069
-1.05516
-0.858948
-0.697033
-0.586633
-0.508874
-0.491993
-0.550605
-0.671815
-0.785791
-0.920623
-0.828692
-0.743244
-0.601191
-0.399307
-0.949855
-0.993102
-1.1211
-1.14983
-1.09893
-0.976364
-0.872937
-0.671184
-0.54416
-0.403446
-0.378304
-0.360171
-0.470015
-0.564365
-0.638493
-0.636397
-0.650863
-0.565177
-0.474458
-0.237204
-0.714573
-0.740275
-0.82972
-0.828784
-0.794662
-0.678075
-0.574821
-0.450329
-0.328931
-0.278078
-0.281832
-0.351012
-0.332332
-0.417305
-0.476214
-0.493521
-0.442148
-0.444377
-0.335978
-0.182842
-0.408348
-0.486421
-0.469573
-0.440908
-0.470264
-0.441781
-0.375051
-0.28188
-0.234623
-0.185083
-0.149334
-0.212402
-0.220267
-0.224576
-0.275198
-0.288152
-0.30093
-0.209347
-0.272139
-0.158213
-0.170381
-0.196721
-0.172274
-0.152981
-0.146327
-0.089706
-0.200648
-0.0936232
-0.0945684
-0.073475
-0.0178113
-0.089973
-0.0424934
-0.079502
-0.0428007
-0.133229
-0.0548058
-0.0962311
-0.0429097
-0.108175
-2.23179
-2.57579
-2.80322
-2.94235
-2.8842
-2.68469
-2.41634
-2.20618
-1.95843
-1.77112
-1.67392
-1.71969
-1.78808
-1.89903
-1.98844
-1.98396
-1.86719
-1.66893
-1.38455
-0.925187
-1.93894
-2.2345
-2.4285
-2.58892
-2.46755
-2.29068
-2.1084
-1.84609
-1.62302
-1.48656
-1.39857
-1.46796
-1.53272
-1.5444
-1.69379
-1.75793
-1.70757
-1.47427
-1.1233
-0.803298
-1.71401
-1.87598
-2.0495
-2.10603
-2.07067
-2.0041
-1.72038
-1.61785
-1.36829
-1.2354
-1.16412
-1.20874
-1.34419
-1.32247
-1.41348
-1.49271
-1.36737
-1.29597
-0.974278
-0.769703
-1.33325
-1.52231
-1.73671
-1.76257
-1.69784
-1.62223
-1.48419
-1.30596
-1.21916
-0.929569
-1.01578
-0.939784
-0.987664
-1.04609
-1.16641
-1.16229
-1.13725
-0.95991
-0.732965
-0.492426
-1.05174
-1.25145
-1.28051
-1.30534
-1.34555
-1.2529
-1.09589
-0.97373
-0.820467
-0.826988
-0.728317
-0.75188
-0.804748
-0.904937
-0.903614
-0.936262
-0.861598
-0.709509
-0.570965
-0.416014
-0.772188
-0.876917
-0.996026
-1.0019
-0.908598
-0.834173
-0.913522
-0.743109
-0.640661
-0.563086
-0.541075
-0.60516
-0.53036
-0.573792
-0.593488
-0.615932
-0.556862
-0.517346
-0.402661
-0.347869
-0.509733
-0.556061
-0.49964
-0.53212
-0.547574
-0.532396
-0.460655
-0.404294
-0.397593
-0.335145
-0.315481
-0.312142
-0.357016
-0.343842
-0.407916
-0.445663
-0.323015
-0.314411
-0.32428
-0.221173
-0.117626
-0.150631
-0.109916
-0.194743
-0.182799
-0.210177
-0.13641
-0.148698
-0.117316
-0.097677
-0.111694
-0.0833257
-0.0887269
-0.15468
-0.095498
-0.0979696
-0.101905
-0.0757487
-0.10165
-0.0890432
-2.27353
-2.62477
-3.02582
-3.12305
-3.16653
-3.05376
-2.91017
-2.65079
-2.51537
-2.32343
-2.23497
-2.32956
-2.30295
-2.28074
-2.34248
-2.33551
-2.13177
-1.78568
-1.43782
-0.920915
-1.93239
-2.3007
-2.54957
-2.72486
-2.73734
-2.64279
-2.50036
-2.3283
-2.14833
-2.02941
-1.92252
-1.92536
-1.94868
-1.99524
-1.99022
-1.98525
-1.84288
-1.55567
-1.23923
-0.858163
-1.67286
-1.90675
-2.23924
-2.39342
-2.30439
-2.23372
-2.1275
-1.94312
-1.78332
-1.71688
-1.64086
-1.6099
-1.64663
-1.64129
-1.73115
-1.68707
-1.55628
-1.30507
-1.06527
-0.64452
-1.37505
-1.55161
-1.83669
-1.89363
-1.83432
-1.84231
-1.72581
-1.68875
-1.48014
-1.42287
-1.37983
-1.27488
-1.38363
-1.37295
-1.4123
-1.35349
-1.20228
-1.07008
-0.939241
-0.554148
-1.07934
-1.22784
-1.40994
-1.47139
-1.48737
-1.3802
-1.29962
-1.30127
-1.13185
-1.02221
-1.06454
-0.982354
-1.02753
-1.04862
-1.01659
-1.04188
-0.990364
-0.865917
-0.652168
-0.456323
-0.827996
-0.819636
-0.951513
-1.06759
-1.07741
-0.987735
-0.902751
-0.839345
-0.777564
-0.810217
-0.72139
-0.691396
-0.685702
-0.788805
-0.749944
-0.713308
-0.678983
-0.553675
-0.440177
-0.292798
-0.430222
-0.479514
-0.568169
-0.627594
-0.608189
-0.584478
-0.555858
-0.501727
-0.458938
-0.44079
-0.461963
-0.47182
-0.433601
-0.393695
-0.459925
-0.49175
-0.392589
-0.31607
-0.286321
-0.22908
-0.114528
-0.233398
-0.16681
-0.256808
-0.192628
-0.2058
-0.223347
-0.149758
-0.134676
-0.196037
-0.132635
-0.189582
-0.162489
-0.0991906
-0.179137
-0.183165
-0.0672042
-0.158709
-0.129946
-0.0553207
-2.02905
-2.39349
-2.91114
-3.10653
-3.28267
-3.26077
-3.13288
-2.94793
-2.87741
-2.7364
-2.6523
-2.55709
-2.52092
-2.59256
-2.54219
-2.43926
-2.1527
-1.86318
-1.372
-0.779598
-1.70507
-2.16238
-2.5014
-2.71892
-2.81434
-2.77632
-2.68065
-2.60964
-2.519
-2.28017
-2.21216
-2.19688
-2.22585
-2.22333
-2.14611
-2.04778
-1.93014
-1.55945
-1.15082
-0.614397
-1.4881
-1.7695
-2.10329
-2.2586
-2.34485
-2.34081
-2.22388
-2.18994
-2.14923
-1.99309
-1.84217
-1.82507
-1.83585
-1.84935
-1.84758
-1.72802
-1.66149
-1.35802
-0.974994
-0.619239
-1.25758
-1.46553
-1.72174
-1.86639
-1.99363
-1.86587
-1.89285
-1.76347
-1.66323
-1.58518
-1.62872
-1.57439
-1.50713
-1.488
-1.3904
-1.40638
-1.3035
-0.96049
-0.686573
-0.40534
-0.932751
-1.19784
-1.34311
-1.46284
-1.5075
-1.47075
-1.44023
-1.35864
-1.24248
-1.2858
-1.18859
-1.2257
-1.18315
-1.19112
-1.12959
-1.04234
-0.954127
-0.861026
-0.598679
-0.325244
-0.686593
-0.82719
-1.05609
-1.17264
-1.06325
-1.04671
-1.06115
-0.96677
-1.02871
-0.873713
-0.916934
-0.861393
-0.869919
-0.820471
-0.813305
-0.799931
-0.662753
-0.58537
-0.514835
-0.241652
-0.410849
-0.51521
-0.523555
-0.597801
-0.674602
-0.57927
-0.610348
-0.602328
-0.576666
-0.537416
-0.491754
-0.515817
-0.454877
-0.543534
-0.505311
-0.519176
-0.41205
-0.30135
-0.201442
-0.162205
-0.178398
-0.250561
-0.201563
-0.253042
-0.246949
-0.222211
-0.191171
-0.149337
-0.247101
-0.138229
-0.151958
-0.194721
-0.186337
-0.133861
-0.202567
-0.163278
-0.155619
-0.0297883
-0.0786225
0.00125199
-1.56301
-2.14785
-2.47868
-2.87128
-3.10798
-3.20783
-3.08841
-2.99828
-2.9438
-2.84091
-2.76226
-2.73462
-2.62778
-2.53896
-2.50486
-2.25001
-1.92126
-1.46414
-0.968662
-0.349248
-1.3895
-1.81756
-2.2221
-2.60237
-2.73822
-2.79934
-2.72926
-2.71683
-2.55759
-2.45388
-2.39567
-2.31998
-2.23488
-2.19456
-2.17472
-1.9148
-1.68957
-1.34422
-0.784697
-0.297158
-1.18321
-1.54041
-1.92203
-2.15706
-2.24637
-2.30217
-2.36107
-2.23518
-2.1452
-2.04587
-1.95508
-1.99624
-1.89255
-1.87539
-1.82859
-1.61195
-1.48123
-1.02992
-0.751801
-0.208447
-0.999453
-1.2796
-1.51776
-1.78919
-1.8495
-1.91687
-1.85499
-1.8785
-1.74495
-1.65032
-1.64518
-1.5306
-1.58853
-1.49351
-1.52215
-1.33995
-1.15182
-0.870341
-0.589505
-0.187146
-0.760193
-0.989057
-1.18738
-1.27604
-1.41701
-1.40158
-1.43639
-1.4723
-1.40613
-1.30055
-1.17057
-1.22364
-1.192
-1.1868
-1.05869
-1.04237
-0.866761
-0.65095
-0.411325
-0.12031
-0.488627
-0.656221
-0.871972
-1.03983
-1.0495
-1.14032
-1.07074
-1.06009
-0.934483
-0.962461
-0.877119
-0.918917
-0.835456
-0.80778
-0.842056
-0.73669
-0.548674
-0.49923
-0.351989
-0.129031
-0.262611
-0.45702
-0.466802
-0.615402
-0.583279
-0.655951
-0.691434
-0.62401
-0.531486
-0.594722
-0.604588
-0.495018
-0.504425
-0.467224
-0.497022
-0.485958
-0.382849
-0.27701
-0.168242
-0.0840562
-0.102825
-0.127865
-0.127652
-0.205802
-0.193753
-0.180621
-0.210181
-0.257188
-0.158652
-0.247958
-0.205435
-0.162691
-0.132232
-0.152888
-0.218105
-0.206516
-0.136796
-0.105007
-0.0769081
-0.0126436
-0.969481
-1.462
-2.01908
-2.45339
-2.69261
-2.87117
-2.90528
-2.84695
-2.7962
-2.70243
-2.63946
-2.47726
-2.4956
-2.40835
-2.2283
-1.87032
-1.55995
-0.966159
-0.349258
0.29111
-0.815093
-1.28457
-1.83197
-2.17378
-2.33728
-2.47659
-2.52445
-2.47633
-2.48486
-2.36422
-2.28117
-2.20578
-2.1766
-2.03582
-1.89105
-1.60086
-1.37334
-0.845347
-0.277689
0.328342
-0.743345
-1.03638
-1.44284
-1.82981
-1.9544
-2.08234
-2.12111
-2.10216
-2.06656
-1.93828
-1.94531
-1.85755
-1.73134
-1.70631
-1.54654
-1.35625
-1.13516
-0.720124
-0.238446
0.252631
-0.673526
-0.895618
-1.24506
-1.41355
-1.62845
-1.71763
-1.77252
-1.71904
-1.66519
-1.71808
-1.56127
-1.56123
-1.38853
-1.39463
-1.28645
-1.08255
-0.848517
-0.564923
-0.218766
0.196682
-0.522751
-0.643234
-0.97108
-1.08614
-1.28962
-1.29735
-1.34414
-1.36137
-1.24135
-1.22846
-1.22611
-1.20846
-1.09249
-1.06863
-1.02529
-0.822168
-0.620517
-0.432297
-0.164362
0.142607
-0.306784
-0.519992
-0.695323
-0.782323
-0.838476
-0.850729
-0.921869
-0.946752
-0.905163
-0.883925
-0.903615
-0.807529
-0.791693
-0.738267
-0.690444
-0.624451
-0.50921
-0.296824
-0.157804
0.0763539
-0.189016
-0.355816
-0.431436
-0.495536
-0.561656
-0.641452
-0.560374
-0.547806
-0.590167
-0.490708
-0.481439
-0.547966
-0.464321
-0.418799
-0.334171
-0.400598
-0.293784
-0.159521
-0.0305757
0.0615084
-0.0753687
-0.0851796
-0.175195
-0.14806
-0.15645
-0.232351
-0.227822
-0.149781
-0.132599
-0.183586
-0.165788
-0.186936
-0.171206
-0.141298
-0.127792
-0.132932
-0.0976928
-0.074625
-0.101295
0.0449528
0.0296586
-0.595677
-1.25443
-1.66252
-2.09373
-2.24059
-2.43664
-2.40318
-2.37746
-2.33883
-2.25729
-2.1894
-2.1078
-1.89878
-1.62511
-1.20602
-0.862582
-0.148452
0.550822
1.25066
-0.0518621
-0.503594
-1.08153
-1.55727
-1.86895
-1.97733
-2.02573
-2.05997
-2.07706
-1.96818
-1.96079
-1.82361
-1.73754
-1.63201
-1.45764
-1.08369
-0.674238
-0.21344
0.437297
0.99527
-0.0598589
-0.501231
-0.885639
-1.34925
-1.51382
-1.62197
-1.71484
-1.77229
-1.71041
-1.7253
-1.68952
-1.56263
-1.43931
-1.36044
-1.19562
-0.879611
-0.659123
-0.108824
0.437991
0.832393
-0.0328129
-0.30703
-0.708366
-1.08592
-1.26964
-1.35831
-1.40975
-1.44019
-1.31383
-1.44133
-1.35474
-1.17329
-1.14699
-1.09881
-0.969972
-0.770427
-0.507062
-0.0678091
0.304206
0.743067
-0.0857433
-0.265267
-0.576128
-0.789687
-0.905072
-1.05933
-1.18422
-1.10468
-1.07833
-1.09969
-1.04093
-1.05186
-0.888811
-0.899852
-0.791098
-0.497614
-0.359905
-0.0945765
0.294794
0.596808
-0.0669216
-0.132901
-0.424786
-0.588677
-0.690372
-0.728945
-0.718048
-0.818235
-0.745392
-0.837799
-0.72403
-0.749192
-0.598911
-0.618828
-0.478669
-0.398102
-0.251964
-0.00187409
0.190012
0.385199
-0.0180305
-0.140399
-0.305106
-0.352958
-0.403374
-0.404896
-0.466872
-0.56186
-0.434531
-0.448451
-0.49389
-0.493806
-0.395216
-0.361478
-0.270719
-0.244094
-0.181624
0.0080927
0.112591
0.214287
-0.0033608
-0.0783736
-0.122215
-0.0980188
-0.129094
-0.14953
-0.121236
-0.203784
-0.163624
-0.115178
-0.138958
-0.151177
-0.181444
-0.145872
-0.0692179
-0.134517
-0.0354486
-0.0579065
0.0488265
-0.00900647
1.2431
0.452953
-0.214644
-0.713719
-1.1264
-1.46478
-1.62897
-1.66305
-1.76734
-1.68459
-1.55528
-1.44797
-1.35545
-1.08149
-0.734588
-0.375558
0.157284
0.891677
1.66667
2.3747
0.995609
0.409651
-0.16004
-0.656617
-1.02464
-1.23803
-1.4189
-1.45865
-1.46348
-1.41912
-1.35121
-1.23382
-1.12843
-0.940878
-0.649062
-0.28827
0.150834
0.82661
1.4136
2.02847
0.86137
0.288246
-0.109661
-0.619341
-0.845306
-1.0034
-1.17008
-1.15291
-1.16379
-1.14131
-1.09466
-1.08478
-0.949878
-0.774295
-0.599485
-0.231662
0.118088
0.577995
1.16639
1.79746
0.627783
0.263467
-0.136192
-0.43145
-0.695389
-0.796647
-0.967937
-1.07932
-0.953195
-0.975062
-0.927264
-0.852318
-0.778331
-0.592151
-0.447227
-0.126911
0.153415
0.537016
1.0653
1.37555
0.478471
0.246843
-0.0323341
-0.305756
-0.469279
-0.693099
-0.708645
-0.751384
-0.765945
-0.7613
-0.755051
-0.61862
-0.583912
-0.507525
-0.30482
-0.125611
0.157099
0.386925
0.770288
1.15954
0.36395
0.178401
-0.0771496
-0.278455
-0.346868
-0.450154
-0.55972
-0.481012
-0.571621
-0.566103
-0.477334
-0.482738
-0.377666
-0.324712
-0.276378
-0.136437
0.0470482
0.307287
0.577398
0.766069
0.240704
0.128381
-0.0821445
-0.12091
-0.264496
-0.299879
-0.323056
-0.29708
-0.304492
-0.383986
-0.301393
-0.337811
-0.220472
-0.213405
-0.131157
-0.0665589
-0.0162883
0.218579
0.420437
0.474552
0.0627246
0.0327448
-0.0366571
0.0184385
0.0350213
-0.104704
-0.132161
-0.140462
-0.0868266
-0.10012
-0.120964
-0.0814305
-0.100809
-0.0591359
-0.0184247
-0.0318686
0.0553537
0.0848461
0.0922025
0.153496
2.57328
1.84211
1.17879
0.568613
0.0526146
-0.283424
-0.491565
-0.68971
-0.713748
-0.706815
-0.601425
-0.489921
-0.283786
-0.0169404
0.336822
0.799927
1.42407
2.20764
2.9769
3.6973
2.21352
1.63405
1.01007
0.506882
-0.0186394
-0.258514
-0.47671
-0.571584
-0.576751
-0.510356
-0.574322
-0.362646
-0.203875
0.102128
0.284515
0.684388
1.18575
1.91408
2.54323
3.25809
1.87192
1.40756
0.793454
0.382827
0.10622
-0.137018
-0.449794
-0.536393
-0.482579
-0.563432
-0.512706
-0.272513
-0.258546
0.0220952
0.31348
0.604559
1.01582
1.62476
2.20737
2.72568
1.51287
1.1064
0.730655
0.343619
-0.0067711
-0.203978
-0.252595
-0.372743
-0.465467
-0.43878
-0.353943
-0.27967
-0.22082
0.00360501
0.192411
0.476563
0.880331
1.34745
1.82759
2.21141
1.18517
0.833056
0.527829
0.250635
0.0501232
-0.149837
-0.274746
-0.286556
-0.319432
-0.262002
-0.266353
-0.269748
-0.124574
0.0395214
0.141654
0.390962
0.647025
1.04131
1.45474
1.66521
0.828171
0.624998
0.321178
0.160185
-0.00109604
-0.11015
-0.183371
-0.257769
-0.214801
-0.208703
-0.23836
-0.132979
-0.111941
0.0333057
0.130159
0.339584
0.493612
0.762706
1.01405
1.22186
0.468014
0.37507
0.229552
0.0883771
-0.0289495
-0.0246413
-0.0487843
-0.134467
-0.126009
-0.135132
-0.0878457
-0.0627993
-0.12173
-0.0104971
0.109725
0.16392
0.303367
0.439879
0.654698
0.693483
0.26113
0.0909345
0.0562005
0.0416154
0.012936
-0.0482463
-0.0670322
-0.0435539
-0.123979
-0.0801377
-0.0531738
-0.0313069
-0.0380494
0.0470401
0.0316075
0.0436138
0.108894
0.117105
0.167203
0.209648
4.28132
3.51458
2.75763
2.09385
1.49732
1.09304
0.831145
0.700947
0.551557
0.674671
0.692204
0.787172
1.0431
1.40191
1.71052
2.3162
2.91486
3.71125
4.54841
5.40843
3.71834
3.04751
2.38144
1.80165
1.32729
0.973062
0.671613
0.525301
0.51165
0.555029
0.588559
0.693166
0.881123
1.19441
1.49038
1.938
2.54427
3.28508
3.98415
4.6896
3.0581
2.58214
2.0633
1.56982
1.08125
0.81625
0.589423
0.426727
0.43942
0.485825
0.475901
0.595142
0.797378
0.982166
1.33227
1.68485
2.117
2.7549
3.40931
3.9331
2.52894
2.09126
1.64852
1.20072
0.862208
0.652841
0.455543
0.367177
0.385302
0.371852
0.411193
0.550333
0.624973
0.828535
1.07499
1.36228
1.80865
2.18815
2.83476
3.21607
1.93367
1.62916
1.22765
0.906373
0.650121
0.591887
0.390356
0.30064
0.280622
0.24107
0.330397
0.430901
0.432349
0.633803
0.748228
1.09738
1.38746
1.81707
2.13837
2.52357
1.34848
1.09086
0.965979
0.691929
0.496295
0.442918
0.308921
0.20478
0.162838
0.256676
0.247207
0.290813
0.300782
0.458365
0.577923
0.800023
1
1.18249
1.5271
1.8285
0.844953
0.730578
0.507425
0.400246
0.259917
0.222665
0.184939
0.125319
0.104892
0.175446
-0.00491515
0.10044
0.22423
0.325806
0.350799
0.481141
0.657874
0.836043
0.946134
1.03718
0.30656
0.154625
0.104635
0.134139
0.0758437
0.112634
0.0652971
0.0887762
-0.0202945
0.14458
0.0458553
0.0671218
0.0177083
0.0878047
0.0947495
0.0959031
0.16331
0.22693
0.240864
0.319623
6.28756
5.45939
4.52793
3.87458
3.27871
2.7954
2.41053
2.33449
2.14379
2.1261
2.19319
2.36174
2.64767
2.97348
3.38012
4.01752
4.7133
5.61466
6.43372
7.35711
5.38548
4.75712
3.9929
3.35149
2.82233
2.38953
2.1203
1.93877
1.91982
1.91207
1.85975
2.13145
2.2485
2.58083
2.97677
3.46199
4.06314
4.8195
5.61756
6.39255
4.58847
4.05881
3.37197
2.77086
2.41556
2.00354
1.80915
1.64225
1.56443
1.52402
1.65133
1.72534
1.84953
2.10934
2.5296
2.92777
3.46824
4.03477
4.74034
5.32382
3.64848
3.26045
2.71876
2.34012
1.89224
1.63669
1.47931
1.40476
1.38652
1.36295
1.29461
1.40688
1.59517
1.78557
2.07181
2.46572
2.8485
3.36902
3.93534
4.38332
2.83489
2.50414
2.13864
1.82747
1.43303
1.29966
1.15389
1.03093
0.974554
1.01253
1.02915
1.03445
1.25234
1.52461
1.52634
1.86638
2.23942
2.60301
3.02114
3.39802
2.08504
1.81096
1.54735
1.31728
1.03697
0.921746
0.835028
0.740751
0.668929
0.775149
0.67458
0.729783
0.88732
1.04415
1.1183
1.29328
1.55571
1.84011
2.15653
2.45006
1.21373
1.06081
0.933514
0.725454
0.662668
0.57184
0.477327
0.403433
0.411758
0.392504
0.446565
0.515341
0.544037
0.580204
0.731303
0.818823
0.977858
1.11777
1.22142
1.46979
0.366155
0.325293
0.292196
0.219151
0.166818
0.18483
0.172819
0.191114
0.13322
0.167155
0.156802
0.120669
0.148628
0.112993
0.200229
0.346219
0.387597
0.421875
0.488221
0.475144
8.41139
7.54204
6.69555
5.85946
5.24135
4.70127
4.38516
4.17802
3.94395
3.98996
4.05222
4.12867
4.41907
4.84302
5.37331
6.01416
6.74349
7.66637
8.65177
9.44904
7.22988
6.59998
5.73912
5.09707
4.49542
4.14201
3.72874
3.57251
3.40776
3.41607
3.4456
3.73578
3.95024
4.15461
4.58829
5.13332
5.80072
6.57026
7.35881
8.15195
6.08576
5.55753
4.85872
4.3823
3.81202
3.39901
3.21129
2.95879
2.90361
2.88914
2.96437
3.07714
3.20089
3.64089
3.91523
4.40452
4.93779
5.52901
6.22319
6.88424
5.03547
4.48745
3.99252
3.52446
3.1842
2.86267
2.56751
2.45235
2.3963
2.40614
2.33413
2.44164
2.59366
2.91144
3.19221
3.52666
4.06893
4.54099
5.10705
5.60706
3.83972
3.48052
3.04237
2.75961
2.49642
2.23741
2.04506
1.80099
1.80039
1.8847
1.90346
1.97894
2.07939
2.24801
2.44946
2.72538
3.05464
3.46578
3.99169
4.36593
2.7657
2.42289
2.23935
1.93944
1.74187
1.57673
1.4126
1.388
1.29727
1.40254
1.37194
1.38987
1.47822
1.6546
1.77039
1.96099
2.25235
2.55922
2.84646
3.17477
1.6759
1.51824
1.33466
1.16798
1.01358
0.938926
0.900386
0.751172
0.775485
0.743366
0.815326
0.86874
0.927701
0.949789
1.08021
1.17083
1.34983
1.45633
1.73163
1.92184
0.575645
0.492077
0.463131
0.377639
0.329186
0.376999
0.24968
0.33431
0.240848
0.278105
0.31643
0.262616
0.287281
0.329512
0.382741
0.362793
0.514569
0.473991
0.612207
0.646712
10.7403
9.88643
8.95962
8.09201
7.43872
6.88364
6.4662
6.17969
5.98605
6.0365
6.05108
6.22788
6.50509
6.97399
7.48558
8.16559
8.94576
9.85305
10.8621
11.8154
9.19789
8.52813
7.64791
6.96459
6.42087
5.92056
5.58423
5.31847
5.26492
5.13039
5.24576
5.36681
5.63935
6.03703
6.51712
7.05785
7.6391
8.52675
9.35765
10.1474
7.82193
7.14846
6.51191
5.90843
5.44332
5.03103
4.69449
4.51741
4.42442
4.32623
4.40308
4.53187
4.73265
5.09155
5.48089
5.95758
6.49926
7.16827
7.99126
8.56028
6.34105
5.85341
5.30945
4.79561
4.39951
4.07767
3.79029
3.7243
3.56487
3.55788
3.55097
3.68175
3.852
4.07228
4.47659
4.8603
5.35359
5.86847
6.46951
6.95337
4.87869
4.50429
4.05967
3.74002
3.44781
3.18521
2.96854
2.89816
2.81045
2.71718
2.75824
2.9146
2.95016
3.25825
3.4313
3.74655
4.13859
4.50693
5.01934
5.44677
3.49857
3.2442
2.87764
2.65468
2.46201
2.22056
2.08354
2.04902
1.96824
1.96081
1.99994
2.06244
2.16535
2.25292
2.45015
2.65586
2.93574
3.22969
3.60865
3.85398
2.10305
1.9584
1.78581
1.64028
1.44561
1.40911
1.31648
1.16849
1.1993
1.19687
1.19172
1.22798
1.343
1.38218
1.5493
1.5703
1.76503
1.93847
2.20359
2.37114
0.770797
0.636539
0.571741
0.640481
0.43001
0.469823
0.351993
0.385586
0.402077
0.353612
0.509582
0.42938
0.440672
0.414694
0.453935
0.500055
0.67883
0.661436
0.72139
0.778249
13.1633
12.2375
11.2028
10.3124
9.61573
9.01777
8.52552
8.35542
8.13168
8.04292
8.15571
8.35446
8.64073
9.06226
9.63172
10.2619
11.0812
12.0643
13.1642
14.1489
11.2727
10.5314
9.71792
8.86827
8.30552
7.75151
7.36864
7.14262
6.98267
7.00101
7.06579
7.14416
7.43996
7.80157
8.28269
8.84598
9.57581
10.3898
11.3887
12.141
9.51745
8.77023
8.13089
7.44927
6.96003
6.5568
6.25455
6.00161
5.83333
5.84412
5.94231
6.0507
6.25577
6.58563
6.93048
7.42837
8.01208
8.77313
9.53524
10.1538
7.65278
7.16116
6.59824
6.1243
5.6386
5.37391
5.04046
4.84451
4.77788
4.6766
4.80935
4.91709
5.01661
5.24687
5.65303
5.96075
6.48605
7.08915
7.72753
8.31406
5.94274
5.48431
5.09985
4.71274
4.37567
4.06392
4.0023
3.81281
3.67448
3.70049
3.71688
3.78323
3.90127
4.09271
4.39031
4.66544
5.10196
5.53272
6.02488
6.40226
4.23947
4.02946
3.70485
3.31916
3.1046
2.89699
2.81283
2.65018
2.64903
2.67709
2.60884
2.66214
2.84653
2.93353
3.14996
3.35577
3.61081
3.9394
4.28499
4.55629
2.52874
2.3418
2.18827
1.98853
1.87192
1.65969
1.66707
1.54809
1.56093
1.64898
1.61363
1.66097
1.67685
1.79222
1.91462
1.99682
2.17068
2.37068
2.61638
2.70486
0.843809
0.851824
0.784309
0.726049
0.588749
0.56827
0.565365
0.548971
0.570372
0.511326
0.555896
0.517988
0.527506
0.600747
0.585662
0.69646
0.734684
0.796774
0.910098
0.914653
15.0467
14.0519
13.0606
12.1903
11.4583
10.8777
10.4352
10.0724
9.89015
9.87343
9.91285
10.0855
10.3876
10.815
11.4572
12.0829
12.9638
13.9366
15.0032
15.9676
12.8183
12.0589
11.1886
10.3979
9.7328
9.30047
8.80816
8.61585
8.41824
8.30142
8.32323
8.61069
8.86459
9.24407
9.71625
10.3536
11.0413
11.885
12.8848
13.6642
10.697
10.0118
9.39431
8.6735
8.23864
7.71127
7.33681
7.1668
6.9237
6.92425
7.0815
7.17924
7.32165
7.68141
8.15163
8.64074
9.25061
9.91511
10.7238
11.4398
8.65369
8.1287
7.53257
6.99444
6.55605
6.17019
5.94557
5.76194
5.63771
5.59449
5.66868
5.78727
5.93714
6.19481
6.55313
6.90238
7.51417
8.12564
8.71277
9.29726
6.65141
6.29409
5.79274
5.43113
5.02127
4.78293
4.58038
4.45961
4.36491
4.30604
4.40484
4.44601
4.57563
4.76562
5.08478
5.38759
5.82182
6.22518
6.70871
7.14276
4.66653
4.4083
4.11208
3.90835
3.58548
3.39362
3.27643
3.13881
3.05245
3.04244
3.08582
3.11255
3.2567
3.42836
3.65822
3.88017
4.17597
4.43164
4.73499
5.10612
2.82055
2.67644
2.46716
2.31596
2.15745
2.06071
1.95531
1.82305
1.80279
1.78895
1.8107
1.85465
1.91876
2.06288
2.16623
2.36993
2.37517
2.64721
2.82714
3.03043
0.93584
0.865493
0.835685
0.820279
0.662009
0.709258
0.674161
0.599624
0.682588
0.610131
0.595954
0.563859
0.647203
0.707532
0.734222
0.737726
0.833324
0.902377
0.939762
1.03294
)
;

boundaryField
{
    hotSide
    {
        type            calculated;
        value           nonuniform List<scalar> 
400
(
2.37833
1.68527
0.817857
0.0636956
-0.577857
-0.937437
-1.17756
-1.2124
-0.959426
-0.483076
0.122763
1.13637
2.36662
3.71607
5.44597
7.47679
9.62798
11.9871
14.4433
16.3628
2.31887
1.61333
0.713455
-0.0261304
-0.715245
-1.24713
-1.47697
-1.52128
-1.28382
-1.03027
-0.334531
0.543869
1.60695