/*--------------------------------*- C++ -*----------------------------------*\
| =========                 |                                                 |
| \\      /  F ield         | OpenFOAM: The Open Source CFD Toolbox           |
|  \\    /   O peration     | Version:  2212                                  |
|   \\  /    A nd           | Website:  www.openfoam.com                      |
|    \\/     M anipulation  |                                                 |
\*---------------------------------------------------------------------------*/
FoamFile
{
    version     2.0;
    format      ascii;
    arch        "LSB;label=32;scalar=64";
    class       volScalarField;
    location    "0";
    object      relativeErrorField;
}
// * * * * * * * * * * * * * * * * * * * * * * * * * * * * * * * * * * * * * //

dimensions      [0 0 0 1 0 0 0];

internalField   nonuniform List<scalar> 
3200
(
0.00387773
0.00354621
0.00366157
0.00442337
0.00555346
0.00713089
0.00883202
0.0102692
0.0112584
0.0119503
0.0124583
0.0120501
0.0115357
0.0103468
0.00917066
0.00825081
0.00755789
0.00718519
0.00734562
0.00775982
0.00318745
0.00303966
0.00303174
0.00368389
0.00491551
0.00584068
0.00767715
0.00893151
0.00983838
0.010611
0.0108973
0.0105119
0.0100725
0.0090751
0.00800576
0.00707086
0.00629883
0.00611658
0.00608707
0.00677228
0.00270102
0.00238787
0.00237734
0.00296358
0.00399804
0.00503602
0.00622345
0.00720508
0.00841969
0.00912558
0.00921708
0.00894929
0.00842064
0.00753616
0.00668257
0.0059145
0.00550879
0.0051321
0.00540662
0.00548607
0.00223264
0.00189367
0.00200167
0.00252914
0.00324335
0.00422247
0.00514064
0.00609495
0.00678587
0.00732075
0.00767065
0.00735351
0.00692481
0.00617337
0.00543966
0.00505716
0.00460081
0.00423658
0.00424855
0.00453087
0.00153009
0.00164554
0.00166848
0.00186557
0.00253163
0.00310141
0.00390018
0.00490107
0.00541222
0.00589221
0.0059771
0.00592687
0.00512476
0.00478905
0.00429766
0.00390006
0.00338509
0.00315929
0.00318426
0.00357616
0.00117762
0.000954117
0.0012385
0.00139721
0.00177205
0.00229959
0.00275862
0.00363587
0.00387132
0.00422888
0.00435323
0.00399426
0.00391558
0.00372259
0.00315464
0.00274813
0.00252063
0.00233097
0.0026125
0.00266805
0.000710651
0.000579286
0.000781988
0.000815336
0.000870828
0.00136522
0.0017822
0.00230633
0.00243244
0.00267426
0.00245411
0.00255214
0.0025516
0.00227046
0.00191468
0.00152819
0.00152018
0.00150211
0.00164576
0.00151125
0.000361129
0.000282483
0.000102167
0.000311652
0.00031716
0.000425296
0.00071651
0.00055048
0.000804528
0.000982485
0.000800659
0.000929952
0.00101331
0.000605056
0.000628775
0.000559613
0.000758344
0.000651001
0.000456635
0.000650746
0.00187124
0.00150977
0.00179286
0.00223555
0.00310081
0.0046162
0.00613823
0.00781808
0.00898183
0.00976919
0.00982255
0.00958451
0.00901371
0.00791386
0.00698715
0.00588586
0.00529311
0.00498597
0.00511947
0.00605524
0.00138887
0.00149887
0.00147342
0.00183028
0.00275843
0.00397191
0.005322
0.00657184
0.0076928
0.00849396
0.00859791
0.00855254
0.00800159
0.00695242
0.00591033
0.00517311
0.00446721
0.00418091
0.00446059
0.00486543
0.00122872
0.00113529
0.00116638
0.00157278
0.00243609
0.00350811
0.00459684
0.00573515
0.00657724
0.00705431
0.00754502
0.00709569
0.00683808
0.0059939
0.00496818
0.00447604
0.00379476
0.00383182
0.00390228
0.0042553
0.00108468
0.000767067
0.000805904
0.00131551
0.00197066
0.0027865
0.00365532
0.00464719
0.00575041
0.00615125
0.00631022
0.00594323
0.00557705
0.00478778
0.00423824
0.00354574
0.00365473
0.00320018
0.00313679
0.00336301
0.000753892
0.000727415
0.000841911
0.000838791
0.00153635
0.00216879
0.00312397
0.00380292
0.0042486
0.00469171
0.0049008
0.00460949
0.0045423
0.00402657
0.00335437
0.00297422
0.00251697
0.00243704
0.00249887
0.00292937
0.000638159
0.000410371
0.000338658
0.000765072
0.000939947
0.00163706
0.0022135
0.00276652
0.00311872
0.00340966
0.00338174
0.0033945
0.00325806
0.00288615
0.00244677
0.00192038
0.00208094
0.00193287
0.00172946
0.00224579
0.000171502
0.000198544
0.000447016
0.000383869
0.000891983
0.00101676
0.00137106
0.00158738
0.00184936
0.00229865
0.00207645
0.00213793
0.00182047
0.00172397
0.00153193
0.00116943
0.00122821
0.0013972
0.00127285
0.00117315
6.28319e-07
1.40235e-05
4.41478e-05
0.000215621
0.000100178
0.000527668
0.000317861
0.000509276
0.000550225
0.000478741
0.000669248
0.000711561
0.000530485
0.000648642
0.000406441
0.000165212
0.000256334
0.000322688
0.000390858
0.000179454
0.000639235
0.00108586
0.00101126
0.000534528
0.000587372
0.00178553
0.00301368
0.00456445
0.005651
0.00639712
0.00659634
0.00633275
0.00577011
0.00480565
0.00382206
0.0030358
0.00251476
0.00217912
0.00261413
0.00325481
0.00064954
0.000650166
0.000844401
0.000528284
0.000356198
0.001545
0.00270243
0.00412654
0.00493888
0.00567438
0.00581452
0.00560465
0.00501023
0.00432591
0.00337544
0.00251574
0.00209642
0.00220447
0.0024657
0.00285892
0.000599957
0.000741128
0.000760145
0.000503721
0.000362641
0.00128889
0.00237366
0.00339189
0.00415535
0.00488355
0.00485582
0.00505987
0.00455836
0.00352037
0.00315268
0.00253667
0.00167861
0.00182359
0.00185214
0.00232882
0.000405869
0.000766356
0.0007388
0.000222374
8.15931e-05
0.000991593
0.00180589
0.00274335
0.00347879
0.00379742
0.00416472
0.00397676
0.003584
0.0029843
0.00235736
0.00195485
0.00172882
0.00154861
0.00157429
0.0019238
0.000296388
0.000419387
0.000690588
0.000381087
0.000286807
0.000827739
0.0016642
0.00205178
0.00290526
0.0029871
0.00347437
0.00312672
0.0028535
0.00253846
0.00208469
0.00170316
0.0013993
0.00118575
0.00136017
0.00139514
0.000385019
0.000421905
0.000230055
0.000214897
0.000122117
0.000604466
0.00113723
0.00177309
0.00194844
0.0020881
0.00234893
0.00241883
0.00197167
0.00186015
0.00161699
0.00104406
0.000996612
0.000770497
0.00101059
0.00110983
0.000102964
0.000234719
0.000346228
0.000101523
0.000155941
0.000209937
0.00058442
0.00104079
0.00104677
0.00134463
0.00140006
0.00148191
0.00128021
0.00129871
0.000956788
0.000543111
0.000610678
0.000559083
0.000518595
0.000595311
7.47201e-05
0.000338554
6.81646e-05
2.06933e-06
0.00014281
0.000274731
0.000414297
0.000340508
0.000335446
0.000313992
0.000597764
0.000397069
0.000639056
0.000264028
0.00029485
1.63688e-05
0.000300058
2.73509e-05
0.000340009
0.000171766
0.00282023
0.00321621
0.00326876
0.00294038
0.00234152
0.00123318
7.17908e-07
0.00137346
0.00246658
0.0031046
0.00303555
0.00303073
0.00266887
0.00173056
0.00106529
0.000207477
0.000167967
0.000167161
0.000434555
0.00106999
0.00233344
0.00274707
0.00304893
0.00266311
0.00191058
0.00110597
0.000128801
0.00108811
0.00205324
0.0027211
0.00309912
0.00271243
0.00226223
0.00144977
0.000799272
0.000474178
2.91686e-06
6.21665e-05
0.000348074
0.00088027
0.00215732
0.00249771
0.0023949
0.00250585
0.00176344
0.00105084
0.000228923
0.000900557
0.0018372
0.00246839
0.00245543
0.00237608
0.00193875
0.00127244
0.000700606
0.000248584
2.59668e-06
1.37888e-05
0.000431892
0.000795706
0.00188314
0.00207518
0.00205024
0.00183799
0.00147627
0.000738895
2.2914e-05
0.000813603
0.00159596
0.00202084
0.0019417
0.00188316
0.00168202
0.00119845
0.000736991
0.000425006
9.11532e-05
3.31322e-06
0.000225985
0.000774576
0.00131596
0.00165776
0.00160621
0.00159514
0.0012279
0.000631104
6.83744e-05
0.000719782
0.00106652
0.00156831
0.00177867
0.00163348
0.00153109
0.00103779
0.000372024
0.000241511
1.80714e-05
7.82084e-05
0.000250432
0.00060933
0.00102403
0.00111673
0.00144071
0.00122041
0.000786535
0.0005542
0.000109466
0.000546948
0.00099429
0.000945619
0.00118712
0.0011988
0.00103371
0.000714256
0.000433343
5.40692e-05
0.00010247
3.1518e-05
0.000166989
0.000323273
0.000646918
0.000556018
0.000545471
0.000848618
0.000484194
0.000427012
2.98455e-05
0.000301602
0.000626967
0.000529024
0.000859716
0.000814788
0.000681469
0.000367568
0.000133468
0.000174278
0.000130659
3.10204e-05
0.000223373
0.000335554
0.000264498
0.000370502
0.000258694
0.000126989
9.72825e-06
6.22171e-05
5.48957e-05
6.18094e-05
0.000102628
5.4511e-05
0.000360742
0.000260826
0.00024668
8.05499e-05
0.000129609
4.56117e-05
0.000226625
0.000177407
7.99218e-05
0.000302352
0.00467248
0.00519642
0.00551205
0.0051786
0.00457347
0.00397992
0.00269525
0.00145846
0.000629589
0.000192215
0.000293001
0.000216513
0.000269641
0.00104369
0.00180413
0.00233599
0.00247772
0.0022626
0.00145985
0.000805038
0.00396749
0.00445497
0.00497469
0.00478621
0.00425303
0.00337716
0.00242124
0.00150002
0.000607921
0.000133567
0.000217427
1.44118e-07
0.000296257
0.000907511
0.00167729
0.00180136
0.00220166
0.00188546
0.00153796
0.000491161
0.00368797
0.00382101
0.00405994
0.0037592
0.00367847
0.00298472
0.00194144
0.000952629
0.00055196
5.61997e-05
0.000396619
1.62789e-05
0.000408145
0.000776911
0.00125129
0.00175548
0.0016451
0.00154917
0.0011414
0.000657401
0.00290664
0.00310883
0.00360012
0.003381
0.0028742
0.0025091
0.00171803
0.00093612
0.000335865
1.92254e-05
0.000205856
0.000340562
0.00014735
0.000530958
0.00101044
0.00126661
0.00142176
0.00128305
0.000955772
0.000346001
0.00242812
0.00272696
0.00279182
0.00262807
0.00230203
0.0019383
0.00135341
0.000740677
0.000287209
0.000223998
0.000140387
3.27264e-05
0.000158748
0.000423948
0.000764433
0.00110078
0.000899752
0.000921368
0.000846793
0.00032032
0.00177235
0.00195211
0.0021296
0.00179714
0.00170718
0.00153276
0.00106014
0.000456709
0.000331287
8.53518e-05
9.26128e-05
6.20311e-05
4.4997e-05
0.000278216
0.000592195
0.000472119
0.000794301
0.000897706
0.000460737
0.000207732
0.000930654
0.0012242
0.00131115
0.00108591
0.00114275
0.000820799
0.000626738
0.000559645
9.01763e-05
0.00018458
8.64158e-05
5.80432e-06
0.00018043
0.000313887
0.000328502
0.000529344
0.000418216
0.000625743
0.000296534
0.000122635
0.000244811
0.000448988
0.000217612
0.000452469
0.000438134
0.000375377
0.000106043
9.76663e-05
7.8658e-05
0.00018203
0.000191997
6.735e-05
8.29417e-06
4.95022e-05
6.21389e-05
0.000100902
0.000296889
0.00035445
0.000151711
0.000142572
0.0057089
0.00671915
0.00699664
0.00701145
0.00671475
0.00600838
0.00506948
0.00406928
0.00338236
0.0025153
0.00232105
0.00253315
0.00294411
0.00335462
0.00383597
0.00416971
0.00404367
0.00373533
0.00298029
0.00198386
0.00496248
0.00575778
0.00627752
0.00628533
0.00591812
0.00518904
0.00442552
0.00353716
0.00288336
0.00226782
0.00209476
0.00238677
0.00245695
0.00320064
0.00333992
0.00372722
0.00360186
0.00315123
0.00246465
0.00176274
0.00440847
0.00495738
0.00530409
0.00551394
0.00515347
0.00456664
0.00388679
0.00297429
0.00258211
0.00178968
0.00169948
0.00173757
0.00202621
0.00252181
0.00302365
0.00322418
0.00295231
0.0029089
0.00223637
0.00152295
0.00373112
0.00398452
0.00454483
0.00434068
0.00404298
0.00394265
0.00317816
0.00258374
0.00209469
0.00176204
0.00152848
0.00147851
0.00165623
0.00202351
0.00237057
0.00278219
0.00250888
0.00225418
0.00182632
0.00121453
0.00294629
0.00307747
0.00346964
0.00355357
0.00339139
0.00300897
0.00268683
0.00206368
0.00167185
0.00123904
0.00116182
0.00110657
0.00144515
0.00173707
0.00196771
0.00196398
0.00201149
0.00174914
0.00147027
0.000735767
0.00226129
0.002341
0.00262139
0.00261575
0.00250545
0.0021357
0.00180882
0.00141599
0.0010337
0.000873632
0.000885425
0.00110309
0.00104496
0.00131316
0.00149991
0.00155599
0.00139548
0.00140395
0.00106248
0.000578611
0.0013189
0.0015704
0.00151513
0.00142175
0.00151543
0.00142277
0.00120718
0.000906863
0.000754571
0.000595136
0.000480188
0.000683105
0.000708642
0.000722845
0.000886282
0.000928577
0.000970374
0.000675484
0.000878593
0.000511003
0.000561903
0.000648674
0.00056795
0.000504236
0.000482198
0.00029555
0.000660936
0.000308346
0.000311422
0.000241946
5.86508e-05
0.000296289
0.000139951
0.000261881
0.000141014
0.000439036
0.000180644
0.000317253
0.000141492
0.000356752
0.00639941
0.0073713
0.00800237
0.00837735
0.00818984
0.00760371
0.00682766
0.00622171
0.0055153
0.00498413
0.0047106
0.00484298
0.00504261
0.00536595
0.00563176
0.00563357
0.00531619
0.00476429
0.00396225
0.00265286
0.00566512
0.00651763
0.00706811
0.00751742
0.00714808
0.00662064
0.00608122
0.00531549
0.00466744
0.00427225
0.00401936
0.00422152
0.00441319
0.00445448
0.00489548
0.00509242
0.00495826
0.00429082
0.00327646
0.00234704
0.00510475
0.00557913
0.00608381
0.00623906
0.00612181
0.00591337
0.00506718
0.00475812
0.00401988
0.00362742
0.00341814
0.00355111
0.00395327
0.00389518
0.00417067
0.0044131
0.0040508
0.00384702
0.00289749
0.00229237
0.00404907
0.00461781
0.00526003
0.00532938
0.00512493
0.00488868
0.00446603
0.00392486
0.00366073
0.00278989
0.00304863
0.00282186
0.00296828
0.00314776
0.00351503
0.00350838
0.00343863
0.0029073
0.0022234
0.0014955
0.00325844
0.00387358
0.00395868
0.00403005
0.00414858
0.00385788
0.00337046
0.00299179
0.00251911
0.00253819
0.00223535
0.00230853
0.0024726
0.00278316
0.00278238
0.00288667
0.00266007
0.00219343
0.00176729
0.00128887
0.00244149
0.00277078
0.00314431
0.00315977
0.0028627
0.00262571
0.002873
0.00233537
0.00201237
0.00176822
0.00169911
0.00190086
0.00166677
0.00180456
0.00186811
0.0019406
0.00175623
0.00163319
0.00127228
0.00109989
0.00164548
0.00179431
0.00161136
0.00171509
0.00176383
0.00171394
0.0014822
0.00130028
0.00127832
0.00107736
0.00101415
0.00100358
0.00114822
0.00110634
0.0013132
0.00143556
0.00104112
0.00101399
0.00104639
0.000713973
0.000387848
0.000496608
0.00036231
0.000641787
0.000602302
0.00069237
0.000449282
0.000489682
0.000386293
0.000321609
0.000367762
0.000274371
0.000292189
0.000509455
0.000314591
0.000322798
0.000335835
0.000249685
0.000335123
0.000293603
0.00650079
0.00749118
0.00861566
0.0088704
0.00897144
0.00863118
0.00820748
0.00746251
0.00707214
0.00652808
0.00627954
0.00654971
0.00648328
0.00643233
0.00662079
0.006617
0.00605489
0.00508451
0.00410358
0.00263321
0.005632
0.00669469
0.00740368
0.00789534
0.00791396
0.00762441
0.00719967
0.0066936
0.00616916
0.0058242
0.00551742
0.00552887
0.00560224
0.00574521
0.00574177
0.00573959
0.00533979
0.0045175
0.00360596
0.00250114
0.0049716
0.005659
0.00663409
0.00707744
0.00680118
0.00658053
0.00625722
0.00570712
0.00523262
0.00503505
0.00481212
0.00472376
0.00483629
0.00482723
0.00509995
0.00497922
0.00460199
0.00386645
0.0031616
0.00191546
0.00416861
0.00469863
0.00555378
0.00571688
0.005529
0.0055446
0.0051868
0.00506961
0.00443971
0.0042661
0.00413704
0.00382403
0.00415366
0.0041263
0.00425044
0.00407969
0.00362969
0.00323571
0.00284424
0.00167996
0.00333924
0.00379533
0.00435315
0.00453717
0.00458066
0.00424545
0.00399316
0.00399462
0.00347226
0.00313483
0.00326466
0.00301364
0.00315429
0.00322196
0.00312698
0.00320866
0.00305389
0.0026735
0.0020159
0.00141176
0.00261526
0.00258722
0.00300096
0.00336397
0.00339176
0.00310671
0.00283713
0.00263611
0.0024409
0.00254277
0.002264
0.00217041
0.00215357
0.00247902
0.00235879
0.00224555
0.00213947
0.00174622
0.00138944
0.000924814
0.00138793
0.00154636
0.00183131
0.00202171
0.00195809
0.00188072
0.00178775
0.001613
0.001475
0.00141645
0.00148449
0.0015164
0.00139398
0.0012662
0.00147994
0.00158321
0.00126467
0.00101875
0.000923342
0.000739031
0.000377552
0.000769319
0.000549734
0.000846169
0.000634576
0.000677843
0.000735511
0.000493102
0.000443399
0.000645386
0.000436655
0.000624166
0.000535024
0.000326648
0.000590021
0.000603403
0.000221434
0.000523039
0.000428323
0.00018237
0.005783
0.00680976
0.00826441
0.00879865
0.00927593
0.00919361
0.00881539
0.0082813
0.00807362
0.00767325
0.00743742
0.00717487
0.00708174
0.00729503
0.0071676
0.00689269
0.00609712
0.00528938
0.00390348
0.00222193
0.00495532
0.00627485
0.00724468
0.00785855
0.00811763
0.00799225
0.00770322
0.00748824
0.00722058
0.00653242
0.00633759
0.00629723
0.00638695
0.00638905
0.00617805
0.00590657
0.00557872
0.00451656
0.0033395
0.00178558
0.00441165
0.00523918
0.00621715
0.00666446
0.00690666
0.00688308
0.00652927
0.00642153
0.00629647
0.00583627
0.00539435
0.00534679
0.00538323
0.00542965
0.00543275
0.00508981
0.00490256
0.0040142
0.00288678
0.00183581
0.00380469
0.00442916
0.00519633
0.00562458
0.00599911
0.00560669
0.00568053
0.00528668
0.00498242
0.00474675
0.00487712
0.00471627
0.0045182
0.00446554
0.00417797
0.00423199
0.00392823
0.00289882
0.00207498
0.00122632
0.00288103
0.00369677
0.00414058
0.00450441
0.00463644
0.00451832
0.00442008
0.0041662
0.00380771
0.00393922
0.00364141
0.00375628
0.00362807
0.00365555
0.00347025
0.0032058
0.00293796
0.0026544
0.00184764
0.0010046
0.00216606
0.00260807
0.00332712
0.00369114
0.00334393
0.0032892
0.00333211
0.00303389
0.00322684
0.00274003
0.00287557
0.00270201
0.00272995
0.00257635
0.00255575
0.00251579
0.00208616
0.00184416
0.00162323
0.000762364
0.00132447
0.0016603
0.00168637
0.00192451
0.0021706
0.00186292
0.00196197
0.00193546
0.0018525
0.00172618
0.00157951
0.00165703
0.00146166
0.0017472
0.00162507
0.0016705
0.00132652
0.000970651
0.000649162
0.000522908
0.000587961
0.000825691
0.000664112
0.000833574
0.000813355
0.000731753
0.000629438
0.000491635
0.00081341
0.000455003
0.000500193
0.000640984
0.000613442
0.000440741
0.000667066
0.000537777
0.000512645
9.8147e-05
0.00025909
4.12627e-06
0.00443841
0.00608916
0.00701273
0.008106
0.00875541
0.00901827
0.00866668
0.00840113
0.00823963
0.00794719
0.00772719
0.00765416
0.007363
0.00712482
0.007042
0.00633845
0.00542399
0.00414237
0.00274615
0.000991743
0.00402514
0.00525769
0.00641638
0.00750015
0.00787668
0.00803798
0.00782408
0.00777809
0.00731527
0.00701515
0.00684876
0.00663564
0.00639831
0.00629123
0.00624446
0.00550806
0.00486942
0.00388147
0.00226991
0.000860815
0.00349798
0.00454854
0.00566663
0.00634912
0.00660114
0.00675456
0.00691769
0.00654134
0.00627284
0.00597984
0.00571448
0.00583726
0.00553863
0.00549471
0.00536508
0.00473684
0.00435987
0.00303646
0.00221992
0.000616241
0.00301671
0.00385852
0.00457077
0.00538079
0.00555452
0.00574937
0.00555725
0.00562227
0.00521899
0.00493421
0.00491884
0.00457788
0.00475441
0.00447432
0.00456544
0.00402421
0.00346396
0.00262105
0.00177759
0.000564875
0.00234371
0.00304695
0.00365419
0.00392275
0.00435139
0.00429952
0.00440221
0.00450884
0.00430383
0.00397957
0.00358182
0.00374529
0.00365044
0.00363727
0.00324766
0.00320093
0.00266457
0.00200332
0.00126716
0.00037092
0.00153945
0.0020663
0.00274362
0.00326918
0.00329694
0.00357952
0.00335885
0.00332356
0.0029286
0.00301565
0.00274825
0.00287982
0.0026193
0.00253395
0.00264326
0.00231427
0.001725
0.00157081
0.00110834
0.000406519
0.000845893
0.0014716
0.00150241
0.00197971
0.00187546
0.00210814
0.00222125
0.00200396
0.00170641
0.00190919
0.00194086
0.00158932
0.00161992
0.00150097
0.00159736
0.00156254
0.00123161
0.000891561
0.000541738
0.000270752
0.000338793
0.000421247
0.00042048
0.000677787
0.000637997
0.000594661
0.000691882
0.000846523
0.000522151
0.000816037
0.000676094
0.000535445
0.000435234
0.000503283
0.00071807
0.000680025
0.000450524
0.000345888
0.000253371
4.16587e-05
0.00274169
0.00412824
0.00569047
0.00690077
0.00755872
0.00804498
0.00812703
0.00795301
0.0078037
0.00753821
0.00736256
0.0069136
0.00697151
0.00673695
0.00624366
0.00525037
0.00438776
0.00272297
0.000986194
0.000823258
0.00235263
0.0037028
0.00527192
0.00624455
0.00670254
0.00709032
0.00721671
0.00707061
0.00708889
0.00674175
0.00650491
0.00629274
0.00621482
0.00581985
0.00541397
0.00459072
0.00394515
0.00243268
0.000800444
0.000947704
0.00219072
0.00305092
0.00424137
0.00537075
0.00572781
0.00609405
0.00619961
0.00613783
0.00602943
0.00565298
0.00567347
0.0054196
0.00505513
0.00498724
0.00452601
0.00397479
0.00333186
0.00211688
0.00070194
0.000744531
0.00202765
0.00269378
0.00374032
0.00424113
0.00487975
0.00514083
0.00529945
0.0051351
0.00497116
0.00512738
0.00465941
0.0046608
0.0041478
0.00416964
0.00385031
0.00324392
0.00254584
0.00169711
0.00065799
0.000592112
0.00160833
0.00197759
0.00298271
0.00333276
0.00395314
0.00397308
0.00411288
0.00416271
0.00379384
0.00375348
0.00374632
0.00369331
0.00334053
0.00326984
0.00313989
0.00252024
0.00190402
0.00132782
0.000505322
0.000438751
0.000965079
0.00163493
0.00218469
0.00245623
0.0026306
0.00266719
0.00288843
0.00296489
0.00283363
0.00276662
0.00282825
0.00252798
0.0024793
0.00231316
0.00216467
0.00195913
0.00159875
0.000932614
0.00049616
0.000240194
0.000608272
0.00114468
0.00138737
0.00159277
0.00180449
0.00205998
0.00179891
0.00175802
0.00189355
0.00157425
0.00154451
0.00175815
0.0014901
0.00134443
0.00107317
0.00128704
0.000944295
0.000512972
9.83643e-05
0.00019794
0.000248249
0.000280534
0.00057691
0.000487479
0.000515022
0.000764774
0.000749767
0.000492878
0.000436306
0.000604049
0.00054549
0.000615097
0.000563382
0.000465013
0.000420622
0.000437602
0.000321648
0.000245737
0.00033361
0.000148065
8.34933e-05
0.00167454
0.00352027
0.00465694
0.00585427
0.00625432
0.00679135
0.00668988
0.00661256
0.00650215
0.00627546
0.00608948
0.00586761
0.00529224
0.00453629
0.00337214
0.00241622
0.000416595
0.00154845
0.00352079
0.00014909
0.00144593
0.00310054
0.00445721
0.00534076
0.00564201
0.00577242
0.00586361
0.0059077
0.00559579
0.00557478
0.00518682
0.00494582
0.0046505
0.00415916
0.00309679
0.0019298
0.000611895
0.00125558
0.00286115
0.0001758
0.00147054
0.0025949
0.00394776
0.00442316
0.004733
0.00499825
0.00516085
0.00497732
0.00501892
0.00491484
0.0045473
0.00419122
0.00396528
0.00348889
0.00257009
0.00192852
0.000318852
0.001285
0.00244466
9.84974e-05
0.000920855
0.0021222
0.00324953
0.0037949
0.00405555
0.00420507
0.00429249
0.00391366
0.00429225
0.00403437
0.00349503
0.0034186
0.00327757
0.00289607
0.00230278
0.00151735
0.00020315
0.000912383
0.00223053
0.000263196
0.000813715
0.00176574
0.00241802
0.00276879
0.00323788
0.00361684
0.00337181
0.00328989
0.00335429
0.00317508
0.00320915
0.0027129
0.00274832
0.00241803
0.00152229
0.00110203
0.000289862
0.00090429
0.00183195
0.000210168
0.000417174
0.00133254
0.00184542
0.00216276
0.00228215
0.00224677
0.00255908
0.0023305
0.00261897
0.00226333
0.00234238
0.00187313
0.00193631
0.0014986
0.00124715
0.00078987
5.87899e-06
0.000596444
0.00120972
5.79641e-05
0.000451216
0.000980172
0.00113343
0.00129479
0.00129916
0.0014975
0.00180167
0.0013931
0.00143757
0.00158323
0.00158313
0.00126731
0.00115945
0.000868639
0.000783514
0.000583234
2.59983e-05
0.000361846
0.000688884
1.10659e-05
0.000258029
0.000402314
0.000322617
0.000424838
0.000492023
0.000398876
0.000670401
0.000538245
0.000378867
0.000457093
0.000497302
0.000596906
0.000479932
0.00022776
0.000442683
0.000116675
0.00019062
0.000160752
2.96549e-05
0.00348206
0.00126711
0.000599493
0.00199006
0.00313561
0.00407133
0.00452156
0.0046111
0.00489644
0.0046653
0.00430719
0.00401162
0.00375821
0.0030019
0.00204177
0.00104546
0.000438555
0.00249042
0.00466243
0.00665179
0.00284951
0.00117113
0.000456881
0.00187174
0.00291658
0.00351921
0.00402851
0.00413734
0.00414817
0.004021
0.00382858
0.00349722
0.0032007
0.00267132
0.00184501
0.000820545
0.000429966
0.00235981
0.00404125
0.00580564
0.00252013
0.000842521
0.000320139
0.00180577
0.00246151
0.00291844
0.00339969
0.00334698
0.00337656
0.0033103
0.00317501
0.00314733
0.00275757
0.00224973
0.00174363
0.000674594
0.0003443
0.00168737
0.00340926
0.00525887
0.00187848
0.000787735
0.000406785
0.00128729
0.00207261
0.00237207
0.0028796
0.00320868
0.00283232
0.00289655
0.00275456
0.00253258
0.00231388
0.00176164
0.00133165
0.000378261
0.000457737
0.00160398
0.00318512
0.00411598
0.00146499
0.000755321
9.88601e-05
0.000934039
0.00143238
0.00211389
0.0021598
0.00228877
0.00233219
0.00231757
0.00229855
0.00188361
0.00177864
0.00154683
0.000929673
0.000383403
0.000479913
0.00118301
0.00235703
0.0035503
0.00114088
0.000558981
0.00024159
0.000871425
0.00108486
0.00140708
0.00174867
0.00150215
0.0017846
0.0017671
0.00149001
0.00150711
0.00117941
0.00101446
0.000863898
0.000426718
0.000147237
0.000962254
0.00180916
0.0024014
0.00077293
0.000412133
0.000263608
0.000387861
0.00084814
0.000961263
0.00103523
0.00095175
0.00097532
0.00122983
0.000965303
0.00108205
0.000706322
0.000683853
0.000420425
0.00021343
5.22502e-05
0.000701438
0.0013497
0.00152384
0.000206448
0.000107764
0.000120625
6.0666e-05
0.000115212
0.000344409
0.000434679
0.000461938
0.000285531
0.000329235
0.000397781
0.000267786
0.000331533
0.000194499
6.06055e-05
0.00010484
0.000182124
0.000279196
0.000303441
0.000505209
0.00716891
0.00512576
0.00327524
0.00157747
0.00014575
0.000784039
0.00135817
0.00190377
0.00196875
0.00194893
0.00165834
0.00135137
0.000783317
4.68056e-05
0.000931755
0.00221591
0.00395071
0.00613385
0.00828338
0.0103003
0.00630484
0.0046495
0.00287032
0.00143846
5.28266e-05
0.000731766
0.00134795
0.00161481
0.00162841
0.00144049
0.00162103
0.0010239
0.000575977
0.000288779
0.000805367
0.00193965
0.00336501
0.00543922
0.00723645
0.00928013
0.00545401
0.00409743
0.00230718
0.00111188
0.000308151
0.000397078
0.00130228
0.00155184
0.00139541
0.00162875
0.00148211
0.000787987
0.000748
6.39721e-05
0.000908465
0.00175387
0.00295033
0.00472444
0.00642569
0.00794152
0.00451116
0.00329675
0.0021751
0.00102193
2.01181e-05
0.000605514
0.00074925
0.00110493
0.00137918
0.00129981
0.00104849
0.000828664
0.000654585
1.06932e-05
0.000571177
0.00141595
0.00261812
0.00401126
0.00544566
0.00659412
0.00361878
0.00254218
0.00160955
0.000763685
0.000152609
0.000455883
0.000835398
0.000870869
0.000970436
0.000795817
0.000809033
0.000819498
0.000378592
0.00012017
0.000430984
0.00119036
0.00197149
0.00317534
0.00443934
0.00508451
0.00259083
0.00195442
0.00100381
0.000500356
3.42169e-06
0.000343695
0.000571901
0.000803636
0.000669501
0.00065041
0.000742833
0.000414475
0.000348993
0.000103874
0.000406127
0.00106014
0.00154185
0.00238376
0.00317103
0.00382243
0.00150098
0.00120259
0.00073577
0.000283171
9.27259e-05
7.89014e-05
0.000156163
0.000430345
0.000403209
0.000432366
0.000281069
0.000200948
0.00038958
3.36023e-05
0.00035134
0.000525039
0.000972025
0.00140992
0.00209917
0.00222409
0.000859103
0.000299143
0.000184859
0.000136868
4.25399e-05
0.00015864
0.000220389
0.000143186
0.000407565
0.000263434
0.000174796
0.000102917
0.000125089
0.000154659
0.000103929
0.000143424
0.000358139
0.00038519
0.000550039
0.000689728
0.0118575
0.00972322
0.00761887
0.00577698
0.00412561
0.00300793
0.00228475
0.00192516
0.00151392
0.00185126
0.00189937
0.00216064
0.00286489
0.00385372
0.0047072
0.00638188
0.00804216
0.0102536
0.0125834
0.0149791
0.0105362
0.00862715
0.00673361
0.005088
0.0037439
0.00274171
0.00189052
0.00147752
0.00143834
0.00155984
0.00165407
0.00194861
0.00247834
0.00336213
0.0041993
0.00546655
0.00718521
0.00928867
0.0112786
0.0132884
0.00887017
0.00748354
0.00597375
0.00454019
0.00312393
0.00235605
0.0016999
0.00122986
0.00126584
0.00139918
0.0013706
0.00171443
0.0022981
0.00283258
0.0038455
0.00486785
0.00612273
0.0079761
0.00988084
0.0114082
0.00751272
0.00620836
0.00488981
0.0035584
0.00255298
0.0019315
0.00134683
0.00108495
0.00113806
0.00109811
0.00121428
0.00162551
0.0018467
0.00244959
0.00318046
0.00403368
0.00536002
0.00649043
0.0084156
0.00955397
0.00588661
0.00495701
0.00373281
0.00275398
0.001974
0.00179603
0.00118384
0.000911346
0.000850392
0.000730416
0.00100107
0.00130579
0.0013106
0.00192215
0.00227043
0.00333204
0.00421574
0.00552502
0.00650637
0.00768244
0.00420934
0.00340387
0.00301271
0.00215688
0.00154626
0.00137931
0.00096163
0.000637242
0.000506608
0.000798452
0.000768998
0.000904754
0.000935987
0.00142683
0.00179974
0.00249256
0.00311721
0.00368796
0.0047651
0.00570774
0.00270623
0.00233936
0.00162431
0.00128081
0.000831493
0.000712116
0.000591312
0.000400604
0.000335258
0.000560723
1.57087e-05
0.000321028
0.000716791
0.00104171
0.00112191
0.0015392
0.00210524
0.00267625
0.00302959
0.00332189
0.0010081
0.000508432
0.000344018
0.000440972
0.000249306
0.000370202
0.000214598
0.00029174
6.66892e-05
0.00047509
0.00015068
0.000220568
5.81936e-05
0.000288568
0.000311419
0.000315243
0.000536872
0.000746102
0.000791999
0.00105105
0.0173051
0.0150106
0.0124344
0.0106269
0.00898171
0.00764921
0.00658965
0.0063768
0.0058527
0.00580277
0.00598588
0.00644771
0.00723228
0.00812859
0.00924921
0.0110056
0.0129272
0.0154187
0.0176895
0.0202488
0.0151758
0.0133935
0.0112297
0.00941533
0.00792027
0.00669907
0.00593916
0.00542689
0.00537126
0.00534822
0.00520189
0.00596335
0.00629388
0.00722914
0.0083454
0.00971534
0.0114146
0.0135544
0.015816
0.0180137
0.0132454
0.0117078
0.00971751
0.00797752
0.00694812
0.00575801
0.00519546
0.00471333
0.00448809
0.00437121
0.00473635
0.00494972
0.00530823
0.00605755
0.0072699
0.00842143
0.00998535
0.0116276
0.0136737
0.0153682
0.0107951
0.00964113
0.00803313
0.00690874
0.0055821
0.00482476
0.00435809
0.00413635
0.0040812
0.0040111
0.00380998
0.00414115
0.00469704
0.00526034
0.00610743
0.00727387
0.00840965
0.00995445
0.0116368
0.0129694
0.00860268
0.00759535
0.00648271
0.0055359
0.00433833
0.0039323
0.00348952
0.0031164
0.00294515
0.00305947
0.00310969
0.00312618
0.00378571
0.00461061
0.00461817
0.00565026
0.00678383
0.00789033
0.00916346
0.0103115
0.00649336
0.00563783
0.00481498
0.00409712
0.00322379
0.00286437
0.00259394
0.00230039
0.00207692
0.00240646
0.00209424
0.00226586
0.00275556
0.00324357
0.00347517
0.00402063
0.00483871
0.005726
0.00671367
0.00763013
0.00388175
0.00339196
0.0029841
0.00231834
0.00211709
0.00182643
0.00152422
0.00128802
0.00131443
0.00125288
0.00142545
0.00164509
0.00173692
0.00185273
0.00233575
0.00261597
0.00312495
0.00357311
0.00390553
0.00470069
0.00120348
0.00106909
0.000960223
0.000720109
0.000548095
0.000607217
0.000567713
0.000627773
0.000437583
0.000549036
0.00051503
0.000396359
0.000488215
0.000371186
0.00065781
0.00113753
0.0012736
0.00138638
0.00160456
0.0015617
0.0229981
0.0206022
0.0182696
0.0159701
0.0142699
0.0127868
0.0119166
0.0113458
0.010705
0.0108272
0.0109962
0.0112064
0.0120005
0.0131609
0.0146146
0.016374
0.0183796
0.0209186
0.0236336
0.0258353
0.0202548
0.0184753
0.0160497
0.0142398
0.0125469
0.0115502
0.0103898
0.0099483
0.00948546
0.00950647
0.00958864
0.0103985
0.0110002
0.0115764
0.0127947
0.0143273
0.0162057
0.018374
0.0205995
0.022838
0.0174794
0.0159515
0.0139339
0.0125566
0.0109134
0.00972349
0.00918032
0.00845396
0.00829319
0.00825027
0.00846509
0.00878881
0.00914567
0.0104084