/*--------------------------------*- C++ -*----------------------------------*\
| =========                 |                                                 |
| \\      /  F ield         | OpenFOAM: The Open Source CFD Toolbox           |
|  \\    /   O peration     | Version:  2212                                  |
|   \\  /    A nd           | Website:  www.openfoam.com                      |
|    \\/     M anipulation  |                                                 |
\*---------------------------------------------------------------------------*/
FoamFile
{
    version     2.0;
    format      ascii;
    arch        "LSB;label=32;scalar=64";
    class       volScalarField;
    location    "0";
    object      relativeErrorField;
}
// * * * * * * * * * * * * * * * * * * * * * * * * * * * * * * * * * * * * * //

dimensions      [0 0 0 1 0 0 0];

internalField   nonuniform List<scalar> 
3200
(
0.00151033
0.000589479
0.000239702
0.000334639
0.000964975
0.00158196
0.0029025
0.00406665
0.00497126
0.00550037
0.00600379
0.0059048
0.00581767
0.00526603
0.00476007
0.00463143
0.00487581
0.00543822
0.00616373
0.00731489
0.00115736
0.000654976
0.000166991
0.000245109
0.000397419
0.00132117
0.00219658
0.00321767
0.00412585
0.00493393
0.00533229
0.0051114
0.00503887
0.00454939
0.00431309
0.0039759
0.00423994
0.00454909
0.00537785
0.00609151
0.000784198
0.000201203
1.20829e-05
0.000198336
0.000459994
0.00111513
0.00195985
0.00278938
0.0033685
0.00386222
0.0044293
0.00447041
0.00409491
0.00367485
0.00352767
0.00330093
0.00350209
0.00385703
0.00461262
0.00559335
0.000567019
0.000143374
6.29976e-05
1.75217e-05
0.000199321
0.000891567
0.00160205
0.00217633
0.00275974
0.00343952
0.0035092
0.0034744
0.00349817
0.00318621
0.00283653
0.00283895
0.00281439
0.00318822
0.00384137
0.00428621
0.000347727
0.000201568
0.000352223
0.00020047
3.40084e-05
0.000559126
0.0010706
0.00134386
0.0022208
0.00240173
0.00289675
0.00277331
0.00286223
0.00226024
0.00238448
0.0022389
0.00227472
0.00267258
0.00310338
0.00359724
0.000217085
0.000175372
0.000118214
8.71335e-05
6.7829e-05
0.000433122
0.000774591
0.00130938
0.00146993
0.00186201
0.00198559
0.00214337
0.00180122
0.00186154
0.00164509
0.00159518
0.00169433
0.00172394
0.00218939
0.00249422
2.6465e-05
5.8713e-05
0.000111395
0.000133256
6.68916e-05
0.000208152
0.00066149
0.000620271
0.000884384
0.00113866
0.00125586
0.00131933
0.00129821
0.00115508
0.00114486
0.000998206
0.0011001
0.00101437
0.000876032
0.00153969
7.56479e-06
0.000191214
0.000127072
4.91924e-05
1.15494e-05
0.000198627
0.000100847
0.000353951
0.000491769
0.00052605
0.000182787
0.000437539
0.000596024
0.000372501
0.00037436
0.000340537
0.000414015
0.000186281
0.000504543
0.000508193
0.000909327
0.00170202
0.00211965
0.00217413
0.00195586
0.00103212
3.85754e-05
0.0010675
0.00199498
0.0027619
0.00302159
0.00321702
0.00292704
0.00256339
0.00192861
0.00205937
0.00218354
0.00274058
0.00372835
0.00490417
0.00094543
0.00143842
0.00181423
0.00191408
0.00177895
0.000902699
0.000280976
0.00090486
0.0016321
0.00245653
0.00274864
0.00264054
0.002864
0.00223845
0.00170132
0.00182366
0.00190162
0.00254113
0.00316143
0.0043489
0.000976165
0.00139019
0.00176902
0.00164341
0.00158842
0.000984771
2.84688e-06
0.000586638
0.00154687
0.00208548
0.0024248
0.00239098
0.00224062
0.00203368
0.00178033
0.00148607
0.00161167
0.0023407
0.00265224
0.00350244
0.000643533
0.00123888
0.00141926
0.001392
0.00106736
0.000669107
0.000102955
0.000391541
0.00128049
0.00179076
0.00198278
0.00193907
0.00203324
0.00151475
0.0014094
0.00149369
0.0014482
0.00190879
0.00249296
0.00318927
0.000699485
0.000774648
0.00112129
0.00119933
0.00126195
0.000680315
0.000119301
0.000512935
0.00104399
0.00140334
0.00168643
0.00168245
0.00144255
0.00127176
0.00115968
0.000857004
0.00131768
0.00161686
0.00194803
0.00261459
0.000381472
0.000566155
0.000852197
0.000836872
0.000720698
0.000631424
0.000306893
0.000299999
0.000547561
0.0011594
0.00115345
0.00122498
0.000971234
0.000954396
0.000798047
0.000777707
0.000969585
0.00122026
0.0013568
0.00155499
0.000249328
0.000313484
0.000538915
0.000588974
0.000324111
0.000234637
6.04154e-05
0.000313735
0.000481466
0.00050231
0.000803519
0.000657918
0.000761195
0.00059978
0.000548044
0.000485381
0.000386057
0.000703538
0.000780802
0.00110443
0.000238974
0.000135184
0.000240015
4.91734e-05
0.000286327
1.68679e-06
0.000256551
0.000152039
0.000196612
0.000322772
0.000306536
0.000240034
0.000291763
4.0588e-05
1.38851e-05
7.0657e-05
0.000154826
4.60807e-05
0.000257726
0.000179245
0.00378724
0.00462175
0.00532242
0.00546431
0.00481842
0.00453491
0.00341116
0.00241069
0.00157245
0.000862431
0.00059027
0.000443819
0.000710026
0.00104936
0.00116094
0.00122092
0.00121973
0.00036006
0.000880985
0.00220367
0.00323533
0.00418641
0.00451723
0.0047719
0.00445137
0.00395209
0.00315762
0.00210409
0.00128421
0.000695551
0.000498779
0.000318322
0.000791687
0.000695788
0.00108112
0.00105255
0.000905085
0.000219902
0.000830707
0.00186189
0.00302001
0.00363522
0.00414593
0.00404872
0.00376144
0.00329036
0.00237966
0.00167215
0.00107471
0.000561333
0.000157574
0.000106613
0.000257264
0.000831353
0.000638476
0.000852425
0.000610527
3.4985e-05
0.00098979
0.00160401
0.00227584
0.00293907
0.00339427
0.00347981
0.00317931
0.00288438
0.00223208
0.00143481
0.00105254
0.000391725
0.000262629
0.000262887
6.93109e-05
0.000247999
0.000630301
0.000585781
0.000563214
0.000160927
0.000442885
0.00160366
0.00187861
0.00230008
0.00247591
0.00257904
0.00243761
0.00219723
0.00163442
0.00106065
0.000686292
0.000599005
0.00019477
5.75491e-05
4.95013e-05
0.000393159
0.000406672
0.000568305
0.000355949
0.000141452
0.000598537
0.00122372
0.00145804
0.00179085
0.00214101
0.00201734
0.00193094
0.00138518
0.00131351
0.000787219
0.000451148
0.000172465
9.29555e-05
1.70013e-06
0.000131965
0.000317206
9.65798e-05
0.000104002
0.000248546
0.000261167
0.000221281
0.000896232
0.000975959
0.000880382
0.00124504
0.00094307
0.00109947
0.00113965
0.000672909
0.000563875
0.000282688
7.29585e-05
6.10444e-05
0.000114502
0.000234041
0.000355819
0.000133604
0.000435531
7.04801e-05
6.78999e-05
0.000405928
0.000538391
0.000218982
0.000138893
0.000517887
0.000536282
0.000601705
8.62067e-05
0.000185607
0.000227246
2.78409e-06
1.60362e-05
8.29695e-06
9.65141e-05
9.87481e-05
0.000167285
0.000428162
0.000211454
0.000132978
0.000134167
8.62722e-05
0.000219669
0.00628589
0.00711687
0.0082523
0.00832775
0.00827106
0.00763665
0.00693568
0.00605359
0.00525857
0.00457141
0.0040955
0.00386586
0.00425671
0.00426198
0.00449777
0.00439682
0.00403087
0.00310767
0.00177062
0.000453943
0.00530539
0.00634466
0.00703153
0.00735128
0.00741369
0.00676417
0.00591884
0.00520588
0.00441356
0.00391954
0.00363984
0.00348774
0.0036588
0.00371174
0.00387464
0.00406407
0.0034665
0.00279631
0.00157382
0.000298049
0.0047169
0.00564761
0.00598844
0.00623397
0.00635414
0.00594687
0.0051838
0.00426574
0.00395448
0.00320795
0.00288036
0.00281831
0.00297987
0.00291835
0.00310055
0.00298666
0.00286633
0.00214312
0.00106622
3.99501e-05
0.00390136
0.00458982
0.00488985
0.00517702
0.00512749
0.00472159
0.00419112
0.00357198
0.00312678
0.00275105
0.00247664
0.00230637
0.00249547
0.00258303
0.00262344
0.00245356
0.00236749
0.00187263
0.000736635
0.00023722
0.00330422
0.00363658
0.00388713
0.00403722
0.00407239
0.00371198
0.00339965
0.00304644
0.00271565
0.00213231
0.00187297
0.00194697
0.00177891
0.00181588
0.00196987
0.0019954
0.00188866
0.00111941
0.000701758
7.76937e-05
0.00246054
0.0026318
0.00280898
0.00309777
0.00293521
0.00291701
0.00250335
0.00224795
0.00185781
0.00169484
0.00133784
0.00120682
0.00123641
0.0015238
0.00147205
0.00140328
0.00113891
0.000902274
0.000452601
3.74898e-05
0.00139795
0.00159157
0.00164941
0.00177858
0.00186762
0.00158337
0.00137442
0.000946179
0.00112889
0.00112938
0.00114589
0.000742248
0.000917895
0.000589029
0.000910702
0.000993233
0.000826703
0.000602024
0.000134636
0.00010957
0.000421026
0.000698531
0.000591219
0.000727918
0.00049156
0.00084207
0.000522234
0.000714906
0.000344182
0.000438079
0.000330411
0.000145043
0.00034631
2.5609e-05
0.000346512
0.000225889
0.000191751
1.98271e-05
0.000259068
2.5763e-05
0.00849983
0.0094751
0.0105132
0.0109121
0.0109357
0.0105017
0.00975367
0.00918698
0.00836865
0.0078052
0.00753068
0.00735446
0.00745122
0.0076212
0.00723594
0.00721477
0.00650357
0.00563418
0.00402679
0.00255232
0.00730954
0.00832009
0.00906283
0.00970421
0.00954532
0.00935483
0.00888315
0.00786865
0.00726479
0.00695933
0.00653933
0.00639508
0.00645904
0.00637683
0.00648899
0.00616886
0.00570565
0.00477974
0.00348479
0.00213804
0.00642083
0.00689645
0.00774748
0.00828443
0.00838032
0.00799368
0.0074304
0.00692093
0.00630672
0.0057715
0.00555951
0.00528703
0.00546949
0.00539959
0.00553338
0.00503944
0.00459585
0.00405097
0.00263875
0.00191183
0.00527051
0.00605348
0.006561
0.00679246
0.00690654
0.00658586
0.00610157
0.00575344
0.005312
0.00469126
0.00460809
0.00445016
0.00452401
0.00445184
0.00448348
0.0043031
0.0038653
0.00327146
0.00233479
0.0011929
0.0040931
0.00477894
0.00513104
0.00536254
0.00549965
0.00512309
0.00493405
0.00448742
0.00420096
0.00393303
0.00347966
0.00358584
0.00346921
0.00351643
0.00348922
0.00330181
0.0030805
0.00254853
0.00185494
0.00108457
0.00300863
0.00357087
0.00397615
0.00401873
0.00414314
0.00365154
0.00352624
0.0034806
0.00287076
0.00273975
0.00267748
0.00268369
0.0025371
0.00237001
0.00249486
0.00235525
0.00212419
0.0018634
0.00125701
0.000829325
0.00184411
0.00206107
0.00223782
0.0024956
0.00233596
0.00233456
0.00207297
0.00199019
0.00181901
0.00159634
0.00168101
0.00157592
0.00131107
0.0015963
0.00145698
0.00132682
0.00119095
0.00127039
0.000634194
0.000334572
0.000746736
0.000573068
0.000630296
0.000671255
0.000796245
0.000774417
0.000841949
0.000565847
0.000520984
0.000485309
0.000580996
0.000397422
0.000699085
0.000587584
0.000706031
0.000600781
0.00043773
0.000335368
0.00038038
0.000200889
0.00966301
0.0110543
0.0123122
0.0129597
0.0131128
0.0131482
0.0123749
0.0120488
0.0110943
0.010854
0.0101359
0.010134
0.0101384
0.00988391
0.00974465
0.00940623
0.00850768
0.00723944
0.00564459
0.00403475
0.00866373
0.00970724
0.0107147
0.011331
0.0114814
0.0113425
0.0109238
0.0103935
0.00985901
0.00920558
0.00917476
0.00891544
0.00864696
0.00888384
0.0085201
0.00804626
0.00748174
0.00631667
0.00478959
0.00331979
0.00739256
0.00839724
0.00902648
0.00986166
0.00976371
0.0098845
0.00935381
0.00897622
0.00856999
0.00798096
0.00776867
0.00747312
0.00730955
0.00733935
0.00720329
0.00681219
0.00634859
0.0052419
0.00415134
0.00270044
0.00623601
0.00693513
0.00788195
0.00828696
0.00834393
0.00831819
0.00800962
0.00731339
0.00697509
0.00668724
0.00633346
0.00622243
0.00615424
0.00606125
0.00568841
0.00565175
0.00493866
0.00433717
0.0032645
0.00225875
0.00483754
0.00555705
0.00612417
0.00627626
0.00660705
0.00636431
0.0061344
0.00583725
0.00557857
0.00535134
0.00502731
0.00494347
0.00501439
0.00486909
0.00464834
0.00437707
0.00408746
0.00334502
0.00253713
0.00199632
0.00360032
0.00391505
0.00427062
0.00448491
0.0046761
0.00481486
0.00467357
0.00414287
0.0039308
0.00377067
0.00359584
0.00381582
0.00339438
0.00349967
0.00325493
0.0032522
0.00296592
0.00223878
0.00178071
0.00114078
0.00218995
0.00261742
0.0028285
0.00305586
0.00285394
0.00283205
0.00266186
0.00276237
0.00242791
0.00223193
0.0024371
0.00227696
0.00212163
0.00227556
0.00207772
0.00199788
0.00186882
0.00132382
0.00116211
0.000776196
0.000482677
0.00105201
0.000962221
0.00109988
0.00106609
0.0010321
0.00111276
0.000739024
0.000843433
0.00103879
0.000595136
0.000973226
0.000910849
0.000630834
0.000757494
0.00069562
0.000645807
0.000466733
0.000396115
0.000334253
0.0103893
0.0119498
0.0135591
0.0143058
0.0146309
0.0146704
0.0146095
0.0140437
0.0134794
0.0128505
0.0126676
0.012269
0.0121683
0.0120021
0.0114387
0.0107841
0.00996437
0.00839714
0.00668559
0.00499368
0.00936646
0.0105455
0.0117252
0.0127874
0.0128934
0.0129793
0.0126378
0.0121285
0.0116867
0.0113129
0.0108927
0.0107611
0.0106186
0.0103799
0.01002
0.00932674
0.00879457
0.00729574
0.00590628
0.00409163
0.00774816
0.00910125
0.0100726
0.0107302
0.0111412
0.010821
0.0110258
0.0105363
0.0100219
0.00967487
0.00940853
0.00923283
0.00901938
0.00903999
0.00875155
0.00792757
0.00734652
0.00622259
0.0047723
0.00331444
0.0066829
0.00744559
0.00847008
0.00909504
0.00908543
0.00929969
0.00907445
0.00871171
0.0083383
0.00809653
0.00776028
0.00771058
0.00755863
0.00707993
0.00696796
0.00665128
0.00605326
0.005095
0.00383878
0.00302957
0.0052694
0.00590467
0.00644348
0.00722007
0.00720624
0.00726051
0.00713861
0.00695613
0.00652418
0.00639669
0.00612251
0.00606604
0.00592655
0.00560401
0.00541083
0.0052467
0.00468336
0.00400082
0.00292893
0.00220034
0.00402219
0.00446426
0.00473137
0.00516391
0.0052476
0.00532507
0.00529763
0.00521987
0.00465874
0.00477246
0.00463911
0.00459609
0.0041711
0.00408263
0.0038174
0.00370755
0.00354781
0.00280318
0.00223823
0.00173128
0.00233568
0.0025629
0.00306598
0.00317619
0.00342806
0.00309215
0.00328999
0.00310694
0.00295538
0.00275607
0.00280077
0.00264999
0.00267683
0.0025122
0.00252067
0.0022381
0.00216159
0.00173346
0.00135862
0.00106419
0.000970716
0.000898875
0.0011203
0.00121489
0.000968976
0.00112901
0.00103177
0.000961831
0.000953389
0.000915297
0.00100978
0.00075731
0.000788224
0.00098702
0.000717533
0.00084813
0.000848226
0.000579545
0.000288302
0.000328423
0.0104326
0.0121233
0.0136622
0.0149807
0.0154462
0.0157729
0.0157027
0.0154735
0.0149082
0.0145633
0.0141743
0.0138863
0.013736
0.0132367
0.0125134
0.011786
0.0106315
0.0089655
0.00672359
0.00520147
0.00923545
0.0107813
0.0122035
0.0130822
0.01381
0.0136408
0.0136723
0.0135348
0.0131818
0.0127156
0.0123642
0.0120742
0.0118041
0.0115348
0.0107857
0.0100642
0.00898142
0.00760625
0.00604248
0.00429768
0.0081784
0.00921124
0.0102835
0.011352
0.011959
0.011917
0.0118523
0.011595
0.0111779
0.0109816
0.0104966
0.0101975
0.0101955
0.00979545
0.00921231
0.00875158
0.00786031
0.00662819
0.00499162
0.00376832
0.00682041
0.00767639
0.00878967
0.00938941
0.00992865
0.0099982
0.00993949
0.00966326
0.00930727
0.0089545
0.00869779
0.00864092
0.00848013
0.0079954
0.00774505
0.00709865
0.00636254
0.00529216
0.00428457
0.00288735
0.00549454
0.00589228
0.00678615
0.00721836
0.00767338
0.00770033
0.00765761
0.00767952
0.0073006
0.00705297
0.00692246
0.0068944
0.0067904
0.0063874
0.00606247
0.00565261
0.0050125
0.00409028
0.00320133
0.00218676
0.00380521
0.00447036
0.00507607
0.00554122
0.00579573
0.00577361
0.00573379
0.00550345
0.00531531
0.00520029
0.00518693
0.00485878
0.004978
0.00467927
0.00425352
0.00431036
0.00349737
0.00294033
0.00227938
0.00165117
0.00231287
0.00267389
0.00318813
0.00325669
0.00345414
0.0035916
0.0035658
0.00345146
0.00306994
0.00340777
0.00293121
0.00305221
0.00313838
0.00265831
0.0027175
0.00255429
0.00222426
0.00202436
0.00149258
0.00103437
0.000993927
0.00108167
0.000963304
0.00126503
0.0012939
0.00113394
0.00127653
0.00106259
0.00125833
0.00110559
0.0010261
0.00112441
0.000893428
0.000995129
0.00100857
0.000906056
0.00069547
0.000582116
0.000319778
0.000196926
0.00988352
0.0118267
0.0134508
0.0149241
0.0157519
0.0160867
0.0160901
0.0160588
0.0159009
0.0154476
0.01513
0.0147814
0.0142081
0.0137311
0.0132494
0.0117773
0.0104361
0.00871594
0.00650594
0.0043342
0.00861564
0.010297
0.0118527
0.0131515
0.0137947
0.014167
0.0143018
0.0140951
0.013907
0.0133753
0.0130582
0.0129257
0.0125997
0.0118648
0.0113048
0.0102935
0.00904905
0.00749282
0.00556019
0.00359203
0.0076047
0.00892933
0.0101638
0.0111877
0.0118777
0.0121858
0.0121922
0.0121325
0.0118976
0.0114755
0.0113346
0.0109832
0.0106875
0.0102191
0.00976654
0.00887838
0.00764664
0.00635469
0.00471823
0.00321241
0.00635506
0.00755888
0.00831583
0.00917379
0.00997199
0.00991181
0.0101036
0.0103201
0.00996698
0.00963344
0.00931612
0.00928768
0.00887401
0.00858541
0.00797431
0.00733966
0.0063663
0.00529927
0.00367016
0.00260425
0.00507641
0.0059168
0.00669697
0.00753641
0.00763914
0.0080064
0.00802184
0.00811555
0.00771824
0.0076712
0.00733871
0.00748326
0.00726412
0.00679379
0.00624245
0.00573148
0.00494877
0.00430351
0.00295871
0.00211212
0.00369216
0.00419781
0.00479277
0.00548952
0.00558541
0.00587537
0.00600854
0.005782
0.00586042
0.00570271
0.00543315
0.00524132
0.00505567
0.0049366
0.00445249
0.00429638
0.00361606
0.00314044
0.00212698
0.00138853
0.0022126
0.00258385
0.00305154
0.00334556
0.00363087
0.00357642
0.00350065
0.0036621
0.00340778
0.00357204
0.00323764
0.00305827
0.00310284
0.00270665
0.00279201
0.00262833
0.00234835
0.00179509
0.00138304
0.000843981
0.000761275
0.000970158
0.00095152
0.00118311
0.00116959
0.00102684
0.0012755
0.00139634
0.00139912
0.00127774
0.00141345
0.00107266
0.00121622
0.00081288
0.00117124
0.000863355
0.000740319
0.000448825
0.000399684
0.000509266
0.00864871
0.0102867
0.0125083
0.0140508
0.0150123
0.0155145
0.0159413
0.015896
0.0157541
0.015604
0.0151836
0.0148332
0.0143705
0.0133832
0.0126036
0.0111272
0.00969113
0.00758385
0.00538629
0.00304344
0.00745372
0.00903305
0.0109293
0.0122628
0.0132565
0.0137699
0.01391
0.014046
0.0139156
0.0135064
0.0134319
0.0128736
0.0123754
0.0118385
0.0110596
0.00989114
0.00849628
0.00653749
0.00450847
0.00268303
0.00654552
0.00779997
0.00939557
0.010662
0.011473
0.0118877
0.0121148
0.0120101
0.011939
0.0116555
0.0113549
0.0109423
0.0106379
0.0101823
0.00930966
0.00840383
0.00701963
0.00573722
0.00372816
0.00212995
0.00554375
0.00657377
0.00788035
0.00890253
0.00937505
0.00974198
0.0100134
0.0100515
0.0100955
0.00970174
0.00934922
0.00910484
0.0088873
0.00841726
0.00783911
0.00699662
0.00606164
0.00462025
0.0031137
0.0017392
0.00418044
0.00520573
0.00631991
0.00709186
0.00758093
0.00782861
0.00794089
0.00789876
0.00775795
0.00755524
0.00759848
0.00731464
0.00672724
0.00646007
0.00598267
0.00550984
0.0044883
0.00363742
0.00238086
0.00149408
0.00316247
0.00376561
0.00456647
0.00492654
0.0052559
0.00578874
0.0056422
0.005865
0.00565075
0.00570414
0.0056895
0.00524474
0.00516356
0.00461363
0.00437766
0.00389397
0.00347312
0.00277263
0.00169101
0.00102745
0.00191929
0.00231392
0.00270312
0.00291754
0.00327054
0.00360964
0.0033218
0.00366848
0.00347617
0.00347539
0.00335115
0.00333339
0.00297354
0.0029919
0.00270563
0.00262914
0.00212156
0.00166579
0.00109405
0.000427541
0.000623955
0.000655753
0.00106786
0.0010982
0.00103753
0.00121889
0.00102917
0.00134828
0.00117033
0.00143376
0.00120868
0.00104741
0.0012449
0.00104625
0.000885437
0.000697256
0.00089154
0.000373049
0.000292765
0.00026485
0.0063433
0.00863221
0.0105592
0.0123937
0.0136407
0.0144193
0.0150849
0.0151572
0.0151643
0.0148751
0.0145057
0.0141069
0.0134762
0.0124783
0.0113854
0.00997337
0.00823143
0.0061491
0.00345262
0.000952088
0.00560138
0.00744902
0.00947123
0.0108231
0.0118795
0.0128101
0.0132215
0.0131991
0.0132412
0.0130401
0.0126738
0.0123504
0.0116181
0.0110842
0.00995612
0.00857844
0.0068893
0.00516067
0.00291313
0.000963796
0.00475718
0.00669981
0.00790101
0.0093244
0.0102378
0.0108681
0.0112549
0.0111926
0.0114374
0.0112903
0.0109196
0.0107086
0.00999267
0.00942861
0.00848642
0.00742384
0.00592448
0.00429874
0.00218223
0.000656982
0.00420909
0.00542838
0.00675265
0.00772142
0.00857784
0.00914342
0.00950203
0.00961739
0.00950106
0.00917231
0.00916003
0.00877446
0.00832477
0.00765448
0.00704248
0.00595177
0.00494009
0.00362528
0.00181129
0.000247776
0.00312382
0.00424049
0.00506648
0.00619951
0.00686053
0.00718144
0.00741827
0.00760832
0.0074014
0.00745803
0.00727861
0.00688361
0.00674338
0.00600372
0.00540172
0.00478895
0.00416861
0.00266868
0.0016804
0.000252815
0.00224417
0.00318137
0.00386168
0.00449332
0.0050082
0.00543719
0.00531968
0.00538712
0.00538358
0.00528832
0.00501833
0.00494552
0.00459231
0.0044023
0.00402455
0.00359194
0.00263119
0.00193432
0.00110167
0.000170993
0.00152256
0.00166586
0.0025122
0.00281011
0.00301385
0.00308383
0.00331516
0.00338133
0.00326605
0.00328648
0.00321057
0.00315988
0.00303694
0.00278748
0.00250864
0.00216027
0.00171216
0.00110745
0.000780404
0.000104055
0.000449961
0.000492509
0.0009986
0.00109143
0.00104949
0.000889573
0.0011638
0.00118027
0.00101135
0.00112233
0.00105827
0.00113437
0.00104703
0.00100459
0.00093323
0.000848959
0.000625632
0.000379696
0.000364485
4.81775e-05
0.00335205
0.00579852
0.00816906
0.0101241
0.0114651
0.0124668
0.0130243
0.0135642
0.0136305
0.013296
0.0128906
0.0125216
0.0117609
0.0107462
0.00947531
0.00805052
0.00577891
0.00354233
0.000852467
0.00192654
0.00310639
0.00504412
0.00714703
0.00881573
0.0100873
0.0108818
0.0116383
0.0119014
0.0118371
0.0116451
0.0112418
0.0108845
0.0102541
0.00924104
0.00799804
0.0067633
0.00493415
0.00304419
0.000603845
0.00165219
0.00278702
0.00429951
0.00608961
0.00766932
0.00853473
0.00946126
0.00995202
0.0101229
0.0102559
0.0101669
0.00971804
0.00920289
0.0084482
0.00795941
0.00711066
0.00574866
0.00430581
0.00237055
7.31775e-05
0.00154837
0.00222978
0.00358164
0.00501377
0.00598533
0.00696086
0.00774047
0.00819657
0.00842987
0.00852217
0.00814382
0.00813503
0.00754783
0.00746457
0.00680597
0.00572364
0.00462923
0.00340132
0.00200541
0.000276608
0.00154518
0.0017653
0.00267345
0.00389841
0.00488447
0.0054716
0.00626889
0.00635045
0.00670527
0.00658194
0.00650525
0.00647251
0.00622169
0.00580291
0.00508242
0.00450415
0.00383954
0.0025038
0.00142644
0.000180612
0.0010927
0.00105565
0.00198064
0.00276898
0.00351804
0.00418269
0.00453274
0.00471142
0.00484744
0.00483086
0.00484177
0.00468321
0.00440925
0.0041066
0.00384354
0.00335682
0.00276582
0.00186255
0.00114514
5.9503e-05
0.000802953
0.000751341
0.00113302
0.00177514
0.00214521
0.00253245
0.00301393
0.00296648
0.00284105
0.00300482
0.00300071
0.00298694
0.00269548
0.00255142
0.0027288
0.0021912
0.00166941
0.00124257
0.000420714
4.23021e-05
0.000719251
0.00012924
0.000539393
0.000606534
0.000722705
0.000858161
0.000741574
0.00116198
0.00119376
0.000870228
0.00103833
0.00111229
0.000918912
0.000964317
0.000841631
0.000815779
0.000663247
0.000489808
3.7761e-05
0.000155923
0.000171145
0.00026595
0.00225942
0.00470041
0.00683067
0.00854261
0.00979823
0.0104447
0.0107897
0.0109543
0.0108358
0.0106441
0.0101571
0.00918579
0.00809099
0.00680628
0.00484427
0.00290916
0.000283504
0.00255622
0.0055679
0.000180451
0.00183122
0.00419845
0.00596134
0.00738075
0.00854415
0.00917756
0.0093724
0.0096074
0.00956318
0.00924473
0.00856948
0.00792831
0.0070991
0.00585285
0.00424021
0.00239345
3.45496e-05
0.00252243
0.00498599
0.000213026
0.00148918
0.00354039
0.00515153
0.00625695
0.00748269
0.00772839
0.00819078
0.00838753
0.00821509
0.00800365
0.00743039
0.00691504
0.00599018
0.00489782
0.00354682
0.00176704
8.68722e-06
0.00234207
0.00432772
0.000181172
0.00132163
0.002966
0.00423729
0.00522602
0.00585062
0.00638926
0.00665197
0.00698607
0.00676418
0.00661078
0.00602473
0.00544265
0.00483865
0.00392965
0.00277413
0.00134994
0.0003476
0.00201792
0.00334583
3.29796e-05
0.000931828
0.00215935
0.00336724
0.0039892
0.00471495
0.00510749
0.00521257
0.00535411
0.00538948
0.00502489
0.00499468
0.00418879
0.00404096
0.00316265
0.00205246
0.00103035
0.000371651
0.00181576
0.00281183
0.000123387
0.000814624
0.00164485
0.00247757
0.00292959
0.00367867
0.00375045
0.0038571
0.00400835
0.00379602
0.00365823
0.00366734
0.00324511
0.00285319
0.00220252
0.00159251
0.000623723
0.000281703
0.00130255
0.00202788
0.000112458
0.000223065
0.00105394
0.0011757
0.00166088
0.00213837
0.00238611
0.00241367
0.00248477
0.00241749
0.00239146
0.00225787
0.00202795
0.00149436
0.00140855
0.001005
0.000697407
0.000175789
0.00063128
0.00129168
6.74809e-05
7.99673e-05
4.33059e-05
0.000566584
0.00056834
0.000788325
0.00071714
0.00110245
0.000814504
0.000747986
0.000787869
0.000710895
0.000800979
0.000512145
0.000357896
0.000354145
0.000348003
4.39657e-05
0.000381749
0.000324496
0.00462045
0.00201527
0.000646628
0.00266298
0.0047214
0.00579258
0.00684082
0.00748424
0.00780112
0.00751853
0.00712995
0.00680008
0.00575169
0.0046773
0.00300216
0.00120478
0.00116426
0.00388265
0.00685188
0.00973258
0.00395533
0.00190459
0.000482658
0.00235052
0.00407865
0.00528425
0.00580965
0.00660704
0.00660185
0.00665292
0.00626791
0.00584546
0.0050591
0.00393328
0.00275791
0.000800227
0.00128252
0.00378278
0.00636245
0.00875612
0.00354605
0.00173541
0.000168577
0.00201605
0.00323467
0.00444825
0.00497752
0.00561248
0.00570973
0.00570541
0.00524898
0.00489705
0.00412523
0.00325758
0.00199031
0.000591992
0.00115057
0.00324329
0.00547531
0.00749635
0.00315634
0.00128988
0.000246688
0.00145787
0.00281588
0.00368272
0.0043877
0.00434185
0.00457171
0.00469609
0.00454711
0.00396191
0.00350126
0.00279959
0.00165944
0.000411929
0.00116584
0.00281213
0.00471994
0.00630075
0.00234932
0.00111183
0.000141034
0.0011107
0.00218253
0.00267448
0.00324084
0.00357082
0.00356494
0.00390691
0.00349942
0.00310653
0.00261191
0.00200908
0.00130184
5.39564e-05
0.000810552
0.00241026
0.00397043
0.00503463
0.00178005
0.000976992
0.000120718
0.00090924
0.00175362
0.00215418
0.0026038
0.00256243
0.00269073
0.00249647
0.00261372
0.00201919
0.00192669
0.00148304
0.0009765
6.35674e-05
0.000681338
0.00160288
0.00281367
0.00373454
0.000982235
0.000594044
0.000116343
0.000671588
0.000910225
0.00125789
0.0013838
0.00174741
0.00180685
0.00152656
0.00157363
0.0013731
0.00111939
0.000917815
0.00035363
0.000120453
0.000401399
0.00106449
0.00164028
0.00239665
0.00039062
0.000330289
0.000144243
0.000355284
0.000374642
0.000186687
0.00032332
0.000583772
0.000324592
0.000468614
0.000518393
0.00042347
0.000411522
0.000298404
0.000101677
8.19313e-05
0.00012163
0.000458707
0.000749412
0.000870635
0.0097064
0.00706058
0.00442428
0.00177497
6.94398e-05
0.00158059
0.00270848
0.00331976
0.00340312
0.00349979
0.00326376
0.00258091
0.00162247
0.000378689
0.00127827
0.00339865
0.0057714
0.00858714
0.0117724
0.0148149
0.00865185
0.00648272
0.00397392
0.00190104
0.000116677
0.0012217
0.00199603
0.0026955
0.00304186
0.00299348
0.00284853
0.00206599
0.00123034
6.51969e-05
0.00128288
0.00311054
0.0054121
0.00809707
0.0107698
0.013261
0.00767029
0.00567777
0.00353144
0.00165633
1.45926e-05
0.00101082
0.00181287
0.0023175
0.00251248
0.00257552
0.00218882
0.00173322
0.00104033
4.16443e-06
0.00131625
0.00286939
0.00485555
0.0068627
0.00945406
0.011484
0.00643608
0.00456563
0.00303371
0.00160211
5.1977e-05
0.000777884
0.00144967
0.0016963
0.00187204
0.00189746
0.00173693
0.00105821
0.000680183
0.000292833
0.00124132
0.00261846
0.00388902
0.00598109
0.00807871
0.00971246
0.00512279
0.00378017
0.00229091
0.00131088
0.000158019
0.000758299
0.000886137
0.00149324
0.00143021
0.00153379
0.00144759
0.000878055
0.000506713
0.000117904
0.000879349
0.00211739
0.00312966
0.00476609
0.00634572
0.00785446
0.00364777
0.00309522
0.00174509
0.000893032
0.00014445
0.000437054
0.000801557
0.000964713
0.00070689
0.00112139
0.00109049
0.00076179
0.000149939
8.69037e-05
0.000737729
0.00149743
0.00223551
0.00369577
0.00457488
0.00590157
0.00229141
0.00180765
0.00085573
0.000472316
7.01739e-05
0.000359905
0.000515972
0.000586288
0.000667553
0.000589085
0.000435608
0.000351201
3.31143e-05
0.000152072
0.000578192
0.000908025
0.00169048
0.00221607
0.00306791
0.00360044
0.000964645
0.000742131
0.000447622
0.000234301
6.90913e-05
2.89767e-06
8.96716e-05
7.52251e-05
0.000164863
0.000283394
0.000260784
0.000222468
0.000196617
0.000105648
0.000219104
0.00030471
0.000510907
0.000824996
0.000840258
0.000988544
0.0156019
0.0128336
0.00995048
0.00738806
0.00543642
0.00370503
0.00258524
0.0019596
0.00158436
0.00113509
0.00164863
0.00231714
0.00351722
0.0050124
0.00651991
0.00876944
0.0112831
0.0141904
0.017665
0.0205002
0.0139791
0.0115995
0.00902874
0.00693083
0.00489125
0.00363424
0.00248873
0.00163432
0.00133895
0.00143743
0.00178637
0.00232106
0.00329331
0.00459756
0.00592142
0.00794396
0.0100812
0.0128383
0.0155547
0.0182678
0.0120333
0.00994321
0.00806604
0.00596938
0.0042576
0.003151
0.00216646
0.00166843
0.00130638
0.00129765
0.00148533
0.00209711
0.00294023
0.00365561
0.00549159
0.00704104
0.00893234
0.0113355
0.0137171
0.0161234
0.0101072
0.00856355
0.00644213
0.0049171
0.00353591
0.00262215
0.00187657
0.00153968
0.000937255
0.00121722
0.00138641
0.00182439
0.0025654
0.00330152
0.00444673
0.00603429
0.00761791
0.00946933
0.011579
0.013324
0.00809529
0.00673927
0.00522824
0.00414701
0.00292804
0.00206519
0.00153524
0.00110171
0.000989187
0.000957306
0.000889804
0.00137647
0.0022255
0.00288147
0.00365115
0.00469382
0.00617685
0.00762383
0.00954739
0.0106346
0.00590166
0.00484189
0.00384273
0.00325413
0.00228429
0.00162164
0.00123088
0.000986184
0.000740779
0.000705541
0.000810686
0.00132865
0.00145366
0.00210173
0.0027632
0.00349491
0.00445736
0.00548596
0.00694136
0.00799932
0.00372169
0.00291597
0.0024256
0.00185083
0.0014411
0.000873978
0.000803598
0.000527887
0.00067223
0.0004377
0.000248836
0.000812962
0.00104605
0.00126846
0.00158772
0.00237157
0.00285507
0.0035593
0.00423219
0.00480639
0.00120351
0.000969422
0.00111956
0.000654923
0.000429894
0.000193475
0.000190066
0.000225018
4.51346e-05
0.000130824
0.000190462
0.000137695
0.000315477
0.000445453
0.000599363
0.000597476
0.0010559
0.00119547
0.00147725
0.00186068
0.0221627
0.0195685
0.016283
0.0137683
0.0114398
0.00962219
0.00837986
0.00760528
0.00718343
0.00693868
0.00741675
0.00807555
0.00907116
0.0106154
0.0124714
0.0146062
0.0174027
0.0203784
0.0237581
0.0268787
0.0197776
0.0171716
0.0147482
0.0124402
0.0102698
0.00884214
0.00744997
0.00672035
0.00646763
0.00639521
0.00682088
0.00724427
0.00819097
0.00958594
0.0112528
0.0133286
0.0157966
0.0183234
0.0212449
0.0241078
0.0170363
0.0149364
0.0125796
0.0107267
0.00898997
0.00756257
0.00675959
0.0060233
0.00589898
0.0056278
0.00591774
0.00647834
0.00718141
0.00840544
0.00988694
0.0114743
0.0135172
0.0162455
0.0185359
0.0209014
0.0143759
0.0125456
0.0106921
0.00886236
0.00768139
0.00653871
0.00582179
0.00500008
0.00479983
0.00479572
0.00501365
0.00566932
0.00595359
0.00719316
0.00842596
0.00974524
0.0116544
0.0136222
0.015616
0.0174865
0.0115708
0.0100853
0.00872329
0.00706047
0.0060061
0.00524024
0.00463297