/*--------------------------------*- C++ -*----------------------------------*\
| =========                 |                                                 |
| \\      /  F ield         | OpenFOAM: The Open Source CFD Toolbox           |
|  \\    /   O peration     | Version:  2212                                  |
|   \\  /    A nd           | Website:  www.openfoam.com                      |
|    \\/     M anipulation  |                                                 |
\*---------------------------------------------------------------------------*/
FoamFile
{
    version     2.0;
    format      ascii;
    arch        "LSB;label=32;scalar=64";
    class       volScalarField;
    location    "0";
    object      T;
}
// * * * * * * * * * * * * * * * * * * * * * * * * * * * * * * * * * * * * * //

dimensions      [0 0 0 1 0 0 0];

internalField   nonuniform List<scalar> 
3200
(
346.184
346.762
348.062
348.93
349.484
350.065
350.508
350.958
351.156
350.933
350.865
350.55
350.06
349.602
348.772
348.006
347.059
346.172
345.187
343.968
340.188
340.655
341.787
342.64
343.063
343.53
343.949
344.367
344.51
344.283
344.239
343.976
343.618
343.197
342.476
341.793
340.969
340.193
339.344
338.292
334.153
334.556
335.494
336.242
336.554
336.961
337.277
337.677
337.772
337.571
337.587
337.33
337.08
336.724
336.118
335.539
334.789
334.141
333.442
332.507
328.052
328.378
329.094
329.826
330.013
330.288
330.592
330.937
330.994
330.815
330.885
330.656
330.385
330.141
329.645
329.218
328.56
327.991
327.474
326.701
321.892
322.124
322.663
323.297
323.394
323.608
323.834
324.122
324.194
324.012
324.098
323.921
323.663
323.47
323.129
322.802
322.268
321.781
321.408
320.8
315.654
315.819
316.167
316.691
316.748
316.884
317.063
317.278
317.346
317.193
317.243
317.129
316.885
316.786
316.594
316.331
315.97
315.58
315.333
314.903
309.388
309.484
309.715
310.066
310.086
310.172
310.252
310.392
310.466
310.365
310.382
310.303
310.133
310.046
309.978
309.841
309.588
309.35
309.2
308.978
303.137
303.191
303.267
303.366
303.358
303.427
303.427
303.489
303.518
303.478
303.487
303.441
303.386
303.355
303.371
303.291
303.214
303.128
303.1
303.011
347.281
348.194
349.113
349.96
350.702
351.23
351.782
352.14
352.209
352.026
352.001
351.853
351.457
350.772
350.129
349.323
348.221
347.255
346.207
344.963
341.106
341.872
342.692
343.418
344.066
344.519
345.003
345.29
345.417
345.2
345.212
345.058
344.767
344.114
343.562
342.868
341.927
341.124
340.19
339.134
334.837
335.497
336.179
336.86
337.357
337.748
338.203
338.442
338.621
338.343
338.31
338.226
337.99
337.419
336.94
336.407
335.555
334.918
334.091
333.249
328.578
329.102
329.64
330.246
330.629
330.955
331.377
331.561
331.702
331.446
331.438
331.341
331.173
330.653
330.279
329.869
329.148
328.645
327.927
327.262
322.277
322.661
323.114
323.634
323.87
324.115
324.466
324.554
324.715
324.499
324.514
324.434
324.293
323.846
323.587
323.264
322.696
322.356
321.728
321.263
315.953
316.211
316.55
316.931
317.089
317.231
317.52
317.546
317.68
317.561
317.551
317.489
317.326
317.02
316.86
316.655
316.198
316
315.54
315.211
309.604
309.746
309.937
310.176
310.307
310.385
310.544
310.542
310.628
310.602
310.546
310.487
310.347
310.216
310.114
310.043
309.722
309.616
309.346
309.134
303.23
303.275
303.309
303.411
303.466
303.486
303.534
303.522
303.555
303.577
303.529
303.51
303.451
303.428
303.387
303.385
303.276
303.233
303.128
303.071
348.8
349.51
350.569
351.351
352.165
352.917
353.286
353.824
353.922
353.802
353.682
353.396
353.107
352.232
351.69
350.766
349.939
348.783
347.484
346.397
342.357
342.964
343.92
344.553
345.306
345.985
346.267
346.763
346.787
346.749
346.646
346.396
346.148
345.372
344.903
344.064
343.37
342.398
341.254
340.334
335.879
336.379
337.26
337.755
338.38
338.999
339.213
339.615
339.663
339.623
339.561
339.312
339.145
338.506
338.078
337.296
336.772
335.961
334.926
334.262
329.387
329.782
330.539
330.933
331.439
331.948
332.128
332.434
332.521
332.463
332.436
332.218
332.077
331.595
331.221
330.541
330.114
329.493
328.615
328.127
322.883
323.176
323.783
324.1
324.497
324.867
325.04
325.264
325.348
325.307
325.293
325.088
324.957
324.596
324.349
323.769
323.456
322.984
322.308
321.894
316.379
316.545
317.002
317.243
317.52
317.791
317.903
318.054
318.174
318.082
318.127
317.967
317.839
317.618
317.443
316.979
316.785
316.452
315.997
315.653
309.827
309.93
310.206
310.351
310.551
310.724
310.764
310.872
310.962
310.824
310.928
310.818
310.743
310.595
310.446
310.191
310.123
309.881
309.648
309.405
303.272
303.334
303.429
303.474
303.562
303.612
303.61
303.662
303.673
303.61
303.681
303.646
303.61
303.544
303.486
303.425
303.393
303.307
303.242
303.13
350.264
351.167
352.106
353.101
354.028
354.705
354.742
355.492
355.639
355.748
355.275
355.237
354.836
354.105
353.169
352.557
351.609
350.348
348.963
348.081
343.634
344.435
345.24
346.112
346.892
347.475
347.519
348.183
348.312
348.394
347.972
347.999
347.656
346.975
346.157
345.65
344.83
343.736
342.542
341.747
336.983
337.674
338.336
339.106
339.728
340.256
340.254
340.827
340.976
340.998
340.647
340.685
340.437
339.83
339.17
338.697
338.062
337.084
336.041
335.42
330.341
330.823
331.441
332.01
332.585
332.964
333.014
333.461
333.627
333.56
333.302
333.322
333.14
332.649
332.138
331.682
331.218
330.409
329.583
329.043
323.6
323.968
324.503
324.96
325.365
325.665
325.739
326.059
326.2
326.104
325.921
325.938
325.793
325.397
325.067
324.638
324.315
323.688
323.055
322.588
316.877
317.123
317.543
317.844
318.13
318.371
318.447
318.612
318.789
318.69
318.531
318.539
318.444
318.157
317.915
317.624
317.383
316.983
316.521
316.152
310.117
310.274
310.55
310.685
310.882
311.038
311.1
311.183
311.283
311.238
311.136
311.138
311.065
310.936
310.769
310.586
310.459
310.201
309.944
309.724
303.402
303.433
303.521
303.577
303.641
303.716
303.737
303.753
303.773
303.786
303.727
303.74
303.715
303.671
303.597
303.537
303.521
303.414
303.335
303.246
351.662
352.551
353.698
354.684
355.765
356.182
356.78
357.171
357.291
357.496
357.148
356.856
356.557
355.898
354.855
354.207
353.027
351.95
350.761
349.744
344.907
345.648
346.593
347.443
348.419
348.789
349.296
349.637
349.721
349.884
349.552
349.346
349.101
348.527
347.606
347.107
346.05
345.093
344.095
343.176
338.093
338.749
339.495
340.203
341.012
341.343
341.801
342.066
342.123
342.239
341.949
341.766
341.579
341.131
340.317
339.946
339.053
338.241
337.357
336.549
331.221
331.764
332.351
332.951
333.575
333.902
334.222
334.405
334.517
334.628
334.355
334.221
334.043
333.684
333.026
332.792
331.983
331.344
330.593
329.92
324.299
324.736
325.179
325.7
326.119
326.394
326.667
326.792
326.887
326.959
326.736
326.654
326.494
326.178
325.728
325.665
324.914
324.433
323.835
323.258
317.391
317.688
317.999
318.372
318.671
318.836
319.113
319.177
319.21
319.3
319.115
319.069
318.931
318.72
318.447
318.368
317.813
317.467
317.024
316.656
310.467
310.632
310.845
311.063
311.181
311.303
311.474
311.53
311.537
311.61
311.473
311.444
311.393
311.267
311.119
311.049
310.698
310.487
310.26
309.996
303.509
303.567
303.636
303.719
303.753
303.798
303.838
303.856
303.879
303.9
303.853
303.842
303.827
303.776
303.728
303.702
303.588
303.497
303.455
303.331
353.153
354.151
355.55
356.353
357.38
358.038
358.666
358.967
358.983
359.11
359.012
358.529
358.308
357.65
356.598
355.897
355.039
353.648
352.305
351.411
346.131
347.018
348.211
348.941
349.782
350.358
350.972
351.178
351.174
351.305
351.221
350.802
350.643
350
349.093
348.552
347.824
346.631
345.432
344.678
339.076
339.862
340.882
341.448
342.204
342.663
343.199
343.384
343.369
343.457
343.365
343.047
342.945
342.351
341.591
341.173
340.55
339.561
338.544
337.842
332.014
332.619
333.496
333.923
334.621
334.964
335.358
335.53
335.552
335.572
335.474
335.272
335.208
334.681
334.079
333.767
333.273
332.409
331.587
330.951
324.945
325.365
326.069
326.389
326.944
327.22
327.487
327.663
327.692
327.671
327.588
327.461
327.451
326.989
326.518
326.35
325.96
325.25
324.622
324.112
317.847
318.142
318.651
318.898
319.268
319.422
319.599
319.751
319.794
319.781
319.741
319.605
319.617
319.31
318.956
318.856
318.555
318.057
317.614
317.242
310.735
310.92
311.201
311.377
311.58
311.69
311.739
311.876
311.864
311.871
311.854
311.764
311.778
311.616
311.362
311.348
311.146
310.854
310.585
310.358
303.589
303.664
303.762
303.79
303.898
303.922
303.915
303.996
303.956
303.966
303.989
303.929
303.951
303.869
303.813
303.821
303.736
303.649
303.554
303.469
354.605
355.822
357.075
357.947
359.052
359.561
360.116
360.605
360.87
360.701
360.693
360.325
359.888
359.403
358.194
357.624
356.59
355.191
354.034
352.999
347.383
348.432
349.534
350.308
351.253
351.723
352.162
352.616
352.829
352.705
352.68
352.384
352.012
351.597
350.543
350.061
349.142
347.922
346.932
346.083
340.127
341.046
341.942
342.66
343.415
343.851
344.189
344.618
344.721
344.649
344.639
344.394
344.121
343.746
342.862
342.412
341.627
340.63
339.815
339.05
332.852
333.626
334.338
334.968
335.573
335.943
336.202
336.534
336.641
336.618
336.579
336.337
336.14
335.865
335.12
334.733
334.12
333.343
332.679
331.968
325.592
326.157
326.73
327.239
327.679
328.011
328.153
328.469
328.521
328.513
328.491
328.257
328.15
327.891
327.363
327.076
326.603
325.983
325.43
324.834
318.32
318.653
319.124
319.436
319.806
320.047
320.089
320.332
320.371
320.403
320.388
320.196
320.137
319.914
319.546
319.395
319.037
318.586
318.191
317.708
311.003
311.203
311.471
311.676
311.905
312.072
312.06
312.233
312.231
312.271
312.264
312.136
312.136
311.952
311.744
311.656
311.419
311.187
310.947
310.643
303.709
303.753
303.858
303.932
303.981
304.054
304.041
304.093
304.103
304.114
304.129
304.085
304.062
303.993
303.925
303.913
303.833
303.73
303.678
303.54
356.01
357.124
358.425
359.577
360.436
360.946
361.708
362.195
362.246
362.485
362.241
362.071
361.701
360.998
360.09
359.133
357.925
356.732
355.516
354.394
348.619
349.572
350.709
351.706
352.412
352.877
353.592
353.999
353.993
354.242
354.067
353.891
353.547
352.974
352.197
351.364
350.33
349.219
348.194
347.245
341.213
341.994
342.98
343.827
344.361
344.789
345.439
345.756
345.741
345.949
345.785
345.614
345.409
344.864
344.232
343.581
342.663
341.706
340.896
340.09
333.774
334.418
335.256
335.924
336.332
336.649
337.274
337.504
337.497
337.626
337.518
337.349
337.181
336.748
336.275
335.73
334.964
334.208
333.577
332.86
326.304
326.814
327.47
327.954
328.302
328.494
329.041
329.183
329.19
329.294
329.249
329.068
328.932
328.572
328.245
327.82
327.255
326.686
326.209
325.546
318.815
319.196
319.664
319.967
320.21
320.342
320.786
320.854
320.887
320.928
320.924
320.77
320.71
320.42
320.187
319.894
319.509
319.086
318.739
318.257
311.301
311.558
311.85
312.014
312.109
312.251
312.467
312.504
312.543
312.568
312.592
312.499
312.459
312.273
312.134
311.912
311.716
311.471
311.257
310.958
303.79
303.858
303.972
304.029
304.042
304.105
304.163
304.188
304.206
304.196
304.236
304.191
304.195
304.122
304.071
303.994
303.931
303.846
303.767
303.686
357.691
358.786
359.845
360.843
361.89
362.351
363.329
363.585
363.76
364.193
364.027
363.621
363.112
362.409
361.78
360.595
359.622
358.199
356.92
355.569
350.081
350.988
351.958
352.795
353.711
354.149
354.979
355.195
355.347
355.72
355.585
355.238
354.793
354.145
353.672
352.552
351.746
350.536
349.388
348.292
342.431
343.198
344.025
344.757
345.497
345.942
346.583
346.779
346.846
347.194
347.04
346.78
346.438
345.903
345.452
344.51
343.844
342.845
341.858
341.023
334.789
335.392
336.034
336.721
337.258
337.655
338.172
338.304
338.364
338.66
338.519
338.276
338.05
337.635
337.185
336.471
335.918
335.086
334.32
333.669
327.078
327.565
328.05
328.596
329.027
329.296
329.707
329.844
329.871
330.113
329.981
329.796
329.633
329.331
328.929
328.42
327.971
327.308
326.754
326.245
319.368
319.74
320.065
320.458
320.755
320.934
321.219
321.351
321.369
321.524
321.476
321.282
321.2
321.012
320.672
320.356
319.957
319.512
319.161
318.752
311.634
311.873
312.086
312.296
312.481
312.572
312.728
312.835
312.819
312.931
312.923
312.765
312.729
312.647
312.448
312.242
311.958
311.707
311.527
311.245
303.905
303.999
304.046
304.144
304.181
304.211
304.276
304.305
304.28
304.353
304.333
304.282
304.28
304.235
304.168
304.1
304.014
303.905
303.848
303.774
358.793
360.114
361.178
362.447
363.351
363.934
364.659
364.942
365.514
365.721
365.278
365.108
364.544
363.965
363.07
361.964
361.082
359.288
358.204
356.834
351.039
352.189
353.104
354.178
354.998
355.493
356.072
356.342
356.867
357.037
356.655
356.546
356.039
355.508
354.799
353.719
353.015
351.478
350.542
349.35
343.246
344.226
345.001
345.9
346.557
347.011
347.509
347.712
348.154
348.289
348.023
347.941
347.512
347.067
346.472
345.484
344.922
343.633
342.842
341.895
335.426
336.228
336.818
337.588
338.111
338.551
338.938
339.115
339.372
339.548
339.34
339.329
338.906
338.582
338.098
337.24
336.787
335.763
335.129
334.354
327.576
328.232
328.62
329.275
329.645
330.064
330.318
330.504
330.607
330.78
330.627
330.629
330.268
330.019
329.684
328.999
328.692
327.873
327.383
326.811
319.743
320.202
320.454
320.951
321.185
321.515
321.696
321.829
321.897
321.998
321.876
321.918
321.64
321.418
321.179
320.72
320.531
319.942
319.612
319.204
311.849
312.151
312.251
312.57
312.772
312.916
313.056
313.113
313.184
313.228
313.129
313.161
312.998
312.859
312.733
312.432
312.353
311.995
311.782
311.552
303.975
304.075
304.104
304.228
304.292
304.328
304.401
304.41
304.45
304.452
304.393
304.431
304.362
304.293
304.267
304.16
304.178
304.01
303.954
303.868
359.879
361.131
362.243
363.619
364.612
365.313
365.86
366.41
366.797
366.9
366.774
366.547
365.863
365.362
364.286
363.388
362.238
360.607
359.354
358.162
351.965
353.104
354.019
355.248
356.044
356.674
357.167
357.606
357.988
358.086
357.955
357.733
357.156
356.738
355.828
355.011
354.015
352.607
351.526
350.576
344.01
344.986
345.787
346.83
347.461
348.018
348.425
348.796
349.101
349.205
349.114
348.898
348.435
348.058
347.297
346.6
345.74
344.559
343.675
342.915
336.048
336.842
337.499
338.356
338.838
339.32
339.644
339.95
340.226
340.317
340.249
340.052
339.715
339.343
338.73
338.215
337.479
336.466
335.832
335.171
328.099
328.692
329.148
329.843
330.202
330.613
330.882
331.083
331.286
331.358
331.341
331.164
330.95
330.629
330.146
329.75
329.207
328.384
327.936
327.369
320.115
320.532
320.848
321.334
321.571
321.889
322.085
322.218
322.356
322.412
322.416
322.289
322.147
321.904
321.553
321.252
320.892
320.315
320.002
319.597
312.104
312.32
312.505
312.796
312.98
313.136
313.294
313.349
313.444
313.479
313.463
313.412
313.309
313.172
312.963
312.759
312.568
312.238
312.034
311.768
304.042
304.117
304.186
304.291
304.347
304.404
304.451
304.489
304.502
304.527
304.505
304.484
304.477
304.423
304.349
304.27
304.225
304.114
304.021
303.929
360.725
362.188
363.488
364.61
365.886
366.698
367.119
367.613
368.03
368.164
367.811
367.708
367.299
366.488
365.399
364.428
363.404
361.836
360.59
359.356
352.699
353.971
355.144
356.101
357.22
357.841
358.267
358.678
359.088
359.172
358.828
358.761
358.417
357.685
356.75
355.874
355.041
353.689
352.601
351.614
344.702
345.706
346.742
347.547
348.48
348.955
349.372
349.703
350.055
350.103
349.853
349.77
349.511
348.866
348.051
347.339
346.629
345.482
344.596
343.798
336.642
337.455
338.301
338.952
339.678
340.059
340.457
340.703
341.014
341.038
340.864
340.759
340.547
340.059
339.334
338.812
338.182
337.233
336.54
335.925
328.56
329.142
329.812
330.322
330.894
331.147
331.502
331.691
331.966
331.939
331.83
331.733
331.554
331.225
330.626
330.213
329.718
328.984
328.418
327.982
320.402
320.846
321.291
321.667
322.092
322.233
322.555
322.675
322.859
322.811
322.758
322.661
322.531
322.322
321.926
321.601
321.192
320.752
320.303
319.983
312.272
312.552
312.774
313.003
313.298
313.345
313.599
313.657
313.729
313.685
313.688
313.629
313.527
313.417
313.166
313
312.74
312.487
312.184
312.016
304.116
304.203
304.292
304.365
304.452
304.485
304.547
304.589
304.608
304.588
304.574
304.556
304.54
304.494
304.398
304.356
304.264
304.196
304.1
304.045
361.857
363.188
364.672
365.741
366.748
367.634
368.209
368.877
369.127
369.322
369.094
368.81
368.34
367.634
366.456
365.5
364.271
363.002
361.643
360.248
353.684
354.832
356.154
357.058
357.918
358.682
359.173
359.773
360.035
360.159
359.97
359.706
359.297
358.658
357.663
356.858
355.779
354.705
353.518
352.282
345.492
346.449
347.566
348.309
349.026
349.706
350.14
350.636
350.931
350.941
350.824
350.568
350.211
349.661
348.807
348.186
347.298
346.37
345.343
344.313
337.268
338.044
338.943
339.573
340.15
340.707
341.117
341.428
341.735
341.722
341.667
341.389
341.106
340.679
339.946
339.483
338.731
337.967
337.182
336.33
329.038
329.579
330.291
330.835
331.257
331.726
332.026
332.237
332.505
332.472
332.441
332.194
331.979
331.679
331.041
330.721
330.159
329.559
328.969
328.304
320.804
321.133
321.635
322.061
322.333
322.682
322.907
323.038
323.201
323.222
323.184
323.011
322.874
322.644
322.18
321.964
321.566
321.16
320.744
320.256
312.499
312.722
312.992
313.271
313.424
313.641
313.752
313.854
313.955
313.937
313.925
313.815
313.764
313.628
313.317
313.16
312.951
312.71
312.5
312.176
304.207
304.264
304.354
304.462
304.522
304.568
304.602
304.643
304.705
304.669
304.678
304.624
304.616
304.563
304.447
304.409
304.336
304.244
304.199
304.083
362.863
363.862
365.415
366.679
367.627
368.607
369.272
369.861
370.145
370.175
370.114
369.887
369.266
368.775
367.442
366.348
365.087
364.005
362.664
361.056
354.529
355.44
356.735
357.861
358.702
359.514
360.115
360.623
360.903
360.905
360.871
360.671
360.124
359.69
358.472
357.573
356.434
355.567
354.416
353.038
346.18
346.935
348.038
348.999
349.731
350.405
350.917
351.352
351.65
351.616
351.587
351.378
350.982
350.566
349.512
348.825
347.775
347.094
346.124
344.955
337.808
338.44
339.305
340.134
340.749
341.332
341.71
342.091
342.312
342.253
342.252
342.023
341.764
341.347
340.523
340.025
339.099
338.57
337.797
336.841
329.406
329.906
330.597
331.238
331.742
332.192
332.488
332.769
332.964
332.849
332.907
332.704
332.531
332.174
331.518
331.183
330.437
330.044
329.43
328.697
320.995
321.383
321.889
322.335
322.732
323.026
323.238
323.41
323.547
323.509
323.537
323.394
323.287
322.987
322.519
322.298
321.82
321.468
321.046
320.534
312.607
312.848
313.164
313.408
313.691
313.832
313.953
314.085
314.135
314.142
314.114
314.062
314.018
313.82
313.566
313.427
313.114
312.877
312.671
312.316
304.224
304.287
304.431
304.468
304.59
304.644
304.669
304.722
304.734
304.754
304.716
304.723
304.693
304.612
304.539
304.512
304.418
304.326
304.256
304.124
363.487
364.772
366
367.428
368.502
369.572
370.246
370.638
371.094
371.068
371.107
370.66
370.17
369.562
368.474
367.279
365.93
365.055
363.413
361.987
355.118
356.213
357.274
358.473
359.426
360.369
360.952
361.291
361.675
361.68
361.695
361.309
360.887
360.32
359.395
358.387
357.231
356.467
355.039
353.839
346.691
347.621
348.499
349.532
350.33
351.113
351.599
351.87
352.216
352.258
352.3
351.935
351.548
351.07
350.293
349.516
348.49
347.812
346.63
345.636
338.256
339.009
339.703
340.592
341.257
341.907
342.259
342.454
342.781
342.828
342.831
342.547
342.24
341.815
341.172
340.525
339.728
339.153
338.23
337.398
329.793
330.353
330.884
331.612
332.129
332.646
332.865
333.053
333.338
333.358
333.305
333.107
332.887
332.54
332.018
331.55
330.929
330.515
329.789
329.092
321.289
321.692
322.061
322.618
322.983
323.332
323.459
323.648
323.836
323.867
323.783
323.695
323.561
323.237
322.841
322.548
322.139
321.826
321.304
320.77
312.754
313.034
313.228
313.595
313.829
314.02
314.059
314.217
314.348
314.333
314.298
314.215
314.145
313.957
313.71
313.578
313.319
313.134
312.802
312.452
304.277
304.359
304.431
304.557
304.651
304.687
304.714
304.763
304.826
304.819
304.788
304.755
304.744
304.668
304.594
304.575
304.468
304.397
304.295
304.178
364.032
365.737
366.779
368.042
369.254
370.184
371.032
371.543
371.753
372.094
371.797
371.621
370.846
370.319
369.251
368.159
366.856
365.76
364.094
362.678
355.591
357.059
357.911
359.039
360.116
360.89
361.58
362.062
362.243
362.602
362.343
362.131
361.489
361.032
360.063
359.166
358.024
357.108
355.641
354.438
347.138
348.361
349.017
350.024
350.905
351.597
352.145
352.58
352.69
353.047
352.804
352.614
352.143
351.728
350.879
350.11
349.177
348.363
347.153
346.113
338.687
339.578
340.135
340.963
341.669
342.291
342.713
343.082
343.131
343.452
343.235
343.066
342.701
342.372
341.705
341.037
340.293
339.617
338.644
337.762
330.167
330.794
331.236
331.899
332.406
332.932
333.275
333.541
333.542
333.768
333.657
333.534
333.278
333.041
332.493
331.951
331.367
330.841
330.136
329.391
321.624
321.983
322.264
322.828
323.126
323.554
323.813
323.966
323.944
324.097
324.087
324
323.788
323.667
323.252
322.843
322.403
322.075
321.598
321.013
313.05
313.207
313.358
313.711
313.877
314.167
314.32
314.406
314.378
314.466
314.464
314.424
314.299
314.225
313.988
313.741
313.446
313.294
312.96
312.65
304.375
304.421
304.472
304.59
304.644
304.748
304.79
304.816
304.831
304.85
304.854
304.836
304.789
304.772
304.703
304.608
304.501
304.45
304.345
304.245
364.901
366.042
367.377
368.753
369.983
371.029
371.64
372.058
372.336
372.835
372.549
372.285
371.706
371.013
369.888
368.787
367.581
366.252
364.686
363.186
356.347
357.326
358.428
359.672
360.728
361.611
362.118
362.509
362.73
363.207
362.962
362.783
362.199
361.673
360.603
359.714
358.646
357.472
356.139
354.889
347.684
348.595
349.461
350.551
351.44
352.175
352.598
352.956
353.088
353.548
353.323
353.176
352.676
352.22
351.306
350.568
349.677
348.638
347.606
346.519
339.036
339.875
340.471
341.413
342.057
342.715
343.047
343.359
343.464
343.854
343.659
343.523
343.123
342.75
342.02
341.398
340.669
339.83
339.019
338.13
330.406
331.065
331.457
332.21
332.736
333.236
333.496
333.751
333.879
334.121
333.972
333.879
333.614
333.286
332.734
332.274
331.639
331.059
330.385
329.693
321.735
322.23
322.48
322.973
323.407
323.766
323.919
324.119
324.264
324.396
324.267
324.223
324.054
323.796
323.404
323.129
322.611
322.266
321.762
321.25
313.073
313.391
313.501
313.771
314.04
314.304
314.371
314.483
314.587
314.647
314.557
314.536
314.472
314.286
314.063
313.894
313.608
313.372
313.113
312.771
304.4
304.49
304.521
304.596
304.705
304.808
304.815
304.85
304.914
304.907
304.9
304.846
304.858
304.796
304.723
304.635
304.569
304.473
304.405
304.282
365.065
366.504
367.949
369.368
370.316
371.379
371.978
372.552
372.875
373.119
373.046
372.752
372.175
371.515
370.474
369.474
368.116
366.717
365.154
363.678
356.486
357.716
358.921
360.156
361.01
361.927
362.393
362.909
363.223
363.409
363.394
363.136
362.666
362.063
361.145
360.251
359.125
357.923
356.592
355.333
347.866
348.906
349.925
350.912
351.678
352.423
352.816
353.259
353.566
353.707
353.715
353.469
353.084
352.586
351.806
351.053
350.07
349.058
348.008
346.97
339.219
340.086
340.887
341.674
342.322
342.951
343.21
343.585
343.885
343.989
343.977
343.784
343.471
343.082
342.424
341.829
340.994
340.178
339.342
338.537
330.522
331.211
331.851
332.434
332.932
333.426
333.6
333.929
334.17
334.217
334.171
334.067
333.845
333.55
333.041
332.579
331.916
331.31
330.647
330.048
321.834
322.293
322.786
323.172
323.547
323.934
323.998
324.243
324.459
324.453
324.379
324.331
324.219
323.983
323.672
323.309
322.862
322.352
321.906
321.551
313.094
313.415
313.711
313.926
314.153
314.404
314.428
314.555
314.719
314.695
314.607
314.619
314.568
314.393
314.239
314.004
313.747
313.404
313.167
312.958
304.385
304.51
304.605
304.65
304.744
304.831
304.843
304.904
304.939
304.923
304.89
304.894
304.893
304.814
304.757
304.687
304.611
304.497
304.405
304.342
365.476
366.65
368.332
369.486
370.535
371.709
372.58
373.089
373.482
373.598
373.337
372.985
372.631
371.995
370.966
369.833
368.359
367.241
365.678
364.2
356.865
357.821
359.247
360.24
361.189
362.224
362.95
363.435
363.752
363.83
363.6
363.324
363.014
362.47
361.584
360.583
359.274
358.354
357.006
355.76
348.164
348.974
350.162
350.983
351.828
352.714
353.335
353.709
353.976
354.072
353.836
353.63
353.382
352.931
352.15
351.302
350.195
349.416
348.299
347.288
339.419
340.093
341.068
341.749
342.454
343.167
343.68
343.952
344.174
344.291
344.069
343.881
343.644
343.347
342.733
342.033
341.085
340.45
339.585
338.766
330.644
331.203
331.944
332.489
333.056
333.617
333.998
334.218
334.391
334.483
334.333
334.109
333.957
333.791
333.274
332.706
332
331.477
330.84
330.188
321.868
322.274
322.843
323.224
323.646
324.098
324.347
324.458
324.611
324.662
324.574
324.316
324.235
324.178
323.798
323.393
322.898
322.466
322.063
321.575
313.158
313.383
313.705
313.976
314.197
314.523
314.624
314.674
314.786
314.803
314.784
314.597
314.526
314.519
314.331
314.042
313.722
313.472
313.279
312.98
304.41
304.484
304.598
304.688
304.761
304.898
304.911
304.918
304.952
304.934
304.975
304.896
304.878
304.856
304.792
304.702
304.589
304.524
304.46
304.342
365.757
366.776
368.394
369.636
370.873
371.999
372.832
373.526
373.716
373.769
373.717
373.207
372.738
372.261
371.338
370.047
368.429
367.244
365.799
364.663
357.049
357.919
359.321
360.414
361.492
362.507
363.194
363.789
363.963
364.052
363.966
363.472
363.094
362.703
361.903
360.753
359.346
358.378
357.16
356.153
348.351
349.066
350.245
351.183
352.106
352.972
353.516
354.011
354.152
354.306
354.215
353.766
353.404
353.148
352.409
351.462
350.241
349.518
348.502
347.604
339.613
340.207
341.165
341.908
342.661
343.372
343.835
344.312
344.319
344.44
344.451
344.051
343.692
343.584
342.864
342.134
341.151
340.602
339.787
338.993
330.839
331.307
332.037
332.618
333.228
333.772
334.177
334.557
334.493
334.566
334.656
334.329
333.991
333.977
333.387
332.808
332.073
331.649
331.016
330.369
322.06
322.401
322.927
323.346
323.763
324.186
324.442
324.719
324.629
324.678
324.78
324.535
324.286
324.313
323.918
323.476
322.948
322.623
322.194
321.735
313.255
313.48
313.795
314.07
314.299
314.526
314.731
314.873
314.8
314.825
314.881
314.715
314.577
314.624
314.362
314.132
313.761
313.585
313.351
313.069
304.436
304.517
304.622
304.735
304.819
304.893
304.946
305.004
304.968
304.967
304.998
304.922
304.883
304.905
304.816
304.725
304.596
304.551
304.481
304.379
)
;

boundaryField
{
    hotSide
    {
        type            fixedGradient;
        gradient        nonuniform List<scalar> 
400
(
471.476
489.361
506.936
524.123
540.843
557.019
572.572
587.427
601.51
614.75
627.079
638.434
648.754
657.987
666.082
672.997
678.695
683.146
686.326
688.22
482.596
501.009
519.108
536.814
554.046
570.722
586.764
602.092
616.63
630.306
643.049
654.793
665.478
675.046
683.446
690.636
696.575
701.233
704.585
706.615
492.382
511.274
529.852
548.031
565.73
582.864
599.353
615.115
630.072
644.149
657.274
669.379
680.401
690.281
698.967
706.414
712.581
717.435
720.953
723.115
500.785
520.106
539.111
557.715
575.832
593.378
610.27
626.423
641.759
656.2
669.672
682.105
693.434
703.6
712.549
720.233
726.612
731.651
735.325
737.615
507.769
527.465
546.844
565.819
584.304
602.213
619.459
635.959
651.63
666.393
680.174
692.9
704.505
714.929
724.115
732.015
738.587
743.796
747.616
750.026
513.31
533.323
553.019
572.311
591.111
609.329
626.88
643.677
659.638
674.681
688.729
701.711
713.557
724.206
733.602
741.694
748.439
753.802
757.755
760.278
517.394
537.665
557.621
577.172
596.229
614.703
632.505
649.549
665.75
681.026
695.3
708.496
720.547
731.389
740.964
749.222
756.118
761.617
765.689
768.314
520.017
540.485
560.639
580.39
599.646
618.319
636.318
653.556
669.947
685.409
699.862
713.231
725.448
736.447
746.169
754.565
761.588
767.203
771.379
774.095
521.183
541.785
562.076
581.966
601.362
620.175
638.314
655.692
672.221
687.818
702.404
715.903
728.244
739.363
749.201
757.705
764.83
770.539
774.802
777.597
520.904
541.578
561.943
581.908
601.384
620.278
638.5
655.961
672.574
688.257
702.927
716.51
728.935
740.135
750.053
758.634
765.835
771.616
775.947
778.808
519.2
539.88
560.255
580.235
599.728
618.642
636.888
654.377
671.02
686.736
701.442
715.063
727.528
738.771
748.733
757.361
764.609
770.439
774.82
777.73
516.093
536.716
557.038
576.969
596.417
615.292
633.504
650.962
667.581
683.278
697.97
711.583
724.045
735.291
745.261
753.903
761.17
767.024
771.436
774.381
511.613
532.115
552.321
572.141
591.483
610.259
628.376
645.749
662.289
677.913
692.543
706.101
718.517
729.726
739.668
748.291
755.548
761.403
765.824
768.789
505.795
526.114
546.141
565.787
584.963
603.579
621.545
638.775
655.182
670.683
685.2
698.657
710.984
722.115
731.993
740.565
747.785
753.615
758.025
760.994
498.677
518.751
538.538
557.951
576.9
595.298
613.056
630.088
646.308
661.636
675.992
689.302
701.497
712.512
722.29
730.778
737.932
743.714
748.094
751.049
490.304
510.073
529.56
548.68
567.346
585.469
602.963
619.743
635.725
650.828
664.976
678.096
690.117
700.978
710.621
718.995
726.055
731.765
736.094
739.021
480.724
500.13
519.26
538.031
556.356
574.149
591.326
607.802
623.496
638.328
652.223
665.108
676.917
687.586
697.061
705.29
712.23
717.844
722.104
724.987
469.991
488.979
507.697
526.064
543.995
561.407
578.215
594.338
609.696
624.211
637.809
650.42
661.977
672.42
681.694
689.749
696.543
702.04
706.213
709.038
458.166
476.683
494.938
512.849
530.336
547.316
563.708
579.431
594.408
608.563
621.823
634.12
645.39
655.574
664.617
672.471
679.096
684.456
688.523
691.278
445.313
463.311
481.054
498.463
515.458
531.96
547.89
563.17
577.724
591.478
604.363
616.311
627.26
637.153
645.937
653.566
659.999
665.203
669.15
671.821
)
;
    }
    coldSide
    {
        type            mixed;
        refValue        uniform 300;
        refGradient     uniform 0;
        valueFraction   uniform 0.991591;
        source          uniform 0;
        value           nonuniform List<scalar> 
400
(
300.026
300.027
300.028
300.029
300.03
300.03
300.031
300.032
300.033
300.033
300.034
300.035
300.035
300.036
300.036
300.037
300.037
300.037
300.037
300.037
300.027
300.028
300.028
300.029
300.03
300.031
300.032
300.032
300.034
300.034
300.035
300.035
300.036
300.036
300.037
300.037
300.038
300.038