/*--------------------------------*- C++ -*----------------------------------*\
| =========                 |                                                 |
| \\      /  F ield         | OpenFOAM: The Open Source CFD Toolbox           |
|  \\    /   O peration     | Version:  2212                                  |
|   \\  /    A nd           | Website:  www.openfoam.com                      |
|    \\/     M anipulation  |                                                 |
\*---------------------------------------------------------------------------*/
FoamFile
{
    version     2.0;
    format      ascii;
    arch        "LSB;label=32;scalar=64";
    class       volScalarField;
    location    "./ITHACAoutput/true/19.3";
    object      error;
}
// * * * * * * * * * * * * * * * * * * * * * * * * * * * * * * * * * * * * * //

dimensions      [0 0 0 1 0 0 0];

internalField   nonuniform List<scalar> 
3200
(
4.49228
5.0418
5.1607
4.03934
6.37913
5.18156
5.84602
4.83706
3.26748
6.31985
5.84661
4.71605
7.81734
7.8322
4.16925
5.09539
5.39856
5.51865
7.65491
6.51251
5.33672
2.58875
4.85583
3.10213
3.11418
4.06401
4.73019
5.03935
4.75172
4.49414
5.31085
4.70136
4.77992
3.45211
5.15144
3.65677
2.59438
5.38253
3.20629
7.22753
5.63573
3.73188
3.06131
4.7685
0.372643
1.62951
4.97895
2.72211
3.52995
3.47584
5.69774
6.06519
3.5157
2.89426
2.15156
3.49984
2.59314
3.37892
2.4143
4.24661
2.5644
2.46911
3.18847
3.5756
2.65424
1.53586
2.70958
2.09431
5.15754
4.09439
2.73162
1.64885
5.05774
3.39426
1.56657
2.8463
3.64812
4.59857
3.02335
1.22602
1.92
0.136193
2.79753
0.78084
2.13229
2.41876
1.55045
3.64048
2.01705
2.5056
3.59974
-0.242194
3.7974
2.28585
3.46663
3.54331
2.11011
4.70645
4.67533
2.24709
2.55924
4.33837
1.87354
2.0197
-0.114835
0.194356
2.97488
1.75971
2.53648
3.28983
3.45861
2.13656
1.94667
2.72478
1.81469
-0.147366
2.00145
0.913308
1.75543
-0.117591
1.71806
-0.611075
0.359336
0.769234
1.98742
1.56671
0.69878
0.507296
-0.252998
-1.17148
0.813625
-0.909735
-0.0614703
0.73948
2.98965
1.91987
-0.71599
0.249438
0.754605
0.663744
1.07884
1.75767
-0.869703
1.68973
-0.793174
0.184299
0.175041
1.04735
1.60863
0.148905
1.52616
-0.111654
-0.137976
-0.494622
0.921113
1.33334
0.485867
0.915956
0.409467
3.06235
3.00627
5.27923
5.94241
3.44222
5.32583
3.6665
3.57201
5.13048
4.27283
4.36089
5.06331
5.69253
4.18867
6.29962
4.0664
5.74038
4.8609
6.21633
4.94117
3.32798
3.10633
0.631083
4.80156
0.627993
4.49377
0.941294
4.49233
0.0760474
2.40589
-0.34139
-0.0599856
5.17085
0.322103
4.05035
-0.188988
5.18101
0.772303
4.19207
-0.7442
5.57736
4.70968
2.35267
1.47197
4.74151
4.59931
1.47092
3.54047
3.29793
2.23377
3.91738
4.0096
6.33464
2.95645
4.01377
2.3341
2.36297
4.35669
3.58544
2.21947
1.04278
0.653859
2.40555
1.45064
1.2347
0.419407
1.69618
2.23655
1.86397
2.80618
2.79933
3.69406
4.26697
1.54624
3.7522
0.647808
3.38178
3.16108
3.01223
3.0951
3.19902
0.599191
-0.276406
0.610548
2.62897
2.68014
0.135679
1.684
2.20191
0.878737
1.7283
1.8133
-1.11366
1.08166
0.995777
1.36983
0.898843
1.69587
2.78931
2.83386
2.9487
-0.603922
2.31412
-0.4739
1.87493
-0.409614
0.323171
0.911837
0.912077
-1.01974
-0.241382
-0.371665
0.45424
1.17644
0.898026
2.47165
1.02952
-0.599012
2.26397
2.25772
0.242875
0.533612
0.185509
1.37389
1.57209
-0.277027
2.24554
-0.897021
-0.671034
0.654486
1.18158
0.955966
0.272244
3.64332
1.13184
-1.36046
1.96521
0.901143
-0.524577
-0.0825001
0.278401
3.39537
0.205837
0.599768
-0.94031
-1.01998
-1.00556
1.28593
-1.19263
0.252894
-0.296179
0.153241
-0.816037
0.333868
1.31231
1.5029
-1.54972
1.66373
1.22887
-2.35256
-1.42463
2.4434
2.40275
3.20132
4.82273
2.66245
-0.230236
1.60023
2.57605
4.90465
3.10354
3.68648
5.49267
5.04324
3.54012
2.55107
5.05804
5.36122
4.99896
5.15435
2.15386
1.06524
2.22405
3.31426
1.29349
3.94196
0.100812
2.54372
3.26727
2.56529
3.40037
2.68192
1.86445
1.70651
3.09761
0.917009
4.44862
2.73786
2.25293
2.10117
0.489755
1.92909
1.37088
2.3405
0.767774
1.7509
1.43392
1.64865
3.31083
2.81191
4.33938
1.85294
1.96504
1.85366
3.89026
3.56553
2.10626
3.56928
3.8341
3.38216
2.21804
1.66325
1.61735
2.51536
2.45225
1.47142
1.29404
1.94813
-0.48704
3.09934
1.67045
2.61157
4.14861
2.80482
1.4373
1.49959
2.40379
2.36124
2.70729
3.04169
4.11974
0.886999
1.9674
4.14142
0.90289
0.980742
1.16104
-0.338408
4.09388
0.88741
2.42648
2.97172
3.10684
2.0385
1.95719
1.24392
3.49916
0.725869
2.11157
1.71376
2.19598
1.82093
0.246723
1.36703
-0.745519
0.128906
1.56188
1.80023
-0.62769
1.14508
1.19749
1.97976
2.63163
-0.500494
1.6849
1.31787
2.24276
0.768026
3.13125
0.658709
0.58184
-0.420114
-0.68634
-0.459928
1.64625
-0.680382
0.79556
0.343064
0.0404551
-0.718886
0.546251
-2.1913
2.48046
-0.333163
-0.380941
1.85852
0.911214
1.56146
0.699625
-0.00740247
1.92826
2.32368
-0.248337
1.47525
2.29803
0.277429
-0.09168
0.365462
-1.21046
-1.57381
1.58074
0.726596
-0.643091
0.278596
0.545514
2.13361
0.217252
0.696467
-0.919024
-0.767395
-0.691
2.61788
1.73677
1.68537
0.621908
2.63392
1.84322
3.19537
4.84288
1.35398
1.28975
4.31614
0.521238
5.38059
3.92051
1.2009
1.98497
2.63884
2.50701
3.92403
1.30219
0.834169
-0.996659
2.39817
0.571899
1.88712
0.0922089
2.95048
0.394218
2.67878
0.41432
-0.188546
4.44155
0.0516145
2.56947
-0.214219
2.563
0.350577
3.62467
0.811868
3.24697
1.67787
0.915829
3.67246
0.696285
2.9933
0.280875
-1.45957
3.47585
2.04999
2.61846
3.29325
2.94674
1.08456
2.68322
3.59262
2.37876
2.09406
6.44336
2.54676
2.16157
2.64094
1.32663
0.74653
0.49768
0.681204
0.0304194
1.48178
2.37425
2.69977
0.946048
1.85496
2.3973
1.5373
1.76553
2.74767
3.67258
1.43459
3.02885
1.60867
0.51008
1.91072
2.23438
0.177329
0.094582
1.22971
2.12515
0.684549
2.44705
1.54469
2.36061
2.57686
0.000577136
4.0662
1.56468
1.58566
1.18194
1.91036
3.18356
0.287546
2.05054
1.12677
-0.700629
-0.954224
0.786249
0.946331
0.554656
1.03048
-1.47749
-0.336214
1.20762
2.34297
1.6936
2.09157
0.678213
3.2681
0.607663
0.581275
2.41905
2.52663
1.3256
0.584374
0.395589
0.242458
-0.579015
2.23665
1.51996
1.45168
-0.273959
1.94417
2.16452
2.07189
2.12609
-1.09029
0.576974
0.924058
0.889235
0.840467
-0.163911
-0.0861881
-0.386265
0.0427174
1.56597
-0.582302
3.25006
-0.468524
1.12766
-0.228922
-0.815302
-1.70476
1.61163
1.00737
0.690286
-2.39509
-0.969058
0.359513
-0.122875
1.19399
0.248795
-0.181666
-2.28014
3.00817
1.02658
3.00804
1.54394
2.32887
1.99482
1.91977
2.48483
1.83846
1.35193
0.957087
1.18027
2.79366
1.37208
1.07111
1.77104
2.26234
0.792112
1.28865
2.80058
-0.518297
1.059
-1.76936
1.4268
1.81534
1.77958
0.331483
0.612448
1.14463
2.96615
3.23652
-0.322217
1.64964
0.298504
2.85756
1.69445
1.32011
2.47899
0.906068
1.90902
0.198173
1.672
-0.973313
1.61854
1.22221
0.377757
1.4641
1.30789
1.06317
0.0738814
1.56146
2.48716
1.77916
2.37567
1.15327
-1.27066
2.97755
1.06444
1.97916
1.60388
0.915778
1.47919
2.77344
1.0456
2.27623
2.42675
1.46634
2.11284
0.369646
1.23512
1.4668
1.18192
1.56502
-0.79293
1.7621
2.3146
0.371142
2.1006
3.55412
1.24051
1.28729
-0.0487536
0.604827
0.717575
1.00479
1.42164
-0.935616
0.67343
-1.34501
0.956937
2.30357
-0.363015
0.596125
1.52408
2.01281
0.345633
0.340392
-1.40655
2.05298
1.61106
-1.04971
3.17877
0.472639
-0.218694
0.730943
-0.250201
1.28505
0.630966
0.578133
-0.868453
-0.609612
0.488829
-0.921112
1.24289
0.820583
0.647946
-1.61046
1.73564
0.0981314
0.0963715
-0.608125
-0.362001
3.13612
0.581217
0.0838579
0.379381
0.603618
0.631199
-0.0958819
1.18553
-0.238009
-0.477799
1.57659
-0.533973
1.65642
0.997251
1.40572
1.15076
-1.11444
0.97233
-1.66484
0.553759
2.65192
-1.05182
0.0473861
0.237924
-0.928949
-0.19036
-0.776205
1.79781
0.672913
-0.556624
0.826954
2.16411
-0.250308
-0.323715
-1.79775
-0.381272
0.415118
-2.41244
1.12319
1.04961
-0.24941
1.7326
3.13611
-0.606721
1.07043
0.961704
0.450619
1.56439
3.24151
0.585653
1.71819
1.14568
0.507167
1.22525
1.53048
3.54304
1.26176
3.0886
2.7382
-1.01599
0.35967
1.30379
0.145542
-0.558549
-0.239409
-0.122733
0.658969
0.643622
0.0569596
-0.541172
0.391684
1.61865
-0.586921
0.662037
-0.000747838
2.63918
0.978367
2.76223
1.12775
1.01263
2.02116
0.693905
2.52403
0.653897
0.845523
-1.21419
-0.224099
0.117123
0.0440149
0.917772
-0.308925
0.185214
1.54247
2.99224
1.60217
0.911977
2.48771
2.2191
-0.433798
-0.638632
0.939082
3.86473
-0.888134
-0.325324
-0.629933
1.5094
0.562547
1.08263
0.556153
1.37974
-0.391096
1.53005
1.54673
-0.11076
0.876094
1.71346
0.398872
1.70449
2.55551
0.0119528
-0.407757
-0.193245
1.65976
1.96605
0.904549
-0.821818
0.102502
-1.47605
1.37334
-0.651875
1.91366
0.604094
0.497452
0.284378
1.45607
2.2786
0.494783
-0.48935
-0.983028
0.134302
-0.435408
-2.00082
1.15799
1.57949
-0.557762
-1.16614
0.412107
1.38669
1.59872
0.20077
1.14394
0.822403
-0.498248
1.44688
0.271453
1.93276
0.760668
-2.09087
-0.405253
1.26207
-1.19801
0.207126
0.00382706
0.940869
1.35115
-0.956684
1.09638
-1.17711
0.29919
-0.434679
0.508851
1.07473
-0.324111
-0.0944568
-0.136724
0.0882587
0.704335
1.51122
-0.345091
0.969226
-0.418802
1.50667
0.95219
-0.187612
-1.99873
1.49805
2.10546
-0.62138
-1.52196
1.12137
-1.43178
0.0786649
0.0641194
-1.32081
-1.89947
-1.69481
-0.939897
1.23061
1.55572
0.692509
-1.06486
3.2144
-0.578074
0.282805
-0.292842
-0.387942
0.976396
3.21673
0.200119
-0.48812
1.26485
-0.394752
1.29753
0.689924
-0.509267
1.58868
0.376582
1.3123
-0.509032
1.01723
0.364247
-1.14845
0.308092
3.85182
-0.172628
-1.14762
3.22131
1.73387
-1.65178
0.648793
0.972416
0.595592
1.85237
-0.11213
0.617705
-1.40303
0.626976
-0.0258029
0.916753
-1.61092
-1.2334
-0.10009
0.337349
1.64327
0.955644
-1.23386
-1.31097
0.813771
-0.797369
1.85145
0.945991
-1.29236
0.760808
-1.18019
5.57851
0.726927
0.889145
2.5949
0.867152
-0.0896769
0.0968723
0.0969667
-2.24365
2.0693
2.19943
1.451
2.01663
1.53708
0.798839
0.254945
1.30798
4.09012
2.29547
1.16767
0.871198
0.295731
1.00241
-0.122526
-0.821575
2.17033
-2.21434
0.0145679
0.783272
2.17798
-0.474026
-1.27248
-1.42486
-1.32837
1.60859
-0.147558
0.137962
1.73618
0.764548
0.106058
-0.487752
-0.326778
1.50383
-0.616648
0.0314811
-0.404416
-0.832162
-1.35011
-1.28043
2.11731
-0.121991
-0.739203
1.29779
-0.618405
-0.158332
0.00618119
0.916592
0.426782
0.25424
0.301933
-0.0135548
0.252689
-0.887191
0.655139
0.167427
2.95705
-0.0552694
-0.809828
-1.14244
-0.0214447
0.308737
1.17282
-0.576583
-0.0840107
2.32017
0.779363
0.0769402
-1.00524
-0.463006
-0.722699
0.0636265
-0.859765
-0.140404
1.48095
0.185632
0.55295
0.204282
-0.756073
0.568168
-0.844565
-0.85669
1.32
-0.151471
-1.34885
1.30599
-0.678263
-0.21542
0.71915
1.16266
-0.468147
1.1396
0.433873
-0.471404
-0.186808
-2.51102
-0.168122
1.77077
-1.19818
0.588072
2.16063
0.880469
-0.683774
-0.802021
0.589294
-1.19589
0.163684
-0.187439
1.67216
-0.702038
1.7203
-0.906204
1.26451
0.0822638
0.313142
-0.437872
1.31062
-0.28868
1.12876
1.74501
0.121749
-1.41869
0.553679
0.439012
0.518745
0.237118
-0.111506
0.0665607
2.31456
0.271221
-3.02506
0.338496
0.534793
-0.169717
2.81563
0.0782093
0.558264
-2.40733
0.692467
0.0581808
-1.96374
-0.967015
0.163666
0.168073
-1.03953
1.38962
0.155278
-0.325933
-0.159158
-0.127008
0.0336604
0.570303
-0.141444
1.48837
1.3339
-1.65978
2.07768
0.951103
0.328472
1.36158
1.47346
1.76016
0.155426
-1.1202
1.11074
0.439874
2.28717
-1.03388
1.18144
1.28892
1.03284
2.73753
0.621611
1.6995
0.766753
0.154152
-0.24978
-0.260648
-0.140683
-1.03344
0.502504
-1.89969
-0.345836
0.983763
0.918979
0.640537
1.03552
0.620091
-0.752586
-0.163277
-1.2311
-0.893092
0.87315
1.91721
0.0253646
-2.06971
1.006
2.50874
-1.49009
-0.212567
-2.83312
0.912181
0.809757
-1.04522
-0.506078
-0.0286905
-0.865821
-1.03259
1.18937
-0.693582
0.30061
0.123183
0.304675
0.32512
0.377024
-1.08373
0.0474037
-0.164092
-1.72667
0.847394
-0.584198
0.207189
0.886054
1.01787
0.843807
-0.0840858
1.64426
0.159948
-0.160051
1.08118
-0.362516
0.177913
-0.659581
-1.69871
-1.7329
0.806627
-0.391952
-0.79965
-1.57685
-0.00313442
-2.22864
0.905223
-0.619321
-1.74482
-1.23393
-0.233322
-2.2985
-0.617512
-1.60717
0.979702
0.107729
0.194441
1.82872
0.989888
0.222158
-0.837702
-2.21803
-0.0856707
-0.855285
-1.39269
0.288611
-0.0265759
-2.14948
0.906807
-0.591376
-1.30857
-2.84268
-1.40438
0.247247
-1.00849
-0.429508
-0.808596
-0.0296709
0.305145
-1.73363
-1.7469
-0.852222
-0.952788
0.277552
0.608746
-3.00341
-2.14373
-1.05145
-1.39453
-0.288085
-0.89281
-0.748516
0.993564
-0.192602
-2.42569
-0.403792
-0.778518
-0.852056
-0.143251
0.194587
1.48855
1.53482
-0.278402
-0.942375
-2.99655
-0.88636
-0.101252
0.0226833
-1.81045
-0.454669
0.2847
-1.14751
-0.566956
0.87183
-1.55992
-0.553809
0.429195
1.00176
-0.522741
1.61031
1.14334
1.8734
1.75948
-0.458312
-1.9173
1.48375
-0.0743579
-0.440644
-1.37512
-0.415782
-0.664114
-0.212989
-1.15211
-1.31128
-0.941453
-0.283725
0.33623
1.01631
0.114684
0.673426
0.221342
-0.481448
0.312099
-1.83426
0.111917
0.783542
-0.124267
1.51529
-0.753372
-0.0903491
-3.62447
0.280381
-0.160621
-2.0931
-2.86795
1.50925
1.72624
0.42259
-0.275517
0.40408
0.985774
0.850076
0.00142701
0.313224
-1.01012
1.74885
-0.261526
-1.14343
-1.73218
-0.901531
2.0683
-1.59067
0.101578
-0.588104
-0.528915
2.29372
-0.585596
1.4165
0.156083
1.33015
1.28111
1.4492
-0.175098
-1.56437
0.53425
-2.47073
0.283537
0.167823
-0.361605
-0.701547
-2.12533
-0.0116474
-1.81556
-1.15466
-2.05942
1.51067
-1.4625
0.504129
-1.49464
1.33011
-1.2526
0.13251
1.22979
-1.16592
1.06375
-0.34895
-0.173247
-0.429394
-0.759408
-0.028725
0.0460314
-1.7427
-1.94227
-1.48455
-0.0819886
0.712085
-1.16877
-0.445434
-0.306634
-1.02486
-1.40572
-1.23933
-0.772745
-0.383057
-1.57241
-2.50024
-2.01057
0.179464
-1.27528
-1.82596
-0.619216
-1.46102
0.795576
-2.44737
0.185579
1.22458
-0.869626
-0.765153
1.42743
3.0308
0.287655
1.10635
-1.3745
0.659471
-0.805252
-0.322296
-0.837892
0.695689
-3.89331
-0.0627555
0.321492
-1.60706
-0.639219
-1.81241
0.0524629
1.71253
-0.196024
-0.850218
0.738969
-0.947868
-0.00207035
-1.95065
-0.485492
-1.03749
-1.18485
-1.59759
0.825613
-2.09311
-3.1644
0.190037
1.33877
-1.384
-0.432171
-1.91091
-0.224374
-0.215729
-1.66872
-1.01639
-0.31083
0.832468
1.59979
-4.18459
-0.958334
0.672147
1.14257
-1.83092
-1.27345
-3.00941
0.765312
-1.1681
1.07022
-1.09895
-1.49076
2.22062
-1.96456
0.0774591
0.266819
-1.86971
1.98047
-1.82913
0.250144
0.883133
-2.07847
-0.236153
0.497738
3.57056
0.0461367
-0.723358
-1.06564
0.307061
2.86864
-2.11791
1.57398
-0.967958
-0.824908
-1.51632
0.0709827
1.11191
0.114867
0.407379
2.2709
-0.0435738
0.970233
0.234563
-2.19664
-1.4665
-2.00572
1.79911
-1.54229
-0.827095
-0.46187
-1.19965
-0.39615
0.614386
0.348956
0.621513
-0.0958968
-0.705536
-0.551329
-3.09872
-1.57314
-0.943529
0.158875
-1.45079
-0.289981
-0.745055
0.415825
-1.52856
1.15674
-0.326189
1.97941
1.54998
-2.87224
1.10167
-0.164677
-1.61167
-0.209897
-1.57371
-0.315524
-0.502849
2.07516
-0.00728332
1.27335
1.57724
-0.388713
0.224817
1.654
-1.64243
0.789989
0.487711
0.562539
-1.12972
0.871337
1.54442
-1.63837
-2.74584
1.15934
0.159279
-1.11112
2.87787
-0.0637426
-2.04885
-3.61323
-1.49766
-1.09966
-1.92661
-2.0205
-2.63768
0.329731
0.519673
-2.3586
-1.25054
-2.26987
-2.81267
-1.26016
-2.51659
-2.01757
-1.76124
-0.985042
-1.63979
0.0825681
-0.822214
-3.49844
0.536356
-2.11103
-0.484164
-1.28769
0.173644
-2.3551
-0.336074
-0.265762
0.749076
-0.341241
0.61353
-0.517944
-2.59343
-0.107898
-1.8984
-0.172336
-0.33305
-1.61142
-0.576862
-2.92558
-1.40708
-2.31017
-1.4729
-2.75959
-0.536709
-1.18781
-2.38993
-0.00267037
-2.23533
-1.12011
-2.00141
-0.547286
0.0429668
-2.06774
-0.0412645
-0.04635
-1.61955
-1.83655
-1.53264
-2.32376
0.833939
-3.2128
0.100264
0.597728
-1.98873
-0.257744
0.138241
-2.3486
-1.35835
-0.826734
-2.38914
-0.945565
-1.79735
0.695167
-1.78816
-1.36492
-2.72913
-1.18966
-0.531911
-2.42591
-2.43018
-1.17354
-1.4487
-0.743345
-1.30014
-2.9833
-1.23766
-1.15941
-0.21912
1.04815
0.162843
1.86011
-2.01467
-0.158553
-0.413113
0.72814
-1.26389
-0.986433
-0.403871
-0.603032
-2.79727
-0.0848476
-0.492144
-0.96338
-1.96202
-0.192962
0.0812012
-0.313536
-1.66782
0.726432
-1.24118
-2.39749
-3.20927
-0.674064
-2.33901
0.567573
-0.300071
-1.23876
0.654198
0.438393
-0.879997
-1.05683
1.71894
-1.69267
-1.34756
0.0609663
-0.348399
-1.4421
0.95781
0.85667
-2.10009
1.45513
-0.116187
-1.33159
0.137139
-0.771844
0.0505361
1.40149
-0.699844
-0.787323
0.0798679
-0.8624
-0.562403
1.95339
1.07766
0.0108983
0.741379
-0.242183
0.395143
0.679219
0.392014
0.00207658
0.526322
-0.111104
1.05374
0.098266
-0.937786
-1.20982
-1.72841
-1.5494
-1.46738
-0.721408
-1.82413
-2.19082
-3.09937
-1.78489
-1.43991
-2.25594
-2.59692
-2.18002
-1.69105
-1.70141
-1.4293
-0.686824
-2.11395
-1.12391
-1.52503
-1.8332
-1.76087
-1.36662
0.46624
0.451387
-3.32368
-1.51691
-2.72334
-1.74155
-1.05943
-1.63027
-0.887522
-1.61438
0.0598249
-2.64642
-2.37548
-2.09076
-0.560028
-3.01131
1.45118
-1.682
1.23809
-0.870696
-1.35574
0.147411
-0.611646
-2.32443
-2.80621
1.312
-1.42171
-2.97831
0.360098
-3.64074
-1.69679
2.08464
-1.53611
0.166573
-0.789447
-0.175238
-3.0954
1.27049
-0.552194
-1.44058
0.766243
-3.02109
0.987497
-3.2361
-2.31823
-2.56492
1.24788
-0.898907
-2.36856
-0.0708433
-1.67965
0.28777
-0.125513
1.50809
-2.98966
-1.34966
-0.756781
-0.501242
-0.146446
-1.83661
0.128765
-0.845959
-3.10245
0.106253
-2.47076
-2.62037
-1.9274
-3.84516
-0.678031
-2.29891
-0.718421
-3.57501
-0.329263
-0.0786434
0.464585
1.97793
-0.600659
0.146555
-0.466369
-0.028273
-0.532042
-1.83675
1.41109
-0.0577236
-1.12108
0.0179361
-1.18231
0.535973
0.241216
0.801687
-0.637707
1.98803
-1.2359
-0.171292
-1.98286
0.478036
-0.830767
1.14744
-2.09158
1.02355
0.195852
-0.627809
0.383858
-0.108973
-1.43767
0.652618
-0.598428
-1.3306
-0.223078
0.754731
1.72017
-0.0195047
1.94349
-1.15735
0.53335
0.820185
-2.07666
0.377393
-0.789016
0.882688
-0.94569
0.115279
0.27157
-0.439238
-0.295139
0.309825
-1.30036
0.256266
1.01594
1.31731
-1.44298
-2.0622
1.51959
0.920488
0.287132
-1.70117
0.948189
-3.36494
-1.557
-3.56013
-2.34261
-2.64712
-1.73369
-3.4669
-2.04296
-1.23738
-1.18931
-0.995141
-3.4122
-0.588047
-1.73995
-0.380545
-4.82733
-1.83081
-2.64644
-1.66648
-0.839661
0.519211
-0.410199
-0.469469
-0.531912
-1.85111
-0.404342
-3.10253
-0.574122
-2.43786
0.245772
-0.00105316
-2.06421
-0.0357169
-3.1394
0.112949
-0.87899
-1.12643
0.338815
0.873047
0.0872132
-0.365728
-2.0062
-1.22117
-0.345475
-1.80803
-2.40424
-1.44668
0.126187
-0.0955521
-3.1928
-1.98414
-2.9971
0.155986
-0.339179
-0.667081
-1.08884
-2.87413
-1.95851
-0.638584
-1.08457
0.204597
-2.19206
-0.937948
0.710961
0.568117
-1.28178
-2.59404
-2.02527
-1.88148
-1.61987
-2.71395
-1.84688
-2.07768
-1.96522
-1.17846
0.761528
-3.32216
0.250049
-1.67695
1.23641
-1.72185
-0.593199
-0.984891
0.00453681
0.0963753
-0.821679
-1.81959
-2.12405
-2.95267
-0.215157
-1.31709
-0.648015
0.423905
-3.56055
-0.00580575
0.772466
-0.0811736
-0.120548
-0.272745
-2.20644
-1.9369
-2.99183
-1.02437
-0.0584598
-0.648865
-2.04922
0.746063
-3.00665
-0.579766
1.17735
-0.150932
-2.3867
-1.56588
-2.05285
0.469137
-1.59753
-1.06875
-1.55272
-1.2113
0.0821972
-0.25931
1.65145
-0.667784
-1.56071
0.805165
-1.38083
-0.412303
-1.60722
-1.36598
-0.483515
2.46476
0.209418
-0.670492
-0.323319
-0.439492
-0.701506
-0.404814
0.391738
1.26694
0.452032
0.153293
2.08978
-2.59089
0.286421
-0.438694
0.48877
1.05318
-0.829653
0.0973587
1.6657
0.795059
-0.87433
-1.09195
-3.36371
-0.139213
0.340479
-0.0411463
0.442734
0.604162
1.09393
-2.87133
-3.04483
-2.0585
-2.22074
-0.188775
-2.66404
-1.87555
-2.00787
-3.03326
0.165495
-2.11333
-1.60395
-3.67275
-0.224527
-1.94646
-2.10705
-0.789897
-1.46237
0.845964
0.297659
-1.77064
-1.03465
-1.14566
-1.4299
-0.526171
-0.743511
-4.44226
-2.54941
-3.13951
-1.48554
0.733202
-2.42414
-1.55217
-1.55955
-0.735408
-1.85013
2.55813
-2.66986
-1.57624
1.96501
-0.453833
-2.06711
1.85244
-2.34602
-2.42962
-1.25174
0.327788
-2.01766
-2.937
-1.48276
-0.530224
-2.33729
-0.0706106
-1.99212
-0.125823
-0.750775
-1.45725
-0.201449
0.323183
-1.06426
-1.10168
0.521333
-1.02651
-1.70846
-3.16683
-1.60609
-1.62922
-3.26399
-1.0276
-1.70309
-1.60442
-1.27583
-2.88922
-0.504805
-0.00103419
-1.85441
-1.33501
-0.41624
-0.303653
-0.0436564
-0.500408
0.0227701
-2.63135
-0.677434
-0.358445
-1.35746
-0.673314
-1.22459
0.847635
-0.516977
-0.763999
-1.86085
-1.87647
-0.528823
-3.30269
-1.56474
-0.0186258
-0.0836738
-1.41971
0.567797
-0.627953
0.4783
-0.338916
0.213197
2.52451
-1.39342
-0.827521
0.640918
-0.0895264
-1.33317
-1.78897
0.490409
1.2138
-0.543538
-0.678132
0.440956
0.665073
-0.750129
0.203854
0.59758
-0.674926
0.679433
-1.05311
-0.38678
-1.35442
-1.34009
-2.74383
-1.1074
-2.13452
-1.79658
0.286229
0.237062
-0.545456
0.692446
-0.275802
2.44606
-0.910637
-0.535525
-0.783657
-0.973752
0.366746
-0.498664
-0.707453
-1.20642
-1.63799
0.900805
-1.9664
-0.644814
1.69834
1.13411
-0.957134
1.89356
-1.83976
0.333941
-0.618568
-0.134681
-0.255144
0.689233
-1.80035
-0.956389
-0.924772
1.62392
-1.64278
-1.5044
0.101877
-2.47695
-1.47504
-2.94248
-3.54245
-3.87115
0.00357575
-1.74515
-1.06026
-3.05363
-3.1955
-0.423301
-0.0166803
-1.10178
0.305949
-0.603046
-1.67046
-0.680559
-2.7088
0.441129
-1.07684
-0.237294
-0.83921
-0.265612
-1.31847
0.170791
-0.191609
-3.7123
-0.171719
-1.76247
0.415334
-0.827208
0.207776
-3.32998
-0.280961
-2.55984
-1.98756
-0.550826
-2.77865
-1.93256
-0.911926
-0.257354
0.395476
-1.23005
-2.66437
-2.37652
-1.39849
-2.1017
-1.96381
-1.26012
-3.53295
-2.86082
-0.27701
-1.34782
-2.04561
-0.829843
0.169
-1.28422
-1.13957
0.769002
-1.74591
-2.66685
-0.0669306
-1.23758
-2.44625
-2.10063
-1.04024
-1.74438
-1.29425
-2.6601
-1.15107
-1.04376
-1.37624
-0.265864
-0.693409
3.39712
-1.96582
0.410672
-1.87523
-1.75181
0.683884
-1.80059
-1.24314
-1.19403
-1.10162
-0.0561945
-3.75409
-1.96655
-0.441756
-1.38125
-1.00317
1.2969
-1.14505
0.320361
0.437724
-1.64686
1.37681
-0.281823
-0.437711
-0.419673
-0.340335
-1.07853
-1.7026
-1.28892
-2.94072
1.92306
-2.08861
-0.796994
-0.369479
-0.161509
0.717758
0.763201
-0.775899
-0.105225
-0.367738
0.372156
-0.494154
0.954208
-0.961839
-0.426265
1.19258
-1.75833
-0.443091
-0.128344
-1.30788
-1.84444
-0.458531
-0.611097
0.992622
1.49972
0.655644
3.85603
0.370121
-1.75001
0.981662
-0.182949
-1.39523
1.22331
1.90703
1.80631
-0.829945
-1.69123
-0.827412
-0.877303
-0.961078
1.68857
-1.43799
-0.259838
-0.307451
-1.90672
-0.205854
-1.73247
0.537419
-0.662791
-0.782415
1.50976
-1.29289
-0.601522
-0.695662
-1.51479
-2.48577
-2.00651
-2.22325
-1.86167
-2.17774
-2.25996
-2.08342
-1.21004
-1.27487
-2.43188
-1.54263
0.166979
0.50713
-0.579195
2.50796
1.21875
-0.166229
-1.3498
-2.00294
-1.2218
-0.696858
-2.08729
-2.74685
-2.38437
-2.75573
-1.8367
-2.8995
-3.58851
-4.6435
-2.21696
-2.0086
-2.50337
0.344771
-2.40371
-0.367462
-0.158028
1.9873
-1.03304
-2.53214
0.742542
-2.42996
-1.8519
-1.7212
-0.641142
-0.342871
-2.61149
-0.662948
-0.597654
-1.45522
-0.458967
-1.85364
-0.551704
-0.285924
-1.2415
-0.0987404
0.559085
0.368585
0.936041
-2.43068
-1.87048
-0.546251
-1.41034
-1.44961
0.726042
0.758028
-1.99169
-1.27639
0.517786
1.46945
-2.74111
-2.30684
1.44055
-2.20735
0.326262
-0.0119267
1.12333
1.96982
-0.0955104
-2.24829
-1.97224
-2.148
-0.989906
-1.7301
-1.18818
0.096964
0.803834
-1.42818
-1.25135
-2.97761
-4.14797
-0.542756
1.96268
-0.0564409
-0.0148731
1.33438
0.984067
-0.0216696
2.16203
-1.09814
-0.688361
-0.554012
-5.053
-1.59673
1.33236
-0.173217
-0.529962
-1.16488
-1.07
-0.318343
-0.684806
-2.60775
1.23871
0.0478447
-2.51735
-0.479681
-0.563745
-1.84257
-0.844185
0.0697767
-0.215449
0.396594
0.779894
-1.9716
-0.958906
-0.910841
0.655995
-0.980069
-1.04404
-1.1598
1.15824
-0.00691124
0.772975
0.189056
-0.677677
0.939718
-0.0594817
-2.05922
-1.04687
-0.404929
-0.674594
2.00225
-0.566941
-0.0681851
-0.566745
-0.729625
0.867924
0.415088
0.827609
-0.500284
-0.335809
0.916087
-0.866967
1.72607
0.613079
-0.584643
-0.0122432
0.11258
0.14112
-0.433183
1.05733
-0.934734
-2.96824
-2.1803
-1.58365
-2.77293
-4.28031
-1.68631
-0.498522
-0.443373
-1.03425
0.203495
-1.39063
0.943626
1.81554
-0.0366131
3.04897
1.74647
-0.708596
0.0170616
0.256401
-0.812919
-0.503529
-0.286788
-0.0200414
-2.59151
0.315915
-0.194139
-3.23455
-0.174016
-2.55424
-0.109014
-0.289967
0.360534
0.917576
-0.113703
1.43191
-0.692521
0.0487632
0.271962
-0.301028
-1.75508
-1.78211
-0.754165
-0.562201
-1.44779
-3.99586
1.08983
-3.6249
-0.0174609
-1.7274
0.387824
-1.87487
-0.710957
-2.88976
0.517209
-0.0373191
1.29667
0.0222909
-0.3784
-1.47955
0.134269
-2.76929
-3.32428
-2.92625
-0.920737
-1.3329
-1.48609
-1.82727
-2.92813
-0.155833
-3.52383
0.105255
0.0529459
-0.901799
1.33132
-1.91055
-0.41161
-0.868932
-1.18046
-1.25095
-0.150458
0.870421
-1.31622
-1.92837
-1.59507
-2.69987
-1.8192
-2.14024
-0.756349
-0.66611
0.0493215
0.496778
0.630592
0.90808
0.628587
1.33376
-1.46941
-1.18236
-2.11982
-0.837299
0.486593
-0.58205
0.000135405
0.308278
-0.99332
-0.500375
-0.776304
-0.425342
-0.636877
1.12544
-1.71664
-0.483058
2.11529
1.13237
1.89315
1.10282
-1.66781
-0.181315
0.38144
0.196758
0.404074
-0.340687
-0.307603
-1.31649
-2.28151
-1.01
1.1774
-0.0197807
-0.858529
0.0064278
-1.50644
-0.433151
-0.0909881
-1.24305
-1.76415
-0.293124
-1.31517
0.231546
-0.753353
0.00606915
1.43301
0.762148
-0.916173
-0.108696
0.385006
-0.178102
-0.600448
1.52688
-1.29189
-1.45924
-3.79603
0.661979
1.35053
0.575916
-0.904757
-1.69698
2.26268
0.755257
0.80401
-0.486384
-0.731984
-3.61592
0.0531357
-0.284496
-2.36174
-2.12323
-0.784997
-0.744552
-3.0932
-1.25778
-0.597904
-1.24849
0.645543
-2.16243
2.59498
1.30425
4.02362
-0.786896
-0.334702
-1.14523
0.0052955
-1.9366
-0.0363819
-1.11796
-1.78194
-0.303702
-0.307505
-2.95806
0.502097
-1.85287
-0.479559
-1.04435
-1.87458
0.543296
1.20096
0.0894465
1.5759
1.26756
-1.02359
-0.969743
-1.22239
-0.821338
-1.68129
-0.240929
-1.42382
-1.50227
-0.078954
-0.650983
0.0936443
-2.25463
-0.789938
1.25235
-0.0902187
0.665114
0.605424
0.515018
0.994043
2.12412
2.29805
-0.913367
0.326437
-1.3699
0.0443587
-0.165017
1.45788
-1.24034
-2.41883
0.787257
-0.0413311
-2.79313
-3.8916
1.28694
-2.20791
-0.457798
2.07812
1.69224
-1.48573
0.189544
-0.844072
0.324754
-0.961699
-0.434041
-1.05406
-2.57367
0.127133
-1.06754
1.54308
-1.39484
-2.14739
-1.00603
2.15217
-1.11998
1.93726
-1.91706
0.154057
0.252101
0.688792
-1.70817
-1.0851
-0.716285
-0.288947
-0.978424
-1.90775
-3.19538
2.42956
0.21679
-0.300631
1.88746
0.250964
-1.22657
1.81908
-0.461963
1.09452
1.4421
1.26595
-0.0623211
0.719696
0.914926
-1.08874
-1.30178
-0.773983
-0.611696
1.85545
0.42479
0.0297407
-0.392429
-0.731057
0.291801
-2.68006
-1.83781
-0.575826
0.563998
-0.1291
-0.097076
1.34513
-0.390757
-0.785955
0.727968
0.0343775
-1.63998
0.153946
-0.158891
0.299413
0.275558
0.796197
-2.43778
0.863114
-1.01891
2.84261
1.52772
-0.673692
-2.66229
-0.512362
-1.64619
-0.224129
0.925168
1.76907
0.752743
0.0952109
0.950563
0.0835084
2.8101
-0.774809
-2.00583
-1.13874
-0.421841
-2.30601
-1.42772
-1.05742
-0.214954
-0.230157
-0.0993147
0.347775
1.80324
3.12687
3.59076
1.47989
0.216904
0.237882
-0.496696
0.205984
0.0445018
0.7099
-0.154673
-2.89483
0.133209
-0.183067
-1.23604
0.104937
-0.064925
0.0610496
-1.92833
-0.086318
0.116984
-0.481496
-0.516177
0.777238
-1.62779
1.31492
-0.998121
-1.00717
-0.0274674
-2.29671
-1.76625
-1.3697
-0.666791
-2.54272
-1.00477
0.0613909
0.127159
-0.0790697
-0.38445
0.844104
2.00392
0.875154
1.89726
2.41152
0.166267
-1.73397
-1.26642
1.9338
-0.989105
1.37336
-0.615898
-1.47468
1.52395
-1.8237
-0.921725
-0.763159
0.706395
0.121548
-0.197538
-0.665328
1.19337
-0.583796
2.60111
0.0353494
-0.566671
0.426792
0.196118
0.282794
-1.05448
-0.0972294
-3.12313
-1.43664
1.11242
0.405447
-0.466576
1.34429
0.859237
-2.07201
1.29033
0.54776
0.0676886
1.33863
1.68658
0.290448
0.167084
2.24986
0.777601
-2.02072
-0.846381
0.381602
-0.729641
-1.40763
-1.04589
0.617693
-2.4061
-2.83899
-1.35707
-1.36925
1.8696
-0.546542
0.948053
-0.902508
0.915841
1.83609
1.14024
0.0691805
0.665698
-0.694047
-1.5114
1.6719
-0.57775
-0.0233753
0.428895
-0.64969
-1.91633
0.550374
1.91578
-0.551648
0.628615
-2.32257
-0.184185
1.1071
0.915048
-1.00452
2.82638
-0.689431
-2.07967
0.222861
-1.5215
0.192705
0.305616
0.574529
0.566405
-0.406766
1.04501
0.165283
-1.34099
1.13902
2.44526
-1.18531
0.401068
0.761174
1.26024
2.77491
3.06302
2.41466
2.12969
1.22629
-0.111808
-0.354109
-1.56805
-0.594637
1.09809
-0.260901
0.221511
-3.16187
-0.366175
1.05852
-0.697005
1.87702
0.934033
3.48566
1.63075
-0.0741339
-0.542488
-0.569207
-0.755796
-0.0205226
-1.17369
0.0768042
-1.74073
-0.558198
-0.17747
-0.0296313
-1.58737
-0.00127418
0.562042
-1.68485
-1.08096
0.0761333
0.928628
1.54888
3.63741
2.19859
2.15806
0.495082
0.0843978
-1.73974
1.21452
0.479753
1.50204
1.45618
-0.351818
1.09294
-0.632525
-0.12683
1.57786
-0.580612
0.936118
-0.716482
0.456889
0.936625
0.634698
-2.38161
2.12786
-1.15092
3.01736
-0.661357
1.81741
-0.0349908
-1.31575
-0.277243
-1.5712
-1.9296
-0.856038
-1.7648
2.53722
-1.30108
-1.20635
0.487424
0.711269
2.44012
3.55965
-0.551575
1.00988
-1.27707
1.02679
-1.68282
-0.652208
1.62315
0.361923
0.217134
-2.2157
-0.534069
0.836346
1.49545
-3.27539
1.67772
-1.01656
-0.951496
-1.67612
2.06215
2.19642
-0.783716
-0.911167
2.70577
0.0488627
2.38749
-1.42992
-1.05777
-1.12487
-0.794808
1.43544
0.389147
1.518
-1.31601
-1.23997
0.380134
0.693873
1.32111
0.397536
1.83861
-0.826008
-1.06885
1.15455
1.04514
1.84256
-0.79147
-0.306116
-0.69688
0.380136
-0.200536
-1.9476
-0.5935
-1.24549
-0.396068
-1.61293
-1.63265
-0.454626
-1.31552
-0.547187
-0.999483
1.91793
0.517838
-0.716233
0.903708
-0.768104
1.141
-1.52533
-0.409136
0.0231043
0.229037
-1.19631
-1.84204
-1.01307
-1.19481
0.727924
-0.624804
0.238422
1.14004
-1.3041
0.490473
0.843022
)
;

boundaryField
{
    hotSide
    {
        type            calculated;
        value           nonuniform List<scalar> 
400
(
3.78844
2.29897
1.72919
1.8933
2.26975
0.367494
0.779294
-3.31162
-1.66591
-2.26498
-0.957493
-2.14148
-4.33795
-3.8891
-1.99074
-2.41047
-1.06003
1.03162
0.476152
1.41671
4.33898
4.57294
1.68953
1.01315
0.289101
0.294815
-0.0830556
-0.967898
-3.04547
-2.09787
-2.94191
-2.65945
-2.52942
-4.06207
0.558447
-1.71864
-1.03107
-0.475411
-0.539817
1.70515
4.45896
5.2372
2.48916
0.962787
2.27157
-1.00324