/*--------------------------------*- C++ -*----------------------------------*\
| =========                 |                                                 |
| \\      /  F ield         | OpenFOAM: The Open Source CFD Toolbox           |
|  \\    /   O peration     | Version:  2212                                  |
|   \\  /    A nd           | Website:  www.openfoam.com                      |
|    \\/     M anipulation  |                                                 |
\*---------------------------------------------------------------------------*/
FoamFile
{
    version     2.0;
    format      ascii;
    arch        "LSB;label=32;scalar=64";
    class       volScalarField;
    location    "0";
    object      relativeErrorField;
}
// * * * * * * * * * * * * * * * * * * * * * * * * * * * * * * * * * * * * * //

dimensions      [0 0 0 1 0 0 0];

internalField   nonuniform List<scalar> 
3200
(
0.0140899
0.0158045
0.0161654
0.0126429
0.0199501
0.0161918
0.0182547
0.0150948
0.010192
0.0197085
0.0182327
0.0147105
0.0243952
0.0244567
0.0130285
0.0159353
0.0168972
0.0172867
0.0239957
0.0204263
0.0168749
0.00818171
0.0153371
0.00979132
0.00982235
0.0128093
0.0148994
0.0158646
0.0149532
0.0141397
0.0167092
0.0147948
0.0150479
0.0108737
0.0162367
0.0115337
0.00818869
0.0170007
0.0101334
0.0228536
0.017965
0.0118912
0.00974929
0.0151773
0.00118533
0.00518023
0.0158195
0.00864489
0.0112066
0.0110329
0.0180856
0.0192554
0.0111652
0.00919583
0.00683982
0.0111326
0.00825349
0.0107608
0.00769292
0.0135369
0.00824079
0.00793193
0.0102384
0.0114759
0.00851451
0.00492447
0.00868389
0.00670949
0.0165184
0.0131115
0.0087475
0.00528089
0.0162033
0.0108782
0.00502296
0.00913063
0.0117086
0.0147663
0.00971241
0.00393987
0.00621999
0.000441096
0.0090574
0.00252712
0.00689827
0.00782203
0.00501222
0.0117653
0.00651729
0.00809492
0.0116298
0.000782553
0.0122724
0.00738961
0.0112108
0.0114631
0.00682919
0.0152378
0.0151423
0.00727963
0.00835823
0.0141661
0.0061162
0.00659151
0.000374669
0.000633949
0.00970096
0.00573713
0.00826831
0.0107231
0.0112733
0.00696465
0.00634664
0.00888541
0.00591915
0.000480809
0.00653195
0.0029815
0.00573203
0.000384039
0.00565679
0.00201177
0.00118282
0.00253167
0.00653978
0.00515453
0.00229866
0.00166855
0.000832059
0.00385257
0.00267571
0.00299193
0.000202182
0.00243254
0.00983607
0.0063175
0.00235643
0.000821074
0.0024843
0.00218541
0.00358128
0.00583446
0.00288678
0.00560834
0.00263245
0.000611634
0.00058088
0.00347551
0.00533787
0.0004941
0.00506415
0.0003705
0.000457857
0.00164142
0.00305689
0.0044252
0.00161263
0.0030403
0.0013592
0.0101656
0.00942699
0.0165452
0.0186102
0.0107717
0.0166527
0.0114553
0.011152
0.0160077
0.0133258
0.0135972
0.0157874
0.0177535
0.0130692
0.0196677
0.0127047
0.0179489
0.0152112
0.019468
0.0154857
0.0104358
0.00982041
0.00199416
0.0151629
0.00198179
0.0141713
0.00296636
0.014148
0.000239373
0.00757004
0.00107395
0.000188703
0.0162698
0.00101388
0.012756
0.000595571
0.0163385
0.0024372
0.0132382
0.00235159
0.0176324
0.0150106
0.00749536
0.00468704
0.0150891
0.0146278
0.00467541
0.0112476
0.0104723
0.00709076
0.012433
0.0127256
0.0201084
0.00938791
0.0127511
0.0074191
0.00751527
0.0138645
0.0114167
0.00707098
0.00332351
0.00210091
0.00772674
0.00465749
0.00396228
0.00134525
0.0054379
0.00716711
0.00597094
0.00898669
0.00896347
0.0118284
0.0136648
0.00495314
0.0120241
0.00207685
0.0108471
0.0101442
0.00967121
0.0099416
0.0102788
0.00194092
0.000895121
0.00197654
0.00850762
0.00866984
0.000438733
0.00544351
0.00711555
0.00283907
0.00558323
0.00585783
0.00359807
0.00349543
0.00321884
0.00442952
0.00290762
0.005488
0.00902987
0.00917725
0.00955155
0.0019722
0.00755576
0.00154694
0.00611862
0.00133636
0.00105405
0.00297328
0.00297344
0.00332391
0.000786736
0.00121137
0.00148063
0.00383527
0.00292825
0.00806147
0.00335879
0.00195481
0.00739021
0.00737163
0.000793147
0.00175686
0.000610704
0.00452223
0.00517378
0.000911547
0.0073876
0.00295067
0.00220702
0.0021524
0.00388566
0.00314371
0.000895324
0.0119828
0.00372308
0.0044758
0.00646644
0.00296567
0.00172667
0.000271594
0.000916606
0.0112709
0.000683252
0.00199076
0.00312091
0.00338516
0.00333709
0.00426735
0.00395755
0.000839162
0.000982775
0.00050848
0.0027078
0.00110789
0.0043549
0.00498761
0.00514327
0.00552198
0.00407888
0.00780904
0.00472905
0.00765854
0.00752697
0.0100215
0.0150856
0.00832164
0.000719061
0.00499418
0.00803486
0.0152912
0.00967369
0.0114907
0.0171245
0.0157302
0.0110484
0.00796738
0.0158092
0.01677
0.0156489
0.0161468
0.00675101
0.00336638
0.00702509
0.0104623
0.00408048
0.0124269
0.000317593
0.0080086
0.0102813
0.00806926
0.0106939
0.00843445
0.00586474
0.00536997
0.00975248
0.00288889
0.0140241
0.00863694
0.00711195
0.00663697
0.00154772
0.00614633
0.00436608
0.00745028
0.00244258
0.00556702
0.00455654
0.00523613
0.0105106
0.00892382
0.013769
0.00587947
0.00623619
0.00588464
0.0123555
0.0113302
0.0066969
0.0113552
0.0122047
0.0107717
0.00706698
0.00534276
0.00519365
0.00807386
0.00786757
0.0047185
0.00414772
0.0062415
0.00155983
0.00992355
0.00534773
0.00836059
0.0132831
0.00898294
0.0046049
0.00480653
0.00770839
0.00757557
0.0086899
0.00976746
0.0132336
0.0028726
0.00636997
0.0134044
0.00292128
0.00317196
0.00375371
0.00109372
0.0132274
0.00286665
0.00783752
0.00959865
0.0100362
0.00658642
0.00632553
0.00402166
0.0113171
0.00234853
0.00683445
0.00554875
0.0071118
0.00594565
0.00080545
0.00446171
0.00243258
0.000420494
0.00509356
0.00586939
0.00204608
0.00373207
0.00390256
0.00645193
0.00857703
0.00163146
0.00549337
0.0042978
0.00731595
0.00250602
0.0102198
0.00215042
0.00189981
0.00138306
0.00225926
0.00151374
0.00541737
0.00223858
0.00261712
0.0011284
0.000133047
0.00236403
0.00179624
0.00720568
0.00815689
0.00109569
0.00125298
0.00611389
0.00299806
0.00513835
0.00230265
2.4367e-05
0.00634803
0.00771322
0.000824302
0.00489654
0.00762703
0.000920717
0.000304247
0.00121275
0.00401665
0.00522214
0.00524506
0.00241093
0.00213388
0.000924456
0.00181024
0.00708056
0.000721007
0.00231153
0.00305035
0.0025472
0.00229371
0.00819997
0.00543714
0.00527258
0.00194415
0.0082276
0.00575338
0.00996713
0.0150974
0.00421918
0.00401814
0.0134467
0.00162425
0.0167737
0.012229
0.00374847
0.00620047
0.0082493
0.00784302
0.0122845
0.00407885
0.00263461
0.00314636
0.00756624
0.00180317
0.00594603
0.000290347
0.00928491
0.00123994
0.00842255
0.00130245
0.000592709
0.013965
0.000162345
0.0080859
0.000674532
0.00807563
0.00110535
0.0114359
0.00256299
0.0102551
0.00534328
0.00291539
0.0116847
0.00221415
0.00951312
0.000892162
0.00463375
0.0110302
0.00650337
0.00830546
0.0104458
0.00934823
0.00344172
0.00851854
0.0114115
0.00756003
0.006659
0.0205009
0.00810718
0.00688367
0.00847991
0.0042584
0.0023953
0.00159612
0.00218367
9.74682e-05
0.00474584
0.00760157
0.00864156
0.00302775
0.00593664
0.0076734
0.00492193
0.00565465
0.00880393
0.0117729
0.0046009
0.0097183
0.00516374
0.00163784
0.00618603
0.00723214
0.000573781
0.000305928
0.00397609
0.00686886
0.00221186
0.00790453
0.00498869
0.00762297
0.00832127
1.86391e-06
0.0131347
0.00505567
0.00512514
0.00382161
0.00617912
0.010301
0.000930719
0.00663872
0.00367825
0.00228675
0.00311372
0.00256494
0.00308635
0.00180848
0.00335914
0.00481532
0.0010956
0.00393492
0.00763432
0.00551884
0.00681667
0.00221082
0.0106558
0.00198183
0.00189626
0.00789359
0.00824657
0.00432735
0.00192356
0.001302
0.000797889
0.00190514
0.00735812
0.00499958
0.00477431
0.000900887
0.00639268
0.00711689
0.00681232
0.00699085
0.0035853
0.00189756
0.00303948
0.00292539
0.0027654
0.000539404
0.000283671
0.00127145
0.00014179
0.00519766
0.00193264
0.0107863
0.00155485
0.00374207
0.000759627
0.00270529
0.00565648
0.00534737
0.00334243
0.0022904
0.00794726
0.0032156
0.00119302
0.000407774
0.0039626
0.000825744
0.000602973
0.00756836
0.00941406
0.00321099
0.00940246
0.00482253
0.00726894
0.00622183
0.00598383
0.00774087
0.00572497
0.00420902
0.00297975
0.00367538
0.00870294
0.00427672
0.00334078
0.0055278
0.00706649
0.00247596
0.0040307
0.00876443
0.0016357
0.00334063
0.00557823
0.00449542
0.00571593
0.00559984
0.00104248
0.00192518
0.00359678
0.00931887
0.0101683
0.00101251
0.0051855
0.000938768
0.00899191
0.00533526
0.00415927
0.00781544
0.00285819
0.00602473
0.00063068
0.00531909
0.00309485
0.00514374
0.00388208
0.00119922
0.00464562
0.00414826
0.00337111
0.000234227
0.00495032
0.00788629
0.00564303
0.00753806
0.00366117
0.00403596
0.0094627
0.00338462
0.00629627
0.00510431
0.00293892
0.00474558
0.00889423
0.00335167
0.0072932
0.00777206
0.00469429
0.00676172
0.00118269
0.00395128
0.00469244
0.00378156
0.00500852
0.00253846
0.00564341
0.00741613
0.0011897
0.00673646
0.0114025
0.00398104
0.0041659
0.000157738
0.00195625
0.00232012
0.00324761
0.00459333
0.00302204
0.00217461
0.00434238
0.00308919
0.0074364
0.001172
0.00192498
0.00492278
0.00650342
0.00111713
0.00110058
0.00454933
0.00664225
0.00521368
0.00342567
0.010372
0.00154182
0.000713236
0.00238324
0.000815579
0.00418791
0.0020559
0.0018835
0.00282911
0.0019859
0.00159255
0.00300129
0.00405051
0.00267485
0.00211263
0.00525226
0.0056619
0.000320192
0.000314503
0.00200137
0.00119124
0.0103186
0.00191206
0.000275829
0.00124769
0.00198488
0.00207534
0.000315227
0.00389742
0.000782457
0.00157084
0.00518373
0.00175587
0.00544758
0.0032802
0.00462448
0.00378628
0.0036673
0.00319998
0.00552568
0.00183789
0.00880114
0.00349056
0.000157248
0.000789496
0.00308236
0.000631612
0.00257536
0.00596484
0.00223262
0.00184682
0.00274382
0.00718078
0.000830589
0.00107423
0.00596602
0.00126536
0.00137775
0.008007
0.0035111
0.00327942
0.000778765
0.0054062
0.0097787
0.00189053
0.00333337
0.00299325
0.001402
0.00486632
0.0100833
0.00182213
0.00534777
0.00356771
0.00158032
0.00382045
0.00477551
0.0110629
0.00394229
0.009655
0.00863314
0.00320189
0.00113287
0.00410416
0.000457866
0.00175612
0.000752313
0.000385498
0.00206911
0.00202058
0.000178818
0.00169924
0.00123026
0.00508639
0.00184532
0.00208272
2.35409e-06
0.00831274
0.00308333
0.00870891
0.00358607
0.00321884
0.00642164
0.00220355
0.00801105
0.00207437
0.00268103
0.00384852
0.000710114
0.00037108
0.000139452
0.0029082
0.000979178
0.000587286
0.00489319
0.00949714
0.00508782
0.00289754
0.00790769
0.00705641
0.00139121
0.00204751
0.00300962
0.0123806
0.00284391
0.00104129
0.00201551
0.00482789
0.00179893
0.00346166
0.00177827
0.00441216
0.00125094
0.0048955
0.00495077
0.000354667
0.00280656
0.00549139
0.00127882
0.00546636
0.00826571
3.86521e-05
0.00131818
0.000624507
0.00536201
0.00634943
0.00292041
0.00265264
0.000330792
0.00476306
0.00443163
0.00210373
0.00617686
0.00195037
0.00160654
0.00091871
0.00470557
0.00736615
0.0016
0.00158278
0.00320683
0.000438051
0.00141985
0.00652305
0.00377434
0.00514697
0.00181715
0.00379851
0.0013422
0.00451601
0.00520654
0.00065389
0.00372621
0.00267933
0.0016236
0.00471594
0.000884989
0.00630266
0.00248105
0.00682082
0.0013334
0.00415216
0.00394087
0.000681249
1.25856e-05
0.00309367
0.00444214
0.00314493
0.00360386
0.00386908
0.000983416
0.00142882
0.00167276
0.00353338
0.00106571
0.000310628
0.000449691
0.00029033
0.00231724
0.00497236
0.00114528
0.00321655
0.00138981
0.00499969
0.00315956
0.000622505
0.00663156
0.0049702
0.00698527
0.00206152
0.00504932
0.00372035
0.00475031
0.000261002
0.00021275
0.00438271
0.00630315
0.00562428
0.00311921
0.00408413
0.00485664
0.00216083
0.00332066
0.0100172
0.0018003
0.00088018
0.00091089
0.00120612
0.00303457
0.00999554
0.000621844
0.00151705
0.00393243
0.00122788
0.00403832
0.00214863
0.00158706
0.00495414
0.00117505
0.00409674
0.00160303
0.00320211
0.001146
0.00361121
0.000968213
0.012098
0.000541926
0.00360118
0.0101052
0.00543825
0.00518079
0.00203526
0.00305139
0.00186972
0.00581803
0.000352381
0.00194233
0.00441425
0.00197365
8.12578e-05
0.00291225
0.00511563
0.00391503
0.00031755
0.00106976
0.00520846
0.00302767
0.0039077
0.00415086
0.00257624
0.00252432
0.00586215
0.00299601
0.00409444
0.00241143
0.00374245
0.0176986
0.0023074
0.00282357
0.00824323
0.00277872
0.000287282
0.000310219
0.000310397
0.00717915
0.00661866
0.00703241
0.00463799
0.00644463
0.00491154
0.00255259
0.000814735
0.00418084
0.0130776
0.00734209
0.00373628
0.00278876
0.000947033
0.00321124
0.000392625
0.00265566
0.00701388
0.00715403
4.70506e-05
0.00252897
0.00702993
0.00152961
0.00410512
0.00459596
0.00428435
0.0051881
0.000475956
0.000445077
0.00560238
0.00246776
0.000342434
0.00157532
0.00105574
0.00485994
0.00199326
0.000102651
0.00131848
0.00271245
0.00439972
0.0041717
0.00689674
0.000397284
0.00240693
0.00422522
0.00201323
0.000515452
2.01242e-05
0.00298453
0.00138988
0.00082814
0.000983711
4.41723e-05
0.000823647
0.00289242
0.00213621
0.00055073
0.00972594
0.000181762
0.00266288
0.00375603
7.0495e-05
0.00101479
0.00385456
0.00189484
0.000276076
0.00762455
0.00256124
0.000252869
0.00330412
0.00152204
0.00237605
0.000209217
0.00282747
0.000461799
0.0048714
0.000616016
0.00183489
0.000677854
0.00250871
0.00188513
0.00280208
0.00284218
0.00437914
0.000502495
0.00447467
0.00433248
0.00225009
0.00071466
0.00238587
0.00385745
0.00155327
0.00378127
0.00143969
0.00156429
0.000619917
0.00782656
0.000523776
0.00551359
0.00372847
0.00182881
0.00671519
0.00273501
0.00212307
0.00248942
0.00182882
0.00371132
0.000508065
0.000581985
0.00519427
0.00218192
0.00534987
0.00281989
0.00393728
0.00025629
0.000976029
0.00137705
0.0041201
0.000907051
0.00354473
0.00547704
0.000381935
0.00444841
0.00173542
0.00137563
0.00162524
0.000742894
0.0003494
0.000208625
0.00725749
0.000850835
0.00949471
0.00106301
0.00168036
0.000533528
0.00885481
0.000248159
0.0017708
0.00763274
0.00219455
0.0001843
0.0062178
0.00306064
0.000517836
0.000531653
0.00328786
0.00439513
0.00049118
0.00103125
0.000503741
0.000402145
0.000106627
0.00180739
0.000448467
0.00472106
0.00423248
0.00531357
0.00664963
0.00304296
0.00105052
0.00435294
0.0047089
0.00562325
0.00049641
0.00357707
0.00354651
0.00140448
0.00730346
0.00330207
0.0037744
0.00411914
0.00330197
0.00875515
0.00198878
0.00543926
0.00245465
0.00049791
0.000806621
0.000841489
0.000454054
0.00333443
0.00162087
0.00612606
0.001115
0.00317123
0.00296215
0.00206465
0.00333808
0.00199922
0.00242691
0.000526665
0.00397219
0.00288245
0.00281892
0.00619131
8.19276e-05
0.00674507
0.00327803
0.00817308
0.00485344
0.000692212
0.00922396
0.00296929
0.00263547
0.00340145
0.00164683
9.33618e-05
0.00281763
0.0033607
0.00387158
0.00225814
0.000978918
0.000401223
0.000992582
0.00105939
0.0012287
0.00356364
0.000155864
0.000539473
0.00567591
0.00278519
0.00191989
0.000680821
0.00291129
0.00334417
0.00277219
0.00027625
0.00540215
0.000525538
0.000525926
0.00355315
0.00119151
0.000584836
0.00216845
0.00558537
0.0056983
0.00267648
0.0013005
0.00265314
0.00523159
1.03987e-05
0.00739337
0.00300292
0.00205442
0.00578779
0.00409306
0.000773954
0.00762444
0.00204842
0.0053315
0.0032501
0.000357399
0.000645105
0.00606749
0.00328446
0.000737146
0.00260631
0.00689788
0.000266286
0.00265691
0.00432383
0.000895549
8.2423e-05
0.00666371
0.00281041
0.00183254
0.00405494
0.00881013
0.00435377
0.000766816
0.00312932
0.00133348
0.00251187
9.22243e-05
0.000948974
0.00539379
0.00548516
0.00267494
0.00298919
0.000870327
0.00190791
0.00940863
0.00671265
0.00329121
0.00436399
0.0009014
0.00279355
0.00234238
0.00311002
0.000603094
0.00759881
0.00126555
0.00244122
0.00267316
0.000449634
0.000610991
0.00471691
0.004862
0.000881573
0.00298279
0.00948057
0.00280314
0.000320094
7.1688e-05
0.00572047
0.00143645
0.000899464
0.00362579
0.0017918
0.00275616
0.00493329
0.00175215
0.00135848
0.00317212
0.00165594
0.00510274
0.00365624
0.00598938
0.0056233
0.00146425
0.00612337
0.00473711
0.000237327
0.00140604
0.00438705
0.00132635
0.00211853
0.000679502
0.00367625
0.00418521
0.00300574
0.000906146
0.00107421
0.00324815
0.000366653
0.00215352
0.000714322
0.00155344
0.00100676
0.00591526
0.00036082
0.00252545
0.000400431
0.00488184
0.0024268
0.000291016
0.0116745
0.000903179
0.000517474
0.00674468
0.00924375
0.0048658
0.00556692
0.00136318
0.000888987
0.00130406
0.00321061
0.00276827
4.6462e-06
0.00101962
0.00328754
0.00569072
0.00085085
0.0037195
0.0056341
0.00293217
0.00672699
0.0051738
0.000330428
0.00191334
0.00172107
0.00746513
0.00190626
0.00461199
0.000508285
0.00433224
0.00421112
0.00476322
0.000575448
0.00514059
0.00175535
0.00811698
0.000931395
0.000551236
0.00118766
0.00230411
0.00698027
3.82552e-05
0.00596344
0.00379296
0.00676574
0.00496353
0.00480585
0.00165679
0.00491258
0.00437218
0.00415574
0.000439614
0.00407981
0.00386776
0.00352868
0.00115749
0.000574654
0.00142424
0.00251879
9.52735e-05
0.000152675
0.00578014
0.00644225
0.00492418
0.000271962
0.00236213
0.00387722
0.00147772
0.00101729
0.00340017
0.00436466
0.00384647
0.00239713
0.00118765
0.00487258
0.00774384
0.00622437
0.000555384
0.00394551
0.00564847
0.00191549
0.00452017
0.00246205
0.00757666
0.00057478
0.00379474
0.00269624
0.00237358
0.00443027
0.00941039
0.000901621
0.00346651
0.00430482
0.00206445
0.00251964
0.00100802
0.00261957
0.00217428
0.0121652
0.000196064
0.00100442
0.00502146
0.00199779
0.00566627
0.000164084
0.00535853
0.000613646
0.00266281
0.00231541
0.00297098
6.55064e-06
0.00617011
0.00153509
0.00327917
0.00374344
0.00504555
0.00260658
0.00660642
0.00998567
0.000599625
0.00422423
0.00436739
0.00136405
0.00603301
0.000708624
0.000681575
0.00527426
0.00321375
0.000983189
0.00263394
0.00510958
0.0133621
0.00305917
0.00214491
0.0036449
0.00583894
0.00406
0.00959235
0.002439
0.00372233
0.00341043
0.00350228
0.00475172
0.00707977
0.00626515
0.000247101
0.000851454
0.00596844
0.00632393
0.00584206
0.000806491
0.0028468
0.0066984
0.000760865
0.00160326
0.0114982
0.000148541
0.00232849
0.00342986
0.000988237
0.00923237
0.0068167
0.00506666
0.00311642
0.00265644
0.00488421
0.0002287
0.0035834
0.000370277
0.00131343
0.00739104
0.0001418
0.00315684
0.000763053
0.00714456
0.00476891
0.00652139
0.00584883
0.00501347
0.00268848
0.00150131
0.00389966
0.00128787
0.00199761
0.00113477
0.00202146
0.000311961
0.0022956
0.00179417
0.0100853
0.00516888
0.00309991
0.000521921
0.00476546
0.000952399
0.00244677
0.00136544
0.00501891
0.00379787
0.00107093
0.00649869
0.00508895
0.00943077
0.00361753
0.0005408
0.0052933
0.000689457
0.00516979
0.00103664
0.00165221
0.00688377
2.41598e-05
0.00422372
0.00523153
0.00128927
0.000745638
0.00548555
0.00544701
0.00261991
0.00161742
0.00186558
0.00374658
0.00288974
0.00512212
0.00543389
0.0091073
0.00384542
0.00052833
0.00368573
0.00954654
0.000197467
0.00634469
0.0111839
0.00463336
0.0034004
0.00595476
0.00624237
0.00814639
0.00101812
0.0016044
0.0072818
0.00386131
0.00701043
0.0086898
0.0038949
0.00778186
0.00624184
0.00545151
0.00305039
0.00507986
0.000258289
0.00257122
0.0109358
0.00167588
0.00659321
0.00151154
0.00401867
0.000541753
0.00734613
0.00104818
0.000828886
0.00233656
0.00106464
0.00191473
0.001617
0.00809986
0.000337136
0.00593423
0.000538928
0.00104185
0.00509002
0.00182165
0.00923538
0.0044402
0.00728733
0.00464459
0.0086993
0.00169148
0.00374282
0.00752999
8.41357e-06
0.00704357
0.00353012
0.00630922
0.00172579
0.000135537
0.00652497
0.000130262
0.000146367
0.00511569
0.0058577
0.0048873
0.0074079
0.0026577
0.0102359
0.000319347
0.00190331
0.00633125
0.000820424
0.000439999
0.00747525
0.00432375
0.00263196
0.00760758
0.00301167
0.00572628
0.00221545
0.00570046
0.00435247
0.00870459
0.00383145
0.0017128
0.00780988
0.00782176
0.00377624
0.00466061
0.00239094
0.00418115
0.00959297
0.00397954
0.00372794
0.000704594
0.00337078
0.000523778
0.00598417
0.00648284
0.000510316
0.00132996
0.00234467
0.00407052
0.00320803
0.00131329
0.0019606
0.00909304
0.000275765
0.00159927
0.00313013
0.00637409
0.000626831
0.000263767
0.00101846
0.00541784
0.00235999
0.00403274
0.00779087
0.0104305
0.00219117
0.00760467
0.00184561
0.000975875
0.00406826
0.00214833
0.0014395
0.00288925
0.00346946
0.00564256
0.00555583
0.00442275
0.000200085
0.00114338
0.00473271
0.00314343
0.00281164
0.00689311
0.00477657
0.00038143
0.00437196
0.000450308
0.00253467
0.000165968
0.0046483
0.00232112
0.00261116
0.000264873
0.00285995
0.00186502
0.00647757
0.00357348
3.6138e-05
0.00245833
0.000803052
0.00131026
0.00225228
0.00129994
6.88625e-06
0.00174542
0.000368465
0.00349473
0.000325911
0.00311035
0.0037385
0.00533914
0.0047841
0.00452878
0.00222549
0.00562495
0.00675314
0.00955079
0.00549901
0.00443566
0.00694946
0.00800078
0.0067178
0.00521261
0.00524653
0.00440928
0.00211975
0.00652724
0.00347179
0.00471254
0.00572213
0.00549471
0.00426286
0.00145376
0.00140689
0.0103555
0.00472463
0.00847997
0.00542181
0.00329793
0.00507489
0.00276305
0.00502687
0.000186333
0.00824535
0.00740395
0.00651907
0.00174688
0.00939662
0.00452967
0.00530312
0.00390257
0.00274362
0.00427059
0.000464189
0.00192543
0.00731514
0.00882931
0.00412736
0.0044721
0.00936849
0.00113281
0.011455
0.00533991
0.00656234
0.00483713
0.000524705
0.0024876
0.000552363
0.00975939
0.00404606
0.00175818
0.00458558
0.00243838
0.00961123
0.00314078
0.0102902
0.00737015
0.00815336
0.00396646
0.00285724
0.00752916
0.000225226
0.00534097
0.000915266
0.000399304
0.00479912
0.00951654
0.00429731
0.00241008
0.00161239
0.000471012
0.00590583
0.000413966
0.00271908
0.00996985
0.000341387
0.00793728
0.00841703
0.00619077
0.0123506
0.00217794
0.00738522
0.00230826
0.0114884
0.00105832
0.000252831
0.00149392
0.00636159
0.00193219
0.00047621
0.00151523
9.18451e-05
0.00172807
0.00596481
0.00458183
0.000187404
0.00363927
5.82203e-05
0.00383761
0.00173969
0.000782984
0.00260246
0.00207036
0.00645514
0.00401355
0.000556355
0.00644136
0.00155314
0.00269946
0.00376641
0.00686501
0.0033592
0.00064271
0.00206003
0.00125944
0.000357511
0.00471633
0.00214083
0.00196302
0.00436475
0.000731779
0.00247591
0.00564344
6.3995e-05
0.00637717
0.00379795
0.00175042
0.00269203
0.00681654
0.00125148
0.0026164
0.00292694
0.00313574
0.000382231
0.000900423
0.00145631
0.000978518
0.00102719
0.00431117
0.000849619
0.00336825
0.00436749
0.00478426
0.00683747
0.00503851
0.00305218
0.00095211
0.00564114
0.0031443
0.0103696
0.00479661
0.0109633
0.00721097
0.00814497
0.00533237
0.0106597
0.00627976
0.00380281
0.00365469
0.00305802
0.0104866
0.00180757
0.00534983
0.00117046
0.0148533
0.00563555
0.00814959
0.00513388
0.00258756
0.0016168
0.00127699
0.00146099
0.00165472
0.00575654
0.00125699
0.00964208
0.00178383
0.00757328
0.000763433
3.27139e-06
0.00641253
0.000110975
0.00975665
0.000351128
0.00273346
0.0035042
0.0010544
0.00271788
0.000271578
0.00115076
0.00631103
0.00384038
0.00108612
0.00568244
0.0075541
0.0045443
0.000396296
0.000300042
0.0100249
0.00622991
0.00941118
0.000489883
0.00106543
0.00209597
0.00342212
0.00903585
0.00615919
0.00200883
0.00341258
0.000650486
0.00696801
0.00298076
0.00225883
0.00180454
0.00407042
0.00823592
0.00642898
0.00597185
0.00514117
0.00861358
0.00586201
0.00659536
0.00623945
0.00374231
0.00241888
0.010555
0.000794646
0.0053306
0.00393099
0.0055316
0.00190543
0.00316299
1.45671e-05
0.000309386
0.00263728
0.00583923
0.00681538
0.00947326
0.000690266
0.0042255
0.00207907
0.00136017
0.0114261
1.86343e-05
0.00247979
0.000260637
0.000387142
0.00087609
0.00708839
0.00628779
0.00971139
0.0033246
0.000189705
0.0021053
0.00664798
0.00242005
0.00975192
0.00188031
0.00381826
0.000489488
0.00774061
0.00507886
0.00665895
0.00152195
0.00518333
0.00346816
0.00503938
0.00393185
0.000266838
0.000850685
0.00541736
0.0021904
0.00511882
0.00264055
0.00452807
0.00135194
0.00526979
0.00447862
0.00158526
0.008081
0.000686616
0.00219842
0.00106017
0.0014412
0.0023006
0.00132771
0.00128494
0.00415604
0.00148292
0.000508238
0.00692844
0.00858961
0.000949547
0.00145432
0.00162029
0.00349124
0.00275019
0.000322727
0.00552147
0.00263547
0.00289825
0.00361968
0.0111505
0.000461494
0.00112873
0.000136409
0.0014678
0.00200304
0.0036269
0.00882226
0.00935257
0.00632063
0.0068162
0.0005792
0.00817096
0.00575081
0.00615503
0.00929671
0.000507184
0.0064766
0.00491598
0.0112587
0.000688446
0.00597005
0.00646484
0.00242445
0.0044902
0.00259848
0.000914569
0.00549946
0.00321273
0.00355628
0.00443712
0.00163223
0.00230575
0.0137725
0.00790233
0.00972996
0.00460362
0.00227216
0.00751288
0.00481122
0.00483511
0.00228062
0.00573929
0.00793815
0.0082876
0.00489442
0.00610315
0.00142484
0.00648849
0.00581307
0.00735986
0.00761999
0.0039248
0.00102754
0.00632372
0.00920391
0.00464634
0.00166149
0.00732456
0.000221307
0.00624482
0.000394517
0.00235465
0.00457165
0.000632157
0.00101444
0.00334134
0.00349628
0.00165421
0.00325644
0.00541852
0.0100416
0.00509159
0.00516395
0.0103439
0.00325621
0.00539636
0.00508374
0.00404279
0.00915624
0.00160002
3.27855e-06
0.00588006
0.00423411
0.00132045
0.000963503
0.000138548
0.00160533
7.30374e-05
0.00843883
0.00217216
0.00114913
0.00435112
0.00215788
0.00392415
0.002716
0.00165643
0.0024479
0.00596255
0.00601308
0.00169481
0.0105862
0.00501636
5.97227e-05
0.000268345
0.00455388
0.00182151
0.00203645
0.00155097
0.00109886
0.000691151
0.00818298
0.0045161
0.00268172
0.00207683
0.000290083
0.00431959
0.00579643
0.00158902
0.00393319
0.00176143
0.00219784
0.00142932
0.00215606
0.00243212
0.000661035
0.00193795
0.00221278
0.00222742
0.0034522
0.0012678
0.00443923
0.00439193
0.00899186
0.00362889
0.00699444
0.00588697
0.000937906
0.000776812
0.00178743
0.00226923
0.000903897
0.00801715
0.00298492
0.00175551
0.00256911
0.00319249
0.00121568
0.00165293
0.00234494
0.00399874
0.00542901
0.0029856
0.00651722
0.00213706
0.00562863
0.00375862
0.0031721
0.0062756
0.00609739
0.00110678
0.00205016
0.000446391
0.000845685
0.00228455
0.00596766
0.00317022
0.00283233
0.00497227
0.00502832
0.0046032
0.00031162
0.0075741
0.00450919
0.0089932
0.0108252
0.0118288
1.09261e-05
0.00533293
0.00324051
0.00933495
0.00977129
0.00129479
5.10388e-05
0.00337239
0.000936783
0.00184697
0.00517392
0.0021074
0.00838553
0.00136517
0.00333156
0.000733942
0.00259503
0.000821176
0.00407566
0.000527917
0.000592264
0.0114755
0.000530892
0.00544998
0.00128462
0.00255923
0.00064301
0.0103085
0.000870015
0.00792858
0.00622538
0.00172494
0.00869928
0.00604884
0.00285357
0.000805116
0.00123697
0.00384671
0.00833126
0.00743072
0.00437269
0.00657184
0.00614139
0.00394141
0.0110526
0.00895197
0.000867029
0.0042197
0.00640594
0.0025992
0.000535294
0.00406701
0.00360816
0.00243434
0.00552567
0.00843877
0.000211753
0.0039149
0.00773758
0.00664406
0.00329017
0.00551754
0.00409416
0.00841596
0.00364235
0.00330343
0.00435662
0.000841794
0.00219596
0.0107601
0.00629681
0.00131528
0.00600492
0.00560875
0.00218923
0.00576312
0.00397838
0.00382078
0.00352482
0.000179797
0.0120114
0.00629232
0.00141358
0.00442036
0.00321083
0.0041516
0.00366609
0.00102587
0.00140192
0.00527514
0.0044601
0.000912864
0.00141765
0.00135906
0.001102
0.00349187
0.00551188
0.00417233
0.00951882
0.00622458
0.0067604
0.00257979
0.00119603
0.000522857
0.00232383
0.00247123
0.00251265
0.000340801
0.00119116
0.00120557
0.00161902
0.00312616
0.00315094
0.00139632
0.00390627
0.00575899
0.00145115
0.000420317
0.00428306
0.00604007
0.00150157
0.00200122
0.00325075
0.00491167
0.00214741
0.0126304
0.00121241
0.00573295
0.00321611
0.000599407
0.00462383
0.00405402
0.0063197
0.00598577
0.00275021
0.00560415
0.0027417
0.00290697
0.00318453
0.00559502
0.00476475
0.000860973
0.00101875
0.00631809
0.000682128
0.00574093
0.0017809
0.00219642
0.0025929
0.00500337
0.00394632
0.00183558
0.0021222
0.00461959
0.00757846
0.00611563
0.00677458
0.00567167
0.00663367
0.00688363
0.00634592
0.00368594
0.00388396
0.00741029
0.00470176
0.000509077
0.00154658
0.00176691
0.00765317
0.00372001
0.000513336
0.00416745
0.00618234
0.00377021
0.00214979
0.00643764
0.00847007
0.00735108
0.00849496
0.00566157
0.00893759
0.0110621
0.014316
0.00683611
0.00619494
0.00772282
0.00106389
0.00741938
0.00113452
0.000488011
0.00620889
0.00322693
0.00790787
0.00231842
0.00758525
0.00577961
0.00537071
0.00200028
0.0010696
0.00814625
0.00206799
0.00186441
0.0045401
0.00143213
0.00578503
0.00172217
0.000892731
0.0038772
0.000308436
0.00174674
0.00116504
0.00295825
0.00768045
0.00590919
0.00172538
0.0044539
0.00457721
0.00229224
0.00239302
0.0062873
0.00402926
0.0016346
0.00463931
0.00865521
0.00728507
0.0045501
0.00697341
0.00103092
3.76931e-05
0.0035507
0.00629936
0.000305402
0.00718801
0.0063045
0.00686532
0.00316345
0.00552822
0.00379626
0.00030978
0.002568
0.0045626
0.00399782
0.00951353
0.0132541
0.00173449
0.00627302
0.00018042
4.75508e-05
0.00426679
0.00314699
7.0115e-05
0.00699497
0.00355253
0.00222662
0.00179186
0.0163414
0.00516338
0.00430818
0.00056007
0.00171351
0.00376636
0.00345968
0.00102936
0.00221447
0.00843347
0.0040064
0.000154762
0.00814371
0.00155195
0.00182408
0.00603266
0.00276375
0.000228426
0.000705259
0.00129814
0.00255262
0.00645277
0.00313823
0.00298084
0.00214679
0.00320735
0.00341676
0.00379569
0.00379075
2.26207e-05
0.00253012
0.000618864
0.00221849
0.00307651
0.000194746
0.00682267
0.00346847
0.00134157
0.00223495
0.00663337
0.00187821
0.000225886
0.0018775
0.00241707
0.0028752
0.00137507
0.00274166
0.00165733
0.00111248
0.00303489
0.00287223
0.00571851
0.00203119
0.00193703
4.05645e-05
0.000342402
0.000429105
0.00131682
0.00321322
0.00283988
0.00901576
0.006621
0.00480828
0.00841817
0.0129935
0.00511904
0.00151343
0.00134617
0.00314074
0.000618096
0.00422496
0.00286767
0.00551901
0.00011133
0.0092732
0.00537658
0.00218101
5.25015e-05
0.000788795
0.00250027
0.00154835
0.000881703
6.16058e-05
0.00796529
0.000970945
0.000596673
0.00994173
0.000534913
0.00785277
0.000335217
0.000891844
0.00110915
0.00282354
0.000349969
0.00440817
0.00215792
0.000151922
0.000847127
0.000937463
0.00546454
0.00554765
0.00234731
0.0017496
0.00450517
0.0124336
0.00339113
0.0112798
5.43392e-05
0.00537646
0.00120729
0.00583753
0.00221407
0.00900121
0.00161137
0.000116288
0.00408969
7.0296e-05
0.0011931
0.00466422
0.000423207
0.00872723
0.0104748
0.00921961
0.00290071
0.00419905
0.00468164
0.00575667
0.00922552
0.00049103
0.0111051
0.000331757
0.00016691
0.00284339
0.0041984
0.00602585
0.00131407
0.00277378
0.0037677
0.00399215
0.000480093
0.00277706
0.00419891
0.00615122
0.00508774
0.00861144
0.00580248
0.00682664
0.00241264