/*--------------------------------*- C++ -*----------------------------------*\
| =========                 |                                                 |
| \\      /  F ield         | OpenFOAM: The Open Source CFD Toolbox           |
|  \\    /   O peration     | Version:  2212                                  |
|   \\  /    A nd           | Website:  www.openfoam.com                      |
|    \\/     M anipulation  |                                                 |
\*---------------------------------------------------------------------------*/
FoamFile
{
    version     2.0;
    format      ascii;
    arch        "LSB;label=32;scalar=64";
    class       volScalarField;
    location    "0";
    object      stateMean;
}
// * * * * * * * * * * * * * * * * * * * * * * * * * * * * * * * * * * * * * //

dimensions      [0 0 0 1 0 0 0];

internalField   nonuniform List<scalar> 
3200
(
319.143
318.569
318.129
317.997
318.028
318.337
318.537
318.944
319.189
319.305
319.483
319.515
319.501
319.279
319.102
318.913
318.844
319.123
319.489
320.072
316.489
315.907
315.628
315.435
315.55
315.773
316.006
316.276
316.537
316.714
316.828
316.864
316.639
316.687
316.459
316.313
316.268
316.399
316.744
317.179
313.843
313.458
313.137
313.005
313.123
313.313
313.475
313.773
313.95
314.059
314.198
314.222
314.094
313.927
313.849
313.684
313.629
313.824
314.098
314.447
311.239
310.916
310.677
310.576
310.618
310.87
311.009
311.214
311.321
311.591
311.534
311.589
311.542
311.43
311.252
311.215
311.221
311.19
311.461
311.779
308.687
308.432
308.303
308.228
308.322
308.435
308.513
308.643
308.78
309.004
308.924
308.948
308.906
308.797
308.748
308.659
308.622
308.69
308.974
309.194
306.222
306.031
305.885
305.881
305.89
305.99
306.072
306.217
306.313
306.351
306.372
306.328
306.39
306.354
306.192
306.184
306.211
306.264
306.343
306.488
303.71
303.588
303.501
303.551
303.534
303.593
303.706
303.683
303.696
303.719
303.837
303.779
303.808
303.745
303.774
303.695
303.685
303.681
303.811
303.883
301.203
301.226
301.186
301.163
301.155
301.156
301.202
301.305
301.272
301.271
301.277
301.271
301.275
301.276
301.321
301.244
301.193
301.347
301.286
301.345
319.076
318.553
318.142
317.974
318.188
318.399
318.681
319.09
319.439
319.618
319.711
319.732
319.631
319.488
319.299
319.064
319.019
319.226
319.609
320.174
316.523
316
315.666
315.586
315.737
315.885
316.242
316.418
316.741
316.864
317.019
317.008
316.887
316.745
316.608
316.426
316.453
316.513
316.859
317.365
313.857
313.595
313.162
313.17
313.176
313.418
313.603
313.921
314.113
314.275
314.335
314.352
314.313
314.109
313.91
313.9
313.771
313.868
314.209
314.499
311.299
311.043
310.818
310.716
310.75
310.973
311.117
311.345
311.424
311.585
311.695
311.754
311.637
311.54
311.373
311.3
311.21
311.303
311.538
311.937
308.78
308.489
308.362
308.295
308.329
308.439
308.651
308.735
308.855
309.055
309.113
309.006
308.997
308.887
308.826
308.777
308.748
308.827
308.926
309.103
306.193
306.06
305.997
305.93
305.926
306
306.178
306.265
306.341
306.437
306.481
306.47
306.418
306.293
306.314
306.172
306.15
306.297
306.373
306.553
303.847
303.544
303.604
303.496
303.542
303.54
303.746
303.799
303.822
303.861
303.867
303.849
303.888
303.81
303.73
303.819
303.762
303.732
303.787
303.904
301.211
301.167
301.25
301.126
301.252
301.25
301.174
301.248
301.289
301.228
301.357
301.305
301.297
301.3
301.263
301.23
301.192
301.237
301.262
301.334
319.239
318.731
318.388
318.327
318.38
318.764
318.988
319.321
319.728
320.011
320.101
320.194
320.082
319.817
319.635
319.361
319.369
319.429
319.871
320.434
316.714
316.2
315.84
315.747
315.829
316.049
316.444
316.71
316.979
317.227
317.297
317.434
317.237
317.099
316.867
316.679
316.671
316.778
317.134
317.488
313.932
313.602
313.364
313.333
313.35
313.615
313.855
314.11
314.307
314.504
314.647
314.616
314.502
314.366
314.241
314.086
313.941
314.109
314.418
314.78
311.4
311.173
310.907
310.802
310.786
311.045
311.32
311.461
311.701
311.812
311.828
311.863
311.84
311.658
311.536
311.437
311.392
311.445
311.721
312.008
308.875
308.708
308.496
308.458
308.443
308.653
308.76
308.922
309.056
309.19
309.225
309.18
309.215
309.11
308.97
308.862
308.848
308.897
309.059
309.345
306.305
306.152
306.054
306.004
306.043
306.126
306.247
306.366
306.526
306.498
306.536
306.564
306.544
306.485
306.3
306.402
306.379
306.297
306.501
306.661
303.744
303.703
303.607
303.561
303.608
303.736
303.661
303.776
303.857
303.891
303.954
303.909
303.902
303.863
303.805
303.802
303.82
303.823
303.829
303.988
301.228
301.26
301.177
301.227
301.178
301.278
301.294
301.215
301.246
301.332
301.288
301.353
301.306
301.236
301.233
301.296
301.273
301.249
301.274
301.359
319.563
319.057
318.685
318.587
318.758
319.096
319.394
319.85
320.233
320.466
320.579
320.636
320.543
320.289
320.064
319.839
319.655
319.857
320.245
320.799
316.854
316.491
316.058
315.966
316.079
316.378
316.735
317.066
317.418
317.704
317.688
317.791
317.726
317.471
317.242
317.032
316.999
317.091
317.463
317.862
314.138
313.776
313.63
313.478
313.591
313.837
314.06
314.445
314.552
314.821
314.972
314.989
314.85
314.703
314.456
314.386
314.326
314.368
314.607
315.002
311.509
311.238
311.037
311.044
311.081
311.254
311.492
311.742
311.906
312.055
312.277
312.139
312.212
311.959
311.875
311.745
311.623
311.77
311.869
312.251
308.979
308.738
308.627
308.557
308.664
308.736
308.895
309.064
309.228
309.356
309.482
309.551
309.444
309.235
309.115
309.032
309.012
309.094
309.23
309.523
306.386
306.302
306.104
306.113
306.156
306.163
306.372
306.489
306.609
306.654
306.745
306.681
306.722
306.637
306.475
306.474
306.468
306.407
306.573
306.731
303.824
303.734
303.635
303.611
303.719
303.716
303.772
303.91
303.968
304.041
304.1
304.07
304.009
303.952
303.907
303.931
303.828
303.831
303.959
304.095
301.259
301.244
301.276
301.165
301.175
301.248
301.227
301.274
301.314
301.311
301.312
301.314
301.412
301.346
301.299
301.302
301.346
301.312
301.326
301.367
319.974
319.519
319.118
319.04
319.244
319.487
319.892
320.351
320.654
320.999
321.13
321.127
321.003
320.801
320.597
320.338
320.212
320.346
320.709
321.257
317.193
316.85
316.452
316.445
316.539
316.815
317.121
317.517
317.81
318.128
318.305
318.25
318.127
317.925
317.645
317.544
317.373
317.52
317.839
318.208
314.487
314.096
313.934
313.913
313.928
314.096
314.346
314.756
314.976
315.177
315.309
315.337
315.238
315.117
314.937
314.792
314.644
314.619
315.023
315.374
311.802
311.593
311.359
311.265
311.388
311.545
311.808
311.994
312.216
312.416
312.548
312.556
312.513
312.367
312.171
312.009
311.878
311.935
312.17
312.416
309.139
308.943
308.768
308.748
308.758
308.933
309.127
309.353
309.478
309.547
309.781
309.722
309.582
309.604
309.363
309.351
309.268
309.374
309.416
309.654
306.539
306.318
306.251
306.214
306.253
306.383
306.489
306.651
306.78
306.828
306.91
306.926
306.938
306.81
306.683
306.692
306.571
306.614
306.668
306.902
303.883
303.807
303.702
303.669
303.82
303.771
303.909
303.997
304.066
304.06
304.189
304.154
304.214
304.13
304.015
303.958
303.921
304.039
304.024
304.159
301.365
301.238
301.213
301.31
301.26
301.265
301.352
301.398
301.309
301.41
301.361
301.43
301.376
301.317
301.398
301.333
301.322
301.383
301.291
301.402
320.412
319.909
319.687
319.546
319.659
320.007
320.359
320.752
321.266
321.586
321.808
321.735
321.599
321.33
321.119
320.856
320.886
320.93
321.294
321.835
317.591
317.179
316.946
316.896
316.94
317.195
317.65
317.962
318.334
318.553
318.842
318.768
318.635
318.464
318.146
318.013
317.938
318.039
318.249
318.748
314.747
314.441
314.223
314.188
314.287
314.567
314.875
315.14
315.378
315.706
315.737
315.775
315.709
315.535
315.368
315.202
315.075
315.16
315.392
315.755
312.187
311.855
311.585
311.624
311.669
311.821
312.097
312.336
312.591
312.749
312.929
312.841
312.762
312.63
312.415
312.336
312.326
312.396
312.53
312.81
309.386
309.142
308.992
308.925
309.078
309.197
309.315
309.466
309.762
309.919
309.965
310.025
309.88
309.787
309.736
309.67
309.6
309.517
309.775
309.884
306.708
306.559
306.372
306.349
306.494
306.542
306.644
306.818
306.954
307.085
307.106
307.157
307.054
306.951
306.815
306.775
306.82
306.795
306.937
307.1
303.982
303.958
303.796
303.824
303.945
303.935
304.068
304.053
304.245
304.161
304.251
304.299
304.26
304.153
304.112
304.072
304.083
304.104
304.157
304.224
301.298
301.341
301.211
301.32
301.288
301.372
301.35
301.417
301.367
301.416
301.432
301.421
301.378
301.421
301.42
301.38
301.322
301.342
301.337
301.451
321.097
320.602
320.282
320.128
320.256
320.545
321.055
321.501
321.941
322.218
322.363
322.373
322.34
322.047
321.793
321.613
321.515
321.597
321.942
322.43
318.097
317.71
317.477
317.38
317.552
317.78
318.022
318.518
318.805
319.191
319.316
319.246
319.2
319.038
318.683
318.61
318.559
318.624
318.946
319.237
315.192
315.022
314.753
314.592
314.68
314.972
315.241
315.618
315.786
316.083
316.248
316.24
316.126
316.048
315.865
315.597
315.58
315.596
315.832
316.227
312.411
312.089
311.991
311.959
312.026
312.097
312.355
312.679
312.916
313.134
313.237
313.272
313.182
313.027
312.867
312.796
312.652
312.73
312.924
313.183
309.621
309.414
309.268
309.277
309.39
309.485
309.596
309.823
310.087
310.176
310.357
310.336
310.231
310.09
310.033
309.888
309.856
309.879
310.063
310.136
306.904
306.744
306.621
306.553
306.691
306.695
306.827
307.023
307.15
307.326
307.319
307.362
307.239
307.201
307.12
307.085
307.046
306.987
307.126
307.255
304.167
303.957
303.997
303.922
303.958
304.016
304.115
304.152
304.268
304.404
304.36
304.422
304.335
304.272
304.241
304.287
304.242
304.196
304.248
304.37
301.309
301.349
301.316
301.338
301.344
301.302
301.386
301.423
301.458
301.523
301.523
301.568
301.461
301.386
301.409
301.41
301.533
301.415
301.397
301.479
321.611
321.252
320.909
320.762
320.956
321.24
321.615
322.056
322.566
322.844
323.071
323.107
322.951
322.79
322.501
322.278
322.227
322.259
322.672
323.167
318.615
318.294
318.022
317.945
318.097
318.391
318.651
318.991
319.34
319.654
319.835
319.884
319.819
319.574
319.376
319.221
319.1
319.267
319.502
319.925
315.685
315.426
315.226
315.117
315.185
315.417
315.601
316.047
316.359
316.57
316.699
316.721
316.678
316.512
316.297
316.186
316.126
316.115
316.421
316.659
312.791
312.581
312.352
312.191
312.424
312.626
312.73
313.03
313.334
313.51
313.695
313.667
313.615
313.483
313.316
313.173
313.13
313.158
313.331
313.565
309.883
309.769
309.621
309.6
309.607
309.7
309.916
310.142
310.316
310.5
310.552
310.641
310.535
310.512
310.391
310.226
310.151
310.23
310.302
310.59
307.137
306.955
306.909
306.899
306.832
307.021
307.084
307.24
307.398
307.482
307.531
307.528
307.499
307.455
307.366
307.278
307.239
307.292
307.419
307.537
304.229
304.166
304.099
304.147
304.1
304.151
304.231
304.332
304.4
304.467
304.553
304.521
304.472
304.454
304.384
304.363
304.367
304.353
304.472
304.452
301.43
301.369
301.406
301.324
301.393
301.36
301.449
301.424
301.454
301.529
301.539
301.423
301.514
301.506
301.531
301.407
301.435
301.541
301.446
301.484
322.359
321.878
321.685
321.507
321.615
321.897
322.256
322.705
323.074
323.466
323.748
323.706
323.646
323.487
323.22
322.95
322.986
323.081
323.459
323.859
319.242
318.919
318.607
318.59
318.618
318.844
319.228
319.543
319.888
320.305
320.48
320.498
320.41
320.185
319.992
319.828
319.794
319.88
320.061
320.536
316.257
315.906
315.679
315.634
315.655
315.864
316.223
316.575
316.752
317.067
317.158
317.275
317.188
317.03
316.859
316.691
316.588
316.849
316.945
317.249
313.183
312.98
312.844
312.748
312.838
312.948
313.17
313.476
313.667
313.857
314.006
314.079
314.011
313.857
313.692
313.592
313.468
313.64
313.762
313.997
310.244
310.056
309.92
309.905
309.925
310.024
310.208
310.412
310.562
310.721
310.872
310.827
310.815
310.81
310.626
310.598
310.439
310.625
310.691
310.916
307.301
307.145
307.078
307.056
307.07
307.177
307.268
307.463
307.573
307.667
307.751
307.748
307.732
307.634
307.565
307.457
307.564
307.589
307.586
307.695
304.365
304.325
304.233
304.223
304.229
304.297
304.311
304.466
304.552
304.558
304.569
304.643
304.635
304.583
304.499
304.5
304.456
304.511
304.581
304.635
301.497
301.366
301.388
301.382
301.414
301.446
301.42
301.47
301.529
301.51
301.55
301.595
301.556
301.467
301.586
301.473
301.515
301.45
301.609
301.556
323.008
322.576
322.334
322.099
322.262
322.616
322.871
323.319
323.727
324.063
324.318
324.464
324.367
324.185
323.863
323.753
323.759
323.901
324.215
324.653
319.89
319.537
319.244
319.161
319.277
319.414
319.819
320.151
320.495
320.873
321.046
321.093
320.979
320.775
320.631
320.458
320.415
320.498
320.831
321.259
316.662
316.344
316.202
316.183
316.283
316.361
316.56
316.913
317.221
317.49
317.66
317.723
317.709
317.531
317.302
317.305
317.149
317.271
317.437
317.794
313.588
313.32
313.164
313.167
313.194
313.322
313.573
313.814
314.063
314.318
314.397
314.44
314.365
314.228
314.153
314.068
314.033
314.106
314.263
314.458
310.521
310.469
310.32
310.23
310.236
310.366
310.538
310.714
310.918
311.074
311.156
311.163
311.142
311.056
310.937
310.859
310.814
311.016
311.014
311.169
307.503
307.397
307.311
307.286
307.296
307.379
307.555
307.588
307.773
307.893
308.036
308.046
307.966
307.843
307.808
307.737
307.733
307.739
307.897
308.08
304.468
304.491
304.375
304.352
304.324
304.406
304.59
304.553
304.698
304.646
304.796
304.728
304.776
304.714
304.664
304.624
304.601
304.642
304.683
304.773
301.447
301.457
301.399
301.475
301.492
301.515
301.514
301.48
301.617
301.627
301.605
301.554
301.568
301.554
301.582
301.618
301.58
301.604
301.619
301.59
323.737
323.436
323.108
322.954
323.093
323.262
323.668
324.071
324.454
324.754
325.011
325.071
324.991
324.824
324.698
324.532
324.428
324.643
325.01
325.412
320.468
320.153
319.893
319.84
319.884
320.025
320.355
320.652
321.059
321.363
321.487
321.636
321.584
321.361
321.197
321.106
321.113
321.244
321.502
321.83
317.279
316.953
316.753
316.719
316.66
316.945
317.157
317.417
317.721
318.024
318.149
318.122
318.127
317.952
317.785
317.805
317.706
317.806
318.061
318.267
314.015
313.863
313.592
313.587
313.531
313.789
313.952
314.223
314.474
314.59
314.699
314.845
314.84
314.686
314.559
314.49
314.404
314.509
314.79
314.93
310.818
310.644
310.597
310.553
310.547
310.758
310.888
311.054
311.17
311.339
311.414
311.441
311.441
311.413
311.284
311.154
311.195
311.336
311.412
311.568
307.703
307.671
307.479
307.5
307.612
307.598
307.706
307.786
307.981
308.138
308.204
308.173
308.239
308.142
308.075
307.953
307.958
307.983
308.143
308.238
304.604
304.544
304.498
304.512
304.542
304.564
304.558
304.665
304.681
304.798
304.871
304.93
304.922
304.83
304.806
304.802
304.75
304.811
304.88
304.919
301.489
301.499
301.557
301.55
301.445
301.501
301.568
301.571
301.549
301.559
301.636
301.641
301.631
301.598
301.607
301.713
301.635
301.65
301.711
301.607
324.508
324.01
323.854
323.711
323.809
323.985
324.293
324.673
325.033
325.437
325.64
325.755
325.613
325.487
325.457
325.292
325.296
325.421
325.777
326.107
321.071
320.774
320.515
320.418
320.486
320.63
320.94
321.227
321.493
321.888
322.074
322.112
322.2
322.001
321.825
321.716
321.747
321.94
322.2
322.543
317.736
317.455
317.266
317.256
317.231
317.34
317.643
317.876
318.15
318.421
318.589
318.716
318.605
318.491
318.446
318.267
318.258
318.447
318.681
318.884
314.481
314.3
314.085
314.033
314.038
314.216
314.412
314.569
314.878
314.92
315.112
315.234
315.121
315.127
314.87
314.931
314.975
315.007
315.181
315.448
311.225
311.163
310.947
310.851
310.943
311.047
311.1
311.31
311.531
311.623
311.752
311.75
311.7
311.641
311.614
311.603
311.594
311.586
311.797
311.933
307.994
307.899
307.767
307.747
307.803
307.828
307.96
308.072
308.192
308.287
308.321
308.355
308.387
308.314
308.225
308.258
308.216
308.238
308.364
308.542
304.776
304.657
304.705
304.654
304.702
304.737
304.749
304.803
304.919
305.004
305.031
305.051
304.974
304.951
304.957
304.896
304.867
304.926
305.078
305.105
301.612
301.624
301.578
301.562
301.533
301.569
301.663
301.613
301.689
301.665
301.685
301.706
301.717
301.679
301.629
301.703
301.684
301.674
301.627
301.707
325.25
324.822
324.605
324.451
324.531
324.68
324.926
325.377
325.664
325.974
326.196
326.329
326.276
326.211
326.11
326.085
326.124
326.328
326.611
327.053
321.662
321.446
321.142
321.104
321.1
321.268
321.562
321.755
322.088
322.388
322.58
322.65
322.716
322.506
322.399
322.378
322.478
322.63
322.817
323.18
318.3
317.942
317.831
317.779
317.783
317.909
318.038
318.303
318.629
318.852
319.019
318.99
319.034
318.939
318.87
318.869
318.891
319.016
319.238
319.481
314.914
314.68
314.529
314.402
314.545
314.638
314.7
314.966
315.122
315.332
315.445
315.587
315.489
315.442
315.394
315.345
315.364
315.43
315.726
315.903
311.553
311.387
311.347
311.272
311.234
311.375
311.516
311.676
311.774
311.882
311.926
312.085
312.017
312.051
311.956
311.882
311.894
312.047
312.149
312.215
308.285
308.127
307.973
307.957
307.979
308.049
308.149
308.321
308.401
308.481
308.616
308.66
308.516
308.555
308.442
308.425
308.494
308.53
308.618
308.752
304.928
304.85
304.916
304.788
304.874
304.77
304.904
304.973
304.979
305.106
305.061
305.13
305.193
305.145
305.093
305.105
305.06
305.131
305.257
305.288
301.71
301.597
301.597
301.583
301.613
301.557
301.711
301.695
301.841
301.666
301.715
301.713
301.795
301.709
301.783
301.743
301.761
301.795
301.765
301.741
326.005
325.621
325.359
325.222
325.242
325.347
325.652
325.992
326.311
326.607
326.785
326.953
326.913
326.934
326.804
326.725
326.878
327.049
327.425
327.762
322.463
322.152
321.843
321.79
321.691
321.824
322.144
322.276
322.624
322.898
323.095
323.116
323.114
323.114
323.056
323.055
323.13
323.282
323.636
323.888
318.812
318.639
318.386
318.272
318.269
318.413
318.644
318.833
319.09
319.229
319.425
319.538
319.534
319.446
319.381
319.304
319.452
319.578
319.735
320.084
315.449
315.148
314.936
314.961
314.919
315.056
315.126
315.382
315.518
315.735
315.926
315.866
315.824
315.859
315.948
315.778
315.839
315.979
316.124
316.375
311.9
311.802
311.629
311.511
311.6
311.673
311.731
311.913
312.035
312.158
312.303
312.399
312.324
312.232
312.28
312.364
312.247
312.35
312.494
312.682
308.5
308.333
308.278
308.264
308.237
308.266
308.493
308.43
308.704
308.635
308.707
308.803
308.774
308.801
308.703
308.652
308.785
308.835
308.859
309.046
305.063
304.944
304.945
304.963
304.939
304.902
305.06
305.133
305.183
305.194
305.272
305.275
305.285
305.143
305.194
305.206
305.196
305.216
305.365
305.359
301.708
301.695
301.747
301.685
301.682
301.648
301.665
301.683
301.736
301.824
301.73
301.759
301.781
301.781
301.72
301.737
301.805
301.746
301.828
301.791
326.769
326.439
326.054
326.055
325.996
326.196
326.328
326.626
326.897
327.125
327.354
327.44
327.521
327.565
327.582
327.53
327.684
327.901
328.232
328.558
323.089
322.766
322.469
322.383
322.408
322.539
322.673
322.971
323.206
323.455
323.607
323.697
323.654
323.641
323.673
323.663
323.818
324.014
324.25
324.643
319.37
319.195
318.943
318.883
318.88
318.954
319.184
319.335
319.574
319.7
319.885
319.99
319.954
319.91
319.96
319.919
320.049
320.219
320.42
320.635
315.859
315.603
315.492
315.392
315.352
315.565
315.597
315.811
315.918
316.076
316.22
316.253
316.331
316.188
316.238
316.318
316.253
316.358
316.67
316.852
312.253
312.085
311.983
311.992
311.96
312.054
312.112
312.217
312.374
312.451
312.517
312.613
312.604
312.596
312.534
312.572
312.652
312.734
312.905
313.056
308.723
308.692
308.538
308.474
308.472
308.548
308.615
308.71
308.808
308.863
308.957
308.939
309.038
308.929
308.993
309.017
309.026
309.068
309.126
309.236
305.296
305.208
305.138
305.13
305.087
305.209
305.166
305.237
305.255
305.357
305.39
305.42
305.361
305.4
305.381
305.317
305.326
305.449
305.511
305.533
301.807
301.616
301.717
301.702
301.664
301.745
301.69
301.765
301.752
301.816
301.824
301.788
301.79
301.819
301.753
301.849
301.789
301.828
301.801
301.845
327.641
327.282
326.954
326.754
326.734
326.903
326.991
327.308
327.629
327.813
328.061
328.126
328.187
328.194
328.248
328.271
328.457
328.65
329.045
329.465
323.728
323.479
323.145
323.077
323.078
323.188
323.314
323.545
323.686
323.923
324.06
324.233
324.205
324.302
324.312
324.272
324.407
324.645
324.94
325.281
320.009
319.773
319.61
319.482
319.438
319.494
319.646
319.704
319.927
320.145
320.23
320.402
320.347
320.377
320.414
320.453
320.556
320.694
320.945
321.362
316.33
316.036
315.93
315.843
315.838
315.869
316.047
316.132
316.25
316.416
316.56
316.584
316.53
316.624
316.633
316.699
316.67
316.865
317.119
317.29
312.573
312.481
312.419
312.326
312.28
312.33
312.351
312.538
312.652
312.701
312.845
312.879
312.837
312.877
312.792
312.897
312.951
313.006
313.157
313.441
308.975
308.93
308.817
308.756
308.752
308.803
308.816
308.933
308.984
309.054
309.183
309.224
309.15
309.21
309.189
309.166
309.287
309.367
309.434
309.487
305.331
305.321
305.304
305.27
305.229
305.235
305.29
305.336
305.43
305.494
305.555
305.521
305.495
305.488
305.497
305.519
305.538
305.569
305.645
305.703
301.751
301.765
301.754
301.748
301.716
301.77
301.798
301.783
301.789
301.793
301.805
301.758
301.891
301.867
301.758
301.833
301.919
301.851
301.902
301.905
328.407
327.946
327.72
327.519
327.419
327.592
327.779
327.952
328.215
328.448
328.535
328.7
328.796
328.876
328.951
329.023
329.178
329.453
329.896
330.266
324.447
324.078
323.925
323.764
323.729
323.715
323.916
324.083
324.287
324.498
324.589
324.693
324.79
324.85
324.896
324.935
325.121
325.336
325.649
326.037
320.483
320.301
320.066
319.908
320.044
320.056
320.116
320.31
320.454
320.657
320.76
320.81
320.778
320.89
320.91
320.927
321.162
321.333
321.573
321.808
316.651
316.564
316.405
316.266
316.3
316.317
316.37
316.541
316.661
316.692
316.875
316.933
316.991
317.034
317.048
317.126
317.151
317.331
317.558
317.767
312.904
312.908
312.646
312.615
312.59
312.614
312.729
312.825
313.031
313.103
313.095
313.066
313.203
313.212
313.233
313.258
313.333
313.441
313.659
313.757
309.192
309.158
309.028
308.929
308.97
309.079
309.007
309.114
309.207
309.163
309.341
309.335
309.439
309.391
309.421
309.425
309.549
309.564
309.779
309.84
305.583
305.509
305.508
305.408
305.363
305.424
305.389
305.484
305.541
305.562
305.636
305.686
305.671
305.568
305.691
305.61
305.692
305.773
305.876
305.873
301.843
301.822
301.81
301.788
301.776
301.827
301.757
301.833
301.827
301.91
301.92
301.797
301.872
301.963
301.87
301.927
301.941
301.954
302.013
302.035
329.182
328.763
328.455
328.324
328.279
328.328
328.486
328.558
328.791
329.063
329.174
329.281
329.428
329.496
329.562
329.696
329.927
330.218
330.569
330.986
325.024
324.782
324.549
324.372
324.299
324.397
324.479
324.608
324.803
325.015
325.2
325.309
325.377
325.419
325.454
325.625
325.713
326.004
326.261
326.689
321.052
320.83
320.673
320.543
320.557
320.547
320.669
320.739
320.867
321.023
321.172
321.289
321.288
321.415
321.386
321.446
321.586
321.81
322.057
322.451
317.187
317.005
316.806
316.765
316.764
316.683
316.793
316.918
316.968
317.125
317.257
317.229
317.377
317.464
317.47
317.517
317.64
317.758
318.005
318.175
313.34
313.22
313.021
313.009
312.967
313.014
313.021
313.161
313.191
313.318
313.238
313.399
313.475
313.436
313.505
313.576
313.658
313.806
313.883
314.106
309.48
309.415
309.274
309.207
309.238
309.285
309.274
309.391
309.36
309.442
309.579
309.563
309.611
309.606
309.645
309.705
309.668
309.775
309.966
309.995
305.669
305.679
305.618
305.533
305.509
305.585
305.542
305.633
305.653
305.703
305.718
305.729
305.791
305.699
305.66
305.783
305.862
305.867
305.982
306.038
301.913
301.865
301.879
301.831
301.763
301.833
301.854
301.809
301.856
301.82
301.92
301.928
301.908
301.877
301.982
301.898
301.97
302.045
301.948
302.02
329.842
329.427
329.169
329.055
328.981
328.996
329.082
329.211
329.412
329.65
329.689
329.912
329.974
330.056
330.208
330.372
330.646
330.943
331.295
331.728
325.717
325.403
325.086
324.997
324.907
324.928
324.991
325.143
325.288
325.449
325.604
325.763
325.82
325.956
325.977
326.117
326.295
326.61
326.874
327.196
321.58
321.424
321.059
320.972
321.035
320.97
321.03
321.158
321.226
321.373
321.532
321.632
321.704
321.767
321.885
321.991
322.101
322.355
322.568
322.85
317.542
317.433
317.18
317.068
317.078
317.148
317.236
317.251
317.427
317.41
317.468
317.605
317.654
317.685
317.785
317.865
318.043
318.143
318.422
318.536
313.635
313.47
313.315
313.203
313.3
313.312
313.452
313.311
313.447
313.592
313.585
313.648
313.795
313.79
313.815
313.897
313.94
314.104
314.331
314.389
309.682
309.661
309.428
309.471
309.389
309.438
309.539
309.47
309.603
309.542
309.654
309.692
309.786
309.757
309.812
309.915
309.924
310.057
310.103
310.27
305.793
305.797
305.767
305.653
305.652
305.656
305.666
305.726
305.876
305.785
305.862
305.921
305.865
305.899
305.892
305.937
305.994
306.013
306.129
306.123
301.989
301.966
301.905
301.895
301.81
301.933
301.908
301.904
301.974
301.97
301.863
302.002
301.914
301.951
301.947
301.97
301.95
302.086
302.052
302.079
330.419
330.042
329.762
329.463
329.481
329.416
329.545
329.719
329.879
330.02
330.13
330.342
330.409
330.637
330.733
330.834
331.145
331.355
331.814
332.319
326.105
325.816
325.52
325.403
325.373
325.283
325.486
325.565
325.765
325.89
325.962
326.08
326.164
326.229
326.401
326.534
326.724
326.994
327.322
327.674
321.975
321.802
321.471
321.313
321.256
321.336
321.378
321.466
321.571
321.683
321.84
321.912
321.985
322.091
322.089
322.348
322.483
322.705
322.9
323.215
317.912
317.689
317.544
317.347
317.34
317.331
317.434
317.528
317.615
317.686
317.759
317.749
317.876
317.961
318.033
318.117
318.288
318.366
318.573
318.843
313.793
313.74
313.549
313.502
313.431
313.431
313.492
313.611
313.675
313.694
313.753
313.863
313.861
313.969
313.936
314.028
314.137
314.215
314.516
314.535
309.825
309.791
309.737
309.651
309.571
309.555
309.607
309.717
309.763
309.765
309.732
309.834
309.866
309.919
309.969
309.944
309.987
310.173
310.256
310.369
305.902
305.853
305.812
305.768
305.729
305.774
305.764
305.798
305.839
305.898
305.953
305.915
305.945
305.999
305.931
306.045
306.001
306.139
306.122
306.236
302.004
301.958
301.988
301.858
301.871
301.968
301.939
301.972
301.982
301.946
301.974
301.951
301.97
301.985
301.989
301.949
301.924
302.055
302.096
302.121
)
;

boundaryField
{
    hotSide
    {
        type            fixedGradient;
        gradient        nonuniform List<scalar> 
400
(
321.511
322.87
325.591
329.677
335.133
341.965
350.181
359.788
370.794
383.208
397.037
412.289
428.971
447.088
466.647
487.651
510.105
534.011
559.372
586.191
323.738
325.08
327.767
331.802
337.194
343.949
352.078
361.591
372.498
384.81
398.537
413.687
430.268
448.289
467.755
488.672
511.043
534.872
560.161
586.913
326.149
327.47
330.116
334.091
339.406
346.071
354.099
363.503
374.296
386.491
400.101
415.136
431.606
449.52
468.885
489.706
511.988
535.735
560.948
587.63
328.704
330
332.597
336.503
341.73
348.292
356.205
365.485
376.15
388.215
401.695
416.604
432.954
450.753
470.009
490.73
512.919
536.579
561.714
588.325
331.33
332.599
335.142
338.97
344.099
350.546
358.332
367.477
378.003
389.928
403.271
418.047
434.27
451.949
471.095
491.712
513.807
537.382
562.439
588.978
333.918
335.158
337.643
341.389
346.414
352.74
360.392
369.397
379.779
391.562
404.765
419.407
435.503
453.065
472.101
492.618
514.622
538.114
563.096
589.569
336.321
337.531
339.959
343.622
348.544
354.751
362.274
371.142
381.385
393.031
406.101
420.618
436.595
454.047
472.983
493.409
515.33
538.747
563.663
590.076
338.36
339.543
341.92
345.509
350.339
356.44
363.847
372.595
382.718
394.244
407.2
421.608
437.485
454.844
473.695
494.045
515.897
539.253
564.114
590.478
339.852
341.015
343.352
346.885
351.645
357.665
364.985
373.643
383.675
395.113
407.984
422.312
438.116
455.407
474.197
494.491
516.294
539.606
564.428
590.758
340.643
341.795
344.11
347.613
352.334
358.311
365.584
374.193
384.176
395.567
408.393
422.679
438.443
455.699
474.456
494.722
516.498
539.788
564.589
590.901
340.643
341.795
344.11
347.613
352.334
358.311
365.584
374.193
384.176
395.567
408.393
422.679
438.443
455.699
474.456
494.722
516.498
539.788
564.589
590.901
339.852
341.015
343.352
346.885
351.645
357.665
364.985
373.643
383.675
395.113
407.984
422.312
438.116
455.407
474.197
494.491
516.294
539.606
564.428
590.758
338.36
339.543
341.92
345.509
350.339
356.44
363.847
372.595
382.718
394.244
407.2
421.608
437.485
454.844
473.695
494.045
515.897
539.253
564.114
590.478
336.321
337.531
339.959
343.622
348.544
354.751
362.274
371.142
381.385
393.031
406.101
420.618
436.595
454.047
472.983
493.409
515.33
538.747
563.663
590.076
333.918
335.158
337.643
341.389
346.414
352.74
360.392
369.397
379.779
391.562
404.765
419.407
435.503
453.065
472.101
492.618
514.622
538.114
563.096
589.569
331.33
332.599
335.142
338.97
344.099
350.546
358.332
367.477
378.003
389.928
403.271
418.047
434.27
451.949
471.095
491.712
513.807
537.382
562.439
588.978
328.704
330
332.597
336.503
341.73
348.292
356.205
365.485
376.15
388.215
401.695
416.604
432.954
450.753
470.009
490.73
512.919
536.579
561.714
588.325
326.149
327.47
330.116
334.091
339.406
346.071
354.099
363.503
374.296
386.491
400.101
415.136
431.606
449.52
468.885
489.706
511.988
535.735
560.948
587.63
323.738
325.08
327.767
331.802
337.194
343.949
352.078
361.591
372.498
384.81
398.537
413.687
430.268
448.289
467.755
488.672
511.043
534.872
560.161
586.913
321.511
322.87
325.591
329.677
335.133
341.965
350.181
359.788
370.794
383.208
397.037
412.289
428.971
447.088
466.647
487.651
510.105
534.011
559.372
586.191
)
;
    }
    coldSide
    {
        type            mixed;
        refValue        uniform 300;
        refGradient     uniform 0;
        valueFraction   uniform 0.991591;
        source          uniform 0;
        value           nonuniform List<scalar> 
400
(
300.01
300.01
300.01
300.011
300.011
300.011
300.011
300.012
300.013
300.012
300.013
300.014
300.014
300.014
300.015
300.015
300.015
300.016
300.017
300.017
300.01
300.01
300.011
300.01
300.01
300.011
300.011
300.012
300.011
300.012
300.013
300.014
300.013
300.014
300.014
300.015
300.015
300.016
300.017
300.016
300.01