/*--------------------------------*- C++ -*----------------------------------*\
| =========                 |                                                 |
| \\      /  F ield         | OpenFOAM: The Open Source CFD Toolbox           |
|  \\    /   O peration     | Version:  2212                                  |
|   \\  /    A nd           | Website:  www.openfoam.com                      |
|    \\/     M anipulation  |                                                 |
\*---------------------------------------------------------------------------*/
FoamFile
{
    version     2.0;
    format      ascii;
    arch        "LSB;label=32;scalar=64";
    class       volScalarField;
    location    "0";
    object      T;
}
// * * * * * * * * * * * * * * * * * * * * * * * * * * * * * * * * * * * * * //

dimensions      [0 0 0 1 0 0 0];

internalField   nonuniform List<scalar> 
3200
(
349.36
350.239
351.134
352.229
352.866
353.387
353.899
354.132
353.815
354.002
353.776
353.07
352.411
351.69
351.246
350.244
349.157
348.134
346.813
345.81
343.015
343.749
344.521
345.466
346.017
346.48
346.955
347.174
346.855
347.02
346.821
346.278
345.635
344.991
344.619
343.743
342.804
341.933
340.765
339.909
336.56
337.173
337.878
338.625
339.087
339.481
339.886
340.049
339.775
339.94
339.751
339.341
338.758
338.27
337.899
337.161
336.335
335.653
334.634
333.912
329.995
330.518
331.112
331.684
332.071
332.381
332.758
332.854
332.64
332.717
332.608
332.3
331.821
331.4
331.108
330.516
329.798
329.299
328.435
327.849
323.385
323.789
324.231
324.701
325
325.236
325.56
325.602
325.448
325.483
325.408
325.175
324.839
324.486
324.252
323.803
323.234
322.874
322.179
321.7
316.722
317.001
317.34
317.692
317.864
318.045
318.335
318.343
318.209
318.218
318.165
317.971
317.796
317.547
317.389
317.06
316.627
316.398
315.896
315.537
310.062
310.251
310.407
310.663
310.758
310.82
311.044
311.046
310.949
310.924
310.937
310.777
310.713
310.529
310.432
310.289
310.029
309.886
309.561
309.324
303.376
303.445
303.503
303.582
303.614
303.623
303.708
303.702
303.66
303.654
303.672
303.612
303.601
303.523
303.502
303.455
303.361
303.327
303.214
303.108
350.289
351.384
352.323
352.989
353.745
354.397
354.925
355.248
354.775
355.07
354.866
354.441
353.784
353.26
352.341
351.297
350.214
348.89
347.841
346.672
343.763
344.748
345.527
346.083
346.731
347.344
347.817
348.036
347.636
347.881
347.771
347.309
346.827
346.335
345.52
344.657
343.746
342.534
341.617
340.646
337.192
337.994
338.67
339.117
339.649
340.148
340.634
340.763
340.363
340.617
340.582
340.14
339.783
339.323
338.677
337.931
337.145
336.049
335.291
334.551
330.568
331.194
331.681
332.063
332.532
332.919
333.328
333.467
333.047
333.311
333.293
332.936
332.653
332.279
331.738
331.174
330.459
329.518
328.908
328.37
323.893
324.311
324.647
325.001
325.366
325.648
325.972
326.086
325.728
325.954
325.921
325.663
325.461
325.155
324.774
324.313
323.745
323.001
322.51
322.086
317.084
317.37
317.597
317.913
318.161
318.329
318.611
318.685
318.375
318.565
318.555
318.355
318.269
317.985
317.75
317.427
316.988
316.449
316.107
315.796
310.272
310.438
310.575
310.805
310.927
310.98
311.199
311.231
310.99
311.128
311.177
311.03
311.001
310.794
310.686
310.483
310.226
309.911
309.679
309.481
303.459
303.501
303.561
303.626
303.675
303.686
303.77
303.783
303.679
303.713
303.75
303.7
303.658
303.609
303.579
303.528
303.452
303.345
303.252
303.154
351.762
352.705
353.657
354.375
355.184
355.813
356.373
356.349
356.311
356.417
356.087
355.934
355.439
354.791
353.704
352.818
351.56
350.305
348.712
348.005
345.05
345.873
346.682
347.261
347.918
348.524
349.039
349.022
348.935
349.051
348.764
348.617
348.247
347.686
346.685
345.909
344.85
343.785
342.347
341.822
338.244
338.942
339.609
340.085
340.612
341.164
341.598
341.639
341.49
341.572
341.354
341.214
340.975
340.506
339.622
338.959
338.042
337.171
335.897
335.486
331.38
331.947
332.437
332.865
333.324
333.769
334.145
334.193
333.921
334.077
333.916
333.793
333.644
333.257
332.551
331.996
331.222
330.465
329.415
329.159
324.438
324.951
325.289
325.628
325.984
326.298
326.581
326.685
326.383
326.559
326.434
326.327
326.251
325.954
325.379
324.971
324.379
323.73
322.885
322.768
317.507
317.894
318.11
318.352
318.616
318.808
319.008
319.142
318.875
319
318.928
318.848
318.8
318.557
318.133
317.893
317.454
316.982
316.327
316.304
310.54
310.76
310.889
311.054
311.194
311.317
311.408
311.544
311.357
311.407
311.367
311.323
311.303
311.123
310.867
310.723
310.507
310.229
309.788
309.772
303.525
303.59
303.657
303.704
303.765
303.81
303.824
303.881
303.81
303.811
303.821
303.805
303.778
303.736
303.659
303.586
303.524
303.424
303.274
303.269
353.062
353.841
354.968
355.805
356.72
357.365
357.93
358.051
357.975
358.032
357.777
357.469
356.8
356.229
355.105
354.181
352.972
351.61
350.158
349.274
346.181
346.836
347.756
348.504
349.311
349.867
350.372
350.443
350.383
350.431
350.212
350.005
349.41
348.922
347.931
347.103
346.056
344.874
343.604
342.905
339.242
339.744
340.494
341.158
341.818
342.296
342.779
342.754
342.757
342.778
342.564
342.409
341.926
341.543
340.672
339.94
339.121
338.066
336.994
336.381
332.212
332.636
333.194
333.757
334.276
334.658
335.089
335.02
334.986
335.047
334.876
334.729
334.389
334.076
333.365
332.756
332.122
331.239
330.3
329.855
325.142
325.448
325.845
326.324
326.739
326.993
327.347
327.292
327.238
327.277
327.153
326.987
326.792
326.524
326.011
325.549
325.073
324.355
323.583
323.327
317.994
318.203
318.507
318.851
319.174
319.301
319.553
319.539
319.419
319.541
319.413
319.294
319.157
318.903
318.642
318.301
318.002
317.439
316.854
316.723
310.8
310.976
311.135
311.323
311.535
311.599
311.734
311.75
311.652
311.771
311.654
311.577
311.457
311.329
311.204
310.995
310.85
310.492
310.09
310.09
303.615
303.691
303.718
303.8
303.866
303.901
303.942
303.942
303.903
303.967
303.904
303.908
303.848
303.79
303.765
303.685
303.65
303.537
303.382
303.374
354.428
355.423
356.242
357.274
358.37
358.853
359.344
359.536
359.67
359.456
359.308
358.754
358.223
357.572
356.65
355.647
354.538
353.009
351.82
350.441
347.32
348.168
348.891
349.809
350.735
351.146
351.567
351.74
351.818
351.667
351.535
351.033
350.639
350.076
349.214
348.396
347.467
346.086
345.068
343.874
340.165
340.85
341.433
342.237
343.017
343.379
343.732
343.912
343.95
343.846
343.683
343.242
342.971
342.48
341.699
341.028
340.311
339.123
338.233
337.234
332.947
333.524
333.985
334.609
335.212
335.567
335.887
336.02
336.031
335.961
335.766
335.432
335.239
334.864
334.194
333.641
333.072
332.108
331.324
330.534
325.707
326.135
326.422
326.956
327.452
327.695
327.956
328.046
328.054
328.013
327.84
327.601
327.478
327.157
326.665
326.207
325.758
325.048
324.398
323.797
318.4
318.747
318.877
319.277
319.594
319.806
319.973
320.044
320.071
320.055
319.879
319.72
319.66
319.419
319.117
318.76
318.436
317.932
317.427
317.046
311.056
311.302
311.306
311.591
311.734
311.928
311.974
312.015
312.078
312.046
311.926
311.869
311.816
311.683
311.501
311.293
311.069
310.775
310.42
310.285
303.723
303.795
303.792
303.891
303.916
303.996
304.014
304.026
304.06
304.022
303.976
303.995
303.962
303.917
303.884
303.802
303.71
303.613
303.478
303.47
355.511
356.678
357.519
358.702
359.665
360.224
360.746
361.157
361.277
361.095
360.705
360.178
359.602
358.944
358.166
357.193
355.91
354.388
352.954
351.561
348.236
349.242
349.979
350.995
351.868
352.301
352.811
353.145
353.288
353.109
352.748
352.331
351.827
351.277
350.584
349.721
348.564
347.304
346.051
344.84
340.919
341.729
342.347
343.27
344
344.325
344.796
345.127
345.191
345.058
344.748
344.373
343.979
343.521
342.928
342.21
341.153
340.156
339.101
338.022
333.57
334.13
334.675
335.474
336.047
336.332
336.742
337.024
337.051
336.972
336.683
336.375
336.107
335.678
335.232
334.624
333.731
332.973
332.079
331.203
326.169
326.556
326.992
327.642
328.09
328.307
328.652
328.811
328.883
328.849
328.607
328.308
328.193
327.813
327.486
326.97
326.296
325.727
324.997
324.306
318.745
319.022
319.277
319.788
320.105
320.238
320.498
320.572
320.661
320.626
320.482
320.231
320.186
319.891
319.672
319.311
318.802
318.419
317.868
317.395
311.295
311.464
311.586
311.908
312.085
312.13
312.327
312.362
312.406
312.375
312.327
312.147
312.142
311.95
311.823
311.62
311.302
311.071
310.717
310.455
303.797
303.843
303.904
303.988
304.053
304.071
304.128
304.138
304.153
304.146
304.13
304.056
304.082
303.991
303.982
303.906
303.779
303.707
303.591
303.517
356.705
357.721
359.005
359.977
360.97
361.479
361.972
362.479
362.616
362.716
362.346
361.751
361.122
360.315
359.535
358.346
357.07
356.071
354.36
352.818
349.332
350.153
351.23
352.115
353.006
353.438
353.868
354.316
354.472
354.538
354.134
353.67
353.141
352.411
351.767
350.699
349.598
348.782
347.241
345.937
341.859
342.483
343.41
344.212
344.972
345.321
345.678
346.035
346.232
346.288
345.876
345.552
345.1
344.427
343.93
342.952
342.072
341.343
340.045
338.983
334.315
334.825
335.557
336.251
336.884
337.18
337.479
337.734
337.913
337.934
337.562
337.373
337.003
336.413
335.983
335.163
334.504
333.864
332.844
331.955
326.739
327.136
327.712
328.243
328.759
328.997
329.223
329.402
329.561
329.541
329.219
329.127
328.848
328.338
328.006
327.371
326.901
326.38
325.607
324.883
319.133
319.445
319.816
320.255
320.587
320.777
320.909
321.035
321.112
321.118
320.904
320.836
320.635
320.272
320.013
319.571
319.239
318.891
318.293
317.803
311.491
311.712
311.904
312.245
312.418
312.465
312.556
312.647
312.695
312.679
312.574
312.509
312.395
312.198
312.031
311.775
311.542
311.374
311.007
310.728
303.854
303.928
303.972
304.109
304.159
304.164
304.216
304.23
304.237
304.236
304.213
304.2
304.142
304.099
304.037
303.941
303.862
303.825
303.71
303.61
357.889
359.244
360.108
361.408
362.519
362.867
363.447
363.733
363.953
363.872
363.608
363.064
362.67
361.91
360.885
359.673
358.365
357.13
355.487
353.927
350.306
351.482
352.227
353.374
354.386
354.671
355.085
355.358
355.571
355.574
355.294
354.806
354.449
353.81
352.969
351.917
350.73
349.685
348.28
346.914
342.659
343.65
344.296
345.267
346.16
346.333
346.675
346.916
347.13
347.174
346.89
346.466
346.178
345.607
344.927
344.034
342.991
342.104
340.964
339.83
334.978
335.76
336.255
337.076
337.834
337.967
338.226
338.462
338.672
338.682
338.429
338.111
337.832
337.338
336.841
336.083
335.208
334.487
333.586
332.66
327.249
327.79
328.246
328.852
329.471
329.56
329.766
329.954
330.111
330.16
329.939
329.703
329.443
329.076
328.724
328.097
327.438
326.851
326.155
325.43
319.506
319.85
320.212
320.615
321.076
321.135
321.293
321.386
321.519
321.548
321.407
321.252
321.046
320.816
320.537
320.096
319.647
319.154
318.703
318.206
311.758
311.908
312.141
312.367
312.677
312.706
312.795
312.831
312.918
312.91
312.862
312.767
312.625
312.501
312.344
312.06
311.818
311.489
311.249
310.983
303.937
303.989
304.062
304.143
304.249
304.262
304.302
304.286
304.321
304.321
304.309
304.276
304.224
304.183
304.128
304.061
303.967
303.838
303.766
303.682
359.294
360.454
361.435
362.713
363.333
364.076
364.63
365.099
365.082
365.118
364.733
364.353
363.928
363.043
362.142
361.06
359.512
358.195
356.638
355.04
351.567
352.535
353.391
354.492
354.99
355.693
356.154
356.579
356.527
356.647
356.241
355.957
355.564
354.827
354.04
353.035
351.738
350.606
349.278
347.876
343.766
344.537
345.287
346.236
346.585
347.204
347.637
347.973
347.929
348.078
347.683
347.5
347.137
346.529
345.806
345.001
343.877
342.926
341.802
340.628
335.853
336.522
337.113
337.95
338.155
338.689
339.053
339.333
339.294
339.411
339.07
338.972
338.615
338.16
337.552
336.866
335.965
335.189
334.245
333.345
327.891
328.413
328.902
329.571
329.695
330.136
330.399
330.603
330.611
330.654
330.425
330.419
330.049
329.721
329.25
328.737
327.992
327.399
326.671
325.961
319.933
320.296
320.683
321.142
321.244
321.555
321.751
321.856
321.892
321.903
321.758
321.773
321.499
321.245
320.892
320.569
320.011
319.597
319.053
318.567
311.945
312.174
312.421
312.73
312.784
312.976
313.079
313.12
313.145
313.156
313.104
313.102
312.888
312.778
312.551
312.377
312.036
311.787
311.43
311.184
303.975
304.086
304.149
304.278
304.282
304.366
304.406
304.4
304.417
304.417
304.385
304.385
304.314
304.3
304.221
304.148
304.044
303.959
303.835
303.774
360.221
361.174
362.364
363.592
364.326
365.138
365.725
366.358
366.366
366.272
366.031
365.551
365.115
364.283
363.294
361.961
360.44
359.322
357.665
356.289
352.326
353.158
354.195
355.233
355.858
356.585
357.124
357.688
357.686
357.581
357.39
356.949
356.586
355.859
355.023
353.806
352.54
351.582
350.14
348.945
344.35
345.084
345.948
346.837
347.336
347.939
348.428
348.973
348.953
348.808
348.712
348.302
347.944
347.347
346.657
345.634
344.572
343.781
342.572
341.53
336.369
336.944
337.618
338.415
338.763
339.275
339.671
340.149
340.148
340.028
339.925
339.616
339.302
338.802
338.211
337.416
336.553
335.854
334.913
334.038
328.336
328.744
329.28
329.966
330.19
330.586
330.9
331.271
331.259
331.197
331.091
330.888
330.634
330.232
329.709
329.149
328.481
327.899
327.203
326.525
320.277
320.547
320.935
321.483
321.609
321.899
322.071
322.362
322.33
322.326
322.216
322.119
321.938
321.603
321.206
320.854
320.35
319.953
319.469
319.002
312.206
312.341
312.564
312.923
312.994
313.161
313.264
313.424
313.401
313.439
313.349
313.292
313.191
312.969
312.734
312.54
312.229
311.988
311.663
311.455
304.099
304.135
304.223
304.316
304.353
304.403
304.431
304.495
304.492
304.495
304.471
304.442
304.418
304.365
304.277
304.211
304.104
304.028
303.909
303.861
361.193
362.208
363.361
364.711
365.362
366.397
366.762
367.55
367.545
367.341
366.953
366.677
366.097
365.276
364.251
362.904
361.482
360.141
358.612
357.126
353.222
354.027
355.027
356.226
356.773
357.707
358.012
358.702
358.681
358.553
358.191
357.943
357.426
356.716
355.849
354.667
353.393
352.321
350.948
349.699
345.225
345.748
346.662
347.683
348.123
348.914
349.194
349.773
349.752
349.666
349.381
349.151
348.725
348.051
347.367
346.344
345.27
344.359
343.211
342.164
337.107
337.49
338.224
339.022
339.432
340.055
340.329
340.811
340.772
340.673
340.458
340.296
339.957
339.343
338.826
337.98
337.092
336.341
335.397
334.557
328.93
329.162
329.735
330.376
330.73
331.184
331.409
331.801
331.737
331.65
331.534
331.4
331.126
330.646
330.19
329.615
328.909
328.274
327.531
326.92
320.719
320.871
321.23
321.72
321.983
322.315
322.438
322.738
322.703
322.64
322.563
322.448
322.295
321.91
321.57
321.194
320.676
320.264
319.715
319.268
312.46
312.531
312.735
313.046
313.211
313.425
313.463
313.648
313.627
313.616
313.534
313.502
313.425
313.173
312.951
312.747
312.395
312.165
311.832
311.593
304.165
304.207
304.279
304.372
304.444
304.5
304.501
304.589
304.567
304.574
304.572
304.531
304.491
304.422
304.32
304.277
304.158
304.093
303.958
303.87
362.03
363.102
364.214
365.522
366.379
367.255
367.815
368.376
368.375
368.223
368.059
367.515
367.138
366.129
365.278
363.983
362.503
361.015
359.352
357.819
353.979
354.855
355.801
356.93
357.684
358.433
358.93
359.426
359.462
359.291
359.142
358.688
358.349
357.487
356.766
355.631
354.339
352.969
351.589
350.287
345.825
346.548
347.26
348.251
348.904
349.602
349.937
350.393
350.445
350.304
350.124
349.789
349.527
348.765
348.173
347.228
346.13
344.885
343.779
342.731
337.575
338.18
338.748
339.536
340.084
340.664
340.943
341.304
341.386
341.234
341.052
340.782
340.635
339.949
339.54
338.719
337.821
336.79
335.89
335.1
329.274
329.739
330.145
330.816
331.22
331.687
331.928
332.193
332.198
332.083
331.94
331.743
331.713
331.104
330.784
330.17
329.484
328.646
327.953
327.407
320.927
321.261
321.527
322.06
322.319
322.693
322.84
323.032
322.999
322.926
322.847
322.688
322.725
322.225
321.991
321.562
321.108
320.465
319.988
319.646
312.575
312.73
312.934
313.25
313.408
313.645
313.722
313.833
313.813
313.782
313.72
313.606
313.673
313.371
313.22
312.944
312.696
312.271
311.981
311.834
304.216
304.259
304.332
304.457
304.503
304.569
304.601
304.659
304.621
304.619
304.607
304.564
304.586
304.505
304.436
304.339
304.247
304.112
304.013
303.971
362.642
363.91
365.024
366.196
367.357
368.049
368.72
369.136
369.294
369.085
368.931
368.229
367.848
366.967
366.058
364.807
363.222
361.724
360.102
358.912
354.457
355.491
356.475
357.505
358.561
359.116
359.701
360.07
360.219
360.034
359.887
359.333
358.966
358.218
357.417
356.373
354.991
353.662
352.238
351.252
346.218
347.053
347.897
348.76
349.637
350.131
350.604
350.943
351.088
350.928
350.794
350.351
349.989
349.366
348.713
347.825
346.672
345.447
344.294
343.499
337.924
338.559
339.248
339.947
340.697
341.101
341.442
341.725
341.886
341.725
341.605
341.3
340.961
340.453
340.001
339.228
338.264
337.245
336.34
335.706
329.607
330.047
330.566
331.103
331.698
331.965
332.205
332.524
332.62
332.471
332.415
332.158
331.899
331.491
331.164
330.517
329.841
329.009
328.344
327.858
321.189
321.49
321.856
322.272
322.67
322.873
323.004
323.287
323.32
323.167
323.195
323.029
322.833
322.488
322.305
321.821
321.318
320.742
320.284
319.945
312.716
312.938
313.147
313.401
313.602
313.726
313.838
313.983
314.005
313.904
313.956
313.827
313.724
313.494
313.438
313.098
312.798
312.479
312.191
311.977
304.279
304.319
304.404
304.501
304.558
304.592
304.625
304.673
304.693
304.653
304.677
304.644
304.596
304.512
304.514
304.393
304.293
304.159
304.087
304.014
363.311
364.59
365.654
367.008
367.967
368.663
369.501
369.806
369.889
369.876
369.838
369.194
368.424
367.69
366.636
365.415
364.017
362.486
360.663
359.595
355.027
356.12
357.004
358.184
359.072
359.678
360.387
360.621
360.744
360.732
360.713
360.174
359.454
358.855
357.921
356.857
355.654
354.3
352.742
351.85
346.673
347.577
348.308
349.303
350.119
350.633
351.184
351.376
351.528
351.52
351.506
351.071
350.388
349.953
349.129
348.253
347.237
346.052
344.78
343.961
338.272
338.991
339.557
340.376
341.096
341.49
341.936
342.048
342.212
342.249
342.181
341.896
341.284
340.938
340.28
339.591
338.749
337.739
336.741
336.033
329.796
330.357
330.833
331.47
331.983
332.294
332.644
332.75
332.86
332.877
332.804
332.642
332.157
331.896
331.365
330.861
330.195
329.403
328.642
328.056
321.32
321.746
322.03
322.522
322.837
323.106
323.336
323.488
323.537
323.498
323.482
323.33
322.989
322.814
322.422
322.068
321.613
321.038
320.509
320.079
312.842
313.065
313.241
313.57
313.729
313.873
314.029
314.15
314.165
314.144
314.123
314.045
313.846
313.697
313.447
313.228
312.979
312.659
312.319
312.05
304.303
304.388
304.434
304.549
304.61
304.654
304.691
304.751
304.741
304.742
304.745
304.72
304.656
304.583
304.479
304.431
304.333
304.247
304.122
304.03
364.031
365.084
366.437
367.488
368.611
369.301
370.123
370.414
370.442
370.623
370.366
369.744
369.121
368.372
367.119
366.018
364.73
362.995
361.439
360.148
355.633
356.55
357.735
358.583
359.588
360.199
360.964
361.195
361.199
361.346
361.153
360.604
360.07
359.462
358.307
357.395
356.239
354.756
353.445
352.357
347.177
347.921
348.907
349.642
350.515
351.031
351.706
351.859
351.91
352.016
351.871
351.398
350.912
350.435
349.412
348.648
347.667
346.456
345.366
344.429
338.644
339.256
340.07
340.665
341.418
341.835
342.361
342.439
342.524
342.655
342.483
342.144
341.734
341.351
340.473
339.852
339.073
338.048
337.181
336.473
330.09
330.566
331.213
331.695
332.274
332.607
333.002
333.037
333.132
333.217
333.063
332.796
332.536
332.179
331.53
331.085
330.436
329.641
328.971
328.451
321.507
321.847
322.287
322.666
323.061
323.384
323.617
323.643
323.701
323.749
323.611
323.415
323.294
323.034
322.55
322.23
321.76
321.197
320.717
320.36
312.943
313.121
313.39
313.661
313.821
314.11
314.198
314.195
314.234
314.246
314.217
314.077
313.975
313.838
313.587
313.352
313.094
312.731
312.457
312.233
304.346
304.389
304.476
304.585
304.639
304.735
304.756
304.739
304.784
304.758
304.786
304.707
304.691
304.651
304.558
304.459
304.39
304.258
304.168
304.101
364.331
365.425
366.889
368.14
369
369.958
370.692
370.892
370.938
370.835
370.694
370.214
369.699
368.941
367.78
366.386
364.96
363.61
362.011
360.473
355.922
356.805
358.101
359.182
359.905
360.781
361.404
361.559
361.624
361.516
361.384
360.99
360.565
359.951
358.873
357.668
356.489
355.305
353.895
352.619
347.401
348.115
349.233
350.137
350.757
351.519
352.095
352.217
352.252
352.13
352.036
351.676
351.351
350.868
349.905
348.96
347.899
346.935
345.693
344.643
338.826
339.431
340.339
341.073
341.599
342.277
342.734
342.784
342.816
342.698
342.597
342.368
342.102
341.712
340.855
340.177
339.252
338.492
337.455
336.571
330.252
330.743
331.444
331.974
332.431
332.996
333.35
333.331
333.336
333.265
333.176
333.042
332.815
332.511
331.819
331.327
330.588
329.994
329.159
328.472
321.639
322.038
322.502
322.855
323.186
323.657
323.878
323.854
323.823
323.795
323.707
323.649
323.488
323.27
322.763
322.429
321.874
321.458
320.828
320.415
313.024
313.247
313.529
313.718
313.917
314.204
314.361
314.328
314.328
314.323
314.223
314.232
314.12
313.996
313.698
313.481
313.158
312.874
312.516
312.307
304.365
304.446
304.526
304.59
304.653
304.756
304.804
304.79
304.807
304.813
304.775
304.771
304.731
304.68
304.576
304.504
304.408
304.305
304.204
304.121
364.537
365.749
367.089
368.488
369.387
370.273
370.981
371.172
371.406
371.31
371.239
370.732
370.146
369.369
368.135
367.053
365.573
364.116
362.359
360.769
356.088
357.096
358.291
359.44
360.284
361.03
361.713
361.847
362.043
361.921
361.864
361.418
360.982
360.285
359.194
358.273
356.982
355.753
354.236
352.841
347.508
348.401
349.378
350.362
351.143
351.719
352.391
352.469
352.629
352.481
352.451
352.024
351.707
351.154
350.184
349.405
348.307
347.329
346.035
344.832
338.946
339.641
340.404
341.239
341.936
342.34
342.975
343
343.142
343.024
342.972
342.6
342.367
341.956
341.128
340.471
339.558
338.83
337.731
336.768
330.331
330.861
331.46
332.1
332.687
332.989
333.503
333.475
333.601
333.518
333.5
333.125
332.96
332.667
332.055
331.495
330.769
330.215
329.393
328.634
321.668
322.05
322.517
322.951
323.375
323.594
323.935
323.979
324.042
323.954
323.978
323.668
323.561
323.335
322.915
322.502
321.968
321.62
321.056
320.467
313.008
313.247
313.511
313.782
314.018
314.194
314.4
314.414
314.46
314.385
314.401
314.226
314.16
314.053
313.759
313.537
313.223
313.011
312.656
312.304
304.362
304.442
304.54
304.628
304.712
304.767
304.837
304.823
304.85
304.808
304.816
304.758
304.734
304.731
304.593
304.534
304.443
304.355
304.25
304.129
364.542
365.722
367.143
368.596
369.494
370.263
371.152
371.68
371.625
371.651
371.393
371.028
370.268
369.417
368.475
367.4
365.95
364.275
362.612
361.036
356.132
357.094
358.335
359.592
360.401
360.993
361.851
362.299
362.221
362.239
361.994
361.702
361.052
360.324
359.498
358.537
357.309
355.867
354.416
353.075
347.65
348.393
349.493
350.505
351.25
351.71
352.434
352.861
352.76
352.765
352.551
352.26
351.756
351.167
350.443
349.613
348.631
347.403
346.165
345.028
339.092
339.666
340.579
341.348
342.015
342.379
342.938
343.352
343.226
343.25
343.064
342.791
342.44
341.952
341.298
340.655
339.874
338.842
337.823
336.915
330.474
330.91
331.631
332.194
332.761
333.011
333.461
333.782
333.69
333.693
333.568
333.334
333.09
332.667
332.178
331.63
331.041
330.253
329.445
328.727
321.791
322.112
322.623
323.013
323.459
323.572
323.918
324.153
324.078
324.105
324.013
323.829
323.669
323.362
323.004
322.595
322.171
321.649
321.051
320.527
313.079
313.271
313.624
313.818
314.119
314.166
314.378
314.507
314.437
314.476
314.437
314.309
314.243
314.022
313.822
313.583
313.331
313.057
312.66
312.314
304.384
304.448
304.579
304.63
304.725
304.74
304.811
304.864
304.843
304.848
304.83
304.821
304.767
304.703
304.626
304.548
304.487
304.401
304.256
304.132
364.745
366.075
367.35
368.593
369.567
370.435
371.435
371.898
371.874
371.772
371.446
371.164
370.452
369.564
368.417
367.05
365.924
364.302
362.648
361.164
356.274
357.419
358.509
359.529
360.405
361.196
362.055
362.515
362.439
362.332
362.061
361.819
361.241
360.443
359.475
358.232
357.338
355.894
354.445
353.176
347.714
348.726
349.628
350.461
351.198
351.904
352.578
353.017
352.957
352.812
352.579
352.38
351.968
351.248
350.426
349.35
348.656
347.415
346.145
345.111
339.132
339.948
340.694
341.318
341.935
342.537
343.077
343.432
343.438
343.255
343.118
342.91
342.59
342.004
341.327
340.463
339.867
338.872
337.804
337.019
330.478
331.103
331.688
332.159
332.627
333.12
333.562
333.861
333.811
333.656
333.57
333.414
333.18
332.723
332.163
331.566
331.027
330.271
329.385
328.834
321.756
322.24
322.674
322.992
323.361
323.679
324.021
324.216
324.163
324.026
324.031
323.862
323.715
323.395
322.963
322.574
322.166
321.665
320.973
320.609
313.083
313.378
313.617
313.795
314.052
314.216
314.467
314.596
314.518
314.421
314.467
314.365
314.247
314.08
313.743
313.557
313.349
313.089
312.613
312.371
304.407
304.475
304.549
304.628
304.717
304.77
304.856
304.9
304.873
304.83
304.852
304.824
304.791
304.73
304.593
304.559
304.479
304.401
304.226
304.147
364.834
366.09
367.439
368.65
369.544
370.607
371.4
372.118
371.935
371.968
371.732
370.977
370.609
369.841
368.73
367.124
366.051
364.29
362.643
361.288
356.314
357.394
358.606
359.648
360.383
361.341
362.016
362.693
362.541
362.479
362.276
361.669
361.364
360.722
359.731
358.348
357.388
355.862
354.487
353.305
347.727
348.63
349.682
350.58
351.193
351.99
352.519
353.158
353.057
352.933
352.749
352.305
352.045
351.516
350.607
349.514
348.669
347.358
346.249
345.238
339.104
339.801
340.675
341.473
341.942
342.591
343.03
343.564
343.49
343.328
343.183
342.901
342.668
342.213
341.465
340.603
339.938
338.804
337.91
337.129
330.449
330.988
331.647
332.331
332.626
333.19
333.501
333.915
333.898
333.767
333.591
333.444
333.241
332.857
332.307
331.673
331.109
330.243
329.517
328.938
321.79
322.2
322.631
323.201
323.284
323.744
323.987
324.283
324.247
324.156
323.979
323.926
323.809
323.52
323.037
322.7
322.272
321.62
321.116
320.709
313.081
313.374
313.625
313.973
313.966
314.289
314.431
314.62
314.558
314.504
314.434
314.378
314.335
314.139
313.825
313.654
313.414
312.994
312.683
312.466
304.396
304.487
304.57
304.665
304.674
304.797
304.831
304.916
304.859
304.856
304.836
304.811
304.832
304.739
304.631
304.589
304.496
304.36
304.253
304.192
)
;

boundaryField
{
    hotSide
    {
        type            fixedGradient;
        gradient        nonuniform List<scalar> 
400
(
498.539
514.472
529.983
545.002
559.461
573.291
586.428
598.807
610.366
621.049
630.799
639.568
647.308
653.979
659.545
663.976
667.248
669.341
670.245
669.954
510.022
526.395
542.339
557.782
572.654
586.886
600.409
613.158
625.07
636.084
646.146
655.201
663.204
670.111
675.886
680.497
683.92
686.134
687.127
686.894
520.011
536.779
553.112
568.937
584.182
598.776
612.649
625.734
637.966
649.283
659.628
668.947
677.191
684.317
690.287
695.067
698.633
700.963
702.045
701.873
528.453
545.567
562.242
578.404
593.978
608.892
623.076
636.459
648.976
660.564
671.164
680.72
689.184
696.509
702.656
707.593
711.293
713.734
714.903
714.792
535.305
552.715
569.683
586.133
601.991
617.182
631.634
645.276
658.042
669.867
680.69
690.455
699.113
706.615
712.923
718.002
721.825
724.369
725.622
725.575
540.543
558.196
575.405
592.094
608.187
623.608
638.285
652.145
665.12
677.145
688.159
698.104
706.928
714.585
721.034
726.239
730.173
732.813
734.144
734.16
544.153
561.994
579.392
596.268
612.547
628.151
643.006
657.04
670.185
682.373
693.542
703.635
712.598
720.385
726.953
732.268
736.299
739.025
740.43
740.506
546.135
564.11
581.642
598.653
615.065
630.803
645.79
659.954
673.226
685.537
696.826
707.034
716.107
723.997
730.663
736.068
740.182
742.984
744.456
744.591
546.501
564.552
582.164
599.256
615.75
631.571
646.643
660.891
674.247
686.642
698.013
708.302
717.454
725.422
732.161
737.637
741.819
744.684
746.216
746.406
545.271
563.343
580.978
598.097
614.622
630.476
645.583
659.87
673.266
685.704
697.119
707.454
716.654
724.671
731.46
736.987
741.22
744.136
745.719
745.959
542.476
560.513
578.116
595.208
611.711
627.547
642.641
656.92
670.312
682.751
694.174
704.52
713.736
721.773
728.587
734.143
738.41
741.364
742.989
743.275
538.154
556.1
573.617
590.629
607.057
622.825
637.857
652.081
665.427
677.826
689.216
699.538
708.738
716.767
723.582
729.146
733.429
736.407
738.064
738.391
532.352
550.151
567.528
584.406
600.708
616.358
631.282
645.405
658.66
670.979
682.299
692.562
701.713
709.705
716.495
722.045
726.327
729.315
730.995
731.355
525.121
542.72
559.904
576.597
592.723
608.206
622.973
636.951
650.073
662.271
673.483
683.652
692.723
700.65
707.39
712.905
717.167
720.152
721.843
722.231
516.519
533.866
550.806
567.263
583.164
598.433
612.997
626.787
639.733
651.771
662.839
672.88
681.841
689.675
696.339
701.799
706.024
708.991
710.683
711.091
506.61
523.655
540.301
556.475
572.103
587.112
601.43
614.989
627.72
639.56
650.448
660.328
669.148
676.862
683.428
688.811
692.981
695.916
697.599
698.022
495.463
512.157
528.463
544.307
559.617
574.322
588.353
601.64
614.117
625.723
636.397
646.085
654.736
662.304
668.748
674.034
678.133
681.023
682.687
683.117
483.153
499.451
515.371
530.841
545.792
560.152
573.854
586.831
599.019
610.356
620.784
630.25
638.704
646.102
652.403
657.573
661.585
664.417
666.053
666.484
469.757
485.618
501.111
516.167
530.717
544.694
558.031
570.662
582.526
593.562
603.715
612.931
621.163
628.366
634.504
639.541
643.451
646.213
647.812
648.238
455.362
470.747
485.774
500.378
514.491
528.049
540.985
553.238
564.746
575.452
585.301
594.242
602.228
609.217
615.172
620.06
623.855
626.536
628.089
628.504
)
;
    }
    coldSide
    {
        type            mixed;
        refValue        uniform 300;
        refGradient     uniform 0;
        valueFraction   uniform 0.991591;
        source          uniform 0;
        value           nonuniform List<scalar> 
400
(
300.028
300.029
300.03
300.03
300.031
300.032
300.032
300.033
300.033
300.034
300.035
300.035
300.036
300.036
300.037
300.037
300.037
300.037
300.037
300.037
300.029
300.029
300.03
300.031
300.032
300.032
300.033
300.034
300.034
300.035
300.035
300.036
300.036
300.037
300.037
300.037
300.037
300.037
300.038