/*--------------------------------*- C++ -*----------------------------------*\
| =========                 |                                                 |
| \\      /  F ield         | OpenFOAM: The Open Source CFD Toolbox           |
|  \\    /   O peration     | Version:  2212                                  |
|   \\  /    A nd           | Website:  www.openfoam.com                      |
|    \\/     M anipulation  |                                                 |
\*---------------------------------------------------------------------------*/
FoamFile
{
    version     2.0;
    format      ascii;
    arch        "LSB;label=32;scalar=64";
    class       volScalarField;
    location    "./ITHACAoutput/true/5";
    object      error;
}
// * * * * * * * * * * * * * * * * * * * * * * * * * * * * * * * * * * * * * //

dimensions      [0 0 0 1 0 0 0];

internalField   nonuniform List<scalar> 
3200
(
-3.30855
-3.32348
-0.923897
2.46566
4.21844
3.04897
3.15768
3.37479
2.33199
3.78635
3.0717
4.21145
2.87171
4.30526
5.05009
5.96219
1.91001
1.18701
0.280255
-4.30874
-2.15299
-2.54349
-1.40973
2.43514
0.629428
3.7481
2.11771
4.20157
3.43354
4.76521
3.49789
4.85871
2.06258
3.24679
3.11938
2.47748
-0.194901
1.43802
-1.29873
-1.61897
-3.04377
-0.587386
-0.902996
-0.0309122
3.60933
0.270899
2.30702
1.99021
2.51666
2.93352
1.57479
3.21222
2.72233
2.4462
3.03424
1.25201
1.59107
1.23437
-1.55188
-0.759485
-3.93417
-0.384738
-0.706613
4.11149
0.878632
1.7527
0.678058
0.770596
2.13427
0.545124
2.57641
1.75387
1.83753
2.77051
0.75089
2.17723
0.266361
1.28793
-1.1132
-2.37237
-1.26585
-2.49154
-1.82445
0.332725
0.53674
1.24229
0.046347
1.61134
-0.408133
1.62838
1.87708
1.83558
0.73675
2.64021
0.606325
1.25416
-0.343256
-0.164332
-1.27165
-1.03609
-0.815918
-1.83538
-1.03791
1.77499
-0.547081
1.87758
1.15364
-0.622441
-0.267342
3.05762
-0.0698755
1.38153
3.33772
1.98341
0.407009
-2.32064
0.898925
0.478601
-0.0927436
-0.293682
-2.5389
-0.661459
-1.74726
-0.233794
2.81632
-2.11853
0.419884
-0.770418
-1.4801
-1.0853
-0.372631
-1.06638
0.905695
0.981614
0.552051
1.66044
1.59161
1.009
-0.518384
-1.08128
0.872321
0.983431
-0.426672
1.49885
-0.991461
-0.42296
-1.6169
0.992221
1.27408
0.640309
-1.39395
1.26876
-0.815089
0.847036
0.825254
0.692217
1.2829
-2.13291
0.384439
0.643246
-3.02126
0.380736
-1.20073
1.38918
1.81964
2.73186
3.80859
4.07279
4.22718
4.56607
3.85622
4.63755
2.21794
3.86524
3.38709
2.25983
3.74869
-0.69249
-1.27384
-0.738277
-3.66171
0.007244
1.34576
-0.361928
1.9345
-0.035263
3.66169
0.12698
1.96542
0.258766
0.247846
3.29684
0.58011
1.68197
-0.118313
3.07508
-0.163749
2.33527
0.0243337
-2.96384
-2.8038
-1.15153
-1.18261
-0.965754
0.444843
1.02094
1.00962
2.10861
2.7475
3.2626
2.62819
1.47738
2.69924
4.22949
3.46811
1.37887
0.909772
2.09215
-1.65671
-0.88193
0.46075
-2.24473
0.365132
0.637745
1.40377
0.725794
3.46068
2.66677
2.13372
2.06339
1.12104
3.0597
1.58168
0.506996
2.3037
1.95471
0.935247
0.574639
-3.79719
-0.830097
-3.17562
-0.0616257
0.283589
0.018336
2.2854
3.4861
1.49888
2.2993
2.61766
1.78431
0.273677
-0.963193
0.310786
-0.652146
-0.985385
-1.72746
1.15673
0.819949
0.484593
-4.29879
-2.12726
-3.30029
0.706726
0.0286319
2.24534
2.26285
2.18168
0.720212
0.706561
0.158308
1.20665
1.31417
1.83535
1.80764
0.125756
1.4392
2.02836
-3.67465
-1.4219
-2.10804
-0.0085356
-0.0610549
1.16818
0.546321
2.64802
0.444578
1.42797
-0.272459
0.216317
2.648
1.56253
1.62638
1.79085
1.4662
1.03917
0.968279
-1.50046
1.34384
1.59724
-0.0848245
1.82037
0.377793
-0.189555
-1.2159
-0.373173
2.0216
-0.374011
1.35111
0.62752
0.0662564
0.148409
0.45514
-0.0814284
1.71386
1.21521
-1.44821
2.20874
0.147872
-0.876655
-0.981064
-3.53126
-3.87892
0.713144
2.61465
2.08414
4.17812
3.51231
2.71428
2.83828
3.55398
1.122
3.81091
4.91766
4.6437
3.23721
3.32507
1.69288
-0.16073
-1.21226
-0.380227
-3.05073
-1.11614
0.619848
0.0222929
3.65327
2.41764
2.64437
0.517848
1.67709
0.783356
1.75273
0.164675
3.12384
0.707983
1.30296
0.411031
1.73737
-1.04559
-0.868491
-2.60946
-1.82088
-2.1773
-1.42749
-0.862862
-0.634662
1.35394
3.22425
2.34361
-0.871898
-1.83024
2.19831
2.86967
2.49094
3.46811
0.337751
1.35581
1.77914
0.0950694
-2.48279
-0.593585
-2.10184
0.233568
-2.64294
-0.0506279
0.0629925
1.61695
2.80276
1.14538
0.238187
3.24734
3.54893
1.51611
-0.936954
3.67225
0.478698
2.97838
-0.492591
-0.605805
-0.455604
-1.87833
-3.40473
-0.184429
0.888881
0.729567
-0.721646
-0.861145
2.36265
0.763168
-0.675046
1.30688
-0.0602244
-0.144281
-0.280312
0.746813
3.44506
-1.91005
0.911942
-1.01173
-1.23896
-0.838538
1.09722
-0.422037
-0.167802
-0.900031
2.14066
0.467781
-0.136796
-0.797517
2.10834
1.93138
0.834765
1.0508
-1.60942
0.857158
-0.148247
2.22981
1.53966
2.14424
0.0635927
-0.908836
-1.15627
0.67551
0.830082
-1.5888
2.00002
-1.14354
1.68864
2.51917
0.615045
0.155889
1.26161
0.079986
-0.614946
-0.196541
0.371913
-0.612947
0.585551
-2.52404
-3.25508
-1.79765
-0.241951
0.996226
2.12129
-0.912422
-0.0977234
-1.04776
0.103523
-1.42598
-0.147829
0.919615
1.26241
-0.521849
-1.2698
0.902728
-1.83249
1.07166
0.829271
0.263029
1.91933
-1.47245
-4.66696
-3.23704
-0.697472
2.42246
1.19411
2.10391
0.76
4.00193
3.89806
1.83337
2.47401
0.972183
0.874917
2.32091
3.60154
4.57078
0.997315
1.6703
0.390554
-1.72195
-3.80935
0.314605
0.0568912
0.896991
3.41894
-0.387875
2.41337
-0.150884
1.71812
-0.172034
0.188256
2.27379
0.386323
0.665152
-0.252525
1.96573
0.345372
-1.50754
0.135118
-2.81186
-3.27044
-1.8633
-1.55659
-0.097116
1.38398
0.63488
3.47282
0.925795
-2.13392
1.08771
2.93221
1.86158
2.82748
2.33928
-0.0662404
1.4076
1.86447
-2.20765
-0.841796
-0.136762
-2.00554
-2.89244
-0.22064
0.565996
0.829469
1.63891
0.229779
1.05839
-0.17008
0.587258
0.403368
1.1903
-0.874784
0.42072
2.0905
1.24303
2.86015
-0.15441
-0.309725
0.0761684
1.50119
-1.94205
-0.802019
2.48311
-0.198418
-0.44953
0.497302
0.72272
0.229166
1.68027
1.31093
0.39478
-0.979324
1.29928
0.645242
1.14639
-0.32499
-0.599187
-1.0972
-1.56603
-1.89635
-1.43605
-1.11676
-1.6279
-2.52123
1.09037
1.16982
0.619232
0.768575
-0.173747
0.637638
0.527526
-0.904364
1.17456
2.2603
1.3195
2.10987
-1.90785
0.173012
1.09277
-1.05993
-1.13985
1.09523
0.385793
-0.461761
-1.36604
0.680496
0.355513
-0.858546
0.792867
2.91336
-0.370495
0.577541
1.61342
-2.09642
2.81163
-2.25105
-0.739907
0.0877427
-2.627
0.673947
0.202073
-1.37951
-0.141807
0.880648
-1.28516
0.703423
2.18212
0.504944
-2.04428
-0.45047
1.31385
0.752772
0.21299
-2.18855
-0.295128
0.0194168
0.11086
-0.619488
-1.41082
-5.09374
-2.42986
1.02099
0.703214
3.49512
0.0272988
2.58468
1.19209
2.58243
-0.9373
-0.393464
1.69531
0.197811
2.48549
0.572639
0.153049
2.54343
-0.56655
0.0406844
-2.45667
-5.74064
-4.38351
-0.789373
1.95269
2.88112
3.13044
2.53785
-1.59392
0.598735
0.57207
-0.556267
4.14964
0.703614
1.57191
-0.741329
2.43365
0.43108
0.815023
-1.90877
-3.30628
-3.90816
-4.5032
-1.20886
1.34027
1.11756
1.63777
-0.298454
2.14265
0.685371
0.693519
1.86504
-0.330081
1.07187
1.93946
1.93826
0.667998
-1.3689
-0.999489
-1.20688
-2.23224
-2.22383
-3.79453
-0.641871
1.21514
0.339191
0.687301
0.902824
1.19728
-1.85136
1.87199
0.872377
-1.81924
1.70636
0.913666
-0.10947
-1.7031
-1.80265
1.6504
-1.94548
-2.6003
-2.18814
0.300983
0.450872
0.146259
1.89457
-0.439708
0.322342
0.0889251
2.02719
-0.540436
0.19608
0.699198
1.02826
1.83507
-0.331719
0.664608
1.10216
0.494405
-0.91747
-2.66063
-2.74568
-0.546276
0.00785959
-0.476548
-1.34696
-0.320581
1.39872
0.223099
0.285229
-2.04395
-1.72788
-1.01134
0.45551
1.04534
0.918538
-0.781332
-0.114321
0.590911
-2.52304
-1.86245
-0.18543
-0.688081
-1.42971
0.921039
-0.252814
-1.20914
0.534352
1.51361
-1.11313
0.315534
-0.750421
0.767698
2.3581
0.569434
-0.414961
-0.235696
-0.311145
1.47268
-0.359958
-0.921511
-1.30236
1.66634
-1.92076
-0.375
-1.80736
-1.36718
-1.15965
-0.586906
-2.24849
0.977699
0.255165
-0.40626
1.72417
0.187637
-0.339535
-0.414473
1.61498
0.920304
0.287687
0.075484
-3.19226
-2.92258
-1.20751
-0.230288
2.97282
0.763426
1.19159
-0.543833
0.106382
0.231578
-1.10563
1.94303
-0.988181
-0.338132
3.15009
0.859246
2.14996
0.12295
-2.4409
-0.90922
-2.58711
-0.503081
-1.05755
0.442361
0.298406
0.251526
2.03285
0.157513
1.19939
-0.0868935
0.283954
-0.337942
0.0410156
0.0583883
-1.00335
1.74845
-0.191113
-0.294544
0.0131694
-2.41727
-5.40747
-0.385473
-1.39795
0.882582
0.113244
1.28675
0.464563
2.7309
0.603193
-0.352802
0.0979762
1.9151
-1.77975
1.03169
0.827718
-0.792832
1.54997
1.5443
-0.667061
-5.06018
-2.58361
-3.22398
-2.8245
-0.715331
-1.76565
0.40572
0.17256
-0.739341
0.900955
-1.06177
1.52893
-1.01476
-1.20278
0.138947
-0.823083
0.125465
-0.964391
-0.638681
-1.79287
-0.804091
-3.47774
-1.66433
-0.173135
-0.747745
-0.118004
-1.66207
0.27827
-0.385892
0.341833
-1.36486
0.105109
-0.00837134
-1.09761
-0.490013
0.0198573
-0.650925
2.85107
-0.16141
-0.704344
-1.17223
-1.21709
-3.14188
1.13141
0.596922
-0.184337
0.835771
0.894107
1.02393
-1.03908
0.135527
-0.505974
-1.10697
0.474747
0.257745
1.55717
-1.15653
0.0961191
-1.99932
-1.27211
-2.24525
-3.00213
-3.16981
3.49899
-0.468786
-1.73272
-0.486934
0.605998
1.36099
-1.491
1.54963
1.98773
-3.05145
-0.109315
2.23749
0.425413
-2.27433
0.423356
-1.78211
-0.79507
-0.145565
2.17935
0.630967
-0.503465
-0.94165
1.67067
0.760786
-1.74627
-0.882939
0.214131
-0.359106
0.894337
-0.17806
-0.203352
0.353447
-0.130083
0.705284
0.176908
-2.03019
0.345203
-0.5453
-4.59915
-4.50492
-1.34545
1.90037
-1.05634
0.750406
-1.31124
-1.46697
-1.93698
-1.00151
-0.687969
-0.779559
0.165273
0.101051
0.875948
2.84596
0.242875
-0.771747
-1.51878
-3.21858
-5.62516
-3.9246
-0.70396
-0.775337
-1.00889
0.729606
-0.110228
-0.50572
0.427446
0.164683
-0.817997
-1.10992
-1.58117
-0.256122
2.0869
1.95076
-0.558167
0.201645
-2.36625
-3.43822
-4.03208
-4.30283
-0.644399
-0.94802
0.469361
1.26642
-0.814325
0.0987269
0.135105
0.00478187
-1.20635
0.402872
-1.99682
-0.090576
-1.02318
-0.611411
0.650858
-1.37249
0.337425
-2.56063
-3.81186
-1.80717
-2.1294
0.648251
-2.20066
-1.92765
-0.932391
0.10647
-1.20765
0.875167
2.21766
-0.490171
-1.1303
0.314969
-0.54175
-0.164941
0.0427258
1.56215
-1.6483
-3.07008
-3.18752
-2.17833
-1.13542
0.679635
-0.780256
-1.1192
-1.61728
-1.49177
-1.32419
-1.32382
-0.604645
0.0756976
1.94889
-0.779176
-0.0588722
1.72753
-1.17046
-1.89397
-0.651901
-0.620383
-2.31719
2.05372
0.208719
-3.43752
1.4043
1.5885
-0.23699
0.524067
-0.835416
-0.950851
-0.212923
-2.12091
1.82231
-0.76387
0.698087
-0.536902
-0.570651
0.180804
-1.63691
-1.08172
-2.16672
0.728869
-0.646852
2.64528
-0.555535
1.02414
-1.37905
-2.51839
0.441332
0.494864
1.19915
-0.65151
-2.06971
-0.817456
-0.283585
-0.623391
-0.782781
-0.403019
0.84548
2.22097
0.377559
0.183176
0.809088
0.577779
0.362497
0.248354
-1.34979
-0.871883
0.271775
-0.333401
1.04566
0.0753612
1.19733
0.76352
-1.08822
-0.176217
-0.0350484
-0.285193
0.0497778
-1.98581
-4.75217
-3.33899
-3.65343
-1.0908
-1.39826
-1.09638
-2.48631
-0.763406
-3.5541
0.127794
-1.03521
-0.242272
-1.0476
-0.783333
-0.351316
0.12807
-0.74453
-1.87435
-0.613887
-4.17104
-4.2094
-0.401762
-2.22038
0.297141
-0.0271413
0.136824
-0.607894
-0.0805433
-0.148832
-0.0112742
-0.158083
-2.31104
-0.135208
-0.512802
0.28688
2.67993
-0.0549504
-2.05049
-0.421974
-2.94483
-3.87316
-1.77126
-1.63793
0.8694
0.986875
1.7923
-0.660852
-0.839523
-1.43288
-3.02909
-1.94693
-3.02667
0.750605
-2.20686
-3.01812
0.129829
-2.38239
-1.08184
-1.75987
-2.06561
-1.3892
-2.48909
-1.02914
-0.0660243
1.12229
0.208009
-0.588371
-0.452152
0.0852781
-5.15078
-0.553541
-0.791991
-1.23409
-0.204264
0.647882
-0.258154
1.10451
1.54872
-3.22254
-3.99115
-1.64412
-1.43619
0.236267
-1.9066
-0.740725
-1.89486
1.07179
-0.715525
-2.10668
-0.99929
-0.0504213
-0.0503258
-0.251381
-0.594821
0.443384
-0.703095
-2.30652
1.33109
-1.06712
-3.08439
-0.199767
-0.659047
-1.23901
0.916122
-2.64119
0.843507
-0.832227
-0.245641
0.764188
-1.01221
-0.427988
1.11483
1.47196
0.695339
-0.227703
-2.75796
0.172268
0.951952
1.2108
-2.95015
-0.655403
0.631076
2.72687
0.971194
-0.204174
-0.281544
-0.271426
-3.09983
0.399595
1.50284
-1.03288
0.253073
0.796371
0.105026
-0.0462818
-2.35629
-1.87068
-1.22119
-1.57058
-2.78873
-0.484071
-0.386418
-0.340078
-0.393866
1.84248
-0.813332
-1.20841
-0.396434
-0.603429
0.298737
0.917971
-0.83597
-1.14501
-0.242094
0.136824
-0.713772
-1.98173
1.14184
-2.30255
-0.128895
-7.14502
-2.87704
-1.72167
0.166907
1.15493
0.692225
-1.75753
-0.643799
-1.79181
-0.103854
-0.802836
-0.946117
-2.29779
-0.765533
0.992181
-2.21568
-0.382908
-0.917303
-1.90158
-3.39653
-3.43753
-3.1932
-1.66873
0.271313
1.29323
1.11236
-2.65833
-0.138381
-3.07802
-2.06511
-2.29215
-3.36999
-0.940981
-2.32017
-1.62516
-1.14154
0.949678
-0.0861415
-3.63862
-2.86599
-4.70317
-3.39282
-0.164457
-1.06089
2.74681
-1.68189
1.08508
-0.260003
0.625559
-1.8454
-1.43148
-0.026481
-1.56101
-0.381515
-1.3586
-2.29438
-2.55732
-1.27051
-1.08186
-0.302531
-4.16695
-0.907796
0.204153
1.76724
-1.19872
-0.475437
0.60595
-1.52103
-1.07231
0.350897
0.0146027
-1.58479
-1.72065
-1.94764
-1.44898
-0.878674
-1.85417
-3.25405
-1.63348
-2.62123
-4.06133
-1.03639
-1.5686
-1.69608
0.527625
0.661381
-0.0903083
-2.01559
-2.29827
0.303992
-2.2547
-2.02019
-1.47052
-0.931882
-0.443952
-1.71057
-1.11599
-1.21785
-1.93546
-0.268772
-2.25585
-2.33784
0.325584
0.423177
-2.27259
-0.961507
-3.01515
-3.57267
-1.53194
-1.78441
-0.158096
0.410608
-0.163988
0.469171
-1.42087
-1.54723
1.34805
-1.20328
-1.19885
-2.6668
-2.8083
-3.10718
-1.30311
-0.908434
-1.61957
0.0523404
-0.0263004
1.17709
0.619496
-0.87064
-2.52195
-0.605943
0.899676
-1.49518
-0.22892
-2.95867
-0.210341
-1.81656
-2.32086
-0.69017
1.39166
-0.809238
-0.381173
1.77454
-0.651319
1.20546
-1.89735
-1.61991
-2.25333
-0.608441
-1.34258
-1.77964
-0.282432
0.715295
-1.33805
0.0553609
-0.604142
-1.25837
-0.94114
-0.3824
-6.8583
-4.00704
-1.63476
-0.494455
0.856169
-0.700759
-1.16937
-1.83781
-1.73476
-3.5579
-1.88861
-3.42778
-2.04185
-2.53268
-2.75904
-1.04906
-3.09231
-2.70857
-3.49007
-4.02524
-4.47981
-0.630424
-4.27228
0.424202
-0.860765
0.228918
-0.206865
-0.629481
0.854793
-0.139321
-1.0133
-3.32345
-0.260683
-2.41325
0.330948
-2.35636
0.650744
0.455394
-0.351145
-2.92451
-4.13279
-3.01686
-2.30451
-1.42259
-1.27545
-1.4933
-1.02055
-0.946583
-1.11312
-2.35925
-0.65845
0.418066
-1.72482
-1.09786
-2.33805
-1.19338
-0.473502
0.985872
-1.68955
0.462496
-2.34531
-3.20599
-2.90168
-1.46222
-1.00332
-1.92989
-1.24335
-1.73381
-0.871589
-0.528808
-1.27269
-2.67827
-3.12403
-0.442395
-0.989856
0.539181
0.426037
-1.72246
-2.30965
-4.14738
-3.18369
-0.708148
-0.86033
-1.19796
-0.794407
-0.262943
1.08629
-0.991756
-1.37462
-1.31609
-2.30254
-0.801681
1.56044
-2.30427
1.34034
2.05961
-1.89952
-1.57365
-3.1259
-3.10891
-1.83695
0.176214
-1.29143
-0.944236
-2.01765
-2.25567
1.38484
0.0420931
-0.710027
-0.863269
-2.58477
1.42057
-1.92942
0.713805
-2.0291
-1.83598
0.0233217
-1.46079
-1.67227
-1.74295
0.572418
0.00537257
0.670309
-1.32131
-1.10269
0.786859
0.171763
-0.89959
-2.31494
-1.59361
0.179676
1.59562
3.09668
-0.115407
-0.192161
1.17429
-0.478496
0.654166
-0.0644796
-0.925955
-2.68993
-1.50263
-2.3269
1.15511
-2.22655
1.13167
0.639656
-0.863859
0.36567
0.243508
1.37279
0.526095
-0.176851
0.858729
-0.0381891
0.393155
-0.749188
-0.469492
-0.117332
-0.0197195
-5.01051
-4.17194
-1.59101
-2.00679
-0.133364
-1.78618
-2.53245
0.564468
-3.25224
-3.75121
-5.41285
-1.8593
-3.17474
-2.57782
0.360331
-2.63303
-0.564664
-3.03057
-1.43964
-5.37452
-3.65045
-0.207117
-3.00039
-0.384091
-2.1137
-0.263019
0.470509
0.118676
-0.811632
-0.382214
-0.109466
0.295617
-0.493432
-1.95024
-0.0186119
-2.80765
0.181618
-1.06347
0.193484
-3.71112
-5.74757
-1.81808
-2.99164
0.315476
-1.78594
0.187846
-1.62727
-3.04506
-0.71929
-2.17085
-4.63628
-1.8886
-1.22044
-1.81671
-2.91478
-0.34301
-1.18134
-0.043264
0.304676
-3.69901
-3.04924
-4.30753
-2.20259
0.295008
-1.01963
-0.440576
-1.03421
0.371731
0.0107424
-2.07435
-2.28873
-1.16288
-0.40027
-0.152797
0.00788266
-2.36083
-2.47451
-0.858211
-0.832807
-3.89256
-1.90096
-0.224919
-0.794427
-0.589078
-0.909849
-0.102963
1.22186
0.44177
-0.938346
-0.101845
-3.23341
-1.64285
-0.512601
0.682939
-1.28259
-1.14492
-1.59382
-2.3147
-2.95831
-0.581786
-2.82272
-2.63029
-0.117322
-0.535959
1.08575
-1.03659
-0.699066
0.394471
0.0495129
-1.77557
-1.85614
-1.57961
0.320278
-0.996516
-1.00613
-0.0504709
-1.11891
-1.64125
-1.72904
-3.00802
-3.01413
0.356012
-4.75685
2.19421
1.66275
0.765559
0.259359
-0.266229
0.364433
-0.374044
0.838867
0.506649
0.755052
-2.48837
-1.11012
-0.716924
-1.01883
-1.10988
-1.24846
-0.650441
-1.55691
-0.952876
-0.67369
-0.646997
0.231695
-1.48945
0.423119
-1.33594
-0.655598
0.237187
0.371497
1.29029
-0.967557
-0.100353
-2.04148
1.80217
-0.299061
-1.85538
-0.36446
-0.168741
-6.36157
-2.99611
-0.407027
0.12078
-1.17912
-0.283829
-0.733542
-0.968388
-2.41611
-1.95679
-5.34833
-2.47822
-2.76355
-1.92524
-0.511286
-0.821553
0.608594
0.594744
-3.42771
-3.62889
-3.31555
-4.03309
-0.481577
-0.394637
-2.59293
0.974216
-2.6075
0.0254514
-1.37575
-2.01821
-3.66743
-0.912942
1.0153
-1.25041
-1.28339
-0.391265
-1.75476
-1.7155
-5.76194
-1.80013
-2.78405
-3.73107
-0.169344
-1.47479
-2.5496
1.9371
-0.608601
-1.65117
-3.0103
-1.8894
-5.89105
-2.62161
-2.36302
-4.04141
-2.05672
-0.827592
-0.743711
-1.68065
-0.511224
-4.2693
-3.31595
-1.6355
-1.26767
0.276256
-2.767
-0.461958
-1.54541
-0.828614
-1.40399
-3.41121
-1.13475
-0.884452
-1.22434
-0.4951
-0.975559
-3.60151
-2.01961
-0.23634
0.10359
-3.17294
0.169711
-0.970464
-3.59067
0.24432
0.285536
-1.57425
-0.725666
-0.361289
-3.13203
-0.965017
-1.32789
-0.234184
-2.08695
-1.53376
-1.13782
1.37033
-0.766526
1.16049
-2.93738
-0.493227
-0.0509996
-3.39164
-0.546449
0.0487607
-0.194598
-1.00289
-1.62132
-0.272386
-1.57927
-0.828998
-0.940784
-2.28753
-0.285526
-1.79374
0.257412
-0.36687
-1.30226
-0.781666
-0.131907
-2.95631
-1.16598
0.0863436
0.795642
-0.472721
-2.07045
-2.14988
0.651949
0.441211
2.2956
-1.71752
-0.14036
-1.34783
-1.63169
0.855508
-0.848441
1.02644
0.395562
0.176451
-1.67883
-0.21232
-0.425584
1.50359
0.909016
-0.382307
-0.641366
-0.43717
-0.631823
1.27505
-0.147248
-0.240584
-1.58421
2.3554
-2.86592
1.21108
0.202908
0.817535
0.367486
-0.517855
-0.947759
-2.25443
-4.98472
-3.6658
-3.64586
-0.217259
-0.445105
-1.75515
0.152447
-2.06007
0.16533
-1.87804
-0.070671
-1.88515
-1.56199
-0.39498
0.402876
-3.45636
-0.65604
-3.51157
-3.58088
-2.4752
-6.92544
-0.250242
-2.49858
0.206517
-1.23528
0.65212
-2.35988
0.115918
-3.45456
-0.129752
-0.525237
-3.76322
0.278579
0.0149885
-0.367978
-2.4655
-0.166894
-2.45675
-0.656573
-4.36902
-3.69195
-4.81101
-1.67603
-1.26041
0.0271114
-0.9608
1.36997
-0.835779
-1.77525
-1.97649
-0.693352
-2.17047
-1.74922
-0.713744
-1.56275
-0.658343
-1.2879
-0.958462
-0.783717
-3.72773
-0.932041
-0.52844
-1.71561
-1.50771
-1.77335
-0.388605
-1.57008
-0.673462
-2.5597
-3.71992
-0.784383
0.187325
-0.613113
-0.836402
0.0710928
-2.85067
-1.19914
-1.88487
-2.38339
-1.46356
-2.55611
-3.24572
-0.587383
-0.740529
0.301721
1.3171
-0.823899
-3.08576
-0.869313
-0.698442
1.38787
0.100053
-1.95836
1.35639
-0.257402
-1.88759
0.0250802
0.521411
-1.54871
-2.04579
0.00793417
-0.918336
-3.09897
-0.648646
1.69225
-0.872431
-0.390664
-0.108236
-1.72557
-1.31316
-2.54019
-2.37264
-1.18311
-1.288
-1.30492
-0.777914
-0.103295
-0.622548
1.34699
0.547419
-0.749626
-0.647537
0.637869
-1.48156
-0.736518
1.51703
1.61154
0.0212745
0.587084
-0.429801
-0.318604
1.18189
-0.18628
-2.14244
0.478106
0.095607
-0.282272
-0.0915888
-0.83108
-0.662864
-1.29712
0.660059
-0.00522939
-1.28579
-1.63331
-0.712934
0.680621
0.865519
0.052336
-0.835109
-1.30196
-0.621338
0.969174
-2.92583
-1.66781
1.23933
0.215957
-0.491866
0.795075
-0.648442
-3.64783
-4.98951
-4.34346
-1.36112
-1.66496
1.32475
-0.853736
1.77644
-0.0419295
-1.2413
-1.62115
-1.67628
-1.8806
-1.75752
-2.16667
0.165912
-0.048513
-1.85195
-2.88514
-3.57394
-3.49154
-2.12209
-1.66299
-1.06951
-1.20658
2.66052
1.95461
-0.78122
-2.02968
-0.754765
0.664009
-1.06671
-1.00793
2.83133
-0.462161
-0.114281
1.5345
-0.110812
-3.53701
-1.96531
-2.2581
-4.25493
-0.883715
-1.74678
0.467028
-0.283975
-0.801842
2.09855
-0.611673
-3.80818
0.521593
-0.42554
-0.636617
-0.886554
-0.979803
-0.483262
1.50296
-1.00717
-2.26178
-2.21607
-1.8131
-2.78252
-0.0651884
-1.02666
0.238642
2.2426
-2.05083
-1.49658
-1.31201
-0.0832153
-2.87863
-1.4298
-1.27112
-1.14096
0.0692711
0.512944
1.54178
1.12724
-1.8081
-0.34819
-2.9697
-2.22235
0.222275
-2.20115
-0.151997
1.40384
0.678546
-1.10704
-1.98878
0.952854
-0.364195
-2.24126
-1.57009
1.83071
2.64887
-0.430103
-0.138784
0.139197
-0.0609834
0.0664708
0.043116
-0.126312
0.651061
0.188978
-0.284918
1.13726
-0.543887
-0.12394
1.40257
1.05162
-1.8351
-0.318976
0.703073
-1.37204
-1.61891
-0.0857396
0.750205
0.679825
0.0169284
-0.919433
0.45783
-0.957433
0.335145
-0.862442
-0.509344
1.10697
-1.85178
0.9728
-0.64298
1.36481
-0.431363
0.63137
-1.68655
-0.78599
-0.978367
-0.0083046
1.54417
-1.99428
0.0521367
0.00196762
-2.4574
-0.358237
0.478143
-1.74225
1.81129
1.25108
-0.631394
-1.58577
0.124786
0.091748
2.28245
0.663987
1.18578
-0.604207
-3.64226
1.05077
0.988986
-2.48692
-1.65226
-1.23711
-4.28095
-6.41943
-1.50181
-2.22471
0.520772
1.4297
1.24725
-0.459932
0.283107
0.736193
-0.0335488
1.06867
-2.01402
-1.4768
-0.915536
-1.78587
-0.0376893
1.59261
-1.00119
-3.87572
-3.65054
-0.508552
-2.45479
0.223292
-0.05921
0.0313896
0.839803
-0.0193427
-0.14692
-0.172187
-0.227018
0.0620452
-0.492114
-3.30558
-0.319012
2.0186
-0.0518866
0.757284
0.317664
-3.14231
-2.46448
-2.49867
-0.882583
-0.717094
-0.310178
1.01148
0.595123
2.48071
-2.42277
-1.0418
0.890828
-1.44943
-2.97902
3.28976
0.401967
0.455502
-1.99519
0.203588
-0.506726
-0.389641
-1.77836
-1.65255
-2.65678
-0.264359
0.748032
-0.512967
0.336487
1.16749
-0.283244
0.931541
0.465901
-0.729391
0.809395
0.423182
1.10123
-3.40793
1.48061
-0.741229
-2.71228
-1.93538
-2.31756
-1.31391
-2.50186
-0.726848
0.714787
0.0685014
0.022667
-0.687674
0.698862
-0.461857
1.36982
-0.395641
0.498962
-1.01702
0.364079
0.486233
-0.65856
1.10576
1.03006
-0.277128
-3.17263
-1.78213
-2.14118
2.22006
-1.21771
0.0866534
0.145993
-0.30494
0.253263
-0.3456
-0.0545918
-0.041558
-1.70321
-0.309201
1.10658
0.546792
0.184642
-2.42683
-0.327795
-1.58882
-0.741933
-0.855413
0.270393
0.854721
1.78659
1.3916
1.43805
-2.09781
1.58427
0.15095
2.37001
0.0235233
1.96938
1.10917
1.18338
0.825609
-1.82476
-0.16991
-1.04027
-0.937357
0.122097
0.558167
0.0718101
-0.998403
2.15918
0.788594
1.05334
-0.381845
-3.0288
-0.298535
-0.46531
-1.00945
-1.32963
-1.99892
0.891346
-2.16552
-0.110029
-0.168713
0.106075
-0.369209
-2.28796
-4.0923
-2.13354
-1.83594
2.9815
2.19928
2.63588
1.93645
1.46827
0.211938
0.790322
-0.916191
-0.121415
0.245926
0.648922
1.21076
0.767508
1.00845
2.2773
-1.10141
-2.72024
-0.168071
0.825687
-0.903089
3.66271
1.57225
0.87265
-1.76083
-0.370128
-1.07691
0.919474
-0.923381
-0.645641
2.09631
3.29271
2.12339
0.673099
-0.851879
-3.11681
-2.17395
-2.99106
-0.103865
0.0973977
-0.0535722
0.999224
2.36527
0.380067
-0.724801
1.96406
-0.871509
-0.0367042
-0.291569
-1.27352
1.43097
2.57528
-1.83152
-0.594263
-0.741139
0.707696
0.581534
-2.89489
-1.32798
-1.36885
0.0426766
1.57514
0.46205
3.64714
1.32491
0.716264
-1.16503
-0.38358
-0.35482
0.532709
-1.30657
-0.215856
-0.13366
1.64313
-0.613351
-1.85906
-1.0823
-0.666053
-1.10273
0.786628
-0.45851
-0.0568593
0.633834
0.862688
0.885085
-1.03008
1.12457
-0.74482
0.0741561
-2.87206
2.63087
-1.4728
-2.91794
2.08379
0.0114054
-1.52809
-3.26499
-0.164963
-1.92841
0.542507
-1.03129
-0.763897
0.346317
-2.04845
-2.04582
0.986569
-0.138239
-0.558873
1.59017
0.0642165
0.0111477
-1.1485
0.731597
-0.0429553
-1.55122
0.526684
-0.297566
1.38706
0.0564435
-2.63959
-0.492407
0.321128
0.333597
-0.138682
-0.245906
2.69339
0.332032
-0.36692
0.249939
-0.903425
-0.31194
-0.450253
0.987045
-1.65597
0.661099
1.38625
0.67403
-0.211404
1.1215
-1.05305
0.0948364
2.14986
-0.901672
-0.737428
0.477793
0.132581
0.855013
0.260428
2.0982
1.384
-0.636875
-1.35691
0.782
-2.05173
1.63267
1.5629
-0.00979723
-0.907343
-1.36244
0.191622
1.07102
1.71381
3.75364
1.3514
1.21254
2.17048
4.18091
3.93485
0.705853
2.72854
2.81351
1.25973
1.69385
3.0772
0.49328
-0.198715
-1.09197
-2.29999
-0.452654
-0.245641
0.201813
3.62609
0.142581
3.77307
0.551134
2.95992
-0.0334451
0.0434262
1.38657
-0.687302
1.45558
-0.196008
0.974566
-0.327658
-0.711874
0.196389
-1.69628
-2.65247
-2.04271
1.27881
0.416397
-0.468514
2.08905
0.38421
3.6558
2.30888
3.90637
1.02524
0.501624
0.510978
0.931275
2.49414
2.23216
1.34642
0.905953
0.44367
-1.57165
-2.60925
-1.46237
-0.574968
1.32627
2.94503
1.36965
2.40181
1.86713
0.157992
2.11808
-0.501377
-0.405057
1.63583
2.4379
2.21571
0.784413
-0.363263
-1.91311
-0.860437
-0.437776
-0.913355
-0.209003
-0.589622
0.406518
-0.405152
0.371378
2.07168
1.0045
0.934072
1.94791
-0.845339
1.11004
0.602111
-0.251437
2.00075
-0.456886
-2.70627
0.0734998
-0.975754
-0.887744
3.69982
0.683512
-1.92077
0.844041
-2.01228
1.7226
2.91806
2.81689
1.25992
0.556013
0.762559
-0.931743
2.4234
1.69256
0.708202
-0.934463
-0.404258
0.00192718
1.36736
2.77711
1.65459
0.216139
0.285075
0.403977
-0.624236
1.93765
-0.677855
-1.02017
0.478044
-0.352929
-0.420511
0.487598
-0.56211
0.015992
-2.2513
0.616967
-2.20194
1.03564
-1.43561
1.2775
-1.11515
-0.650455
-0.271097
0.592358
-0.608566
1.68732
-0.289842
-0.366134
0.433858
0.262957
-0.746067
0.207928
-0.0528818
0.498375
0.600339
-0.686544
0.635702
-0.00433543
1.66255
-0.699119
0.975703
-0.589714
3.48927
4.8712
2.08635
3.8292
0.533049
2.74709
3.19874
2.78511
0.829696
2.62249
1.22558
1.33968
2.39525
2.01615
1.00107
2.58351
4.9992
-0.219312
-2.12042
1.84168
0.128169
4.15414
1.30489
2.69132
0.286819
2.50855
2.66767
0.813407
3.37449
3.78262
4.07777
3.09396
1.76346
1.8437
1.66273
-0.140732
2.2757
0.795946
-0.174261
1.04231
-0.522405
1.06147
-0.0415633
2.31389
1.20757
1.17333
3.56307
-1.00828
3.6871
-0.607113
1.94652
2.38408
2.63767
1.74986
0.385554
1.93099
1.24941
2.18444
-0.588863
-1.53812
0.910654
-0.39128
0.642482
0.858318
1.05473
2.90461
1.9672
0.408366
0.603506
2.34215
1.13948
3.42168
0.752408
3.55209
1.93596
2.17192
-3.0152
-1.20804
-1.40929
1.33012
-2.18801
0.940552
-0.488988
2.3941
1.9106
2.92732
2.80822
1.61954
1.75967
1.68093
2.47468
1.63716
1.20842
2.08188
1.12442
0.797112
1.968
0.0840102
-0.614064
-2.36897
-0.425471
0.244268
-0.401108
2.70514
-0.413332
1.1388
0.860294
0.537071
0.448206
1.64286
1.52149
0.61894
0.873109
-0.88537
3.6735
-1.37218
1.60129
0.0183034
-0.12504
1.19486
1.46679
0.657497
1.43441
3.55081
-0.292589
-1.3064
0.434027
-1.21102
2.26508
0.622998
0.824224
-0.467142
-1.97837
0.91294
0.409915
1.65356
0.739579
-2.44098
0.265862
0.0957171
1.68156
-0.401219
0.809715
-1.44067
-0.272239
0.746161
-0.188818
1.56756
-2.09562
-2.41046
1.50932
-1.1577
0.767794
0.0692597
-1.08157
-0.392172
0.594025
-1.13911
-1.29033
3.28457
4.12711
1.65076
2.40652
2.93681
4.04101
4.94645
5.27467
4.4795
5.66335
3.8654
4.21909
3.25317
4.62881
2.64337
4.33289
1.60863
1.55733
-0.941729
1.8705
-0.532165
-0.363635
0.12705
4.57785
1.21994
3.62246
0.808709
2.56212
0.125108
0.00386083
5.45911
-0.808185
2.20941
0.365127
3.8147
0.669872
1.88206
-0.354482
2.20344
0.164185
1.27634
0.716971
1.98534
1.15217
4.17382
0.760936
3.1752
3.93853
3.75304
4.61078
1.66326
2.39176
3.14143
2.6897
2.95576
2.37895
1.04835
1.74952
1.62931
-1.64177
-0.583829
1.70758
2.67923
0.710549
2.60121
0.814721
2.94549
3.90603
4.02214
0.752817
2.25411
5.3413
2.32112
1.96911
1.46125
1.27876
0.873055
0.743703
2.84149
1.48189
-0.689682
0.645009
0.500034
2.15791
5.50839
2.02473
1.89498
3.45593
0.191247
-0.446513
2.65763
2.29939
0.674479
1.0944
3.00267
0.77859
0.681382
1.91645
1.53337
0.422427
1.66697
0.148144
1.63683
0.695344
2.20845
0.715543
1.83183
-0.576886
1.69318
0.427633
3.06018
-0.375469
2.03371
1.06641
-1.98016
3.19216
-0.638164
-0.900975
-0.0519959
0.617001
0.34969
1.63793
0.338079
2.04272
0.878133
0.293442
-0.349421
2.68576
0.0172643
2.99358
1.11323
0.364695
1.66246
-1.3544
0.56627
-1.63083
-2.80265
-0.0597099
1.9605
1.27205
-0.245994
1.45115
0.295352
0.846814
2.50629
-2.03027
-1.96568
1.13543
0.123266
-0.774242
-1.07111
-1.27062
0.638646
2.28344
0.0499672
0.949983
0.659213
-0.317147
0.798099
0.764681
2.03228
4.60781
5.64477
4.74693
5.54615
6.48885
4.44248
3.74636
4.18761
6.13825
5.40596
5.16578
4.80505
4.21093
6.09772
6.2325
3.01829
3.74113
4.24126
0.321594
0.847569
0.735839
4.84403
2.73137
6.32768
4.30055
1.8074
3.84774
3.89459
3.18742
3.36244
4.82281
3.6557
3.52727
4.93315
3.59658
5.03443
4.88995
0.816305
1.02504
1.0797
1.64354
4.01637
2.43341
4.15065
4.46556
4.17211
5.17665
1.15967
3.74104
3.71921
3.65124
4.49751
2.62291
1.7075
3.99006
2.96396
2.79551
-1.61418
0.336867
1.32741
2.54761
0.901727
3.44185
1.34373
2.95979
4.36128
2.05661
1.67107
0.277277
1.36944
2.28764
2.06788
0.935335
4.05775
4.14853
1.28264
0.293271
2.34409
0.334287
1.29279
0.918029
0.540868
0.470541
3.16699
4.33457
2.94134
2.71851
1.11295
0.139624
2.96651
2.55453
1.85555
3.47008
1.71667
2.91927
2.12519
2.19061
1.08115
-0.539957
4.06426
0.788769
0.696689
1.4817
-1.17097
1.22047
0.60694
1.11518
0.945592
1.63671
1.87071
2.27704
0.566784
1.18238
1.8126
2.12729
1.84402
2.70994
-0.0901295
-0.102213
0.353065
2.11871
-1.41747
1.87895
0.307363
1.73545
0.197067
1.28865
-1.08595
1.27156
0.610586
0.45349
2.19696
-2.35442
1.95364
0.621684
0.328045
0.522112
0.982296
1.35924
0.842424
-0.302257
-2.64481
-0.479314
-0.834791
-1.43799
0.100624
0.384662
1.36793
-0.368629
-1.03166
3.52224
1.78229
-0.921454
0.3975
-0.489528
0.136859
1.92161
0.352489
)
;

boundaryField
{
    hotSide
    {
        type            calculated;
        value           nonuniform List<scalar> 
400
(
-2.18107
-1.89236
-2.39945
-3.53069
-3.95136
-2.04198
-3.43901
-3.58005
-5.95862
-5.65515
-3.78797
-5.11682
-3.7148
-2.34966
-2.95132
-0.923556
0.495209
2.41987
0.198953
2.30263
-2.14752
1.55774
-2.69977
-2.05453
-1.24265
-1.72913
-3.30349
-2.12763
-1.65356
-2.76902
-2.91676
-1.72094
-2.36764
-3.6652
-5.06568
-2.70569
0.060519
0.87318
4.79102
3.58596
0.304525
0.0282816
1.94341
0.534846
2.25635
0.0321287
-0.100043
-2.40047