/*--------------------------------*- C++ -*----------------------------------*\
| =========                 |                                                 |
| \\      /  F ield         | OpenFOAM: The Open Source CFD Toolbox           |
|  \\    /   O peration     | Version:  2212                                  |
|   \\  /    A nd           | Website:  www.openfoam.com                      |
|    \\/     M anipulation  |                                                 |
\*---------------------------------------------------------------------------*/
FoamFile
{
    version     2.0;
    format      ascii;
    arch        "LSB;label=32;scalar=64";
    class       volScalarField;
    location    "0";
    object      stateMean;
}
// * * * * * * * * * * * * * * * * * * * * * * * * * * * * * * * * * * * * * //

dimensions      [0 0 0 1 0 0 0];

internalField   nonuniform List<scalar> 
3200
(
350.528
351.301
349.871
347.537
346.872
349.109
349.985
350.6
352.249
351.115
351.829
350.37
351.103
348.838
347.108
345.128
348.093
347.76
347.698
351.528
343.092
344.124
343.827
340.895
343.643
341.447
343.929
342.563
343.855
342.8
344.067
342.43
344.702
342.8
342.076
341.795
343.525
340.979
342.88
342.558
337.697
335.773
336.793
336.693
333.848
337.966
336.65
337.573
337.488
337.304
338.663
336.793
336.841
336.511
335.203
336.205
335.071
334.656
336.738
335.412
332.297
329.177
330.073
325.886
329.768
329.531
331.194
331.596
330.593
332.372
330.341
330.973
330.529
329.101
330.533
328.47
329.731
328.078
329.905
330.735
323.336
324.891
324.668
323.001
323.303
323.093
324.745
323.565
325.864
323.975
323.726
323.62
324.439
322.151
323.729
322.586
323.677
323.008
323.671
323.106
316.59
317.842
317.362
314.899
317.582
315.51
316.56
318.611
318.455
315.236
318.364
316.806
314.651
315.731
316.981
319.356
315.775
315.845
316.1
316.068
312.015
310.276
311.552
310.249
307.416
312.563
310.22
311.574
312.404
312.072
311.36
311.99
309.898
309.658
309.892
308.572
308.423
308.796
310.133
310.557
302.304
302.24
303.714
301.858
304.421
303.924
305.183
302.63
302.388
303.043
305.077
302.393
304.437
302.719
302.676
302.738
302.074
305.42
302.839
302.533
350.386
347.737
350.279
348.735
349.381
349.524
349.421
349.978
350.422
350.399
351.109
350.011
351.833
349.365
348.869
348.941
346.375
349.77
349.392
348.103
344.727
341.695
341.185
343.797
342.432
345.315
342.46
346.705
345.383
347.362
347.373
344.051
346.252
344.44
345.398
341.292
343.599
340.196
341.678
344.029
337.564
336.44
337.169
337.717
337.093
337.289
338.01
337.511
337.307
337.022
337.657
338.578
336.921
334.791
334.842
336.159
335.841
333.894
336.945
335.642
327.989
331.121
329.08
329.431
329.309
330.617
328.463
329.746
330.635
330.894
331.836
329.709
330.831
331.417
329.039
328.758
329.134
328.87
332.673
329.28
325.313
322.526
322.621
323.373
321.606
320.895
323.333
322.913
322.87
323.85
325.36
326.451
324.901
325.484
325.366
325.618
322.234
322.085
321.979
326.436
317.949
319.353
315.661
316.685
314.826
315.158
315.561
317.294
317.505
318.157
317.108
316.898
316.179
315.935
317.295
315.632
314.686
320.043
317.475
317.93
309.513
309.703
308.663
309.493
307.606
310.019
309.229
311.092
310.722
308.352
309.437
309.312
309.029
309.191
309.425
309.286
311.539
308.487
308.045
309.589
301.366
302.854
303.485
304.581
303.81
301.485
303.946
302.276
303.038
303.621
303.539
303.211
303.708
301.858
302.292
304.885
301.156
303.147
304.109
304.167
351.188
352.276
348.629
347.753
349.339
348.278
349.895
351.494
351.953
351.545
353.977
350.98
349.29
348.763
349.219
348.098
348.675
349.503
349.609
348.037
344.368
343.06
342.139
343.625
340.907
343.035
343.632
346.45
345.795
346.954
345.984
347.307
343.844
345.568
344.15
344.149
341.91
343.805
342.812
343.926
336.794
337.67
337.606
337.793
338.336
337.102
335.927
337.391
341.032
342.214
338.186
337.29
337.244
335.683
338.118
336.345
335.151
336.084
337.976
335.567
330.726
328.809
332.245
330.267
330.783
329.846
329.228
331.363
332.617
329.791
329.489
331.339
333.445
328.359
330.984
327.868
330.709
330.208
329.499
330.502
325.677
322.778
322.139
322.774
324.717
325.335
322.552
324.523
326.23
324.39
325.757
325.699
325.566
324.168
321.029
325.905
322.592
324.04
323.833
323.111
314.821
316.568
316.623
317.695
315.005
317.02
317.94
318.865
316.151
316.43
317.526
317.208
319.676
316.946
317.636
314.916
315.255
314.311
316.082
316.827
310.718
309.022
309.054
311.677
308.298
311.648
309.004
308.333
310.352
310.872
309.766
310.887
311.467
310.89
310.132
310.911
309.502
312.408
312.953
311.36
303.448
302.255
301.192
304.294
303.55
304.569
303.48
305.063
303.824
302.776
302.434
304.198
304.907
302.681
305.353
302.38
302.553
303.05
301.332
304.678
352.763
352.057
350.437
348.317
350.569
350.658
352.921
350.452
351.117
353.477
352.836
354.043
353.579
351.36
349.16
347.192
349.742
348.07
348.429
349.818
345.506
341.995
343.047
343.071
341.435
346.107
344.1
347.332
345.948
348.093
347.733
345.392
346.795
345.848
345.972
342.888
343.623
344.612
342.175
344.509
338.564
337.665
338.028
337.298
336.566
338.046
335.879
338.989
342.459
339.452
337.608
338.463
337.088
337.013
338.747
336.542
335.337
338.679
336.644
335.431
330.892
332.187
330.062
329.871
330.221
330.008
331.965
331.598
333.16
332.579
332.763
331.8
333.531
331.774
329.557
329.807
327.577
329.995
329.605
328.81
320.975
324.732
324.015
321.194
324.351
325.067
324.546
324.678
325.431
324.117
324.486
325.265
326.38
323.744
323.972
323.007
324.002
323.812
323.887
324.042
317.96
317.722
317.705
318.547
319.78
316.5
316.724
317.531
317.566
318.606
317.794
317.807
319.054
316.719
315.33
315.939
314.809
318.496
316.113
314.971
310.71
310.922
308.868
309.776
310.828
311.931
310.068
310.545
311.871
310.278
308.158
311.382
310.323
309.135
312.661
307.554
312.413
310.703
309.694
312.277
302.561
303.077
304.72
303.548
302.594
304.826
302.9
301.472
303.186
305.755
304.161
302.377
302.901
303.39
305.73
303.77
303.387
303.229
303.898
304.646
353.78
351.818
349.257
350.538
348.73
353.156
351.476
353.605
352.749
356.549
356.005
353.636
354.599
351.576
352.61
352.072
348.698
350.845
349.347
351.143
347.948
347.185
344.358
342.449
342.373
342.953
344.305
349.073
347.342
347.611
348.739
343.791
346.775
345.271
346.824
342.82
343.971
342.754
344.71
345.513
339.632
340.72
338.073
336.228
337.17
337.351
339.929
338.025
339.872
340.068
338.897
340.887
339.096
337.692
337.051
337.62
338.937
337.863
337.424
337.956
331.462
333.43
330.804
329.523
330.987
331.212
331.521
331.666
335.032
331.476
332.476
335
331.157
331.51
332.008
333.029
332.541
328.512
331.58
331.838
324.938
322.753
323.012
323.764
322.473
325.253
324.899
325.473
323.782
326.479
325.743
325.11
324.534
323.386
325.145
323.703
322.808
322.969
323.971
325.411
319.005
317.02
316.758
317.562
318.759
318.051
316.622
318.042
318.156
320.578
320.262
319.452
317.809
316.976
316.811
318.193
317.199
316.175
318.997
318.121
309.952
310.583
311.5
309.341
310.711
311.858
310.29
309.456
312.189
310.816
311.882
310.308
308.612
310.255
311.064
310.694
310.573
308.597
310.255
310.689
304.576
301.651
305.297
303.815
305.313
304.937
304.788
304.264
305.961
302.753
303.476
304.119
301.953
303.44
303.91
303.92
301.825
302.456
303.029
303.199
352.621
353.027
352.166
352.109
349.844
352.964
353.365
355.796
355.648
355.786
357.124
353.811
356.24
354.895
350.577
351.958
349.729
350.835
352.545
350.338
345.437
343.924
345.216
344.513
345.469
346.302
345.24
347.716
347.109
348.623
348.252
348.646
347.833
347.215
347.557
344.019
345.146
344.453
343.408
345.267
341.674
337.126
338.76
337.152
338.609
338.1
339.53
337.771
340.266
341.414
340.963
338.954
342.282
338.963
338.559
339.515
336.485
335.818
337.408
341.327
332.265
333.287
333.393
331.835
333.447
331.819
332.548
333.875
332.534
334.655
332.064
334.45
334.339
332.582
333.048
331.556
332.084
331.208
331.856
330.485
326.572
325.051
323.952
324.955
324.762
326.729
325.174
326.161
325.665
327.494
326.024
326.015
326.873
325.942
325.047
325.295
321.356
323.94
324.091
324.266
317.722
319.854
315.861
316.701
317.793
317.075
317.293
317.393
319.622
318.534
319.176
319.69
317.942
317.929
316.354
318.766
317.202
318.991
317.984
318.75
312.916
313.208
306.707
310.859
312.31
311.245
310.317
309.7
312.652
309.664
309.226
314.212
311.17
308.686
310.333
312.851
309.967
311.988
310.833
310.06
301.145
302.734
303.924
304.425
301.874
302.845
305.408
304.591
303.527
304.118
302.865
303.919
303.911
303.309
303.736
302.84
303.306
305.451
303.02
303.869
354.927
355.478
353.132
350.761
354.603
353.654
356.494
357.299
358.237
357.547
357.233
357.08
355.667
355.082
353.528
350.701
352.418
352.559
352.492
353.547
349.252
348.098
345.579
346.407
347.408
346.411
347.925
348.882
348.354
348.828
349.811
349.891
349.957
348.071
345.054
344.448
346.19
344.673
346.539
347.065
340.955
341.68
338.612
339.556
338.788
338.617
341.267
340.828
341.134
341.443
342.654
340.866
342.924
340.544
340.906
339.868
337.957
339.34
337.04
339.484
334.03
332.39
333.194
330.94
334.319
334.559
334.028
333.378
334.971
333.035
331.692
334.253
334.614
332.781
333.173
332.283
331.545
329.503
332.231
333.288
326.699
325.969
325.3
323.891
325.764
326.501
327.361
327.537
327.586
327.7
326.981
326.186
324.096
326.523
325.441
323.256
325.741
326.059
324.443
324.131
319.119
314.946
317.058
320.995
316.448
316.548
318.632
318.086
319.6
319.797
319.059
320.886
316.788
319.159
317.439
318.389
318.128
317.086
318.637
317.884
312.26
309.482
311.018
307.901
311.279
309.869
312.428
313.696
310.83
310.824
310.12
311.923
313.248
311.866
311.177
311.346
311.329
310.774
309.366
307.872
303.005
303.24
302.667
302.957
303.232
303.403
305.053
304.619
303.506
304.127
302.748
303.703
302.55
302.939
304.739
303.77
303.57
303.761
303.373
305.369
356.138
355.338
356.423
354.684
355.823
356.32
358.435
357.313
360.536
357.081
358.244
357.224
357.598
356.732
355.575
354.297
354.338
354.644
352.613
355.557
348.751
345.463
347.946
346.142
347.186
347.714
349.086
349.079
349.521
349.579
349.726
351.683
349.133
348.991
347.564
344.479
346.494
347.776
345.483
347.487
341.569
339.898
340.325
338.421
338.912
338.692
341.675
342.294
343.203
344.964
343.882
344.797
340.703
343.221
343.502
339.769
341.672
339.769
339.887
339.762
332.238
333.685
332.682
332.211
331.521
332.914
334.143
334.367
334.088
339.459
334.862
334.965
335.149
333.759
332.474
332.901
331.04
330.104
334.419
334.84
325.645
325.704
324.386
326.912
326.133
327.659
325.029
327.096
328.688
327.685
326.736
326.631
326.631
326.696
325.321
326.095
327.312
323.291
325.335
327.085
317.353
318
318.833
316.951
320.785
317.566
319.482
319.096
318.229
320.08
319.496
317.878
317.378
317.955
318.638
320.902
317.695
316.642
316.13
320.103
310.958
309.785
307.84
309.761
311.102
311.339
311.473
314.422
311.008
309.95
312.486
311.155
310.526
311.097
311.103
313.254
312.603
311.788
311.987
313.092
303.938
303.877
303.882
303.991
301.811
304.519
304.963
304.191
304.427
303.54
302.921
304.66
304.94
303.997
303.569
304.367
305.579
302.4
305.794
303.583
359.752
356.064
355.633
354.516
354.302
355.507
358.625
358.064
359.608
358.127
358.826
358.762
359.718
357.633
355.207
357.673
355.066
354.828
355.089
356.004
349.037
349.282
348.383
347.111
346.76
347.583
351.932
349.89
353.173
352.339
352.566
353.465
350.693
351.594
350.32
349.195
346.432
346.8
349.728
348.465
343.292
342.389
339.686
341.148
337.908
342.88
340.602
342.351
341.755
344.378
343.964
342.407
343.652
342.069
342.557
342.949
342.644
340.793
340.078
338.892
335.746
332.814
332.132
331.03
334.46
334.181
333.5
335.957
335.745
334.446
334.782
336.258
336.157
336.054
335.155
334.14
334.651
335.59
333.539
334.2
328.629
325.855
326.722
327.207
325.344
325.557
326.619
328.802
329.268
326.762
329.321
328.99
328.257
327.461
326.662
327.583
326.627
326.371
326.754
324.837
319.813
320.073
317.647
317.806
320.76
319.696
321.971
322.712
320.803
321.124
319.498
318.86
319.303
318.487
320.155
320.034
316.881
319.176
318.934
320.224
313.354
313.759
312.098
311.857
312.724
311.2
311.411
310.319
310.955
312.487
314.138
312.18
310.596
312.88
311.481
314.063
311.159
312.612
312.973
311.236
302.143
304.38
303.999
301.895
304.373
302.567
305.713
305.473
306.133
304.502
305.237
305.66
304.135
303.101
305.11
303.667
304.274
304.876
304.512
303.917
360.854
358.547
356.853
356.43
355.797
358.038
359.118
360.292
360.55
362.561
360.892
362.243
360.496
360.482
360.096
357.702
359.028
357.927
358.03
358.021
351.279
347.89
352.117
348.043
349.949
349.451
350.418
351.277
350.105
351.262
352.136
354.283
350.909
352.624
349.349
351.444
347.816
347.39
347.611
349.724
343.736
343.002
342.783
342.427
342.805
343.523
343.5
343.796
344.226
345.61
343.909
342.695
344.574
343.577
344.368
342.723
341.478
339.492
341.675
339.141
334.752
335.921
336.019
335.009
334.98
336.316
335.997
336.79
336.144
335.913
336.657
337.95
338.18
335.196
335.376
333.438
333.121
334.839
335.025
336.554
328.396
326.156
326.62
327.292
327.223
327.01
325.947
328.26
328.81
328.839
329.826
328.237
325.708
329.337
325.407
324.369
327.994
327.334
328.574
328.321
319.854
318.008
319.698
319.589
320.902
321.368
317.931
319.442
320.313
320.529
322.251
318.182
321.413
318.602
321.141
320.72
318.622
319.868
319.856
319.76
310.25
310.917
310.385
312.52
312.445
310.692
311.429
312.602
314.089
313.406
311.632
310.178
308.605
311.716
311.671
310.168
311.677
310.401
310.986
311.748
306.318
305.164
306.033
302.599
306.029
302.716
303.249
304.787
303.581
303.715
302.586
303.421
304.1
303.03
303.886
303.409
304.503
304.175
303.778
303.648
360.565
360.235
358.285
359.366
358.153
360.432
361.737
359.1
363.242
363.911
365.573
361.849
362.839
361.783
358.286
360.653
357.924
359.725
357.503
360.929
351.797
348.785
352.123
350.083
352.385
351.077
350.827
351.576
352.79
352.507
352.234
351.682
352.188
353.248
350.833
353.079
349.517
350.186
348.385
351.858
346.49
342.917
344.55
341.73
344.316
342.801
345.025
346.779
344.692
346.269
348.734
345.862
344.954
345.215
345.904
342.873
343.226
341.601
340.794
344.441
336.387
337.933
336.203
334.103
335.814
335.611
336.539
335.408
335.964
338.151
338.366
337.138
336.18
335.658
335.162
337.155
336.873
334.858
334.458
337.231
327.836
326.381
327.24
327.345
327.974
327.459
326.395
327.389
328.921
328.164
331.295
329.626
328.344
326.934
328.639
328.209
328.35
328.761
329.114
326.517
321.356
321.32
319.014
319.654
318.252
320.584
320.432
319.492
319.944
321.827
321.907
321.574
319.566
320.73
320.553
319.388
320.237
320.538
320.419
321.541
314.146
310.87
316.107
309.289
309.952
310.974
311.593
312.21
311.645
312.417
311.204
311.502
311.189
314.34
312.85
312.332
312.502
312.46
312.474
311.782
305.289
304.716
304.478
304.496
303.661
305.424
303.55
305.339
304.681
303.8
303.666
302.735
304.971
304.073
305.976
302.091
304.148
305.659
304.127
303.901
363.647
360.755
358.751
358.836
360.743
360.419
361.376
362.024
363.767
363.461
366.852
363.829
363.82
362.567
360.646
360.386
358.348
357.749
361.187
360.914
352.961
354.079
351.033
351.477
354.2
351.128
355.15
352.876
354.532
355.306
356.955
354.069
351.886
353.792
353.385
351.998
352.837
352.267
355.808
351.445
344.791
346.071
342.934
344.69
346.209
342.141
345.059
346.404
347.979
346.97
350.972
347.591
347.116
348.491
346.135
344.487
343.959
344.446
342.851
346.276
337.688
336.276
336.255
335.078
338.485
336.522
337.91
337.442
338.193
340.292
338.016
337.673
337.837
336.86
337.036
339.32
337.374
335.223
334.536
337.545
326.569
327.914
330.804
327.255
327.496
329.623
329.011
328.84
331.748
329.652
330.015
328.85
330.566
329.819
329.187
326.412
328.266
326.053
329.881
327.232
319.158
322.645
319.991
319.6
320.046
321.044
321.831
320.62
322.025
321.326
321.438
322.734
320.634
322.004
319.784
320.218
320.951
320.227
319.385
322.063
312.643
311.478
310.883
312.274
313.993
314.187
311.487
311.781
309.984
314.029
312.451
313.628
313.854
311.283
312.885
310.897
311.405
311.503
313.243
311.689
304.273
302.372
303.006
304.338
304.637
304.472
304.701
302.822
304.263
304.368
305.711
301.761
306.963
302.858
303.832
303.178
303.589
304.433
304.824
306.101
364.177
363.298
363.818
360.952
361.734
363.563
362.115
364.7
362.739
364.919
363.112
364.789
364.202
362.662
361.405
364.745
361.391
363.684
363.213
361.667
358.219
351.916
354.632
352.414
354.335
352.898
356.308
354.155
357.955
354.749
355.144
358.263
353.992
353.933
353.918
355.566
352.788
354.59
352.323
355.663
347.093
348.52
345.778
345.775
344.894
346.263
344.268
346.748
347.881
348.182
346.899
348.276
347.661
346.352
346.865
345.579
345.803
345.06
344.493
347.129
336.443
336.287
337.796
337.925
338.522
337.45
338.906
338.233
340.279
341.521
338.585
337.532
338.173
338.172
336.99
339.6
337.616
337.965
338.142
336.975
330.18
331.06
328.65
329.066
328.282
327.509
329.865
332.301
330.207
330.1
328.014
329.238
331.173
327.685
329.083
330.472
328.3
327.542
329.363
329.67
319.731
320.792
323.15
320.888
318.732
321.469
321.141
320.982
322.688
322.321
323.548
323.335
322.057
322.038
321.902
321.202
320.342
320.674
318.527
319.192
312.606
312.585
311.405
313.638
313.004
310.854
310.851
312.516
312.003
313.048
312.937
311.408
312.723
314.605
311.893
312.171
312.438
312.135
312.768
312.519
305.271
303.341
304.042
305.36
305.745
304.86
303.496
303.336
304.168
305.064
305.531
304.841
303.233
307.103
305.815
302.873
303.858
304.529
303.206
304.622
364.923
366.672
366.522
364.056
364.864
362.344
364.937
362.642
364.696
366.018
366.398
366.33
366.299
365.841
365.836
363.033
362.744
364.031
364.567
364.849
356.588
355.562
355.533
355.386
355.96
352.5
353.565
356.591
358.045
356.876
355.457
357.082
356.818
352.689
355.623
354.867
352.781
353.981
356.977
355.061
347.181
349.463
346.454
347.695
345.851
346.947
347.768
345.113
347.998
351.283
346.953
347.812
347.849
347.853
347.643
346.801
344.445
346.577
347.47
347.139
338.568
339.767
337.344
338.615
337.652
335.93
340.473
340.12
340.077
338.921
341.717
340.195
339.894
339.563
338.104
337.378
336.046
336.152
338.792
337.103
331.56
330.989
328.773
331.437
329.623
328.287
329.205
331.148
332.14
329.255
330.572
332.392
331.611
328.053
327.042
329.901
329.375
328.856
328.828
328.524
320.386
320.68
320.066
320.7
321.342
320.077
321.896
321.588
320.14
320.532
323.419
321.862
320.761
322.724
322.833
321.143
320.139
320.037
320.537
321.348
311.812
313.302
312.108
313.408
313.156
311.634
314.676
311.918
313.582
311.598
313.394
312.308
314.578
313.61
313.719
312.655
311.002
314.437
312.293
312.268
306.57
304.496
303.693
305.947
302.428
303.02
304.93
305.907
304.212
304.253
302.063
303.673
303.135
304.903
307.913
303.188
303.216
306.658
305.79
305.35
367.814
370.327
365.866
367.06
364.772
364.288
364.843
366.85
366.319
365.975
366.745
365.533
368.404
367.567
366.634
367.079
364.873
362.771
364.909
367.409
358.7
355.875
358.215
355.945
356.624
356.902
356.416
357.535
357.847
357.966
358.021
357.638
358.008
360.562
357.252
354.546
356.22
355.003
355.048
358.191
349.036
349.334
348.05
348.229
348.159
347.149
347.838
346.173
351.232
349.931
347.998
350.258
351.633
345.143
347.758
347.393
349.507
346.963
347.342
346.962
339.88
339.966
341.241
339.131
338.394
339.91
339.285
338.634
340.211
339.061
339.527
340.657
338.992
339.198
338.296
342.55
337.386
339.325
341.025
340.037
331.955
331.113
332.512
330.956
329.728
330.573
330.793
331.644
330.356
331.568
329.736
331.451
330.457
331.833
330.278
329.957
330.888
328.904
328.769
329.914
324.349
323.073
323.582
319.378
322.969
321.806
321.871
322.423
321.935
322.571
322.28
322.23
323.821
322.326
320.786
321.204
321.413
323.868
321.619
322.765
313.461
313.643
312.607
312.117
311.277
311.757
311.786
315.382
311.742
313.197
310.978
313.302
311.315
312.115
311.966
312.238
314.797
313.047
313.828
313.656
304.141
303.728
304.244
305.346
302.22
303.618
303.379
304.835
307.496
304.773
304.939
305.476
305.783
306.431
303.516
306.545
304.458
304.485
304.18
304.632
368.244
370.393
368.854
368.985
364.582
365.749
365.646
366.615
367.271
368.624
368.046
369.655
368.672
368.036
367.299
366.353
366.381
365.712
364.024
367.057
359.863
357.603
356.97
359.071
354.865
357.289
358.277
361.144
359.917
360.708
358.712
360.47
360.029
357.054
355.568
356.405
357.495
358.648
360.552
359.317
351.33
348.686
348.789
349.255
348.507
347.422
349.653
350.955
348.404
351.312
350.477
350.66
351.504
348.602
347.212
351.338
349.795
349.627
347.874
347.757
342.44
341.068
341.357
340.202
338.92
340.264
337.28
339.763
340.485
342.425
341.644
341.556
340.555
342.234
340.942
340.629
338.602
340.601
341.599
340.627
331.424
332.01
330.313
331.759
331.551
331.04
330.967
331.071
333.074
330.964
332.834
331.97
334.828
329.199
333.147
334.412
329.216
331.089
332.435
334.023
322.141
324.01
321.676
323.393
323.265
322.284
324.789
324.877
321.907
323.065
323.486
321.304
322.767
322.73
323.778
321.769
322.405
323.77
321.555
322.274
311.812
313.206
315.984
313.922
313.193
313.257
313.797
313.958
311.057
313.437
314.136
313.5
314.615
313.97
314.041
312.527
315.086
312.683
311.876
312.525
304.635
303.324
305.526
304.407
302.38
305.457
305.315
304.118
304.476
303.76
304.355
302.511
303.212
305.215
305.912
303.748
306.554
302.84
302.882
304.434
369.427
370.199
369.028
368.54
368.274
366.58
369.283
369.661
368.873
366.948
367.194
370.337
368.145
367.82
369.074
368.294
366.534
368.727
369.036
369.612
361.654
360.076
360.199
360.09
356.993
360.776
357.406
360.837
358.574
361.642
361.566
360.147
362.075
359.723
361.115
359.644
360.62
360.665
359.427
361.05
352.855
352.469
349.425
350.575
351.737
349.433
351.358
348.263
349.734
348.2
351.081
351.541
351.408
350.811
349.028
349.036
349.645
349.798
349.982
351.775
343.673
342.705
342.046
340.38
338.987
340.77
339.919
340.598
342.409
340.501
343.12
342.972
340.829
339.883
339.924
341.148
342.069
343.384
342.103
341.502
332.849
332.283
332.84
332.026
333.014
332.4
330.84
332.019
332.169
331.195
333.988
331.993
332.422
333.163
330.77
333.066
335.139
332.177
333.05
332.824
319.117
322.23
324.961
322.326
325.308
321.689
320.594
320.776
322.389
323.122
322.915
324.581
321.17
321.819
322.704
324.23
323.574
323.038
321.547
320.04
312.048
313.545
313.551
313.511
314.614
312.122
314.798
315.189
313.725
314.573
314.641
313.715
314.731
314.104
316.311
313.373
316.117
312.8
315.197
312.426
305.708
305.262
304.909
304.072
305.298
303.026
305.023
305.115
304.326
304.503
305.512
304.552
304.802
304.235
304.113
305.376
304.028
304.642
302.949
305.292
370.182
372.04
368.312
367.287
370.414
368.984
372.55
370.552
370.25
370.742
372.697
370.827
372.073
371.743
370.418
370.484
371.157
369.217
366.451
371.377
363.74
360.025
362.042
358.325
361.471
360.357
362.995
360.961
360.932
362.854
360.293
359.817
359.392
360.188
361.285
360.932
360.816
362.311
359.591
360.824
352.278
351.267
353.087
351.766
353.12
350.994
352.299
352.493
350.214
354.841
350.146
354.384
351.719
351.123
350.67
351.328
352.441
350.634
351.06
349.92
343.198
344.312
342.071
343.588
342.761
342.733
342.699
340.979
342.008
343.614
343.418
341.633
342.745
340.332
342.839
339.851
341.261
340.81
345.789
343.817
334.54
331.927
335.607
332.645
334.235
331.499
332.109
331.194
331.384
332.608
332.468
332.511
331.646
332.383
332.685
331.664
332.462
332.622
331.289
333.047
324.28
326.125
324.296
323.747
324.506
321.505
324.714
323.234
323.564
323.913
324.002
322.781
322.852
323.682
323.337
324.99
320.318
325.243
322.155
323.648
314.337
313.07
312.867
313.749
313.041
310.987
314.886
315.942
314.232
315.893
312.417
314.043
313.812
315.06
316.516
313.562
313.996
312.68
313.525
316.653
304.497
304.685
303.122
305.229
304.041
306.314
305.163
304.159
305.105
303.353
307.017
307.326
303.396
306.049
304.105
304.782
305.91
305.196
304.187
305.902
374.992
370.687
370.168
372.972
372.529
372.284
371.425
370.716
370.523
371.389
370.205
371.933
371.443
372.213
370.592
372.293
370.29
372.686
372.415
374.644
361.906
364.538
364.65
364.444
360.264
363.87
361.681
364.664
363.03
365.527
365.648
360.133
366.281
363.094
364.725
361.027
363.901
362.404
364.36
361.574
353.731
352.809
353.604
352.578
353.641
350.829
354.423
352.154
351.49
351.727
350.869
353.766
352.937
352.043
352.313
351.837
352.184
353.273
352.335
352.266
345.693
344.787
342.688
341.915
344.072
342.355
344.289
342.277
341.399
341.325
344.594
343.051
339.881
342.783
342.987
343.322
343.315
343.523
343.459
341.21
332.755
335.045
333.859
334.158
332.648
329.432
333.031
333.253
331.756
335.054
335.692
332.554
332.849
334.382
333.846
331.803
333.879
333.823
332.439
332.704
324.027
322.865
324.491
323.112
324.16
322.743
324.318
323.267
325.722
323.476
324.741
322.085
325.474
323
323.885
326.835
321.557
325.277
325.433
324.501
314.062
314.378
313.154
314.521
312.879
314.102
314.737
315.418
312.411
315.094
312.117
313.984
314.704
313.368
316.334
314.356
316.49
317.595
314.788
312.719
303.647
305.182
303.506
304.684
304.154
302.514
307.067
307.016
303.924
304.941
305.838
306.13
306.321
304.398
302.737
304.951
304.029
304.298
305.253
304.121
374.937
373.924
371.652
370.922
372.113
371.58
370.865
373.093
373.916
373.538
371.588
372.256
372.369
372.549
372.915
370.762
370.334
373.242
372.215
371.461
365.087
364.777
365.153
361.313
363.681
360.316
362.542
365.194
363.263
363.272
363.98
363.749
362.178
363.187
363.117
361.479
362.56
360.855
360.735
364.593
354.183
354.307
353.967
351.822
353.622
352.102
351.956
352.385
351.473
355.538
352.957
352.931
352.906
351.924
353.63
354.348
351.848
352.647
352.591
356.822
344.744
343.899
342.861
344.693
342.332
344.592
343.115
341.825
344.206
344.631
346.025
344.894
343.898
344.007
345.001
341.716
341.446
344.126
344.933
342.737
334.679
333.832
334.349
334.872
335.081
332.511
331.452
332.932
333.215
334.851
335.824
332.967
333.318
333.931
332.208
333.835
332.494
333.142
332.934
333.932
325.53
321.005
324.382
324.578
323.893
326.636
324.323
324.998
324.533
324.724
324.033
323.777
323.328
324.976
324.283
323.562
323.148
323.327
322.359
325.08
315.101
314.693
312.988
316.587
313.35
314.977
313.596
315.171
314.105
316.493
314.135
314.783
314.915
313.134
317.638
313.275
314.548
314.779
314.524
314.017
303.667
304.199
305.364
307.728
305.582
305.956
306.575
305.049
304.773
303.795
305.532
306.19
301.628
303.355
306.042
304.705
305.573
304.925
303.119
304.674
)
;

boundaryField
{
    hotSide
    {
        type            fixedGradient;
        gradient        nonuniform List<scalar> 
400
(
321.511
322.87
325.591
329.677
335.133
341.965
350.181
359.788
370.794
383.208
397.037
412.289
428.971
447.088
466.647
487.651
510.105
534.011
559.372
586.191
323.738
325.08
327.767
331.802
337.194
343.949
352.078
361.591
372.498
384.81
398.537
413.687
430.268
448.289
467.755
488.672
511.043
534.872
560.161
586.913
326.149
327.47
330.116
334.091
339.406
346.071
354.099
363.503
374.296
386.491
400.101
415.136
431.606
449.52
468.885
489.706
511.988
535.735
560.948
587.63
328.704
330
332.597
336.503
341.73
348.292
356.205
365.485
376.15
388.215
401.695
416.604
432.954
450.753
470.009
490.73
512.919
536.579
561.714
588.325
331.33
332.599
335.142
338.97
344.099
350.546
358.332
367.477
378.003
389.928
403.271
418.047
434.27
451.949
471.095
491.712
513.807
537.382
562.439
588.978
333.918
335.158
337.643
341.389
346.414
352.74
360.392
369.397
379.779
391.562
404.765
419.407
435.503
453.065
472.101
492.618
514.622
538.114
563.096
589.569
336.321
337.531
339.959
343.622
348.544
354.751
362.274
371.142
381.385
393.031
406.101
420.618
436.595
454.047
472.983
493.409
515.33
538.747
563.663
590.076
338.36
339.543
341.92
345.509
350.339
356.44
363.847
372.595
382.718
394.244
407.2
421.608
437.485
454.844
473.695
494.045
515.897
539.253
564.114
590.478
339.852
341.015
343.352
346.885
351.645
357.665
364.985
373.643
383.675
395.113
407.984
422.312
438.116
455.407
474.197
494.491
516.294
539.606
564.428
590.758
340.643
341.795
344.11
347.613
352.334
358.311
365.584
374.193
384.176
395.567
408.393
422.679
438.443
455.699
474.456
494.722
516.498
539.788
564.589
590.901
340.643
341.795
344.11
347.613
352.334
358.311
365.584
374.193
384.176
395.567
408.393
422.679
438.443
455.699
474.456
494.722
516.498
539.788
564.589
590.901
339.852
341.015
343.352
346.885
351.645
357.665
364.985
373.643
383.675
395.113
407.984
422.312
438.116
455.407
474.197
494.491
516.294
539.606
564.428
590.758
338.36
339.543
341.92
345.509
350.339
356.44
363.847
372.595
382.718
394.244
407.2
421.608
437.485
454.844
473.695
494.045
515.897
539.253
564.114
590.478
336.321
337.531
339.959
343.622
348.544
354.751
362.274
371.142
381.385
393.031
406.101
420.618
436.595
454.047
472.983
493.409
515.33
538.747
563.663
590.076
333.918
335.158
337.643
341.389
346.414
352.74
360.392
369.397
379.779
391.562
404.765
419.407
435.503
453.065
472.101
492.618
514.622
538.114
563.096
589.569
331.33
332.599
335.142
338.97
344.099
350.546
358.332
367.477
378.003
389.928
403.271
418.047
434.27
451.949
471.095
491.712
513.807
537.382
562.439
588.978
328.704
330
332.597
336.503
341.73
348.292
356.205
365.485
376.15
388.215
401.695
416.604
432.954
450.753
470.009
490.73
512.919
536.579
561.714
588.325
326.149
327.47
330.116
334.091
339.406
346.071
354.099
363.503
374.296
386.491
400.101
415.136
431.606
449.52
468.885
489.706
511.988
535.735
560.948
587.63
323.738
325.08
327.767
331.802
337.194
343.949
352.078
361.591
372.498
384.81
398.537
413.687
430.268
448.289
467.755
488.672
511.043
534.872
560.161
586.913
321.511
322.87
325.591
329.677
335.133
341.965
350.181
359.788
370.794
383.208
397.037
412.289
428.971
447.088
466.647
487.651
510.105
534.011
559.372
586.191
)
;
    }
    coldSide
    {
        type            mixed;
        refValue        uniform 300;
        refGradient     uniform 0;
        valueFraction   uniform 0.991591;
        source          uniform 0;
        value           nonuniform List<scalar> 
400
(
300.019
300.011
300.029
300.022
300.038
300.01
300.025
300.033
300.018
300.053
300.044
300.036
300.044
300.055
300.035
300.039
300.048
300.038
300.031
300.031
300.019
300.024
300.019
300.026
300.014
300.023
300.027
300.033
300.037
300.043
300.04
300.02
300.028
300.038
300.031
300.028
300.044
300.039
300.044
300.035