/*--------------------------------*- C++ -*----------------------------------*\
| =========                 |                                                 |
| \\      /  F ield         | OpenFOAM: The Open Source CFD Toolbox           |
|  \\    /   O peration     | Version:  2212                                  |
|   \\  /    A nd           | Website:  www.openfoam.com                      |
|    \\/     M anipulation  |                                                 |
\*---------------------------------------------------------------------------*/
FoamFile
{
    version     2.0;
    format      ascii;
    arch        "LSB;label=32;scalar=64";
    class       volScalarField;
    location    "0";
    object      relativeErrorField;
}
// * * * * * * * * * * * * * * * * * * * * * * * * * * * * * * * * * * * * * //

dimensions      [0 0 0 1 0 0 0];

internalField   nonuniform List<scalar> 
3200
(
0.00907218
0.0048767
0.0016756
0.00202699
0.00505451
0.00657092
0.00895318
0.00209417
0.00246324
0.00561654
0.00551696
0.00552055
0.00496009
0.00323839
0.00462613
0.00357875
0.00178171
9.06242e-05
0.000384337
0.0036316
0.0036885
0.00460795
0.000486077
0.00182494
0.00493432
0.00512343
0.00204204
0.00476199
0.00465238
0.00547134
0.00181528
0.00120629
0.00276211
0.00288119
0.00534453
0.00584065
0.000946377
0.00498931
6.17123e-05
0.0036106
0.00427412
0.000901931
0.000677153
0.00178224
0.00250111
0.00490923
0.00408593
0.00179666
0.00441947
0.000695681
0.00589138
0.00432625
0.00404918
0.00264542
0.00322177
0.00297136
0.000259015
0.00586224
0.000405706
0.0048619
0.00507987
0.00303787
0.000182126
0.000885754
0.00136821
0.00252172
0.00165371
0.00444817
0.00209334
0.000794659
0.00157758
0.00312456
0.00226524
0.000493948
0.000442851
0.00383405
0.00369324
0.00133524
0.000733839
0.00292064
0.00265532
0.000221261
0.00225509
0.00197572
0.000292252
0.00337854
0.00394426
0.000184401
0.000401754
0.00172999
0.00430405
0.000785205
0.00187126
0.00460391
0.00222514
0.000641188
0.000266779
0.00421164
0.000240041
0.00341072
0.00521086
0.000799834
0.000792683
0.00178375
0.00010425
0.00236714
0.000416914
0.000851573
9.16221e-05
0.000145622
0.00369758
0.00312215
0.000427566
0.00151391
0.00257005
0.00503498
0.000766717
0.001122
0.000110151
0.00113369
0.00221109
0.000685222
0.000169659
0.000744409
0.00318755
0.00101123
0.00276062
0.000687
0.00117785
0.00211829
0.00164418
0.0020056
0.00118139
0.00258316
0.000423208
0.00274536
0.0012563
0.00169563
5.05051e-05
0.00443867
0.00358824
0.00353941
0.00249219
0.000404667
0.000773665
0.000820217
0.00153925
0.00202024
0.0012656
0.00116979
0.00241615
0.00306184
7.13419e-05
0.00158725
0.000437758
0.000801163
0.00127927
0.000840901
0.000577563
0.000728371
0.00572354
0.00538505
0.000171577
0.00330772
0.00301064
0.00258609
0.0034353
0.00155276
0.00786071
0.003969
0.00191429
0.00674829
0.00586083
0.00418716
0.00293591
0.00101454
0.00121038
0.000949785
0.00224722
0.00527873
0.0037315
0.0010612
0.00258152
0.00121451
0.00117122
0.000407556
0.00148284
0.00022171
0.000870351
0.000419783
0.000425796
0.00244457
0.000506457
0.00252249
0.000181092
3.53828e-05
0.00100015
7.91539e-05
0.000558191
0.00730655
0.00552348
0.00351102
0.00404129
0.000645921
0.000428322
0.00428961
0.00148432
0.000606591
0.00655114
0.00552014
0.00195931
0.00681566
0.00498657
0.00718631
0.00224475
0.00192325
0.00167458
0.0017006
0.000898839
0.00563062
0.00431009
0.00222545
0.0015235
0.000900407
0.00484366
0.00352535
0.00286185
0.00117048
0.00433445
0.00163849
0.00156803
0.00145123
0.00524117
0.00192219
0.00375255
0.00122761
0.00167422
0.00122404
0.00280284
0.00533676
0.000937716
0.00249892
0.00277567
0.00110969
0.000659162
0.00355589
0.000994002
0.00078871
0.00390995
0.00402722
0.00195836
0.00183605
0.00512768
0.00110199
0.00464411
0.00102109
0.00375241
0.00296446
0.00119119
0.000363162
0.00350152
0.002229
0.00331713
0.000439836
0.00184455
0.00225522
0.00120344
0.0023581
0.000931377
0.00245222
0.00228058
0.000558701
0.00079768
0.00151024
0.00209388
0.0048655
0.000687296
0.00287502
0.00312027
0.00216113
0.00106993
0.00282685
0.000610517
0.000522798
0.00253738
0.00208469
0.00161935
0.000242177
0.00380945
0.00260477
0.00204268
0.00232219
0.00298625
0.000805063
0.000709413
0.00159731
0.00186573
0.000248408
0.00185626
0.00452026
0.000302016
0.00172095
0.000143469
0.000554001
0.00139235
0.000218721
0.00392313
0.00253816
0.00227157
0.00163083
0.000966021
0.00208428
5.38811e-05
0.000848555
0.000941177
3.30388e-05
0.000442471
0.00149282
0.00040245
0.00172106
0.00675815
0.00249015
0.00244364
0.00422834
0.00116626
0.00316142
0.00196635
0.00429413
0.00466403
0.00221003
0.00589902
0.000153347
0.00434658
0.000324682
0.00237445
0.00420237
0.0024354
0.00518848
0.00245026
0.00366535
0.00185372
0.00120108
0.000417002
0.00101127
0.00108475
0.00457649
0.00161901
0.000796581
0.00503518
0.00503089
0.00360286
0.00395831
0.00238152
0.00237769
0.00263651
0.00246392
0.000614624
0.00193091
0.00183426
0.00728265
0.00455483
0.00174546
0.002791
0.00125251
0.00245084
0.000179368
0.00187682
0.00270296
0.00171179
0.00105081
0.000997898
0.00384546
0.000409863
0.00145138
0.00287801
0.00146957
0.00294756
0.0028636
0.00278771
0.00359381
0.000137984
0.00312774
0.000154109
0.000172403
0.000105059
0.00250128
0.00367914
0.0023509
0.00407842
0.00187115
0.00374387
0.0022031
0.00160348
0.00073411
0.000354683
0.00415127
0.000566444
0.000813267
0.0021117
0.00438363
0.00274739
0.00275222
0.00216824
0.00089566
0.000259628
0.00184853
0.0010966
0.000975476
0.000138125
0.000922982
0.000403412
0.00466444
0.000653005
0.00227992
0.000572171
0.00296844
0.000399018
0.00169799
0.00188187
0.00249817
0.00354275
0.00061022
0.00242708
0.00190607
0.000755704
0.000293569
0.00496789
0.00074377
0.000164436
0.00333497
0.000520821
0.00113905
0.00107847
0.000370966
0.00135775
0.00198138
0.000454609
0.00124288
0.00506571
0.00163874
0.00376189
0.00265404
0.00346788
0.00192953
0.00227241
0.00118383
0.000218374
0.00502628
0.00198785
0.00010845
0.000492574
0.00123398
0.00044279
0.000187174
0.00329498
0.00246249
0.00109671
0.00368131
0.00331697
0.00243052
0.00196866
0.000531518
0.00289845
0.000288313
0.00101236
0.000803071
0.0025073
0.000195516
0.0014046
0.000621502
0.000514763
0.00285923
0.000645601
0.0016413
0.000902845
0.00272876
0.00250557
0.00802385
0.00150823
0.000222126
0.0057114
0.000221683
0.000757686
0.00139088
0.00260583
0.00370996
0.00129906
0.00218136
0.00417914
0.000853255
0.00206699
0.00354141
0.00153933
0.000335693
0.00257907
0.00171174
0.00342821
0.000647006
0.00539503
0.00319216
0.00815875
0.00193834
0.00574697
0.000613423
4.18733e-05
0.000334809
0.00297821
0.000318596
0.00191862
0.00143955
0.000869469
0.00670121
0.000242781
0.000149402
0.00021153
0.00164254
0.000224887
0.000438377
0.00146359
0.00426438
0.00600858
0.00407621
0.00104418
1.50294e-05
0.00200431
0.00348594
0.00135595
0.00183409
9.71539e-05
0.000627221
0.000809548
0.00238802
4.19662e-05
0.000915235
0.000399057
0.00478876
0.000416547
0.000769197
0.0011133
0.00474388
0.000255414
0.00140008
0.00379404
0.000834026
0.000554503
0.000527099
0.00510277
0.0022264
0.00321604
0.0014923
0.00160916
0.00416783
0.00442468
0.00635573
0.00141749
0.000687853
0.000624652
0.00254334
0.000294227
8.57119e-05
0.00222106
4.58864e-06
0.0022304
0.0015514
0.00137335
0.00308904
0.00279104
0.00214383
0.00088075
0.00227881
0.000632432
0.00123721
0.00353533
0.00107744
0.00378081
0.00218446
0.00152428
0.00130467
0.00300147
0.000901571
0.00214322
0.00264957
0.00286846
0.000309413
0.00117031
0.00101231
0.0010311
0.00273345
0.00241101
0.000404996
0.000101399
0.000146991
0.00162603
0.00137985
0.00340654
0.00210444
0.00123242
0.00223539
0.00448779
0.000348679
0.00174821
0.00116095
0.00314851
0.00458738
0.00258566
0.00316241
0.00078387
0.000404398
0.000106615
0.00372704
0.000248981
0.00112685
8.11045e-05
0.0019895
0.0014319
0.000172791
0.00239392
0.000686736
0.00206845
0.000598259
0.00247313
0.00243213
0.00116126
0.000459192
0.00109333
0.000579352
0.00212036
0.00261836
0.00159075
0.00107039
0.000148272
0.00155728
0.000337302
0.00115643
0.00150295
0.000574515
5.18814e-05
0.00241112
0.000165179
0.00124427
0.00392752
0.000153489
0.00406244
0.00149677
0.00198269
0.00200699
0.00360969
0.000414448
0.00165868
0.000358054
0.00117455
0.00178959
0.00451867
0.00351699
0.00331326
0.00237162
0.0034225
0.000562512
0.00324495
0.00567267
0.00738298
0.00277761
0.00145143
0.0026813
0.000477226
0.0021434
0.00130846
0.00353363
0.00042979
0.00139057
0.000906417
0.00436484
0.00199637
0.000477397
0.000864607
0.00294092
0.0025813
0.00163415
0.0050573
0.00249067
0.00699604
0.00411828
0.00111995
0.00419681
0.00240028
0.00590591
0.000792318
0.002208
0.000685355
0.000829856
0.00220795
0.00132269
0.000891844
0.000984048
0.000353491
0.0002941
0.000969603
0.000680752
0.00296756
0.00427321
0.00216305
0.00356135
0.00144994
0.00205869
0.00135438
0.00123243
0.00162352
0.00531804
0.00201533
0.0018639
0.00354852
0.0022195
0.00107885
0.000990684
0.000932865
0.00301913
0.000771838
0.00189586
0.00130618
0.00117713
0.00434454
0.00241612
0.000741687
0.00199
0.00212518
0.00236836
0.00205285
0.00213542
0.00136408
0.00487598
0.00293446
0.00243902
0.00760835
0.000639274
0.00226193
0.00150269
0.00115107
0.00250651
0.00181767
0.00308143
0.00485675
0.00326195
0.00438748
0.00167364
0.0011294
0.001856
0.00230121
0.00126776
0.00306355
0.000169327
0.00353951
0.000576526
0.00474646
0.000159725
0.00214431
0.00245678
0.00160865
0.000632996
0.000784432
0.00417665
0.00126512
0.00381409
0.00172284
0.00178582
0.000416637
0.000518391
0.00370193
0.0015809
0.000742673
0.000497053
0.00431529
0.00137152
0.00295158
0.000661149
0.00306153
0.000204136
0.00574648
0.00303771
0.00254086
0.00209241
0.00347253
0.000872074
0.00186459
0.000262227
0.00136056
0.000853972
0.000291048
0.000512422
0.00269377
0.00309196
0.00391542
0.00328325
0.000906499
0.00457451
0.00066014
0.000832745
0.00197151
0.000312538
0.00298545
0.00265686
0.007388
0.00171667
0.000856844
0.00134207
0.000787652
0.00095374
0.00226427
0.00319672
0.00469512
0.00314793
0.00477699
0.00155278
0.00029714
0.000683034
0.000882128
0.000153703
1.84616e-05
0.000343772
0.00563166
0.00691333
0.00534041
0.000603779
0.00242943
0.000557476
0.00045154
0.00107389
0.00252045
0.000451058
0.00178017
0.000400458
0.000583658
0.0017672
0.000482743
0.00221804
0.000126337
0.00237474
0.000308591
0.00263743
0.00147755
0.00446121
0.0043294
0.00331415
0.00227989
0.00240282
0.000654068
0.000816334
0.000155884
0.00426228
0.00321562
0.00125853
0.001803
0.000966005
0.0026742
0.00128309
0.000523253
0.000225433
0.00258727
0.00151244
0.000341676
0.00325927
0.00310629
0.00661758
0.00218981
0.000728756
0.000726951
0.000879186
0.00173303
0.0036708
0.000339661
0.000124765
0.00113137
0.0042496
0.00255742
0.000962438
0.000416736
0.00228533
0.00217345
0.000469297
0.00443853
0.00451845
0.00111846
0.00413693
0.00175917
0.00168938
0.000944695
0.00118608
0.00304161
0.00128875
0.000657291
0.00128435
0.0012546
0.000377746
0.00063181
0.000497575
0.000293148
0.000589803
0.001258
0.0035229
0.00335494
0.00445564
0.000134929
0.00267826
0.00442589
0.000363481
0.000377885
0.00248259
0.00263302
0.00141255
0.00257033
0.00245696
0.000415935
0.00128368
0.00359292
0.00242699
0.00170032
0.0013403
0.003027
0.00233406
0.00408483
0.00350973
0.000865657
2.17065e-05
0.000476442
0.00350431
0.00192991
0.00162401
0.00104913
0.00261889
2.88866e-06
0.000625561
0.00130688
0.000817184
0.00122103
0.00239687
0.00135572
0.00320997
0.00108984
0.00291779
0.00257983
0.00235605
0.00172074
0.00133274
0.000896325
0.00512951
0.00550433
0.000108837
0.000844311
0.00104433
0.00114753
0.00243827
0.00406362
0.0042401
0.00249673
0.00267931
5.30529e-06
0.00228919
0.00225048
0.00403624
0.0028547
0.0018541
0.00777612
0.00714709
0.00186642
0.00243853
0.00273471
0.00167517
9.91102e-05
0.000814841
0.00162285
0.00191631
0.000795471
0.00256518
0.000677913
0.00011429
6.72535e-05
7.51974e-06
0.0026541
0.00114746
0.00505853
0.0045892
0.00384706
0.00553593
0.00240126
0.00307148
0.00133643
0.000611721
0.00145911
0.0020446
0.00390152
0.00114294
0.00108466
0.00335273
0.00170974
0.00213087
0.00195252
0.000551115
0.00112464
0.00132481
0.00156804
0.0053625
0.00178921
0.00297185
0.00290269
0.00157916
0.000279269
0.00222984
0.00180129
0.00101445
0.00216955
3.596e-05
0.00480288
0.000658464
0.00137236
0.00158395
0.00208166
0.000408373
0.00319649
0.00028924
0.000631188
0.00693399
0.00524544
0.00405069
0.00458346
7.64824e-06
0.00013452
0.00128968
0.000210575
0.000805685
0.00131541
0.000530715
0.000206218
0.00160508
0.000960735
0.00120568
0.0019253
0.000708572
0.00108876
0.00159968
0.00423475
0.00205573
0.00132894
7.55115e-05
4.69612e-05
0.00232718
0.000476684
0.00252018
0.000364807
0.00116481
0.00211926
0.000398406
0.000345921
0.00247159
0.00206221
0.000218305
0.000147567
0.00291289
0.000379632
0.00231106
0.00107778
3.2769e-05
0.00221084
0.000212744
0.00243633
0.00382509
0.00066682
0.000538309
0.00231885
0.000504545
0.00451195
7.36128e-05
0.00441295
0.00143485
0.000510311
0.000504049
0.000597098
0.000646688
0.00345907
0.00094605
0.00151804
0.00139388
0.000757898
0.00247527
0.00227787
0.000721898
0.000805962
0.00127767
0.000252097
0.00423655
0.00352316
0.00190607
0.00109793
0.00335491
0.0019123
0.00155739
0.000776196
0.000122424
0.000550141
0.00088291
6.9411e-05
6.18946e-05
0.000723977
0.00219493
0.00233157
0.00234674
0.00242167
0.00130719
0.00226428
0.00314572
0.00133696
0.0018294
0.00296454
0.000249905
0.000872445
0.000627552
0.000581481
0.0008265
0.00190431
0.00140343
0.00129368
0.00540786
0.00446873
0.0083196
0.00489543
7.58589e-05
0.00194025
0.00266142
0.00306831
0.00072378
0.00369905
0.00233077
0.000499819
0.00375952
0.00266888
0.000476891
0.000719287
0.000200995
0.00310738
0.00374771
0.00327084
0.00352083
0.00354275
0.000529939
0.00386561
0.00167163
0.00246029
0.001069
0.000213529
3.25862e-06
0.000892835
1.65295e-05
0.00038739
0.00314451
0.000246196
0.00458458
0.000211971
0.000769903
0.00048851
0.0017254
0.00011677
0.00696289
0.005412
0.00412487
0.00119508
0.00127658
0.00156617
0.00125381
0.000783031
0.000586765
0.00195765
0.00217121
0.00281957
0.00121625
0.00110153
0.000294972
0.00080363
0.00206796
0.000214852
0.000151586
0.000320476
0.00347503
0.00633832
0.00404722
0.00256869
0.00197021
0.00247024
0.0025511
0.00228618
0.00100515
0.000869837
0.00674359
0.00283715
0.00174509
0.00219293
0.00287243
0.000790234
0.000795538
0.00134592
0.00121338
0.00216272
0.00647964
0.00402048
0.00231707
0.00291726
0.0040761
0.00032484
0.0023646
0.000597786
0.000298028
0.0010501
0.00191314
5.23214e-07
0.00122307
0.00537894
0.0018052
0.0056357
0.00208089
0.00316785
0.000641204
0.00242528
0.00240511
0.00118521
0.00122815
0.0017177
0.003357
0.00186018
0.00178079
0.00112572
0.00132715
0.0024919
0.00344289
0.000628411
0.00161708
0.00172901
0.00172815
0.00269508
0.000427887
0.000449643
0.000129544
0.00120923
0.00221107
0.000883337
0.000353342
0.000465223
8.99499e-05
0.000158716
0.00285812
0.000868839
0.000738539
0.00323192
0.00314387
0.0027476
0.0016905
0.00359041
0.00182102
0.00174368
0.000580663
0.00309612
0.000677364
0.000262821
0.00279634
0.00196212
0.0012113
0.00172456
0.00302977
0.000452269
0.000777022
0.000982442
0.00333119
0.00144366
0.00202838
0.00644006
0.00224329
0.00020689
0.000507781
0.00148908
0.000730024
0.0046812
0.00242747
0.00060871
0.00275238
0.00680602
0.00529669
0.00319164
0.00101589
0.00107478
0.000200021
0.00116308
0.00352777
0.000808804
0.000721554
0.00077131
0.000362736
0.000546625
0.00199769
0.00190356
0.00165672
0.0012005
0.00228514
0.00145036
0.00515136
0.00646415
0.00658178
0.00189782
0.0017817
0.000268446
0.00241637
0.000574386
0.00166975
0.00428917
0.00329079
0.000461876
0.00716449
0.00340025
0.00272295
0.00189001
0.00298925
0.00326048
0.00165738
0.0021884
0.00345718
0.00698587
0.00639972
0.00520832
0.00324012
0.00517755
0.00217821
0.00317226
0.000350612
0.00214256
0.000790213
0.00115764
0.00282839
0.00229525
0.000695002
0.000569624
0.00224142
0.000524636
9.30487e-05
0.000715225
0.00503429
0.00617414
0.00372049
0.002257
0.00178078
0.000518197
9.84126e-05
0.000236995
0.00282382
0.00165834
0.00215309
0.000199167
0.00129233
0.0032423
0.00128968
0.00138471
0.00181356
0.00179009
0.0017901
0.00152944
0.00253629
0.00681327
0.0029668
0.00204831
0.00163531
0.00125143
0.000934755
0.00151837
0.00141132
0.00195341
0.00525598
6.46582e-05
0.000776576
0.00028331
0.000909566
0.00409068
0.00255607
0.00588617
0.000305282
0.0012364
0.00232133
0.00101536
0.000370657
0.00313444
0.0002506
0.00196443
0.000939107
0.00109673
0.000287846
0.00062335
0.000205565
0.000379325
0.000517756
0.00141779
0.000668606
0.000312522
0.00493945
0.000996986
0.00415453
0.00195009
0.00191681
0.00329548
0.00224805
0.00334013
0.000134839
0.00096913
0.0025433
0.000502176
0.00106855
0.000839245
0.000976793
0.00143743
0.000348651
7.7299e-05
0.00276921
0.000331503
0.00299397
0.000319142
0.00119107
0.000124731
0.0102367
0.00029903
0.00149662
0.00167112
0.000500946
0.000435456
0.00179189
0.00054292
0.00158651
0.00262795
3.68294e-05
9.76437e-05
0.000722143
0.00110584
0.00260381
0.00218544
0.000711566
0.00122518
0.00097209
0.000504399
0.00147541
0.00414798
0.00168148
0.00214669
8.79223e-05
0.00178937
0.00115131
0.00150309
0.000154424
0.00242253
0.00552559
0.000701469
0.00263482
0.00189143
0.00488056
0.00209618
0.00250835
0.00147757
0.00468814
0.00435296
0.00509798
0.00785127
0.000764509
0.00221792
0.000663702
0.00158021
0.00114448
0.00134897
0.000138489
0.00132808
0.000769385
0.00094665
0.00242879
0.000128281
0.00321316
0.000130825
0.00255659
0.000954828
0.00340145
0.00187776
0.00205584
0.00270104
0.00135856
0.00313544
0.00151551
0.00357868
0.00217311
0.000555754
0.000521459
0.00306345
0.00157047
0.00403372
0.00377268
0.0060407
0.00180948
0.000655052
0.00323639
0.00311608
0.000391231
0.00723331
0.00273273
0.00351409
0.00568643
0.000596253
0.00275792
0.000572985
0.00119923
0.0011335
0.000724811
0.00197651
0.00110722
0.000191048
0.00403834
0.000642422
0.0010617
0.00186172
0.00211351
0.000777889
0.00083841
0.000958675
0.00778874
0.00415979
0.00134837
0.000104669
0.00264365
0.000826501
0.000676956
0.000813923
0.00216775
0.00238559
0.00802571
0.00468357
0.00271704
0.00193785
0.0017443
0.00166238
0.00089614
0.00394807
0.0018013
0.00448264
0.00444607
0.000533311
0.00134622
0.00404069
0.000482831
0.00295494
0.00105227
0.00275496
0.000306735
0.00300458
7.30479e-05
0.00177404
0.00298192
0.00122219
8.1333e-05
0.00178095
0.00107623
0.00186345
0.00124111
0.00179796
0.000345608
0.00196145
0.000387895
0.00161865
0.00392505
0.00217771
0.00108508
0.000331512
0.00258397
0.0024963
0.00106393
0.000261635
0.00598513
0.00334545
0.00326509
0.00294909
0.00139447
0.000209666
0.000582923
0.00111515
0.00207008
0.00157583
0.00086068
0.00102478
0.000514811
0.00108029
0.00261906
0.000306046
0.000373445
9.67262e-05
0.000569113
0.00188086
0.00188942
0.000703408
0.00131896
0.000895917
0.00200832
0.000321647
0.0017561
0.000163604
3.60479e-05
0.00709718
0.0042894
0.000844529
0.00434515
0.00299913
0.000782758
0.00127139
0.00162352
0.00470199
0.00119201
0.00289143
0.00313726
0.00164062
0.0011873
0.00485317
0.0032294
0.00396405
0.00201967
0.0060448
0.00203529
0.00809846
0.000705043
0.00526939
0.00088615
0.00221449
0.00160981
0.00514603
0.000481262
0.00215099
0.000300091
0.000818015
0.00195647
0.000702164
0.00622705
0.000476529
0.000772174
0.000904971
0.00139565
0.000119436
0.00780977
0.00504778
0.00756676
0.00235527
0.00273143
0.00410605
0.000253488
0.00337412
0.000942697
0.0019605
0.00426144
0.00504032
0.000908051
0.00370875
0.000746449
0.00400823
0.00104079
0.00062108
0.00100767
0.00142212
0.00489175
0.00447449
0.00156273
0.000187423
0.00107277
0.00198857
0.00346262
0.00145006
0.000579201
0.00134254
0.00138444
0.00357005
0.00266286
0.000576279
0.00401859
0.00030473
0.00225971
0.000390518
0.00062831
0.000772295
0.00341178
0.00331445
0.00296034
0.00256071
0.00169477
0.00298206
0.000111139
0.004794
0.00316954
0.0028769
0.00304981
0.00307295
0.00137459
0.00148236
0.0053496
0.00201536
0.000232547
0.0003274
0.0020688
0.000773521
0.00210927
0.00142673
0.00348288
0.00106152
1.31221e-05
0.000308344
0.00187989
0.00199429
0.00164228
0.00195922
0.00428831
0.000213245
0.00416967
0.00330957
0.000145252
0.00182333
0.000734905
0.00155641
0.00179652
0.00210141
0.00221337
0.00222939
0.00323384
0.0011115
0.00124373
0.00312134
0.00137675
0.002908
0.00138389
0.00334935
0.00450459
0.00444526
0.00251622
0.00558876
0.000698413
0.000235763
0.000696767
0.000146621
0.00157696
0.000605058
0.00269234
8.24795e-05
0.000737955
0.00218772
0.000454593
0.000977678
0.00154921
0.00170452
0.000929447
0.00250415
0.00105057
0.00409456
0.00208461
0.000469499
0.000300284
0.000978826
0.00164932
0.00356827
0.00399214
0.000120278
0.000932251
0.00629556
0.00642789
0.00167059
0.00650579
0.000937778
0.000911462
2.28708e-06
0.00131921
0.0019921
4.95307e-05
0.00340836
0.00139344
0.00111005
1.78387e-05
0.00225846
0.000225102
0.00238575
0.00151905
2.98173e-05
0.00334986
0.00295351
0.0109983
0.00141089
0.00196537
0.00190771
0.00143654
0.0018953
0.000377328
0.00213643
0.000872524
0.00432352
0.00354067
0.00238397
0.00345819
0.00115878
0.000324313
0.00311214
0.0044925
0.0047905
0.00278197
0.00847708
0.00619375
0.000761133
0.000552964
0.00184389
0.000271466
0.000608559
0.00172296
0.000556211
0.000983635
0.0012094
0.00104971
0.00138581
0.00354489
5.50275e-05
0.0024736
0.000342573
0.00154244
0.00483525
0.00709601
0.00393114
0.000682352
0.00112809
0.00177097
0.00320491
0.000371071
0.000203833
4.59951e-05
0.00193954
0.00137753
0.00142526
0.00011416
0.00224725
0.000781435
0.0020939
0.00145623
0.00079851
0.00118268
0.00518983
0.00283975
0.00222616
0.00252686
0.00256594
0.00432001
0.0024498
6.08595e-05
0.00394667
0.00136944
0.000880167
0.00384438
0.00225389
0.000271254
0.000391417
0.000119254
0.00390992
0.00573726
0.00197246
0.000550016
0.00157005
0.000769832
0.000602046
0.00218733
0.000343327
0.000971878
0.00314168
0.000793604
0.00451627
0.0023204
0.00176888
0.000721565
0.00086208
0.00571223
0.00158319
0.00151682
0.00264269
0.00589591
0.000263065
0.00201525
4.09032e-05
0.00212148
0.000996875
0.00248671
0.00309231
0.00403452
0.00028613
0.0012137
0.00338844
0.000772801
0.000844032
1.39404e-05
0.00163012
0.00273316
0.00202331
0.00120106
0.000919334
0.00195541
0.00110883
0.00209915
0.000686657
0.00055027
0.000817576
0.00157034
0.000912249
0.00072201
0.000249862
0.000722345
4.14985e-05
0.00167489
0.000625493
0.00259637
0.00158658
3.07692e-05
0.0014452
0.00163322
0.000144328
0.000610931
0.00142919
0.0011213
8.02459e-05
0.00128145
0.0076968
0.00309807
0.00161882
0.00544083
0.000716057
0.000482823
0.000346784
0.00207344
0.00122958
0.00385786
2.22818e-05
0.00367374
0.000158171
0.000494149
2.85017e-05
0.000467442
0.000618157
0.00198689
0.00350577
0.00627553
0.00172958
6.82951e-05
0.000242247
0.000583556
0.000390622
0.000960772
0.00111197
1.41746e-05
0.00302015
4.54399e-05
0.00101106
0.00479659
0.000594115
0.00367521
2.93057e-05
7.04754e-05
0.000753497
0.00278639
0.000255653
0.00356207
0.00415507
0.00234069
0.00245117
0.000126406
0.000565577
0.0062761
0.0021827
0.00332291
0.000441352
0.00246569
0.00516594
0.00184251
0.00308259
0.00191489
0.000472717
0.00102836
0.00106337
0.00204058
0.000734222
0.00389368
0.00398356
0.00193932
0.00211667
0.00365242
0.0017067
0.000638306
1.77722e-06
0.000752343
0.00408103
0.000900751
0.00123817
0.00192043
0.00270022
0.0017086
0.00156425
0.00332823
0.000755007
0.00143734
0.000394931
0.00350541
0.00125166
0.000841529
0.00254833
0.000186353
0.00149617
0.00166158
0.00155705
0.00297241
0.00460728
0.000606598
5.60614e-05
0.001638
0.000756181
0.00253767
1.76907e-05
0.00266897
0.00114458
0.000235582
0.000536234
0.00317935
0.00222209
0.0022446
0.00250172
0.000797085
0.0036401
0.000731628
9.87403e-05
0.00076807
0.00276803
0.00166845
0.00190009
0.000912631
0.00032526
0.000245055
0.00142551
0.000769224
0.00102978
0.000726312
0.00198619
0.00157212
0.000711649
0.000671318
0.00123278
0.00117541
0.0037571
0.00150493
0.00130415
0.00229171
0.00102414
0.00277281
0.00262318
0.00249846
0.00122016
0.000608808
0.000472075
0.0041217
3.83313e-05
0.00107638
0.000553784
0.000401955
0.000568776
0.000122077
0.000480865
0.000560314
0.00321401
0.000380111
0.00432069
0.00102567
0.000635179
0.00109174
0.00115736
0.0024478
0.00398274
0.0011901
0.00171772
0.00119279
0.00155549
0.000496757
0.00255196
0.000717138
0.00450262
0.00352391
0.00475657
0.00324552
0.0017345
0.00107592
0.00447488
0.000435811
0.00243455
0.0038198
0.00119531
0.000368046
0.00150171
0.000883155
0.00320296
0.00234114
0.00159006
0.00251151
0.0015574
0.00131655
0.00424091
0.00469525
0.000657227
0.0017851
1.33387e-05
0.00238763
0.0019684
0.00307979
0.00220487
0.00105684
0.00329735
0.00371068
0.0008083
0.000683291
0.00283322
0.00137962
0.0004196
0.00104605
0.00128543
0.00368028
0.00618946
0.00531724
0.00429879
0.0035204
0.00114268
0.00368275
0.00195962
0.00207156
0.00128643
0.00315675
2.45643e-05
0.00483717
0.00122799
0.00286076
0.00422627
0.000163725
7.73637e-05
0.00285679
0.00141819
0.00401471
0.00112958
0.00372827
0.0003279
0.0038044
0.000227967
0.000204403
0.00146698
0.00301634
0.00032507
0.000684034
0.000156826
0.00117427
0.000431925
0.00111183
0.000265207
0.00182539
0.00198859
0.00115662
0.00207929
0.00335761
0.00205994
0.00124979
0.00257122
0.000677346
0.00270295
0.000618524
0.00112783
0.00340017
0.00021788
0.000976815
0.00274937
0.000657899
0.000296526
0.000375866
0.000629397
0.00358211
0.00124334
0.000666134
0.000868035
0.00303945
0.00391531
0.000874442
0.000146208
0.00188993
0.00187209
0.000788339
0.00470267
0.000782236
0.00263102
0.000515534
0.00113367
0.0023283
0.00346215
0.00283355
0.00261163
0.00151627
0.00315694
0.000814143
0.00263948
0.00311943
0.00241436
0.00123177
0.000726156
0.000561553
0.000505432
0.00241369
0.000871273
0.00232548
0.00131166
0.000878367
0.00235039
0.000598617
0.00209441
0.00192085
0.00126093
0.00129243
0.00151822
0.000506472
7.23566e-05
0.00494294
0.000950635
0.000121354
0.0016062
0.00133173
0.00115381
0.000533212
0.00242906
0.00126214
0.000816695
0.000613616
0.00159657
0.00175532
0.00159604
0.00115953
0.0014252
0.00352693
0.00323966
0.00181708
0.00133298
0.000537901
0.005921
0.00333919
0.00312038
0.000412871
0.00095093
2.43159e-05
0.00301445
0.00256146
0.00247994
0.00194224
0.0015144
0.00291901
0.000457944
0.00194739
0.00287285
0.000548277
0.00123566
0.0011991
0.00150227
0.00404346
0.0010601
0.000214802
0.00010965
0.000373161
0.0006079
0.000214484
0.000903381
0.000659206
0.00125527
0.00111174
0.000878189
0.00186061
0.000384612
0.00192306
0.000949588
0.00164699
0.000498822
0.0012976
0.000967693
0.0012562
0.00131356
0.00124255
0.000774868
0.000876045
0.0018573
0.00311445
0.000345181
0.00040397
0.00300904
0.00194126
0.000487286
0.00230392
0.000181217
0.00018664
0.00182184
0.00397545
0.00275892
0.00252205
0.00239317
0.00289712
0.00076446
0.00126751
0.00174762
0.000536823
0.00206958
0.00177251
0.000631182
0.00253232
0.000877211
0.000309371
0.000617804
0.00171343
0.00405845
0.000741258
0.000806549
0.00129692
0.00179377
0.00164399
0.000162029
0.000983895
0.00339303
0.00242813
0.00621584
0.000942522
0.000420651
0.000246376
0.000267334
0.000412007
0.00164304
0.000593914
0.000826731
0.00185111
0.00111885
0.0022642
0.000590448
0.00463929
0.00361592
0.00324859
0.00113536
0.00131516
0.00193309
0.000942536
0.00226799
0.00257351
0.000514275
0.00310338
0.00100551
0.002391
0.00323798
0.000906445
0.00215741
0.00145736
0.000668582
0.000255052
0.00158437
0.00241548
0.00201655
0.00161013
0.00163871
0.000965559
0.00209654
0.00140127
0.00131598
0.00183534
0.00303993
0.00115541
0.00176031
0.00235254
0.00262685
0.00242606
0.00339407
0.00220708
0.000459895
0.00211579
0.00201814
0.00111414
0.00285934
0.000646797
0.000316378
0.00192854
0.000862146
0.00134523
0.00115625
0.00268812
0.0012264
0.00137466
0.00123172
0.00180413
0.00334045
0.000608099
0.000811995
0.00189559
0.00045572
0.000858657
0.000432432
0.00106699
0.00404132
0.0020365
0.0018786
0.000265944
0.00429923
0.00328054
0.00183753
0.000892105
0.00276391
0.000421445
0.0012216
0.00110335
0.000334874
0.000554191
0.00212471
0.00145639
0.00206484
0.003081
0.000121338
0.000304774
0.00226037
0.0003699
0.00120721
0.0020675
0.00714099
0.002324
0.001073
0.00152416
0.00235957
0.00247103
0.00137443
0.0027646
0.000159341
0.00303158
0.000231039
0.002106
0.00356602
0.00290304
0.00191952
1.83423e-05
0.00333995
0.000724133
0.00111626
0.00231277
0.000178671
0.00142894
0.00417356
0.000646639
0.000703961
0.00102654
0.000438422
0.000985518
0.00158246
0.00249498
0.00054819
0.00125094
0.00016768
0.00170482
0.00351572
0.00164912
0.000366779
0.0023051
0.0021119
0.00218395
0.000566999
0.00245388
0.000439754
0.00326542
0.00319001
0.00288166
0.00104907
0.000677681
0.000289287
0.000217378
1.79226e-05
0.0013798
0.000958666
0.00379195
0.00114115
0.00212791
0.00484885
0.00101037
0.00130326
0.000536869
0.00350732
0.000162275
0.00147124
0.000941606
0.00110449
0.000126144
6.34409e-05
0.00198134
0.00171697
0.000280923
0.00187787
0.000972528
0.000446207
0.00238546
0.000224758
0.000661732
0.00130449
0.000262956
1.97204e-05
0.00394205
0.00505306
0.00167259
0.00201562
0.000537406
0.00218836
0.000823636
0.00466888
0.00257535
0.000340376
0.00176607
0.00239822
0.00148027
3.84817e-05
0.000205664
0.000328384
0.000949216
1.73418e-05
0.00207679
0.00181178
0.000312188
0.000574088
0.00480316
0.00138308
0.000314566
0.00159197
0.00255396
0.00139546
0.00173698
0.00148207
0.0021118
0.00140566
0.00214338
0.00193669
0.0011631
0.000864117
0.00427438
0.00287073
0.00311097
0.000336106
0.00428745
0.00149082
0.0010943
0.00148004
0.000455928
0.0003066
0.00139594
0.0026552
0.000951324
0.00242479
0.00223601
0.00115542
0.000828707
0.000305552
0.00152226
0.000602728
0.000159259
0.0012831
0.000984148
0.00370529
0.00239857
0.00254631
0.000263959
0.00286873
0.00246316
0.00452727
0.00611531
0.00498875
0.00222963
0.00266779
0.00226427
0.0011259
0.00124112
0.00123614
0.00132613
0.000518273
0.00227824
0.00436119
0.00305903
0.000460017
0.00106666
0.00407784
9.94575e-05
0.001011
0.000116643
0.00638332
0.00178861
0.00334742
0.000449592
0.00193429
0.000258846
3.02212e-05
0.000123262
0.000303664