/*--------------------------------*- C++ -*----------------------------------*\
| =========                 |                                                 |
| \\      /  F ield         | OpenFOAM: The Open Source CFD Toolbox           |
|  \\    /   O peration     | Version:  2212                                  |
|   \\  /    A nd           | Website:  www.openfoam.com                      |
|    \\/     M anipulation  |                                                 |
\*---------------------------------------------------------------------------*/
FoamFile
{
    version     2.0;
    format      ascii;
    arch        "LSB;label=32;scalar=64";
    class       volScalarField;
    location    "0";
    object      stateMean;
}
// * * * * * * * * * * * * * * * * * * * * * * * * * * * * * * * * * * * * * //

dimensions      [0 0 0 1 0 0 0];

internalField   nonuniform List<scalar> 
3200
(
323.144
322.143
321.553
320.837
320.351
320.339
320.009
322.597
322.749
321.872
321.904
321.76
321.671
321.854
320.966
320.826
320.916
320.986
320.457
321.402
318.686
319.268
318.334
318.009
317.439
317.79
319.157
318.609
318.878
318.738
319.91
319.982
319.249
318.889
317.72
317.15
318.288
316.592
317.784
318.661
316.149
315.327
315.573
315.143
315.272
314.861
315.443
316.439
315.806
317.092
315.444
315.836
315.725
315.899
315.395
315.124
315.624
313.51
315.171
316.334
313.686
311.345
312.609
312.558
313.555
312.624
313.159
312.504
313.405
313.898
313.652
313.081
313.189
313.523
313.553
311.926
311.68
312.135
312.065
313.013
310.229
309.623
309.056
309.363
310.111
309.376
309.405
310.745
310.803
310.456
309.655
310.684
311.384
309.2
309.734
310.003
310.058
308.45
309.629
310.462
308.316
306.578
306.723
306.575
307.317
306.716
307.462
307.452
307.775
307.896
306.713
306.842
307.582
307.124
306.654
305.738
307.358
307.31
306.789
306.37
304.706
304.304
304.234
304.503
305.344
304.161
303.716
304.84
305.044
304.068
304.212
304.074
304.271
305.344
304.34
303.538
304.658
303.666
304.111
302.684
302.433
300.306
300.65
301.555
301.233
301.251
301.991
302.161
301.188
301.932
302.308
300.647
301.53
301.048
301.366
301.224
301.047
301.148
301.199
301.571
322.132
322.365
321.014
320.475
321.054
321.663
321.826
322.802
321.029
322.429
323.094
321.389
321.409
321.583
321.55
322.35
321.15
321.374
321.359
321.99
318.753
318.191
319.048
318.246
318.677
319.332
319.366
320.088
320.112
320.378
320.649
319.608
319.997
319.033
319.52
319.04
318.952
318.251
317.677
319.888
316.586
316.191
316.674
315.538
316.231
315.086
316.292
316.839
315.149
315.578
316.708
315.065
315.45
314.486
315.733
315.488
315.213
315.935
315.368
316.62
313.482
313.023
313.06
313.147
311.637
312.332
312.8
313.551
312.717
314.677
313.669
313.622
312.273
313.095
312.261
312.77
312.341
312.201
313.203
313.803
309.725
310.355
308.92
309.654
310.019
309.339
310.337
311.061
309.724
309.754
310.397
311.511
309.222
310.304
309.001
309.906
308.835
308.862
309.212
309.547
307.812
306.158
308.001
307.004
306.733
306.764
307.972
306.997
307.525
307.104
307.157
307.64
307.968
307.137
308.101
305.805
306.928
306.1
305.885
307.401
304.371
304.968
304.007
304.445
303.61
303.842
304.071
304.711
303.529
303.924
304.096
305.398
305.547
304.809
304.261
304.868
303.718
304.269
304.673
305.42
301.265
300.858
301.448
301.269
301.889
301.566
300.346
302.319
300.887
301.089
301.29
300.943
301.538
301.273
301.784
301.459
301.303
300.955
301.498
301.875
322.586
319.955
320.393
320.28
321.738
321.558
322.37
321.976
322.118
323.049
321.855
323.577
321.959
322.9
321.812
320.76
320.857
319.512
321.54
321.595
318.262
317.572
318.453
318.397
318.784
318.069
319.383
319.957
318.825
318.944
321.712
319.17
319.449
319.14
318.689
318.344
318.523
317.705
318.537
319.987
316.37
314.62
314.597
316.211
315.387
316.558
316.218
316.219
316.724
317.034
317.05
316.047
316.946
317.273
315.59
315.697
314.884
314.575
316.049
316.068
312.166
313.374
312.697
312.87
313.175
312.701
312.586
313.216
312.829
313.604
313.016
313.418
313.451
313.51
313.374
311.908
312.747
312.395
313.057
313.578
310.341
310.487
310.502
309.766
310.345
309.906
310.337
310.542
310.922
311.316
310.904
309.515
310.642
309.97
310.302
309.343
309.92
309.304
309.052
308.718
307.865
307.067
307.764
306.587
307.561
307.573
306.097
307.515
307.779
306.848
308.035
307.479
308.076
307.739
307.066
306.72
307.312
306.637
308.435
307.281
305.214
304.938
303.159
303.719
303.708
304.853
304.645
303.118
304.095
304.695
304.578
305.077
304.514
304.635
305.496
303.65
303.972
303.094
305.14
304.809
301.957
301.224
300.538
301.53
301.78
301.264
300.778
301.617
301.999
301.397
301.739
300.713
301.363
301.039
301.778
300.652
302.198
298.994
300.929
301.431
322.436
320.859
321.101
322.24
321.412
321.504
322.694
322.755
322.36
323.57
323.177
322.567
322.963
323.222
321.869
321.7
320.689
321.136
322.661
321.628
320.424
318.723
320.293
319.047
319.262
319.745
319.042
320.397
319.898
320.165
320.348
318.365
320.217
320.043
319.57
318.725
318.779
318.323
317.64
319.186
316.962
316.582
315.928
315.921
316.897
315.487
316.463
316.564
317.361
317.227
317.683
316.572
317.133
316.603
316.465
314.748
316.058
315.355
315.648
316.564
312.398
312.94
313.934
312.754
313.116
313.723
312.204
313.313
313.152
314.71
314.747
312.853
312.623
311.811
313.114
313.075
313.211
311.952
312.594
312.345
310.263
309.715
309.215
309.633
309.902
309.578
309.861
310.223
311.279
310.358
310.87
310.62
309.79
310.393
309.363
309.65
309.641
309.502
310.646
309.854
306.18
307.751
306.192
307.317
307.735
307.213
307.344
306.934
308.6
308.027
307.933
307.903
307.275
307.236
306.476
306.728
307.601
307.759
308.315
306.945
303.574
304.518
303.289
302.94
303.641
303.554
304.36
304.791
304.686
303.608
304.82
305.061
304.643
305.205
304.081
304.375
305.065
304.456
304.794
304.288
302.121
302.129
301.073
301.591
301.154
301.689
302.18
302.354
302.061
301.913
301.545
301.111
301.666
301.89
301.967
301.657
301.469
300.696
301.346
301.751
322.111
321.215
320.26
321.517
321.802
322.224
322.099
323.463
323.3
323.847
324.344
323.257
322.135
322.129
321.802
323.206
320.897
321.747
322.208
322.671
320.391
319.194
318.192
318.174
319.26
319.1
319.707
319.28
320.481
321.174
321.019
319.22
319.772
319.973
319.509
318.473
318.205
319.176
319.92
318.835
317.453
316.768
316.114
314.749
317.159
314.845
317.254
316.545
317.202
317.249
316.811
317.84
317.528
316.691
316.827
316.307
316.382
315.545
316.405
316.595
313.14
313.755
312.425
313.782
313.826
313.272
313.385
312.422
313.602
314.896
315.425
314.932
313.753
313.584
313.366
312.456
312.895
313.472
313.05
312.096
311.033
310.574
309.779
309.593
309.755
311.351
311.436
311.616
311.487
309.604
310.208
310.304
308.586
310.997
311.318
309.949
309.853
309.232
309.262
310.642
308.41
308.017
308.495
306.776
307.784
307.009
307.003
307.43
308.842
307.993
309.031
308.077
309.281
307.662
308.24
306.682
306.796
306.953
307.257
308.201
304.539
303.052
304.814
304.921
304.338
304.393
303.501
304.213
304.516
304.616
303.452
304.324
305.594
304.428
303.619
304.403
302.628
303.366
304.985
304.79
302.439
301.674
302
301.546
301.906
301.782
301.463
301.418
300.777
302.531
302.779
300.599
301.3
300.172
301.326
301.747
302.061
301.344
300.511
300.591
323.535
322.017
322.125
322.695
322.43
322.785
324.198
324.813
322.483
325.142
325.67
323.501
323.874
323.245
322.808
322.634
322.257
321.96
323.275
323.382
320.011
318.76
319.674
319.435
319.478
319.631
319.491
320.423
321.334
320.994
321.053
320.196
320.413
319.588
320.015
320.381
319.158
319.74
319.039
319.731
316.84
316.733
316.686
315.508
316.784
317.135
317.198
316.024
318.562
318.028
318.201
317.848
318.226
316.742
317.042
316.506
317.086
316.444
315.579
316.502
313.619
314.889
313.732
313.066
313.774
313.515
314.558
315.353
314.441
314.444
314.761
315.67
313.396
314.316
313.922
312.829
312.613
312.899
314.207
314.061
309.484
311.244
309.593
310.855
310.82
310.348
309.944
310.634
310.935
311.594
310.804
311.022
311.232
310.735
310.626
310.71
310.721
309.046
311.002
311.211
306.979
307.937
308.599
307.489
307.633
306.888
308.586
307.444
307.162
308.75
307.865
308.349
308.985
307.029
308.175
307.929
306.447
307.956
308.369
308.098
304.478
304.264
304.491
303.362
303.925
304.099
304.348
303.932
304.776
304.99
304.401
304.526
304.358
305.398
305.007
303.536
304.761
305.234
305.056
304.932
301.932
301.029
301.726
303.03
303.172
301.507
301.309
301.9
301.254
302.343
302.834
302.879
302.338
302.372
301.538
300.822
302.162
300.239
302.291
300.854
324.037
324.127
322.794
323.373
323.867
323.911
323.751
324.275
324.747
324.953
324.073
325.053
324.231
323.682
323.347
322.982
323.442
322.563
323.455
323.013
319.861
320.645
319.962
318.555
320.308
320.018
320.049
321.425
322.203
321.413
321.394
319.875
321.317
321.2
320.839
319.705
319.895
319.619
319.38
320.344
316.312
316.889
317.134
317.003
316.707
316.37
316.761
317.224
317.01
317.791
319.306
317.49
317.982
316.83
317.737
316.666
317.515
316.307
316.149
317.936
314.511
314.302
314.687
313.488
313.682
314.359
314.098
314.085
314.049
314.696
314.464
314.968
314.64
314.543
313.35
313.946
313.827
312.75
314.36
313.513
310.415
310.152
310.312
309.757
310.813
311.627
311.12
311.504
310.58
311.415
311.399
312.009
311.784
310.939
310.798
311.57
310.598
311.014
310.463
309.993
307.823
307.298
308.101
306.307
307.82
307.909
308.573
308.111
306.635
308.039
309.421
308.467
307.799
308.014
307.559
307.814
308.547
307.061
307.699
307.572
304.058
303.589
305.107
304.272
304.817
305.038
304.641
303.485
305.892
304.259
304.505
305.841
304.193
304.243
304.885
304.609
304.66
304.683
304.363
304.308
301.655
302.117
300.776
302.213
302.262
301.164
300.898
300.652
301.212
302.174
302.516
301.69
301.864
301.392
301.383
301.781
300.931
301.902
301.845
303.067
323.419
324.937
324.181
322.997
323.973
322.843
325.024
324.066
323.295
325.354
324.759
325.715
325.167
324.185
323.472
323.281
323.976
323.811
323.31
323.114
320.147
319.081
320.784
319.334
319.405
320.847
320.717
321.02
321.474
321.27
321.399
322.197
320.94
322.256
320.436
319.946
319.713
320.1
319.287
321.238
317.779
317.567
316.891
316.38
317.555
316.923
317.808
317.571
318.521
318.663
318.87
318.286
318.107
317.465
317.576
316.402
316.852
316.561
316.363
317.166
315.118
314.556
314.298
313.097
314.715
313.353
313.629
314.194
314.9
316.809
315.58
315.175
313.82
313.445
314.402
314.189
313.293
313.113
313.966
315.162
311.454
311.045
311.391
311.924
310.933
310.264
310.964
311.369
311.039
312.009
311.413
311.747
312.95
311.712
312.752
310.185
311.642
310.684
311.079
310.953
307.653
306.996
308.015
308.643
307.162
308.401
308.309
307.642
307.348
307.088
308.343
308.614
307.518
308.494
308.683
307.602
307.748
307.527
307.745
307.968
304.645
304.534
304.637
304.595
304.595
305.586
305.045
305.058
303.887
305.851
305.73
305.387
303.739
305.335
304.184
304.82
305.511
304.701
304.346
305.227
302.059
301.848
302.026
302.445
301.42
301.814
301.898
300.615
302.068
302.252
303.583
302.31
301.682
301.755
301.131
301.776
300.119
300.774
301.299
300.637
324.687
324.462
324.109
323.753
323.424
324.171
324.783
325.799
325.095
325.159
324.674
324.95
324.831
325.054
323.489
324.308
323.036
323.816
323.22
324.153
321.523
321.782
320.566
320.83
320.647
321.624
321.293
321.861
322.857
320.501
321.708
323.781
322.417
321.983
321.455
321.519
319.215
319.429
320.378
320.562
318.651
318.649
318.51
318.14
319.011
318.304
318.84
317.903
318.826
318.463
318.58
319.044
318.744
317.611
317.793
318.079
316.947
316.831
316.849
318.033
315.371
314.75
314.484
314.542
314.355
314.422
314.646
315.609
315.348
315.56
314.945
315.233
315.74
314.165
313.956
314.762
314.545
314.338
314.063
314.231
312.557
311.476
311.341
311.374
311.417
310.892
311.796
311.879
312.13
313.202
311.584
311.763
311.351
311.04
312.456
311.823
312.696
310.8
310.171
311.163
307.768
307.422
308.607
307.835
307.269
308.274
307.747
308.256
308.418
308.32
308.374
308.386
307.73
308.291
308.081
309.395
307.451
308.921
308.136
308.045
305.48
305.209
305.605
304.616
304.432
304.019
305.007
305.229
304.683
305.255
304.519
304.833
304.927
305.698
304.895
303.815
304.754
304.951
304.562
307.594
301.59
301.967
302.042
301.41
301.715
301.066
301.463
301.164
300.862
301.672
301.69
301.873
301.309
302.412
302.265
301.799
301.192
301.245
301.364
301.945
324.414
323.862
324.318
323.974
324.848
324.949
325.338
325.127
326.027
327.122
325.552
326.096
325.692
326.435
325.255
325.081
324.425
325.14
324.725
324.721
322.472
320.412
321.141
320.496
321.495
321.622
321.059
321.644
322.256
322.151
321.598
322.611
321.73
322.526
321.212
321.809
321.015
321.52
319.566
320.618
317.719
317.466
318.251
317.011
316.592
318.645
318.332
318.487
319.416
318.002
319.787
319.641
320.244
317.579
317.746
318.757
318.481
317.132
319.328
317.729
314.884
315.704
313.912
315.159
314.666
314.293
315.192
315.198
315.69
315.467
315.058
316.339
315.172
315.169
314.084
313.821
314.536
314.362
314.22
316.225
312.001
311.235
310.923
311.928
310.999
311.188
311.782
310.957
312.453
314.25
313.208
312.556
312.237
312.071
311.917
310.977
312.334
310.396
312.209
312.09
307.483
308.136
309.066
308.078
307.127
307.815
309.08
308.211
309.286
308.411
308.935
309.28
308.683
308.206
307.59
307.705
308.503
307.44
308.275
307.753
305.188
304.754
305.189
305.956
304.161
304.555
305.042
305.774
304.258
305.361
305.116
306.845
303.966
305.937
305.785
304.4
304.696
304.518
304.296
303.96
301.064
301.814
301.883
301.44
301.943
300.847
301.748
301.558
301.653
301.86
301.121
301.112
301.883
301.258
301.367
302.223
301.498
301.044
301.505
301.55
326.025
325.346
324.514
325.948
325.809
324.863
324.954
326.103
327.253
326.185
326.739
326.743
326.108
324.982
326.695
325.884
325.824
324.895
325.914
324.386
323.119
320.943
322.653
321.505
322.19
321.204
323.596
321.963
322.938
322.408
322.575
322.875
321.892
323.944
321.569
321.726
320.929
321.41
320.679
323.026
318.94
319.901
318.453
318.792
319.447
318.267
319.607
318.983
319.415
320.205
320.453
319.079
319.865
318.77
319.624
318.472
318.121
318.025
317.951
318.89
315.574
314.788
314.524
314.982
314.196
316.082
315.599
315.448
315.776
315.836
316.525
316.193
315.447
316.408
315.087
315.533
314.767
314.663
314.54
315.24
312.041
312.03
312.037
311.907
310.588
311.684
313.261
312.85
312.827
311.015
312.925
312.359
311.4
313.434
311.021
311.445
311.481
310.596
310.868
311.666
308.301
309.004
307.698
308.128
308.318
308.897
307.786
308.976
309.122
309.866
308.477
309.804
309.49
308.446
308.879
308.45
308.604
308.578
308.579
308.543
305.399
305.748
305.156
305.256
303.984
304.573
304.156
305.506
306.136
306.503
303.773
304.346
306.789
305.256
304.921
304.724
304.922
305.298
304.578
305.54
301.557
301.373
302.274
301.497
301.949
302.14
302.204
301.984
302.47
302.036
300.484
301.085
301.846
301.781
301.378
302.152
300.558
302.818
301.632
301.863
326.497
326.754
325.473
327.321
325.783
326.031
325.963
326.578
326.931
326.365
327.461
326.736
325.786
325.968
326.47
325.405
324.429
325.424
324.677
325.541
322.099
324.864
322.011
322.428
322.646
322.717
323.063
322.735
322.039
322.505
324.183
323.871
323.382
323.567
322.627
321.928
322.797
323.002
322.869
322.043
320.561
319.986
317.965
318.233
318.022
318.884
319.158
319.65
319.375
319.562
319.634
319.532
319.542
320.095
318.815
319.397
318.518
318.698
319.554
320.122
315.836
314.934
315.23
314.482
316.214
315.241
315.558
315.621
316.297
315.291
316.176
315.721
316.315
315.741
316.018
314.745
314.788
315.247
316.352
315.492
312.038
312.224
312.357
313.032
312.577
311.952
313.271
312.553
311.913
313.42
312.924
312.273
312.004
312.002
313.153
313.602
312.301
311.729
311.926
311.105
307.915
308.839
308.358
308.043
309.403
308.275
309.99
309.374
308.156
308.948
308.991
310.465
308.169
309.064
307.705
310.252
308.262
308.873
308.178
308.754
305.167
305.66
305.896
303.777
305.15
304.744
306.194
305.433
305.482
305.242
305.736
306.058
305.815
304.793
305.395
305.66
305.346
305.593
305.111
305.031
301.383
301.169
301.935
301.46
301.622
301.932
301.742
302.247
301.94
300.972
301.276
301.742
302.178
302.222
301.758
301.513
302.109
301.998
301.667
302.017
327.758
326.46
326.222
327.721
325.963
326.272
326.523
327.482
327.325
328.245
326.991
328.124
326.752
326.475
326.439
326.349
326.149
326.342
326.593
327.296
322.398
322.03
322.14
322.625
322.779
322.545
323.393
323.174
324.258
323.35
323.662
324.833
323.371
324.221
322.846
322.63
322.68
323.116
322.09
322.987
319.772
319.333
319.545
318.909
319.312
321.307
318.757
318.515
319.523
320.497
321.361
320.253
320.562
320.066
319.152
319.46
318.61
319.414
318.353
319.689
316.329
315.796
315.996
316.633
316.169
315.972
315.895
315.757
314.776
316.388
316.494
316.673
316.848
316.434
316.264
314.58
315.243
314.876
315.309
316.178
312.103
312.061
312.705
312.086
311.678
312.772
312.836
311.499
313.923
312.322
312.494
312.995
312.664
313.143
312.247
312.978
311.671
311.983
311.632
312.704
309.048
309.116
309.275
308.341
309.794
308.522
308.787
309.11
309.768
309.448
309.52
308.631
308.973
308.741
309.188
308.433
308.269
308.279
309.037
308.848
304.803
305.262
304.728
305.514
306.352
305.711
304.895
304.626
305.663
306.21
304.562
306.113
304.953
305.479
305.108
303.947
305.143
304.776
305.226
304.897
301.51
301.657
301.565
301.896
300.774
301.875
303.078
301.475
301.985
301.468
302.146
302.532
302.987
302.133
301.242
301.384
301.258
301.56
302.464
301.898
327.598
327.463
328.089
327.829
327.562
326.854
328.857
327.399
328.447
328.956
328.096
327.77
327.05
327.681
326.158
327.761
327.288
327.356
325.805
326.559
323.964
324.266
323.156
323.722
323.337
322.752
324.322
324.813
324.622
324.298
325.024
325.11
324.078
323.464
322.607
323.787
323.009
322.606
323.166
323.783
321.06
320.911
320.749
320.671
320.077
321.045
319.377
320.777
319.78
319.221
320.24
321.741
319.721
319.089
321.219
319.66
319.571
320.288
319.667
320.366
315.949
316.873
315.933
317.17
316.176
316.296
315.878
317.387
316.599
316.312
316.579
316.868
316.57
316.694
316.315
316.681
315.34
316.194
316.352
316.653
312.759
312.585
311.495
312.194
313.357
312.804
313.05
311.705
312.885
312.537
313.703
312.611
312.861
312.579
312.808
311.393
312.018
312.09
311.924
313.065
309.858
308.976
308.825
309.441
309.51
309.247
307.612
308.873
309.964
309.01
309.519
308.431
310.185
309.941
309.81
308.464
307.882
309.031
309.521
309.613
305.93
304.85
305.048
305.488
305.516
304.667
305.708
304.762
305.092
305.772
306.222
305.31
306.112
306.029
305.789
304.967
305.781
305.425
305.248
306.702
302.027
301.714
301.281
302.184
301.449
301.972
302.557
302.215
302.088
301.659
301.362
301.311
302.316
301.474
301.381
300.733
300.804
302.314
302.153
301.578
329.017
328.341
328.476
327.53
328.183
328.054
327.24
329.205
329.274
329.146
328.011
329.418
328.214
327.59
327.12
327.691
327.26
327.061
326.756
328.403
323.759
323.628
323.77
323.798
324.294
324.332
324.7
324.738
325.014
325.01
324.364
325.211
324.399
323.783
324.57
323.563
324.081
323.315
323.245
323.822
320.196
319.497
320.291
319.917
319.754
319.491
320.501
320.841
319.816
320.194
320.973
321.52
320.769
320.672
319.905
319.075
319.315
320.85
319.128
320.702
316.398
316.652
316.926
316.67
317.278
317.299
317.038
316.116
316.698
317.104
317.202
317.519
315.633
316.603
316.483
316.212
315.932
315.853
316.302
316.467
313.614
313.385
314.664
312.524
312.783
313.081
313.166
313.274
313.705
313.027
312.954
312.61
312.795
312.373
313.189
311.463
313.95
311.704
312.981
312.964
308.365
308.722
309.782
309.947
309.061
308.324
309.029
310.125
308.414
309.713
308.765
308.965
309.592
309.261
309.774
308.473
308.528
309.579
309.519
308.664
306.02
305.838
305.853
306.054
304.605
305.22
306.144
304.914
304.849
306.404
306.699
306.327
305.492
306.253
304.956
305.874
304.619
305.649
305.313
305.969
302.063
301.407
301.478
301.03
301.485
302.282
302.251
302.433
300.886
301.713
301.652
301.322
302.026
301.62
301.736
301.533
303.061
302.442
302.38
301.883
329.511
329.332
329.047
328.929
327.914
328.856
328.743
329.629
329.241
329.577
328.694
329.831
329.946
328.131
328.955
328.923
329.379
328.322
327.859
327.422
326.611
325.18
324.24
324.26
324.15
324.264
324.75
324.403
325.427
324.426
325.338
326.06
324.142
326.141
324.443
324.923
323.67
324.353
324.064
325.045
320.573
321.083
319.423
321.111
321.266
320.837
321.418
321.049
321.937
320.658
321.636
321.026
321.312
321.825
320.038
320.511
321.021
320.023
319.948
319.816
316.579
317.625
316.82
316.039
316.174
316.376
317.047
317.668
317.596
317.599
317.524
317.066
317.757
316.177
316.928
317.861
315.537
317.279
317.26
316.929
314.119
313.037
312.713
313.559
313.006
313.392
313.522
314.18
313.06
313.707
313.03
313.903
313.419
312.754
313.362
313.559
312.855
313.256
313.094
311.787
310.858
309.86
308.781
309.635
308.854
309.334
311.085
308.881
309.813
310.269
310.465
309.25
309.691
309.575
309.487
309.825
309.474
308.762
308.783
309.392
305.755
304.14
306.068
305.78
306.208
304.975
305.359
305.279
306.28
305.19
305.406
306.483
306.402
305.43
305.492
304.414
304.806
304.694
305.505
306.89
302.32
302.209
301.445
302.043
301.824
302.35
302.741
301.66
301.221
301.281
302.305
301.703
301.855
302.399
302.111
301.965
301.518
301.595
302.998
301.146
330.019
329.236
330.44
328.859
328.347
327.978
328.483
329.502
329.433
329.605
329.981
329.904
330.646
329.692
329.825
329.089
328.233
328.487
329.172
328.83
326.55
325.377
325.165
325.684
323.713
325.344
324.953
325.991
325.573
326.154
326.228
326.164
326.039
326.368
325.632
323.821
325.586
325.005
324.883
324.135
322.014
321.443
321.305
321.075
320.681
320.899
321.372
321.956
321.632
322.163
321.598
322.114
321.249
320.853
322.366
320.404
320.55
320.485
319.895
320.567
318.382
319.13
317.912
317.912
316.962
317.32
316.963
316.97
317.974
318.008
317.786
318.051
316.897
318.298
317.421
317.262
317.022
316.262
316.861
317.396
313.792
312.845
312.647
312.537
313.73
313.068
313.664
314.26
312.949
313.703
312.317
311.756
313.745
312.381
313.442
313.914
312.202
312.121
313.8
313.577
310.644
310.141
308.881
308.872
310.391
310.207
310.37
309.915
310.437
309.437
310.038
309.587
310.016
309.941
310.083
309.021
309.536
310.162
310.039
309.646
306.018
305.969
305.304
306.14
305.54
306.734
306.518
305.524
305.486
306.236
305.148
305.311
305.496
304.566
305.886
305.511
305.799
306.177
305.946
306.471
301.58
301.706
302.862
302.168
301.037
302.78
301.956
302.281
301.064
301.794
301.771
301.175
301.664
303.434
301.79
301.466
302.337
301.954
301.967
301.671
330.73
330.703
330.234
330.681
330.434
330.258
329.683
330.317
329.44
329.983
331.359
330.091
330.03
330.297
330.118
328.849
329.823
329.51
330.137
328.715
326.492
325.91
325.495
326.119
325.219
325.786
325.666
325.572
325.766
326.208
324.484
326.436
325.948
325.645
325.932
324.421
324.6
326.333
325.071
325.089
323.595
321.401
321.874
322.037
320.987
321.427
321.692
321.872
323.051
321.301
320.72
321.957
321.466
320.774
321.284
321.096
321.513
322.066
322.185
320.683
318.451
318.461
318.4
317.883
317.646
317.576
317.945
318.505
317.022
318.038
317.526
318.202
316.967
317.374
318.062
318.334
317.712
315.989
316.911
316.619
314.081
313.994
313.76
312.922
313.227
314.499
313.997
314.553
313.663
313.894
314.448
314.136
312.931
313.322
314.074
312.818
313.975
313.727
313.741
312.767
311.043
310.122
310.829
309.83
309.758
308.02
309.906
308.749
309.611
309.353
308.728
308.062
310.278
309.158
310.376
309.93
309.534
309.579
310.123
309.953
305.62
306.091
306.227
306.537
305.042
306.139
305.225
306.238
305.481
305.153
304.866
305.488
304.995
304.826
305.87
306.429
306.526
305.955
306.283
305.587
302.138
301.839
301.993
301.08
301.867
302.421
301.176
301.07
302.689
302.528
302.879
301.149
302.287
301.83
301.363
301.431
301.389
302.225
301.86
301.001
331.876
330.353
330.161
329.593
329.928
330.567
330.941
330.76
330.544
330.252
330.461
329.817
331.303
329.248
329.969
328.57
330.053
328.752
329.171
329.341
327.294
327.409
326.751
327.207
326.224
327.759
326.583
327.383
326.914
327.679
327.899
324.794
327.581
325.664
327.331
325.207
327.276
324.913
327.137
326.396
322.71
322.701
323.131
322.481
321.012
321.541
321.828
321.45
321.588
322.215
321.855
321.381
321.868
321.376
321.238
321.567
320.881
322.099
321.942
321.831
318.764
318.719
318.175
318.331
318.175
317.964
318.94
316.821
317.148
318.478
318.263
317.722
318.904
316.762
317.811
316.202
317.646
318.105
317.381
318.406
314.756
314.311
315.493
314.335
314.53
315.71
314.02
315.075
314.43
314.915
313.769
313.816
314.135
313.566
314.714
313.031
313.525
314.206
313.73
314.102
309.964
310.857
310.213
310.758
309.759
309.519
310.933
309.76
309.949
309.373
309.251
310.61
309.633
310.123
309.586
309.478
309.663
309.411
309.81
310.614
305.58
304.826
305.767
306.652
306.078
306.125
305.425
306.637
307.907
305.456
305.752
307.187
305.106
306.016
307.112
305.03
305.223
306.155
304.917
306.102
302.876
301.642
301.422
301.944
301.57
302.65
301.495
301.589
302.557
301.193
302.139
302.555
301.287
302.501
302.475
302.337
301.295
301.766
301.693
303.247
331.014
331.718
331.945
331.288
330.534
330.854
330.537
331.479
330.874
330.944
331.457
331.868
331.866
330.587
330.307
330.257
331.559
330.194
330.492
330.913
326.94
326.859
326.221
326.25
326.302
326.306
325.932
326.528
326.931
327.541
326.468
326.771
326.508
325.948
325.584
326.046
326.756
325.914
326.576
326.396
324.551
322.944
323.598
322.029
322.768
322.22
322.378
321.953
323.05
321.022
322.315
322.779
322.72
321.385
322.566
322.637
321.699
321.94
321.789
321.759
319.164
318.579
317.284
318.493
317.995
318.422
319.158
318.619
317.836
317.24
317.916
318.749
318.343
318.208
318.046
317.973
318.71
318.707
317.565
317.454
313.949
314.773
314.852
314.275
314.79
314.021
314.569
313.838
313.853
313.64
314.655
314
314.907
314.553
313.468
314.391
314.312
314.324
313.385
313.812
310.487
309.934
309.716
311.274
309.17
310.596
310.202
310.431
309.284
311.685
310.111
310.438
310.564
309.692
310.019
310.339
310.693
309.95
310.185
310.71
307.162
306.36
304.63
306.845
306.151
306.763
305.947
306.017
307.025
305.883
306.407
305.873
306.079
305.624
305.465
305.968
306.2
306.681
304.484
306.696
301.509
302.506
301.815
301.707
302.821
303.16
303.163
301.019
301.486
302.641
301.39
301.794
302.15
301.341
302.037
303.045
301.417
302.687
301.721
301.247
)
;

boundaryField
{
    hotSide
    {
        type            fixedGradient;
        gradient        nonuniform List<scalar> 
400
(
321.511
322.87
325.591
329.677
335.133
341.965
350.181
359.788
370.794
383.208
397.037
412.289
428.971
447.088
466.647
487.651
510.105
534.011
559.372
586.191
323.738
325.08
327.767
331.802
337.194
343.949
352.078
361.591
372.498
384.81
398.537
413.687
430.268
448.289
467.755
488.672
511.043
534.872
560.161
586.913
326.149
327.47
330.116
334.091
339.406
346.071
354.099
363.503
374.296
386.491
400.101
415.136
431.606
449.52
468.885
489.706
511.988
535.735
560.948
587.63
328.704
330
332.597
336.503
341.73
348.292
356.205
365.485
376.15
388.215
401.695
416.604
432.954
450.753
470.009
490.73
512.919
536.579
561.714
588.325
331.33
332.599
335.142
338.97
344.099
350.546
358.332
367.477
378.003
389.928
403.271
418.047
434.27
451.949
471.095
491.712
513.807
537.382
562.439
588.978
333.918
335.158
337.643
341.389
346.414
352.74
360.392
369.397
379.779
391.562
404.765
419.407
435.503
453.065
472.101
492.618
514.622
538.114
563.096
589.569
336.321
337.531
339.959
343.622
348.544
354.751
362.274
371.142
381.385
393.031
406.101
420.618
436.595
454.047
472.983
493.409
515.33
538.747
563.663
590.076
338.36
339.543
341.92
345.509
350.339
356.44
363.847
372.595
382.718
394.244
407.2
421.608
437.485
454.844
473.695
494.045
515.897
539.253
564.114
590.478
339.852
341.015
343.352
346.885
351.645
357.665
364.985
373.643
383.675
395.113
407.984
422.312
438.116
455.407
474.197
494.491
516.294
539.606
564.428
590.758
340.643
341.795
344.11
347.613
352.334
358.311
365.584
374.193
384.176
395.567
408.393
422.679
438.443
455.699
474.456
494.722
516.498
539.788
564.589
590.901
340.643
341.795
344.11
347.613
352.334
358.311
365.584
374.193
384.176
395.567
408.393
422.679
438.443
455.699
474.456
494.722
516.498
539.788
564.589
590.901
339.852
341.015
343.352
346.885
351.645
357.665
364.985
373.643
383.675
395.113
407.984
422.312
438.116
455.407
474.197
494.491
516.294
539.606
564.428
590.758
338.36
339.543
341.92
345.509
350.339
356.44
363.847
372.595
382.718
394.244
407.2
421.608
437.485
454.844
473.695
494.045
515.897
539.253
564.114
590.478
336.321
337.531
339.959
343.622
348.544
354.751
362.274
371.142
381.385
393.031
406.101
420.618
436.595
454.047
472.983
493.409
515.33
538.747
563.663
590.076
333.918
335.158
337.643
341.389
346.414
352.74
360.392
369.397
379.779
391.562
404.765
419.407
435.503
453.065
472.101
492.618
514.622
538.114
563.096
589.569
331.33
332.599
335.142
338.97
344.099
350.546
358.332
367.477
378.003
389.928
403.271
418.047
434.27
451.949
471.095
491.712
513.807
537.382
562.439
588.978
328.704
330
332.597
336.503
341.73
348.292
356.205
365.485
376.15
388.215
401.695
416.604
432.954
450.753
470.009
490.73
512.919
536.579
561.714
588.325
326.149
327.47
330.116
334.091
339.406
346.071
354.099
363.503
374.296
386.491
400.101
415.136
431.606
449.52
468.885
489.706
511.988
535.735
560.948
587.63
323.738
325.08
327.767
331.802
337.194
343.949
352.078
361.591
372.498
384.81
398.537
413.687
430.268
448.289
467.755
488.672
511.043
534.872
560.161
586.913
321.511
322.87
325.591
329.677
335.133
341.965
350.181
359.788
370.794
383.208
397.037
412.289
428.971
447.088
466.647
487.651
510.105
534.011
559.372
586.191
)
;
    }
    coldSide
    {
        type            mixed;
        refValue        uniform 300;
        refGradient     uniform 0;
        valueFraction   uniform 0.991591;
        source          uniform 0;
        value           nonuniform List<scalar> 
400
(
300.02
300.011
300.016
300.018
300.021
300.016
300.014
300.017
300.013
300.009
300.013
300.012
300.013
300.017
300.017
300.02
300.013
300.018
300.024
300.013
300.003
300.007
300.01
300.018
300.014
300.009
300.018
300.016
300.017
300.015
300.012
300.01
300.014
300.014
300.012
300.019
300.014
300.015
300.014