/*--------------------------------*- C++ -*----------------------------------*\
| =========                 |                                                 |
| \\      /  F ield         | OpenFOAM: The Open Source CFD Toolbox           |
|  \\    /   O peration     | Version:  2212                                  |
|   \\  /    A nd           | Website:  www.openfoam.com                      |
|    \\/     M anipulation  |                                                 |
\*---------------------------------------------------------------------------*/
FoamFile
{
    version     2.0;
    format      ascii;
    arch        "LSB;label=32;scalar=64";
    class       volScalarField;
    location    "0";
    object      T;
}
// * * * * * * * * * * * * * * * * * * * * * * * * * * * * * * * * * * * * * //

dimensions      [0 0 0 1 0 0 0];

internalField   nonuniform List<scalar> 
3200
(
322.484
321.671
321.117
321.189
321.174
321.28
321.803
322.16
322.49
322.716
322.871
322.812
322.656
322.232
322.106
321.888
321.741
321.894
322.48
323.083
319.426
318.728
318.258
318.315
318.325
318.403
318.867
319.185
319.456
319.675
319.805
319.751
319.626
319.261
319.159
318.948
318.841
318.974
319.466
319.965
316.38
315.818
315.413
315.467
315.473
315.537
315.927
316.198
316.453
316.631
316.753
316.697
316.577
316.259
316.201
315.994
315.934
316.068
316.472
316.884
313.36
312.928
312.601
312.62
312.645
312.701
313.007
313.237
313.456
313.585
313.732
313.671
313.547
313.279
313.249
313.064
313.041
313.144
313.477
313.805
310.362
310.05
309.798
309.777
309.852
309.873
310.105
310.285
310.459
310.543
310.698
310.638
310.546
310.317
310.301
310.147
310.141
310.197
310.463
310.738
307.399
307.178
306.989
306.98
307.044
307.04
307.247
307.347
307.47
307.508
307.658
307.617
307.529
307.376
307.383
307.259
307.239
307.288
307.467
307.656
304.455
304.305
304.195
304.187
304.23
304.206
304.354
304.404
304.482
304.481
304.598
304.576
304.52
304.441
304.436
304.368
304.362
304.376
304.469
304.589
301.497
301.443
301.408
301.404
301.415
301.403
301.463
301.481
301.511
301.493
301.544
301.529
301.515
301.494
301.492
301.465
301.463
301.46
301.485
301.528
322.62
321.798
321.288
321.298
321.317
321.567
321.961
322.414
322.778
323.006
323.14
323.205
322.929
322.621
322.362
322.004
322.041
322.006
322.516
323.198
319.539
318.853
318.391
318.435
318.461
318.679
318.976
319.383
319.703
319.905
320.05
320.079
319.86
319.585
319.334
319.021
319.092
319.029
319.484
320.044
316.48
315.949
315.535
315.587
315.603
315.775
316.006
316.375
316.635
316.815
316.951
316.953
316.78
316.556
316.328
316.069
316.16
316.097
316.472
316.927
313.43
313.048
312.69
312.753
312.749
312.9
313.082
313.385
313.582
313.734
313.859
313.846
313.718
313.514
313.33
313.139
313.208
313.168
313.441
313.818
310.413
310.14
309.856
309.929
309.905
310.022
310.162
310.396
310.53
310.671
310.796
310.749
310.673
310.501
310.362
310.2
310.282
310.249
310.441
310.742
307.429
307.248
307.048
307.131
307.071
307.159
307.245
307.437
307.513
307.621
307.737
307.675
307.619
307.49
307.392
307.269
307.357
307.337
307.467
307.674
304.466
304.368
304.249
304.304
304.235
304.29
304.35
304.485
304.5
304.574
304.652
304.621
304.583
304.5
304.428
304.357
304.417
304.409
304.473
304.602
301.492
301.464
301.432
301.443
301.423
301.438
301.471
301.502
301.509
301.528
301.56
301.554
301.528
301.504
301.485
301.46
301.481
301.473
301.501
301.542
322.751
322.026
321.587
321.524
321.616
321.999
322.268
322.744
323.198
323.462
323.571
323.583
323.485
323.021
322.729
322.407
322.312
322.262
322.783
323.504
319.64
319.046
318.663
318.624
318.705
319.001
319.258
319.686
320.065
320.277
320.401
320.407
320.307
319.918
319.66
319.382
319.323
319.281
319.751
320.337
316.564
316.078
315.759
315.74
315.788
316.038
316.294
316.625
316.958
317.143
317.248
317.235
317.135
316.845
316.602
316.385
316.336
316.321
316.702
317.171
313.516
313.132
312.869
312.874
312.887
313.119
313.332
313.581
313.851
314.043
314.099
314.101
313.977
313.776
313.567
313.398
313.359
313.382
313.672
314.022
310.493
310.217
309.983
310.018
309.99
310.211
310.373
310.544
310.731
310.942
310.959
310.958
310.863
310.698
310.55
310.418
310.397
310.43
310.635
310.904
307.477
307.275
307.128
307.158
307.133
307.299
307.385
307.52
307.64
307.823
307.826
307.82
307.733
307.626
307.541
307.449
307.451
307.457
307.597
307.784
304.487
304.358
304.279
304.3
304.282
304.384
304.422
304.511
304.594
304.702
304.699
304.696
304.631
304.581
304.53
304.471
304.484
304.493
304.546
304.666
301.503
301.464
301.435
301.444
301.437
301.456
301.485
301.517
301.542
301.572
301.572
301.571
301.553
301.536
301.52
301.492
301.51
301.52
301.521
301.566
323.014
322.323
322.019
321.886
322.033
322.423
322.918
323.367
323.753
323.995
324.162
324.15
323.93
323.527
323.172
322.765
322.706
322.707
323.184
323.806
319.892
319.301
319.023
318.919
319.05
319.42
319.808
320.208
320.546
320.742
320.895
320.899
320.694
320.375
320.057
319.695
319.656
319.667
320.096
320.575
316.806
316.286
316.051
316.002
316.106
316.404
316.742
317.056
317.334
317.497
317.648
317.655
317.472
317.217
316.935
316.649
316.626
316.616
317.001
317.357
313.731
313.297
313.097
313.09
313.161
313.401
313.678
313.91
314.136
314.296
314.428
314.41
314.281
314.06
313.835
313.611
313.601
313.576
313.902
314.175
310.682
310.318
310.139
310.186
310.231
310.416
310.617
310.79
310.967
311.108
311.227
311.19
311.118
310.914
310.759
310.578
310.569
310.558
310.782
311.009
307.635
307.367
307.235
307.269
307.313
307.453
307.575
307.684
307.825
307.925
308.019
307.999
307.946
307.781
307.676
307.575
307.57
307.538
307.683
307.869
304.586
304.434
304.337
304.377
304.396
304.487
304.542
304.596
304.704
304.758
304.812
304.813
304.758
304.667
304.6
304.557
304.556
304.512
304.612
304.716
301.534
301.484
301.446
301.472
301.474
301.512
301.528
301.536
301.586
301.604
301.611
301.625
301.598
301.562
301.536
301.53
301.527
301.513
301.555
301.576
323.396
322.824
322.529
322.42
322.573
322.973
323.455
323.836
324.267
324.555
324.737
324.713
324.541
324.125
323.677
323.354
323.251
323.298
323.574
324.063
320.196
319.725
319.497
319.386
319.541
319.867
320.286
320.611
320.976
321.235
321.395
321.363
321.211
320.847
320.475
320.179
320.113
320.169
320.391
320.793
317.042
316.671
316.467
316.364
316.51
316.787
317.131
317.418
317.702
317.929
318.063
318.024
317.901
317.616
317.307
317.023
316.999
317.03
317.21
317.547
313.926
313.617
313.435
313.372
313.484
313.724
314.007
314.227
314.432
314.642
314.756
314.695
314.625
314.417
314.143
313.898
313.886
313.922
314.051
314.317
310.834
310.575
310.425
310.396
310.48
310.667
310.902
311.034
311.201
311.362
311.47
311.386
311.38
311.192
311.017
310.809
310.777
310.829
310.894
311.099
307.737
307.563
307.446
307.413
307.482
307.594
307.799
307.871
307.992
308.119
308.19
308.117
308.131
307.99
307.868
307.705
307.695
307.732
307.76
307.91
304.651
304.552
304.462
304.43
304.486
304.553
304.676
304.732
304.782
304.882
304.918
304.865
304.867
304.792
304.724
304.637
304.639
304.633
304.646
304.736
301.557
301.518
301.492
301.49
301.512
301.523
301.569
301.582
301.598
301.637
301.658
301.632
301.631
301.602
301.577
301.56
301.567
301.55
301.556
301.582
324.099
323.433
323.058
322.942
323.191
323.524
324.027
324.466
324.821
325.158
325.35
325.332
325.21
324.751
324.358
323.947
323.803
323.944
324.132
324.554
320.808
320.262
319.922
319.824
320.059
320.335
320.792
321.155
321.47
321.754
321.923
321.886
321.791
321.396
321.058
320.713
320.604
320.727
320.872
321.226
317.565
317.096
316.801
316.715
316.924
317.173
317.572
317.863
318.138
318.384
318.523
318.486
318.407
318.064
317.777
317.482
317.434
317.519
317.613
317.902
314.365
313.958
313.704
313.641
313.826
314.032
314.376
314.592
314.806
315.02
315.113
315.097
315.03
314.744
314.502
314.294
314.242
314.316
314.389
314.603
311.168
310.829
310.629
310.597
310.733
310.905
311.176
311.357
311.482
311.653
311.746
311.723
311.657
311.448
311.273
311.109
311.065
311.099
311.163
311.329
307.963
307.724
307.586
307.565
307.671
307.775
307.985
308.117
308.193
308.309
308.371
308.348
308.336
308.178
308.051
307.936
307.899
307.91
307.972
308.075
304.768
304.635
304.56
304.535
304.618
304.664
304.797
304.88
304.902
304.983
305.015
305.002
304.999
304.9
304.845
304.755
304.752
304.741
304.788
304.847
301.603
301.546
301.522
301.516
301.547
301.555
301.615
301.633
301.641
301.67
301.681
301.672
301.672
301.641
301.636
301.587
301.586
301.583
301.609
301.625
324.791
324.228
323.706
323.701
323.754
324.232
324.55
325.163
325.6
325.929
326.115
326.103
325.892
325.413
324.941
324.724
324.538
324.587
324.894
325.369
321.392
320.928
320.47
320.487
320.509
320.961
321.259
321.742
322.121
322.414
322.563
322.581
322.404
321.964
321.557
321.361
321.22
321.279
321.529
321.899
318.022
317.67
317.269
317.301
317.287
317.697
317.966
318.333
318.687
318.928
319.049
319.076
318.91
318.536
318.182
318.042
317.931
317.987
318.169
318.476
314.696
314.42
314.092
314.14
314.104
314.45
314.697
314.962
315.273
315.447
315.555
315.582
315.445
315.131
314.844
314.74
314.643
314.704
314.85
315.072
311.397
311.189
310.938
310.968
310.948
311.209
311.424
311.627
311.872
312.002
312.074
312.107
312.003
311.748
311.529
311.456
311.375
311.432
311.54
311.699
308.146
307.977
307.812
307.835
307.798
307.991
308.157
308.297
308.471
308.578
308.623
308.642
308.567
308.399
308.236
308.169
308.127
308.173
308.258
308.323
304.897
304.791
304.683
304.695
304.677
304.791
304.902
304.989
305.086
305.136
305.188
305.19
305.145
305.039
304.958
304.911
304.891
304.906
304.951
304.99
301.639
301.602
301.58
301.573
301.563
301.613
301.645
301.677
301.709
301.721
301.738
301.742
301.734
301.678
301.665
301.635
301.646
301.64
301.663
301.664
325.599
325.083
324.488
324.442
324.457
324.937
325.371
325.872
326.342
326.674
326.896
326.805
326.641
326.14
325.847
325.561
325.304
325.423
325.702
326.137
322.086
321.666
321.147
321.097
321.12
321.545
321.946
322.353
322.79
323.048
323.241
323.162
323.056
322.615
322.33
322.111
321.89
321.989
322.222
322.585
318.615
318.274
317.847
317.823
317.817
318.18
318.54
318.853
319.244
319.436
319.611
319.552
319.476
319.119
318.841
318.672
318.485
318.558
318.746
319.053
315.167
314.913
314.548
314.555
314.531
314.841
315.144
315.381
315.726
315.854
316.008
315.973
315.905
315.645
315.376
315.257
315.09
315.161
315.306
315.539
311.755
311.546
311.279
311.308
311.276
311.527
311.737
311.935
312.213
312.312
312.426
312.416
312.332
312.168
311.932
311.854
311.732
311.753
311.887
312.04
308.397
308.229
308.051
308.1
308.046
308.232
308.383
308.519
308.713
308.791
308.855
308.863
308.791
308.696
308.496
308.45
308.37
308.378
308.475
308.572
305.035
304.948
304.843
304.867
304.855
304.924
305.025
305.099
305.229
305.264
305.314
305.325
305.271
305.216
305.097
305.06
305.015
305.02
305.085
305.147
301.695
301.666
301.623
301.622
301.633
301.641
301.673
301.712
301.757
301.762
301.786
301.78
301.757
301.746
301.709
301.697
301.677
301.686
301.699
301.724
326.338
325.793
325.332
325.295
325.375
325.634
326.124
326.591
326.992
327.413
327.566
327.543
327.353
327.03
326.616
326.283
326.061
326.204
326.467
326.847
322.731
322.269
321.867
321.845
321.934
322.162
322.556
322.99
323.349
323.719
323.823
323.802
323.635
323.348
323.038
322.737
322.543
322.66
322.882
323.184
319.144
318.78
318.448
318.426
318.518
318.706
319.025
319.406
319.722
320.047
320.08
320.071
319.94
319.709
319.453
319.208
319.032
319.125
319.333
319.558
315.577
315.278
315.043
315.045
315.138
315.288
315.545
315.85
316.116
316.376
316.399
316.377
316.273
316.123
315.912
315.676
315.539
315.625
315.778
315.966
312.074
311.834
311.672
311.698
311.754
311.885
312.073
312.312
312.53
312.715
312.723
312.713
312.631
312.543
312.376
312.199
312.084
312.133
312.234
312.4
308.609
308.446
308.328
308.359
308.374
308.501
308.631
308.801
308.937
309.064
309.09
309.065
309.023
308.957
308.822
308.712
308.637
308.671
308.711
308.853
305.158
305.074
304.996
305.026
305.02
305.105
305.189
305.285
305.375
305.441
305.46
305.446
305.431
305.37
305.274
305.223
305.183
305.221
305.219
305.314
301.731
301.701
301.673
301.692
301.684
301.707
301.741
301.774
301.804
301.823
301.826
301.819
301.826
301.792
301.759
301.741
301.732
301.751
301.747
301.78
327.128
326.526
326.164
326.179
326.226
326.486
326.858
327.224
327.679
328.113
328.333
328.185
327.974
327.786
327.407
326.981
326.958
326.985
327.237
327.704
323.387
322.9
322.586
322.601
322.679
322.908
323.199
323.487
323.904
324.29
324.474
324.348
324.155
324.009
323.696
323.332
323.306
323.346
323.549
323.938
319.688
319.317
319.036
319.028
319.157
319.342
319.571
319.814
320.184
320.514
320.667
320.557
320.386
320.283
320.019
319.695
319.68
319.711
319.894
320.214
316.052
315.768
315.521
315.504
315.649
315.79
316.004
316.173
316.485
316.746
316.868
316.794
316.651
316.555
316.357
316.092
316.082
316.079
316.246
316.509
312.469
312.261
312.038
312.017
312.166
312.279
312.449
312.545
312.805
312.985
313.097
313.057
312.949
312.848
312.697
312.495
312.484
312.48
312.62
312.818
308.895
308.753
308.592
308.57
308.688
308.767
308.897
308.947
309.144
309.265
309.362
309.332
309.242
309.172
309.078
308.914
308.896
308.905
309.002
309.133
305.339
305.245
305.157
305.141
305.214
305.27
305.356
305.368
305.5
305.566
305.61
305.607
305.548
305.503
305.458
305.34
305.342
305.337
305.393
305.477
301.787
301.756
301.731
301.714
301.743
301.762
301.8
301.803
301.849
301.862
301.879
301.873
301.854
301.843
301.827
301.784
301.788
301.786
301.807
301.841
327.903
327.489
327.066
327.039
327.018
327.32
327.666
328.081
328.429
328.855
329.179
328.985
328.686
328.453
328.165
327.804
327.854
327.779
328.016
328.563
324.065
323.758
323.352
323.347
323.344
323.605
323.893
324.251
324.548
324.932
325.225
325.046
324.766
324.582
324.349
324.014
324.093
324.03
324.202
324.69
320.257
320.067
319.703
319.695
319.708
319.899
320.174
320.452
320.747
321.037
321.283
321.141
320.893
320.729
320.554
320.268
320.339
320.306
320.395
320.847
316.492
316.401
316.086
316.045
316.1
316.222
316.473
316.687
316.96
317.176
317.371
317.245
317.065
316.905
316.788
316.553
316.618
316.61
316.599
317.028
312.786
312.738
312.48
312.435
312.498
312.592
312.809
312.952
313.186
313.34
313.481
313.385
313.272
313.115
313.051
312.855
312.896
312.922
312.873
313.234
309.122
309.078
308.889
308.863
308.912
309
309.161
309.225
309.429
309.499
309.613
309.552
309.476
309.362
309.311
309.177
309.194
309.239
309.185
309.451
305.473
305.445
305.316
305.325
305.355
305.402
305.5
305.532
305.655
305.681
305.77
305.746
305.702
305.613
305.579
305.509
305.515
305.539
305.518
305.671
301.832
301.826
301.79
301.796
301.79
301.823
301.838
301.852
301.892
301.904
301.928
301.918
301.909
301.879
301.864
301.842
301.847
301.85
301.852
301.889
328.829
328.561
328.156
327.9
327.904
328.039
328.413
328.731
329.169
329.494
329.692
329.672
329.438
329.14
328.926
328.7
328.531
328.562
328.819
329.401
324.85
324.67
324.325
324.074
324.078
324.222
324.536
324.812
325.207
325.49
325.649
325.623
325.412
325.168
325.016
324.803
324.647
324.674
324.912
325.373
320.938
320.802
320.503
320.303
320.284
320.44
320.683
320.91
321.262
321.509
321.636
321.616
321.423
321.244
321.128
320.948
320.813
320.812
321.023
321.388
317.085
316.966
316.729
316.558
316.52
316.664
316.882
317.053
317.348
317.577
317.665
317.632
317.498
317.362
317.27
317.117
317.031
316.983
317.163
317.436
313.249
313.158
312.973
312.839
312.817
312.905
313.115
313.23
313.464
313.656
313.705
313.705
313.6
313.488
313.416
313.301
313.244
313.173
313.321
313.523
309.446
309.366
309.229
309.161
309.143
309.196
309.36
309.44
309.597
309.743
309.764
309.793
309.717
309.609
309.582
309.47
309.465
309.409
309.498
309.632
305.647
305.626
305.533
305.485
305.483
305.503
305.635
305.672
305.747
305.847
305.857
305.882
305.836
305.76
305.747
305.68
305.685
305.667
305.69
305.776
301.891
301.885
301.852
301.833
301.846
301.832
301.898
301.908
301.922
301.964
301.968
301.973
301.951
301.927
301.931
301.902
301.901
301.9
301.913
301.938
329.734
329.459
329.059
328.873
328.782
328.899
329.165
329.488
329.939
330.099
330.321
330.223
330.068
329.844
329.721
329.488
329.492
329.394
329.714
330.091
325.641
325.433
325.092
324.934
324.86
324.966
325.179
325.513
325.85
325.99
326.211
326.111
325.973
325.746
325.682
325.493
325.463
325.408
325.647
325.966
321.624
321.445
321.148
321.039
320.953
321.055
321.245
321.56
321.811
321.925
322.11
322.013
321.908
321.694
321.659
321.524
321.497
321.46
321.622
321.883
317.663
317.5
317.25
317.159
317.092
317.183
317.342
317.614
317.826
317.9
318.064
317.963
317.876
317.702
317.646
317.577
317.549
317.558
317.65
317.834
313.715
313.593
313.386
313.337
313.273
313.345
313.484
313.676
313.844
313.887
314.023
313.942
313.875
313.714
313.672
313.668
313.637
313.678
313.716
313.842
309.782
309.741
309.544
309.529
309.464
309.523
309.631
309.76
309.889
309.905
309.987
309.937
309.894
309.757
309.745
309.762
309.75
309.781
309.785
309.884
305.844
305.84
305.723
305.705
305.674
305.707
305.788
305.854
305.924
305.942
305.967
305.958
305.925
305.844
305.847
305.847
305.871
305.885
305.853
305.928
301.961
301.959
301.907
301.915
301.907
301.904
301.93
301.963
301.981
301.997
301.997
301.982
301.98
301.96
301.961
301.963
301.971
301.975
301.966
301.992
330.771
330.278
329.844
329.762
329.563
329.713
329.923
330.115
330.546
330.69
330.88
330.796
330.893
330.644
330.383
330.243
330.275
330.241
330.615
330.958
326.556
326.145
325.771
325.71
325.514
325.629
325.832
326.011
326.385
326.492
326.66
326.586
326.688
326.484
326.227
326.118
326.153
326.115
326.43
326.713
322.394
322.078
321.748
321.685
321.514
321.598
321.79
321.959
322.305
322.349
322.49
322.405
322.53
322.361
322.122
322.033
322.066
322.043
322.267
322.545
318.263
318.02
317.772
317.683
317.546
317.606
317.777
317.935
318.241
318.237
318.36
318.302
318.391
318.255
318.062
317.99
318.024
317.989
318.149
318.415
314.183
313.968
313.809
313.717
313.602
313.661
313.807
313.959
314.2
314.145
314.263
314.22
314.257
314.174
314.028
313.954
313.984
313.97
314.084
314.311
310.115
309.974
309.868
309.795
309.707
309.754
309.848
309.968
310.136
310.074
310.181
310.149
310.171
310.112
309.992
309.942
309.968
309.965
310.056
310.224
306.063
306
305.932
305.902
305.813
305.844
305.911
305.979
306.07
306.034
306.105
306.072
306.088
306.06
305.978
305.955
305.982
305.971
306.024
306.151
302.028
302.008
301.985
301.985
301.948
301.962
301.974
302.003
302.032
302.013
302.046
302.032
302.039
302.034
302.002
301.991
301.998
301.997
302.02
302.052
331.707
331.223
330.719
330.556
330.396
330.553
330.787
330.981
331.216
331.324
331.533
331.473
331.419
331.383
331.189
330.951
330.978
331.2
331.438
331.763
327.356
326.953
326.529
326.381
326.25
326.367
326.572
326.745
326.954
327.021
327.219
327.167
327.132
327.117
326.933
326.727
326.754
326.95
327.159
327.427
323.055
322.737
322.376
322.27
322.145
322.242
322.403
322.541
322.738
322.777
322.97
322.906
322.899
322.9
322.728
322.541
322.571
322.759
322.923
323.142
318.807
318.573
318.286
318.186
318.063
318.151
318.276
318.373
318.571
318.566
318.727
318.686
318.691
318.735
318.566
318.388
318.422
318.592
318.718
318.9
314.606
314.424
314.187
314.11
314.026
314.103
314.169
314.26
314.425
314.409
314.515
314.492
314.511
314.555
314.413
314.268
314.291
314.449
314.548
314.676
310.417
310.306
310.097
310.073
310.015
310.071
310.101
310.17
310.282
310.265
310.365
310.345
310.367
310.371
310.293
310.161
310.198
310.305
310.394
310.479
306.262
306.193
306.051
306.057
306.029
306.049
306.04
306.097
306.161
306.159
306.231
306.195
306.212
306.215
306.174
306.087
306.127
306.185
306.236
306.292
302.092
302.079
302.031
302.026
302.018
302.029
302.019
302.039
302.065
302.071
302.082
302.079
302.07
302.079
302.075
302.047
302.051
302.072
302.093
302.103
332.548
332.088
331.652
331.402
331.29
331.408
331.483
331.749
331.912
331.956
332.24
332.112
332.117
331.994
331.883
331.77
331.822
332.138
332.278
332.502
328.075
327.672
327.298
327.088
327.011
327.11
327.171
327.396
327.566
327.554
327.829
327.737
327.746
327.648
327.53
327.423
327.495
327.76
327.868
328.041
323.659
323.321
322.987
322.832
322.77
322.858
322.906
323.106
323.266
323.225
323.481
323.408
323.404
323.34
323.229
323.137
323.191
323.428
323.503
323.629
319.272
319.002
318.748
318.617
318.576
318.654
318.709
318.836
318.999
318.944
319.155
319.107
319.076
319.087
318.974
318.893
318.933
319.124
319.178
319.268
314.936
314.728
314.561
314.442
314.402
314.463
314.528
314.609
314.763
314.718
314.862
314.823
314.799
314.821
314.742
314.673
314.686
314.854
314.886
314.965
310.627
310.492
310.369
310.286
310.268
310.327
310.38
310.41
310.542
310.509
310.604
310.578
310.553
310.564
310.54
310.472
310.459
310.595
310.615
310.682
306.371
306.295
306.212
306.174
306.153
306.199
306.235
306.247
306.332
306.321
306.379
306.354
306.339
306.322
306.333
306.269
306.269
306.368
306.373
306.407
302.136
302.11
302.082
302.062
302.057
302.076
302.093
302.095
302.118
302.117
302.133
302.13
302.12
302.107
302.126
302.108
302.097
302.133
302.132
302.147
333.362
332.962
332.555
332.318
332.241
332.147
332.322
332.359
332.668
332.808
332.905
332.891
332.868
332.81
332.638
332.56
332.535
332.852
333.055
333.303
328.77
328.43
328.089
327.879
327.832
327.714
327.873
327.946
328.208
328.322
328.411
328.388
328.372
328.361
328.186
328.097
328.078
328.386
328.521
328.736
324.256
323.935
323.687
323.482
323.468
323.334
323.495
323.557
323.815
323.883
323.956
323.964
323.927
323.927
323.788
323.683
323.654
323.97
324.026
324.231
319.779
319.502
319.311
319.136
319.139
319.016
319.183
319.212
319.455
319.488
319.55
319.559
319.508
319.534
319.414
319.313
319.311
319.575
319.588
319.781
315.341
315.119
314.979
314.843
314.835
314.739
314.891
314.908
315.111
315.127
315.174
315.206
315.15
315.17
315.081
314.992
315.006
315.229
315.184
315.365
310.923
310.781
310.702
310.599
310.58
310.516
310.628
310.643
310.791
310.776
310.823
310.833
310.815
310.838
310.779
310.681
310.709
310.878
310.829
310.974
306.528
306.481
306.429
306.369
306.336
306.34
306.397
306.39
306.466
306.478
306.498
306.48
306.494
306.512
306.48
306.396
306.432
306.529
306.483
306.582
302.177
302.179
302.163
302.138
302.112
302.132
302.148
302.147
302.16
302.171
302.181
302.178
302.167
302.184
302.174
302.15
302.159
302.198
302.173
302.202
334.233
333.833
333.492
333.164
333.095
332.957
333.07
333.044
333.249
333.412
333.545
333.518
333.542
333.388
333.329
333.285
333.329
333.57
333.797
334.185
329.511
329.18
328.896
328.599
328.571
328.423
328.527
328.499
328.718
328.838
328.95
328.942
328.965
328.838
328.77
328.742
328.781
329.009
329.165
329.495
324.864
324.583
324.334
324.106
324.072
323.961
324.067
324.006
324.223
324.317
324.411
324.441
324.422
324.324
324.27
324.233
324.308
324.472
324.605
324.844
320.279
320.029
319.83
319.664
319.635
319.551
319.641
319.58
319.786
319.809
319.92
319.968
319.92
319.853
319.802
319.765
319.858
319.987
320.075
320.263
315.719
315.526
315.361
315.255
315.221
315.154
315.229
315.207
315.377
315.38
315.472
315.51
315.474
315.417
315.402
315.336
315.419
315.532
315.555
315.731
311.19
311.059
310.934
310.875
310.858
310.804
310.861
310.868
310.984
310.979
311.053
311.07
311.047
311.006
311.003
310.943
311.008
311.068
311.075
311.213
306.704
306.638
306.577
306.523
306.499
306.504
306.519
306.535
306.594
306.602
306.641
306.631
306.629
306.616
306.616
306.562
306.596
306.636
306.654
306.73
302.239
302.217
302.207
302.181
302.165
302.177
302.187
302.197
302.204
302.218
302.223
302.224
302.226
302.21
302.213
302.198
302.206
302.222
302.231
302.262
335.059
334.693
334.265
334.035
333.909
333.783
333.852
333.9
333.927
334.089
334.167
334.179
334.137
334.012
333.935
333.944
334.064
334.421
334.696
335.084
330.178
329.911
329.55
329.342
329.274
329.15
329.219
329.238
329.269
329.401
329.505
329.49
329.468
329.363
329.277
329.283
329.386
329.703
329.946
330.274
325.393
325.203
324.898
324.705
324.667
324.596
324.624
324.619
324.658
324.748
324.886
324.862
324.837
324.769
324.68
324.668
324.775
325.025
325.224
325.505
320.689
320.534
320.283
320.143
320.123
320.06
320.088
320.066
320.091
320.184
320.292
320.278
320.253
320.199
320.124
320.121
320.206
320.398
320.559
320.795
316.032
315.899
315.714
315.599
315.605
315.576
315.596
315.559
315.595
315.663
315.753
315.737
315.695
315.672
315.607
315.604
315.672
315.83
315.963
316.122
311.429
311.303
311.181
311.114
311.131
311.109
311.117
311.1
311.119
311.169
311.233
311.23
311.19
311.188
311.133
311.121
311.173
311.295
311.378
311.498
306.848
306.755
306.707
306.65
306.684
306.659
306.654
306.665
306.679
306.714
306.746
306.739
306.718
306.717
306.672
306.659
306.701
306.773
306.817
306.909
302.293
302.261
302.251
302.226
302.25
302.23
302.226
302.231
302.245
302.248
302.258
302.265
302.253
302.251
302.245
302.23
302.247
302.277
302.292
302.312
335.77
335.249
334.878
334.544
334.429
334.378
334.318
334.533
334.515
334.503
334.683
334.623
334.637
334.615
334.584
334.567
334.738
335.015
335.399
335.739
330.804
330.36
330.046
329.734
329.688
329.609
329.581
329.765
329.754
329.754
329.917
329.86
329.871
329.867
329.822
329.805
329.933
330.197
330.534
330.793
325.908
325.551
325.269
325.003
325.006
324.931
324.919
325.062
325.04
325.074
325.203
325.173
325.166
325.175
325.129
325.135
325.222
325.448
325.716
325.927
321.09
320.789
320.579
320.376
320.375
320.291
320.321
320.42
320.396
320.44
320.56
320.52
320.514
320.54
320.48
320.519
320.539
320.754
320.959
321.125
316.337
316.101
315.958
315.789
315.796
315.703
315.77
315.851
315.803
315.861
315.96
315.912
315.906
315.919
315.887
315.926
315.931
316.109
316.26
316.399
311.643
311.469
311.383
311.248
311.248
311.209
311.247
311.305
311.265
311.312
311.387
311.346
311.343
311.354
311.321
311.35
311.359
311.469
311.589
311.705
307.003
306.88
306.822
306.732
306.752
306.733
306.754
306.792
306.751
306.797
306.835
306.823
306.798
306.811
306.782
306.797
306.815
306.847
306.94
307.025
302.346
302.304
302.285
302.261
302.257
302.254
302.256
302.268
302.254
302.285
302.287
302.288
302.277
302.276
302.272
302.272
302.292
302.278
302.316
302.351
)
;

boundaryField
{
    hotSide
    {
        type            fixedGradient;
        gradient        nonuniform List<scalar> 
400
(
247.545
248.312
250.747
254.809
260.339
267.104
274.853
283.358
292.428
301.913
311.7
321.703
331.863
342.138
352.499
362.932
373.429
383.987
394.608
405.292
236.88
237.76
240.425
244.824
250.765
257.973
266.16
275.075
284.512
294.317
304.374
314.601
324.939
335.352
345.818
356.325
366.873
377.465
388.108
398.805
230.652
231.793
234.698
239.312
245.445
252.822
261.16
270.205
279.751
289.639
299.752
310.007
320.349
330.742
341.167
351.618
362.097
372.612
383.173
393.788
228.594
230.131
233.293
238.025
244.163
251.476
259.711
268.635
278.05
287.798
297.763
307.859
318.031
328.245
338.483
348.744
359.032
369.358
379.734
390.171
229.606
231.614
235.067
239.909
246.005
253.168
261.189
269.861
279.003
288.465
298.131
307.918
317.774
327.667
337.585
347.531
357.512
367.543
377.638
387.811
232.446
234.949
238.737
243.748
249.865
256.93
264.763
273.182
282.021
291.139
300.427
309.809
319.241
328.701
338.187
347.71
357.286
366.933
376.669
386.51
236.103
239.1
243.264
248.525
254.772
261.855
269.609
277.86
286.447
295.237
304.128
313.057
321.997
330.945
339.918
348.939
358.037
367.238
376.564
386.032
239.82
243.285
247.848
253.429
259.912
267.146
274.957
283.164
291.597
300.118
308.634
317.1
325.516
333.909
342.323
350.803
359.392
368.125
377.027
386.115
243.016
246.891
251.835
257.763
264.553
272.04
280.031
288.319
296.707
305.042
313.233
321.261
329.162
337.006
344.871
352.827
360.932
369.227
377.74
386.487
245.24
249.414
254.66
260.893
267.982
275.75
283.981
292.431
300.865
309.102
317.05
324.717
332.185
339.568
346.98
354.512
362.233
370.188
378.405
386.896
246.178
250.485
255.885
262.291
269.569
277.533
285.95
294.548
303.061
311.282
319.115
326.59
333.821
340.951
348.117
355.422
362.941
370.721
378.787
387.152
245.698
249.938
255.295
261.681
268.961
276.944
285.393
294.034
302.598
310.875
318.769
326.305
333.591
340.772
347.981
355.323
362.874
370.681
378.775
387.166
243.898
247.873
252.996
259.179
266.284
274.124
282.465
291.054
299.647
308.052
316.172
324.004
331.624
339.14
346.664
354.292
362.095
370.126
378.415
386.981
241.118
244.669
249.423
255.295
262.144
269.783
277.991
286.533
295.193
303.799
312.248
320.509
328.614
336.629
344.634
352.707
360.912
369.302
377.912
386.763
237.934
240.959
245.283
250.824
257.438
264.931
273.08
281.658
290.463
299.329
308.148
316.867
325.484
334.03
342.557
351.123
359.785
368.593
377.583
386.781
235.166
237.618
241.509
246.763
253.222
260.668
268.861
277.565
286.573
295.721
304.896
314.032
323.104
332.123
341.12
350.14
359.232
368.443
377.812
387.364
233.918
235.801
239.29
244.311
250.682
258.147
266.431
275.28
284.48
293.865
303.321
312.775
322.194
331.574
340.936
350.315
359.756
369.305
379.001
388.87
235.529
236.916
240.042
244.836
251.09
258.513
266.804
275.695
284.967
294.458
304.054
313.681
323.301
332.904
342.501
352.122
361.807
371.601
381.542
391.652
241.192
242.229
245.021
249.509
255.484
262.656
270.727
279.432
288.561
297.954
307.499
317.122
326.781
336.458
346.157
355.901
365.723
375.66
385.746
396.001
251.26
252.107
254.594
258.671
264.166
270.836
278.42
286.682
295.425
304.5
313.795
323.234
332.768
342.375
352.049
361.801
371.653
381.632
391.761
402.053
)
;
    }
    coldSide
    {
        type            mixed;
        refValue        uniform 300;
        refGradient     uniform 0;
        valueFraction   uniform 0.991591;
        source          uniform 0;
        value           nonuniform List<scalar> 
400
(
300.013
300.013
300.013
300.013
300.013
300.013
300.014
300.014
300.015
300.015
300.015
300.016
300.016
300.017
300.018
300.018
300.018
300.019
300.019
300.02
300.012
300.012
300.012
300.012
300.013
300.013
300.013
300.014
300.014
300.015
300.015
300.016
300.016
300.017
300.017