/*--------------------------------*- C++ -*----------------------------------*\
| =========                 |                                                 |
| \\      /  F ield         | OpenFOAM: The Open Source CFD Toolbox           |
|  \\    /   O peration     | Version:  2212                                  |
|   \\  /    A nd           | Website:  www.openfoam.com                      |
|    \\/     M anipulation  |                                                 |
\*---------------------------------------------------------------------------*/
FoamFile
{
    version     2.0;
    format      ascii;
    arch        "LSB;label=32;scalar=64";
    class       volScalarField;
    location    "0";
    object      stateMean;
}
// * * * * * * * * * * * * * * * * * * * * * * * * * * * * * * * * * * * * * //

dimensions      [0 0 0 1 0 0 0];

internalField   nonuniform List<scalar> 
3200
(
351.971
352.815
353.706
354.504
355.315
355.951
356.439
356.776
357.038
357.218
357.107
357.022
356.789
356.339
355.873
355.219
354.535
353.685
352.748
351.849
346.043
346.758
347.521
348.245
348.87
349.427
349.774
350.204
350.375
350.538
350.54
350.339
350.112
349.743
349.387
348.807
348.231
347.504
346.654
346.031
339.747
340.322
341.015
341.556
342.105
342.603
342.87
343.17
343.402
343.421
343.441
343.313
343.103
342.877
342.531
342.118
341.506
340.97
340.295
339.697
333.113
333.529
334.049
334.583
335.013
335.342
335.638
335.818
335.996
336.045
336.096
336
335.828
335.603
335.312
334.962
334.445
333.99
333.507
333.125
326.112
326.443
326.84
327.245
327.545
327.818
328.063
328.265
328.354
328.397
328.43
328.361
328.167
328.032
327.786
327.512
327.163
326.822
326.406
326.052
318.826
319.055
319.434
319.66
319.859
320.005
320.208
320.341
320.433
320.497
320.491
320.369
320.388
320.307
320.051
319.895
319.672
319.386
319.063
318.864
311.449
311.47
311.746
311.888
312.04
312.177
312.284
312.266
312.358
312.441
312.498
312.344
312.264
312.244
312.147
312.027
311.843
311.729
311.58
311.399
303.876
303.915
303.981
303.943
304.037
304.098
304.107
304.125
304.202
304.214
304.233
304.167
304.125
304.093
304.139
304.063
303.954
303.938
303.967
303.785
352.584
353.531
354.476
355.345
356.044
356.704
357.164
357.625
357.88
357.889
357.909
357.795
357.544
357.097
356.621
355.965
355.21
354.392
353.465
352.571
346.613
347.275
348.155
348.895
349.539
350.047
350.581
350.743
351.003
351.145
351.095
350.986
350.783
350.485
349.97
349.446
348.81
348.03
347.283
346.52
340.171
340.788
341.46
342.146
342.562
343.05
343.479
343.698
343.862
343.967
343.896
343.869
343.66
343.378
343.041
342.618
342.001
341.363
340.73
340.15
333.369
333.924
334.428
334.897
335.373
335.716
336.013
336.298
336.444
336.39
336.481
336.376
336.278
336.051
335.717
335.343
334.862
334.447
333.805
333.301
326.339
326.696
327.136
327.54
327.911
328.164
328.35
328.567
328.671
328.699
328.751
328.654
328.532
328.391
328.088
327.915
327.459
327.05
326.67
326.296
319.054
319.23
319.617
319.782
320.077
320.284
320.441
320.542
320.654
320.692
320.702
320.632
320.529
320.437
320.227
320.05
319.861
319.574
319.294
318.987
311.508
311.685
311.847
312.001
312.157
312.268
312.362
312.402
312.516
312.486
312.505
312.414
312.435
312.365
312.241
312.111
311.966
311.821
311.684
311.595
303.837
303.858
303.954
304.022
304.072
304.155
304.166
304.166
304.157
304.17
304.215
304.2
304.187
304.146
304.168
304.071
303.988
303.979
303.907
303.799
353.507
354.415
355.404
356.233
357.079
357.666
358.22
358.562
358.841
358.985
358.987
358.82
358.57
358.131
357.608
356.976
356.163
355.265
354.376
353.477
347.371
348.101
348.923
349.679
350.321
350.845
351.299
351.652
351.902
351.982
351.988
351.884
351.626
351.285
350.91
350.254
349.642
348.858
348.05
347.318
340.81
341.438
342.083
342.755
343.281
343.689
344.106
344.393
344.553
344.696
344.707
344.561
344.317
344.093
343.636
343.263
342.694
341.965
341.369
340.738
333.981
334.381
335.02
335.569
335.956
336.327
336.615
336.849
336.958
337.084
337.033
336.887
336.852
336.58
336.25
335.912
335.414
334.882
334.398
333.79
326.761
327.163
327.547
327.839
328.303
328.62
328.793
329.035
329.077
329.16
329.134
329.086
328.958
328.799
328.563
328.197
327.892
327.489
327.082
326.762
319.224
319.569
319.908
320.189
320.355
320.515
320.809
320.825
320.942
320.984
320.956
320.938
320.81
320.717
320.554
320.3
320.142
319.809
319.484
319.306
311.621
311.85
312.01
312.116
312.331
312.457
312.551
312.633
312.629
312.623
312.646
312.626
312.657
312.52
312.428
312.268
312.14
312.019
311.884
311.643
303.964
303.981
304.061
304.064
304.122
304.191
304.235
304.191
304.21
304.27
304.296
304.218
304.186
304.164
304.17
304.188
304.09
304.04
304.006
303.921
354.444
355.396
356.271
357.217
358.101
358.676
359.184
359.667
359.885
360.038
360.047
359.848
359.647
359.16
358.728
358.003
357.149
356.28
355.328
354.369
348.105
348.898
349.776
350.484
351.234
351.72
352.211
352.578
352.789
352.933
352.91
352.706
352.529
352.188
351.729
351.198
350.399
349.657
348.87
348.131
341.449
342.131
342.861
343.439
343.974
344.504
344.809
345.171
345.362
345.446
345.411
345.237
345.078
344.861
344.455
344.008
343.313
342.744
342.082
341.47
334.449
334.964
335.56
335.974
336.503
336.892
337.193
337.442
337.639
337.583
337.704
337.612
337.378
337.229
336.896
336.45
336.032
335.503
334.949
334.37
327.135
327.518
328.009
328.436
328.772
328.977
329.251
329.467
329.573
329.567
329.579
329.544
329.405
329.255
328.96
328.74
328.329
327.884
327.481
327.11
319.538
319.842
320.115
320.471
320.756
320.899
321.092
321.262
321.288
321.323
321.331
321.286
321.229
321.07
320.884
320.659
320.425
320.142
319.767
319.595
311.809
311.957
312.177
312.369
312.529
312.626
312.684
312.848
312.877
312.859
312.85
312.811
312.863
312.757
312.624
312.553
312.371
312.146
312.015
311.846
303.974
304.019
304.092
304.129
304.17
304.253
304.28
304.349
304.335
304.33
304.298
304.31
304.3
304.264
304.245
304.215
304.16
304.115
303.988
303.936
355.45
356.284
357.32
358.248
359.047
359.721
360.241
360.687
360.911
361.146
361.13
360.973
360.632
360.165
359.758
358.947
358.162
357.265
356.207
355.349
348.91
349.772
350.614
351.309
352.042
352.549
353.053
353.484
353.73
353.783
353.869
353.669
353.44
353.038
352.578
351.971
351.237
350.502
349.588
348.931
342.144
342.793
343.473
344.132
344.728
345.14
345.553
345.909
346.014
346.182
346.174
346.071
345.91
345.559
345.143
344.635
344.093
343.372
342.8
342.08
334.972
335.527
336.092
336.665
337.088
337.481
337.697
338.036
338.209
338.324
338.301
338.153
337.984
337.754
337.439
337.141
336.553
336.063
335.456
334.899
327.592
327.927
328.322
328.849
329.177
329.459
329.675
329.893
329.975
330.05
330.056
330.037
329.885
329.707
329.493
329.156
328.797
328.346
327.883
327.518
319.852
320.203
320.407
320.721
321.058
321.233
321.423
321.521
321.627
321.631
321.657
321.628
321.53
321.475
321.225
320.964
320.764
320.402
320.144
319.839
311.999
312.209
312.377
312.528
312.743
312.764
312.903
313.01
313.043
313.084
313.098
313.011
312.982
312.969
312.808
312.711
312.576
312.322
312.181
311.942
304.087
304.038
304.101
304.189
304.329
304.387
304.34
304.307
304.415
304.373
304.401
304.402
304.412
304.328
304.351
304.166
304.158
304.149
304.121
304.021
356.248
357.2
358.156
359.169
360.013
360.689
361.27
361.669
362.042
362.066
362.058
361.916
361.587
361.199
360.667
359.933
359.068
358.216
357.125
356.184
349.725
350.448
351.348
352.127
352.802
353.447
353.925
354.353
354.515
354.572
354.66
354.477
354.324
353.926
353.386
352.803
352.082
351.3
350.447
349.622
342.789
343.378
344.173
344.826
345.39
345.827
346.358
346.627
346.877
346.883
346.885
346.829
346.624
346.287
345.862
345.288
344.798
344.081
343.347
342.724
335.429
336.046
336.486
337.139
337.639
338.034
338.403
338.605
338.815
338.836
338.839
338.739
338.588
338.39
338.048
337.637
337.149
336.612
335.992
335.454
327.958
328.34
328.803
329.209
329.709
329.905
330.179
330.362
330.447
330.528
330.544
330.453
330.285
330.13
329.801
329.617
329.169
328.792
328.34
327.874
320.133
320.422
320.781
321.087
321.346
321.524
321.681
321.852
321.95
322.033
321.992
321.973
321.892
321.678
321.583
321.348
321.075
320.72
320.407
320.112
312.215
312.362
312.588
312.694
312.895
312.966
313.074
313.173
313.271
313.237
313.3
313.286
313.281
313.135
313.052
312.883
312.698
312.49
312.329
312.148
304.092
304.263
304.201
304.275
304.277
304.337
304.403
304.472
304.468
304.463
304.446
304.477
304.357
304.457
304.397
304.321
304.326
304.203
304.158
304.154
357.128
358.041
359.105
360.069
360.892
361.629
362.175
362.555
362.901
363.014
363.101
362.874
362.544
362.193
361.557
360.88
359.984
358.999
357.973
357.019
350.419
351.23
352.096
352.92
353.607
354.3
354.741
355.139
355.299
355.433
355.46
355.285
355.142
354.744
354.17
353.532
352.837
352.078
351.137
350.449
343.35
344.092
344.784
345.422
346.118
346.501
346.948
347.261
347.501
347.492
347.587
347.433
347.242
347.017
346.544
346.034
345.348
344.737
343.945
343.38
336.07
336.482
337.121
337.656
338.228
338.545
338.924
339.106
339.329
339.391
339.38
339.353
339.092
338.917
338.521
338.156
337.674
337.049
336.483
335.931
328.381
328.778
329.179
329.563
329.983
330.291
330.527
330.811
330.929
330.956
331.016
330.849
330.72
330.584
330.251
329.961
329.54
329.183
328.693
328.287
320.379
320.723
321.037
321.339
321.599
321.833
321.979
322.14
322.256
322.333
322.288
322.283
322.13
322.025
321.8
321.588
321.31
321.014
320.645
320.398
312.412
312.472
312.768
312.855
313.067
313.216
313.359
313.371
313.44
313.511
313.443
313.356
313.375
313.27
313.19
312.99
312.85
312.721
312.47
312.369
304.079
304.262
304.345
304.308
304.393
304.421
304.512
304.518
304.422
304.534
304.528
304.442
304.5
304.452
304.449
304.388
304.327
304.262
304.238
304.136
357.891
358.824
359.866
360.901
361.756
362.388
363.058
363.509
363.838
363.876
363.909
363.728
363.461
362.965
362.399
361.672
360.808
359.799
358.737
357.719
351.051
351.874
352.823
353.656
354.378
354.963
355.451
355.792
356.152
356.179
356.165
355.98
355.801
355.51
354.935
354.326
353.61
352.713
351.804
351.01
343.911
344.587
345.326
346.073
346.612
347.209
347.603
347.905
348.135
348.25
348.228
348.111
347.907
347.538
347.156
346.593
345.939
345.287
344.526
343.874
336.44
336.993
337.5
338.142
338.604
339.039
339.454
339.68
339.842
339.89
339.942
339.864
339.663
339.382
339.034
338.581
338.095
337.564
336.949
336.412
328.714
329.067
329.565
330.038
330.412
330.72
330.914
331.122
331.214
331.332
331.356
331.288
331.134
330.957
330.661
330.362
329.974
329.514
328.963
328.665
320.696
320.981
321.282
321.618
321.855
322.12
322.329
322.501
322.564
322.596
322.588
322.615
322.513
322.282
322.096
321.827
321.577
321.242
320.946
320.684
312.407
312.631
312.897
313.034
313.236
313.381
313.415
313.488
313.628
313.576
313.652
313.506
313.524
313.483
313.341
313.127
312.998
312.877
312.71
312.463
304.213
304.256
304.388
304.393
304.407
304.52
304.517
304.55
304.575
304.569
304.587
304.528
304.553
304.556
304.427
304.452
304.311
304.293
304.219
304.167
358.587
359.567
360.616
361.692
362.482
363.308
363.842
364.234
364.574
364.711
364.686
364.499
364.285
363.752
363.156
362.48
361.549
360.634
359.541
358.461
351.652
352.504
353.316
354.271
355.028
355.717
356.156
356.51
356.82
356.927
357.001
356.77
356.561
356.128
355.587
355.012
354.202
353.318
352.425
351.61
344.35
345.091
345.863
346.629
347.214
347.722
348.144
348.454
348.686
348.759
348.781
348.61
348.433
348.122
347.703
347.103
346.599
345.776
345.014
344.348
336.779
337.384
338.025
338.623
339.092
339.489
339.901
340.15
340.318
340.41
340.427
340.291
340.171
339.855
339.51
339.133
338.561
337.99
337.371
336.85
329.018
329.423
329.904
330.366
330.703
331.055
331.311
331.533
331.735
331.727
331.772
331.681
331.522
331.275
331.032
330.735
330.28
329.898
329.335
328.965
320.903
321.132
321.504
321.821
322.163
322.352
322.558
322.691
322.771
322.838
322.788
322.79
322.701
322.559
322.278
322.137
321.861
321.438
321.198
320.858
312.616
312.741
313.021
313.158
313.362
313.516
313.622
313.694
313.726
313.777
313.833
313.74
313.715
313.522
313.473
313.352
313.13
312.938
312.807
312.599
304.274
304.232
304.397
304.408
304.493
304.598
304.514
304.624
304.658
304.685
304.712
304.605
304.588
304.536
304.575
304.528
304.462
304.345
304.291
304.261
359.146
360.215
361.218
362.324
363.246
363.957
364.553
365.04
365.408
365.478
365.437
365.325
365.046
364.563
363.88
363.158
362.378
361.221
360.147
359.111
352.196
353.091
353.945
354.906
355.603
356.255
356.797
357.205
357.416
357.544
357.622
357.422
357.152
356.683
356.204
355.621
354.825
353.954
352.998
352.164
344.893
345.558
346.397
347.092
347.623
348.281
348.673
349.05
349.209
349.312
349.326
349.184
348.97
348.627
348.236
347.697
347.06
346.35
345.537
344.83
337.243
337.779
338.369
339.027
339.533
339.991
340.233
340.546
340.777
340.792
340.84
340.721
340.521
340.304
339.999
339.509
338.895
338.416
337.74
337.189
329.279
329.755
330.142
330.661
330.999
331.361
331.634
331.865
331.974
332.122
332.067
331.927
331.8
331.604
331.323
330.999
330.631
330.123
329.678
329.236
321.118
321.405
321.723
322.088
322.348
322.583
322.802
322.974
322.94
323.051
323.021
323.032
322.933
322.808
322.605
322.372
322.075
321.735
321.412
321.07
312.789
312.898
313.029
313.32
313.515
313.725
313.73
313.769
313.85
313.883
313.881
313.872
313.822
313.847
313.611
313.514
313.322
313.161
312.919
312.734
304.274
304.343
304.415
304.474
304.499
304.665
304.683
304.667
304.632
304.707
304.686
304.748
304.656
304.665
304.49
304.504
304.511
304.395
304.419
304.267
359.769
360.763
361.912
362.972
363.83
364.642
365.197
365.678
365.983
366.15
366.15
365.979
365.691
365.155
364.579
363.771
362.87
361.861
360.745
359.632
352.707
353.515
354.545
355.429
356.09
356.82
357.29
357.691
358.049
358.129
358.118
358.013
357.761
357.324
356.835
356.062
355.289
354.44
353.524
352.657
345.227
346.025
346.83
347.517
348.249
348.769
349.158
349.411
349.682
349.825
349.846
349.628
349.438
349.108
348.731
348.135
347.507
346.77
345.905
345.238
337.553
338.055
338.774
339.337
339.886
340.335
340.693
340.905
341.075
341.161
341.168
341.155
340.897
340.703
340.294
339.839
339.272
338.739
338.104
337.532
329.511
330.062
330.427
330.874
331.331
331.558
331.852
332.146
332.283
332.354
332.357
332.265
332.116
331.892
331.682
331.324
330.917
330.477
329.915
329.499
321.305
321.58
321.914
322.207
322.587
322.814
322.985
323.185
323.194
323.264
323.251
323.196
323.129
322.944
322.842
322.548
322.22
321.863
321.563
321.266
312.885
313.128
313.237
313.482
313.582
313.751
313.81
313.978
313.985
314.061
314.053
314.007
313.914
313.884
313.759
313.639
313.417
313.307
313.027
312.858
304.31
304.426
304.455
304.444
304.606
304.587
304.638
304.685
304.719
304.685
304.672
304.734
304.734
304.652
304.588
304.588
304.464
304.49
304.392
304.316
360.304
361.284
362.432
363.439
364.386
365.125
365.744
366.209
366.56
366.729
366.659
366.548
366.208
365.78
365.113
364.339
363.438
362.414
361.253
360.233
353.136
353.983
354.912
355.879
356.665
357.274
357.782
358.27
358.437
358.619
358.652
358.475
358.238
357.818
357.286
356.6
355.813
354.954
353.932
353.083
345.639
346.328
347.18
347.911
348.584
349.167
349.477
349.885
350.059
350.19
350.237
350.128
349.859
349.559
349.055
348.519
347.839
347.13
346.235
345.561
337.803
338.371
339.078
339.595
340.19
340.67
341.03
341.255
341.429
341.581
341.582
341.488
341.213
340.928
340.662
340.16
339.693
339.039
338.406
337.75
329.793
330.21
330.676
331.066
331.618
331.882
332.207
332.381
332.525
332.58
332.642
332.492
332.389
332.219
331.921
331.507
331.125
330.657
330.172
329.657
321.421
321.736
322.103
322.422
322.687
323.008
323.103
323.361
323.38
323.483
323.383
323.409
323.353
323.104
323.008
322.764
322.422
322.07
321.727
321.411
313
313.129
313.35
313.507
313.68
313.876
314.022
314.087
314.164
314.148
314.169
314.151
314.093
313.974
313.868
313.732
313.585
313.375
313.158
312.954
304.341
304.401
304.491
304.57
304.581
304.621
304.736
304.709
304.731
304.743
304.712
304.735
304.732
304.739
304.647
304.556
304.514
304.437
304.38
304.376
360.705
361.736
362.889
363.876
364.833
365.622
366.178
366.764
367.052
367.247
367.186
367.056
366.704
366.229
365.559
364.832
363.942
362.835
361.664
360.565
353.47
354.366
355.377
356.198
357.065
357.696
358.265
358.669
358.904
359.084
358.975
358.904
358.629
358.194
357.712
357.022
356.195
355.297
354.36
353.494
345.967
346.708
347.481
348.249
348.907
349.452
349.905
350.275
350.442
350.581
350.587
350.438
350.171
349.95
349.426
348.881
348.188
347.384
346.615
345.928
338.083
338.685
339.32
339.961
340.504
340.927
341.288
341.527
341.717
341.832
341.823
341.76
341.473
341.257
340.941
340.473
339.9
339.304
338.582
338.076
329.943
330.419
330.888
331.409
331.742
332.142
332.407
332.689
332.737
332.841
332.748
332.746
332.515
332.332
332.107
331.747
331.355
330.869
330.373
329.924
321.53
321.859
322.216
322.617
322.86
323.112
323.261
323.409
323.576
323.628
323.576
323.572
323.454
323.299
323.132
322.921
322.562
322.221
321.832
321.608
313.014
313.204
313.483
313.657
313.867
313.98
314.113
314.091
314.2
314.234
314.251
314.214
314.219
314.127
313.866
313.738
313.617
313.4
313.187
313
304.417
304.403
304.474
304.591
304.688
304.65
304.756
304.801
304.828
304.767
304.77
304.732
304.716
304.753
304.715
304.691
304.605
304.541
304.467
304.417
361.091
362.137
363.281
364.255
365.206
365.983
366.658
367.135
367.449
367.647
367.704
367.436
367.127
366.661
365.898
365.213
364.324
363.246
362.012
361.007
353.779
354.674
355.748
356.61
357.411
358.071
358.526
358.957
359.273
359.38
359.403
359.256
358.971
358.581
358.04
357.318
356.57
355.647
354.596
353.818
346.157
346.889
347.755
348.486
349.259
349.808
350.163
350.627
350.719
350.887
350.831
350.754
350.534
350.183
349.689
349.093
348.47
347.764
346.93
346.188
338.309
338.925
339.514
340.116
340.701
341.189
341.553
341.825
341.956
342.088
342.075
341.949
341.85
341.498
341.16
340.662
340.08
339.513
338.82
338.289
330.04
330.555
331.014
331.459
332.013
332.294
332.578
332.843
332.984
333.023
333.026
332.967
332.749
332.579
332.293
331.98
331.514
330.991
330.557
330.125
321.637
321.969
322.382
322.673
322.996
323.25
323.445
323.557
323.691
323.789
323.761
323.66
323.592
323.447
323.208
322.969
322.72
322.39
321.97
321.672
313.067
313.204
313.393
313.711
313.857
314.039
314.102
314.28
314.329
314.336
314.365
314.298
314.206
314.18
314.074
313.866
313.723
313.509
313.201
313.057
304.403
304.523
304.556
304.641
304.72
304.758
304.741
304.781
304.79
304.804
304.812
304.903
304.754
304.801
304.74
304.595
304.614
304.536
304.485
304.357
361.349
362.368
363.561
364.558
365.604
366.313
367.012
367.445
367.763
367.94
367.997
367.777
367.394
366.924
366.321
365.534
364.593
363.51
362.365
361.163
354.005
354.912
355.866
356.831
357.652
358.325
358.888
359.272
359.53
359.631
359.608
359.545
359.178
358.844
358.249
357.599
356.809
355.836
354.855
354
346.362
347.124
347.955
348.758
349.419
349.968
350.387
350.775
350.999
351.118
351.137
350.988
350.789
350.382
349.98
349.321
348.685
347.921
347.09
346.391
338.459
338.992
339.625
340.252
340.87
341.303
341.688
341.945
342.162
342.228
342.337
342.127
341.994
341.64
341.297
340.898
340.34
339.604
339.074
338.462
330.159
330.688
331.173
331.701
332.022
332.521
332.672
332.855
333.093
333.166
333.104
333.033
332.947
332.679
332.45
332.073
331.604
331.165
330.683
330.16
321.756
322.138
322.485
322.779
323.117
323.35
323.49
323.692
323.728
323.827
323.852
323.808
323.61
323.522
323.376
323.136
322.774
322.402
322.062
321.775
313.134
313.293
313.507
313.807
313.984
314.016
314.126
314.334
314.362
314.395
314.46
314.41
314.268
314.222
314.094
313.926
313.736
313.467
313.355
313.171
304.386
304.456
304.526
304.611
304.726
304.723
304.794
304.778
304.878
304.801
304.786
304.908
304.809
304.78
304.762
304.758
304.652
304.55
304.504
304.414
361.491
362.653
363.748
364.835
365.817
366.556
367.202
367.707
368.044
368.193
368.176
367.984
367.666
367.214
366.578
365.726
364.861
363.715
362.577
361.458
354.154
355.106
356.103
356.974
357.841
358.536
359.069
359.459
359.757
359.867
359.879
359.735
359.459
358.942
358.549
357.836
356.993
356.087
355.042
354.139
346.516
347.308
348.109
348.912
349.576
350.106
350.587
350.896
351.138
351.296
351.273
351.143
350.954
350.615
350.111
349.477
348.882
348.042
347.284
346.535
338.656
339.148
339.835
340.446
341.008
341.51
341.76
342.133
342.285
342.365
342.429
342.248
342.122
341.807
341.464
341.023
340.388
339.904
339.116
338.506
330.318
330.791
331.245
331.768
332.106
332.567
332.778
333.073
333.182
333.208
333.285
333.214
333.023
332.744
332.542
332.158
331.756
331.258
330.757
330.277
321.833
322.149
322.485
322.832
323.175
323.446
323.57
323.75
323.789
323.971
323.912
323.801
323.744
323.654
323.422
323.146
322.822
322.518
322.146
321.814
313.259
313.335
313.576
313.845
314.005
314.091
314.25
314.302
314.331
314.455
314.39
314.348
314.344
314.286
314.146
313.902
313.798
313.604
313.311
313.193
304.411
304.49
304.607
304.65
304.733
304.669
304.825
304.79
304.865
304.891
304.857
304.813
304.831
304.78
304.774
304.677
304.628
304.647
304.545
304.488
361.604
362.712
363.865
364.963
365.945
366.683
367.34
367.781
368.155
368.323
368.372
368.114
367.801
367.29
366.719
365.858
364.956
363.8
362.695
361.546
354.337
355.21
356.153
357.044
357.93
358.604
359.204
359.593
359.928
360.016
359.972
359.869
359.561
359.096
358.576
357.94
357.102
356.182
355.157
354.25
346.576
347.387
348.131
348.961
349.673
350.208
350.647
350.992
351.294
351.362
351.394
351.312
351.088
350.61
350.177
349.652
348.952
348.181
347.322
346.52
338.634
339.229
339.871
340.516
341.105
341.55
341.867
342.227
342.386
342.413
342.506
342.443
342.167
341.957
341.517
341.041
340.489
339.881
339.21
338.623
330.329
330.768
331.421
331.752
332.204
332.658
332.824
333.106
333.252
333.317
333.333
333.279
333.109
332.847
332.585
332.261
331.86
331.309
330.792
330.409
321.851
322.215
322.576
322.885
323.222
323.458
323.694
323.832
323.961
323.977
323.976
323.926
323.786
323.661
323.432
323.191
322.865
322.59
322.164
321.797
313.194
313.4
313.579
313.799
314.05
314.172
314.229
314.329
314.431
314.527
314.395
314.421
314.364
314.249
314.115
313.997
313.813
313.599
313.36
313.187
304.447
304.441
304.579
304.644
304.596
304.751
304.809
304.8
304.81
304.914
304.849
304.891
304.823
304.79
304.787
304.674
304.629
304.56
304.503
304.416
361.598
362.74
363.929
365.031
366.011
366.693
367.36
367.941
368.162
368.329
368.367
368.205
367.855
367.342
366.773
365.928
365.021
363.903
362.707
361.664
354.271
355.311
356.23
357.151
358.05
358.692
359.174
359.62
359.914
360.054
360.088
359.855
359.566
359.209
358.673
358.012
357.079
356.265
355.2
354.304
346.638
347.409
348.192
349.033
349.618
350.244
350.753
351.083
351.339
351.386
351.426
351.252
351.041
350.695
350.264
349.644
348.896
348.252
347.373
346.619
338.646
339.247
339.977
340.562
341.15
341.586
342.01
342.247
342.416
342.573
342.48
342.44
342.28
341.958
341.605
341.105
340.491
339.886
339.223
338.606
330.387
330.861
331.379
331.841
332.286
332.704
332.934
333.098
333.308
333.377
333.355
333.233
333.087
332.922
332.595
332.23
331.834
331.375
330.835
330.417
321.918
322.195
322.625
322.974
323.228
323.461
323.74
323.887
323.894
324.002
324.004
323.939
323.825
323.715
323.498
323.203
322.879
322.57
322.259
321.924
313.167
313.415
313.727
313.883
314.011
314.191
314.213
314.404
314.496
314.513
314.467
314.399
314.373
314.292
314.176
314.015
313.815
313.675
313.38
313.245
304.467
304.523
304.629
304.627
304.687
304.738
304.743
304.777
304.926
304.832
304.898
304.825
304.824
304.744
304.72
304.717
304.645
304.559
304.477
304.376
361.664
362.732
363.931
364.96
365.999
366.71
367.389
367.774
368.272
368.359
368.385
368.165
367.918
367.377
366.73
365.918
365.031
363.852
362.64
361.62
354.314
355.19
356.24
357.177
357.934
358.658
359.168
359.631
359.877
360.031
360.064
359.876
359.612
359.212
358.63
357.896
357.105
356.186
355.23
354.296
346.688
347.445
348.241
349.042
349.712
350.265
350.636
351.098
351.274
351.403
351.453
351.269
351.095
350.672
350.259
349.592
348.963
348.215
347.375
346.654
338.699
339.214
339.864
340.514
341.107
341.555
341.907
342.207
342.444
342.505
342.504
342.447
342.19
341.9
341.544
341.073
340.508
339.849
339.241
338.561
330.454
330.852
331.385
331.785
332.329
332.616
332.929
333.12
333.327
333.319
333.311
333.308
333.137
332.89
332.54
332.237
331.815
331.318
330.829
330.42
321.917
322.268
322.561
322.907
323.167
323.462
323.7
323.883
324.009
323.902
323.964
323.893
323.711
323.647
323.417
323.232
322.967
322.555
322.234
321.901
313.224
313.393
313.58
313.804
314.103
314.18
314.278
314.448
314.481
314.512
314.431
314.463
314.326
314.229
314.169
313.997
313.815
313.684
313.42
313.194
304.383
304.56
304.635
304.719
304.773
304.774
304.844
304.926
304.819
304.9
304.852
304.855
304.799
304.789
304.747
304.707
304.692
304.587
304.485
304.474
361.537
362.649
363.865
364.907
365.883
366.641
367.31
367.82
368.129
368.41
368.369
368.07
367.794
367.272
366.693
365.818
364.908
363.782
362.612
361.53
354.306
355.187
356.168
357.129
357.917
358.65
359.205
359.592
359.907
359.969
359.996
359.877
359.581
359.115
358.584
357.849
357.034
356.144
355.185
354.245
346.68
347.375
348.211
348.936
349.638
350.273
350.71
351.044
351.234
351.361
351.317
351.237
351.047
350.687
350.255
349.575
348.939
348.138
347.34
346.583
338.647
339.179
339.877
340.568
341.017
341.508
341.974
342.21
342.387
342.521
342.416
342.408
342.185
341.954
341.528
341.081
340.554
339.927
339.236
338.59
330.441
330.819
331.361
331.866
332.19
332.548
332.854
333.132
333.217
333.376
333.306
333.237
333.137
332.893
332.598
332.219
331.82
331.379
330.817
330.355
321.864
322.147
322.611
322.902
323.222
323.437
323.699
323.805
323.907
323.974
323.955
323.962
323.889
323.682
323.391
323.218
322.941
322.579
322.215
321.907
313.195
313.363
313.645
313.809
314.015
314.145
314.269
314.381
314.387
314.502
314.482
314.41
314.384
314.333
314.166
313.979
313.76
313.605
313.316
313.135
304.418
304.507
304.541
304.629
304.744
304.769
304.734
304.896
304.868
304.902
304.876
304.85
304.787
304.831
304.741
304.733
304.679
304.571
304.487
304.4
)
;

boundaryField
{
    hotSide
    {
        type            fixedGradient;
        gradient        nonuniform List<scalar> 
400
(
321.511
322.87
325.591
329.677
335.133
341.965
350.181
359.788
370.794
383.208
397.037
412.289
428.971
447.088
466.647
487.651
510.105
534.011
559.372
586.191
323.738
325.08
327.767
331.802
337.194
343.949
352.078
361.591
372.498
384.81
398.537
413.687
430.268
448.289
467.755
488.672
511.043
534.872
560.161
586.913
326.149
327.47
330.116
334.091
339.406
346.071
354.099
363.503
374.296
386.491
400.101
415.136
431.606
449.52
468.885
489.706
511.988
535.735
560.948
587.63
328.704
330
332.597
336.503
341.73
348.292
356.205
365.485
376.15
388.215
401.695
416.604
432.954
450.753
470.009
490.73
512.919
536.579
561.714
588.325
331.33
332.599
335.142
338.97
344.099
350.546
358.332
367.477
378.003
389.928
403.271
418.047
434.27
451.949
471.095
491.712
513.807
537.382
562.439
588.978
333.918
335.158
337.643
341.389
346.414
352.74
360.392
369.397
379.779
391.562
404.765
419.407
435.503
453.065
472.101
492.618
514.622
538.114
563.096
589.569
336.321
337.531
339.959
343.622
348.544
354.751
362.274
371.142
381.385
393.031
406.101
420.618
436.595
454.047
472.983
493.409
515.33
538.747
563.663
590.076
338.36
339.543
341.92
345.509
350.339
356.44
363.847
372.595
382.718
394.244
407.2
421.608
437.485
454.844
473.695
494.045
515.897
539.253
564.114
590.478
339.852
341.015
343.352
346.885
351.645
357.665
364.985
373.643
383.675
395.113
407.984
422.312
438.116
455.407
474.197
494.491
516.294
539.606
564.428
590.758
340.643
341.795
344.11
347.613
352.334
358.311
365.584
374.193
384.176
395.567
408.393
422.679
438.443
455.699
474.456
494.722
516.498
539.788
564.589
590.901
340.643
341.795
344.11
347.613
352.334
358.311
365.584
374.193
384.176
395.567
408.393
422.679
438.443
455.699
474.456
494.722
516.498
539.788
564.589
590.901
339.852
341.015
343.352
346.885
351.645
357.665
364.985
373.643
383.675
395.113
407.984
422.312
438.116
455.407
474.197
494.491
516.294
539.606
564.428
590.758
338.36
339.543
341.92
345.509
350.339
356.44
363.847
372.595
382.718
394.244
407.2
421.608
437.485
454.844
473.695
494.045
515.897
539.253
564.114
590.478
336.321
337.531
339.959
343.622
348.544
354.751
362.274
371.142
381.385
393.031
406.101
420.618
436.595
454.047
472.983
493.409
515.33
538.747
563.663
590.076
333.918
335.158
337.643
341.389
346.414
352.74
360.392
369.397
379.779
391.562
404.765
419.407
435.503
453.065
472.101
492.618
514.622
538.114
563.096
589.569
331.33
332.599
335.142
338.97
344.099
350.546
358.332
367.477
378.003
389.928
403.271
418.047
434.27
451.949
471.095
491.712
513.807
537.382
562.439
588.978
328.704
330
332.597
336.503
341.73
348.292
356.205
365.485
376.15
388.215
401.695
416.604
432.954
450.753
470.009
490.73
512.919
536.579
561.714
588.325
326.149
327.47
330.116
334.091
339.406
346.071
354.099
363.503
374.296
386.491
400.101
415.136
431.606
449.52
468.885
489.706
511.988
535.735
560.948
587.63
323.738
325.08
327.767
331.802
337.194
343.949
352.078
361.591
372.498
384.81
398.537
413.687
430.268
448.289
467.755
488.672
511.043
534.872
560.161
586.913
321.511
322.87
325.591
329.677
335.133
341.965
350.181
359.788
370.794
383.208
397.037
412.289
428.971
447.088
466.647
487.651
510.105
534.011
559.372
586.191
)
;
    }
    coldSide
    {
        type            mixed;
        refValue        uniform 300;
        refGradient     uniform 0;
        valueFraction   uniform 0.991591;
        source          uniform 0;
        value           nonuniform List<scalar> 
400
(
300.033
300.032
300.033
300.033
300.034
300.034
300.034
300.035
300.036
300.036
300.036
300.037
300.037
300.037
300.037
300.037
300.037
300.038
300.037
300.037
300.033
300.032
300.033
300.034
300.034
300.036
300.036
300.036
300.036
300.037
300.037
300.037
300.037
300.038
300.037
300.038
300.037
300.038
300.038
300.038
300.033