/*--------------------------------*- C++ -*----------------------------------*\
| =========                 |                                                 |
| \\      /  F ield         | OpenFOAM: The Open Source CFD Toolbox           |
|  \\    /   O peration     | Version:  2212                                  |
|   \\  /    A nd           | Website:  www.openfoam.com                      |
|    \\/     M anipulation  |                                                 |
\*---------------------------------------------------------------------------*/
FoamFile
{
    version     2.0;
    format      ascii;
    arch        "LSB;label=32;scalar=64";
    class       volScalarField;
    location    "0";
    object      T;
}
// * * * * * * * * * * * * * * * * * * * * * * * * * * * * * * * * * * * * * //

dimensions      [0 0 0 1 0 0 0];

internalField   nonuniform List<scalar> 
3200
(
342.503
341.089
340.399
340.209
340.445
341.324
342.15
342.892
343.633
344.183
344.307
344.143
343.827
343.383
342.628
342.167
341.699
341.804
342.678
343.8
337.44
336.223
335.618
335.418
335.594
336.335
337.029
337.626
338.231
338.696
338.783
338.614
338.321
337.912
337.227
336.848
336.429
336.518
337.258
338.206
332.111
331.086
330.578
330.373
330.478
331.108
331.68
332.129
332.638
333.03
333.104
332.941
332.651
332.29
331.725
331.397
331.05
331.118
331.696
332.494
326.56
325.717
325.313
325.128
325.186
325.686
326.146
326.491
326.92
327.234
327.243
327.135
326.852
326.532
326.108
325.835
325.559
325.613
326.054
326.712
320.821
320.209
319.869
319.709
319.749
320.133
320.473
320.727
321.076
321.3
321.274
321.214
320.981
320.716
320.407
320.191
319.951
320.007
320.357
320.85
314.969
314.559
314.294
314.16
314.178
314.471
314.699
314.879
315.134
315.279
315.243
315.222
315.053
314.855
314.625
314.498
314.304
314.32
314.596
314.928
309.031
308.793
308.614
308.541
308.54
308.721
308.843
308.989
309.098
309.19
309.171
309.172
309.08
308.938
308.818
308.74
308.607
308.606
308.775
308.98
303.023
302.95
302.89
302.868
302.866
302.931
302.97
303.025
303.056
303.077
303.08
303.084
303.051
302.992
302.963
302.938
302.884
302.885
302.94
303.015
342.645
341.445
340.774
340.656
340.961
341.779
342.64
343.54
344.263
344.896
345.009
344.872
344.489
343.901
343.225
342.642
342.154
342.35
343.022
344.126
337.56
336.524
335.958
335.799
336.029
336.735
337.429
338.162
338.747
339.292
339.358
339.194
338.864
338.332
337.737
337.236
336.818
336.987
337.539
338.48
332.225
331.356
330.855
330.69
330.857
331.461
331.994
332.618
333.07
333.51
333.51
333.388
333.088
332.624
332.112
331.687
331.357
331.485
331.959
332.726
326.656
325.949
325.532
325.384
325.504
326.005
326.385
326.904
327.232
327.59
327.566
327.459
327.192
326.825
326.389
326.038
325.808
325.907
326.282
326.888
320.914
320.354
320.049
319.901
319.999
320.395
320.658
321.062
321.302
321.577
321.538
321.433
321.225
320.934
320.607
320.321
320.175
320.236
320.538
320.999
315.042
314.642
314.423
314.321
314.359
314.658
314.823
315.12
315.278
315.459
315.443
315.353
315.216
315.032
314.761
314.568
314.461
314.53
314.722
315.047
309.058
308.848
308.707
308.649
308.641
308.831
308.929
309.094
309.208
309.294
309.306
309.23
309.157
309.054
308.862
308.776
308.701
308.748
308.857
309.052
303.04
302.977
302.918
302.902
302.9
302.971
302.999
303.058
303.091
303.112
303.122
303.099
303.069
303.035
302.96
302.931
302.918
302.946
302.968
303.029
343.085
341.955
341.351
341.291
341.686
342.432
343.387
344.36
345.145
345.86
346.096
346
345.5
344.901
344.092
343.343
342.944
342.962
343.597
344.633
337.894
336.978
336.406
336.349
336.64
337.257
338.035
338.876
339.505
340.092
340.269
340.172
339.716
339.197
338.488
337.826
337.498
337.53
338.031
338.925
332.455
331.722
331.205
331.135
331.381
331.867
332.5
333.215
333.722
334.18
334.291
334.209
333.803
333.367
332.744
332.205
331.909
331.961
332.379
333.114
326.819
326.232
325.796
325.738
325.939
326.317
326.797
327.387
327.781
328.135
328.211
328.167
327.802
327.436
326.893
326.475
326.243
326.304
326.644
327.219
321.021
320.576
320.241
320.168
320.314
320.629
320.975
321.413
321.71
321.99
322.037
322.003
321.685
321.439
320.995
320.691
320.51
320.54
320.838
321.256
315.104
314.778
314.562
314.495
314.583
314.835
315.048
315.373
315.561
315.769
315.798
315.768
315.538
315.384
315.045
314.837
314.718
314.707
314.957
315.24
309.1
308.918
308.792
308.746
308.786
308.949
309.063
309.27
309.35
309.495
309.521
309.492
309.366
309.258
309.039
308.94
308.851
308.855
309.009
309.173
303.053
302.999
302.962
302.949
302.956
303.005
303.046
303.117
303.134
303.178
303.191
303.193
303.152
303.11
303.035
303.005
302.977
302.975
303.02
303.083
343.871
342.786
342.252
342.299
342.617
343.454
344.462
345.479
346.431
347.059
347.34
347.313
346.746
346.129
345.251
344.479
343.951
343.96
344.559
345.67
338.591
337.688
337.186
337.2
337.439
338.14
338.986
339.803
340.618
341.102
341.354
341.311
340.791
340.245
339.495
338.805
338.369
338.374
338.883
339.823
333.045
332.339
331.888
331.876
332.021
332.602
333.315
333.964
334.633
335.009
335.227
335.171
334.721
334.242
333.619
333.012
332.662
332.681
333.093
333.876
327.291
326.745
326.333
326.349
326.432
326.862
327.485
327.97
328.517
328.784
329.001
328.918
328.552
328.147
327.605
327.135
326.851
326.872
327.214
327.841
321.393
320.972
320.631
320.665
320.699
321.005
321.501
321.887
322.266
322.458
322.661
322.586
322.284
321.978
321.546
321.16
320.948
320.986
321.25
321.745
315.378
315.08
314.819
314.856
314.869
315.083
315.413
315.698
315.942
316.072
316.246
316.207
315.981
315.754
315.416
315.152
314.997
315.028
315.223
315.578
309.278
309.11
308.933
308.963
308.959
309.093
309.289
309.44
309.591
309.661
309.769
309.764
309.645
309.481
309.259
309.127
309.014
309.047
309.165
309.371
303.119
303.057
303.004
303.012
303.012
303.058
303.123
303.167
303.224
303.236
303.269
303.29
303.24
303.183
303.109
303.062
303.024
303.031
303.082
303.145
345.04
344.114
343.382
343.402
343.787
344.578
345.635
346.765
347.704
348.416
348.818
348.621
348.269
347.41
346.585
345.789
345.276
345.182
345.833
346.928
339.602
338.835
338.168
338.165
338.449
339.07
339.954
340.926
341.684
342.298
342.609
342.429
342.115
341.361
340.648
339.972
339.486
339.401
340.005
340.923
333.888
333.284
332.683
332.698
332.867
333.368
334.1
334.907
335.5
336.025
336.254
336.118
335.855
335.186
334.573
334.026
333.611
333.53
334.045
334.804
327.99
327.494
326.999
327.008
327.127
327.503
328.11
328.73
329.195
329.647
329.799
329.685
329.484
328.91
328.387
327.961
327.621
327.561
328.002
328.585
321.916
321.551
321.161
321.162
321.243
321.514
321.984
322.454
322.794
323.165
323.269
323.185
323.029
322.574
322.159
321.827
321.559
321.532
321.864
322.308
315.725
315.469
315.212
315.204
315.263
315.453
315.779
316.094
316.335
316.597
316.68
316.615
316.497
316.192
315.867
315.633
315.422
315.414
315.663
315.982
309.449
309.318
309.175
309.174
309.19
309.309
309.5
309.684
309.833
309.978
310.029
309.99
309.92
309.758
309.548
309.407
309.267
309.269
309.426
309.609
303.16
303.13
303.081
303.082
303.081
303.116
303.174
303.238
303.289
303.35
303.367
303.345
303.32
303.274
303.197
303.16
303.109
303.104
303.158
303.22
346.441
345.436
344.778
344.697
345.166
345.992
347.033
348.156
349.172
349.976
350.411
350.147
349.957
348.978
348.131
347.139
346.657
346.766
347.221
348.078
340.815
339.967
339.362
339.266
339.616
340.342
341.178
342.134
342.941
343.649
343.982
343.731
343.583
342.713
341.972
341.116
340.688
340.792
341.193
341.882
334.916
334.21
333.69
333.618
333.853
334.475
335.144
335.92
336.591
337.161
337.403
337.207
337.082
336.3
335.704
334.969
334.602
334.69
335.046
335.607
328.827
328.245
327.805
327.783
327.927
328.421
328.968
329.578
330.114
330.57
330.742
330.576
330.481
329.808
329.339
328.706
328.43
328.495
328.808
329.255
322.581
322.123
321.772
321.754
321.877
322.238
322.652
323.141
323.519
323.88
324.006
323.871
323.806
323.257
322.902
322.393
322.19
322.244
322.499
322.852
316.225
315.895
315.649
315.6
315.72
315.951
316.243
316.598
316.851
317.128
317.209
317.098
317.061
316.646
316.398
316.025
315.898
315.928
316.121
316.379
309.769
309.575
309.419
309.405
309.467
309.598
309.787
309.999
310.144
310.334
310.366
310.307
310.274
309.997
309.865
309.643
309.574
309.583
309.68
309.864
303.282
303.213
303.163
303.153
303.166
303.214
303.291
303.355
303.411
303.475
303.485
303.461
303.452
303.355
303.303
303.234
303.214
303.21
303.244
303.315
347.893
346.986
346.32
346.27
346.858
347.533
348.647
349.761
350.599
351.617
352.101
351.858
351.595
350.674
349.739
348.871
348.405
348.323
348.783
349.644
342.08
341.303
340.707
340.626
341.107
341.667
342.58
343.527
344.182
345.039
345.463
345.189
344.964
344.158
343.388
342.61
342.212
342.145
342.513
343.253
336.025
335.323
334.829
334.765
335.122
335.57
336.333
337.111
337.625
338.327
338.686
338.416
338.228
337.524
336.918
336.233
335.902
335.835
336.146
336.753
329.734
329.162
328.75
328.688
328.965
329.3
329.922
330.541
330.961
331.521
331.796
331.58
331.403
330.798
330.36
329.766
329.479
329.439
329.702
330.167
323.291
322.839
322.524
322.463
322.675
322.911
323.39
323.854
324.194
324.629
324.819
324.653
324.517
324.047
323.712
323.229
323.018
322.957
323.168
323.522
316.738
316.409
316.168
316.118
316.267
316.427
316.756
317.082
317.332
317.644
317.756
317.674
317.568
317.238
316.986
316.637
316.498
316.431
316.587
316.819
310.087
309.887
309.722
309.704
309.799
309.892
310.076
310.29
310.428
310.597
310.689
310.633
310.573
310.387
310.231
310.002
309.919
309.875
309.958
310.115
303.385
303.322
303.262
303.269
303.282
303.316
303.384
303.459
303.495
303.55
303.584
303.564
303.544
303.492
303.433
303.355
303.332
303.305
303.334
303.394
349.491
348.595
348.093
347.95
348.483
349.256
350.238
351.4
352.215
353.176
353.769
353.686
353.304
352.298
351.535
350.504
350.053
349.995
350.532
351.267
343.456
342.661
342.222
342.062
342.505
343.141
343.954
344.926
345.6
346.412
346.863
346.785
346.459
345.573
344.921
344.01
343.652
343.603
344.046
344.651
337.168
336.485
336.106
335.958
336.318
336.82
337.513
338.272
338.855
339.51
339.854
339.773
339.476
338.726
338.194
337.409
337.128
337.075
337.459
337.951
330.664
330.108
329.814
329.686
329.959
330.341
330.899
331.49
331.966
332.481
332.745
332.631
332.4
331.792
331.361
330.715
330.5
330.46
330.787
331.17
323.999
323.558
323.338
323.254
323.448
323.74
324.158
324.587
324.972
325.365
325.573
325.458
325.268
324.792
324.473
323.952
323.801
323.756
324.01
324.308
317.208
316.917
316.745
316.703
316.823
317.038
317.297
317.606
317.892
318.175
318.322
318.236
318.08
317.757
317.522
317.163
317.053
317
317.174
317.403
310.383
310.187
310.079
310.066
310.13
310.259
310.387
310.583
310.752
310.933
311.031
310.962
310.876
310.671
310.54
310.335
310.258
310.223
310.345
310.458
303.482
303.431
303.369
303.381
303.403
303.437
303.478
303.549
303.6
303.677
303.695
303.675
303.638
303.576
303.532
303.475
303.435
303.429
303.478
303.505
351.281
350.404
349.859
349.756
350.215
350.984
351.901
352.992
353.844
354.88
355.423
355.379
354.894
354.053
353.246
352.429
351.901
351.786
352.228
352.912
344.996
344.255
343.75
343.638
344.001
344.622
345.403
346.318
347.037
347.872
348.321
348.239
347.846
347.101
346.414
345.713
345.238
345.135
345.522
346.08
338.46
337.857
337.422
337.267
337.571
338.07
338.715
339.448
340.067
340.735
341.093
340.987
340.659
340.017
339.456
338.872
338.479
338.358
338.704
339.154
331.745
331.266
330.894
330.731
330.962
331.362
331.895
332.448
332.963
333.502
333.762
333.651
333.391
332.838
332.415
331.927
331.61
331.518
331.789
332.152
324.865
324.509
324.224
324.059
324.206
324.52
324.928
325.359
325.748
326.168
326.338
326.242
326.043
325.613
325.289
324.905
324.651
324.614
324.804
325.088
317.853
317.597
317.409
317.271
317.362
317.593
317.876
318.18
318.478
318.749
318.878
318.801
318.646
318.322
318.115
317.815
317.656
317.62
317.741
317.973
310.764
310.584
310.509
310.39
310.462
310.583
310.779
310.934
311.142
311.272
311.361
311.307
311.202
311.015
310.902
310.71
310.621
310.59
310.663
310.805
303.624
303.551
303.531
303.484
303.502
303.546
303.612
303.666
303.744
303.778
303.817
303.8
303.755
303.697
303.65
303.591
303.559
303.559
303.565
303.628
353.054
352.278
351.693
351.617
351.944
352.536
353.519
354.588
355.53
356.461
356.918
356.86
356.454
355.701
354.729
354.129
353.769
353.585
354.086
354.706
346.522
345.835
345.337
345.227
345.48
345.963
346.812
347.697
348.48
349.261
349.626
349.558
349.207
348.558
347.692
347.174
346.859
346.684
347.136
347.65
339.75
339.151
338.73
338.61
338.829
339.188
339.892
340.635
341.241
341.916
342.181
342.135
341.855
341.284
340.553
340.114
339.836
339.682
340.07
340.498
332.77
332.26
331.932
331.827
331.998
332.276
332.827
333.456
333.896
334.429
334.645
334.59
334.413
333.914
333.32
332.931
332.725
332.581
332.894
333.247
325.647
325.243
324.987
324.91
324.999
325.229
325.649
326.138
326.478
326.868
327.056
326.985
326.856
326.455
326.001
325.682
325.53
325.408
325.65
325.95
318.404
318.129
317.93
317.882
317.918
318.093
318.393
318.74
318.974
319.248
319.394
319.342
319.226
318.94
318.622
318.403
318.264
318.197
318.357
318.597
311.102
310.92
310.81
310.749
310.788
310.899
311.075
311.277
311.436
311.585
311.664
311.628
311.559
311.395
311.208
311.063
310.984
310.949
311.051
311.172
303.724
303.675
303.644
303.617
303.623
303.659
303.719
303.786
303.848
303.881
303.919
303.892
303.879
303.818
303.751
303.715
303.704
303.671
303.702
303.752
354.835
354.156
353.485
353.556
353.751
354.413
355.165
356.068
357.147
357.925
358.4
358.358
358.132
357.333
356.543
355.873
355.484
355.434
355.917
356.633
348.052
347.483
346.868
346.911
347.062
347.579
348.2
348.969
349.885
350.535
350.9
350.859
350.661
349.968
349.274
348.686
348.367
348.303
348.744
349.324
341.029
340.55
340.023
340.07
340.148
340.575
341.073
341.736
342.452
342.995
343.246
343.24
343.054
342.483
341.887
341.382
341.106
341.059
341.441
341.915
333.815
333.423
332.995
333.038
333.082
333.416
333.787
334.325
334.891
335.331
335.516
335.511
335.373
334.898
334.415
333.991
333.757
333.73
334.043
334.382
326.469
326.158
325.82
325.847
325.865
326.135
326.393
326.798
327.23
327.581
327.696
327.694
327.615
327.227
326.845
326.527
326.324
326.305
326.582
326.803
318.994
318.757
318.537
318.544
318.534
318.74
318.925
319.19
319.497
319.769
319.815
319.818
319.784
319.498
319.228
318.995
318.84
318.828
319.031
319.181
311.436
311.313
311.174
311.167
311.166
311.272
311.386
311.543
311.718
311.896
311.911
311.921
311.902
311.72
311.566
311.429
311.325
311.322
311.436
311.543
303.849
303.801
303.743
303.745
303.742
303.788
303.826
303.866
303.931
303.981
303.995
304.006
303.993
303.927
303.887
303.836
303.801
303.793
303.834
303.868
356.629
356.055
355.465
355.393
355.498
356.16
356.93
357.602
358.66
359.521
359.821
359.811
359.507
358.859
358.17
357.6
357.352
357.356
357.77
358.386
349.622
349.124
348.606
348.496
348.568
349.109
349.744
350.263
351.182
351.921
352.121
352.105
351.855
351.284
350.692
350.19
349.985
349.964
350.334
350.88
342.369
341.955
341.495
341.389
341.426
341.858
342.386
342.776
343.533
344.144
344.312
344.266
344.068
343.598
343.077
342.653
342.479
342.439
342.758
343.233
334.911
334.582
334.21
334.116
334.14
334.422
334.892
335.172
335.779
336.262
336.393
336.343
336.189
335.804
335.369
335.034
334.905
334.842
335.09
335.488
327.28
327.043
326.778
326.703
326.684
326.887
327.289
327.471
327.912
328.288
328.383
328.35
328.225
327.947
327.591
327.333
327.246
327.19
327.359
327.675
319.556
319.41
319.23
319.167
319.138
319.292
319.569
319.69
319.984
320.258
320.329
320.311
320.207
320.006
319.73
319.586
319.507
319.467
319.57
319.814
311.773
311.688
311.583
311.554
311.523
311.625
311.785
311.846
312.021
312.196
312.223
312.236
312.157
312.038
311.846
311.791
311.719
311.709
311.743
311.917
303.942
303.924
303.884
303.887
303.87
303.9
303.955
303.972
304.033
304.104
304.098
304.115
304.078
304.032
303.973
303.958
303.932
303.928
303.937
304.008
358.525
357.962
357.503
357.274
357.374
357.949
358.666
359.265
360.16
360.915
361.126
361.227
361.052
360.478
359.811
359.271
359.197
359.226
359.567
360.274
351.267
350.762
350.362
350.133
350.196
350.672
351.229
351.732
352.482
353.114
353.289
353.343
353.206
352.696
352.111
351.631
351.584
351.609
351.89
352.506
343.773
343.337
342.99
342.754
342.803
343.175
343.622
344.036
344.628
345.162
345.321
345.344
345.203
344.803
344.284
343.897
343.851
343.836
344.086
344.63
336.072
335.707
335.433
335.197
335.256
335.522
335.892
336.222
336.652
337.082
337.231
337.258
337.118
336.785
336.387
336.073
336.019
335.989
336.193
336.653
328.227
327.931
327.714
327.519
327.546
327.755
328.043
328.29
328.6
328.928
329.045
329.099
328.938
328.676
328.412
328.168
328.098
328.072
328.224
328.581
320.239
320.047
319.889
319.736
319.745
319.891
320.121
320.268
320.465
320.693
320.829
320.856
320.727
320.529
320.353
320.185
320.116
320.108
320.192
320.474
312.193
312.076
311.976
311.885
311.869
311.979
312.118
312.184
312.303
312.458
312.544
312.531
312.462
312.35
312.258
312.155
312.106
312.105
312.143
312.314
304.094
304.062
304.018
303.988
303.984
304.013
304.061
304.099
304.122
304.192
304.223
304.204
304.175
304.149
304.113
304.089
304.059
304.055
304.076
304.124
360.608
359.794
359.38
359.174
359.353
359.659
360.212
360.987
361.646
362.185
362.528
362.64
362.483
362.025
361.483
360.97
360.939
361.046
361.432
362.064
353.062
352.338
351.967
351.782
351.913
352.148
352.58
353.236
353.78
354.227
354.483
354.611
354.448
354.043
353.56
353.131
353.089
353.21
353.536
354.054
345.27
344.655
344.339
344.173
344.269
344.445
344.747
345.304
345.752
346.126
346.309
346.43
346.277
345.913
345.533
345.176
345.097
345.241
345.514
345.944
337.277
336.794
336.529
336.381
336.465
336.579
336.792
337.223
337.607
337.892
338.032
338.132
338.008
337.695
337.403
337.088
337.04
337.142
337.363
337.719
329.154
328.761
328.587
328.434
328.504
328.592
328.736
329.066
329.345
329.578
329.697
329.754
329.637
329.417
329.174
328.936
328.892
328.978
329.158
329.42
320.926
320.641
320.495
320.394
320.433
320.52
320.596
320.855
321.02
321.195
321.291
321.311
321.212
321.074
320.912
320.71
320.7
320.739
320.905
321.052
312.616
312.44
312.348
312.263
312.288
312.343
312.39
312.566
312.653
312.759
312.829
312.821
312.735
312.684
312.597
312.458
312.463
312.474
312.588
312.672
304.237
304.177
304.152
304.105
304.109
304.139
304.163
304.219
304.237
304.275
304.304
304.304
304.267
304.253
304.228
304.174
304.184
304.181
304.212
304.254
362.491
361.692
361.24
361.168
361.101
361.515
361.892
362.534
363.048
363.56
363.801
364.041
363.751
363.463
363.014
362.724
362.583
362.856
363.311
363.926
354.708
354.007
353.591
353.499
353.421
353.786
354.046
354.572
355.019
355.427
355.601
355.826
355.562
355.296
354.911
354.64
354.521
354.77
355.156
355.697
346.678
346.079
345.712
345.617
345.545
345.829
346.044
346.432
346.832
347.137
347.27
347.469
347.252
347.005
346.675
346.426
346.343
346.552
346.877
347.328
338.446
337.955
337.654
337.573
337.497
337.698
337.882
338.168
338.511
338.723
338.85
338.999
338.832
338.594
338.372
338.137
338.053
338.224
338.497
338.849
330.07
329.7
329.454
329.404
329.307
329.456
329.597
329.786
330.06
330.205
330.337
330.444
330.279
330.106
329.946
329.767
329.684
329.796
330.017
330.284
321.558
321.335
321.125
321.094
321.023
321.105
321.197
321.336
321.524
321.634
321.752
321.807
321.661
321.563
321.449
321.332
321.25
321.32
321.473
321.669
312.968
312.859
312.725
312.688
312.64
312.697
312.746
312.838
312.955
313.004
313.089
313.132
313.024
312.965
312.911
312.84
312.786
312.818
312.886
313.041
304.355
304.317
304.268
304.248
304.237
304.253
304.271
304.31
304.343
304.354
304.393
304.413
304.375
304.342
304.334
304.308
304.29
304.3
304.31
304.376
364.376
363.565
363.174
362.934
362.902
363.207
363.519
363.901
364.517
365.071
365.26
365.491
365.115
364.907
364.625
364.442
364.347
364.688
365.106
365.733
356.333
355.616
355.271
355.045
354.994
355.235
355.46
355.771
356.296
356.766
356.893
357.054
356.753
356.547
356.32
356.157
356.057
356.337
356.726
357.262
348.05
347.436
347.117
346.942
346.869
347.059
347.214
347.437
347.89
348.268
348.354
348.482
348.259
348.052
347.884
347.736
347.628
347.865
348.22
348.647
339.578
339.06
338.786
338.658
338.568
338.697
338.825
338.975
339.353
339.645
339.691
339.809
339.652
339.456
339.331
339.21
339.095
339.281
339.615
339.94
330.959
330.53
330.311
330.236
330.13
330.215
330.329
330.402
330.711
330.944
330.924
331.066
330.946
330.768
330.663
330.592
330.482
330.618
330.909
331.151
322.222
321.896
321.73
321.673
321.61
321.669
321.737
321.771
321.993
322.158
322.133
322.245
322.173
322.019
321.952
321.904
321.818
321.903
322.124
322.291
313.375
313.191
313.084
313.057
313
313.048
313.082
313.103
313.244
313.314
313.322
313.373
313.342
313.255
313.191
313.174
313.127
313.175
313.296
313.398
304.486
304.432
304.384
304.37
304.348
304.369
304.387
304.401
304.446
304.473
304.468
304.482
304.483
304.445
304.426
304.423
304.403
304.415
304.449
304.503
366.279
365.571
365.14
364.78
364.609
364.917
365.148
365.423
366.029
366.476
366.54
366.741
366.537
366.396
366.155
366.093
366.061
366.34
366.951
367.442
357.97
357.371
356.967
356.627
356.444
356.725
356.901
357.088
357.594
357.967
358
358.153
357.987
357.815
357.637
357.591
357.558
357.8
358.34
358.756
349.406
348.921
348.547
348.26
348.079
348.313
348.467
348.587
348.971
349.29
349.307
349.417
349.285
349.099
348.984
348.954
348.944
349.136
349.574
349.917
340.667
340.268
339.961
339.698
339.544
339.743
339.866
339.937
340.222
340.478
340.473
340.584
340.476
340.294
340.232
340.213
340.175
340.355
340.692
340.988
331.775
331.451
331.199
331.013
330.891
331.058
331.16
331.179
331.39
331.59
331.565
331.646
331.574
331.416
331.384
331.364
331.334
331.499
331.737
331.971
322.785
322.533
322.348
322.223
322.138
322.266
322.342
322.359
322.46
322.631
322.6
322.641
322.633
322.473
322.467
322.457
322.451
322.554
322.714
322.888
313.725
313.56
313.426
313.379
313.328
313.39
313.448
313.452
313.505
313.62
313.585
313.619
313.623
313.508
313.517
313.516
313.507
313.554
313.642
313.759
304.603
304.552
304.501
304.484
304.472
304.492
304.507
304.51
304.529
304.57
304.552
304.571
304.573
304.533
304.539
304.545
304.529
304.555
304.58
304.606
368.234
367.517
366.909
366.535
366.42
366.46
366.722
366.929
367.376
367.835
367.752
368.066
368.041
367.866
367.669
367.789
367.774
368.099
368.748
369.4
359.662
359.046
358.51
358.146
358.018
358.05
358.256
358.391
358.73
359.124
359.026
359.338
359.285
359.128
358.984
359.079
359.04
359.318
359.901
360.448
350.854
350.333
349.863
349.542
349.423
349.427
349.58
349.681
349.949
350.287
350.19
350.446
350.366
350.254
350.127
350.211
350.157
350.417
350.922
351.364
341.844
341.425
341.024
340.765
340.654
340.638
340.777
340.853
341.032
341.324
341.239
341.413
341.354
341.255
341.15
341.232
341.18
341.424
341.809
342.178
332.684
332.348
332.062
331.855
331.757
331.724
331.861
331.903
332.014
332.248
332.176
332.295
332.254
332.187
332.092
332.153
332.11
332.338
332.606
332.914
323.411
323.171
322.988
322.832
322.758
322.75
322.82
322.87
322.938
323.102
323.041
323.119
323.069
323.042
322.986
323.022
323.007
323.156
323.343
323.575
314.085
313.935
313.849
313.749
313.693
313.695
313.733
313.766
313.801
313.905
313.865
313.89
313.873
313.865
313.825
313.844
313.848
313.934
314.029
314.178
304.723
304.686
304.648
304.613
304.598
304.588
304.597
304.618
304.627
304.668
304.65
304.661
304.649
304.647
304.634
304.647
304.642
304.674
304.701
304.754
369.93
369.141
368.586
368.135
368.019
368.062
368.154
368.283
368.665
369.041
369.064
369.372
369.239
369.027
369.163
369.18
369.171
369.655
370.241
370.876
361.106
360.423
359.938
359.517
359.366
359.409
359.469
359.55
359.858
360.157
360.165
360.448
360.322
360.122
360.253
360.266
360.223
360.659
361.166
361.698
352.055
351.474
351.073
350.708
350.543
350.549
350.597
350.663
350.888
351.153
351.143
351.367
351.25
351.077
351.211
351.212
351.152
351.544
351.975
352.425
342.809
342.32
342.026
341.721
341.575
341.549
341.579
341.629
341.804
342.004
341.993
342.171
342.052
341.918
342.035
342.05
341.995
342.333
342.668
343.028
333.423
333.023
332.827
332.601
332.467
332.437
332.461
332.486
332.621
332.766
332.779
332.884
332.763
332.683
332.766
332.8
332.761
333.022
333.292
333.538
323.958
323.647
323.523
323.36
323.272
323.231
323.271
323.27
323.358
323.465
323.486
323.536
323.422
323.402
323.44
323.497
323.437
323.642
323.823
323.989
314.411
314.233
314.161
314.055
313.993
313.978
313.995
314.007
314.032
314.097
314.128
314.149
314.077
314.075
314.083
314.129
314.094
314.218
314.333
314.42
304.831
304.784
304.745
304.706
304.691
304.698
304.701
304.708
304.706
304.734
304.738
304.743
304.707
304.725
304.729
304.736
304.729
304.769
304.814
304.841
371.317
370.407
369.794
369.337
369.033
369.112
369.176
369.373
369.828
370.001
370.104
370.098
370.164
370.083
370.045
370.218
370.349
370.782
371.379
372.019
362.277
361.463
360.928
360.511
360.195
360.258
360.305
360.449
360.842
360.992
361.058
361.056
361.056
360.999
360.962
361.096
361.216
361.622
362.108
362.64
353.013
352.324
351.9
351.492
351.219
351.251
351.264
351.379
351.687
351.836
351.875
351.86
351.822
351.782
351.779
351.866
351.997
352.344
352.746
353.155
343.601
343.006
342.701
342.297
342.097
342.083
342.138
342.199
342.416
342.561
342.592
342.543
342.508
342.497
342.5
342.544
342.678
342.964
343.281
343.587
334.043
333.573
333.353
333.035
332.847
332.817
332.888
332.935
333.071
333.195
333.213
333.151
333.109
333.125
333.142
333.177
333.293
333.496
333.76
333.962
324.41
324.057
323.913
323.679
323.524
323.482
323.545
323.598
323.676
323.771
323.772
323.716
323.677
323.709
323.722
323.753
323.85
323.959
324.177
324.285
314.699
314.46
314.405
314.236
314.148
314.122
314.162
314.204
314.236
314.289
314.311
314.272
314.243
314.25
314.262
314.288
314.364
314.399
314.546
314.596
304.925
304.856
304.836
304.769
304.746
304.741
304.754
304.771
304.767
304.79
304.806
304.786
304.781
304.774
304.786
304.787
304.828
304.829
304.891
304.897
)
;

boundaryField
{
    hotSide
    {
        type            fixedGradient;
        gradient        nonuniform List<scalar> 
400
(
378.513
381.716
388.167
397.78
410.225
425.023
441.663
459.677
478.674
498.345
518.457
538.835
559.352
579.919
600.474
620.979
641.409
661.754
682.013
702.189
363.027
366.532
373.518
383.876
397.208
412.95
430.516
449.389
469.148
489.476
510.134
530.951
551.81
572.628
593.356
613.965
634.444
654.794
675.021
695.14
356.387
360.497
368.039
378.896
392.67
408.802
426.707
445.864
465.852
486.343
507.098
527.947
548.771
569.496
590.081
610.506
630.769
650.88
670.856
690.718
358.023
363.018
371.157
382.317
396.159
412.203
429.93
448.858
468.581
488.776
509.2
529.679
550.098
570.386
590.508
610.454
630.231
649.859
669.363
688.77
365.682
371.719
380.527
391.98
405.795
421.582
438.904
457.336
476.502
496.093
515.869
535.662
555.362
574.908
594.277
613.471
632.513
651.43
670.258
689.031
376.806
383.941
393.514
405.386
419.308
434.946
451.921
469.856
488.401
507.266
526.225
545.125
563.875
582.438
600.815
619.031
637.125
655.142
673.128
691.122
389.306
397.539
407.966
420.429
434.685
450.42
467.275
484.888
502.919
521.087
539.184
557.086
574.739
592.149
609.357
626.425
643.421
660.407
677.44
694.564
401.595
410.878
422.207
435.407
450.222
466.327
483.347
500.896
518.612
536.205
553.481
570.357
586.839
603
618.943
634.779
650.608
666.515
682.565
698.805
412.44
422.647
434.84
448.832
464.348
481.035
498.473
516.217
533.846
551.03
567.585
583.479
598.805
613.727
628.425
643.065
657.783
672.677
687.82
703.256
420.862
431.757
444.642
459.323
475.514
492.832
510.803
528.903
546.625
563.58
579.579
594.653
608.994
622.865
636.525
650.187
664.012
678.107
692.544
707.361
426.165
437.391
450.639
465.715
482.327
500.072
518.44
536.847
554.717
571.606
587.32
601.934
615.712
628.984
642.057
655.173
668.502
682.158
696.209
710.689
428.041
439.158
452.335
467.376
483.983
501.748
520.155
538.616
556.553
573.521
589.32
604.019
617.873
631.208
644.329
657.477
670.826
684.491
698.544
713.022
426.658
437.237
449.92
464.512
480.712
498.117
516.234
534.519
552.454
569.638
585.871
601.167
615.701
629.726
643.495
657.225
671.084
685.188
699.617
714.416
422.694
432.392
444.281
458.172
473.764
490.663
508.404
526.499
544.495
562.039
578.923
595.1
610.649
625.726
640.514
655.186
669.89
684.741
699.823
715.193
417.302
425.898
436.853
449.985
464.993
481.476
498.98
517.044
535.251
553.272
570.891
588.012
604.639
620.849
636.757
652.493
668.177
683.917
699.795
715.874
412.102
419.496
429.502
441.955
456.531
472.795
490.266
508.476
527.015
545.558
563.882
581.861
599.453
616.682
633.617
650.349
666.975
683.591
700.276
717.092
409.241
415.441
424.559
436.441
450.72
466.898
484.438
502.843
521.696
540.675
559.553
578.191
596.525
614.548
632.298
649.839
667.252
684.62
702.018
719.503
411.3
416.445
424.754
436.082
450.022
466.012
483.473
501.884
520.827
539.986
559.138
578.141
596.919
615.446
633.74
651.846
669.829
687.762
705.711
723.727
420.57
424.935
432.5
443.136
456.44
471.858
488.817
506.811
525.433
544.378
563.427
582.435
601.316
620.032
638.581
656.99
675.308
693.592
711.897
730.262
437.76
441.653
448.529
458.283
470.584
484.963
500.923
518.011
535.852
554.156
572.707
591.355
610.004
628.6
647.122
665.58
683.999
702.417
720.871
739.387
)
;
    }
    coldSide
    {
        type            mixed;
        refValue        uniform 300;
        refGradient     uniform 0;
        valueFraction   uniform 0.991591;
        source          uniform 0;
        value           nonuniform List<scalar> 
400
(
300.025
300.026
300.026
300.026
300.027
300.028
300.028
300.029
300.03
300.031
300.032
300.033
300.034
300.036
300.037
300.038
300.039
300.04
300.041
300.041
300.025
300.025
300.025
300.026
300.026
300.027
300.028
300.029
300.03
300.031
300.032
300.033
300.034
300.035
300.036
300.037
300.038
300.039
300.04
300.041