/*--------------------------------*- C++ -*----------------------------------*\
| =========                 |                                                 |
| \\      /  F ield         | OpenFOAM: The Open Source CFD Toolbox           |
|  \\    /   O peration     | Version:  2212                                  |
|   \\  /    A nd           | Website:  www.openfoam.com                      |
|    \\/     M anipulation  |                                                 |
\*---------------------------------------------------------------------------*/
FoamFile
{
    version     2.0;
    format      ascii;
    arch        "LSB;label=32;scalar=64";
    class       volScalarField;
    location    "0";
    object      stateMean;
}
// * * * * * * * * * * * * * * * * * * * * * * * * * * * * * * * * * * * * * //

dimensions      [0 0 0 1 0 0 0];

internalField   nonuniform List<scalar> 
3200
(
318.766
318.345
318.131
318.02
318.187
318.632
319.001
319.418
319.701
319.947
320.091
319.979
319.832
319.575
319.273
318.951
318.692
318.735
318.985
319.434
316.274
316.003
315.739
315.654
315.869
316.093
316.459
316.794
317.044
317.367
317.315
317.313
317.17
316.951
316.768
316.465
316.228
316.209
316.425
316.846
313.654
313.46
313.242
313.219
313.369
313.647
313.922
314.223
314.455
314.676
314.665
314.704
314.576
314.464
314.095
313.872
313.722
313.779
313.97
314.259
311.276
311.045
310.872
310.878
310.957
311.152
311.418
311.641
311.797
312.005
312.027
312.021
311.912
311.801
311.554
311.369
311.255
311.235
311.396
311.604
308.75
308.52
308.518
308.423
308.55
308.751
308.822
309.035
309.118
309.324
309.383
309.4
309.257
309.177
308.947
308.841
308.744
308.789
308.809
308.979
306.235
306.149
306.016
305.982
306.075
306.174
306.347
306.546
306.667
306.692
306.714
306.684
306.629
306.575
306.411
306.36
306.26
306.295
306.337
306.397
303.714
303.646
303.617
303.676
303.669
303.734
303.879
303.873
304.021
304.008
304.02
304.065
303.923
303.915
303.825
303.797
303.709
303.782
303.771
303.82
301.213
301.336
301.263
301.202
301.266
301.262
301.198
301.343
301.342
301.383
301.364
301.378
301.36
301.344
301.345
301.28
301.221
301.276
301.289
301.275
318.936
318.51
318.147
318.186
318.259
318.727
319.224
319.563
319.924
320.132
320.283
320.323
320.097
319.798
319.388
319.027
318.83
318.869
319.064
319.555
316.265
315.935
315.778
315.769
315.994
316.285
316.601
316.928
317.235
317.505
317.628
317.521
317.431
317.199
316.789
316.502
316.399
316.33
316.5
316.881
313.862
313.498
313.32
313.356
313.445
313.762
314.061
314.373
314.592
314.755
314.863
314.872
314.71
314.551
314.205
314.029
313.856
313.823
313.998
314.175
311.345
311.025
310.945
311.006
311.062
311.269
311.474
311.699
311.94
312.101
312.222
312.152
312.015
311.824
311.603
311.381
311.345
311.302
311.381
311.619
308.727
308.58
308.494
308.554
308.589
308.705
308.93
309.162
309.322
309.415
309.526
309.476
309.285
309.27
309.06
308.937
308.805
308.797
308.925
309.05
306.271
306.147
306.153
306.074
306.122
306.238
306.352
306.499
306.711
306.707
306.827
306.782
306.702
306.587
306.44
306.38
306.265
306.253
306.35
306.471
303.775
303.698
303.644
303.658
303.678
303.751
303.792
303.923
304.02
304.033
304.056
303.978
304.013
303.974
303.842
303.835
303.787
303.738
303.778
303.852
301.273
301.206
301.186
301.227
301.229
301.318
301.285
301.31
301.365
301.32
301.396
301.355
301.397
301.381
301.266
301.308
301.319
301.264
301.249
301.312
318.983
318.52
318.353
318.352
318.649
318.98
319.506
319.884
320.232
320.577
320.694
320.536
320.423
320.138
319.792
319.392
318.987
319.036
319.351
319.69
316.489
316.131
315.933
315.912
316.099
316.334
316.852
317.218
317.57
317.746
317.918
317.847
317.754
317.396
317.093
316.836
316.57
316.498
316.696
316.924
313.922
313.694
313.413
313.459
313.697
313.939
314.291
314.654
314.835
315.069
315.195
315.171
314.916
314.758
314.462
314.181
313.971
313.907
314.095
314.331
311.398
311.127
311.022
311.056
311.113
311.407
311.639
311.949
312.216
312.275
312.359
312.413
312.297
312.042
311.817
311.629
311.431
311.422
311.526
311.744
308.876
308.72
308.61
308.618
308.66
308.894
309.177
309.289
309.496
309.501
309.72
309.628
309.563
309.418
309.215
308.975
308.853
308.833
308.944
309.034
306.336
306.179
306.193
306.157
306.173
306.36
306.47
306.662
306.675
306.858
306.891
306.881
306.778
306.667
306.505
306.453
306.328
306.259
306.387
306.542
303.752
303.758
303.724
303.688
303.704
303.746
303.926
303.991
304.083
304.164
304.13
304.119
304.124
304.027
303.972
303.873
303.79
303.89
303.926
303.853
301.354
301.187
301.296
301.291
301.249
301.318
301.343
301.313
301.366
301.425
301.352
301.316
301.442
301.302
301.317
301.343
301.275
301.285
301.308
301.253
319.326
318.89
318.654
318.646
318.961
319.312
319.869
320.322
320.702
320.941
321.104
321.134
320.865
320.578
320.157
319.733
319.442
319.464
319.592
319.943
316.694
316.388
316.233
316.244
316.412
316.82
317.228
317.552
317.93
318.148
318.247
318.275
318.114
317.753
317.424
317.193
316.862
316.836
316.947
317.282
314.114
313.872
313.746
313.667
313.798
314.2
314.62
314.839
315.192
315.367
315.505
315.437
315.255
315.078
314.715
314.497
314.221
314.212
314.269
314.536
311.617
311.419
311.247
311.123
311.39
311.649
311.902
312.174
312.447
312.555
312.674
312.651
312.497
312.297
312.098
311.846
311.604
311.602
311.745
311.852
309.059
308.824
308.71
308.75
308.82
309.075
309.237
309.466
309.668
309.769
309.83
309.795
309.747
309.591
309.437
309.203
309.016
308.969
309.087
309.25
306.352
306.294
306.329
306.265
306.323
306.511
306.626
306.738
306.918
306.965
307.002
307.007
306.998
306.83
306.691
306.584
306.422
306.462
306.504
306.604
303.817
303.728
303.689
303.759
303.887
303.933
303.979
304.069
304.159
304.219
304.218
304.233
304.153
304.068
304.035
304.03
303.853
303.874
303.912
303.958
301.344
301.24
301.225
301.251
301.336
301.342
301.274
301.344
301.38
301.365
301.463
301.399
301.392
301.405
301.349
301.3
301.31
301.316
301.331
301.311
319.779
319.261
319.046
319.086
319.36
319.735
320.16
320.796
321.166
321.493
321.633
321.584
321.488
320.947
320.628
320.187
319.95
319.806
320.001
320.339
317.058
316.752
316.48
316.591
316.745
317.095
317.495
317.955
318.382
318.584
318.755
318.805
318.546
318.213
317.876
317.454
317.135
317.125
317.241
317.57
314.426
314.121
314.025
313.95
314.168
314.466
314.912
315.231
315.524
315.791
315.867
315.909
315.68
315.412
315.059
314.771
314.511
314.395
314.595
314.802
311.842
311.519
311.457
311.564
311.647
311.887
312.177
312.438
312.716
312.878
313.021
312.93
312.859
312.647
312.336
312.159
311.894
311.888
311.914
312.033
309.115
308.917
308.95
308.861
309.044
309.164
309.414
309.687
309.908
309.97
310.108
310.038
309.879
309.725
309.458
309.413
309.278
309.185
309.259
309.384
306.588
306.415
306.313
306.335
306.456
306.598
306.687
306.914
307.064
307.152
307.261
307.224
307.104
307.006
306.778
306.684
306.64
306.593
306.594
306.726
303.914
303.799
303.869
303.821
303.953
304.025
304.025
304.141
304.195
304.324
304.295
304.319
304.283
304.293
304.088
303.991
303.949
303.91
304.005
304.131
301.284
301.259
301.299
301.306
301.365
301.293
301.409
301.382
301.477
301.401
301.477
301.417
301.405
301.421
301.447
301.369
301.256
301.277
301.312
301.401
320.142
319.629
319.532
319.578
319.868
320.285
320.709
321.245
321.775
322.075
322.306
322.242
321.945
321.462
321.07
320.706
320.331
320.211
320.375
320.73
317.327
317.118
316.903
316.932
317.138
317.524
317.937
318.437
318.765
319.122
319.173
319.167
318.932
318.717
318.262
317.874
317.601
317.496
317.63
317.957
314.847
314.538
314.288
314.302
314.542
314.853
315.2
315.663
315.895
316.204
316.309
316.269
315.989
315.796
315.376
315.131
314.932
314.782
314.874
315.199
312.045
311.865
311.695
311.681
311.88
312.195
312.439
312.725
312.958
313.251
313.348
313.35
313.084
312.891
312.69
312.421
312.188
312.228
312.213
312.346
309.397
309.165
309.184
309.067
309.242
309.379
309.65
309.968
310.103
310.285
310.363
310.379
310.225
310.089
309.811
309.658
309.424
309.52
309.39
309.584
306.679
306.591
306.449
306.516
306.668
306.799
306.859
307.119
307.251
307.392
307.343
307.366
307.274
307.141
307.05
306.894
306.762
306.784
306.767
306.851
303.994
304.011
303.891
303.91
303.914
304.1
304.189
304.229
304.353
304.382
304.424
304.421
304.342
304.284
304.194
304.109
304.042
304.031
304.027
304.144
301.373
301.374
301.301
301.268
301.326
301.342
301.418
301.377
301.463
301.445
301.466
301.44
301.489
301.503
301.392
301.396
301.389
301.401
301.355
301.448
320.624
320.216
320.122
320.084
320.376
320.753
321.323
321.857
322.276
322.681
322.788
322.767
322.518
322.136
321.656
321.26
320.861
320.739
320.943
321.275
317.968
317.603
317.371
317.483
317.684
317.974
318.438
318.893
319.21
319.586
319.787
319.673
319.536
319.177
318.768
318.399
318.089
317.995
318.097
318.386
315.047
314.807
314.671
314.779
314.996
315.28
315.596
315.921
316.304
316.657
316.687
316.662
316.514
316.179
315.858
315.477
315.274
315.238
315.23
315.446
312.336
312.216
312.036
312.046
312.231
312.456
312.74
313.091
313.388
313.566
313.7
313.678
313.479
313.207
312.939
312.762
312.515
312.464
312.587
312.645
309.582
309.467
309.483
309.385
309.474
309.731
309.933
310.183
310.392
310.463
310.636
310.654
310.443
310.268
310.041
309.86
309.604
309.619
309.746
309.84
306.802
306.743
306.715
306.718
306.846
306.912
307.098
307.224
307.338
307.526
307.516
307.526
307.516
307.323
307.15
307.084
306.929
306.923
306.925
306.978
304.102
304.014
303.999
303.94
304.114
304.217
304.261
304.346
304.412
304.534
304.519
304.554
304.469
304.407
304.35
304.28
304.258
304.172
304.17
304.213
301.335
301.435
301.293
301.372
301.346
301.435
301.428
301.458
301.475
301.601
301.513
301.47
301.478
301.476
301.402
301.419
301.409
301.417
301.354
301.452
321.17
320.906
320.687
320.651
320.924
321.387
321.818
322.45
322.798
323.236
323.47
323.331
323.076
322.691
322.168
321.839
321.434
321.352
321.488
321.733
318.334
318.063
317.909
317.934
318.169
318.53
318.908
319.395
319.831
320.127
320.287
320.264
320.035
319.677
319.207
318.824
318.617
318.519
318.573
318.801
315.496
315.282
315.14
315.209
315.383
315.664
316.02
316.367
316.748
316.992
317.141
317.106
316.942
316.513
316.218
315.959
315.761
315.618
315.697
315.905
312.712
312.506
312.457
312.381
312.541
312.738
313.085
313.401
313.665
313.914
313.996
313.96
313.807
313.579
313.227
313.025
312.88
312.814
312.769
312.983
309.843
309.788
309.609
309.636
309.87
309.903
310.169
310.408
310.637
310.754
310.957
310.862
310.77
310.606
310.326
310.135
309.945
309.923
309.935
310.031
307.053
306.99
306.878
306.893
307.047
307.137
307.296
307.476
307.537
307.724
307.765
307.75
307.639
307.515
307.392
307.185
307.164
307.03
307.095
307.182
304.182
304.16
304.146
304.187
304.2
304.298
304.383
304.473
304.524
304.655
304.713
304.641
304.636
304.515
304.353
304.32
304.304
304.264
304.283
304.373
301.353
301.417
301.402
301.258
301.362
301.456
301.368
301.414
301.571
301.529
301.555
301.547
301.554
301.602
301.446
301.502
301.406
301.423
301.437
301.463
321.879
321.481
321.355
321.372
321.54
321.975
322.395
322.957
323.352
323.765
323.973
324.019
323.604
323.259
322.721
322.349
322.077
321.936
322.068
322.294
318.844
318.548
318.538
318.456
318.791
318.985
319.464
319.83
320.195
320.556
320.791
320.712
320.555
320.184
319.726
319.34
319.085
318.949
319.007
319.23
315.982
315.783
315.576
315.68
315.757
316.076
316.402
316.756
317.232
317.407
317.565
317.548
317.355
317.025
316.631
316.39
316.055
316.063
316.066
316.306
313.05
312.889
312.836
312.739
312.893
313.163
313.406
313.659
313.953
314.307
314.362
314.346
314.123
313.899
313.638
313.292
313.203
313.091
313.165
313.264
310.191
310.063
309.904
309.94
309.985
310.171
310.414
310.723
310.927
311.054
311.125
311.1
310.969
310.9
310.581
310.405
310.191
310.221
310.327
310.263
307.181
307.123
307.119
307.152
307.265
307.329
307.405
307.599
307.714
307.875
307.978
308.041
307.845
307.759
307.536
307.387
307.301
307.322
307.298
307.47
304.422
304.325
304.289
304.222
304.25
304.363
304.548
304.597
304.695
304.689
304.717
304.864
304.681
304.585
304.511
304.411
304.353
304.299
304.459
304.448
301.422
301.472
301.445
301.362
301.495
301.492
301.557
301.529
301.579
301.634
301.653
301.613
301.517
301.514
301.539
301.491
301.497
301.452
301.483
301.491
322.476
322.098
321.981
322.025
322.203
322.525
322.987
323.424
323.956
324.348
324.494
324.565
324.251
323.828
323.448
322.951
322.67
322.507
322.667
322.876
319.448
319.191
319.01
319.119
319.191
319.526
319.927
320.333
320.796
321.15
321.217
321.243
320.882
320.62
320.178
319.842
319.599
319.492
319.583
319.744
316.449
316.14
316.093
316.155
316.208
316.459
316.799
317.218
317.514
317.789
317.921
317.954
317.7
317.4
317.049
316.803
316.566
316.46
316.463
316.735
313.333
313.241
313.192
313.185
313.246
313.447
313.836
314.005
314.304
314.537
314.656
314.635
314.444
314.295
313.963
313.765
313.58
313.449
313.465
313.672
310.335
310.286
310.231
310.242
310.429
310.429
310.737
310.946
311.112
311.306
311.376
311.315
311.265
311.114
310.789
310.601
310.536
310.476
310.449
310.519
307.411
307.425
307.341
307.339
307.41
307.497
307.64
307.863
307.988
308.029
308.135
308.146
308.009
307.955
307.709
307.612
307.443
307.473
307.487
307.533
304.474
304.473
304.377
304.416
304.442
304.552
304.581
304.676
304.797
304.872
304.921
304.941
304.827
304.816
304.542
304.564
304.521
304.442
304.543
304.54
301.468
301.442
301.491
301.505
301.532
301.519
301.479
301.546
301.578
301.694
301.592
301.654
301.635
301.598
301.552
301.566
301.526
301.532
301.517
301.515
323.029
322.862
322.622
322.605
322.846
323.061
323.604
324.07
324.453
324.735
325.027
325.051
324.772
324.351
323.981
323.509
323.257
323.143
323.257
323.44
320.013
319.694
319.56
319.574
319.741
320.001
320.468
320.744
321.168
321.514
321.638
321.569
321.407
321.116
320.728
320.34
320.085
319.989
320.118
320.29
316.874
316.587
316.599
316.537
316.646
316.9
317.275
317.545
317.894
318.184
318.293
318.26
318.067
317.852
317.399
317.298
317.029
316.978
316.962
317.05
313.782
313.705
313.503
313.48
313.666
313.825
314.028
314.351
314.639
314.8
314.971
314.9
314.821
314.542
314.179
313.996
313.873
313.82
313.876
313.987
310.691
310.599
310.58
310.549
310.628
310.79
310.899
311.157
311.356
311.56
311.616
311.594
311.521
311.278
311.118
310.957
310.733
310.796
310.802
310.891
307.67
307.611
307.552
307.53
307.643
307.684
307.827
308.004
308.069
308.239
308.311
308.262
308.176
308.028
307.928
307.891
307.721
307.606
307.663
307.798
304.537
304.547
304.54
304.539
304.589
304.639
304.607
304.827
304.815
304.984
304.992
304.955
304.932
304.853
304.74
304.595
304.645
304.67
304.615
304.719
301.511
301.469
301.559
301.497
301.495
301.546
301.545
301.616
301.629
301.682
301.642
301.619
301.635
301.596
301.613
301.596
301.546
301.498
301.491
301.508
323.788
323.467
323.252
323.305
323.431
323.775
324.188
324.535
325.015
325.283
325.407
325.392
325.255
324.853
324.501
324.145
323.868
323.797
323.833
324.077
320.591
320.364
320.127
320.209
320.306
320.517
320.826
321.239
321.652
321.818
322.113
322.007
321.81
321.494
321.186
320.794
320.666
320.538
320.587
320.804
317.371
317.165
317.01
317.056
317.18
317.295
317.632
317.912
318.214
318.566
318.579
318.529
318.486
318.179
317.845
317.581
317.367
317.376
317.485
317.533
314.18
314.044
313.951
313.908
314.021
314.198
314.422
314.714
314.937
315.098
315.263
315.197
315.078
314.828
314.597
314.418
314.271
314.165
314.208
314.301
311.098
310.969
310.877
310.845
310.934
311.037
311.302
311.456
311.6
311.755
311.843
311.784
311.789
311.567
311.321
311.182
311.099
311.023
310.97
311.144
307.932
307.841
307.717
307.693
307.806
307.858
307.985
308.105
308.287
308.381
308.432
308.416
308.32
308.25
308.078
307.994
307.866
307.89
307.924
307.923
304.712
304.68
304.653
304.591
304.671
304.764
304.87
304.904
304.962
305.056
305.044
305.037
304.952
304.964
304.884
304.767
304.763
304.766
304.735
304.732
301.572
301.515
301.572
301.548
301.507
301.558
301.694
301.733
301.647
301.768
301.647
301.687
301.72
301.687
301.609
301.571
301.561
301.561
301.602
301.605
324.451
324.198
323.986
323.963
324.054
324.315
324.706
325.087
325.496
325.705
325.845
325.877
325.654
325.309
325.021
324.652
324.415
324.372
324.533
324.657
321.13
320.91
320.749
320.682
320.821
321.07
321.358
321.74
322.097
322.261
322.413
322.475
322.253
321.923
321.583
321.323
321.096
321.073
321.208
321.4
317.979
317.654
317.547
317.612
317.584
317.791
318.036
318.312
318.573
318.856
318.909
318.867
318.774
318.497
318.206
317.978
317.825
317.826
317.787
317.987
314.543
314.432
314.354
314.347
314.437
314.582
314.739
314.96
315.198
315.404
315.483
315.387
315.275
315.224
314.934
314.635
314.591
314.504
314.58
314.651
311.344
311.248
311.148
311.085
311.23
311.286
311.427
311.694
311.907
311.938
312.006
311.99
311.91
311.789
311.677
311.387
311.328
311.261
311.36
311.391
308.041
308.054
307.994
307.99
308.022
308.063
308.202
308.307
308.404
308.472
308.633
308.577
308.5
308.48
308.217
308.147
308.142
308.093
308.062
308.136
304.865
304.805
304.753
304.809
304.768
304.832
304.87
305.013
305.118
305.095
305.168
305.132
305.115
305.046
304.948
304.881
304.924
304.822
304.855
304.884
301.633
301.634
301.628
301.609
301.6
301.703
301.591
301.634
301.714
301.633
301.679
301.741
301.763
301.694
301.66
301.608
301.607
301.607
301.628
301.642
325.114
324.803
324.721
324.595
324.734
324.963
325.292
325.603
325.938
326.162
326.275
326.266
326.121
325.843
325.461
325.19
324.906
324.923
325.003
325.228
321.742
321.554
321.388
321.302
321.455
321.565
321.868
322.141
322.462
322.622
322.799
322.731
322.616
322.283
321.993
321.773
321.552
321.571
321.689
321.869
318.351
318.111
318.014
317.977
318.16
318.182
318.481
318.678
318.998
319.108
319.246
319.177
319.026
318.831
318.634
318.408
318.261
318.227
318.229
318.481
315.049
314.846
314.753
314.716
314.795
314.927
315.158
315.339
315.508
315.587
315.747
315.676
315.616
315.381
315.209
314.971
314.882
314.895
314.95
315.056
311.691
311.521
311.544
311.498
311.516
311.556
311.66
311.897
312.027
312.088
312.203
312.209
312.116
311.948
311.835
311.653
311.584
311.59
311.585
311.71
308.218
308.235
308.194
308.147
308.247
308.29
308.396
308.5
308.541
308.651
308.692
308.74
308.672
308.507
308.388
308.332
308.287
308.285
308.267
308.459
305.072
304.92
304.914
304.963
304.892
304.974
305.033
305.039
305.187
305.157
305.177
305.258
305.187
305.125
305.052
304.947
304.987
304.946
304.971
305.043
301.687
301.609
301.688
301.631
301.626
301.647
301.659
301.68
301.617
301.747
301.747
301.714
301.749
301.681
301.646
301.675
301.708
301.688
301.679
301.701
325.824
325.579
325.225
325.282
325.356
325.492
325.821
326.086
326.352
326.539
326.787
326.779
326.523
326.294
325.994
325.737
325.594
325.487
325.589
325.909
322.328
322.076
321.941
321.9
321.908
322.125
322.342
322.558
322.827
323.006
323.102
323.049
322.913
322.725
322.44
322.26
322.138
322.036
322.131
322.352
318.85
318.668
318.564
318.46
318.494
318.698
318.832
319.091
319.236
319.457
319.503
319.562
319.39
319.133
318.991
318.812
318.667
318.607
318.758
318.856
315.498
315.331
315.17
315.028
315.177
315.331
315.426
315.576
315.818
315.819
315.973
315.912
315.862
315.733
315.535
315.338
315.27
315.158
315.372
315.458
312.006
311.825
311.719
311.753
311.766
311.836
311.92
312.135
312.254
312.379
312.411
312.298
312.306
312.193
312.046
311.97
311.814
311.83
311.879
311.946
308.54
308.535
308.44
308.335
308.374
308.534
308.543
308.618
308.689
308.815
308.847
308.875
308.809
308.721
308.652
308.547
308.514
308.458
308.413
308.507
305.164
305.099
305.059
305.033
304.982
305.06
305.108
305.171
305.259
305.36
305.294
305.288
305.292
305.238
305.148
305.064
305.097
305.071
305.049
305.115
301.773
301.765
301.733
301.731
301.653
301.721
301.71
301.777
301.728
301.76
301.739
301.703
301.86
301.794
301.716
301.811
301.75
301.674
301.72
301.681
326.461
326.22
326.053
325.895
325.911
326.177
326.337
326.612
326.821
327.014
327.124
327.123
327.025
326.725
326.503
326.19
326.146
326.093
326.311
326.427
322.873
322.687
322.447
322.453
322.43
322.576
322.771
323.041
323.265
323.374
323.41
323.455
323.279
323.12
322.913
322.695
322.599
322.545
322.705
322.836
319.354
319.105
319.051
318.945
318.979
319.114
319.243
319.455
319.581
319.749
319.774
319.808
319.686
319.566
319.309
319.121
319.065
319.077
319.134
319.311
315.72
315.662
315.499
315.575
315.512
315.627
315.715
315.921
316.029
316.189
316.226
316.179
316.062
315.897
315.813
315.642
315.603
315.569
315.671
315.819
312.36
312.203
312.018
312.049
312.023
312.196
312.167
312.336
312.471
312.494
312.618
312.63
312.514
312.449
312.184
312.139
312.111
312.034
312.172
312.27
308.735
308.721
308.626
308.542
308.607
308.623
308.745
308.792
308.877
308.967
308.955
308.934
308.905
308.823
308.749
308.653
308.57
308.603
308.678
308.732
305.317
305.289
305.154
305.094
305.171
305.248
305.267
305.276
305.414
305.399
305.384
305.385
305.319
305.327
305.245
305.241
305.172
305.162
305.182
305.235
301.794
301.743
301.643
301.802
301.694
301.794
301.837
301.784
301.811
301.807
301.769
301.82
301.743
301.754
301.76
301.718
301.699
301.737
301.727
301.782
327.236
326.951
326.581
326.558
326.573
326.668
326.948
327.079
327.362
327.433
327.514
327.557
327.438
327.134
326.975
326.828
326.651
326.643
326.827
327.057
323.534
323.242
323.038
322.971
322.96
323.088
323.294
323.448
323.582
323.708
323.76
323.784
323.606
323.484
323.247
323.149
323.097
323.084
323.238
323.37
319.874
319.621
319.549
319.389
319.407
319.51
319.683
319.806
319.923
320.033
320.064
320.109
319.923
319.78
319.758
319.569
319.506
319.451
319.547
319.781
316.243
316.051
315.904
315.83
315.854
315.951
316.053
316.237
316.198
316.368
316.418
316.458
316.322
316.251
316.027
316.036
315.874
315.897
315.962
316.128
312.586
312.426
312.368
312.321
312.315
312.391
312.445
312.564
312.663
312.639
312.769
312.753
312.614
312.607
312.54
312.381
312.393
312.321
312.392
312.481
308.928
308.914
308.872
308.78
308.786
308.87
308.924
308.945
309.11
309.118
309.029
309.124
309.09
308.958
308.836
308.857
308.8
308.837
308.833
308.799
305.407
305.301
305.324
305.28
305.299
305.319
305.345
305.429
305.437
305.509
305.425
305.492
305.428
305.422
305.301
305.313
305.272
305.361
305.29
305.354
301.856
301.763
301.797
301.809
301.771
301.8
301.802
301.781
301.889
301.91
301.877
301.875
301.818
301.756
301.75
301.774
301.736
301.819
301.74
301.723
327.845
327.556
327.294
327.211
327.197
327.259
327.494
327.549
327.762
327.914
327.928
327.921
327.767
327.654
327.506
327.416
327.252
327.295
327.441
327.642
323.978
323.872
323.686
323.519
323.532
323.639
323.724
323.855
324.014
324.146
324.148
324.055
324.079
323.876
323.758
323.594
323.544
323.555
323.729
323.904
320.261
320.19
320.013
319.857
319.992
319.986
320.014
320.151
320.341
320.385
320.373
320.349
320.277
320.197
320.031
319.983
319.823
319.916
319.969
320.229
316.754
316.419
316.344
316.283
316.221
316.268
316.382
316.39
316.517
316.606
316.693
316.636
316.566
316.525
316.457
316.247
316.207
316.277
316.294
316.473
312.883
312.679
312.689
312.595
312.635
312.589
312.766
312.808
312.857
312.943
312.974
312.937
312.882
312.834
312.761
312.613
312.564
312.635
312.675
312.761
309.238
309.136
309.115
309.009
309.043
309.032
309.163
309.185
309.186
309.265
309.272
309.271
309.177
309.115
309.07
309.015
308.967
309.025
308.99
309.071
305.553
305.482
305.428
305.442
305.355
305.429
305.356
305.428
305.527
305.474
305.486
305.539
305.473
305.44
305.533
305.492
305.387
305.383
305.469
305.457
301.9
301.795
301.847
301.833
301.852
301.805
301.857
301.848
301.844
301.859
301.874
301.849
301.778
301.867
301.779
301.793
301.874
301.812
301.863
301.785
328.475
328.149
327.872
327.835
327.772
327.947
327.958
328.036
328.161
328.324
328.339
328.347
328.268
328.057
327.965
327.887
327.733
327.853
327.997
328.312
324.573
324.337
324.216
324.012
323.942
324.105
324.138
324.28
324.335
324.425
324.461
324.497
324.43
324.268
324.151
324.092
323.953
323.996
324.193
324.382
320.774
320.444
320.36
320.25
320.194
320.348
320.396
320.509
320.486
320.682
320.688
320.648
320.64
320.439
320.319
320.312
320.255
320.289
320.378
320.558
316.832
316.754
316.653
316.488
316.545
316.62
316.649
316.787
316.835
316.857
316.919
316.892
316.78
316.698
316.629
316.58
316.487
316.572
316.688
316.718
313.106
313.056
312.892
312.811
312.865
312.844
312.95
312.952
313.046
313.047
313.07
313.004
313.048
312.976
312.932
312.847
312.823
312.9
312.906
312.988
309.341
309.326
309.177
309.164
309.188
309.201
309.255
309.248
309.286
309.357
309.365
309.392
309.346
309.35
309.21
309.155
309.184
309.16
309.183
309.273
305.615
305.635
305.605
305.511
305.473
305.532
305.568
305.462
305.567
305.61
305.597
305.674
305.611
305.593
305.567
305.517
305.445
305.449
305.491
305.618
301.873
301.937
301.864
301.892
301.817
301.84
301.844
301.884
301.866
301.925
301.86
301.847
301.81
301.862
301.83
301.831
301.789
301.836
301.86
301.876
328.931
328.621
328.387
328.21
328.196
328.182
328.251
328.435
328.543
328.608
328.586
328.637
328.544
328.48
328.344
328.245
328.141
328.204
328.391
328.702
324.959
324.777
324.444
324.33
324.395
324.408
324.409
324.58
324.609
324.727
324.731
324.689
324.595
324.554
324.432
324.29
324.324
324.385
324.468
324.738
321.021
320.91
320.711
320.525
320.514
320.608
320.585
320.777
320.747
320.807
320.875
320.878
320.789
320.631
320.612
320.608
320.622
320.566
320.689
320.864
317.244
316.973
316.912
316.804
316.745
316.816
316.866
316.867
317.058
317.065
317.074
317
317.003
316.927
316.79
316.68
316.754
316.777
316.911
316.92
313.3
313.205
313.119
313.055
313.097
313.125
313.034
313.14
313.155
313.146
313.223
313.262
313.229
313.093
312.993
313.068
312.964
313.045
313.201
313.137
309.428
309.413
309.434
309.319
309.296
309.297
309.332
309.383
309.331
309.476
309.405
309.429
309.337
309.396
309.327
309.319
309.249
309.31
309.253
309.415
305.736
305.769
305.677
305.566
305.609
305.568
305.573
305.59
305.638
305.619
305.696
305.682
305.613
305.667
305.568
305.444
305.616
305.586
305.619
305.656
301.882
301.937
301.864
301.889
301.767
301.897
301.886
301.892
301.928
301.881
301.925
301.898
301.921
301.827
301.865
301.859
301.847
301.872
301.894
301.887
)
;

boundaryField
{
    hotSide
    {
        type            fixedGradient;
        gradient        nonuniform List<scalar> 
400
(
321.511
322.87
325.591
329.677
335.133
341.965
350.181
359.788
370.794
383.208
397.037
412.289
428.971
447.088
466.647
487.651
510.105
534.011
559.372
586.191
323.738
325.08
327.767
331.802
337.194
343.949
352.078
361.591
372.498
384.81
398.537
413.687
430.268
448.289
467.755
488.672
511.043
534.872
560.161
586.913
326.149
327.47
330.116
334.091
339.406
346.071
354.099
363.503
374.296
386.491
400.101
415.136
431.606
449.52
468.885
489.706
511.988
535.735
560.948
587.63
328.704
330
332.597
336.503
341.73
348.292
356.205
365.485
376.15
388.215
401.695
416.604
432.954
450.753
470.009
490.73
512.919
536.579
561.714
588.325
331.33
332.599
335.142
338.97
344.099
350.546
358.332
367.477
378.003
389.928
403.271
418.047
434.27
451.949
471.095
491.712
513.807
537.382
562.439
588.978
333.918
335.158
337.643
341.389
346.414
352.74
360.392
369.397
379.779
391.562
404.765
419.407
435.503
453.065
472.101
492.618
514.622
538.114
563.096
589.569
336.321
337.531
339.959
343.622
348.544
354.751
362.274
371.142
381.385
393.031
406.101
420.618
436.595
454.047
472.983
493.409
515.33
538.747
563.663
590.076
338.36
339.543
341.92
345.509
350.339
356.44
363.847
372.595
382.718
394.244
407.2
421.608
437.485
454.844
473.695
494.045
515.897
539.253
564.114
590.478
339.852
341.015
343.352
346.885
351.645
357.665
364.985
373.643
383.675
395.113
407.984
422.312
438.116
455.407
474.197
494.491
516.294
539.606
564.428
590.758
340.643
341.795
344.11
347.613
352.334
358.311
365.584
374.193
384.176
395.567
408.393
422.679
438.443
455.699
474.456
494.722
516.498
539.788
564.589
590.901
340.643
341.795
344.11
347.613
352.334
358.311
365.584
374.193
384.176
395.567
408.393
422.679
438.443
455.699
474.456
494.722
516.498
539.788
564.589
590.901
339.852
341.015
343.352
346.885
351.645
357.665
364.985
373.643
383.675
395.113
407.984
422.312
438.116
455.407
474.197
494.491
516.294
539.606
564.428
590.758
338.36
339.543
341.92
345.509
350.339
356.44
363.847
372.595
382.718
394.244
407.2
421.608
437.485
454.844
473.695
494.045
515.897
539.253
564.114
590.478
336.321
337.531
339.959
343.622
348.544
354.751
362.274
371.142
381.385
393.031
406.101
420.618
436.595
454.047
472.983
493.409
515.33
538.747
563.663
590.076
333.918
335.158
337.643
341.389
346.414
352.74
360.392
369.397
379.779
391.562
404.765
419.407
435.503
453.065
472.101
492.618
514.622
538.114
563.096
589.569
331.33
332.599
335.142
338.97
344.099
350.546
358.332
367.477
378.003
389.928
403.271
418.047
434.27
451.949
471.095
491.712
513.807
537.382
562.439
588.978
328.704
330
332.597
336.503
341.73
348.292
356.205
365.485
376.15
388.215
401.695
416.604
432.954
450.753
470.009
490.73
512.919
536.579
561.714
588.325
326.149
327.47
330.116
334.091
339.406
346.071
354.099
363.503
374.296
386.491
400.101
415.136
431.606
449.52
468.885
489.706
511.988
535.735
560.948
587.63
323.738
325.08
327.767
331.802
337.194
343.949
352.078
361.591
372.498
384.81
398.537
413.687
430.268
448.289
467.755
488.672
511.043
534.872
560.161
586.913
321.511
322.87
325.591
329.677
335.133
341.965
350.181
359.788
370.794
383.208
397.037
412.289
428.971
447.088
466.647
487.651
510.105
534.011
559.372
586.191
)
;
    }
    coldSide
    {
        type            mixed;
        refValue        uniform 300;
        refGradient     uniform 0;
        valueFraction   uniform 0.991591;
        source          uniform 0;
        value           nonuniform List<scalar> 
400
(
300.01
300.011
300.011
300.011
300.011
300.012
300.011
300.011
300.012
300.012
300.013
300.013
300.014
300.014
300.015
300.015
300.016
300.016
300.016
300.016
300.011
300.01
300.01
300.01
300.011
300.012
300.012
300.012
300.012
300.012
300.012
300.013
300.014
300.014