/*--------------------------------*- C++ -*----------------------------------*\
| =========                 |                                                 |
| \\      /  F ield         | OpenFOAM: The Open Source CFD Toolbox           |
|  \\    /   O peration     | Version:  2212                                  |
|   \\  /    A nd           | Website:  www.openfoam.com                      |
|    \\/     M anipulation  |                                                 |
\*---------------------------------------------------------------------------*/
FoamFile
{
    version     2.0;
    format      ascii;
    arch        "LSB;label=32;scalar=64";
    class       volScalarField;
    location    "./ITHACAoutput/true/9";
    object      error;
}
// * * * * * * * * * * * * * * * * * * * * * * * * * * * * * * * * * * * * * //

dimensions      [0 0 0 1 0 0 0];

internalField   nonuniform List<scalar> 
3200
(
-0.466748
0.69888
0.43918
1.87659
3.90682
3.12584
1.54099
4.99438
2.04733
4.3426
3.52249
2.08352
3.27778
4.59633
4.50132
4.17773
2.64733
2.93375
-0.571523
-0.291305
-4.47147
-1.61137
2.14963
3.02115
5.67129
4.15145
2.81826
5.38478
1.90279
3.39284
3.32412
3.86278
2.2664
3.94065
5.22721
2.51003
2.75351
1.47025
2.31201
0.606983
-1.9023
-0.802068
0.333855
3.83446
3.43601
4.56598
3.02868
3.86388
4.43131
3.70223
4.03221
1.41061
2.01968
2.14262
2.02658
5.53361
4.20591
2.25795
-0.370828
-0.921997
-1.80307
1.39807
3.24163
-0.599134
2.61554
1.96046
1.87171
0.062752
1.5324
1.89444
2.70522
2.7083
1.4025
-0.945427
3.83172
2.32306
-1.98276
-1.04587
-1.10233
0.00732024
-0.690777
-0.118575
1.18227
0.157474
4.22596
1.07097
1.12622
2.4838
2.36883
0.981884
1.96373
2.12417
1.34261
0.945536
-0.202711
3.94333
1.55874
-0.509086
0.806963
0.662948
-1.36346
2.1144
-0.315367
0.408368
-0.930422
-1.4111
0.365606
0.721238
1.29669
1.84238
0.72164
1.07253
1.52608
0.957899
0.206866
1.0692
-1.37131
1.43832
2.47922
-1.38836
0.237546
-0.823893
0.962827
1.9811
-2.5377
2.97231
-1.15936
1.01701
1.43843
0.25908
-0.0532444
0.943886
1.16172
-0.214743
-0.43724
1.64076
2.06618
-0.934146
0.552143
-2.91217
-0.550079
-0.550534
-0.413615
-0.425828
0.999361
2.02066
-0.910779
-0.620601
0.725444
-1.3507
1.17153
-0.174116
2.84458
-0.421573
0.534129
0.107517
1.27803
-1.23202
0.528729
-1.36406
-1.9559
-0.72519
1.5595
1.74465
5.02786
2.91814
1.36856
2.67339
6.38172
1.34725
5.02511
3.92055
1.93338
3.0107
3.64682
2.00529
3.67632
1.94354
0.173135
0.883146
-1.00987
0.258727
0.883876
0.107502
4.24145
0.224423
1.85786
-0.373391
1.8758
-0.195907
0.337287
4.3241
0.368919
3.56555
0.040603
3.95631
0.190876
4.51606
-0.486602
0.680966
-0.531485
-1.12927
1.91608
2.8824
3.55608
1.40511
4.12876
2.47978
4.89526
2.2561
5.52553
2.09754
6.8881
5.26618
2.55657
2.79158
2.54991
3.38921
2.44045
-1.6743
-0.287495
0.0367749
1.04667
2.39967
1.9359
4.43111
1.09884
0.981873
3.66557
2.05074
0.92571
2.81558
3.485
0.546817
2.91221
2.12722
1.62757
0.845661
-0.985719
0.0773863
-0.323604
-0.925721
1.11979
1.546
-0.675609
-0.229938
2.08162
0.466665
2.08813
3.11608
2.58231
1.16333
0.466826
0.75368
3.65662
2.06264
2.57738
-0.406463
-2.25243
-0.511536
-0.0361063
-0.305612
1.051
0.763942
4.1106
3.20933
0.884529
2.43092
0.914761
0.273881
2.27412
3.18658
2.07652
0.646881
1.85418
0.550561
-1.66645
0.706486
2.1145
-0.298868
0.606828
0.654663
-0.689677
0.817377
0.802676
1.9432
2.15941
0.735969
1.63311
1.14574
-0.689951
0.579238
3.07321
0.442222
0.398025
1.22255
3.45012
-0.965704
0.936348
-1.00955
0.0814459
0.665713
-1.71632
-1.34343
-0.280149
-1.17046
-0.318083
1.11483
-0.174087
-0.00525989
1.59046
0.495613
2.12259
1.16315
0.139156
-0.205748
0.22031
-1.17488
-0.713855
-0.907105
-0.54396
-0.720281
2.64158
2.56931
1.32317
1.13028
1.99466
3.2927
0.599153
3.97183
3.26785
1.72933
2.89935
2.76595
1.741
-0.744086
3.40977
1.74974
1.13528
1.2479
-1.86122
-2.11724
1.67845
1.86521
3.68819
3.21321
2.43312
4.12838
3.31181
2.38508
0.521171
1.31925
2.76189
-0.197358
1.98166
3.09238
3.98018
0.977895
0.852433
-1.20394
-5.12958
-1.44873
-0.69372
3.11379
-0.249186
4.16301
2.56236
2.30185
1.55068
2.16411
2.0861
2.29835
4.29183
4.05233
1.36133
3.90732
2.23818
-1.7458
2.54939
-3.20391
-1.76976
0.352587
1.86496
1.41997
3.13455
2.15548
0.523865
1.32039
-0.488777
4.05938
1.4661
1.0868
1.66419
3.12679
1.57096
0.941151
-0.0281
2.03324
0.30053
-0.0623852
-0.936
-0.942186
1.73085
0.935959
4.1578
2.05487
0.0306358
1.30474
0.0975776
0.462335
2.69203
0.0473928
0.705451
3.76784
0.0924012
-1.46724
2.05581
0.0603471
3.59011
-0.781291
-1.6854
0.074193
-2.15893
1.25972
-0.876356
-1.14859
0.150278
2.13557
1.97184
-0.235755
0.34439
-1.33344
1.7846
2.33547
1.00544
2.20701
0.278383
2.3406
0.285836
-1.853
-0.0550389
1.88606
1.6304
-0.581751
-0.713983
-0.946182
0.0410809
-0.132167
1.01182
-0.712098
0.00784497
1.17823
1.38223
2.45603
0.429681
0.360481
1.08894
2.16285
1.44618
2.44304
-0.999769
0.926128
-0.124556
0.883687
-0.249671
-0.5461
-1.0724
0.291812
-1.04868
-1.05712
-0.0875693
2.37683
0.856555
-1.51625
0.401121
-0.62971
2.61501
0.880043
-1.66551
1.19444
-2.37991
1.00294
2.67345
2.40111
1.73866
1.03403
2.49064
0.892481
0.564325
1.80154
1.17665
0.574675
2.19504
1.42368
3.51531
1.22561
2.08478
0.943704
1.06044
-0.831519
-1.01443
-0.623071
0.258072
0.40826
-0.056238
0.0750923
1.56394
-0.00250785
-0.619069
0.379456
0.554352
2.85353
-0.0922611
1.42158
-0.026828
3.93588
0.176868
2.45928
-0.358644
-2.74157
-2.82486
-0.976641
-1.24754
-0.620349
0.0515521
4.12993
1.9394
2.37389
-0.472489
1.17519
2.07951
-0.945595
1.8488
2.128
-0.922595
1.14778
1.02813
0.535695
-1.86902
-1.51083
-1.13742
-1.90989
0.447846
2.20153
2.09305
1.9123
0.065667
1.46461
3.12432
1.26767
0.854082
0.498669
-0.473496
3.35334
0.404897
-0.164751
0.555793
0.798411
-0.506083
0.0731246
0.803896
-0.29631
-1.36353
2.23776
1.69457
2.77368
0.989671
0.992272
-0.498199
3.0353
-1.31224
0.87855
-0.535097
2.37075
3.03392
2.61138
3.14099
1.60227
-0.4308
0.613975
-0.898275
-0.608709
0.346258
0.860496
0.620793
1.71324
1.43583
0.524728
1.7417
-0.00221128
-0.0185264
1.40277
1.54196
2.78695
-1.39874
-0.488862
2.80107
-0.717241
-1.84554
0.0377245
1.73619
0.341301
0.0369312
0.909166
-0.917953
-0.00265602
0.0632912
-0.414658
1.86258
-1.14453
0.388168
-0.405504
-0.100508
-2.11627
-1.15769
0.734081
0.626017
-0.909451
-0.650301
0.966831
0.299403
-2.09305
-0.664101
-2.83691
0.440534
0.97471
2.90875
-0.0345701
0.121289
1.86176
-0.392125
1.24306
0.409356
-0.132446
0.514939
-0.118907
2.37343
-0.310494
-2.86982
-0.58856
-0.275935
-0.208837
-0.316464
0.905779
1.68759
4.50251
1.67001
2.3757
1.43431
1.72697
-0.750089
-1.04455
-0.779822
4.29214
0.742828
0.532407
1.75869
-1.17437
0.0363141
-1.79471
-0.317755
-0.862222
0.0705784
0.239234
1.5732
3.2489
1.82167
1.59505
0.907533
0.375497
3.23572
-1.53166
-0.0641631
0.41138
1.61732
1.27864
3.00973
2.00076
-0.746068
-1.31467
-1.97635
-0.34834
0.984523
0.876334
2.84996
0.522139
-0.919986
2.0798
2.35735
-2.33943
0.162382
2.21199
0.19788
1.99324
-0.472372
1.46946
3.3759
-0.231062
1.72806
-1.46794
-1.7191
-0.522745
-0.0408558
1.54743
2.70998
-1.86069
-1.66852
2.18617
1.2443
-3.04127
-1.19557
1.68593
1.06928
1.67524
0.316041
3.3178
-1.25777
0.587877
-0.543235
-3.35556
0.249253
-1.22945
2.23876
0.307694
0.908455
0.661268
1.98347
0.0609222
0.751368
1.79334
0.597626
0.340693
-0.0980874
0.615499
2.23923
1.38718
-1.135
-0.160722
2.14901
1.05937
-0.163396
-0.410681
1.15143
0.863422
-0.617687
0.700108
-0.326191
1.60756
0.491977
1.03204
1.15928
-1.92718
-0.564694
0.111212
-0.530968
0.92325
1.35195
-0.869183
-0.340687
-1.14885
-0.658987
1.07261
0.216348
-1.75404
-0.744368
-0.735431
1.27356
0.722312
-2.33099
0.355383
0.964607
0.460887
1.68896
0.634315
-0.608764
-2.41948
0.623144
-1.23689
1.0326
0.960296
-1.40483
-1.39319
-0.742798
0.710181
-0.256447
0.434951
1.77339
1.01574
1.99547
-0.795339
-0.939397
0.5453
-1.93513
3.29632
0.325073
0.250162
-0.947644
-0.697374
-0.983837
-0.578803
-6.63903
-2.80461
-0.335937
0.651565
2.74579
2.71722
-0.635002
0.377153
-1.78672
0.836865
-0.924816
-0.641532
-0.564756
1.30225
-0.0601964
0.564659
0.0351347
-0.363941
-3.32273
-2.58731
-3.21687
-0.216517
0.515632
-0.255082
-0.239418
-0.26298
1.78672
0.519391
0.106147
0.255355
0.235764
2.13896
-0.410756
1.33598
0.358497
2.30841
0.444493
-1.30216
0.450122
-2.49686
-3.90199
-1.91691
-0.503809
2.27425
1.66987
2.82344
1.53482
0.956372
0.241144
0.61878
-0.863487
-2.96416
1.78359
-0.776101
0.866508
2.29745
0.0123252
-0.106584
0.854246
-1.02179
-3.56177
-0.332925
-2.12354
-0.0249139
1.30291
0.701743
1.58046
-0.194373
1.94875
-2.15794
-0.312221
1.33357
0.307346
0.607837
3.60758
2.19654
0.419507
0.736672
-1.47151
-2.26918
-0.0392794
0.899515
-0.149123
-0.00250527
-0.413794
2.01393
0.522864
1.54319
0.990487
1.31563
-0.754016
-0.616954
0.865011
-0.213965
0.493661
1.06267
0.605905
0.382464
0.589583
-0.0715925
0.028021
-3.72206
-0.623993
2.12844
-1.00673
2.10885
0.978757
-0.376511
0.236813
-0.269657
-1.98045
-0.199593
0.349813
0.445215
-0.696549
-0.465992
-2.13523
1.88024
0.6777
-0.476887
-0.174156
0.331755
0.848692
1.55954
0.946962
0.312068
0.277025
0.163412
1.5129
0.979671
-0.614765
1.665
1.04227
0.593603
2.34999
-1.03598
1.68534
-0.88017
-2.58467
-1.11757
0.498428
2.97527
0.358614
1.79057
2.41992
-2.76865
0.351951
-0.129358
1.89129
-0.0407221
1.8854
0.00158104
-0.908808
-1.60143
-0.02621
1.28603
0.48558
0.307541
-0.53853
1.88107
-4.19363
-0.847435
-0.379873
0.126855
2.52406
0.737249
1.66834
-1.33832
-1.62943
-0.586063
-2.21418
-0.170917
-0.0872262
-3.5501
-2.98175
2.47677
-1.16509
-0.486248
-4.58386
-2.35876
-3.90668
-0.03606
-0.337905
0.181721
1.80648
0.926895
-0.0470803
1.38282
0.0254583
-3.24742
-1.31594
0.39303
-2.95375
-3.0955
-1.88683
1.68283
-0.196187
1.24143
-1.35874
-0.908574
-1.93895
0.0799715
2.41432
-0.681826
1.59408
0.0485045
0.172465
0.666075
1.36975
-0.845865
0.729652
-1.22726
-0.170361
-0.269286
2.06604
-2.32337
0.670618
1.41035
-5.05297
-1.83368
-1.76678
-0.487785
-0.616173
-0.393776
0.729298
1.56399
1.87329
0.717893
-0.54819
-0.888751
-1.87669
-1.33855
-1.09714
-3.05194
-0.983396
0.00619177
1.21163
0.640914
-0.77867
0.655254
-0.0937372
-0.698759
0.277001
0.381241
0.80689
-0.625332
-2.12552
-0.540735
0.722384
-0.00850581
1.16407
1.14645
-1.4447
-1.17242
0.722262
0.185066
2.17537
-0.338269
-1.93274
-3.45484
0.158693
-0.256156
-2.52554
0.487006
0.159698
-1.36373
-1.788
1.11109
-0.130134
-0.0499567
-0.181476
-0.582735
-2.10088
-1.47055
0.882963
0.368165
1.11735
0.43351
-0.0908571
0.116614
-1.84222
0.909209
-1.56277
0.040998
1.02864
0.527264
-1.40803
0.440085
1.52712
-0.237784
-1.66268
-1.19443
-0.910711
-1.10785
-0.0860659
-0.111438
0.58252
-1.04939
-0.977761
-2.11976
-0.647925
-0.376388
-2.59338
-1.28539
-0.213982
1.04338
1.32659
1.2243
-0.455088
-1.29222
-0.22869
0.662616
1.93627
-0.311267
-0.455365
0.720727
1.61688
-1.02023
-1.04072
-1.70352
-3.11462
-2.88346
-1.32534
-2.20638
1.23419
0.461508
-1.07539
-2.01793
-1.64828
-1.13498
-0.391136
0.202518
-2.28787
-2.11665
1.06346
-1.22283
-0.784365
-1.60008
-2.66337
-6.09565
-2.08009
-0.0856852
-0.0981322
-0.186099
1.52902
-0.412437
-1.91932
-0.292969
-1.86943
0.709968
-0.291829
-0.703311
-0.0140303
-1.20221
0.313968
-2.38297
0.363902
-1.937
0.12244
-1.89326
-3.48472
-2.63284
-0.194556
0.294035
-0.28511
1.09302
-0.293617
0.715091
-0.822232
-1.43626
-0.246344
-1.97375
-1.4612
2.12534
0.0308366
1.57183
0.994393
-0.170141
0.652766
-2.25439
-2.04671
0.752602
-0.0704058
0.00657782
2.60009
0.774294
1.44371
0.302287
-0.467796
0.966682
-2.41796
-1.28628
-0.978273
-2.8568
0.206142
1.46636
-1.65727
-0.729932
-1.37942
-0.0231827
-0.660687
-0.217175
0.326686
0.983294
0.543506
-0.0336881
-0.156927
0.835753
0.853173
0.654513
1.87788
0.400433
-1.26192
0.170232
0.547777
0.118331
-0.510828
-1.03344
-1.49516
-0.0612504
-2.05062
0.0377734
0.677739
0.464989
1.74338
-0.496926
-0.980128
-0.722794
0.479592
0.108825
0.174867
0.252598
0.97297
-0.0490284
-1.82106
-0.271765
-0.358053
-0.386002
-1.13798
3.97389
-2.88859
1.84111
-1.43573
0.392703
0.50515
-2.25494
-0.933962
-0.846173
0.0340055
2.43821
0.122159
0.0536404
-1.59429
-1.51716
0.369798
-1.91767
-0.507523
0.149452
-3.66297
-1.22488
0.0581557
-0.807734
1.33342
-1.02065
-0.333895
2.21496
-0.593051
0.753255
-1.09264
-0.799418
0.0458891
-1.305
0.591717
-0.764305
-1.5139
1.07314
2.03604
-1.15256
-0.281578
-1.69319
-3.08631
-3.13286
-2.67589
-0.892135
-2.80439
-0.705897
-0.197651
-1.31549
-3.53449
-1.69617
-0.208957
-4.41604
-3.43988
-1.98038
-3.17642
0.508948
-0.460834
1.58271
-1.53215
-3.66736
-4.80501
-2.85132
0.805907
-0.131821
-0.732184
-1.23226
-2.43744
-2.80986
-4.26453
-4.20047
-0.37959
-2.04092
0.719718
-1.63773
-0.656162
0.265777
-1.20512
-0.0105425
-2.99896
-4.54083
-3.23365
-1.8999
-1.77634
-0.600041
0.322241
1.0595
-1.03044
0.309492
-1.32596
1.54989
-1.61305
-0.918923
-1.9991
0.135723
-1.59755
0.659246
-0.00709542
-1.0423
-0.245527
-2.72594
-2.89156
-2.02212
-0.307551
-1.73995
-0.0142336
-0.530677
1.44647
-0.553025
-2.92725
0.0963675
-4.05603
-2.10095
-0.490094
-1.3337
-1.16063
1.29015
1.26641
0.249174
0.331408
-4.32654
-0.255667
-0.915878
-0.640346
-1.84692
-1.62063
-0.500075
0.161197
0.413864
-0.666864
-1.54848
-1.42275
0.104328
0.158213
-0.599085
0.5087
-0.305489
-0.983851
0.0513505
-0.35169
0.376095
-2.0484
-3.15658
-0.789367
-1.24544
-0.49979
1.12292
1.57708
0.71486
-1.79995
-0.185715
1.02256
0.568681
-0.945673
-0.954736
-1.38232
-1.22511
0.519073
0.129204
-1.20289
-3.03021
-0.479671
-1.71069
0.0881635
0.562787
-0.785159
-1.30598
-1.51487
-0.330195
-0.481347
0.52136
0.327045
-0.388482
0.623357
-0.440149
0.984566
1.13838
1.23532
-0.961378
0.566955
0.595081
-0.244293
-0.476476
0.158237
-1.46547
1.22648
0.033274
0.0952073
-0.57695
0.0401101
1.23799
0.183321
-0.0726772
0.291975
0.666343
2.19985
-0.89142
-1.00727
-0.499515
-2.13973
-1.85474
-4.78969
-3.30652
-2.44625
-3.09673
-0.144154
-3.19609
-3.12427
-1.78047
-0.947849
-1.31858
-4.2318
-2.04163
-1.17654
-1.16126
-2.97332
-0.813429
-1.01723
-1.92145
-3.56496
-2.89348
-4.86205
0.0154775
-3.28947
-0.279982
-0.570901
0.674481
-1.64336
-0.0821199
-4.54591
-0.0213016
-0.507632
-4.6851
-0.472915
-0.686879
0.0845154
0.891674
0.0577234
-1.7872
-0.739844
-5.38273
-2.91096
-0.984134
-0.504578
1.46439
1.01741
1.17462
1.14491
0.339476
-1.01301
-4.92666
-2.61903
-1.71061
-0.287492
-1.34571
-0.181693
-2.21458
-1.69262
0.833502
-0.643672
-3.7466
-3.46715
-0.13157
1.04719
-0.00791263
-0.905578
-1.87149
0.427158
-1.70197
-0.77574
0.949629
-1.25956
-0.695847
-3.02864
-0.379328
-1.64934
-0.536074
-4.17629
-1.16281
-1.56695
-0.391967
-3.49401
-1.76872
-1.51642
-1.13023
-0.428065
-1.17455
-0.0748664
0.576722
-2.52819
-0.656227
-0.205677
-0.386995
-0.984374
2.32832
-1.16423
-0.966769
0.0976364
1.87356
-1.86666
-1.29298
-3.17161
-3.58063
-0.0560865
-0.567393
0.0340453
-0.087775
-0.721536
-0.279531
-1.85971
0.120299
-1.24871
-1.61209
-1.97074
-1.80627
-2.502
-0.481854
-2.68436
-1.40579
-0.100615
-1.80803
-0.60715
-0.452774
0.993346
-0.63275
-0.601917
-0.357118
1.42715
0.326827
-1.40589
-2.78937
-0.580393
-1.90253
-0.155007
-0.0865463
-1.59602
0.219511
-2.53956
0.890575
-2.52296
-1.08429
0.111331
2.979
-0.420738
0.76347
-2.00678
0.304853
-0.571222
1.72083
-0.686209
0.752527
1.10374
0.0113162
1.89821
0.33632
1.5817
-0.775513
1.51723
0.000816561
-0.0821989
-1.79954
-4.5754
-3.25778
-1.65723
-1.4905
-1.58703
-2.62472
-0.468541
-3.61143
-0.288855
-3.0675
-2.81165
-3.3491
-0.00327762
-1.41353
-1.18773
0.786253
-0.856014
-0.88982
-4.57295
-1.68306
-1.16515
0.307847
-1.44891
0.319702
-2.12373
-0.0534844
-0.871905
-0.0642895
-2.47991
-0.0538229
-0.0484159
-1.77077
0.103666
-1.56062
-0.837862
0.483805
0.0875143
-2.37031
0.446683
-3.20197
-1.9193
-2.06336
-2.32825
-2.10806
0.16674
0.4653
0.398513
-0.456707
-0.847934
-1.68626
-2.91784
-2.03436
-3.12034
-2.07656
-0.965102
-0.812844
1.53693
-1.77605
-1.63168
-1.57877
-3.17916
-0.283904
-2.91708
-0.339029
-0.928941
-1.84103
-0.781605
-1.30709
-1.939
-0.209088
-1.71098
-0.5714
-1.80102
-0.565325
-0.761767
-0.336106
1.9116
-1.22993
-1.0433
-1.56349
-2.79771
-2.98327
-0.792752
-1.21685
-0.781261
0.847813
0.122979
1.43398
-1.63507
-0.11859
-1.48161
0.857069
-2.38599
-1.16945
1.30822
-0.617845
-1.38202
0.145913
-0.937981
-2.8557
-1.12613
-2.18116
-2.0799
-0.76276
-1.23199
0.871617
-0.441747
-1.15016
-3.50689
-0.0649616
-0.197627
-1.82143
-0.520576
0.283821
0.161948
1.2348
-1.6221
-2.65052
-1.27602
-2.00805
0.557642
-2.97744
-1.90185
-0.184666
1.39497
0.0174993
1.72154
-1.77893
1.56228
-0.513607
-0.141478
0.856596
1.71815
0.169082
-1.59762
1.19704
0.342245
-0.0445659
1.38014
-1.10371
0.0784554
-0.479308
0.856949
1.35359
3.1317
-0.969234
-0.422953
-1.33653
-0.468171
-0.869765
-1.26983
-1.22463
-0.440998
-3.49022
-2.12181
-0.557395
0.738926
-2.12318
3.06618
-1.36006
-4.86886
-1.722
-1.93679
-1.26155
-1.15281
-0.565412
-1.35518
-1.2874
-0.569283
-2.48146
-1.49949
-2.55578
-3.30431
-3.0787
-0.272244
-1.27296
-1.8687
-2.88187
-4.45193
-5.40051
-2.76857
-1.3999
-0.563935
-0.826274
-2.36139
-0.853944
0.776892
-2.36982
-4.42994
-1.8211
-5.43294
0.387806
-2.7522
-1.70173
0.0434936
0.711096
-1.10553
-2.6032
-4.23677
-3.52879
-2.62814
-4.76547
0.103735
1.38066
-0.517448
-0.321836
-1.75591
-0.441835
-3.20696
-0.824498
-0.512625
-1.59999
-2.20699
-2.58683
0.394496
-1.75854
-2.86529
1.07477
-0.886878
-3.72744
-3.11094
-2.96437
1.47164
1.87913
-1.15419
0.922996
1.34864
-2.12813
-1.27232
-1.79161
-1.28274
-0.988146
-2.46897
-2.4611
-2.10423
-0.458207
-0.591826
-1.12067
1.96336
-1.58099
-3.12743
-1.87204
-1.08176
-0.199322
0.845651
2.16226
-1.53794
-2.97814
-2.35072
-3.36246
-1.01801
-0.304247
0.126141
-1.3888
-0.124397
-0.637486
0.132571
0.206904
-2.12673
0.0981274
-1.49056
-2.37791
-1.57797
0.410645
0.978246
-1.58543
0.513037
1.31048
0.354131
-0.677419
-1.09792
-4.18018
-0.593299
-2.58055
0.221562
-2.205
1.25374
-0.651315
-2.05651
-1.90297
-0.292145
-0.16174
-1.69924
0.52682
-1.04376
-1.06253
0.516241
-1.12603
-1.90392
0.0696354
-1.43104
-0.628827
-1.64912
0.706607
0.586321
-1.19227
0.14031
-0.40271
-1.74294
-2.35785
0.196971
-0.325947
0.996007
0.969873
1.13185
0.461311
-3.65923
-0.534648
1.5826
-0.450737
-0.712979
-2.08706
0.38237
-0.739209
1.7301
1.47192
1.40902
-0.389252
1.59653
-0.982929
-4.68841
-2.56883
-1.94004
-3.42351
0.0151604
-0.365032
-0.346743
-2.06201
-1.61446
-3.54675
-1.85385
-0.950037
-3.09287
-2.6556
-1.9344
-2.01205
-0.650135
-1.43333
-4.44436
-4.00588
-5.11651
-0.416633
-3.85145
0.262771
-2.29097
0.749577
-2.23049
-0.0823228
-2.0719
0.18653
-0.163555
-1.32628
-0.21271
-0.831542
-0.116877
-0.897704
-0.0299505
-2.29519
0.571627
-3.62649
-4.44057
-3.12098
-0.512996
-1.45714
0.328673
-1.66525
-1.97799
-2.40595
0.120273
-1.53553
-0.467857
-0.472221
-3.69526
-0.898206
-0.389368
1.67621
-1.39418
-2.45269
-0.979865
-1.3037
-2.1804
-2.45304
-0.977699
0.0810371
-0.016189
1.32365
-1.65117
-0.165686
-1.98922
-1.3689
-2.4813
-1.00537
-2.89973
-1.14263
-2.44107
-2.56791
-2.05118
0.834109
-1.28685
-0.697441
-1.1832
-3.98224
0.0561322
-0.469919
-1.94564
0.047259
-2.72931
-2.43728
-0.824947
-2.03304
-3.57097
-0.980363
1.0745
-2.11581
1.20243
-1.15824
-1.03726
-2.45706
-0.20195
-3.41124
0.850539
-3.06599
-2.55795
0.339256
0.594817
-1.055
-0.193854
1.05162
1.25117
0.118629
0.0779388
-1.8045
0.0399387
-0.79611
-0.82131
-0.174205
-1.70175
-1.52075
-0.0202234
0.165911
-2.67305
-0.0249613
-1.39856
-0.308524
0.285086
-1.69724
-2.27367
3.30427
-0.0756714
-0.816203
-2.31829
-1.60407
-0.476979
1.12527
1.27899
1.38414
0.525514
1.50878
-2.05478
-1.55328
0.468085
-0.836299
-0.594461
2.51719
-1.59443
-0.320452
1.57875
1.17684
0.435496
-0.225505
-1.45266
-2.14119
-2.15413
0.0621401
1.03107
1.62293
0.188665
-0.544148
-0.452295
2.00758
-6.60398
-3.89551
-0.787972
0.633438
-3.47241
-2.94593
-0.630788
-1.8955
-4.10969
-4.28121
-3.7563
-0.812383
-1.84589
-0.127987
-1.05864
-2.16208
-1.43068
-1.90803
-2.89187
-3.75976
-2.43718
-2.48219
-1.93495
-0.762819
-0.859432
-0.542752
0.424493
1.09305
0.399937
-2.62783
-2.93307
0.748517
-4.22255
-0.86537
1.24196
-0.459292
-0.869408
-1.06637
-0.112983
-4.2959
-3.59023
-2.23058
-0.811672
-0.761535
0.14229
-0.191814
-0.191577
0.648749
-1.92428
0.176232
-1.96335
-1.2338
-0.602304
0.305803
-0.0399219
-0.435953
-0.892711
-0.526087
-0.51334
-1.79255
-4.30252
-1.62086
-0.331502
-0.17815
-2.40821
0.0951661
0.162388
-0.361328
-0.763908
-0.995367
0.198846
-2.26693
-2.55984
-1.01104
0.145621
-1.05855
-2.14833
-1.63308
-1.11588
-1.95801
-0.821784
-0.473295
-0.524463
-0.487424
0.972769
-0.417684
-0.321141
0.10576
-0.514041
0.814222
-1.05751
-1.68829
0.230294
-1.03107
-1.0082
-1.30264
1.96441
0.735081
-0.934025
-1.90512
-2.68271
-1.31728
-3.03471
-2.57895
-0.25383
0.372313
0.539497
0.0974189
-0.121809
1.16072
0.80969
-2.24857
-3.66015
1.8623
-1.47493
1.32024
-4.53814
-0.0615278
-0.230244
-0.78732
-0.403943
0.533338
-1.65944
-0.759157
1.41695
-1.74462
2.55655
1.36818
2.0776
-0.550596
1.84469
1.21246
0.0450166
-2.16319
-1.74837
1.96494
0.407883
-0.270243
-0.342949
0.397257
-2.80742
-0.140064
-0.977475
-2.0609
1.62811
1.12008
-0.263906
-0.0260427
2.44085
-0.624838
1.3249
1.26078
0.687439
-0.0707574
1.14101
-2.65124
1.38088
1.00139
3.45459
-1.56964
-4.43454
-3.78008
-3.62869
-0.725488
-1.39796
1.72777
-0.0136807
-1.18159
0.96991
-1.2985
-1.21749
-0.714473
-1.5563
0.731262
-0.798967
-2.2054
-0.586908
-1.06162
-1.75566
-2.95774
-2.68668
-0.39696
-2.05101
0.357023
1.4732
-0.117736
-1.43932
1.09628
-1.83322
0.0974392
-0.265113
-0.43532
-0.246015
1.26316
-0.264797
0.362338
0.46531
-0.0346514
0.181789
-3.78009
-3.60091
-2.19719
0.155311
0.92112
1.39694
-1.57246
1.05458
1.19885
0.958072
-1.00584
-0.742826
-1.66256
0.828956
0.724754
0.530609
-0.958605
-0.909696
-1.22214
-1.91394
-1.00766
-1.0579
-1.08812
-1.73927
-1.88083
0.286312
1.10622
-3.4962
-1.41365
0.872852
0.855515
0.303714
-0.869449
-0.29888
1.8992
-1.43222
-0.0896911
-1.25616
-0.186856
-0.559026
-2.55549
-3.15526
0.392444
-0.527783
0.447171
-0.857572
0.518149
0.345618
0.413382
-0.836598
-0.595019
-0.771073
-1.79446
-0.0282913
-1.22681
-0.555862
1.15558
-3.07488
-0.52525
-3.53712
-0.368879
-1.4689
0.269447
-1.40941
0.524669
0.454119
1.60271
0.831906
-1.78333
-2.22021
2.0197
-1.16228
1.12092
0.310347
-0.257676
-1.87442
-0.822773
1.22653
-0.26875
-1.77051
0.169723
-0.864481
-1.03976
-0.258768
-0.554039
2.67941
0.494249
1.28844
-0.906874
1.44347
0.533578
-0.631352
0.142832
-1.67061
-0.448379
1.01896
1.78516
-1.61446
1.72631
0.466628
-0.738673
-0.326188
2.01264
0.544743
-2.16289
0.404476
-1.60013
1.21549
-2.5439
0.614307
0.427079
-0.865522
-0.164798
-0.327492
1.27796
3.40443
-0.239595
0.215495
0.726232
0.407154
-3.22976
-1.05182
-2.17139
-1.11758
-1.33419
1.91739
1.40818
-0.658823
-1.25019
-0.428556
-0.950736
0.0589129
-0.0966117
-1.92119
1.52663
-0.612015
1.23238
1.28661
1.91604
-2.834
-5.10418
-1.3597
-0.621324
0.607282
2.23342
0.612621
0.731793
1.67504
0.0385451
0.139773
-0.292962
-2.61345
0.316343
-1.21847
1.53822
1.55272
0.883491
1.41107
-0.0223239
-1.75813
-1.09312
-4.68314
-4.55007
-0.534301
-1.3542
-0.263268
0.0931911
0.682188
0.650617
0.931284
-0.0550257
-2.29163
-3.05324
2.22819
0.559043
1.05683
0.987523
-0.429512
-1.68372
0.113878
0.504845
-0.942374
-0.797941
1.55404
-1.16996
-0.603517
1.01884
0.695994
2.04605
0.590128
-1.02966
-0.311474
-0.248706
-1.29813
1.45893
-1.47657
-0.0354168
1.99627
0.694969
-1.77372
-1.53101
0.346252
-2.50187
0.14689
-2.00639
2.68513
-0.172407
0.366905
-1.19534
0.529987
2.74453
-0.251089
2.53404
1.0264
-2.47536
1.39218
1.62121
-3.05785
0.406945
0.860543
-2.85188
-0.00942257
-1.23822
0.161905
0.310382
3.33314
-0.325871
-0.753485
0.474056
-1.45152
-1.88346
0.177165
0.649028
0.666408
-1.25505
1.05969
0.727917
-0.796608
1.05015
0.834821
0.392922
-0.762559
-0.675945
0.883195
-0.295845
-0.0282772
-1.40155
-0.00117956
-1.32401
0.606013
-0.431801
-1.42804
0.829483
1.8034
-1.72724
-1.97556
0.925605
-2.01406
-0.293072
-0.166646
-0.404905
1.89121
0.749317
-0.997051
1.07139
1.98976
-1.10512
-1.20347
0.861843
-1.86976
-0.428988
0.510938
0.237136
1.29996
0.326575
-1.63791
-2.55542
1.17059
3.01072
-1.63276
0.152299
-2.73133
-0.178096
-1.733
-0.0766645
-0.353558
2.16161
3.16247
-0.809021
3.29536
-0.172671
-0.108299
-0.5004
-0.637385
0.795678
0.727567
1.09366
1.46201
1.12476
0.695778
-2.4212
-1.8303
0.109493
0.895444
-0.0351114
1.29217
-0.4862
1.21045
0.364749
3.09763
0.155527
0.073654
1.19352
0.356498
3.05717
-0.187307
1.1829
0.703752
0.116786
0.236542
-1.76389
-0.716722
-1.10216
-0.33659
-1.77722
0.183099
-2.12178
1.17378
2.38956
2.29116
-0.569351
-0.872517
1.83069
-1.18269
0.442413
0.192775
0.96997
2.75589
0.180033
-0.0913571
-1.52896
-3.5534
0.997153
0.454138
1.12251
0.622504
1.26333
0.396655
-1.00675
0.412055
1.86638
0.646332
0.192664
1.29162
-1.77503
0.437747
-0.965867
0.29079
-1.40441
1.48491
-0.935025
-2.61374
0.10293
0.962979
-1.50313
-1.45801
-1.6753
-0.184708
2.62037
0.151606
1.63469
-0.0961952
2.25228
0.426246
3.12519
-0.751719
-1.54322
-0.223985
0.54544
-2.11094
1.34037
-2.02172
-0.563873
1.7529
0.544197
2.72881
1.45841
2.16322
1.48688
-1.00986
1.85524
0.197327
-1.24255
-0.641691
2.56153
1.77222
0.418321
1.95732
0.716916
-0.307604
-2.37776
0.135434
-1.67545
-0.782109
1.54798
-0.00763501
0.720298
2.05405
0.38183
-0.182855
0.134262
-1.09568
0.473607
2.13375
-1.62512
0.425214
1.35281
0.768061
1.64465
-2.48241
0.430915
3.24766
-0.0962086
-1.02985
0.823382
1.12095
0.538279
0.126925
0.564989
0.717304
0.573771
0.458761
0.0830719
0.00130525
-0.902148
1.77182
0.399159
0.568342
-0.515657
0.275132
-1.1458
-2.81994
0.947993
1.1402
4.97739
1.78414
1.6641
1.82443
4.14073
3.22053
1.94575
2.17183
2.68999
3.53087
4.65976
1.74991
1.60673
2.45669
-1.87237
1.99851
-1.58348
-1.48402
-0.517209
0.440667
3.10452
0.082026
2.67366
1.35065
2.58487
2.1878
3.24361
3.28357
1.79129
3.38422
4.282
2.55004
2.32692
1.06708
1.22
1.48347
0.395828
-0.767437
1.64859
1.95154
0.596264
3.62748
-1.9092
1.63039
-0.20932
1.54429
2.26397
1.74921
3.7659
2.71583
2.59053
0.855792
1.9745
3.92223
-0.117535
3.56019
-0.101511
-1.75223
-0.281224
0.805875
2.67717
-0.167142
1.89002
1.96219
-0.893699
0.0642175
3.16668
-1.71483
0.449332
1.55365
1.32211
-0.429575
1.81865
2.13093
1.91743
-1.21806
-2.32569
0.328402
0.986968
0.0481955
2.33201
-0.213993
1.52986
-0.487334
3.48558
1.98124
1.53569
0.788662
2.65427
3.70338
-0.774922
0.445448
1.29146
-0.332047
-0.900337
-1.44288
-0.524754
-2.62292
0.626784
0.80204
0.80699
1.47012
0.439979
1.2352
1.87762
2.06708
-2.17632
-0.721742
1.53698
1.19998
2.44669
-1.36376
0.291422
1.58579
-1.13509
-0.960821
-0.728974
1.60732
-2.21891
1.70153
0.570934
-0.497511
1.50722
0.682405
0.670453
1.14882
-2.05218
-1.40404
1.27647
0.00357976
-1.4221
2.93176
2.66565
1.08065
0.976728
0.471926
0.319639
0.219598
-1.84575
1.02165
-0.175598
-0.359578
-0.615305
-1.64154
1.41333
1.49264
0.656631
1.50543
2.1318
-2.23216
0.801252
-0.246788
-0.502235
1.90196
1.05519
2.03965
2.9091
-0.584355
0.860216
1.76568
4.11184
1.5049
5.34188
2.07408
5.21977
5.69527
5.29669
3.69471
4.22218
0.837094
4.25272
2.27317
2.7675
3.75383
1.46879
-0.329705
1.64869
-2.49622
0.825227
1.83859
-0.402071
3.09338
0.185016
0.82748
-0.306729
3.01681
0.0163759
-0.384241
2.43294
0.375826
3.69041
-0.112986
1.92747
0.164232
3.52106
-0.461195
-0.270274
0.071355
-0.616757
-0.371213
2.56992
1.44238
1.02894
3.62549
5.32716
1.1419
1.19473
2.44941
2.61921
-0.0743482
2.14366
2.45533
0.122458
2.65166
2.4888
2.13955
0.479163
-0.474768
-0.0440668
0.909863
0.384644
-0.833342
2.80669
3.28158
2.73695
5.18448
0.640243
1.13623
0.408373
2.62215
-0.0394998
-0.053924
2.65588
0.773172
1.95223
1.76705
0.484725
-1.12204
-0.259234
1.71827
1.43955
2.28244
1.77158
3.19055
2.66872
1.40668
0.328518
2.1493
0.980385
0.887532
0.67275
2.88117
3.99652
1.33742
1.70311
2.41316
0.587114
0.937307
-0.447587
-2.1961
3.52853
0.483371
0.643123
0.573391
1.18633
2.75482
1.32256
1.91979
1.60353
-0.310761
0.968521
1.10895
-0.484722
-0.388457
1.20643
-0.893196
1.42782
-0.805156
-0.428189
1.55502
0.297179
1.73823
0.750181
-2.022
-0.351719
0.805679
1.56778
1.56641
-1.16945
0.489706
2.5361
-0.456771
2.8312
-1.97963
0.296212
0.787157
2.11238
-1.11053
0.710232
-1.46092
0.253508
1.16585
-0.204994
1.62041
0.130921
0.504092
-0.218555
2.14462
1.84478
0.354872
-1.46789
0.0550315
-0.159585
0.746308
-0.842576
-0.610635
2.27272
2.24976
-0.772744
3.09295
3.32839
5.40569
3.44023
1.07299
6.26437
4.32192
1.97087
4.84548
4.62515
2.61608
4.05437
3.59932
5.75084
3.69205
2.39368
4.37709
2.37232
-0.497099
1.13961
3.19935
1.76511
3.12599
4.31056
3.29191
4.32144
4.26815
1.60991
3.81943
2.49027
4.0164
3.76323
5.04797
3.31831
5.39389
3.56798
-0.316403
2.61964
0.57275
0.861536
1.88984
0.734225
1.86621
3.63086
2.93374
2.46799
1.2508
2.21917
0.777581
2.94266
1.97
3.95192
3.46047
3.93359
2.66993
1.28775
0.552528
1.50005
1.54602
-1.18781
0.734814
3.81705
0.277325
0.179156
4.80157
1.23759
0.537861
2.84365
1.78713
5.59761
2.61473
3.68301
3.78123
1.17421
1.54695
1.55623
0.66581
0.0411652
1.78637
2.25652
1.28626
2.72335
0.171213
2.2083
2.42325
-0.424954
1.40549
1.58564
3.47632
-0.20399
1.10361
1.44254
1.94757
2.65395
1.86497
1.0786
1.16468
1.15599
-1.5646
2.7282
1.17705
0.914363
2.0003
1.48438
0.878603
0.933981
-0.331772
2.11983
1.68049
1.245
-0.0251261
2.21875
0.579213
-0.326959
4.27261
2.95065
0.326554
-0.470449
0.602654
-0.195692
3.47215
1.5335
2.13483
0.186576
-0.595546
0.412172
-0.812408
1.10432
-1.31346
-0.0576428
-1.7675
-0.769493
-0.0170324
-0.503809
-0.115627
1.64547
-0.257726
0.975227
-0.740848
2.80584
-0.913348
-0.250607
1.75931
-0.05048
0.758732
1.27287
0.261299
-2.65498
1.20759
-0.353734
-1.55585
-0.279561
-0.19144
0.179995
1.30508
-0.423479
1.61297
0.327395
)
;

boundaryField
{
    hotSide
    {
        type            calculated;
        value           nonuniform List<scalar> 
400
(
0.327711
-1.15992
0.255088
-1.5762
0.534077
-5.82098
-3.36572
-2.27493
-2.23282
-3.92027
-3.68784
-3.96084
-3.75754
-5.64777
-3.45045
-0.037259
-1.68364
-1.73644
0.53768
3.41307
1.52125
0.0984765
0.10602
1.83326
0.626984
-1.96171
0.00424479
-2.02118
-2.25802
-2.41704
-2.35144
-0.796477
-1.62171
-2.92426
-2.78211
-1.14404
0.881343
2.04228
1.99213
0.399616
1.29175
2.41311
3.49729
3.53244
0.547073
0.533548
0.497119
-0.439112
-1.77853
-1.53571
-0.731289
-0.99311
-0.976149