/*--------------------------------*- C++ -*----------------------------------*\
| =========                 |                                                 |
| \\      /  F ield         | OpenFOAM: The Open Source CFD Toolbox           |
|  \\    /   O peration     | Version:  2212                                  |
|   \\  /    A nd           | Website:  www.openfoam.com                      |
|    \\/     M anipulation  |                                                 |
\*---------------------------------------------------------------------------*/
FoamFile
{
    version     2.0;
    format      ascii;
    arch        "LSB;label=32;scalar=64";
    class       volScalarField;
    location    "0";
    object      relativeErrorField;
}
// * * * * * * * * * * * * * * * * * * * * * * * * * * * * * * * * * * * * * //

dimensions      [0 0 0 1 0 0 0];

internalField   nonuniform List<scalar> 
3200
(
0.00136011
0.00203354
0.00127547
0.00543883
0.0112991
0.00902174
0.00443909
0.0143642
0.0058814
0.0124673
0.0101129
0.00598537
0.00942711
0.0132406
0.0129916
0.0120826
0.00767265
0.00852026
0.00166296
0.000848866
0.0132483
0.00476818
0.0063504
0.0089089
0.0166927
0.0121971
0.00826624
0.0157718
0.00556747
0.00992193
0.00972096
0.0113023
0.00663821
0.0115583
0.0153577
0.00738796
0.00811968
0.00434338
0.00684142
0.0017984
0.005733
0.00241462
0.00100364
0.0115093
0.0102969
0.0136617
0.00904897
0.0115303
0.0132119
0.011033
0.0120164
0.00420574
0.006027
0.00640165
0.00606367
0.0165829
0.0126243
0.00678788
0.00111637
0.00277865
0.00552949
0.00428368
0.0099207
0.00183122
0.00798362
0.00597629
0.00569888
0.000190871
0.00465765
0.00575582
0.00821917
0.00823174
0.00426594
0.00287859
0.0116807
0.00709088
0.00606021
0.0032008
0.00337756
2.24491e-05
0.00215652
0.000369919
0.00368491
0.000490316
0.0131442
0.00332766
0.00349599
0.00770402
0.00734313
0.00304281
0.00608551
0.0065847
0.00416439
0.00293513
0.000629853
0.0122651
0.00485332
0.00158673
0.00251749
0.00206963
0.00433481
0.0067189
0.00100146
0.00129583
0.00295013
0.00447088
0.00115757
0.00228223
0.00410143
0.00582613
0.00228203
0.0033924
0.00482901
0.00303287
0.000655429
0.00339015
0.00435142
0.00456743
0.00787819
0.00441397
0.000769406
0.00266777
0.00311635
0.00640926
0.00820609
0.00960707
0.00374568
0.0032846
0.00464446
0.000836412
0.000171894
0.00304765
0.00375199
0.000693797
0.00141324
0.00530568
0.00668451
0.00302352
0.00178784
0.00943248
0.00181586
0.00181717
0.00136505
0.00140514
0.00329713
0.00666559
0.00300397
0.00204664
0.00239218
0.00445379
0.00386301
0.000574155
0.00938096
0.00139045
0.00176194
0.000354723
0.00421721
0.00406601
0.0017452
0.00450289
0.00569699
0.00210918
0.00452726
0.00505446
0.0145359
0.00841933
0.0039411
0.0076865
0.0183275
0.00386679
0.0144227
0.0112593
0.00555884
0.00867005
0.0105217
0.00579744
0.0106507
0.00564211
0.000503555
0.00257236
0.00299091
0.000765301
0.00261018
0.000316896
0.0124801
0.000659155
0.00544772
0.00109335
0.00548708
0.000572761
0.000986103
0.0126488
0.00108025
0.0104551
0.000119255
0.0116411
0.000562667
0.0133364
0.00143934
0.00201681
0.00160121
0.00339854
0.00575833
0.00864905
0.0106537
0.00420304
0.0123327
0.00739823
0.0145919
0.00672198
0.0164631
0.0062524
0.0205501
0.0157301
0.00764737
0.0083633
0.00765138
0.0101855
0.00734453
0.00504418
0.000881418
0.000112648
0.0032024
0.00733262
0.00590771
0.0135048
0.003345
0.00298595
0.0111392
0.00622957
0.00281204
0.0085562
0.0105981
0.00166457
0.00887563
0.00649155
0.00497334
0.00258738
0.00301943
0.000237255
0.00101003
0.00288737
0.00348944
0.0048127
0.00210098
0.000714322
0.00646065
0.00144723
0.00647202
0.0096552
0.00800131
0.00360568
0.00144773
0.00233917
0.0113596
0.00641432
0.00802338
0.00126661
0.00702543
0.00159659
0.000114773
0.000970987
0.00333699
0.00242377
0.0130319
0.010167
0.00280023
0.00769135
0.00289307
0.000866
0.00719067
0.010078
0.00657005
0.00204789
0.00587397
0.00174545
0.00528718
0.00224313
0.00671817
0.000950026
0.00196531
0.0021196
0.00223205
0.00264414
0.00259537
0.00628029
0.00697613
0.00237677
0.0052727
0.00369864
0.00222729
0.00187014
0.00992476
0.00142863
0.00128639
0.00395299
0.0111608
0.00312538
0.0030316
0.00326958
0.000268851
0.00219727
0.00566417
0.00443286
0.000924252
0.00386091
0.00104909
0.00367646
0.000574047
1.73435e-05
0.00524425
0.00163427
0.0069998
0.00383624
0.000459026
0.000678793
0.000726949
0.00387731
0.00235617
0.00299433
0.001583
0.00209309
0.00766217
0.00743769
0.00382251
0.00325876
0.00574033
0.00946126
0.00171968
0.0113932
0.00937381
0.00496352
0.00833101
0.00796001
0.00501954
0.00214959
0.0098707
0.0050753
0.00329904
0.00363157
0.00550804
0.00625791
0.004953
0.00549444
0.0108449
0.00943167
0.00713034
0.0120819
0.00968264
0.00696957
0.00152294
0.00385706
0.00808283
0.000578366
0.00581672
0.009093
0.0117246
0.0028857
0.00251952
0.00356289
0.0154435
0.00435709
0.00208349
0.00933775
0.000746107
0.012446
0.00764994
0.00686415
0.00462022
0.00644505
0.00621272
0.00684789
0.0127983
0.0120982
0.0040699
0.0116992
0.00671192
0.00524328
0.00766732
0.00964593
0.00542274
0.00107944
0.00570298
0.00433678
0.00956098
0.00656635
0.00159403
0.00401382
0.00148477
0.0123267
0.00445194
0.00330139
0.00505892
0.00951427
0.0047857
0.00287069
8.58213e-05
0.0062176
0.000920068
0.000191156
0.00292011
0.00293744
0.00539136
0.00291248
0.0129249
0.00638134
9.50516e-05
0.00404499
0.000302345
0.00143213
0.00833883
0.000146847
0.00218707
0.0116902
0.000286949
0.00456105
0.00639719
0.000187973
0.0111928
0.00243745
0.00535572
0.00023565
0.00685264
0.00399558
0.00277755
0.00363772
0.00047563
0.00675531
0.00623484
0.000745284
0.00108871
0.00421626
0.0056451
0.00739177
0.00318436
0.00699496
0.000882973
0.00742928
0.000907866
0.00588831
0.000178217
0.00610529
0.00527558
0.00188157
0.0023082
0.0030575
0.000132695
0.000426764
0.00326635
0.00229848
2.53216e-05
0.00380353
0.00446319
0.0079332
0.00138848
0.00116538
0.003522
0.00699849
0.00468139
0.00791061
0.00329999
0.00305661
0.000411031
0.0029157
0.000823653
0.00180128
0.00353677
0.00096228
0.00345783
0.0034855
0.000288731
0.00783716
0.00282457
0.00500057
0.00132308
0.00207738
0.00862814
0.00290412
0.00549687
0.00394257
0.0069166
0.00291068
0.00774491
0.00694248
0.00501715
0.00297806
0.00716052
0.00256204
0.00161826
0.00516315
0.00337224
0.00164794
0.0063013
0.00409304
0.0101243
0.00353667
0.00602785
0.00273388
0.00307758
0.0024166
0.00299852
0.00183949
0.000760709
0.00120136
0.000165199
0.000220209
0.00457911
7.33322e-06
0.0018085
0.00110796
0.00161864
0.00833611
0.000269781
0.00416231
7.86732e-05
0.0115617
0.000520458
0.00724913
0.00105882
0.00810375
0.00849609
0.00293435
0.00374323
0.00185862
0.000154223
0.012337
0.00578563
0.00707382
0.0014068
0.00349751
0.00618892
0.00281543
0.00550912
0.00634826
0.00275599
0.0034337
0.00308038
0.00160735
0.00561555
0.004544
0.00348223
0.00584227
0.00136841
0.00671863
0.0063796
0.00582155
0.000199685
0.00444951
0.00948531
0.00384723
0.00259203
0.00151394
0.00143849
0.0101971
0.00123262
0.000502159
0.00169617
0.00243957
0.00154808
0.000223873
0.00250629
0.000923192
0.00424453
0.00695915
0.00526467
0.0086089
0.00306901
0.00307479
0.00154296
0.00939787
0.00406294
0.00272093
0.00165812
0.00735179
0.00941664
0.00811302
0.00976808
0.00498769
0.00134221
0.00191418
0.00285306
0.00193244
0.00109854
0.0027281
0.00196674
0.00542388
0.0045427
0.00165925
0.00550529
6.98815e-06
5.85475e-05
0.00443397
0.00487586
0.00881744
0.00442822
0.00154877
0.00888047
0.00227553
0.00585894
0.000119819
0.00562013
0.00110449
0.000119467
0.00293974
0.00296684
8.58062e-06
0.000204389
0.00133863
0.0060115
0.0036935
0.00125266
0.00130876
0.000324469
0.00683419
0.00374007
0.00237256
0.0020242
0.00294193
0.00210445
0.00312967
0.000988154
0.00690725
0.0021913
0.00935945
0.00145317
0.00321477
0.00959226
0.00011399
0.000399901
0.00613813
0.00129281
0.00409849
0.00134979
0.00043677
0.00169836
0.000392234
0.00783034
0.00102452
0.00947067
0.00194249
0.000800504
0.000605023
0.00091525
0.00261473
0.00486233
0.0129488
0.00479471
0.0068111
0.00410793
0.00494345
0.00214714
0.00299164
0.00223574
0.012323
0.00213631
0.00153399
0.00507684
0.00339641
0.000105206
0.00520657
0.000937766
0.00254162
0.000207733
0.000702981
0.00461505
0.00951525
0.00532731
0.00465876
0.00264829
0.00109523
0.00943775
0.00446957
0.000187405
0.00120304
0.00473675
0.00375095
0.00884399
0.00588882
0.00219923
0.00387987
0.00593601
0.00104521
0.00295027
0.00262236
0.00851597
0.00155801
0.00274163
0.00619134
0.00701211
0.00695598
0.000482822
0.00657974
0.000589067
0.00594001
0.00140952
0.0043909
0.0101021
0.000692412
0.00518513
0.004409
0.00525708
0.00159728
0.000124703
0.00471762
0.00825196
0.00565923
0.00506933
0.00663611
0.00377464
0.00922268
0.00362557
0.00511435
0.00324579
0.00508973
0.000961228
0.0101028
0.00383452
0.00179436
0.00165989
0.0102615
0.000776393
0.00382714
0.0069631
0.000956112
0.0028202
0.00205093
0.00614655
0.000188657
0.00232556
0.00554907
0.00184922
0.00105448
0.000303747
0.00190736
0.00694501
0.00430633
0.00352684
0.000499886
0.00668965
0.0032998
0.00051863
0.00130294
0.0036508
0.00273576
0.00195579
0.00221526
0.00103149
0.00508086
0.00155436
0.00326
0.00366194
0.00608874
0.00178477
0.000351677
0.00168008
0.0029233
0.00428366
0.00275588
0.00108087
0.00364655
0.00213231
0.00346971
0.000699587
0.00566953
0.00240498
0.00237512
0.00411148
0.00233114
0.00752113
0.00114653
0.00311201
0.00148709
0.00545081
0.00204779
0.00196604
0.00781711
0.00201417
0.00399963
0.0033403
0.00310727
0.00463589
0.00459703
0.00245065
0.00234271
0.000845833
0.00143438
0.00584755
0.00334891
0.00657858
0.00262194
0.00309684
0.00179773
0.00638016
0.0108692
0.00107203
0.000825102
0.00312604
0.00230079
0.00324631
0.00191003
0.0192172
0.00810753
0.000969518
0.00187708
0.007896
0.00780015
0.00181995
0.0010795
0.00510908
0.00239179
0.00264316
0.00183445
0.00161646
0.00373231
0.000172802
0.00162377
0.000101219
0.00105034
0.00960531
0.00748916
0.00947492
0.000637007
0.00151482
0.000748207
0.000701142
0.000768955
0.00521701
0.00151478
0.000309311
0.000743769
0.000686706
0.00623289
0.00119795
0.00390091
0.00104825
0.00676023
0.00130378
0.0038255
0.00132429
0.00735421
0.0116997
0.00574221
0.00150731
0.00679498
0.00498237
0.00841305
0.00456779
0.00284339
0.000716423
0.00183765
0.00256438
0.00880632
0.0053028
0.00230976
0.00258195
0.00685487
3.68249e-05
0.000318882
0.00255894
0.00306372
0.0108766
0.00101586
0.00647291
7.58564e-05
0.00396247
0.00213182
0.00479642
0.00058939
0.00590551
0.00653738
0.000945859
0.00404126
0.000931953
0.00184467
0.0109594
0.00668022
0.00127729
0.0022455
0.00449004
0.00692941
0.000122212
0.00279701
0.000463312
7.77675e-06
0.00128332
0.00624038
0.00161886
0.00477473
0.00306316
0.00406766
0.00233126
0.00190798
0.00267641
0.000662463
0.00152966
0.00329571
0.00188082
0.00118829
0.00183329
0.00022275
8.88679e-05
0.0117992
0.00197693
0.00673893
0.00318534
0.00666821
0.00309304
0.00118926
0.000747741
0.00085129
0.00625214
0.00063022
0.00110493
0.00140695
0.0022025
0.00147441
0.00676041
0.00595694
0.00214836
0.00151243
0.000563239
0.00107265
0.00274303
0.00503855
0.0030582
0.00100742
0.000893974
0.000527184
0.00487972
0.00315948
0.00198264
0.0053703
0.00336247
0.00191559
0.00758625
0.00334568
0.00544496
0.00284477
0.00835688
0.00361435
0.00164451
0.00981567
0.00118295
0.00590572
0.00798035
0.00912915
0.00116035
0.000426438
0.00623434
0.000134229
0.0062147
5.21166e-06
0.00299596
0.00527979
8.6423e-05
0.00424103
0.00160155
0.00101448
0.00177666
0.00620638
0.0121061
0.00244331
0.00109352
0.000364556
0.0072413
0.00211162
0.00477132
0.00382272
0.00465006
0.00167172
0.00631586
0.000487762
0.000249149
0.010153
0.00854029
0.00710561
0.00334824
0.00139974
0.0132161
0.00680921
0.0114793
0.000105844
0.000990458
0.000531865
0.00527932
0.00270486
0.000137208
0.0040256
7.40544e-05
0.00944236
0.00382631
0.00114327
0.00859879
0.00902136
0.00550612
0.00491797
0.000574204
0.00363885
0.0039882
0.00266974
0.00580183
0.000239078
0.00720914
0.00203333
0.00474769
0.000144281
0.000512431
0.00197719
0.00406321
0.00250828
0.00216367
0.00364053
0.000505703
0.000800108
0.00614563
0.00691973
0.00199991
0.00421131
0.015106
0.00548685
0.00538598
0.00148589
0.00187514
0.00119706
0.00221464
0.00474439
0.0056773
0.00217397
0.00165913
0.00268904
0.00567821
0.00405118
0.00332242
0.00924938
0.00298315
1.88024e-05
0.00368332
0.00195043
0.00237199
0.00199752
0.000291254
0.00216987
0.000859509
0.00118196
0.00249945
0.00193545
0.00657369
0.00167131
0.00223176
2.62719e-05
0.00359547
0.00354189
0.00446531
0.00362601
0.00223546
0.000573268
0.00674427
0.00104962
0.00600177
0.0107346
0.000502792
0.000811245
0.00799385
0.00154052
0.000504849
0.00430854
0.00564586
0.00350683
0.000410595
0.000157595
0.000572491
0.00183863
0.0066308
0.00464346
0.00278961
0.00116387
0.00353445
0.00137214
0.000287744
0.000369472
0.00595435
0.00293795
0.00504805
0.000132382
0.00332019
0.00170125
0.00454156
0.00141909
0.00492332
0.000766517
0.00535979
0.00385075
0.00293665
0.00357335
0.000277696
0.000359695
0.00188095
0.00338974
0.00315946
0.00685138
0.00213732
0.00124148
0.00855301
0.00423871
0.000705534
0.00343975
0.00437293
0.00403537
0.00149989
0.00425879
0.000753696
0.00218387
0.00638204
0.00102605
0.00150123
0.00237636
0.00533181
0.00336474
0.00343274
0.00561941
0.00896291
0.0082879
0.00380378
0.00632236
0.00353091
0.00131832
0.00306763
0.00574971
0.00469258
0.00322985
0.00111307
0.000576561
0.00651885
0.00603794
0.00303782
0.00349842
0.00224759
0.00459229
0.0076553
0.0175414
0.0060951
0.00025082
0.000286881
0.000543286
0.00445745
0.00120072
0.00558086
0.000851011
0.00542632
0.00206001
0.00084676
0.00204148
4.07549e-05
0.00349571
0.000914051
0.0069469
0.00106235
0.00566264
0.000358408
0.00554763
0.0104021
0.00785241
0.000579614
0.000874924
0.000847338
0.00324465
0.000870687
0.00211866
0.00243458
0.00425128
0.000729168
0.00584414
0.00432923
0.00630245
9.15386e-05
0.00467143
0.00295889
0.000506876
0.00194687
0.0067295
0.00622684
0.00228807
0.000213849
1.99593e-05
0.00788158
0.00234481
0.00436819
0.000913951
0.00141362
0.00292039
0.00730477
0.00388699
0.00295777
0.00864371
0.000624265
0.00444492
0.00502871
0.00221708
0.00419374
7.05301e-05
0.00204957
0.000673343
0.00101213
0.00304401
0.0016812
0.000104125
0.0004847
0.0025799
0.00263258
0.00201915
0.00579318
0.00123559
0.00389544
0.000525795
0.0016931
0.000366027
0.00158139
0.00320179
0.00463569
0.00019001
0.00648948
0.000119492
0.0021428
0.0014693
0.00550561
0.00156841
0.00309193
0.00227919
0.00151183
0.000343
0.000551152
0.000796275
0.00306807
0.000154666
0.00574767
0.000858238
0.0011314
0.00122042
0.00359986
0.012576
0.00932972
0.00594506
0.00463453
0.0012672
0.00162946
0.00727125
0.0030107
0.00272699
0.000109571
0.00785551
0.000393577
0.000172837
0.00513797
0.00489068
0.00119245
0.00618582
0.0016377
0.000482433
0.011828
0.00395616
0.000191792
0.00266361
0.00439665
0.00336494
0.00110067
0.00730066
0.00195452
0.00248229
0.00360048
0.00263416
0.000151209
0.00430023
0.00194995
0.00251893
0.00498993
0.00353755
0.00671254
0.00380029
0.000928541
0.00558398
0.00884941
0.00897289
0.00765343
0.00254786
0.00799727
0.00201015
0.000562123
0.00373734
0.010034
0.00481333
0.00059297
0.0125366
0.00977282
0.00563224
0.00904535
0.00145136
0.00131611
0.00452678
0.00438827
0.0105154
0.0140347
0.0083203
0.00234881
0.000383691
0.00212838
0.00357756
0.00706854
0.00814102
0.0123474
0.0121576
0.00109867
0.00590921
0.00208524
0.00474941
0.00190501
0.000772585
0.00350774
3.07261e-05
0.00875112
0.0132631
0.00962606
0.00565111
0.00527805
0.0017809
0.000955324
0.00313763
0.00304862
0.000914915
0.00391753
0.00457775
0.00476429
0.00271494
0.00590971
0.000401544
0.00473104
0.00195441
2.1059e-05
0.00309698
0.000730301
0.00811467
0.0087769
0.00613377
0.00093209
0.0052683
4.30567e-05
0.00160385
0.00436811
0.00166892
0.00882965
0.000290607
0.0122314
0.00633722
0.00147901
0.00402754
0.00350776
0.00390272
0.0038345
0.000755168
0.00100527
0.0131326
0.000791677
0.00283455
0.00198043
0.00570783
0.00500477
0.0015432
0.000497127
0.00127566
0.00205471
0.00477015
0.00438285
0.00032145
0.000487664
0.00184756
0.00156982
0.000943396
0.00304056
0.000158815
0.00108845
0.00116458
0.00647382
0.00997239
0.00249254
0.00393051
0.00157645
0.00354009
0.00496952
0.00225171
0.00566802
0.000584729
0.00321955
0.00179077
0.00297874
0.00300845
0.00435786
0.00386426
0.00163816
0.00040798
0.00380021
0.00957676
0.001548
0.00551947
0.000284368
0.00181465
0.00253082
0.00420822
0.00487994
0.00106342
0.00154996
0.00167865
0.001053
0.00125093
0.00200758
0.00141788
0.00317255
0.00366937
0.00398316
0.00310089
0.00182926
0.00192044
0.00080543
0.00157081
0.000521609
0.00483017
0.00404201
0.000109646
0.000313701
0.00190086
0.000132142
0.00407839
0.000603927
0.000239433
0.00096196
0.00219555
0.00724907
0.00293778
0.00331996
0.00164659
0.0070541
0.00611505
0.0136776
0.00943241
0.00696931
0.00881043
0.000409569
0.00906886
0.00885476
0.00504135
0.00268197
0.00372964
0.0119698
0.00577688
0.00333134
0.00329124
0.00843677
0.0023111
0.0028941
0.00547417
0.0101696
0.00826273
0.0141502
4.50043e-05
0.009554
0.0008122
0.00165413
0.001952
0.00475113
0.000237216
0.0131236
6.14764e-05
0.00146502
0.0135254
0.00136609
0.00198584
0.000244594
0.00258354
0.00016745
0.00519078
0.00215126
0.0156656
0.0086385
0.00291828
0.00149477
0.00433361
0.00300771
0.00346902
0.00337828
0.00100096
0.00298535
0.0145149
0.00771618
0.00504116
0.000847683
0.00397078
0.000536596
0.00654687
0.00500902
0.00246918
0.0019087
0.0111183
0.0104967
0.000398074
0.00316577
2.38999e-05
0.0027329
0.00564322
0.00128708
0.0051251
0.00233496
0.0028577
0.00379037
0.00209448
0.00912007
0.00114296
0.00497334
0.00161779
0.0126144
0.00351529
0.00474094
0.00118667
0.0107969
0.00546286
0.00468059
0.00348618
0.00131945
0.003618
0.000230477
0.00177458
0.00777657
0.00201815
0.000632538
0.00119038
0.00302894
0.00716774
0.00358619
0.00297992
0.000301157
0.00578295
0.00576537
0.00399547
0.0100085
0.0112953
0.000176844
0.00178812
0.000107238
0.000276348
0.00227068
0.000879378
0.00584898
0.000378302
0.00392679
0.00507017
0.00619975
0.00568434
0.0078772
0.00151778
0.00845968
0.00443255
0.000317396
0.00570554
0.00195758
0.00145953
0.00320115
0.00203846
0.00193853
0.00114979
0.0045937
0.00105176
0.0045236
0.00897433
0.00186732
0.00612156
0.000498828
0.000278575
0.00513861
0.000706957
0.00818141
0.00286996
0.00813282
0.003496
0.000366938
0.00981786
0.00138648
0.00251564
0.00661168
0.00100428
0.00188162
0.00566806
0.00226011
0.00247846
0.00363517
3.7271e-05
0.0062523
0.00110785
0.00521063
0.00255505
0.00499928
2.69086e-06
0.000270902
0.00593115
0.0130065
0.00925192
0.00470078
0.00422251
0.00449036
0.00741758
0.00132272
0.0101864
0.000814246
0.0086441
0.00792313
0.00944068
9.24489e-06
0.00399047
0.0033566
0.00222463
0.00242505
0.002524
0.012987
0.00478443
0.00337737
0.0008916
0.00419195
0.000923924
0.00613068
0.000154235
0.00251198
0.000185078
0.00713533
0.000154818
0.000139265
0.00509494
0.000298435
0.00449621
0.00241617
0.00139663
0.000252912
0.00685774
0.0012937
0.00928144
0.00567591
0.00609763
0.00687417
0.00621808
0.000491356
0.00136992
0.00117235
0.00134265
0.00249162
0.00495381
0.00857188
0.00597788
0.00917334
0.00610883
0.00284143
0.00239533
0.00453344
0.00524379
0.00482193
0.00466886
0.00959687
0.000856519
0.00879398
0.00102123
0.00279594
0.00553697
0.00234912
0.00392629
0.00582216
0.000627691
0.00513645
0.00171572
0.00540997
0.00169909
0.00229104
0.00101162
0.00575816
0.0037078
0.00314755
0.0047197
0.00862531
0.00919321
0.00244147
0.00374519
0.00240302
0.00260615
0.000377831
0.00440371
0.00501966
0.000364012
0.00454781
0.0026312
0.00732727
0.00359292
0.00402141
0.00190038
0.00425355
0.000449373
0.00289047
0.00880409
0.00354771
0.00686912
0.00654736
0.00239999
0.00387458
0.00274002
0.00138814
0.00361306
0.0110139
0.000203998
0.000620604
0.00572045
0.00163532
0.000891874
0.000509102
0.00388343
0.00510385
0.00834363
0.00401858
0.00632605
0.00179609
0.00958805
0.00612276
0.000594336
0.00448834
5.62891e-05
0.00553625
0.00571971
0.0050224
0.00165102
0.000454789
0.00275378
0.00552426
0.000543749
0.005139
0.0038515
0.0011015
0.000143474
0.00444438
0.00355492
0.000258492
0.0015791
0.00282299
0.00445861
0.0103145
0.00319196
0.00139279
0.00440091
0.00154151
0.00286373
0.00418098
0.00403226
0.00145211
0.0114933
0.00698769
0.00183582
0.00243395
0.00699424
0.0101016
0.00448108
0.0137716
0.00486631
0.00546724
0.00355703
0.00324671
0.00159068
0.00380891
0.00361558
0.00159791
0.00696314
0.00420766
0.00717375
0.00927992
0.00865306
0.000765907
0.0035851
0.00526893
0.00813507
0.012581
0.0152754
0.00798968
0.00403676
0.00162459
0.0023779
0.00678886
0.0024527
0.0022295
0.00679614
0.0126979
0.00521866
0.0155689
0.0011116
0.00789272
0.00488358
0.000124922
0.00204436
0.00318156
0.00749931
0.0122172
0.0101836
0.00774243
0.0140297
0.000305143
0.00405773
0.00151943
0.00094426
0.00514804
0.00129461
0.00939269
0.0024143
0.00150107
0.00468614
0.00646666
0.00758416
0.00115744
0.00516378
0.00842102
0.00316152
0.00261101
0.010981
0.00936092
0.00891504
0.00442272
0.00564316
0.0034636
0.00276789
0.00404184
0.00637477
0.00380986
0.00536385
0.00384036
0.00295893
0.00739576
0.00737586
0.00631018
0.00137503
0.0017773
0.00336794
0.0059046
0.00475724
0.00961727
0.00575436
0.0033233
0.000611983
0.00259491
0.00663133
0.00471436
0.00912547
0.00720092
0.0102987
0.00311801
0.000931994
0.000386514
0.00425717
0.000381507
0.00195615
0.000407038
0.000635636
0.00653723
0.000301755
0.00468701
0.00747497
0.00495834
0.00128979
0.00307125
0.00497555
0.00160949
0.00411002
0.00111042
0.0021239
0.00344228
0.0131075
0.00186074
0.00809564
0.000695327
0.00692271
0.00393786
0.00204658
0.00646466
0.00598383
0.000939883
0.000520251
0.0054644
0.00169369
0.00335474
0.00341422
0.00165848
0.00361685
0.00611468
0.000223628
0.00459565
0.00201956
0.00529703
0.00227005
0.00188403
0.00383208
0.000451087
0.00129503
0.00560631
0.00758564
0.000648718
0.00107343
0.00327982
0.00319347
0.00372649
0.00151868
0.0120457
0.00175987
0.00520915
0.00148357
0.00234672
0.00686958
0.00125863
0.00243337
0.00569566
0.0048461
0.00463943
0.00128179
0.00525777
0.00323724
0.013189
0.00722041
0.00544744
0.00960273
4.24798e-05
0.00102183
0.000969798
0.00576318
0.00451007
0.00990546
0.00517749
0.00265397
0.00864434
0.0074274
0.00541496
0.0056378
0.00182359
0.00402467
0.0124921
0.0112689
0.0146942
0.00119568
0.0110432
0.000752737
0.00655668
0.00214341
0.00637323
0.000235077
0.00591383
0.000532291
0.00046673
0.0037856
0.000607405
0.00237598
0.00033421
0.0025692
8.57965e-05
0.00658097
0.00164049
0.010415
0.0130272
0.00915036
0.00150289
0.00426543
0.000961344
0.00486709
0.00577736
0.00702355
0.000350975
0.00448001
0.001365
0.00137801
0.0107874
0.00262349
0.00113802
0.00490279
0.00408112
0.00718546
0.00287286
0.00382462
0.00653792
0.00735176
0.00292828
0.000242548
4.8422e-05
0.00395662
0.00493292
0.00049477
0.00593831
0.00408586
0.0074061
0.00300128
0.00865917
0.00341363
0.00729679
0.00768075
0.00613927
0.00249821
0.0038567
0.00209127
0.00362838
0.012207
0.000171978
0.00143896
0.00595469
0.000144566
0.00834532
0.0074497
0.00252088
0.00621177
0.0109107
0.0029958
0.00328428
0.00646944
0.00367825
0.00354484
0.00317625
0.00752793
0.000619051
0.0104608
0.00266904
0.00961852
0.00802171
0.00106349
0.00186389
0.0033047
0.000607034
0.00329218
0.00391616
0.000371275
0.000243925
0.0056481
0.000125032
0.00249294
0.00257268
0.000545879
0.0053346
0.00476907
6.34442e-05
0.000520638
0.0085889
8.01906e-05
0.00449197
0.000990693
0.000915216
0.00544744
0.00729613
0.0106016
0.00024276
0.00261829
0.00743683
0.00514597
0.00153036
0.00361095
0.00410503
0.00444351
0.00168747
0.00484598
0.00660117
0.00499092
0.00154095
0.00275297
0.00195672
0.00828486
0.00524735
0.00105454
0.00519499
0.00387224
0.00143289
0.000741955
0.00477953
0.00704506
0.00708791
0.000204476
0.00339302
0.00534113
0.000620957
0.00179111
0.00148888
0.00660903
0.0184681
0.0108855
0.00219984
0.00176671
0.00967573
0.00820152
0.00175477
0.00526975
0.0114204
0.0118944
0.010436
0.00225754
0.00513183
0.000356044
0.00294728
0.00602455
0.00399028
0.0053268
0.00808098
0.0105142
0.00696278
0.0070867
0.0055198
0.00217422
0.00244754
0.00154448
0.00120713
0.00310658
0.00113623
0.00746421
0.00833122
0.00212655
0.012001
0.00246086
0.00353417
0.001308
0.00247802
0.00304201
0.000322568
0.0122729
0.0104848
0.00651051
0.00236739
0.00221952
0.000414408
0.000558269
0.000557249
0.00188614
0.00559268
0.000512107
0.00570523
0.00358587
0.00175111
0.000889502
0.000116192
0.00126968
0.00260184
0.00153443
0.00149831
0.00523493
0.0128521
0.00483947
0.000989197
0.000531268
0.00717726
0.000283467
0.000483458
0.00107531
0.00227274
0.00296093
0.000591511
0.00674444
0.00761806
0.00301004
0.000433755
0.00315482
0.0064066
0.00487311
0.00333172
0.00584881
0.00251244
0.00144648
0.00160211
0.00148823
0.00296868
0.00127411
0.000979226
0.000322381
0.00156656
0.00248109
0.00322242
0.00514515
0.00070199
0.00314396
0.00307543
0.00397539
0.00599786
0.00224549
0.00285456
0.00582453
0.00839986
0.00412347
0.00949627
0.00806718
0.000793726
0.00116383
0.00168596
0.000304369
0.00038051
0.00362555
0.0025291
0.0070241
0.0114355
0.00581981
0.00461058
0.00412839
0.0141957
0.000192534
0.000720731
0.00246518
0.00129616
0.00171108
0.00532281
0.00243452
0.00454298
0.00559241
0.00819363
0.00438431
0.00665696
0.00176411
0.00591037
0.00388491
0.000144255
0.00693292
0.00560442
0.00629996
0.00130803
0.000866827
0.00110027
0.00127471
0.00923782
0.000460855
0.00321597
0.00678002
0.0053558
0.00368435
0.000868026
8.56542e-05
0.00802766
0.00205497
0.00435735
0.00414655
0.00226098
0.000232732
0.00375317
0.00872148
0.00454285
0.00329465
0.0113667
0.00516491
0.0123227
0.0104968
0.0100678
0.00201111
0.00387196
0.00478169
3.78357e-05
0.00326602
0.00267987
0.00358706
0.00336325
0.0019741
0.00430177
0.0020224
0.00221118
0.00610834
0.00162696
0.00294546
0.00487523
0.00821901
0.0076325
0.00112703
0.00581876
0.00101209
0.0041731
0.000333275
0.00407178
0.00309982
0.00518177
0.000275371
0.000749231
0.00123047
0.000695625
0.00357345
0.00074956
0.00102639
0.00131907
9.83066e-05
0.000516125
0.0107387
0.0104649
0.00638214
0.000450837
0.00267203
0.00404967
0.00455573
0.00305372
0.00346999
0.00277224
0.00291002
0.00214908
0.00481071
0.00239936
0.00209865
0.00153729
0.00277896
0.0026389
0.00354765
0.00555938
0.00292843
0.00314717
0.00323572
0.00516926
0.00558682
0.000849997
0.00328245
0.0103695
0.00419132
0.00258726
0.00253554
0.000900133
0.00257717
0.000886144
0.00563293
0.00424979
0.000266273
0.0037313
0.000555352
0.00166236
0.00760243
0.0096152
0.00119552
0.00160712
0.00136104
0.00260903
0.00157575
0.00105069
0.00125634
0.00254205
0.00180781
0.0023427
0.00545255
8.59817e-05
0.00372953
0.00169044
0.00351567
0.00935893
0.00159941
0.0107753
0.00112411
0.00458833
0.000841455
0.00440005
0.00163744
0.0014168
0.0049988
0.00259401
0.00555954
0.00692047
0.00629502
0.00362261
0.00349395
0.000967508
0.000803474
0.00584624
0.00256696
0.00382788
0.000839015
0.00552912
0.000530156
0.00276985
0.00333097
0.000828825
0.00177421
0.00857864
0.00158214
0.00412375
0.00290215
0.00461895
0.00170731
0.00202016
0.000457048
0.00534625
0.00143508
0.0032618
0.00571553
0.00517001
0.00552931
0.00149488
0.00236675
0.00107278
0.00661892
0.00179136
0.00711204
0.00132992
0.00526091
0.00399605
0.00836298
0.00201945
0.00140394
0.00284524
0.000541753
0.00107662
0.00420144
0.0111931
0.000787789
0.000708594
0.00238818
0.001339
0.0106222
0.00290315
0.00598946
0.00308029
0.0036744
0.00527653
0.00387248
0.00181064
0.0034342
0.0011768
0.00261023
0.000161745
0.000265294
0.00527739
0.00419563
0.00168303
0.00339143
0.00354337
0.00528105
0.00781717
0.0140881
0.00383967
0.00175359
0.00171279
0.00629477
0.00172546
0.00205982
0.00471225
0.000108388
0.00039292
0.000823419
0.00734555
0.000889279
0.0034263
0.00432735
0.00437052
0.00248837
0.00397701
6.29628e-05
0.00496206
0.00308688
0.0135397
0.0131488
0.00154311
0.00390866
0.000759432
0.000268675
0.00196586
0.00187416
0.00268194
0.000158443
0.0065986
0.00879281
0.00641851
0.00161099
0.00304691
0.00284864
0.00123971
0.00486273
0.000329084
0.00145958
0.00279135
0.00236262
0.00459908
0.00346065
0.00178427
0.00301077
0.00205592
0.00604197
0.00174225
0.00303953
0.000919467
0.000734264
0.00383336
0.00430958
0.00436343
0.000104708
0.00590481
0.00205672
0.0052518
0.00453491
0.0010515
0.00759543
0.00044577
0.00608633
0.00814205
0.000522595
0.0011118
0.00362119
0.00160527
0.00831209
0.000760451
0.00767533
0.0031094
0.00750085
0.00421993
0.00491596
0.00927587
0.00123496
0.00261252
0.00866064
2.93582e-05
0.0038571
0.000504196
0.000966288
0.0103738
0.00101394
0.00234391
0.0014744
0.00451389
0.00585672
0.000550904
0.00201833
0.00207265
0.00390415
0.00329722
0.00226551
0.00248001
0.00327034
0.0026005
0.00122424
0.00243946
0.00216209
0.0028245
0.000945953
9.0399e-05
0.00447985
3.76974e-06
0.00423093
0.00193638
0.00137966
0.00456279
0.00265043
0.00576282
0.00552009
0.00631458
0.00295906
0.00643987
0.000937259
0.000533035
0.00129531
0.00621654
0.00246294
0.00327703
0.00352111
0.00653897
0.00363154
0.00395455
0.00283186
0.00614353
0.00140952
0.00167878
0.000779167
0.00427143
0.00107311
0.00538235
0.00839789
0.00384716
0.00989539
0.00536675
0.000500618
0.00748571
0.00048782
0.00474349
0.000209693
0.000966386
0.00590462
0.00863381
0.00220772
0.00898989
0.000470979
0.000295397
0.00136511
0.00173935
0.00217227
0.00198741
0.00298931
0.00399888
0.00307865
0.0019058
0.00663574
0.00513635
0.000307114
0.00251005
9.83592e-05
0.0036176
0.00136042
0.00338526
0.00101969
0.00865737
0.000434611
0.000205821
0.00333568
0.000996626
0.00854994
0.000524095
0.00331168
0.00197146
0.000327367
0.000663472
0.00494999
0.00206096
0.00316793
0.00096694
0.0051027
0.000525427
0.00608579
0.00336526
0.0068486
0.00656502
0.0016312
0.00249978
0.0052456
0.00338964
0.00126841
0.000552926
0.00278346
0.00791263
0.000517191
0.000262588
0.00439656
0.0104777
0.0029392
0.00133801
0.00330568
0.00183239
0.0037172
0.00116669
0.00296032
0.0012114
0.0054864
0.00189996
0.000566413
0.003798
0.00522094
0.00128802
0.00284311
0.000856349
0.00413776
0.00437692
0.00275705
0.00790879
0.000311366
0.00291198
0.00454368
0.00440572
0.00506065