/*--------------------------------*- C++ -*----------------------------------*\
| =========                 |                                                 |
| \\      /  F ield         | OpenFOAM: The Open Source CFD Toolbox           |
|  \\    /   O peration     | Version:  2212                                  |
|   \\  /    A nd           | Website:  www.openfoam.com                      |
|    \\/     M anipulation  |                                                 |
\*---------------------------------------------------------------------------*/
FoamFile
{
    version     2.0;
    format      ascii;
    arch        "LSB;label=32;scalar=64";
    class       volScalarField;
    location    "0";
    object      stateMean;
}
// * * * * * * * * * * * * * * * * * * * * * * * * * * * * * * * * * * * * * //

dimensions      [0 0 0 1 0 0 0];

internalField   nonuniform List<scalar> 
3200
(
343.636
342.978
343.888
343.158
341.857
343.353
345.599
342.703
346.056
343.975
344.796
346.019
344.419
342.544
341.978
341.586
342.388
341.393
344.249
343.46
341.984
339.554
336.353
336.095
334.075
336.214
338.118
336.033
339.866
338.561
338.63
337.906
339.152
336.995
335.138
337.236
336.362
337.033
335.631
336.906
333.717
332.974
332.31
329.327
330.258
329.651
331.67
331.242
330.971
331.856
331.526
333.991
333.086
332.556
332.19
328.16
328.955
330.386
332.543
332.737
327.885
324.972
323.512
327.776
324.997
326.08
326.562
328.703
327.475
327.241
326.43
326.299
327.364
329.379
324.208
325.29
329.16
327.8
327.472
326.075
321.012
320.661
319.658
321.012
317.281
320.768
321.019
319.919
320.222
321.708
320.726
320.467
321.06
321.199
322.042
317.564
319.61
321.349
319.735
319.658
315.901
312.58
315.222
314.733
316.313
317.031
315.473
315.302
314.859
314.385
315.505
315.083
314.497
314.881
315.413
314.314
316.512
313.469
312.215
315.926
308.501
309.656
307.997
307.119
311.784
306.416
310.678
308.612
308.272
309.493
309.805
308.766
308.467
309.734
309.825
307.605
307.034
309.894
308.28
311.651
303.48
303.513
303.418
303.477
302.101
301.127
304.103
303.85
302.531
304.621
302.098
303.43
300.384
303.614
302.614
302.992
301.773
304.236
302.433
304.294
345.277
344.551
342.91
343.426
340.864
343.682
345.884
345.13
341.822
347.069
343.391
344.283
345.87
344.242
342.953
343.887
341.495
342.526
343.653
342.438
338.655
337.813
337.743
339.126
335.617
340.247
339.177
341.884
339.981
342.236
341.703
337.533
341.142
337.469
340.43
335.902
339.043
334.111
338.559
336.964
332.458
333.41
330.833
330.38
330.233
332.902
330.654
332.705
330.582
333.375
330.105
333.379
328.297
329.517
331.75
330.997
330.712
329.36
329.841
333.601
326.461
326.422
325.794
324.859
325.755
323.682
327.404
327.849
325.403
327.144
328.269
326.253
325.346
327.956
325.201
325.564
325.631
325.995
327.445
326.097
320.716
321.537
319.787
319.687
322.244
322.127
320.117
321.987
320.551
319.62
320.154
321.476
321.987
321.445
318.24
319.505
318.656
321.313
322.863
320.904
314.625
315.05
313.904
314.423
311.316
312.452
314.992
313.628
315.276
315.986
313.986
313.004
313.982
315.23
313.807
314.876
316.853
314.249
312.629
314.888
308.162
308.207
309.678
308.311
308.469
307.47
307.383
308.915
308.097
308.626
310.462
309.151
306.578
309.1
309.015
308.049
305.678
309.954
307.926
309.779
302.86
302.306
304.73
304.404
303.389
304.326
303.518
302.121
303.437
303.282
301.687
302.767
301.113
302.037
303.017
303.315
302.841
304.189
303.686
303.848
344.171
344.843
342.114
342.875
344.829
345.714
345.486
344.726
347.81
344.643
345.347
346.68
345.12
344.715
345.103
346.896
342.034
343.006
342.988
342.379
339.771
340.448
337.198
337.607
336.396
337.47
338.801
337.57
338.724
339.829
341.693
340.717
338.936
341.431
338.701
336.992
335.492
337.898
337.479
339.114
337.282
333.949
333.654
330.349
334.23
330.324
332.39
333.042
334.078
333.615
333.693
333.331
331.052
330.9
333.126
330.074
331.225
334.706
329.951
335.356
328.128
326.286
325.149
326.005
324.713
326.106
328.118
327.642
329.683
325.258
327.851
328.107
327.298
325.515
326.69
326.907
327.453
324.981
326.338
326.42
321.472
321.693
319.311
320.426
317.532
319.957
322.276
321.251
322.638
322.369
320.139
322.689
321.851
318.539
321.92
323.157
319.306
320.982
317.161
321.317
316.376
314.77
317.21
314.019
316.39
316.893
315.805
313.996
314.289
316.565
315.985
317.594
314.347
313.62
314.739
313.307
315.001
312.71
314.558
316.544
308.886
307.036
307.416
309.765
310.038
310.408
309.548
309.827
308.76
310.525
309.805
308.594
308.313
307.133
309.032
308.964
308.094
306.883
307.476
306.388
303.961
302.066
303.158
302.195
303.377
303.719
304.287
302.959
304.326
304.347
303.378
300.9
302.394
304.731
302.772
303.757
300.464
302.153
304.658
301.767
346.466
343.568
342.515
343.457
344.805
346.18
345.339
347.456
348.16
347.12
347.745
348.149
346.153
346.406
343.699
345.318
343.773
344.244
343.511
344.918
339.323
339.343
338.994
339.423
340.481
340.93
339.973
341.988
342.929
342.102
341.927
339.456
342.077
340.115
341.032
336.489
339.654
336.793
339.079
341.051
335.315
333.807
334.527
334.388
334.218
330.63
333.271
333.214
336.334
334.831
333.926
336.808
333.739
333.082
335.683
333.122
332.74
332.743
334.699
334.001
327.772
328.819
326.827
325.473
325.992
326.574
328.787
327.697
326.261
328.235
328.649
328.886
329.635
325.5
328.081
328.25
327.119
326.477
327.415
326.562
319.947
321.258
322.609
319.318
320.18
319.413
321.482
321.72
323.384
319.942
324.289
322.007
323.247
320.101
319.153
319.264
318.415
319.643
321.393
320.137
315.744
315.604
314.851
314.559
315.025
314.156
314.637
315.719
314.626
316.435
316.452
314.965
314.702
313.286
317.268
316.135
312.618
315.914
316.841
314.808
307.188
308.672
309.097
308.358
310.322
309.54
309.597
310.177
307.974
311.021
309.488
310.243
309.863
311.776
310.695
308.67
308.641
310.043
309.663
307.957
302.693
305.115
303.727
305.944
302.712
302.223
300.33
303.308
303.177
301.449
303.703
302.055
302.864
303.371
302.683
303.272
300.734
303.373
305.892
303.581
344.978
345.381
346.084
345.508
345.386
343.213
346.634
346.422
347.722
347.617
350.094
350.201
349.578
344.012
346.973
346.542
344.655
346.942
345.136
346.497
339.161
340.103
339.685
340.075
339.312
338.192
340.128
340.782
341.778
342.474
339.613
344.218
342.441
341.539
339.824
339.606
337.304
337.755
339.987
340.158
334.918
333.62
332.721
333.302
331.811
334.609
336.481
333.841
333.825
338.658
336.157
333.97
335.723
333.568
335.603
333.192
330.802
333.937
331.544
334.41
328.725
327.794
327.666
326.464
325.695
330.65
330.81
327.249
328.404
332.801
330.956
327.962
328.366
327.466
328.473
325.087
329.269
327.037
327.814
330.362
320.791
322.473
319.279
321.51
321.217
321.762
320.713
322.864
322.34
321.385
322.58
322.75
323.023
322.081
320.184
320.738
322.953
321.679
319.095
319.981
315.215
315.607
314.241
314.743
316.443
315.338
316.559
314.788
316.023
315.545
315.418
318.442
316.961
316.122
316.569
314.902
314.254
316.261
315.537
316.201
309.707
308.061
309.035
311.134
310.255
310.374
308.482
309.132
312.256
309.608
308.998
309.464
308.165
309.122
310.248
311.93
308.757
310.488
308.101
308.088
304.439
304.456
303.845
302.435
303.445
302.797
301.498
302.288
301.333
304.135
304.279
302.783
305.239
299.975
302.907
302.939
304.093
303.799
304.047
303.613
352.113
348.732
346.835
346.465
344.999
345.638
349.547
349.001
351.501
349.054
350.816
350.356
349.943
347.61
348.415
347.18
347.082
346.863
349.25
348.061
342.731
340.114
339.875
341.18
341.708
342.26
340.692
342.363
343.067
343.071
343.09
341.034
343.293
341.143
341.639
339.161
340.481
341.693
339.447
342.011
337.413
335.745
334.748
332.422
333.486
332.779
334.474
335.393
336.354
336.105
337.587
339.559
334.565
336.785
334.735
332.859
334.684
334.351
332.974
334.533
331.033
328.06
330.19
328.46
327.509
328.474
327.929
329.981
328.039
332.251
330.405
328.654
329.48
328.901
325.568
326.615
328.015
327.329
329.199
329.74
321.442
320.699
322.011
322.152
322.855
320.711
322.461
321.656
322.365
322.121
324.191
323.972
322.334
323.198
322.231
321.378
321.543
321.48
321.009
321.475
315.283
319.172
316.262
313.715
317.059
314.145
315.46
316.97
316.467
317.033
318.743
316.904
316.243
315.994
316.951
316.518
317.978
313.758
314.772
315.788
309.378
308.954
308.55
307.962
308.7
309.457
309.603
309.809
308.526
309.094
310.689
308.374
308.93
309.286
307.419
310.683
307.837
310.279
311.871
310.322
302.588
300.139
302.793
301.402
300.815
306.045
302.961
303.473
301.475
303.419
301.493
303.364
304.253
304.914
303.302
301.949
302.707
302.844
303.653
301.205
350.601
347.686
347.765
347.844
346.041
348.402
347.993
351.434
352.039
351.16
352.788
350.581
350.183
353.211
352.121
346.088
349.136
347.871
351.423
348.766
344.23
340.725
341.498
341.485
340.375
341.751
343.177
342.124
343.753
347.167
345.236
343.385
346.461
346.225
344.565
340.498
341.863
339.919
342.048
341.232
336.135
334.42
332.483
336.007
334.166
336.131
336.39
336.214
335.739
338.075
336.499
338.336
337.05
336.831
334.114
338.083
334.654
333.487
339.553
336.03
329.8
328.765
329.217
329.345
328.578
328.086
328.089
329.504
330.957
331.397
332.385
331.748
331.319
333.014
330.633
329.301
327.739
327.96
329.056
327.378
321.934
322.727
322.001
322.17
322.02
323.719
325.463
324.08
322.962
323.77
322.597
322.538
324.984
324.509
322.372
322.642
320.376
322.616
323.961
325.295
315.465
316.013
318.462
315.643
316.168
317.882
318.48
315.725
317.07
317.044
317.175
317.523
318.937
318.163
315.635
315.96
315.013
315.502
315.848
315.507
311.233
308.562
311.141
309.654
308.784
309.401
311.44
309.679
308.654
310.452
311.877
311.375
311.03
311.14
310.014
309.924
309.112
310.627
310.449
311.511
303.797
303.552
305.805
304.536
303.505
302.286
302.037
302.169
303.869
304.717
303.654
302.751
301.457
303.675
303.784
302.57
301.634
304.232
304.217
304.853
350.616
350.795
349.753
351.186
348.304
349.612
351.634
352.98
352.9
352.539
351.795
351.049
353.25
352.676
349.011
350.761
349.764
350.028
350.575
353.597
343.353
341.707
342.164
342.73
341.498
343.903
345.83
344.553
346.38
343.932
344.934
345.214
344.274
345.113
343.177
345.41
342.18
344.003
341.499
343.166
338.486
337.923
335.86
335.775
336.762
335.777
337.519
336.805
338.553
339.278
338.088
339.705
338.981
335.1
336.839
334.905
335.075
335.835
334.637
337.255
330.739
328.171
329.301
329.554
327.295
329.442
329.062
330.445
331.388
330.044
333.429
332.206
331.725
333.363
330.01
328.429
331.218
329.961
330.303
328.715
323.014
322.749
322.442
322.043
322.741
323.569
323.918
323.112
323.229
323.498
322.275
323.682
325.21
323.591
322.987
323.167
323.537
323.802
324.027
322.414
318.042
316.079
315.608
316.005
314.912
317.331
317.975
317.851
316.745
317.166
317.1
316.972
316.155
317.044
318.655
316.927
316.828
316.672
317.255
312.017
312.501
307.846
311.225
309.506
309.505
312.372
311.148
311.141
310.318
307.944
310.26
310.298
311.889
311.731
309.747
311.928
310.407
309.64
313.35
310.837
303.165
304.056
301.949
304.34
303.691
301.177
304.018
302.699
304.564
304.28
303.435
304.776
302.86
304.189
304.906
302.284
301.283
304.435
303.53
304.916
351.845
352.28
352.309
351.042
353.473
351.872
351.813
353.3
355.785
354.086
352.599
356.667
355.425
353.595
354.342
350.16
350.611
348.05
350.679
352.426
347.17
345.545
342.307
343.693
344.742
345.673
347.266
347.959
349.644
349.7
345.88
347.42
344.429
346.467
345.097
343.744
344.766
343.124
345.693
346.906
339.161
338.099
338.328
337.531
336.989
336.616
339.033
337.965
339.795
337.02
340.183
339.388
340.273
337.867
339.273
336.652
336.938
337.594
336.445
338.653
332.343
331.692
330.266
332.007
330.592
331.407
329.698
331.919
334.452
331.512
335.664
333.626
331.856
332.478
332.037
329.288
329.001
329.709
329.339
333.778
323.2
324.028
323.976
325.423
325.439
324.55
324.097
324.016
325.221
326.166
326.041
324.45
324.272
324.857
323.541
324.123
324.56
323.285
323.464
322.568
318.461
319.689
317.481
318.109
317.536
316.079
315.774
316.759
319.362
317.794
316.585
316.993
318.42
318.306
318.584
318.261
316.345
316.563
317.735
319.443
310.346
311.648
309.945
309.573
311.024
311.645
311.943
310.832
311.036
310.062
310.256
310.943
309.879
310.868
309.354
309.101
308.901
310.994
309.37
309.271
303.552
303.808
303.206
304.864
302.207
303.434
303.402
304.098
303.499
302.31
303.365
303.612
303.229
302.831
301.267
304.324
304.406
303.864
305.472
305.163
354.974
353.856
353.45
354.582
352.11
355.62
355.959
354.953
354.363
354.86
357.773
355.457
354.35
353.996
355.397
352.779
352.502
352.925
354.114
353.077
348.464
343.896
347.592
345
345.708
344.859
347.532
346.264
350.938
346.522
347.009
351.077
346.655
346.576
345.448
344.245
344.662
346.09
344.651
348.985
339.886
338.215
338.067
336.45
337.249
337.427
337.758
338.812
340.341
344.347
342.039
341.039
339.438
340.249
338.784
340.481
339.607
336.728
337.875
340.722
333.776
330.647
329.738
331.081
332.267
333.507
331.455
333.787
333.005
331.355
333.565
332.925
335.114
332.261
333.285
331.897
335.249
331.948
332.082
330.701
327.106
325.54
325.496
325.334
324.856
325.816
324.908
324.413
327.631
325.818
325.368
325.49
325.974
322.505
325.805
325.395
324.106
322.106
325.638
324.905
320.063
320.584
317.208
317.879
317.439
317.713
318.484
318.154
319.815
317.877
319.246
319.567
319.845
319.568
320.127
317.955
319.996
318.558
317.104
318.699
310.76
310.673
309.316
311.039
311.104
310.95
309.248
310.416
312.197
313.605
311.396
312.694
310.898
310.762
312.189
310.282
312.946
309.418
312.743
311.237
303.294
300.448
303.878
302.726
305.528
303.247
304.151
301.881
304.304
302.874
302.523
303.607
301.704
303.244
301.97
304.297
301.972
303.456
303.509
305.205
356.353
355.377
354.2
354.478
355.018
356.476
354.695
358.144
355.041
357.933
357.678
358.101
354.536
355.64
355.039
352.645
353.844
353.433
356.692
353.461
346.151
344.967
347.089
345.706
348.534
346.826
347.97
347.428
350.034
347.707
347.701
349.325
347.26
348.659
347.611
345.926
345.938
348.01
344.828
348.188
340.067
340.45
341.023
341.129
339.179
339.189
339.529
340.61
341.162
342.083
343.315
342.348
343.273
342.005
340.619
340.159
337.484
340.471
340.019
339.727
334.449
331.747
334.631
332.32
333.175
334.339
333.504
334.214
334.977
333.315
334.817
333.609
334.708
333.287
333.26
332.582
330.069
332.944
332.506
332.833
327.158
327.491
325.496
326.128
325.898
324.465
325.365
324.197
327.368
325.905
327.268
324.876
328.017
326.657
324.005
325.735
326.293
324.557
325.446
327.216
318.552
319.712
319.75
318.581
319.198
317.234
318.672
319.483
321.913
318.508
318.641
320.227
318.854
317.946
317.944
316.731
319.44
320.321
318.807
319.434
309.917
313.514
312.522
310.894
309.403
310.865
309.235
312.797
309.5
311.599
311.226
310.205
309.3
310.788
312.48
309.601
310.367
310.665
309.157
311.579
303.434
304.012
302.704
302.237
300.489
304.618
304.097
305.032
304.177
304.587
304.987
304.934
304.136
307.164
305.771
304.178
302.852
305.684
300.467
304.872
358.412
355.583
356.19
355.926
356.223
356.018
357.148
357.358
356.837
358.852
357.87
358.824
359.375
358.872
355.725
356.343
356.533
357.135
358.313
358.944
349.287
348.187
347.689
348.307
350.195
349.019
347.683
351.071
353.302
350.781
354.393
348.484
351.453
350.162
348.122
347.123
348.587
349.728
351.024
350.047
342.074
344.434
339.85
338.874
341.07
341.156
342.839
341.729
344.638
342.33
342.019
343.031
343.494
343.67
340.44
342.312
343.12
338.879
340.556
343.173
335.444
335.477
331.273
331.113
334.389
332.542
332.32
335.964
335.226
335.807
335.298
334.942
336.305
336.13
335.569
333.693
333.584
333.866
330.55
333.914
328.316
327.198
326.589
325.897
325.042
323.905
327.763
329.333
328.798
329.856
327.512
326.751
326.229
327.614
326.191
326.525
325.565
325.3
327.453
325.091
319.51
320.494
319.823
317.97
317.539
320.23
318.245
317.541
318.562
319.627
320.048
323.096
319.444
321.339
318.423
320.722
317.127
318.896
320.173
319.922
311.123
311.051
312.665
310.521
312.173
312.269
310.758
312.456
313.273
311.32
312.821
311.998
312.979
310.567
310.62
312.321
310.908
311.369
312.632
313.189
303.435
303.977
302.681
302.735
302.6
303.297
307.439
304.334
302.229
304.27
304.532
305.899
303.417
304.519
302.028
302.26
302.296
304.066
302.054
304.615
360.168
358.343
358.077
359.938
356.87
357.598
357.888
359.853
359.582
361.607
359.914
358.918
360.884
360.197
359.167
358.897
357.164
357.57
360.218
359.486
353.316
348.866
352.612
348.825
351.701
348.962
352.208
350.277
352.42
350.241
350.592
351.674
350.408
350.81
349.829
350.308
349.118
351.056
347.877
351.825
345.311
344.198
341.854
343.074
341.56
343.81
344.348
344.96
342.563
344.287
343.219
343.155
346.249
343.268
342.534
340.213
343.011
343.794
342.057
342.174
335.681
336.12
334.86
334.027
334.347
333.216
336.375
335.04
336.969
336.404
337.516
335.985
337.774
335.867
336.981
336.899
336.159
333.048
334.954
334.198
327.28
330.207
326.336
327.038
328.687
326.856
329.776
329.601
328.071
329.322
330.86
328.226
326.09
329.163
325.701
327.899
327.605
328.849
326.427
329.508
317.817
321.825
321.436
318.664
318.532
320.298
319.54
318.377
318.237
319.4
319.441
321.292
319.389
320.142
320.064
319.301
320.705
320.399
318.779
318.502
313.894
311.3
312.745
311.731
311.211
313.263
313.901
308.374
311.789
312.547
314.049
313.317
312.155
310.502
310.287
310.112
310.896
309.837
313.33
312.774
303.295
304.617
304.399
301.313
305.449
304.198
302.32
302.739
303.493
304.16
305.387
306.069
306.07
303.837
302.847
302.232
303.641
304.349
304.233
301.755
364.193
361.757
358.983
357.907
362.35
362.139
360.102
361.591
363.964
364.217
363.692
360.666
361.541
359.599
360.252
361.04
359.971
360.103
360.753
361.349
352.467
352.742
352.483
351.611
352
351.957
351.23
350.756
351.586
354.685
354.99
351.237
356.072
352.519
350.172
351.6
351.717
351.614
350.373
354.326
346.011
344.843
343.667
343.87
343.214
343.779
343.983
343.307
345.996
343.956
346.095
345.306
344.558
343.485
343.627
343.792
344.001
343.381
343.125
344.214
339.074
336.546
335.454
335.508
337.941
335.627
335.726
336.384
336.882
337.162
335.968
338.385
338.583
336.899
335.576
336.592
337.478
336.755
336.041
336.729
327.908
327.677
327.882
328.006
326.704
328.242
328.275
327.953
328.647
327.357
329.229
329.821
327.829
328.985
328.832
328.98
325.555
326.623
328.138
328.991
322.059
320.776
322.604
322.263
320.05
319.53
319.455
319.972
320.244
318.989
319.34
322.371
323.729
318.132
321.377
318.476
324.222
319.631
319.689
320.163
312.05
311.163
313.42
312.59
310.481
313.707
309.46
310.694
310.016
312.661
310.265
310.882
312.017
314.18
313.71
309.933
311.423
312.031
312.039
311.249
306.712
304.062
304.921
306.028
302.362
302.891
304.294
304.071
301.614
304.686
302.736
302.794
303.358
304.101
302.87
306.641
302.586
302.943
300.467
305.475
364.301
363.898
364.053
361.465
362.445
359.603
361.595
362.964
360.954
363.296
363.214
362.638
363.338
360.85
362.13
363.252
361.327
361.486
361.874
362.824
354.693
352.616
354.534
352.4
351.55
353.388
354.925
352.564
355.616
353.75
354.112
354.218
353.906
352.223
353.535
352.661
352.292
352.518
352.037
355.786
347.696
346.469
344.339
343.805
343.554
346.732
344.288
344.292
344.637
346.654
346.391
347.258
344.662
344.618
344.629
345.91
345.636
345.716
346.186
345.103
337.2
337.372
338.204
338.535
336.553
335.904
340.656
338.695
336.493
336.554
337.106
338.235
337.58
335.261
338.442
336.929
337.91
336.652
336.843
338.697
331.308
327.87
328.931
328.103
329.552
328.309
328.598
328.625
329.941
329.733
329.909
330.898
329.066
330.171
329.383
327.538
331.625
328.928
331.799
328.522
321.607
319.947
321.725
319.896
320.07
319.016
319.87
322.552
323.037
318.821
322.003
319.696
320.459
320.96
322.493
321.347
319.194
320.585
321.987
319.968
312.968
313.19
312.47
312.828
309.656
311.899
311.155
313.39
311.068
311.992
313.157
312.368
314.154
312.891
311.374
310.55
313.888
310.485
311.683
312.843
304.385
302.061
303.549
306.279
303.732
305.755
302.957
306.73
303.581
303.773
305.066
304.36
304.513
302.894
300.751
304.376
303.901
303.368
303.667
307.289
363.355
364.706
363.933
364.437
361.464
362.23
364.521
365.292
364.598
365.185
364.175
364.266
365.963
362.335
364.25
362.149
361.816
360.899
365.369
367.407
355.479
354.936
353.95
352.573
354.435
354.538
353.79
355.582
355.59
356.08
358.4
355.414
356.839
353.927
353.717
354.165
353.395
354.579
356.073
355.212
350.566
350.596
346.784
347.815
346.928
346.761
346.336
346.5
346.312
347.346
349.583
350.296
344.923
346.459
345.797
345.677
346.891
347.934
345.932
345.378
338.547
338.534
336.348
339.245
338.846
337.378
337.835
336.594
338.125
339.785
339.066
338.964
339.938
337.072
339.874
338.277
336.079
337.207
339.51
339.136
328.946
331.894
329.374
331.662
327.101
330.078
329.644
331.29
329.624
327.44
330.436
327.62
329.069
332.486
328.514
328.165
332.714
329.114
328.531
332.144
320.961
322.261
320.953
320.901
317.971
321.716
322.218
321.051
323.019
323.472
321.412
320.918
320.859
322.72
320.33
320.576
322.008
320.065
320.188
320.559
313.356
313.311
311.808
313.044
312.832
314.258
312.902
314.261
312.356
313.407
314.403
312.133
311.134
314.628
314.832
311.878
314.762
312.984
312.802
312.998
302.332
303.488
305.252
303.204
302.303
305.416
305.529
303.476
306.216
304.78
303.84
304.109
303.038
303.999
305.949
306.848
303.104
301.244
305.87
304.071
367.603
365.263
367.075
365.681
366.21
363.926
363.127
367.26
363.268
366.794
366.729
367.063
367.088
365.493
365.36
364.762
364.142
364.217
364.389
367.293
358.172
356.413
355.849
357.006
355.898
357.877
356.356
357.34
354.705
357.698
357.78
356.609
357.349
354.509
357.578
356.007
356.267
356.627
356.285
358.106
348.479
349.013
348.435
350.067
348.293
350.768
347.62
346.522
346.704
349.607
349.911
347.164
350.095
348.352
348.453
347.506
345.534
347.918
348.002
349.291
342.693
338.263
338.959
338.447
339.099
338.598
339.586
341.087
339.735
338.316
339.536
339.954
338.788
341.758
339.423
340.688
339.279
340.817
337.775
340.075
333.099
330.474
329.732
332.321
332.394
332.72
331.324
328.594
331.115
329.659
331.39
329.015
330.788
328.014
331.797
332.479
331.042
330.15
332.688
329.145
323.826
322.433
320.2
321.497
319.396
320.745
320.107
320.837
323.372
320.527
322.185
323.605
322.966
319.708
320.431
321.707
320.084
321.236
322.177
324.182
312.969
314.818
313.976
311.698
313.305
312.624
311.33
313.035
313.622
313.317
314.547
312.965
311.283
315.009
312.919
311.944
312.478
311.549
315.625
312.673
301.146
304.503
305.454
303.619
303.338
303.936
304.361
303.934
303.789
303.936
304.051
304.423
304.498
305.39
302.702
304.06
303.874
304.94
304.132
305.54
370.326
366.753
366.797
363.199
366.621
366.951
366.972
364.8
365.82
367.147
366.921
366.351
365.41
364.136
366.865
366.798
365.719
369.809
365.702
369.089
360.095
359.293
358.538
356.082
359.304
356.894
358.374
357.265
357.75
356.739
356.699
358.147
356.466
355.443
357.018
357.059
358.12
357.759
357.293
358.215
350.438
348.159
348.028
349.559
346.697
352.387
348.981
350.927
349.248
348.566
349.081
347.026
348.002
348.02
349.622
348.35
346.233
350.098
346.248
349.773
342.447
341.086
340.139
338.412
341.394
339.463
339.5
342.443
341.546
338.475
343.357
341.161
339.995
340.14
341.783
339.408
338.958
339.028
342.023
343.021
331.361
330.787
331.835
329.663
332.316
330.67
332.772
328.867
330.42
330.889
331.636
329.747
328.65
333.06
331.755
330.811
332.327
332.783
333.217
332.214
325.285
322.095
321.997
322.072
321.486
322.586
321.852
321.258
321.103
325.363
323.909
321.633
321.936
320.64
324.39
322.665
321.293
323.934
323.683
323.391
312.012
315.873
311.999
313.178
314.293
312.33
313.192
313.233
312.774
315.986
315.338
312.647
313.899
315.296
310.905
311.129
312.668
312.724
313.182
313.299
304.346
306.424
303.572
304.786
304.985
305.254
306.294
303.248
303.175
304.015
303.167
302.536
306.893
303.851
304.886
305.127
302.708
303.539
302.538
301.657
370.616
369.353
368.664
366.538
369.354
365.708
369.141
366.126
365.742
366.187
367.789
367.215
370.509
366.962
368.777
368.092
366.896
368.961
370.543
368.383
363.256
360.089
359.262
361.694
358.381
361.455
360.956
362.204
358.959
362.001
362.401
359.543
361.521
358.093
361.753
359.547
361.128
357.58
361.375
361.03
351.389
352.205
352.117
349.338
350.62
351.174
348.7
347.094
351.346
351.328
350.074
349.869
352.495
350.181
349.748
351.94
349.256
349.257
349.448
350.981
342.613
342.285
341.46
342.118
343.463
339.938
339.563
340.187
337.795
342.367
341.871
342.571
340.302
342.884
342.799
339.974
341.73
340.418
340.474
341.653
333.922
333.137
331.261
331.642
330.899
331.499
330.157
330.741
332.046
333.146
331.326
332.473
332.522
332.675
330.39
329.184
331.745
331.276
330.465
332.213
322.511
323.952
325.772
320.12
323.237
323.142
323.267
322.698
321.16
322.608
322.011
322.311
324.195
322.871
322.676
324.205
324.037
322.37
324.397
322.02
314.893
314.549
312.61
313.912
312.513
313.54
316.346
314.702
313.563
312.81
312.812
315.538
313.86
311.788
314.747
311.42
316.189
313.869
313.334
311.976
305.834
304.024
306.21
304.51
303.612
304.996
303.182
304.68
304.313
305.039
302.675
302.972
304.456
306.27
304.736
304.938
304.018
305.592
305.345
302.45
369.756
372.949
369.287
369.258
367.376
369.52
372.04
366.971
368.997
371.392
368.518
368.694
370.619
369.059
369.361
367.031
368.894
369.986
367.799
369.634
362.873
361.381
359.499
361.112
359.922
358.893
360.045
359.122
359.249
361.945
359.736
361.027
359.427
359.574
358.156
359.73
357.483
359.13
362.837
359.756
352.191
352.023
351.144
352.453
351.466
349.834
350.644
351.2
352.48
351.544
352.985
350.788
351.698
349.626
350.005
349.398
350.517
351.746
352.332
351.264
341.619
344.45
342.649
339.693
343.352
343.559
339.029
342.667
343.419
341.14
342.197
338.359
341.29
340.148
339.957
342.455
341.963
341.828
342.596
343.124
331.788
331.392
332.458
331.119
333.764
331.812
331.67
334.576
332.786
332.626
330.736
334.395
333.047
332.65
332.072
331.281
331.977
332.665
332.484
332.418
325.554
321.314
322.933
323.266
322.247
322.824
323.481
323.468
324.763
322.325
322.765
323.186
324.427
322.141
323.729
324.574
319.907
321.159
323.715
324.459
313.806
314.636
311.009
312.99
312.428
314.413
315.227
314.244
315.486
313.579
315.996
314.732
316.423
315.4
314.617
315.067
314.639
312.836
314.698
313.434
305.571
302.034
305.767
305.119
303.123
304.944
304.145
303.64
304.658
307.577
303.714
305.273
306.469
305.184
305.085
304.702
303.563
305.277
303.227
304.503
)
;

boundaryField
{
    hotSide
    {
        type            fixedGradient;
        gradient        nonuniform List<scalar> 
400
(
321.511
322.87
325.591
329.677
335.133
341.965
350.181
359.788
370.794
383.208
397.037
412.289
428.971
447.088
466.647
487.651
510.105
534.011
559.372
586.191
323.738
325.08
327.767
331.802
337.194
343.949
352.078
361.591
372.498
384.81
398.537
413.687
430.268
448.289
467.755
488.672
511.043
534.872
560.161
586.913
326.149
327.47
330.116
334.091
339.406
346.071
354.099
363.503
374.296
386.491
400.101
415.136
431.606
449.52
468.885
489.706
511.988
535.735
560.948
587.63
328.704
330
332.597
336.503
341.73
348.292
356.205
365.485
376.15
388.215
401.695
416.604
432.954
450.753
470.009
490.73
512.919
536.579
561.714
588.325
331.33
332.599
335.142
338.97
344.099
350.546
358.332
367.477
378.003
389.928
403.271
418.047
434.27
451.949
471.095
491.712
513.807
537.382
562.439
588.978
333.918
335.158
337.643
341.389
346.414
352.74
360.392
369.397
379.779
391.562
404.765
419.407
435.503
453.065
472.101
492.618
514.622
538.114
563.096
589.569
336.321
337.531
339.959
343.622
348.544
354.751
362.274
371.142
381.385
393.031
406.101
420.618
436.595
454.047
472.983
493.409
515.33
538.747
563.663
590.076
338.36
339.543
341.92
345.509
350.339
356.44
363.847
372.595
382.718
394.244
407.2
421.608
437.485
454.844
473.695
494.045
515.897
539.253
564.114
590.478
339.852
341.015
343.352
346.885
351.645
357.665
364.985
373.643
383.675
395.113
407.984
422.312
438.116
455.407
474.197
494.491
516.294
539.606
564.428
590.758
340.643
341.795
344.11
347.613
352.334
358.311
365.584
374.193
384.176
395.567
408.393
422.679
438.443
455.699
474.456
494.722
516.498
539.788
564.589
590.901
340.643
341.795
344.11
347.613
352.334
358.311
365.584
374.193
384.176
395.567
408.393
422.679
438.443
455.699
474.456
494.722
516.498
539.788
564.589
590.901
339.852
341.015
343.352
346.885
351.645
357.665
364.985
373.643
383.675
395.113
407.984
422.312
438.116
455.407
474.197
494.491
516.294
539.606
564.428
590.758
338.36
339.543
341.92
345.509
350.339
356.44
363.847
372.595
382.718
394.244
407.2
421.608
437.485
454.844
473.695
494.045
515.897
539.253
564.114
590.478
336.321
337.531
339.959
343.622
348.544
354.751
362.274
371.142
381.385
393.031
406.101
420.618
436.595
454.047
472.983
493.409
515.33
538.747
563.663
590.076
333.918
335.158
337.643
341.389
346.414
352.74
360.392
369.397
379.779
391.562
404.765
419.407
435.503
453.065
472.101
492.618
514.622
538.114
563.096
589.569
331.33
332.599
335.142
338.97
344.099
350.546
358.332
367.477
378.003
389.928
403.271
418.047
434.27
451.949
471.095
491.712
513.807
537.382
562.439
588.978
328.704
330
332.597
336.503
341.73
348.292
356.205
365.485
376.15
388.215
401.695
416.604
432.954
450.753
470.009
490.73
512.919
536.579
561.714
588.325
326.149
327.47
330.116
334.091
339.406
346.071
354.099
363.503
374.296
386.491
400.101
415.136
431.606
449.52
468.885
489.706
511.988
535.735
560.948
587.63
323.738
325.08
327.767
331.802
337.194
343.949
352.078
361.591
372.498
384.81
398.537
413.687
430.268
448.289
467.755
488.672
511.043
534.872
560.161
586.913
321.511
322.87
325.591
329.677
335.133
341.965
350.181
359.788
370.794
383.208
397.037
412.289
428.971
447.088
466.647
487.651
510.105
534.011
559.372
586.191
)
;
    }
    coldSide
    {
        type            mixed;
        refValue        uniform 300;
        refGradient     uniform 0;
        valueFraction   uniform 0.991591;
        source          uniform 0;
        value           nonuniform List<scalar> 
400
(
300.029
300.024
300.033
300.023
300.037
300.022
300.032
300.027
300.03
300.028
300.029
300.029
300.028
300.056
300.037
300.02
300.01
300.037
300.049
300.047
300.03
300.019
300.017
300.043
300.037
300.001
300.03
300.034
300.032
300.004
300.034
300.033
300.039
300.034
300.017
300.029
300.038
300.054
300.034
300.017