/*--------------------------------*- C++ -*----------------------------------*\
| =========                 |                                                 |
| \\      /  F ield         | OpenFOAM: The Open Source CFD Toolbox           |
|  \\    /   O peration     | Version:  2212                                  |
|   \\  /    A nd           | Website:  www.openfoam.com                      |
|    \\/     M anipulation  |                                                 |
\*---------------------------------------------------------------------------*/
FoamFile
{
    version     2.0;
    format      ascii;
    arch        "LSB;label=32;scalar=64";
    class       volScalarField;
    location    "0";
    object      T;
}
// * * * * * * * * * * * * * * * * * * * * * * * * * * * * * * * * * * * * * //

dimensions      [0 0 0 1 0 0 0];

internalField   nonuniform List<scalar> 
3200
(
341.218
342.089
342.907
343.472
344.109
344.718
345.168
345.472
345.6
345.736
345.68
345.295
344.904
344.614
343.917
343.427
342.527
341.648
340.857
339.821
336
336.698
337.422
337.89
338.477
338.95
339.341
339.707
339.722
339.905
339.845
339.527
339.154
338.934
338.268
337.875
337.123
336.267
335.599
334.769
330.642
331.203
331.828
332.2
332.713
333.153
333.4
333.784
333.836
333.966
333.877
333.579
333.268
333.111
332.538
332.199
331.604
330.853
330.247
329.593
325.184
325.665
326.164
326.478
326.87
327.237
327.358
327.774
327.849
327.941
327.824
327.553
327.311
327.144
326.785
326.428
325.963
325.387
324.864
324.379
319.629
320.05
320.456
320.683
320.972
321.24
321.315
321.727
321.766
321.83
321.705
321.498
321.327
321.14
320.934
320.637
320.237
319.823
319.399
319.071
314.074
314.408
314.686
314.858
315.002
315.259
315.241
315.572
315.587
315.648
315.542
315.391
315.284
315.126
314.991
314.808
314.474
314.207
313.923
313.717
308.497
308.679
308.821
308.954
309.023
309.195
309.164
309.381
309.378
309.434
309.344
309.244
309.2
309.09
309.027
308.899
308.69
308.521
308.402
308.271
302.853
302.912
302.937
302.998
303.035
303.094
303.06
303.145
303.124
303.167
303.133
303.104
303.089
303.055
303.027
303.003
302.91
302.854
302.82
302.781
342.055
342.972
343.7
344.758
345.213
345.841
346.354
346.565
346.766
346.803
346.724
346.458
346.093
345.744
345.273
344.474
343.737
342.829
341.951
341.024
336.646
337.403
338.035
338.991
339.324
339.856
340.337
340.523
340.723
340.739
340.677
340.443
340.129
339.835
339.415
338.718
338.071
337.274
336.56
335.708
331.119
331.746
332.305
333.108
333.345
333.861
334.272
334.42
334.57
334.625
334.587
334.333
334.076
333.855
333.475
332.89
332.291
331.664
331.026
330.341
325.528
326.048
326.517
327.2
327.38
327.803
328.11
328.252
328.374
328.445
328.424
328.192
327.98
327.796
327.475
326.988
326.476
325.982
325.457
324.941
319.864
320.312
320.694
321.239
321.381
321.704
321.928
322.058
322.152
322.185
322.167
321.991
321.795
321.679
321.472
321.053
320.603
320.283
319.784
319.519
314.224
314.555
314.877
315.21
315.285
315.546
315.711
315.789
315.875
315.859
315.833
315.733
315.531
315.518
315.409
315.087
314.787
314.54
314.158
313.972
308.556
308.767
308.962
309.155
309.202
309.342
309.445
309.525
309.582
309.494
309.5
309.449
309.339
309.343
309.266
309.082
308.904
308.759
308.481
308.409
302.878
302.965
303.01
303.078
303.064
303.151
303.171
303.212
303.201
303.161
303.18
303.163
303.143
303.121
303.095
303.046
302.985
302.942
302.842
302.839
343.455
344.38
345.362
346.085
346.774
347.414
347.924
348.082
348.289
348.321
348.453
348.052
347.665
347.138
346.632
345.796
345.181
344.187
343.16
342.236
337.793
338.594
339.525
340.09
340.701
341.21
341.742
341.826
341.967
341.986
342.183
341.758
341.472
340.992
340.534
339.834
339.298
338.46
337.526
336.771
332.107
332.746
333.593
334.066
334.552
334.952
335.485
335.486
335.614
335.619
335.847
335.428
335.223
334.808
334.422
333.799
333.359
332.663
331.86
331.219
326.355
326.825
327.563
328.011
328.387
328.641
329.128
329.091
329.255
329.197
329.396
329.049
328.906
328.541
328.203
327.707
327.344
326.793
326.134
325.634
320.537
320.895
321.481
321.85
322.135
322.308
322.723
322.643
322.843
322.767
322.912
322.666
322.494
322.251
321.981
321.564
321.28
320.869
320.396
320.019
314.691
314.968
315.349
315.627
315.874
315.958
316.28
316.23
316.374
316.311
316.396
316.203
316.126
315.883
315.737
315.444
315.22
314.975
314.582
314.39
308.804
309.014
309.221
309.378
309.562
309.588
309.781
309.755
309.853
309.812
309.869
309.736
309.707
309.522
309.451
309.317
309.159
309.018
308.785
308.679
302.952
303.021
303.097
303.15
303.203
303.216
303.282
303.273
303.308
303.277
303.323
303.274
303.257
303.187
303.154
303.136
303.054
303.028
302.944
302.908
344.913
345.939
346.748
347.622
348.473
349.152
349.588
349.964
350.104
350.008
350.077
349.747
349.289
348.62
348.123
347.556
346.729
345.625
344.772
343.508
339.093
339.989
340.68
341.436
342.134
342.778
343.115
343.497
343.6
343.489
343.562
343.268
342.883
342.261
341.866
341.331
340.63
339.659
338.925
337.865
333.154
333.967
334.57
335.208
335.731
336.323
336.615
336.944
337.014
336.894
336.987
336.712
336.401
335.859
335.533
335.081
334.464
333.659
332.986
332.115
327.191
327.875
328.369
328.91
329.35
329.743
330.052
330.333
330.378
330.26
330.332
330.101
329.869
329.431
329.137
328.762
328.281
327.603
327.024
326.346
321.189
321.705
322.15
322.532
322.891
323.154
323.45
323.668
323.697
323.562
323.659
323.466
323.28
322.938
322.708
322.431
322.039
321.503
321.047
320.529
315.134
315.533
315.888
316.129
316.406
316.56
316.808
316.956
316.995
316.86
316.951
316.773
316.656
316.37
316.241
316.038
315.766
315.383
315.068
314.683
309.1
309.304
309.535
309.687
309.875
309.958
310.1
310.205
310.208
310.14
310.188
310.079
310.015
309.783
309.774
309.673
309.49
309.255
309.065
308.79
303.049
303.144
303.187
303.262
303.315
303.343
303.36
303.423
303.433
303.38
303.412
303.388
303.355
303.287
303.277
303.237
303.191
303.101
303.043
302.942
346.32
347.498
348.414
349.169
350.087
350.789
351.157
351.389
351.752
351.778
351.785
351.531
351.221
350.568
349.907
349.18
348.311
347.325
346.158
345.299
340.322
341.307
342.063
342.738
343.561
344.165
344.475
344.69
344.994
344.987
345.013
344.767
344.528
343.942
343.371
342.772
342.018
341.129
340.113
339.384
334.231
335.075
335.672
336.234
336.961
337.505
337.734
337.907
338.172
338.151
338.19
337.945
337.779
337.242
336.828
336.286
335.668
334.885
334.037
333.422
328.118
328.789
329.226
329.68
330.331
330.778
330.931
331.08
331.319
331.282
331.298
331.145
330.956
330.526
330.252
329.758
329.22
328.542
327.878
327.449
321.951
322.397
322.793
323.076
323.658
324.018
324.088
324.244
324.392
324.394
324.367
324.282
324.142
323.778
323.619
323.187
322.778
322.195
321.718
321.401
315.695
315.995
316.3
316.468
316.957
317.179
317.263
317.387
317.452
317.465
317.435
317.399
317.263
317.039
316.914
316.552
316.269
315.862
315.532
315.287
309.449
309.58
309.796
309.884
310.194
310.294
310.388
310.463
310.487
310.515
310.497
310.446
310.38
310.234
310.17
309.925
309.776
309.541
309.375
309.184
303.183
303.202
303.279
303.299
303.417
303.44
303.481
303.505
303.518
303.533
303.52
303.512
303.481
303.435
303.417
303.312
303.274
303.21
303.149
303.09
347.646
348.952
349.955
350.865
351.728
352.189
352.837
353.043
353.323
353.435
353.496
353.219
352.676
352.159
351.642
351.117
349.733
349.014
347.682
346.68
341.42
342.551
343.429
344.237
344.968
345.374
345.899
346.092
346.371
346.466
346.541
346.227
345.791
345.347
344.89
344.44
343.221
342.626
341.499
340.623
335.149
336.078
336.829
337.515
338.176
338.499
338.9
339.059
339.362
339.419
339.498
339.177
338.841
338.451
338.09
337.741
336.684
336.156
335.258
334.515
328.864
329.607
330.156
330.718
331.297
331.592
331.884
331.984
332.314
332.342
332.391
332.063
331.847
331.507
331.263
330.947
330.11
329.649
328.935
328.343
322.502
323.048
323.458
323.904
324.359
324.631
324.794
324.951
325.201
325.232
325.24
324.971
324.812
324.56
324.415
324.096
323.476
323.108
322.568
322.087
316.133
316.488
316.794
317.104
317.455
317.649
317.72
317.873
318.052
318.063
318.095
317.868
317.73
317.546
317.451
317.227
316.787
316.556
316.169
315.821
309.696
309.892
310.085
310.267
310.508
310.612
310.641
310.749
310.85
310.852
310.882
310.765
310.657
310.561
310.472
310.332
310.126
309.956
309.705
309.536
303.245
303.297
303.397
303.439
303.535
303.576
303.554
303.615
303.627
303.636
303.677
303.617
303.583
303.53
303.485
303.452
303.402
303.322
303.243
303.192
349.224
350.348
351.462
352.364
353.105
353.746
354.652
355.056
355.094
355.199
355.073
354.939
354.353
353.89
353.276
352.56
351.313
350.458
349.284
348.068
342.819
343.771
344.751
345.507
346.159
346.678
347.488
347.858
347.886
348.039
347.877
347.74
347.241
346.891
346.336
345.726
344.581
343.834
342.838
341.841
336.339
337.133
338.014
338.598
339.127
339.555
340.275
340.578
340.594
340.809
340.646
340.472
340.097
339.792
339.33
338.798
337.773
337.228
336.329
335.531
329.804
330.474
331.191
331.641
332.054
332.412
332.991
333.274
333.276
333.494
333.331
333.136
332.881
332.643
332.31
331.853
330.946
330.535
329.797
329.156
323.236
323.746
324.324
324.639
324.974
325.256
325.677
325.882
325.929
326.102
325.98
325.827
325.667
325.423
325.18
324.864
324.109
323.796
323.21
322.741
316.616
316.984
317.434
317.603
317.87
318.084
318.348
318.524
318.605
318.684
318.602
318.42
318.37
318.21
318.058
317.833
317.242
317.021
316.606
316.278
309.995
310.227
310.475
310.572
310.797
310.928
310.993
311.159
311.159
311.253
311.19
311.037
311.021
310.966
310.887
310.71
310.368
310.236
309.974
309.778
303.324
303.431
303.509
303.544
303.63
303.664
303.678
303.75
303.749
303.774
303.778
303.683
303.7
303.67
303.633
303.595
303.475
303.431
303.348
303.285
350.726
351.789
353.034
353.729
354.616
355.387
356.089
356.581
356.75
356.873
356.7
356.501
355.906
355.495
354.81
354.092
353.093
351.854
350.74
349.48
344.113
345.09
346.126
346.68
347.504
348.114
348.771
349.203
349.354
349.475
349.277
349.095
348.582
348.204
347.626
346.983
346.159
345.021
344.148
342.983
337.432
338.318
339.141
339.629
340.31
340.818
341.406
341.729
341.855
342.013
341.804
341.632
341.194
340.902
340.412
339.798
339.154
338.172
337.484
336.467
330.753
331.471
332.07
332.531
333.081
333.415
333.986
334.182
334.293
334.451
334.304
334.135
333.744
333.511
333.129
332.598
332.074
331.286
330.727
329.941
323.992
324.578
324.974
325.361
325.778
326.019
326.501
326.6
326.706
326.886
326.742
326.582
326.236
326.081
325.818
325.365
324.993
324.394
323.958
323.357
317.187
317.629
317.862
318.154
318.441
318.592
318.989
319.007
319.067
319.23
319.138
318.97
318.757
318.647
318.489
318.166
317.895
317.439
317.15
316.715
310.33
310.625
310.737
310.906
311.098
311.172
311.431
311.396
311.427
311.545
311.493
311.378
311.274
311.243
311.101
310.955
310.765
310.467
310.297
310.026
303.452
303.558
303.597
303.652
303.714
303.748
303.841
303.814
303.83
303.897
303.849
303.802
303.777
303.767
303.719
303.689
303.598
303.488
303.452
303.372
352.092
353.095
354.251
355.083
356.107
356.915
357.663
358.105
358.14
358.557
358.302
357.944
357.63
356.987
356.335
355.411
354.622
353.276
352.222
350.993
345.296
346.127
347.11
347.862
348.775
349.455
350.126
350.523
350.531
350.919
350.697
350.359
350.098
349.535
348.956
348.111
347.438
346.31
345.378
344.356
338.482
339.102
339.902
340.61
341.363
341.897
342.52
342.823
342.844
343.199
342.963
342.68
342.477
341.987
341.51
340.79
340.237
339.304
338.474
337.622
331.566
332.015
332.66
333.307
333.964
334.289
334.838
335.066
335.101
335.454
335.196
334.995
334.8
334.411
334.037
333.403
333.004
332.287
331.522
330.815
324.643
324.908
325.404
325.991
326.475
326.684
327.11
327.321
327.283
327.636
327.439
327.311
327.076
326.802
326.547
326.031
325.695
325.177
324.544
323.972
317.661
317.819
318.172
318.606
318.935
319.035
319.351
319.568
319.517
319.766
319.645
319.512
319.34
319.17
318.971
318.623
318.365
318.021
317.548
317.112
310.649
310.694
310.912
311.189
311.376
311.41
311.594
311.761
311.726
311.886
311.82
311.71
311.618
311.486
311.394
311.198
311.079
310.848
310.564
310.278
303.576
303.58
303.647
303.757
303.818
303.797
303.89
303.948
303.926
304.009
303.957
303.939
303.9
303.858
303.813
303.755
303.733
303.637
303.541
303.451
353.408
354.385
355.562
356.387
357.346
358.384
359.03
359.548
359.682
360.007
359.798
359.255
358.965
358.462
357.741
356.762
355.796
354.646
353.514
352.425
346.453
347.259
348.311
348.994
349.875
350.729
351.342
351.774
351.88
352.171
352.01
351.516
351.289
350.816
350.195
349.318
348.48
347.483
346.502
345.615
339.397
340.06
340.916
341.543
342.332
343.03
343.567
343.909
343.996
344.274
344.129
343.684
343.53
343.087
342.587
341.783
341.151
340.271
339.479
338.727
332.268
332.807
333.522
334.031
334.736
335.29
335.722
335.985
336.104
336.342
336.201
335.783
335.714
335.318
334.959
334.22
333.732
332.996
332.363
331.747
325.139
325.534
326.098
326.502
327.093
327.485
327.821
328.027
328.136
328.342
328.23
327.913
327.808
327.457
327.256
326.67
326.292
325.687
325.163
324.723
318.024
318.251
318.681
319.001
319.402
319.669
319.914
320.033
320.151
320.23
320.191
319.985
319.868
319.605
319.524
319.046
318.845
318.321
317.982
317.667
310.835
310.964
311.21
311.429
311.657
311.791
311.959
312.017
312.147
312.147
312.102
312.002
311.913
311.751
311.747
311.427
311.324
310.972
310.806
310.58
303.644
303.663
303.768
303.842
303.886
303.944
304.011
304.031
304.058
304.086
304.046
304.025
303.983
303.939
303.965
303.838
303.787
303.679
303.624
303.551
354.466
355.609
356.557
357.656
358.781
359.622
360.36
360.861
361.107
361.197
361.191
360.631
360.488
359.688
359.104
358.011
356.934
355.718
354.51
353.571
347.394
348.324
349.14
350.074
351.136
351.808
352.483
352.928
353.1
353.229
353.219
352.631
352.534
351.856
351.368
350.401
349.474
348.337
347.396
346.608
340.246
341.019
341.656
342.449
343.405
343.93
344.521
344.92
344.994
345.2
345.229
344.585
344.533
343.943
343.584
342.711
341.97
340.989
340.179
339.563
333.075
333.67
334.117
334.787
335.634
336.003
336.452
336.83
336.868
337.087
337.083
336.509
336.504
335.988
335.748
334.97
334.391
333.603
332.957
332.442
325.764
326.281
326.536
327.126
327.771
328.071
328.398
328.684
328.718
328.878
328.905
328.445
328.426
328.026
327.824
327.206
326.787
326.138
325.713
325.275
318.425
318.829
318.931
319.41
319.892
320.088
320.311
320.479
320.562
320.635
320.686
320.341
320.361
320.052
319.921
319.434
319.162
318.684
318.407
318.093
311.041
311.332
311.357
311.669
311.975
312.076
312.198
312.288
312.361
312.387
312.434
312.218
312.256
312.026
311.99
311.66
311.526
311.255
311.031
310.899
303.692
303.815
303.795
303.931
304.022
304.059
304.083
304.117
304.127
304.15
304.162
304.082
304.103
304.009
304.022
303.912
303.879
303.776
303.696
303.668
355.583
356.645
357.565
358.791
359.885
360.833
361.519
361.882
362.272
362.579
362.512
362.005
361.644
360.984
360.315
359.444
358.143
356.891
355.621
354.86
348.325
349.229
350.009
351.099
352.063
352.849
353.413
353.765
354.057
354.363
354.346
353.856
353.579
353.028
352.441
351.659
350.554
349.427
348.311
347.724
340.969
341.789
342.42
343.342
344.157
344.83
345.236
345.589
345.818
346.096
346.088
345.662
345.437
344.995
344.454
343.786
342.906
341.921
340.953
340.485
333.613
334.304
334.835
335.557
336.173
336.71
337.027
337.396
337.598
337.804
337.784
337.429
337.219
336.887
336.42
335.874
335.169
334.342
333.614
333.211
326.243
326.73
327.164
327.713
328.181
328.531
328.794
329.124
329.277
329.467
329.475
329.162
328.986
328.701
328.356
327.936
327.372
326.733
326.245
325.814
318.823
319.143
319.454
319.837
320.146
320.357
320.56
320.834
320.951
321.057
321.118
320.868
320.73
320.499
320.238
319.988
319.568
319.093
318.802
318.404
311.304
311.497
311.689
311.971
312.093
312.23
312.339
312.459
312.631
312.651
312.688
312.522
312.462
312.307
312.149
312.017
311.748
311.462
311.327
311.033
303.782
303.864
303.906
304.02
304.073
304.085
304.134
304.183
304.236
304.237
304.25
304.18
304.182
304.143
304.066
304.038
303.937
303.84
303.818
303.688
356.545
357.613
358.738
360.207
361.227
361.895
362.751
363.037
363.45
363.755
363.762
363.304
362.886
362.264
361.355
360.571
359.369
358.181
356.951
355.848
349.183
350.104
351.03
352.275
353.226
353.805
354.522
354.812
355.101
355.353
355.43
355.002
354.598
354.111
353.326
352.646
351.551
350.55
349.513
348.542
341.744
342.504
343.294
344.312
345.197
345.631
346.224
346.474
346.688
346.907
347.007
346.631
346.255
345.877
345.196
344.673
343.691
342.804
341.999
341.178
334.256
334.883
335.468
336.355
337.086
337.425
337.901
338.071
338.237
338.445
338.504
338.222
337.854
337.553
337.038
336.613
335.813
335.058
334.423
333.779
326.727
327.191
327.642
328.342
328.937
329.135
329.546
329.653
329.755
329.954
329.975
329.75
329.455
329.238
328.824
328.554
327.952
327.333
326.793
326.345
319.173
319.435
319.727
320.297
320.704
320.812
321.145
321.226
321.243
321.412
321.435
321.274
321.062
320.928
320.58
320.421
320.017
319.525
319.175
318.851
311.553
311.664
311.836
312.221
312.476
312.507
312.681
312.753
312.734
312.85
312.907
312.778
312.644
312.575
312.359
312.261
312.056
311.68
311.559
311.336
303.861
303.911
303.978
304.097
304.174
304.183
304.251
304.267
304.257
304.311
304.335
304.297
304.239
304.226
304.138
304.116
304.058
303.904
303.864
303.802
357.5
358.589
359.864
361.091
362.42
362.932
363.773
364.398
364.606
364.707
364.691
364.432
364.065
363.529
362.422
361.621
360.468
359.056
357.837
356.772
349.967
350.931
352.019
353.073
354.26
354.672
355.409
355.946
356.14
356.268
356.217
355.962
355.643
355.157
354.214
353.54
352.544
351.365
350.3
349.404
342.429
343.196
344.092
345.02
346.05
346.381
347.015
347.416
347.628
347.736
347.682
347.464
347.176
346.729
345.952
345.417
344.591
343.581
342.677
341.986
334.849
335.405
336.136
336.958
337.752
338.044
338.599
338.83
339.018
339.132
339.101
338.911
338.665
338.294
337.673
337.237
336.556
335.791
335.01
334.438
327.194
327.542
328.128
328.773
329.413
329.647
330.104
330.192
330.387
330.526
330.484
330.269
330.122
329.779
329.314
329.005
328.492
327.913
327.27
326.836
319.452
319.687
320.101
320.587
321.046
321.224
321.541
321.568
321.697
321.869
321.841
321.661
321.582
321.254
320.941
320.704
320.385
319.963
319.519
319.229
311.697
311.827
312.073
312.344
312.669
312.749
312.991
312.938
313.009
313.152
313.123
313.035
312.988
312.76
312.587
312.435
312.224
311.993
311.755
311.546
303.909
303.955
304.039
304.145
304.241
304.273
304.37
304.337
304.349
304.407
304.39
304.371
304.365
304.273
304.216
304.177
304.093
304.013
303.954
303.894
358.142
359.402
360.846
362.112
363.196
363.894
364.81
365.308
365.528
365.768
365.662
365.364
365.209
364.295
363.392
362.751
361.535
359.953
358.779
357.544
350.525
351.656
352.855
353.953
354.966
355.53
356.324
356.766
356.922
357.151
357.106
356.82
356.684
355.866
355.064
354.525
353.517
352.092
351.088
350.046
342.874
343.87
344.816
345.753
346.683
347.119
347.789
348.137
348.274
348.46
348.462
348.203
348.085
347.309
346.659
346.249
345.421
344.146
343.339
342.481
335.15
336.022
336.759
337.499
338.284
338.685
339.175
339.447
339.566
339.706
339.694
339.471
339.42
338.764
338.204
337.942
337.265
336.145
335.535
334.843
327.366
328.105
328.607
329.24
329.868
330.183
330.473
330.712
330.848
330.933
330.908
330.729
330.683
330.187
329.709
329.586
329.06
328.167
327.712
327.14
319.567
320.136
320.433
320.904
321.384
321.623
321.784
321.964
322.083
322.107
322.13
321.97
321.9
321.567
321.218
321.174
320.808
320.171
319.825
319.452
311.768
312.111
312.28
312.518
312.846
312.975
313.114
313.212
313.277
313.276
313.332
313.212
313.132
312.982
312.76
312.685
312.493
312.166
311.938
311.687
303.948
304.078
304.125
304.2
304.293
304.372
304.408
304.426
304.446
304.444
304.479
304.441
304.41
304.374
304.273
304.235
304.201
304.075
304.012
303.922
358.743
360.147
361.69
362.754
363.915
364.58
365.545
366.069
366.319
366.479
366.685
366.348
366.083
364.926
364.282
363.556
362.258
360.59
359.399
358.287
351.066
352.302
353.636
354.605
355.562
356.105
356.962
357.413
357.609
357.759
357.932
357.665
357.422
356.395
355.878
355.249
354.137
352.688
351.657
350.674
343.317
344.368
345.489
346.337
347.093
347.581
348.319
348.694
348.863
348.994
349.127
348.872
348.666
347.811
347.406
346.851
345.887
344.658
343.83
343.014
335.522
336.39
337.306
338.02
338.586
339.048
339.58
339.874
340.026
340.139
340.266
340.001
339.882
339.219
338.916
338.376
337.606
336.599
335.931
335.284
327.711
328.356
329.062
329.632
330.039
330.446
330.789
331.051
331.161
331.243
331.332
331.124
331.043
330.586
330.37
329.915
329.301
328.496
328.004
327.501
319.83
320.295
320.807
321.2
321.487
321.792
322.008
322.231
322.282
322.353
322.36
322.258
322.211
321.873
321.77
321.406
320.957
320.421
320.013
319.656
311.922
312.2
312.519
312.726
312.925
313.074
313.222
313.395
313.362
313.417
313.419
313.378
313.314
313.133
313.084
312.833
312.616
312.318
312.03
311.809
303.991
304.081
304.22
304.269
304.331
304.378
304.431
304.496
304.483
304.488
304.501
304.482
304.457
304.404
304.395
304.311
304.23
304.14
304.035
303.966
359.435
360.83
362.234
363.494
364.38
365.285
366.063
366.62
366.982
366.944
367.051
366.792
366.438
365.846
365.065
364.07
362.945
361.379
360.062
358.809
351.692
352.883
354.099
355.168
355.93
356.737
357.383
357.875
358.205
358.14
358.247
358.064
357.712
357.195
356.577
355.693
354.715
353.308
352.171
351.086
343.863
344.841
345.921
346.776
347.474
348.067
348.678
349.053
349.388
349.274
349.402
349.26
348.913
348.463
348.06
347.209
346.374
345.176
344.244
343.322
335.982
336.762
337.69
338.337
338.97
339.391
339.972
340.188
340.47
340.416
340.491
340.398
340.067
339.756
339.414
338.731
338.035
337.029
336.28
335.499
328.084
328.659
329.394
329.874
330.406
330.695
331.179
331.28
331.465
331.511
331.535
331.497
331.183
330.946
330.725
330.194
329.628
328.814
328.261
327.584
320.13
320.51
321.034
321.362
321.765
321.955
322.328
322.37
322.472
322.499
322.573
322.555
322.309
322.131
321.968
321.619
321.205
320.572
320.219
319.726
312.147
312.31
312.664
312.852
313.084
313.198
313.45
313.475
313.461
313.505
313.564
313.554
313.415
313.304
313.236
313.032
312.747
312.346
312.132
311.864
304.059
304.121
304.24
304.321
304.381
304.423
304.521
304.516
304.508
304.521
304.549
304.555
304.503
304.462
304.443
304.382
304.28
304.126
304.048
303.978
359.979
361.344
362.597
363.693
365.142
366.027
366.722
367.138
367.436
367.631
367.807
367.605
366.958
366.447
365.595
364.584
363.576
361.841
360.593
359.157
352.15
353.308
354.412
355.413
356.623
357.294
357.982
358.341
358.636
358.772
358.933
358.729
358.175
357.722
357.002
356.11
355.248
353.675
352.671
351.414
344.222
345.184
346.151
347.037
348.033
348.545
349.231
349.473
349.694
349.832
349.941
349.767
349.357
348.954
348.309
347.59
346.829
345.488
344.681
343.617
336.232
337.012
337.867
338.598
339.342
339.765
340.374
340.583
340.774
340.829
340.879
340.755
340.475
340.063
339.586
339.015
338.369
337.312
336.621
335.773
328.205
328.845
329.506
330.077
330.636
330.953
331.457
331.632
331.776
331.791
331.848
331.701
331.515
331.184
330.854
330.415
329.879
329.138
328.545
327.892
320.132
320.621
321.127
321.507
321.902
322.123
322.501
322.658
322.704
322.697
322.828
322.662
322.546
322.272
322.064
321.78
321.381
320.89
320.406
319.968
312.105
312.383
312.743
312.944
313.168
313.319
313.514
313.632
313.637
313.617
313.725
313.618
313.553
313.366
313.249
313.11
312.868
312.585
312.218
312.036
304.05
304.152
304.254
304.339
304.443
304.469
304.549
304.581
304.585
304.565
304.61
304.554
304.528
304.457
304.452
304.384
304.313
304.206
304.09
304.04
360.423
361.554
363.071
364.284
365.492
366.369
367.303
367.703
367.985
368.231
368.159
367.873
367.27
366.758
366.05
364.95
363.856
362.397
361.026
359.605
352.567
353.471
354.844
355.842
356.857
357.661
358.484
358.88
359.114
359.266
359.206
358.963
358.426
357.998
357.351
356.422
355.472
354.215
353.065
351.748
344.618
345.348
346.515
347.336
348.204
348.882
349.617
349.983
350.155
350.223
350.186
349.97
349.532
349.184
348.631
347.817
347.05
345.942
345.019
343.86
336.589
337.149
338.145
338.825
339.512
340.028
340.672
341.055
341.133
341.202
341.15
340.936
340.569
340.264
339.855
339.147
338.564
337.644
336.879
335.981
328.484
328.88
329.726
330.24
330.769
331.167
331.683
332.017
332.066
332.098
332.028
331.897
331.581
331.332
331.027
330.492
330.025
329.331
328.712
328.073
320.387
320.627
321.26
321.644
322.008
322.29
322.711
322.887
322.927
322.976
322.949
322.767
322.548
322.416
322.198
321.782
321.491
320.984
320.551
320.104
312.258
312.424
312.795
312.995
313.216
313.411
313.679
313.746
313.822
313.814
313.83
313.678
313.533
313.481
313.343
313.099
312.905
312.601
312.374
312.095
304.11
304.171
304.293
304.366
304.423
304.514
304.577
304.614
304.644
304.64
304.654
304.593
304.529
304.513
304.473
304.397
304.336
304.225
304.167
304.058
360.545
361.809
363.361
364.535
365.52
366.376
367.366
368.069
368.457
368.403
368.453
368.07
367.422
366.934
366.285
365.195
363.905
362.509
361.008
359.784
352.615
353.704
355.077
356.085
356.914
357.667
358.559
359.12
359.412
359.433
359.464
359.13
358.491
358.136
357.608
356.631
355.466
354.247
352.994
351.954
344.645
345.604
346.672
347.545
348.274
348.886
349.714
350.111
350.347
350.414
350.403
350.131
349.587
349.307
348.816
348.01
346.97
345.916
344.951
344.067
336.631
337.412
338.211
338.946
339.612
340.043
340.791
341.069
341.282
341.315
341.29
341.08
340.661
340.437
339.971
339.307
338.451
337.612
336.876
336.138
328.563
329.121
329.751
330.3
330.838
331.195
331.778
331.959
332.148
332.206
332.166
332.034
331.681
331.498
331.081
330.574
329.916
329.297
328.78
328.158
320.449
320.818
321.248
321.664
322.044
322.334
322.718
322.873
322.972
323.037
323.019
322.954
322.658
322.55
322.208
321.843
321.4
320.937
320.608
320.16
312.277
312.547
312.785
312.984
313.257
313.462
313.637
313.771
313.767
313.825
313.875
313.822
313.608
313.527
313.319
313.122
312.844
312.576
312.385
312.124
304.101
304.206
304.268
304.345
304.433
304.528
304.558
304.633
304.628
304.641
304.649
304.631
304.585
304.527
304.467
304.399
304.301
304.214
304.169
304.072
)
;

boundaryField
{
    hotSide
    {
        type            fixedGradient;
        gradient        nonuniform List<scalar> 
400
(
410.052
426.96
443.64
460.017
476.016
491.562
506.581
520.999
534.745
547.748
559.943
571.266
581.659
591.066
599.438
606.73
612.905
617.931
621.78
624.435
420.095
437.514
454.702
471.584
488.081
504.117
519.614
534.497
548.692
562.126
574.732
586.443
597.199
606.943
615.624
623.197
629.62
634.861
638.893
641.696
429.017
446.902
464.556
481.9
498.853
515.338
531.274
546.585
561.192
575.024
588.009
600.079
611.172
621.23
630.199
638.033
644.689
650.133
654.338
657.283
436.773
455.077
473.149
490.908
508.273
525.163
541.496
557.192
572.174
586.366
599.696
612.093
623.494
633.838
643.072
651.145
658.017
663.651
668.017
671.096
443.329
462.001
480.44
498.565
516.293
533.54
550.224
566.264
581.578
596.09
609.727
622.416
634.092
644.694
654.165
662.456
669.523
675.33
679.845
683.048
448.659
467.645
486.399
504.838
522.878
540.432
557.419
573.754
589.356
604.146
618.049
630.993
642.909
653.736
663.417
671.9
679.141
685.101
689.751
693.068
452.747
471.991
491.005
509.703
528
545.81
563.048
579.629
595.471
610.494
624.622
637.78
649.9
660.918
670.778
679.425
686.816
692.911
697.679
701.097
455.582
475.027
494.243
513.143
531.642
549.653
567.089
583.866
599.899
615.108
629.415
642.745
655.03
666.204
676.21
684.993
692.508
698.715
703.584
707.089
457.163
476.749
496.108
515.153
533.797
551.952
569.532
586.451
602.624
617.97
632.41
645.87
658.278
669.571
679.688
688.576
696.189
702.486
707.436
711.014
457.493
477.16
496.602
515.731
534.461
552.704
570.372
587.379
603.64
619.073
633.598
647.142
659.633
671.005
681.199
690.16
697.843
704.206
709.217
712.851
456.581
476.268
495.732
514.886
533.643
551.915
569.614
586.653
602.948
618.417
632.98
646.562
659.092
670.505
680.739
689.741
697.465
703.868
708.92
712.594
454.439
474.085
493.51
512.629
531.353
549.595
567.268
584.285
600.561
616.015
630.566
644.14
656.666
668.078
678.316
687.326
695.061
701.48
706.551
710.248
451.087
470.63
489.956
508.978
527.61
545.765
563.354
580.293
596.496
611.883
626.374
639.894
652.372
663.744
673.949
682.933
690.649
697.058
702.126
705.828
446.546
465.926
485.092
503.959
522.44
540.448
557.898
574.703
590.781
606.049
620.431
633.85
646.238
657.529
667.664
676.59
684.258
690.631
695.674
699.364
440.844
460.001
478.949
497.601
515.872
533.678
550.931
567.549
583.449
598.549
612.773
626.047
638.302
649.473
659.502
668.336
675.927
682.238
687.236
690.895
434.01
452.888
471.558
489.939
507.944
525.491
542.495
558.873
574.543
589.426
603.446
616.53
628.61
639.623
649.511
658.221
665.707
671.932
676.863
680.475
426.083
444.624
462.962
481.015
498.7
515.935
532.637
548.723
564.114
578.733
592.504
605.355
617.221
628.039
637.751
646.306
653.66
659.775
664.618
668.167
417.102
435.254
453.206
470.879
488.191
505.063
521.411
537.158
552.223
566.532
580.011
592.589
604.202
614.789
624.293
632.665
639.861
645.842
650.58
654.05
407.116
424.827
442.343
459.585
476.476
492.935
508.884
524.244
538.939
552.896
566.041
578.309
589.633
599.955
609.221
617.382
624.395
630.223
634.837
638.213
396.179
413.402
430.434
447.199
463.621
479.622
495.126
510.058
524.341
537.906
550.681
562.601
573.603
583.63
592.63
600.554
607.361
613.016
617.49
620.76
)
;
    }
    coldSide
    {
        type            mixed;
        refValue        uniform 300;
        refGradient     uniform 0;
        valueFraction   uniform 0.991591;
        source          uniform 0;
        value           nonuniform List<scalar> 
400
(
300.024
300.024
300.025
300.026
300.027
300.027
300.028
300.029
300.03
300.031
300.031
300.032
300.032
300.033
300.033
300.034
300.034
300.034
300.035
300.034
300.024
300.025
300.025
300.026
300.027
300.028
300.029
300.03
300.03
300.031
300.032
300.032
300.033
300.033
300.034
300.034
300.035