/*--------------------------------*- C++ -*----------------------------------*\
| =========                 |                                                 |
| \\      /  F ield         | OpenFOAM: The Open Source CFD Toolbox           |
|  \\    /   O peration     | Version:  2212                                  |
|   \\  /    A nd           | Website:  www.openfoam.com                      |
|    \\/     M anipulation  |                                                 |
\*---------------------------------------------------------------------------*/
FoamFile
{
    version     2.0;
    format      ascii;
    arch        "LSB;label=32;scalar=64";
    class       volScalarField;
    location    "./ITHACAoutput/true/12.4";
    object      error;
}
// * * * * * * * * * * * * * * * * * * * * * * * * * * * * * * * * * * * * * //

dimensions      [0 0 0 1 0 0 0];

internalField   nonuniform List<scalar> 
3200
(
-0.529845
0.312466
1.00896
1.55458
1.91745
2.14087
2.25693
2.30534
2.20059
2.29355
2.3402
2.34141
2.18755
2.12751
2.10868
1.99289
1.78411
1.42642
0.768242
0.134991
-0.346083
0.239994
0.943535
1.46584
1.62901
1.85898
2.02291
1.95861
1.96803
2.04358
2.0032
1.88856
1.87808
1.80384
1.79054
1.69591
1.53171
1.19741
0.643655
0.0998627
-0.220045
0.374528
0.809249
1.14757
1.38405
1.57571
1.67155
1.68409
1.7
1.70235
1.62473
1.60384
1.55131
1.55041
1.46186
1.45847
1.26451
0.931929
0.564926
0.063968
-0.165775
0.170265
0.720715
0.932126
1.23642
1.26804
1.35509
1.33263
1.38883
1.35697
1.31565
1.26487
1.34508
1.2858
1.20422
1.15895
1.03673
0.808969
0.551169
-0.05702
-0.0265406
0.215494
0.499227
0.766274
0.934513
1.01742
1.06625
1.02431
1.11055
1.07409
1.0102
1.05711
0.989992
0.961392
1.00871
0.838108
0.818026
0.585865
0.366513
0.0738335
-0.0822166
0.216863
0.404234
0.543271
0.647205
0.778525
0.82713
0.766188
0.680032
0.697565
0.731721
0.718974
0.707497
0.667623
0.774049
0.619471
0.517305
0.389116
0.178067
0.102705
-0.0490624
0.0908397
0.276109
0.346746
0.403047
0.435611
0.400108
0.44526
0.494683
0.42631
0.514528
0.441577
0.379362
0.464764
0.398142
0.357932
0.299542
0.230124
0.193744
0.00363734
0.0188534
-0.00210254
0.166918
0.0955491
0.178317
0.134465
0.131268
0.153403
0.208693
0.178292
0.154286
0.160097
0.0934084
0.130829
0.1511
0.198542
0.111393
0.119566
0.0208804
0.0404847
-0.457749
0.301573
1.02582
1.53296
1.89992
2.03036
2.12241
2.08187
2.15402
2.15551
2.05282
1.99719
1.99038
2.03913
1.95069
1.86935
1.74452
1.38078
0.822619
0.127937
-0.31573
0.318315
0.945051
1.36506
1.64338
1.77742
1.82896
1.88009
1.84856
1.79055
1.75772
1.74216
1.64466
1.63798
1.7516
1.65733
1.48124
1.20484
0.682416
0.113891
-0.22491
0.273308
0.790919
1.12477
1.44232
1.50672
1.54744
1.60182
1.58819
1.55767
1.51721
1.55215
1.45255
1.50743
1.44291
1.33221
1.26579
1.01486
0.566173
0.0659908
-0.127898
0.343509
0.695028
0.955019
1.11535
1.29424
1.30224
1.32203
1.26666
1.32253
1.23228
1.21255
1.17534
1.14937
1.18612
1.17925
0.990842
0.810419
0.452939
0.0510019
-0.0545224
0.285744
0.574198
0.70898
0.900795
0.944933
0.967382
0.997981
0.920471
0.862798
0.907859
0.89511
0.93543
0.935401
0.853416
0.952977
0.718439
0.529057
0.31225
0.122623
-0.0429046
0.211198
0.359227
0.633909
0.667992
0.729435
0.740254
0.759455
0.667758
0.691893
0.652487
0.656126
0.607364
0.691117
0.693607
0.576368
0.567993
0.400813
0.280692
0.0856686
0.0416687
0.134957
0.224915
0.379561
0.428586
0.371347
0.478765
0.420426
0.458918
0.434592
0.403113
0.395077
0.41453
0.367083
0.385985
0.35959
0.269062
0.242823
0.191038
-0.00928975
-0.0372137
0.0294999
0.0909972
0.0561967
0.213705
0.118846
0.0745381
0.195318
0.175498
0.16175
0.17063
0.142322
0.140618
0.0989884
0.166542
0.114152
0.0767361
0.159899
0.0756367
-0.0672432
-0.553456
0.363527
0.942176
1.39787
1.70867
1.8665
1.89738
1.94075
1.86962
1.86533
1.65136
1.69044
1.69429
1.75951
1.80254
1.77378
1.65704
1.34033
0.717992
0.232867
-0.371151
0.27025
0.917074
1.32993
1.44992
1.62618
1.67435
1.59815
1.59789
1.59755
1.53826
1.5311
1.45997
1.50941
1.48656
1.48403
1.35245
1.0882
0.645352
0.138117
-0.21227
0.234446
0.709505
1.12525
1.30322
1.44996
1.40761
1.34104
1.42227
1.30234
1.25343
1.2511
1.28268
1.30453
1.29593
1.18478
1.09888
0.873472
0.582157
0.115415
-0.152189
0.217244
0.623925
0.938919
1.10325
1.20766
1.20758
1.22822
1.11359
1.01301
1.1168
1.03285
1.05845
0.953469
1.10979
1.00086
0.996784
0.719678
0.453989
0.085494
-0.145634
0.248272
0.475284
0.714269
0.909894
0.952154
0.944477
0.912012
0.861541
0.865181
0.713177
0.756103
0.816939
0.86919
0.837468
0.772196
0.754353
0.494324
0.358557
-0.0101959
0.043693
0.118556
0.431563
0.533864
0.647211
0.699885
0.592258
0.721809
0.587754
0.582327
0.536553
0.588036
0.615581
0.557745
0.574489
0.554968
0.517059
0.422021
0.232187
0.0526439
-0.0736947
0.146238
0.19521
0.313086
0.349599
0.407498
0.39862
0.395795
0.387015
0.300119
0.349787
0.356592
0.385777
0.333952
0.319308
0.270869
0.305086
0.283585
0.140693
0.0412255
-0.0177738
0.00820968
0.0204095
0.134166
0.159362
0.11137
0.0993973
0.0519062
0.120328
0.0836198
0.0845168
0.140295
0.0830306
0.148852
0.14142
0.112643
0.0675264
0.0461748
0.0963487
0.0313738
-0.452551
0.196513
0.834593
1.38565
1.56074
1.62634
1.66309
1.67079
1.53588
1.4443
1.31094
1.32369
1.41664
1.50776
1.59306
1.54192
1.46854
1.20173
0.642462
0.111388
-0.430362
0.168219
0.75721
1.15998
1.3838
1.46217
1.45447
1.44001
1.34868
1.25155
1.19445
1.2252
1.26291
1.24751
1.28247
1.3368
1.22839
1.01831
0.544271
0.0916044
-0.29651
0.157036
0.637413
0.971573
1.13021
1.29619
1.26459
1.11068
1.19709
1.10405
1.00759
1.0331
1.01684
1.07299
1.09854
1.1638
1.02112
0.868247
0.426704
0.0448827
-0.269156
0.221779
0.678867
0.834096
0.961671
1.07516
1.05306
1.01183
0.940493
0.878668
0.814628
0.794163
0.862393
0.82989
0.826504
0.88728
0.806174
0.704896
0.428804
0.115306
-0.111538
0.193532
0.489888
0.641592
0.744652
0.777897
0.823003
0.75027
0.787393
0.762548
0.612857
0.627833
0.682434
0.601877
0.67475
0.721546
0.692301
0.477369
0.303243
0.0109138
-0.0249347
0.136367
0.391646
0.402826
0.549144
0.6107
0.51173
0.598093
0.546233
0.469633
0.458677
0.408742
0.458734
0.442276
0.48037
0.508793
0.400007
0.366912
0.147954
0.0778426
0.0363078
0.0260399
0.279924
0.281561
0.296433
0.319229
0.354132
0.286929
0.272483
0.279273
0.290804
0.28108
0.275195
0.285164
0.230523
0.256806
0.348964
0.274656
0.120617
-0.0120898
0.00658025
0.117529
0.0961973
0.0900654
0.0719646
0.0742196
0.0874588
0.0486205
0.132735
0.0695897
0.0243751
0.0983349
0.0723731
0.0567659
0.0205688
0.0928197
0.119355
0.079895
0.0259268
0.0470159
-0.57495
0.045688
0.637153
1.1226
1.41234
1.44724
1.45827
1.26439
1.27456
1.04711
0.958717
0.92948
1.06771
1.19521
1.27795
1.35641
1.30958
1.09019
0.550291
0.0638206
-0.498377
0.0990752
0.654816
0.978285
1.15953
1.28745
1.25684
1.08417
1.01229
0.913058
0.833937
0.85502
0.87707
1.02422
1.07526
1.1339
1.09703
0.928
0.512786
0.0271567
-0.345487
0.173453
0.548836
0.922992
1.06403
1.06039
1.05725
1.00312
0.859077
0.791168
0.725808
0.693833
0.764247
0.829136
0.899868
1.00131
0.930326
0.703679
0.394226
-0.0449937
-0.292679
0.101944
0.551934
0.838884
0.828715
0.869308
0.938797
0.780757
0.747118
0.635189
0.557559
0.542994
0.574312
0.66189
0.823286
0.834388
0.674291
0.57996
0.328374
0.0402351
-0.198215
0.074858
0.361577
0.597554
0.672809
0.705886
0.701575
0.580474
0.597978
0.521469
0.424584
0.490915
0.517264
0.566568
0.496376
0.567992
0.614095
0.493724
0.20937
-0.0320372
-0.0962597
0.0924923
0.23097
0.46947
0.461108
0.489359
0.535092
0.443222
0.361458
0.408841
0.389937
0.300226
0.287844
0.411182
0.408091
0.357039
0.417907
0.356255
0.207147
-0.0103516
-0.0882888
0.0405617
0.146707
0.211433
0.264759
0.352925
0.253114
0.27689
0.184218
0.218228
0.183618
0.185195
0.208209
0.203275
0.280966
0.261339
0.232605
0.219013
0.0685181
-0.0148712
-0.014379
0.0117899
0.110718
0.0795675
0.0204025
0.0593123
0.113238
0.159286
-0.00356399
0.137652
0.0555747
0.0776153
0.106248
0.0605934
0.0363596
0.118512
0.0435627
-0.011131
0.00212987
-0.0289834
-0.742357
-0.132743
0.615471
0.94845
1.06631
1.13655
1.17471
1.09337
0.861926
0.680718
0.580459
0.566317
0.762675
0.918777
1.00327
1.10984
1.07041
0.861886
0.494877
-0.0750599
-0.499071
0.0109951
0.503801
0.769621
1.01708
1.04729
0.978505
0.928648
0.79807
0.585994
0.456434
0.534363
0.579629
0.723815
0.940493
1.00603
0.900667
0.722195
0.337176
-0.059083
-0.3903
-0.00758311
0.407269
0.71088
0.898392
0.944614
0.839011
0.756619
0.670934
0.498845
0.387355
0.462464
0.422748
0.534665
0.667141
0.765348
0.699098
0.618403
0.241777
-0.0989587
-0.29209
0.0900473
0.382797
0.637238
0.762436
0.755624
0.691168
0.567744
0.516982
0.431561
0.320927
0.295301
0.429973
0.430637
0.62209
0.628393
0.627705
0.474486
0.237489
-0.0533827
-0.164405
0.0443305
0.363544
0.453383
0.542797
0.554689
0.53247
0.414463
0.418721
0.338973
0.273721
0.251078
0.226856
0.318544
0.388212
0.54568
0.436073
0.344089
0.130067
-0.0694985
-0.184553
-0.00935506
0.158592
0.419932
0.475527
0.442281
0.431349
0.324821
0.310132
0.231797
0.126663
0.171038
0.192239
0.283428
0.279213
0.268508
0.389677
0.271355
0.189723
-0.0187758
-0.077047
0.140813
0.0991913
0.178616
0.335545
0.259835
0.222809
0.201549
0.125038
0.119806
0.112858
0.0625186
0.0713788
0.114395
0.162793
0.21273
0.1767
0.0758663
0.0593614
-0.0352632
0.019934
0.0127095
0.0339525
0.0427865
0.149267
0.0930905
0.0236367
0.0796566
0.0365535
0.0553182
0.057464
0.0326613
0.000897116
0.072857
0.0704302
0.042588
-0.0384003
-0.00962409
-0.0512635
0.0505183
-0.81553
-0.199145
0.399666
0.755816
0.96532
1.04077
0.877599
0.679455
0.542305
0.295109
0.234178
0.240682
0.359193
0.527076
0.714061
0.918796
0.890419
0.777378
0.39441
-0.157001
-0.668529
-0.0878203
0.39097
0.728697
0.793608
0.801866
0.787678
0.644262
0.459393
0.245667
0.120489
0.199414
0.240275
0.531586
0.667137
0.77443
0.796978
0.651886
0.275201
-0.140197
-0.466484
-0.0363257
0.325998
0.6378
0.758843
0.730576
0.659768
0.580135
0.352647
0.222192
0.231469
0.140243
0.238778
0.391795
0.522322
0.626457
0.637053
0.45141
0.219048
-0.161709
-0.437661
0.0679628
0.283911
0.588329
0.678431
0.624559
0.469056
0.477205
0.278029
0.223451
0.124063
0.0853375
0.124587
0.307344
0.390351
0.465168
0.539937
0.326337
0.146657
-0.0455047
-0.27784
0.0187293
0.259035
0.48539
0.477201
0.473892
0.430353
0.402175
0.301239
0.127926
0.124474
0.0343252
0.203551
0.10695
0.340025
0.383134
0.382682
0.305751
0.117126
-0.0238528
-0.225188
0.042045
0.19945
0.400394
0.278599
0.404292
0.308425
0.304334
0.132542
0.141046
0.0701229
0.0743702
0.0612716
0.114233
0.175794
0.197881
0.195234
0.200408
0.120855
-0.193854
-0.192523
-0.0508771
0.109777
0.145848
0.158977
0.216371
0.193482
0.162188
0.0173069
0.0254177
0.0843912
-0.0201025
0.0767398
0.142717
0.17683
0.112758
0.0970361
0.16564
0.0728071
-0.065581
-0.0497236
-0.0311124
0.0538478
0.125897
0.0278113
0.0745486
0.146887
0.0697653
0.099285
0.0340374
-0.011145
0.0306131
0.0133794
0.0391693
0.0131949
0.0507313
0.0584031
0.0640158
-0.000263627
-0.0316413
-0.922323
-0.22507
0.191793
0.658464
0.784669
0.77906
0.640744
0.504436
0.262658
0.0349643
-0.184267
-0.111542
0.0938223
0.281992
0.536342
0.760919
0.728581
0.63059
0.257596
-0.222239
-0.699073
-0.175762
0.222661
0.56075
0.641775
0.62909
0.517736
0.502609
0.236549
-0.0106274
-0.094244
-0.0865505
0.00189403
0.24686
0.453789
0.506107
0.635257
0.513378
0.238001
-0.174582
-0.614405
-0.171116
0.256684
0.517943
0.564836
0.581498
0.52586
0.383463
0.136237
0.0136279
-0.106267
-0.0453427
0.0744946
0.156893
0.333544
0.53308
0.48652
0.412889
0.111079
-0.227605
-0.458506
-0.12601
0.204367
0.386425
0.588484
0.480703
0.380679
0.252345
0.0880367
0.0507067
-0.0515522
-0.102947
-0.00569824
0.169199
0.226018
0.386167
0.491192
0.347603
0.0993258
-0.211403
-0.336255
-0.0665003
0.184707
0.291893
0.404317
0.446837
0.358442
0.17893
0.0520096
0.0244633
-0.0929132
0.0117386
-0.0174569
0.0414333
0.17485
0.304277
0.259397
0.156453
0.114614
-0.03962
-0.180885
-0.0136294
0.030123
0.185396
0.246841
0.258646
0.278563
0.196134
0.117733
-0.0310529
-0.0146439
-0.108966
0.00388578
0.0472777
0.133049
0.198129
0.234905
0.192987
0.0417491
-0.0715586
-0.114266
-0.0379395
0.104739
0.130799
0.112123
0.138849
0.0658429
0.0801503
0.0410761
0.0400624
-0.106501
-0.100563
-0.04788
0.0659952
0.0957403
0.158467
0.199135
0.0667477
-0.0631213
-0.18027
0.00909674
-0.064325
0.0713631
0.103594
0.100089
0.0897866
0.108343
0.0240294
-0.00627075
0.0183784
-0.0242126
0.0449031
-0.0177514
0.0752395
0.0258322
0.00500443
0.087138
0.0728969
-0.00861685
-0.105745
-0.996682
-0.435853
0.134875
0.432271
0.55598
0.554741
0.463084
0.233493
-0.0284396
-0.221378
-0.373739
-0.346556
-0.101846
0.102742
0.37033
0.611149
0.667359
0.579922
0.189117
-0.211495
-0.708871
-0.260567
0.132948
0.406974
0.559287
0.506955
0.484324
0.295608
0.08032
-0.178352
-0.327107
-0.318044
-0.128193
0.0876854
0.373544
0.536168
0.493773
0.474099
0.138782
-0.157759
-0.567897
-0.254358
0.132914
0.425706
0.437121
0.504621
0.362636
0.159164
-0.0323913
-0.212124
-0.258902
-0.22675
-0.0895158
0.064361
0.335516
0.35365
0.42213
0.370646
0.107003
-0.141446
-0.471751
-0.0918661
0.162018
0.313513
0.468446
0.398061
0.309877
0.153401
-0.00566433
-0.220698
-0.171067
-0.244483
-0.168724
0.0926829
0.168155
0.303491
0.366493
0.276438
0.152872
-0.111506
-0.348245
-0.113315
0.166053
0.239672
0.275137
0.34721
0.269263
0.152488
0.0607606
-0.120835
-0.228006
-0.209024
-0.100457
0.00539313
0.117558
0.253198
0.269996
0.187634
0.0649736
-0.130071
-0.151234
-0.110592
0.0626747
0.243402
0.197382
0.267258
0.196219
0.0918972
-0.0509686
-0.0296582
-0.106735
-0.128999
-0.0965651
0.0400242
0.0953866
0.130083
0.22246
0.11298
-0.0359313
-0.0394684
-0.0925307
-0.108079
0.10834
0.10737
0.223435
0.0909501
0.167755
0.0541582
-0.0207561
-0.0479737
-0.0907
-0.0990654
-0.0659997
0.0741317
0.0206438
0.109676
0.0847109
0.0894715
0.0289839
-0.0488236
0.016078
0.0712629
-0.0124586
0.133308
0.0775954
0.0439376
0.0165447
0.0319501
-0.0196041
-0.0641339
-0.0694102
-0.0113406
0.0114766
0.0372257
-0.00733715
0.0237434
0.0266134
0.0178461
-0.014626
0.00947
-0.969554
-0.42722
0.0285037
0.421474
0.434442
0.489936
0.379764
0.118196
-0.168236
-0.344531
-0.504588
-0.431494
-0.260998
0.0536713
0.253876
0.56334
0.567791
0.523378
0.219951
-0.189223
-0.683121
-0.401006
0.113325
0.298707
0.443345
0.477896
0.25447
0.134589
-0.0801641
-0.274072
-0.4718
-0.448153
-0.206317
-0.0154702
0.278117
0.413542
0.476758
0.401586
0.229338
-0.154125
-0.732452
-0.227706
0.112637
0.344848
0.40486
0.374408
0.240401
0.124715
-0.079484
-0.34376
-0.42755
-0.303723
-0.258582
0.0228342
0.227345
0.338976
0.506025
0.25169
-0.0158175
-0.109513
-0.432132
-0.150607
0.0854246
0.278913
0.397266
0.388208
0.269898
0.146094
-0.0499042
-0.209976
-0.297305
-0.27739
-0.212717
0.00117034
0.125103
0.28148
0.300235
0.240634
0.159095
-0.136445
-0.323386
-0.123277
0.0767208
0.280938
0.244454
0.269385
0.188579
0.0701949
-0.0141359
-0.170384
-0.225238
-0.263025
-0.222892
0.0035082
0.157362
0.164056
0.15951
0.103421
0.0981657
-0.11127
-0.330119
-0.0466587
0.0523784
0.0777267
0.233551
0.250852
0.137587
0.0353482
-0.0258579
-0.149535
-0.140285
-0.167457
-0.0828665
-0.040356
0.0705677
0.129425
0.13988
0.0615782
0.132817
-0.0718026
-0.243791
-0.0864858
-0.0351629
0.123173
0.0746995
0.174809
0.102598
-0.0108827
-0.10739
-0.126386
0.002445
-0.114504
-0.122095
-0.00316951
0.0404071
0.00835134
0.0994335
0.0622526
-0.00519451
0.0179794
-0.0204728
0.0681218
0.0265476
0.0208013
0.0281741
0.0347185
0.0197755
-0.0111324
-0.0870487
-0.0512378
0.0189965
-0.0100772
0.0154872
0.0830633
0.0146121
-0.023946
0.0342817
0.00859319
0.0637519
0.0351603
-1.01086
-0.51374
0.00821926
0.2717
0.422838
0.435244
0.298734
0.125091
-0.217453
-0.394829
-0.553723
-0.421036
-0.266576
0.0314924
0.394577
0.51492
0.652281
0.489364
0.302606
-0.0665806
-0.679391
-0.312257
0.0590839
0.317517
0.47069
0.335854
0.255974
0.0454372
-0.176863
-0.35439
-0.419472
-0.365335
-0.230396
0.0304978
0.205904
0.434975
0.506562
0.378362
0.192634
-0.0924241
-0.595655
-0.217644
0.164981
0.296048
0.421714
0.395817
0.225511
0.0892734
-0.111138
-0.290861
-0.425845
-0.315969
-0.218624
0.0125552
0.0926359
0.277813
0.461257
0.358283
0.143731
-0.114235
-0.463149
-0.127958
0.0870507
0.264802
0.309749
0.338098
0.208871
0.0336575
-0.132956
-0.210332
-0.306106
-0.287451
-0.284844
-0.0187379
0.141153
0.281155
0.306453
0.294846
0.0688768
-0.084581
-0.274633
-0.136612
0.122717
0.158373
0.180962
0.256188
0.125972
0.0554031
-0.0329076
-0.254748
-0.241744
-0.30591
-0.138333
-0.0672847
0.107196
0.169425
0.206495
0.242697
0.106959
-0.0702861
-0.23397
-0.0835145
0.0892232
0.154428
0.158309
0.124212
0.0306845
-0.00842828
-0.000409073
-0.182459
-0.226494
-0.228173
-0.0248536
-0.00628804
0.116117
0.10906
0.198069
0.104851
0.0493677
-0.130669
-0.076566
-0.0478305
0.0428702
0.0780832
0.0558199
0.169319
0.0239058
0.0688202
0.0447226
-0.076633
-0.0617437
-0.144011
-0.124151
-0.0583757
-0.00416728
-0.00575565
0.0545166
0.0890326
0.0163951
-0.0651829
-0.0527525
0.0518561
0.0120694
0.0730079
-0.0301363
-0.0234295
-0.0725831
0.081222
0.0213033
0.0154928
0.0421007
-0.0166616
-0.00233458
0.0318655
-0.0251882
0.0815813
0.0284277
0.0293799
-0.0139285
-0.055052
-0.918371
-0.371989
0.0766618
0.269872
0.547441
0.472896
0.304317
0.171388
-0.0979893
-0.287155
-0.423162
-0.335516
-0.183708
0.0261961
0.495345
0.665289
0.710271
0.604489
0.404225
0.0302621
-0.584055
-0.301855
0.0611014
0.367603
0.517602
0.428525
0.339216
0.104029
-0.116525
-0.205831
-0.287324
-0.29794
-0.164923
0.0663968
0.335562
0.547101
0.589579
0.484641
0.320598
0.0350625
-0.588301
-0.16255
0.0235722
0.240191
0.401762
0.396156
0.301455
0.144855
-0.122073
-0.196274
-0.265167
-0.253394
-0.141818
0.0722901
0.269857
0.470369
0.466628
0.381727
0.285551
-0.0429861
-0.520292
-0.18372
0.126516
0.238188
0.286177
0.293279
0.224625
0.0934147
-0.152857
-0.186005
-0.306594
-0.231656
-0.0694886
0.00138015
0.244385
0.264472
0.357831
0.277428
0.177111
0.00574028
-0.235557
0.00851798
0.0245428
0.143746
0.225705
0.263204
0.14076
0.0525449
-0.0191619
-0.179872
-0.130795
-0.185077
-0.115137
-0.0264934
0.202095
0.276301
0.309663
0.284079
0.194279
-0.011908
-0.208253
-0.0863246
0.0672861
0.219986
0.200328
0.121474
0.119568
0.0666517
-0.00376956
-0.0621333
-0.133403
-0.182008
0.0214039
-0.0431821
0.144692
0.13034
0.177599
0.184652
-0.036814
0.0386391
-0.171496
-0.0369043
0.0156804
0.0916247
0.0895946
0.128427
0.00205268
0.0126324
-0.0730094
-0.0437797
-0.0704453
-0.0602389
-0.0883264
0.0777701
-0.00329569
0.0279273
0.160782
0.0791326
0.0568473
0.0246204
-0.112267
0.0117559
-0.00961524
0.0107668
0.0763793
0.0543744
0.0685435
0.0222093
0.0269182
-0.0591267
0.00388905
0.0065311
0.0194289
-0.00790695
0.0109726
0.0665499
0.076532
0.0480457
0.0145867
0.0368501
-0.824665
-0.280968
0.151882
0.394318
0.512893
0.519826
0.451162
0.26515
0.0364834
-0.18681
-0.168294
-0.163973
0.069443
0.274001
0.583207
0.798802
0.847465
0.853064
0.589237
0.244852
-0.536656
-0.174759
0.137579
0.365934
0.61613
0.537125
0.396088
0.275745
0.0201831
-0.0196391
-0.186016
-0.142901
-0.00999783
0.247747
0.424248
0.7235
0.705677
0.701409
0.368194
0.240487
-0.448311
-0.0770558
0.145455
0.388349
0.457087
0.453989
0.399422
0.203098
0.0359883
-0.135678
-0.136471
-0.173253
0.008268
0.196533
0.339559
0.465577
0.56877
0.56564
0.36828
0.128054
-0.337152
-0.0753901
0.191162
0.293414
0.427736
0.368569
0.269394
0.139194
0.0885615
-0.114481
-0.176141
-0.114716
0.00012585
0.149866
0.350203
0.453066
0.418482
0.473983
0.340777
0.0642933
-0.26634
-0.0530339
0.186436
0.290594
0.261245
0.321068
0.267854
0.109917
-0.0400847
-0.0322598
-0.0684994
-0.110917
0.0197739
0.108011
0.217757
0.356301
0.362954
0.311157
0.162853
0.091823
-0.121759
-0.0796937
0.0822467
0.213945
0.177602
0.249141
0.203986
0.0742807
0.0383977
-0.0251523
-0.0746655
-0.0438001
0.031441
0.0446679
0.132539
0.242312
0.167482
0.270916
0.197806
0.0628091
-0.134756
-0.0208216
-0.0138086
0.0658026
0.113173
0.182166
0.179128
0.0584567
-0.00807043
0.00446631
-0.105473
-0.0385231
0.0466982
0.0276922
0.107763
0.150402
0.14206
0.113049
0.129462
-0.043867
-0.054694
0.0648614
-0.0270048
-0.0382637
0.0188633
0.0998015
0.0312911
-0.00627006
0.0260985
0.0166117
-0.0279033
0.0578386
0.00991822
0.057824
0.0316461
0.0691822
0.0152407
-0.00327724
0.0266769
-0.0162032
-0.558488
-0.152237
0.251848
0.543066
0.727358
0.730042
0.62361
0.450566
0.373685
0.176368
0.0817357
0.0852817
0.366254
0.56541
0.781425
0.999224
1.17777
1.00631
0.775183
0.539336
-0.393379
-0.0158671
0.356727
0.484782
0.692738
0.640456
0.536329
0.383455
0.247217
0.00896283
0.0867688
0.152336
0.259519
0.460323
0.753307
0.871333
1.00573
0.860314
0.747412
0.427892
-0.269323
-0.0340302
0.347384
0.48393
0.611986
0.537103
0.457997
0.314961
0.274559
0.105966
0.10047
0.135376
0.196516
0.374912
0.578191
0.751158
0.737445
0.745007
0.525153
0.298755
-0.209342
0.0769101
0.223592
0.425869
0.467483
0.480595
0.44071
0.33225
0.230628
0.0867057
0.0716525
0.14774
0.105774
0.215185
0.449119
0.548872
0.571263
0.548212
0.517955
0.207464
-0.146523
0.0778632
0.250409
0.319748
0.36306
0.341177
0.305533
0.199852
0.222308
-0.00264817
0.0283315
-0.000937775
0.175842
0.227427
0.360657
0.403857
0.452865
0.467585
0.278141
0.219153
-0.131855
0.0194622
0.197968
0.234881
0.254214
0.297765
0.238621
0.144858
0.0915704
0.0193423
-0.0080931
0.0924835
0.0238785
0.0976375
0.198427
0.317654
0.324384
0.337078
0.189838
0.122348
-0.0897991
0.084761
0.0530104
0.219373
0.157351
0.148957
0.182881
0.0569909
0.0560218
0.0075761
0.0335636
0.011459
0.0842533
0.0321605
0.136714
0.195274
0.253154
0.157242
0.0855865
0.105063
-0.0615207
0.0594916
0.0832658
0.0351129
0.0410838
0.0918357
0.0109346
0.000650362
0.0188972
-0.0810573
-0.0495897
0.0116494
0.0139856
-0.00709364
0.0771527
0.0879471
0.107361
0.0640101
0.00499794
0.106228
-0.358698
0.159739
0.547109
0.819345
1.01597
0.903615
0.841656
0.780542
0.599171
0.513841
0.533015
0.516588
0.748363
0.955077
1.12163
1.41692
1.45372
1.34778
1.09332
0.837282
-0.164404
0.136911
0.495273
0.795498
0.876904
0.904674
0.803801
0.712231
0.538826
0.467754
0.467498
0.521836
0.635177
0.750951
0.997155
1.25419
1.24977
1.16782
0.962435
0.685081
-0.0896112
0.138367
0.423161
0.670238
0.728605
0.719035
0.663424
0.607327
0.422295
0.331548
0.344432
0.426001
0.582768
0.679099
0.818186
0.940123
1.02349
0.900841
0.797338
0.609402
-0.0405372
0.172214
0.320246
0.564396
0.72103
0.573835
0.574658
0.514177
0.416194
0.349854
0.232414
0.320065
0.404065
0.560281
0.689967
0.820377
0.79744
0.694741
0.662142
0.422831
-0.059959
0.104753
0.31445
0.430824
0.50775
0.502839
0.536838
0.427657
0.284528
0.221473
0.264464
0.182084
0.325632
0.3675
0.497575
0.572593
0.603638
0.572245
0.467824
0.323077
-0.000147018
0.148715
0.250034
0.30447
0.429627
0.366352
0.292386
0.262186
0.266614
0.223648
0.176561
0.127258
0.150923
0.194146
0.304096
0.448908
0.4282
0.450184
0.369848
0.252165
-0.0216677
-0.00168157
0.179296
0.17183
0.28303
0.235247
0.260473
0.264337
0.139093
0.140193
0.0685809
0.0866254
0.116334
0.175695
0.196953
0.182333
0.2876
0.238613
0.129644
0.165288
0.0124549
0.00035115
0.0853343
0.081162
-0.0134115
0.116665
0.0696765
0.0127958
0.0209205
0.000354796
0.00752943
0.039476
-0.0076263
0.0526374
0.0852509
0.0710001
0.118541
0.027612
0.0738665
0.0694492
0.0261611
0.444305
0.839491
1.08971
1.32562
1.30752
1.26419
1.19873
0.975098
1.00542
0.952274
1.00312
1.1554
1.46106
1.63857
1.79514
1.85389
1.77947
1.48642
1.19214
0.130473
0.519748
0.744752
1.01091
1.15762
1.18485
1.13585
1.07214
0.872883
0.85709
0.790094
0.774134
0.921814
1.16154
1.32192
1.56331
1.47892
1.45819
1.32815
0.979104
0.178761
0.388199
0.724456
0.917215
0.990278
0.998331
0.90367
0.839656
0.818321
0.662946
0.753147
0.657637
0.784966
0.942738
1.1276
1.21741
1.26118
1.21653
1.12152
0.820727
0.0608149
0.320271
0.512726
0.687756
0.794763
0.795493
0.744709
0.681444
0.561264
0.523386
0.625588
0.488434
0.695929
0.748359
0.840509
1.01342
1.0329
1.02677
0.836802
0.689638
0.143569
0.341662
0.478796
0.560174
0.679696
0.576205
0.689543
0.515888
0.432309
0.411466
0.393471
0.503539
0.56127
0.642744
0.660795
0.788152
0.727122
0.747869
0.694115
0.521603
0.0407678
0.255462
0.359452
0.393892
0.45279
0.401176
0.433879
0.349714
0.430262
0.307622
0.283626
0.332283
0.322725
0.356906
0.501945
0.528807
0.560524
0.561876
0.428748
0.365446
-0.0226712
0.15268
0.19775
0.271944
0.366727
0.228651
0.278101
0.23219
0.164276
0.226261
0.0770434
0.182958
0.310604
0.180314
0.328634
0.194213
0.380519
0.34871
0.341845
0.220166
0.0332628
0.0343249
0.0402169
0.0815115
0.0614464
0.139098
0.0691974
0.154947
0.0923199
0.0715427
0.0519157
0.071929
0.0324803
0.104332
0.0596473
0.133404
0.0855792
0.0910445
0.0176401
0.060852
0.356884
0.905036
1.19774
1.48314
1.62778
1.7227
1.67783
1.6164
1.55489
1.47585
1.42396
1.5566
1.62187
1.87035
2.03188
2.20768
2.24362
2.24166
1.98509
1.67136
0.36975
0.767812
1.03656
1.36252
1.46034
1.53181
1.54285
1.38595
1.27599
1.32339
1.30136
1.3376
1.41924
1.57517
1.73972
1.84648
1.94619
1.87001
1.67199
1.42925
0.336017
0.668319
0.970444
1.15675
1.23953
1.26324
1.23896
1.13103
1.10973
1.06287
1.08481
1.16847
1.1836
1.34894
1.47858
1.57527
1.65725
1.52148
1.41724
1.16001
0.382767
0.695115
0.759788
0.901558
1.02664
1.01831
1.07195
0.919159
0.864135
0.817415
0.900661
0.949408
1.02088
1.1202
1.12375
1.26674
1.25056
1.25614
1.13147
0.941443
0.168426
0.434253
0.632824
0.747001
0.819613
0.838333
0.800481
0.706561
0.642218
0.604834
0.648424
0.632133
0.77816
0.821932
0.866826
0.875784
0.973922
0.941896
0.842074
0.706455
0.270972
0.416304
0.457285
0.53593
0.564657
0.621038
0.515075
0.497471
0.48376
0.389986
0.484739
0.47233
0.52567
0.647781
0.642436
0.637176
0.710799
0.643074
0.648015
0.566921
0.0634264
0.196388
0.185896
0.364755
0.348693
0.422233
0.433514
0.325749
0.341038
0.318763
0.287614
0.319209
0.367775
0.388102
0.383669
0.412132
0.423121
0.510808
0.372131
0.290437
0.0818209
0.00800078
0.0953076
0.046975
0.124353
0.106086
0.0583078
0.0593152
0.104734
0.120512
0.136444
0.079139
0.116189
0.191712
0.156528
0.204617
0.199185
0.198153
0.0899555
0.149679
0.809173
1.17009
1.66813
1.86087
2.05445
2.19369
2.10732
2.149
2.05737
1.95852
2.04134
2.15796
2.1939
2.39449
2.61186
2.61555
2.76375
2.6401
2.48545
2.18205
0.761727
1.09564
1.38421
1.67094
1.82791
1.84447
1.79779
1.77332
1.72139
1.72713
1.80524
1.71797
1.80871
2.02082
2.22918
2.279
2.3812
2.27741
2.03313
1.87955
0.643165
0.939152
1.22357
1.42801
1.52264
1.61581
1.57702
1.52041
1.53235
1.45684
1.44476
1.53724
1.6204
1.73649
1.85528
1.87397
1.97124
1.87595
1.76253
1.53541
0.561827
0.836284
1.05773
1.22818
1.21259
1.27667
1.28391
1.24412
1.22708
1.22317
1.16855
1.22506
1.30759
1.36886
1.45369
1.5897
1.58282
1.45344
1.35143
1.24264
0.507624
0.65517
0.823968
0.92609
0.947977
0.962408
1.00544
0.99061
0.946127
0.959181
0.873867
0.938288
0.983008
1.09942
1.1022
1.23683
1.22316
1.17549
1.04518
0.893123
0.316817
0.46159
0.535916
0.683732
0.678852
0.679347
0.762338
0.707731
0.715594
0.620759
0.709448
0.76116
0.69557
0.781876
0.763726
0.850462
0.888409
0.839957
0.743249
0.707269
0.240045
0.312786
0.267446
0.367202
0.359826
0.444797
0.4937
0.435042
0.343758
0.422976
0.386851
0.392149
0.506994
0.454459
0.4988
0.577162
0.514801
0.467352
0.446916
0.316451
0.0450822
0.112304
0.12996
0.0782093
0.158901
0.143
0.110447
0.194372
0.10896
0.134321
0.143817
0.131475
0.126594
0.165194
0.153066
0.123006
0.161333
0.154627
0.162378
0.166492
1.15067
1.5414
2.03471
2.27898
2.38024
2.60942
2.55215
2.63483
2.54666
2.6008
2.60761
2.6286
2.80551
2.92263
3.07064
3.14173
3.13726
3.10469
2.82866
2.56709
1.08097
1.38872
1.74259
2.04632
2.24574
2.188
2.27524
2.22431
2.26868
2.12935
2.17778
2.28767
2.34563
2.50953
2.6523
2.72373
2.73698
2.6638
2.37604
2.17821
1.00391
1.25959
1.52328
1.72581
1.8542
1.95911
1.94085
1.82026
1.88113
1.80197
1.80577
1.84542
1.94037
2.06163
2.19024
2.24903
2.28947
2.21668
2.05832
1.86365
0.817876
1.04196
1.31449
1.47138
1.52302
1.49657
1.55072
1.44925
1.48728
1.47231
1.42124
1.48713
1.66921
1.70088
1.79121
1.84862
1.79656
1.8117
1.57964
1.44693
0.580388
0.759202
0.976306
1.0836
1.19674
1.24884
1.20784
1.21842
1.0789
1.16369
1.23361
1.15263
1.2516
1.28977
1.32723
1.34937
1.4742
1.38235
1.28068
1.15677
0.401543
0.600786
0.757751
0.833533
0.835312
0.908742
0.91064
0.872151
0.871727
0.794204
0.840831
0.869377
0.801187
0.896213
1.0027
0.927163
0.995151
1.0398
0.924742
0.852858
0.305813
0.419699
0.395606
0.533819
0.41345
0.521782
0.477198
0.531482
0.503171
0.563415
0.527903
0.500099
0.604609
0.506002
0.567299
0.61114
0.653041
0.559459
0.50568
0.461771
0.0866947
0.162871
0.128789
0.168732
0.159546
0.181514
0.1509
0.183795
0.108004
0.138913
0.149318
0.155648
0.152502
0.196826
0.259404
0.146447
0.217062
0.187204
0.151722
0.142168
1.50959
1.93438
2.35865
2.64393
2.87568
2.83284
2.93264
2.96554
2.91452
2.88156
3.05529
3.02639
3.17531
3.40053
3.59204
3.59254
3.58254
3.44937
3.1714
2.90576
1.24925
1.77283
2.12135
2.25958
2.53848
2.50587
2.52471
2.52259
2.51912
2.53415
2.56603
2.72384
2.70565
2.78882
2.9609
2.95849
3.03502
2.93787
2.73806
2.43503
1.19682
1.44749
1.75182
1.92086
2.11895
2.13233
2.13399
2.1702
2.0688
2.11513
2.18298
2.17768
2.26966
2.35206
2.41749
2.5779
2.50682
2.48335
2.22328
2.05778
1.00742
1.20095
1.38153
1.58825
1.71098
1.65636
1.72846
1.71605
1.72811
1.72129
1.70733
1.83354
1.7635
1.8996
1.97991
1.97837
2.07692
1.96539
1.88623
1.66395
0.778174
0.988189
1.09176
1.25829
1.35186
1.30225
1.3051
1.30992
1.34615
1.30537
1.33804
1.35256
1.37895
1.5256
1.47003
1.57028
1.56519
1.52963
1.4031
1.22823
0.549344
0.699566
0.775303
0.911642
0.939982
0.985446
0.900042
0.889339
0.946208
0.957382
0.953213
0.911475
1.03778
1.03306
1.11643
1.11382
1.06676
1.09255
1.00878
0.937442
0.345366
0.431937
0.50797
0.538713
0.576581
0.584018
0.540885
0.606671
0.656686
0.553877
0.621602
0.568566
0.644383
0.64127
0.636953
0.644928
0.683716
0.638067
0.692739
0.552942
0.118608
0.091681
0.158671
0.193938
0.255891
0.261092
0.218116
0.193709
0.249514
0.217617
0.211311
0.162908
0.184541
0.256036
0.16808
0.175843
0.224984
0.246592
0.136594
0.172945
)
;

boundaryField
{
    hotSide
    {
        type            calculated;