/*--------------------------------*- C++ -*----------------------------------*\
| =========                 |                                                 |
| \\      /  F ield         | OpenFOAM: The Open Source CFD Toolbox           |
|  \\    /   O peration     | Version:  2212                                  |
|   \\  /    A nd           | Website:  www.openfoam.com                      |
|    \\/     M anipulation  |                                                 |
\*---------------------------------------------------------------------------*/
FoamFile
{
    version     2.0;
    format      ascii;
    arch        "LSB;label=32;scalar=64";
    class       volScalarField;
    location    "0";
    object      stateMean;
}
// * * * * * * * * * * * * * * * * * * * * * * * * * * * * * * * * * * * * * //

dimensions      [0 0 0 1 0 0 0];

internalField   nonuniform List<scalar> 
3200
(
319.286
318.806
318.571
318.529
318.686
318.971
319.325
319.674
320.067
320.127
320.081
319.927
319.791
319.454
319.003
318.61
318.3
318.154
318.35
318.621
316.63
316.35
316.045
315.959
316.245
316.455
316.698
317.105
317.345
317.401
317.442
317.424
317.186
316.917
316.523
316.178
315.893
315.792
315.946
316.184
314.02
313.68
313.581
313.611
313.754
313.934
314.181
314.459
314.653
314.763
314.84
314.749
314.592
314.303
314.048
313.68
313.494
313.458
313.49
313.736
311.473
311.342
311.064
311.154
311.161
311.433
311.626
311.884
312
312.123
312.164
312.124
311.872
311.695
311.497
311.238
311.049
310.976
310.961
311.364
308.832
308.748
308.676
308.643
308.715
308.869
309.038
309.263
309.31
309.417
309.481
309.364
309.297
309.143
308.877
308.812
308.591
308.589
308.596
308.731
306.379
306.192
306.156
306.184
306.252
306.289
306.396
306.588
306.769
306.802
306.768
306.73
306.647
306.555
306.294
306.28
306.21
306.171
306.231
306.194
303.834
303.76
303.666
303.695
303.742
303.811
303.94
303.974
303.981
304.08
303.991
304.034
304.04
303.875
303.849
303.787
303.742
303.712
303.657
303.781
301.25
301.293
301.155
301.259
301.212
301.29
301.324
301.328
301.291
301.333
301.357
301.34
301.388
301.324
301.273
301.191
301.244
301.202
301.27
301.229
319.265
318.864
318.599
318.591
318.737
319.111
319.484
319.915
320.129
320.277
320.38
320.286
320.007
319.567
319.19
318.768
318.379
318.244
318.343
318.679
316.644
316.314
316.083
316.094
316.261
316.563
316.912
317.2
317.477
317.665
317.698
317.584
317.435
317.103
316.588
316.247
315.978
315.823
315.95
316.214
314.063
313.817
313.632
313.663
313.722
314.025
314.324
314.555
314.777
314.916
314.957
314.813
314.704
314.364
314.089
313.832
313.522
313.408
313.524
313.772
311.466
311.197
311.117
311.155
311.302
311.424
311.693
311.907
312.131
312.165
312.256
312.185
312.054
311.846
311.532
311.238
311.119
311.002
311.088
311.287
308.884
308.699
308.622
308.718
308.765
308.955
309.148
309.298
309.508
309.635
309.59
309.533
309.361
309.18
309.047
308.713
308.709
308.667
308.673
308.706
306.357
306.214
306.216
306.106
306.243
306.349
306.491
306.602
306.787
306.812
306.852
306.799
306.754
306.54
306.384
306.335
306.172
306.174
306.144
306.228
303.753
303.726
303.726
303.67
303.723
303.882
303.866
304.002
304.02
304.074
304.106
304.084
304.007
303.978
303.867
303.792
303.781
303.708
303.67
303.804
301.309
301.265
301.234
301.302
301.178
301.307
301.382
301.288
301.327
301.35
301.341
301.36
301.342
301.358
301.259
301.278
301.281
301.165
301.218
301.339
319.463
318.9
318.772
318.806
318.998
319.334
319.757
320.095
320.444
320.596
320.81
320.624
320.342
319.894
319.397
318.933
318.547
318.374
318.546
318.677
316.789
316.447
316.188
316.199
316.515
316.765
317.109
317.516
317.756
317.883
317.943
317.823
317.654
317.274
316.904
316.481
316.177
316.017
316.072
316.28
314.126
313.928
313.779
313.722
313.912
314.126
314.499
314.845
314.966
315.193
315.242
315.137
314.903
314.602
314.28
314.03
313.748
313.616
313.58
313.799
311.552
311.382
311.242
311.22
311.357
311.546
311.817
312.025
312.304
312.492
312.388
312.385
312.195
312.072
311.644
311.459
311.162
311.146
311.145
311.315
309.023
308.783
308.763
308.751
308.789
308.976
309.194
309.403
309.582
309.646
309.798
309.688
309.498
309.269
309.091
308.927
308.711
308.744
308.672
308.887
306.305
306.338
306.173
306.233
306.287
306.398
306.656
306.652
306.878
306.932
306.977
306.878
306.758
306.69
306.524
306.379
306.25
306.183
306.225
306.296
303.889
303.734
303.774
303.753
303.817
303.858
303.956
304.035
304.099
304.215
304.165
304.129
304.045
304.021
303.946
303.896
303.761
303.685
303.739
303.774
301.297
301.293
301.311
301.229
301.238
301.319
301.361
301.433
301.384
301.429
301.428
301.364
301.402
301.311
301.289
301.284
301.295
301.285
301.205
301.248
319.519
319.214
319.016
318.941
319.254
319.666
320.068
320.428
320.831
321.064
321.197
321.043
320.682
320.223
319.699
319.273
318.858
318.649
318.769
318.955
316.983
316.677
316.467
316.476
316.674
317.009
317.396
317.729
318.051
318.27
318.328
318.175
317.906
317.602
317.189
316.721
316.408
316.206
316.301
316.461
314.325
314.113
313.952
313.965
314.165
314.348
314.699
315.122
315.231
315.427
315.523
315.395
315.216
314.891
314.545
314.131
313.916
313.721
313.843
313.983
311.762
311.466
311.269
311.399
311.563
311.735
312.019
312.279
312.511
312.656
312.72
312.657
312.429
312.242
311.983
311.638
311.427
311.243
311.259
311.378
309.062
308.906
308.812
308.881
309.005
309.194
309.352
309.595
309.682
309.771
309.921
309.841
309.663
309.573
309.297
309.028
308.831
308.825
308.797
308.939
306.426
306.371
306.259
306.406
306.422
306.518
306.762
306.798
306.938
307.061
307.072
307.075
306.937
306.832
306.649
306.462
306.409
306.284
306.359
306.323
303.811
303.884
303.716
303.809
303.892
303.964
304.016
304.157
304.225
304.245
304.233
304.216
304.169
304.085
304.052
303.931
303.742
303.721
303.789
303.859
301.283
301.193
301.244
301.282
301.332
301.362
301.378
301.441
301.374
301.447
301.493
301.409
301.418
301.408
301.415
301.311
301.253
301.26
301.285
301.243
319.85
319.564
319.398
319.371
319.552
319.974
320.382
320.927
321.171
321.533
321.621
321.517
321.123
320.645
320.143
319.608
319.184
318.945
319.06
319.211
317.232
316.918
316.728
316.803
317.027
317.296
317.688
318.165
318.457
318.672
318.751
318.614
318.372
317.921
317.508
317.053
316.684
316.455
316.504
316.707
314.526
314.243
314.176
314.138
314.34
314.678
314.988
315.298
315.628
315.794
315.859
315.793
315.537
315.216
314.838
314.403
314.131
314.021
314.022
314.226
311.911
311.705
311.507
311.495
311.786
312.019
312.199
312.566
312.752
312.944
313.021
312.956
312.773
312.476
312.065
311.781
311.66
311.479
311.479
311.578
309.246
309.118
309.026
309.003
309.147
309.326
309.525
309.809
309.909
310.048
310.144
310.016
309.872
309.66
309.536
309.252
308.987
308.894
308.984
309.08
306.566
306.481
306.481
306.396
306.56
306.683
306.776
306.984
307.15
307.147
307.166
307.211
307.139
306.9
306.764
306.664
306.447
306.356
306.366
306.48
303.976
303.909
303.886
303.914
303.953
303.957
304.14
304.186
304.329
304.322
304.356
304.328
304.255
304.19
304.029
303.957
303.892
303.814
303.881
303.903
301.318
301.312
301.241
301.303
301.394
301.386
301.36
301.337
301.517
301.384
301.466
301.435
301.39
301.412
301.409
301.295
301.339
301.363
301.322
301.333
320.282
319.995
319.654
319.761
320.09
320.453
320.812
321.225
321.696
322.003
322.104
321.992
321.555
321.068
320.587
320.046
319.639
319.407
319.367
319.615
317.462
317.224
317.083
317.197
317.337
317.683
318.094
318.431
318.769
319.09
319.22
319.033
318.78
318.349
317.79
317.348
317.066
316.865
316.898
317.022
314.764
314.609
314.49
314.507
314.648
314.918
315.314
315.638
315.899
316.163
316.275
316.108
315.972
315.618
315.196
314.781
314.519
314.279
314.359
314.473
312.069
311.869
311.817
311.826
311.969
312.234
312.536
312.857
313.051
313.211
313.322
313.273
312.995
312.796
312.368
312.103
311.835
311.726
311.722
311.83
309.335
309.266
309.134
309.249
309.367
309.557
309.764
310.036
310.142
310.28
310.345
310.31
310.223
309.977
309.724
309.364
309.266
309.154
309.18
309.24
306.743
306.666
306.632
306.517
306.609
306.787
306.93
307.146
307.24
307.359
307.464
307.379
307.279
307.078
306.95
306.816
306.547
306.52
306.467
306.577
304.018
303.859
303.981
303.989
303.921
304.084
304.2
304.287
304.411
304.441
304.448
304.473
304.418
304.309
304.181
304.044
303.991
304.004
303.941
303.976
301.301
301.328
301.334
301.354
301.278
301.363
301.459
301.425
301.484
301.474
301.472
301.488
301.504
301.41
301.386
301.384
301.435
301.378
301.392
301.27
320.676
320.367
320.157
320.218
320.432
320.764
321.299
321.807
322.168
322.532
322.593
322.469
322.127
321.65
321.091
320.478
320.084
319.78
319.774
320.017
317.909
317.589
317.445
317.468
317.769
318.115
318.45
318.862
319.24
319.555
319.681
319.5
319.266
318.706
318.25
317.789
317.4
317.184
317.226
317.38
315.075
314.862
314.782
314.775
314.964
315.291
315.633
315.94
316.33
316.546
316.537
316.543
316.281
315.901
315.5
315.097
314.776
314.657
314.607
314.771
312.407
312.075
312.089
312.034
312.198
312.495
312.873
313.05
313.382
313.507
313.606
313.575
313.402
313.035
312.73
312.411
312.082
312.047
311.996
312.015
309.598
309.435
309.373
309.341
309.546
309.739
309.956
310.127
310.332
310.559
310.563
310.599
310.325
310.279
309.873
309.64
309.443
309.326
309.337
309.344
306.89
306.718
306.688
306.625
306.887
306.898
307.117
307.224
307.469
307.499
307.57
307.528
307.467
307.311
307.126
306.968
306.83
306.687
306.639
306.859
304.198
304.113
304.028
304.075
304.147
304.171
304.268
304.361
304.55
304.566
304.507
304.587
304.446
304.318
304.21
304.193
304.124
303.972
303.989
304.071
301.393
301.393
301.333
301.289
301.416
301.396
301.349
301.446
301.432
301.505
301.55
301.5
301.503
301.457
301.458
301.393
301.357
301.323
301.362
301.375
321.161
320.757
320.707
320.634
320.904
321.291
321.775
322.199
322.646
322.982
323.201
323.021
322.609
322.134
321.534
320.928
320.563
320.268
320.274
320.461
318.267
317.992
317.91
317.912
318.175
318.518
318.928
319.192
319.636
319.978
320.061
319.96
319.693
319.199
318.693
318.311
317.838
317.62
317.578
317.743
315.501
315.263
315.103
315.129
315.373
315.636
315.944
316.297
316.694
316.895
317.015
316.875
316.606
316.313
315.883
315.405
315.16
314.947
314.981
315.115
312.655
312.487
312.375
312.428
312.464
312.799
313.106
313.406
313.694
313.795
313.898
313.885
313.664
313.318
313.054
312.666
312.323
312.231
312.262
312.407
309.833
309.691
309.608
309.683
309.756
309.891
310.141
310.453
310.676
310.754
310.871
310.716
310.649
310.458
310.163
309.856
309.716
309.637
309.509
309.537
306.972
306.895
306.972
306.947
307.017
307.132
307.227
307.405
307.551
307.736
307.72
307.778
307.597
307.459
307.258
307.066
306.897
306.809
306.839
306.863
304.195
304.173
304.102
304.155
304.253
304.302
304.444
304.487
304.567
304.59
304.737
304.709
304.615
304.444
304.345
304.207
304.087
304.14
304.198
304.261
301.359
301.45
301.34
301.333
301.363
301.399
301.404
301.507
301.551
301.534
301.576
301.5
301.549
301.437
301.463
301.458
301.35
301.338
301.395
301.474
321.675
321.39
321.165
321.236
321.481
321.836
322.247
322.741
323.191
323.483
323.636
323.51
323.076
322.607
322.021
321.426
321.001
320.72
320.765
320.889
318.657
318.443
318.348
318.392
318.56
318.919
319.218
319.634
320.014
320.357
320.506
320.412
320.058
319.614
319.052
318.583
318.305
318.007
318.043
318.106
315.776
315.656
315.521
315.497
315.757
315.948
316.323
316.72
317.05
317.302
317.349
317.245
316.969
316.622
316.117
315.84
315.501
315.283
315.295
315.349
312.931
312.707
312.658
312.726
312.794
313.076
313.354
313.669
313.941
314.215
314.165
314.179
313.991
313.571
313.306
312.959
312.674
312.544
312.462
312.571
310.049
309.934
309.814
309.911
310.049
310.141
310.368
310.607
310.786
311.014
311.121
311.056
310.859
310.632
310.37
310.071
309.881
309.792
309.756
309.831
307.088
307.133
307.073
307.015
307.184
307.232
307.409
307.6
307.806
307.818
307.895
307.884
307.789
307.565
307.404
307.251
307.036
307.023
307.058
306.976
304.262
304.328
304.18
304.254
304.212
304.415
304.401
304.568
304.681
304.727
304.77
304.759
304.688
304.495
304.485
304.325
304.276
304.199
304.191
304.218
301.382
301.344
301.45
301.329
301.409
301.467
301.515
301.518
301.582
301.633
301.638
301.573
301.539
301.495
301.518
301.463
301.435
301.42
301.43
301.389
322.148
321.864
321.732
321.683
322.012
322.282
322.684
323.187
323.645
323.912
324.072
323.908
323.566
323.01
322.518
321.883
321.536
321.238
321.217
321.367
319.065
319.002
318.768
318.878
319.031
319.278
319.755
320.083
320.447
320.719
320.917
320.815
320.424
320.024
319.478
319.06
318.7
318.479
318.372
318.536
316.307
315.985
315.879
315.898
316.089
316.359
316.707
316.998
317.328
317.659
317.743
317.553
317.382
316.924
316.506
316.155
315.737
315.74
315.773
315.685
313.191
313.056
313.012
313.023
313.11
313.315
313.608
313.876
314.175
314.389
314.476
314.402
314.235
313.877
313.578
313.226
313.002
312.856
312.746
312.895
310.258
310.17
310.119
310.074
310.271
310.398
310.614
310.845
311.009
311.207
311.262
311.258
311.138
310.799
310.51
310.351
310.195
310.093
309.949
310.046
307.434
307.231
307.238
307.326
307.284
307.375
307.586
307.769
307.887
308.041
308.031
308.028
307.887
307.764
307.555
307.389
307.264
307.228
307.051
307.176
304.513
304.403
304.415
304.326
304.442
304.407
304.538
304.7
304.83
304.867
304.739
304.838
304.811
304.644
304.542
304.509
304.35
304.318
304.322
304.251
301.451
301.379
301.442
301.471
301.486
301.501
301.536
301.583
301.671
301.641
301.571
301.594
301.557
301.473
301.521
301.538
301.458
301.46
301.383
301.396
322.752
322.498
322.277
322.33
322.495
322.781
323.184
323.577
324.075
324.334
324.493
324.279
323.969
323.452
322.821
322.403
321.95
321.796
321.681
321.808
319.549
319.387
319.276
319.292
319.412
319.806
320.117
320.517
320.874
321.122
321.187
321.062
320.792
320.343
319.936
319.448
319.103
318.957
318.882
318.962
316.584
316.376
316.212
316.314
316.419
316.664
317.029
317.326
317.64
317.88
318.015
317.845
317.634
317.242
316.967
316.563
316.149
316.019
316.014
316.102
313.559
313.362
313.325
313.337
313.481
313.632
313.921
314.227
314.488
314.613
314.709
314.642
314.546
314.149
313.829
313.51
313.296
313.117
313.165
313.181
310.472
310.44
310.318
310.431
310.555
310.619
310.874
311.047
311.207
311.467
311.454
311.48
311.24
311.067
310.768
310.567
310.383
310.198
310.196
310.267
307.526
307.45
307.376
307.417
307.518
307.651
307.833
307.945
307.989
308.198
308.242
308.217
307.962
307.87
307.659
307.567
307.373
307.36
307.317
307.423
304.459
304.474
304.443
304.471
304.556
304.503
304.701
304.7
304.755
304.893
304.878
304.944
304.893
304.783
304.676
304.618
304.494
304.397
304.41
304.447
301.522
301.432
301.492
301.452
301.576
301.589
301.657
301.518
301.588
301.6
301.573
301.626
301.601
301.552
301.591
301.464
301.497
301.475
301.498
301.524
323.287
322.967
322.797
322.897
322.909
323.255
323.666
323.997
324.407
324.668
324.804
324.645
324.352
323.944
323.233
322.791
322.457
322.27
322.191
322.339
319.998
319.907
319.785
319.731
319.832
320.157
320.457
320.863
321.206
321.358
321.439
321.387
321.132
320.73
320.25
319.803
319.509
319.361
319.284
319.379
317.036
316.77
316.786
316.784
316.834
317.04
317.312
317.613
317.983
318.111
318.18
318.114
317.9
317.541
317.166
316.766
316.557
316.428
316.321
316.491
313.993
313.785
313.639
313.704
313.829
313.986
314.199
314.449
314.779
314.856
314.977
314.858
314.611
314.423
314.035
313.851
313.584
313.489
313.424
313.467
310.726
310.579
310.692
310.709
310.762
310.852
311.087
311.267
311.405
311.6
311.551
311.571
311.435
311.254
310.913
310.712
310.543
310.433
310.394
310.502
307.709
307.657
307.595
307.54
307.656
307.826
307.908
308.026
308.144
308.226
308.297
308.322
308.072
308.071
307.802
307.726
307.582
307.477
307.608
307.462
304.679
304.586
304.588
304.57
304.63
304.647
304.821
304.85
304.964
304.95
304.976
304.951
304.951
304.745
304.778
304.692
304.501
304.525
304.492
304.483
301.623
301.513
301.554
301.552
301.507
301.547
301.548
301.608
301.613
301.704
301.641
301.633
301.611
301.625
301.59
301.516
301.486
301.496
301.51
301.474
323.887
323.553
323.378
323.405
323.55
323.79
324.078
324.442
324.797
325.086
325.067
324.997
324.638
324.255
323.727
323.264
322.952
322.677
322.683
322.817
320.552
320.367
320.277
320.281
320.26
320.554
320.885
321.159
321.524
321.621
321.787
321.687
321.445
321.033
320.667
320.152
319.941
319.714
319.824
319.775
317.404
317.181
317.146
317.1
317.225
317.409
317.625
317.951
318.211
318.431
318.431
318.42
318.146
317.827
317.523
317.216
316.919
316.725
316.736
316.828
314.226
314.082
313.969
314.028
314.052
314.26
314.491
314.728
314.853
315.096
315.158
315.057
314.867
314.61
314.279
314.027
313.903
313.686
313.666
313.825
311.08
310.958
310.837
310.858
311.011
311.067
311.222
311.463
311.672
311.694
311.73
311.743
311.553
311.382
311.17
310.916
310.786
310.712
310.742
310.722
307.854
307.877
307.799
307.757
307.881
307.893
308.011
308.2
308.278
308.363
308.413
308.36
308.243
308.17
308.009
307.817
307.804
307.61
307.599
307.669
304.782
304.706
304.75
304.723
304.729
304.71
304.757
304.914
305.005
305.006
305.115
305.036
304.925
304.908
304.784
304.692
304.647
304.623
304.556
304.691
301.613
301.506
301.615
301.644
301.604
301.54
301.624
301.673
301.649
301.663
301.708
301.617
301.657
301.597
301.608
301.554
301.591
301.591
301.544
301.574
324.38
324.168
324.001
323.957
324.013
324.234
324.538
324.871
325.06
325.317
325.411
325.349
324.956
324.597
324.183
323.741
323.322
323.247
323.241
323.283
321.066
320.853
320.685
320.77
320.771
321.018
321.293
321.585
321.818
322.107
322.029
321.913
321.708
321.369
320.905
320.593
320.249
320.182
320.09
320.245
317.782
317.683
317.475
317.518
317.567
317.806
318.03
318.29
318.413
318.625
318.631
318.553
318.408
318.113
317.765
317.428
317.265
317.077
317.124
317.214
314.554
314.377
314.371
314.316
314.42
314.541
314.699
314.904
315.073
315.252
315.267
315.156
315.13
314.925
314.573
314.338
314.171
314.047
313.936
314.138
311.315
311.174
311.112
311.156
311.226
311.352
311.48
311.66
311.691
311.943
311.912
311.914
311.684
311.559
311.332
311.185
311.023
310.894
310.974
310.949
308.118
308.026
307.925
307.97
308.031
308.062
308.187
308.334
308.425
308.518
308.545
308.425
308.455
308.328
308.162
307.967
307.881
307.786
307.855
307.864
304.889
304.749
304.828
304.711
304.821
304.874
304.88
305.038
305.062
305.121
305.095
305.107
305.011
305.031
304.886
304.783
304.677
304.724
304.748
304.694
301.671
301.562
301.553
301.618
301.628
301.592
301.686
301.707
301.697
301.801
301.77
301.704
301.694
301.704
301.607
301.581
301.546
301.572
301.616
301.503
325.007
324.667
324.498
324.45
324.472
324.787
325.026
325.23
325.513
325.65
325.631
325.595
325.263
324.913
324.569
324.071
323.815
323.697
323.734
323.811
321.552
321.402
321.232
321.127
321.235
321.382
321.637
321.853
322.114
322.23
322.231
322.131
321.93
321.69
321.29
320.858
320.672
320.559
320.577
320.703
318.208
318.106
317.979
317.897
317.998
318.157
318.343
318.504
318.763
318.892
318.88
318.759
318.528
318.327
318.058
317.787
317.544
317.501
317.447
317.509
314.88
314.768
314.75
314.64
314.615
314.883
314.989
315.136
315.295
315.392
315.51
315.391
315.246
315.004
314.767
314.516
314.407
314.375
314.278
314.416
311.613
311.526
311.417
311.405
311.43
311.529
311.578
311.754
311.945
312.033
311.99
312.048
311.856
311.747
311.534
311.365
311.232
311.159
311.163
311.23
308.261
308.166
308.137
308.158
308.105
308.237
308.37
308.448
308.476
308.537
308.584
308.616
308.559
308.468
308.299
308.086
308.034
307.937
307.945
308.009
304.986
304.998
304.86
304.912
304.845
304.934
304.945
304.969
305.114
305.124
305.195
305.166
305.117
305.029
304.972
304.946
304.796
304.8
304.866
304.799
301.652
301.675
301.605
301.624
301.732
301.616
301.675
301.742
301.74
301.765
301.757
301.722
301.763
301.692
301.648
301.648
301.586
301.662
301.601
301.595
325.51
325.257
325.061
325.015
324.977
325.178
325.382
325.575
325.889
325.905
325.958
325.861
325.619
325.185
324.847
324.508
324.251
324.121
324.215
324.344
322.027
321.776
321.723
321.635
321.66
321.791
321.979
322.154
322.431
322.487
322.554
322.53
322.304
321.953
321.654
321.255
321.167
321.01
320.968
321.178
318.589
318.495
318.305
318.262
318.334
318.461
318.672
318.83
318.918
319.107
319.017
319.078
318.885
318.633
318.331
318.107
317.918
317.812
317.761
317.947
315.309
315.143
315.069
315.017
315.029
315.139
315.285
315.426
315.6
315.666
315.563
315.673
315.411
315.282
315.093
314.811
314.672
314.555
314.626
314.68
311.822
311.695
311.65
311.665
311.637
311.827
311.788
312.021
312.148
312.19
312.208
312.076
311.976
311.835
311.742
311.529
311.498
311.381
311.343
311.444
308.514
308.351
308.312
308.346
308.353
308.466
308.486
308.613
308.563
308.701
308.725
308.661
308.64
308.563
308.365
308.277
308.179
308.109
308.177
308.19
305.164
305.018
305.012
304.979
304.924
305.099
305.082
305.154
305.24
305.187
305.336
305.221
305.075
305.18
304.999
305.097
304.87
304.861
304.829
304.921
301.691
301.7
301.707
301.679
301.713
301.647
301.728
301.651
301.72
301.743
301.763
301.74
301.774
301.693
301.726
301.641
301.675
301.656
301.716
301.663
326.12
325.724
325.613
325.515
325.55
325.62
325.808
325.985
326.126
326.246
326.298
326.124
325.979
325.616
325.311
324.97
324.754
324.569
324.644
324.806
322.6
322.33
322.219
322.054
322.113
322.184
322.298
322.554
322.734
322.723
322.745
322.672
322.521
322.266
321.976
321.727
321.471
321.386
321.426
321.541
319.118
318.892
318.723
318.673
318.722
318.82
318.949
319.142
319.222
319.299
319.277
319.164
319.089
318.839
318.604
318.387
318.173
318.172
318.143
318.294
315.547
315.321
315.364
315.334
315.317
315.426
315.458
315.68
315.783
315.855
315.771
315.698
315.578
315.41
315.32
315.077
314.985
314.868
314.885
314.989
312.233
312.032
311.917
311.89
311.902
311.961
312.066
312.213
312.315
312.372
312.329
312.325
312.142
312.044
311.932
311.846
311.663
311.608
311.624
311.695
308.595
308.496
308.515
308.498
308.529
308.529
308.683
308.739
308.779
308.887
308.792
308.791
308.71
308.55
308.508
308.457
308.323
308.329
308.264
308.299
305.264
305.159
305.205
305.063
305.115
305.075
305.092
305.223
305.224
305.255
305.286
305.246
305.181
305.138
305.113
305.052
305.005
304.88
304.983
305.037
301.704
301.787
301.712
301.773
301.708
301.737
301.795
301.801
301.761
301.748
301.733
301.787
301.744
301.661
301.686
301.627
301.621
301.609
301.705
301.636
326.638
326.416
326.086
326.063
326.033
326.042
326.258
326.319
326.483
326.618
326.536
326.382
326.274
325.971
325.624
325.471
325.16
325.114
325.101
325.265
323.042
322.825
322.682
322.543
322.527
322.641
322.799
322.913
323.028
323.054
322.976
323.031
322.877
322.576
322.256
322.076
321.833
321.789
321.888
321.924
319.511
319.313
319.15
319.071
319.096
319.113
319.247
319.38
319.42
319.523
319.535
319.415
319.28
319.088
318.874
318.745
318.528
318.498
318.489
318.619
315.938
315.743
315.62
315.553
315.666
315.692
315.763
315.865
315.925
315.951
316.005
315.927
315.801
315.678
315.515
315.289
315.198
315.225
315.228
315.257
312.334
312.247
312.155
312.133
312.187
312.243
312.261
312.323
312.402
312.406
312.491
312.41
312.331
312.167
312.103
311.898
311.836
311.804
311.857
311.949
308.863
308.76
308.741
308.65
308.71
308.76
308.72
308.809
308.825
308.932
308.844
308.78
308.821
308.7
308.675
308.539
308.446
308.437
308.479
308.473
305.275
305.227
305.307
305.241
305.281
305.226
305.203
305.282
305.388
305.316
305.352
305.34
305.21
305.243
305.172
305.064
305.093
305.107
305.093
305.199
301.804
301.745
301.738
301.802
301.732
301.758
301.8
301.723
301.813
301.79
301.78
301.791
301.79
301.745
301.748
301.768
301.719
301.713
301.695
301.683
327.231
326.97
326.63
326.542
326.591
326.498
326.672
326.682
326.835
326.814
326.807
326.753
326.511
326.301
326.036
325.829
325.684
325.56
325.682
325.815
323.517
323.318
323.097
322.93
322.86
323.036
323.051
323.183
323.194
323.363
323.314
323.175
323.061
322.816
322.572
322.382
322.239
322.176
322.331
322.42
319.81
319.645
319.495
319.407
319.389
319.384
319.488
319.678
319.665
319.769
319.765
319.701
319.558
319.367
319.153
318.994
318.844
318.801
318.847
318.95
316.214
316.063
315.883
315.82
315.858
315.967
315.984
316.142
316.143
316.178
316.229
316.143
315.922
315.834
315.673
315.532
315.494
315.385
315.525
315.585
312.67
312.547
312.402
312.367
312.324
312.336
312.433
312.467
312.636
312.567
312.497
312.562
312.433
312.351
312.258
312.172
311.977
311.996
312.025
312.093
309.067
308.907
308.801
308.778
308.827
308.799
308.837
308.907
308.929
309.018
308.971
308.932
308.978
308.852
308.705
308.735
308.617
308.519
308.583
308.616
305.382
305.291
305.346
305.239
305.391
305.309
305.378
305.343
305.384
305.331
305.366
305.387
305.269
305.349
305.264
305.193
305.12
305.183
305.205
305.226
301.82
301.751
301.796
301.766
301.785
301.773
301.812
301.785
301.865
301.837
301.827
301.817
301.816
301.766
301.696
301.799
301.718
301.738
301.762
301.765
327.606
327.303
327.023
326.885
326.793
326.963
326.972
327.025
327.136
327.2
327.027
327.025
326.816
326.504
326.204
326.076
325.946
325.933
326.066
326.21
323.949
323.527
323.305
323.294
323.138
323.281
323.357
323.434
323.491
323.502
323.47
323.286
323.251
323.093
322.826
322.718
322.519
322.488
322.562
322.763
320.101
319.936
319.738
319.677
319.583
319.664
319.743
319.771
319.917
319.894
319.826
319.808
319.671
319.525
319.379
319.124
319.091
319.007
319.16
319.24
316.405
316.28
316.186
316.069
316.031
316.163
316.158
316.223
316.247
316.273
316.287
316.141
316.176
315.986
315.839
315.764
315.58
315.603
315.595
315.748
312.758
312.601
312.565
312.469
312.441
312.552
312.6
312.637
312.629
312.685
312.652
312.622
312.568
312.379
312.384
312.223
312.162
312.127
312.186
312.308
309.119
309.006
308.98
308.892
308.912
308.91
309.032
309.073
309.036
309.036
309.04
309.071
308.924
308.899
308.779
308.738
308.737
308.662
308.697
308.731
305.461
305.396
305.349
305.348
305.339
305.358
305.423
305.375
305.337
305.447
305.379
305.425
305.338
305.323
305.305
305.271
305.203
305.219
305.135
305.253
301.827
301.861
301.804
301.779
301.727
301.73
301.781
301.811
301.759
301.793
301.8
301.846
301.82
301.743
301.823
301.807
301.748
301.716
301.816
301.773
)
;

boundaryField
{
    hotSide
    {
        type            fixedGradient;
        gradient        nonuniform List<scalar> 
400
(
321.511
322.87
325.591
329.677
335.133
341.965
350.181
359.788
370.794
383.208
397.037
412.289
428.971
447.088
466.647
487.651
510.105
534.011
559.372
586.191
323.738
325.08
327.767
331.802
337.194
343.949
352.078
361.591
372.498
384.81
398.537
413.687
430.268
448.289
467.755
488.672
511.043
534.872
560.161
586.913
326.149
327.47
330.116
334.091
339.406
346.071
354.099
363.503
374.296
386.491
400.101
415.136
431.606
449.52
468.885
489.706
511.988
535.735
560.948
587.63
328.704
330
332.597
336.503
341.73
348.292
356.205
365.485
376.15
388.215
401.695
416.604
432.954
450.753
470.009
490.73
512.919
536.579
561.714
588.325
331.33
332.599
335.142
338.97
344.099
350.546
358.332
367.477
378.003
389.928
403.271
418.047
434.27
451.949
471.095
491.712
513.807
537.382
562.439
588.978
333.918
335.158
337.643
341.389
346.414
352.74
360.392
369.397
379.779
391.562
404.765
419.407
435.503
453.065
472.101
492.618
514.622
538.114
563.096
589.569
336.321
337.531
339.959
343.622
348.544
354.751
362.274
371.142
381.385
393.031
406.101
420.618
436.595
454.047
472.983
493.409
515.33
538.747
563.663
590.076
338.36
339.543
341.92
345.509
350.339
356.44
363.847
372.595
382.718
394.244
407.2
421.608
437.485
454.844
473.695
494.045
515.897
539.253
564.114
590.478
339.852
341.015
343.352
346.885
351.645
357.665
364.985
373.643
383.675
395.113
407.984
422.312
438.116
455.407
474.197
494.491
516.294
539.606
564.428
590.758
340.643
341.795
344.11
347.613
352.334
358.311
365.584
374.193
384.176
395.567
408.393
422.679
438.443
455.699
474.456
494.722
516.498
539.788
564.589
590.901
340.643
341.795
344.11
347.613
352.334
358.311
365.584
374.193
384.176
395.567
408.393
422.679
438.443
455.699
474.456
494.722
516.498
539.788
564.589
590.901
339.852
341.015
343.352
346.885
351.645
357.665
364.985
373.643
383.675
395.113
407.984
422.312
438.116
455.407
474.197
494.491
516.294
539.606
564.428
590.758
338.36
339.543
341.92
345.509
350.339
356.44
363.847
372.595
382.718
394.244
407.2
421.608
437.485
454.844
473.695
494.045
515.897
539.253
564.114
590.478
336.321
337.531
339.959
343.622
348.544
354.751
362.274
371.142
381.385
393.031
406.101
420.618
436.595
454.047
472.983
493.409
515.33
538.747
563.663
590.076
333.918
335.158
337.643
341.389
346.414
352.74
360.392
369.397
379.779
391.562
404.765
419.407
435.503
453.065
472.101
492.618
514.622
538.114
563.096
589.569
331.33
332.599
335.142
338.97
344.099
350.546
358.332
367.477
378.003
389.928
403.271
418.047
434.27
451.949
471.095
491.712
513.807
537.382
562.439
588.978
328.704
330
332.597
336.503
341.73
348.292
356.205
365.485
376.15
388.215
401.695
416.604
432.954
450.753
470.009
490.73
512.919
536.579
561.714
588.325
326.149
327.47
330.116
334.091
339.406
346.071
354.099
363.503
374.296
386.491
400.101
415.136
431.606
449.52
468.885
489.706
511.988
535.735
560.948
587.63
323.738
325.08
327.767
331.802
337.194
343.949
352.078
361.591
372.498
384.81
398.537
413.687
430.268
448.289
467.755
488.672
511.043
534.872
560.161
586.913
321.511
322.87
325.591
329.677
335.133
341.965
350.181
359.788
370.794
383.208
397.037
412.289
428.971
447.088
466.647
487.651
510.105
534.011
559.372
586.191
)
;
    }
    coldSide
    {
        type            mixed;
        refValue        uniform 300;
        refGradient     uniform 0;
        valueFraction   uniform 0.991591;
        source          uniform 0;
        value           nonuniform List<scalar> 
400
(
300.011
300.011
300.011
300.011
300.011
300.011
300.012
300.011
300.012
300.012
300.013
300.014
300.014
300.014
300.014
300.014
300.014
300.015
300.015
300.015
300.011
300.011
300.011
300.01
300.011
300.011
300.012
300.012
300.011
300.012
300.012
300.013
300.013
300.013