/*--------------------------------*- C++ -*----------------------------------*\
| =========                 |                                                 |
| \\      /  F ield         | OpenFOAM: The Open Source CFD Toolbox           |
|  \\    /   O peration     | Version:  2212                                  |
|   \\  /    A nd           | Website:  www.openfoam.com                      |
|    \\/     M anipulation  |                                                 |
\*---------------------------------------------------------------------------*/
FoamFile
{
    version     2.0;
    format      ascii;
    arch        "LSB;label=32;scalar=64";
    class       volScalarField;
    location    "0";
    object      T;
}
// * * * * * * * * * * * * * * * * * * * * * * * * * * * * * * * * * * * * * //

dimensions      [0 0 0 1 0 0 0];

internalField   nonuniform List<scalar> 
3200
(
354.344
352.779
351.45
351.152
351.133
351.587
352.125
352.769
353.358
353.769
353.563
353.305
352.716
351.9
351.022
350.083
349.668
349.786
350.714
352.033
347.103
345.799
344.668
344.382
344.374
344.756
345.223
345.789
346.298
346.62
346.458
346.244
345.714
344.985
344.244
343.408
343.053
343.146
343.928
345.044
339.844
338.798
337.847
337.587
337.56
337.897
338.302
338.777
339.184
339.457
339.343
339.153
338.716
338.075
337.433
336.721
336.44
336.489
337.141
338.1
332.588
331.784
330.993
330.734
330.748
331.014
331.361
331.753
332.074
332.295
332.233
332.038
331.706
331.178
330.62
330.031
329.817
329.856
330.382
331.164
325.35
324.726
324.129
323.917
323.914
324.139
324.404
324.714
324.964
325.111
325.112
324.937
324.678
324.255
323.796
323.357
323.196
323.206
323.619
324.232
318.125
317.68
317.263
317.08
317.082
317.251
317.451
317.661
317.832
317.936
317.983
317.838
317.661
317.327
316.993
316.714
316.577
316.572
316.886
317.306
310.89
310.623
310.394
310.248
310.258
310.359
310.483
310.621
310.711
310.772
310.812
310.727
310.613
310.408
310.208
310.054
309.96
309.951
310.153
310.381
303.648
303.557
303.492
303.427
303.445
303.469
303.52
303.566
303.59
303.603
303.618
303.597
303.56
303.483
303.426
303.363
303.337
303.334
303.414
303.469
354.528
352.986
351.81
351.409
351.539
352.099
352.689
353.351
353.966
354.34
354.26
354.04
353.324
352.502
351.612
350.559
350.079
350.021
350.944
352.244
347.281
345.974
344.979
344.603
344.725
345.204
345.719
346.245
346.774
347.1
347.025
346.876
346.233
345.494
344.755
343.823
343.431
343.357
344.14
345.215
340.016
338.937
338.129
337.769
337.868
338.259
338.727
339.125
339.582
339.86
339.798
339.696
339.137
338.488
337.88
337.09
336.763
336.72
337.332
338.214
332.751
331.888
331.253
330.924
331.003
331.34
331.73
332.011
332.391
332.626
332.578
332.497
332.041
331.483
330.998
330.37
330.073
330.065
330.558
331.238
325.474
324.807
324.326
324.068
324.127
324.396
324.705
324.919
325.193
325.384
325.347
325.277
324.944
324.486
324.108
323.633
323.399
323.378
323.767
324.292
318.21
317.725
317.38
317.209
317.227
317.439
317.657
317.808
317.983
318.139
318.134
318.074
317.847
317.494
317.231
316.915
316.741
316.714
316.973
317.342
310.939
310.643
310.448
310.346
310.351
310.488
310.607
310.711
310.794
310.916
310.902
310.843
310.736
310.51
310.361
310.166
310.053
310.044
310.19
310.404
303.668
303.562
303.499
303.463
303.468
303.515
303.549
303.6
303.62
303.657
303.648
303.639
303.599
303.527
303.467
303.406
303.363
303.363
303.412
303.488
354.998
353.418
352.409
351.98
352.197
352.755
353.563
354.173
354.838
355.444
355.54
355.033
354.332
353.438
352.324
351.309
350.872
350.719
351.548
352.843
347.677
346.384
345.498
345.113
345.304
345.773
346.463
346.979
347.547
348.047
348.134
347.686
347.065
346.308
345.345
344.485
344.101
343.947
344.67
345.729
340.353
339.29
338.544
338.218
338.367
338.76
339.327
339.774
340.248
340.652
340.728
340.332
339.816
339.169
338.397
337.652
337.32
337.188
337.791
338.642
333.016
332.149
331.583
331.295
331.416
331.716
332.175
332.554
332.926
333.248
333.317
333.004
332.57
332.038
331.445
330.827
330.508
330.414
330.935
331.57
325.7
325.012
324.6
324.357
324.42
324.682
325.034
325.332
325.609
325.863
325.895
325.669
325.336
324.903
324.502
323.988
323.716
323.644
324.068
324.555
318.372
317.88
317.594
317.408
317.428
317.632
317.905
318.121
318.307
318.49
318.486
318.341
318.12
317.776
317.517
317.137
316.935
316.882
317.204
317.529
311.042
310.753
310.568
310.468
310.452
310.592
310.747
310.877
310.998
311.114
311.088
311.01
310.878
310.674
310.527
310.315
310.164
310.14
310.327
310.524
303.705
303.614
303.541
303.506
303.493
303.553
303.599
303.645
303.689
303.723
303.716
303.697
303.64
303.587
303.527
303.456
303.409
303.406
303.459
303.534
355.759
354.267
353.27
352.923
353.183
353.68
354.561
355.468
356.144
356.559
356.691
356.289
355.616
354.65
353.485
352.5
351.848
351.687
352.526
353.886
348.34
347.082
346.237
345.922
346.148
346.561
347.312
348.099
348.701
349.021
349.119
348.793
348.169
347.35
346.344
345.505
344.926
344.802
345.51
346.61
340.914
339.885
339.202
338.895
339.076
339.417
340.047
340.727
341.23
341.465
341.583
341.298
340.745
340.049
339.225
338.501
338.027
337.918
338.507
339.388
333.507
332.645
332.11
331.854
332.014
332.274
332.783
333.344
333.738
333.914
334.014
333.805
333.336
332.764
332.097
331.495
331.14
331.025
331.502
332.202
326.092
325.4
325
324.823
324.913
325.119
325.512
325.956
326.248
326.384
326.459
326.292
325.928
325.483
324.98
324.501
324.226
324.134
324.508
325.046
318.671
318.177
317.879
317.767
317.835
317.958
318.23
318.554
318.747
318.861
318.912
318.791
318.538
318.203
317.863
317.512
317.305
317.236
317.526
317.89
311.218
310.93
310.753
310.677
310.728
310.786
310.952
311.144
311.253
311.342
311.354
311.289
311.139
310.927
310.724
310.507
310.402
310.36
310.527
310.737
303.757
303.665
303.614
303.578
303.605
303.612
303.667
303.727
303.77
303.814
303.81
303.781
303.74
303.666
303.596
303.523
303.49
303.47
303.527
303.596
356.901
355.484
354.436
354.047
354.302
354.926
355.802
356.772
357.592
358.005
358.125
357.822
357.181
356.059
354.93
353.908
353.218
353.158
353.792
355.127
349.314
348.138
347.25
346.898
347.118
347.625
348.378
349.235
349.91
350.272
350.355
350.09
349.521
348.554
347.571
346.724
346.122
346.069
346.609
347.689
341.727
340.755
340.033
339.743
339.912
340.298
340.933
341.68
342.239
342.545
342.621
342.376
341.885
341.05
340.222
339.534
339.019
338.971
339.444
340.295
334.151
333.37
332.81
332.553
332.687
332.957
333.496
334.095
334.547
334.814
334.86
334.659
334.26
333.574
332.904
332.342
331.941
331.892
332.283
332.928
326.549
325.982
325.525
325.351
325.447
325.627
326.066
326.519
326.889
327.088
327.111
326.938
326.646
326.105
325.581
325.157
324.864
324.815
325.094
325.589
318.986
318.59
318.225
318.131
318.196
318.301
318.66
318.949
319.212
319.36
319.362
319.234
319.022
318.634
318.262
317.973
317.766
317.741
317.91
318.266
311.398
311.18
310.934
310.889
310.938
310.985
311.211
311.374
311.523
311.635
311.628
311.543
311.416
311.177
310.963
310.772
310.673
310.657
310.756
310.947
303.821
303.758
303.656
303.643
303.666
303.683
303.763
303.82
303.866
303.902
303.888
303.861
303.828
303.747
303.67
303.601
303.582
303.572
303.602
303.664
358.17
356.963
355.82
355.463
355.658
356.338
357.148
358.254
359.05
359.511
359.72
359.493
358.788
357.757
356.68
355.467
354.778
354.698
355.37
356.499
350.409
349.444
348.449
348.134
348.274
348.871
349.535
350.515
351.171
351.539
351.739
351.5
350.911
350.02
349.122
348.065
347.437
347.398
347.971
348.876
342.655
341.896
341.045
340.761
340.872
341.384
341.943
342.758
343.336
343.589
343.772
343.547
343.041
342.299
341.552
340.659
340.101
340.116
340.574
341.308
334.901
334.311
333.612
333.377
333.469
333.867
334.351
335.006
335.472
335.654
335.816
335.619
335.205
334.616
333.991
333.255
332.814
332.832
333.191
333.759
327.154
326.729
326.166
325.967
326.062
326.343
326.735
327.236
327.611
327.742
327.862
327.707
327.392
326.917
326.439
325.85
325.541
325.558
325.83
326.239
319.413
319.109
318.714
318.545
318.651
318.81
319.111
319.46
319.735
319.84
319.899
319.795
319.578
319.22
318.887
318.474
318.226
318.276
318.448
318.742
311.65
311.501
311.26
311.14
311.216
311.294
311.475
311.679
311.88
311.93
311.959
311.885
311.757
311.539
311.35
311.086
310.95
310.982
311.077
311.269
303.905
303.863
303.782
303.729
303.76
303.794
303.845
303.904
303.997
303.999
304.009
303.98
303.936
303.869
303.803
303.721
303.665
303.685
303.714
303.777
359.712
358.45
357.26
357.008
357.213
357.928
358.71
359.861
360.663
361.259
361.508
361.25
360.544
359.488
358.372
357.31
356.54
356.468
357.095
358.173
351.749
350.702
349.682
349.452
349.619
350.226
350.916
351.911
352.563
353.057
353.257
353.047
352.457
351.528
350.58
349.642
348.951
348.919
349.471
350.333
343.801
342.941
342.084
341.868
342.002
342.528
343.108
343.933
344.482
344.871
345.052
344.868
344.394
343.59
342.787
341.968
341.385
341.385
341.836
342.525
335.85
335.165
334.47
334.271
334.373
334.799
335.301
335.96
336.425
336.685
336.85
336.735
336.318
335.674
334.994
334.32
333.832
333.861
334.218
334.77
327.912
327.365
326.854
326.666
326.746
327.065
327.5
327.99
328.338
328.553
328.658
328.603
328.259
327.753
327.23
326.713
326.315
326.335
326.594
327.04
319.948
319.579
319.231
319.046
319.119
319.332
319.684
319.986
320.253
320.421
320.461
320.435
320.175
319.833
319.464
319.086
318.795
318.821
318.981
319.31
311.984
311.772
311.56
311.428
311.481
311.621
311.831
312.014
312.177
312.272
312.282
312.273
312.115
311.919
311.702
311.471
311.292
311.303
311.387
311.605
304.021
303.949
303.872
303.83
303.856
303.899
303.953
304.034
304.087
304.112
304.129
304.121
304.059
304.001
303.935
303.849
303.785
303.789
303.814
303.885
361.268
360.08
359.136
358.814
358.896
359.602
360.455
361.491
362.308
362.986
363.408
362.996
362.314
361.333
360.165
359.256
358.466
358.443
359.134
359.888
353.105
352.132
351.301
351.026
351.087
351.674
352.423
353.319
354.007
354.595
354.947
354.575
353.962
353.12
352.111
351.352
350.629
350.618
351.245
351.825
344.935
344.153
343.435
343.195
343.248
343.769
344.384
345.121
345.699
346.183
346.485
346.156
345.622
344.937
344.065
343.432
342.809
342.81
343.337
343.798
336.745
336.14
335.583
335.37
335.411
335.832
336.317
336.944
337.388
337.794
337.997
337.727
337.316
336.755
336.028
335.522
335.028
334.996
335.443
335.788
328.574
328.105
327.712
327.526
327.556
327.871
328.257
328.758
329.089
329.392
329.529
329.338
329.022
328.584
328.013
327.608
327.269
327.203
327.553
327.811
320.414
320.086
319.835
319.669
319.702
319.906
320.192
320.542
320.773
320.989
321.058
320.957
320.761
320.423
320.007
319.734
319.482
319.429
319.685
319.848
312.255
312.065
311.924
311.821
311.844
311.953
312.111
312.33
312.465
312.603
312.62
312.57
312.476
312.26
312.022
311.849
311.718
311.661
311.824
311.91
304.104
304.048
303.989
303.97
303.971
303.998
304.064
304.137
304.182
304.229
304.222
304.217
304.177
304.102
304.032
303.966
303.933
303.908
303.964
303.984
363.006
361.906
361.018
360.607
360.686
361.349
362.213
363.097
364.029
364.824
365.209
364.794
364.041
363.171
362.077
361.205
360.597
360.507
361.081
361.933
354.617
353.699
352.93
352.593
352.654
353.212
353.936
354.68
355.473
356.148
356.488
356.125
355.48
354.71
353.762
353.017
352.486
352.37
352.886
353.615
346.204
345.45
344.815
344.549
344.59
345.051
345.626
346.27
346.904
347.493
347.771
347.461
346.899
346.257
345.452
344.849
344.374
344.275
344.738
345.315
337.779
337.179
336.716
336.458
336.497
336.877
337.314
337.864
338.345
338.833
339.079
338.825
338.336
337.81
337.155
336.659
336.29
336.211
336.609
337.033
329.371
328.918
328.598
328.37
328.414
328.699
329.011
329.463
329.808
330.172
330.387
330.213
329.777
329.392
328.887
328.491
328.213
328.141
328.481
328.788
320.98
320.669
320.448
320.282
320.316
320.515
320.725
321.044
321.301
321.531
321.694
321.587
321.254
320.964
320.646
320.341
320.148
320.089
320.346
320.572
312.6
312.417
312.301
312.182
312.199
312.323
312.442
312.619
312.793
312.914
313.035
312.976
312.772
312.572
312.393
312.218
312.089
312.06
312.206
312.355
304.226
304.155
304.128
304.081
304.097
304.129
304.165
304.231
304.275
304.323
304.374
304.334
304.28
304.21
304.156
304.091
304.049
304.046
304.098
304.141
365.059
363.8
362.839
362.507
362.484
363.072
363.909
364.835
365.696
366.44
366.867
366.635
365.845
365.019
363.944
363.151
362.566
362.513
363.124
364.095
356.403
355.331
354.507
354.209
354.186
354.681
355.385
356.185
356.912
357.551
357.94
357.696
357.024
356.33
355.38
354.678
354.192
354.133
354.664
355.462
347.731
346.841
346.138
345.897
345.891
346.276
346.848
347.547
348.154
348.661
349.015
348.777
348.223
347.655
346.837
346.226
345.849
345.773
346.239
346.864
339.024
338.318
337.762
337.565
337.576
337.871
338.304
338.899
339.391
339.809
340.089
339.906
339.437
338.979
338.294
337.817
337.502
337.438
337.819
338.292
330.324
329.806
329.391
329.25
329.23
329.453
329.768
330.247
330.637
330.967
331.171
331.05
330.668
330.323
329.776
329.409
329.157
329.12
329.425
329.749
321.665
321.289
321.01
320.906
320.887
321.039
321.278
321.59
321.899
322.142
322.278
322.182
321.91
321.655
321.293
321.015
320.824
320.811
321.042
321.234
313.017
312.777
312.628
312.536
312.562
312.645
312.783
312.968
313.161
313.292
313.382
313.326
313.164
312.996
312.8
312.633
312.504
312.501
312.648
312.733
304.355
304.284
304.237
304.194
304.209
304.237
304.281
304.351
304.409
304.463
304.482
304.467
304.414
304.36
304.287
304.232
304.194
304.191
304.234
304.268
366.907
365.734
364.81
364.309
364.428
364.885
365.65
366.602
367.377
368.063
368.537
368.217
367.637
366.806
365.754
365.036
364.603
364.597
365.165
366.007
358.008
357.012
356.197
355.752
355.853
356.255
356.913
357.739
358.369
358.957
359.359
359.062
358.588
357.859
356.965
356.358
355.957
355.949
356.447
357.131
349.073
348.285
347.568
347.186
347.284
347.6
348.166
348.865
349.392
349.871
350.206
349.966
349.553
348.946
348.162
347.675
347.324
347.314
347.743
348.292
340.158
339.545
338.933
338.609
338.694
338.945
339.403
339.975
340.405
340.785
341.064
340.867
340.53
340.063
339.381
338.999
338.709
338.674
339.069
339.489
331.238
330.798
330.303
330.032
330.091
330.285
330.69
331.082
331.416
331.715
331.944
331.785
331.513
331.16
330.627
330.347
330.122
330.079
330.368
330.706
322.299
322.026
321.645
321.462
321.502
321.637
321.959
322.193
322.44
322.672
322.835
322.723
322.501
322.269
321.884
321.678
321.523
321.485
321.691
321.924
313.38
313.242
312.992
312.887
312.917
313.006
313.193
313.299
313.471
313.619
313.718
313.643
313.512
313.367
313.148
313.014
312.929
312.901
313.014
313.162
304.487
304.442
304.36
304.315
304.322
304.354
304.424
304.459
304.514
304.559
304.596
304.568
304.534
304.479
304.408
304.355
304.336
304.332
304.359
304.417
368.673
367.772
366.839
366.346
366.367
366.859
367.297
368.306
369.125
369.679
370.078
369.902
369.342
368.561
367.733
367.095
366.623
366.628
367.143
368.158
359.504
358.773
357.955
357.497
357.545
357.992
358.318
359.189
359.917
360.344
360.718
360.545
360.058
359.395
358.671
358.103
357.715
357.688
358.14
358.991
350.366
349.77
349.084
348.625
348.71
349.108
349.334
350.091
350.705
351.029
351.358
351.217
350.787
350.26
349.63
349.111
348.838
348.775
349.167
349.858
341.23
340.755
340.191
339.774
339.848
340.197
340.363
340.982
341.486
341.731
342
341.89
341.538
341.122
340.59
340.155
339.949
339.884
340.203
340.735
332.097
331.722
331.269
330.948
331.012
331.267
331.42
331.882
332.281
332.444
332.67
332.584
332.306
331.977
331.567
331.228
331.082
331.013
331.264
331.666
322.94
322.697
322.373
322.093
322.165
322.355
322.472
322.772
323.065
323.164
323.354
323.277
323.08
322.835
322.553
322.322
322.202
322.162
322.327
322.615
313.783
313.624
313.458
313.243
313.309
313.44
313.502
313.681
313.838
313.917
314.02
313.984
313.863
313.697
313.55
313.408
313.332
313.308
313.422
313.579
304.623
304.555
304.519
304.429
304.463
304.51
304.528
304.584
304.645
304.657
304.698
304.689
304.647
304.593
304.552
304.501
304.47
304.45
304.495
304.555
370.575
369.621
368.787
368.324
368.356
368.793
369.249
370.015
370.683
371.254
371.631
371.431
371.075
370.322
369.544
369.077
368.782
368.776
369.307
370.198
361.14
360.352
359.644
359.236
359.287
359.66
360.023
360.679
361.257
361.73
362.05
361.853
361.563
360.888
360.245
359.842
359.569
359.547
360.001
360.75
351.707
351.061
350.507
350.144
350.191
350.506
350.776
351.348
351.819
352.235
352.475
352.309
352.044
351.481
350.964
350.641
350.386
350.357
350.701
351.326
342.308
341.781
341.345
341.041
341.08
341.32
341.547
342.019
342.38
342.738
342.9
342.799
342.562
342.082
341.702
341.421
341.223
341.179
341.442
341.947
332.925
332.508
332.164
331.951
331.971
332.136
332.337
332.699
332.967
333.249
333.35
333.279
333.085
332.706
332.432
332.207
332.07
332.021
332.234
332.602
323.539
323.225
322.98
322.861
322.847
322.963
323.104
323.374
323.539
323.753
323.83
323.77
323.623
323.351
323.157
323.011
322.902
322.879
323.026
323.275
314.139
313.944
313.784
313.745
313.715
313.797
313.893
314.036
314.139
314.27
314.321
314.264
314.188
314.008
313.866
313.821
313.759
313.74
313.819
313.976
304.74
304.678
304.62
304.6
304.601
304.621
304.663
304.698
304.742
304.779
304.802
304.775
304.754
304.689
304.643
304.638
304.606
304.607
304.634
304.679
372.71
371.716
370.841
370.422
370.202
370.606
371.08
371.651
372.285
372.842
373.157
372.945
372.616
372.003
371.418
371.11
370.82
370.937
371.477
372.256
363.014
362.17
361.439
361.088
360.873
361.245
361.613
362.088
362.633
363.129
363.379
363.168
362.902
362.34
361.842
361.621
361.339
361.409
361.855
362.515
353.326
352.603
352.016
351.733
351.545
351.852
352.161
352.529
352.977
353.414
353.61
353.399
353.204
352.727
352.293
352.132
351.865
351.878
352.295
352.827
343.64
343.038
342.591
342.361
342.194
342.436
342.687
342.954
343.33
343.694
343.86
343.655
343.533
343.14
342.763
342.642
342.424
342.411
342.765
343.162
333.94
333.484
333.146
332.97
332.834
333
333.205
333.42
333.705
333.971
334.109
333.936
333.857
333.552
333.263
333.168
332.988
332.969
333.229
333.525
324.257
323.924
323.679
323.556
323.466
323.582
323.706
323.891
324.095
324.264
324.364
324.24
324.181
323.973
323.766
323.705
323.558
323.538
323.714
323.933
314.578
314.368
314.209
314.157
314.082
314.172
314.22
314.366
314.48
314.575
314.623
314.561
314.519
314.395
314.274
314.233
314.137
314.128
314.231
314.367
304.895
304.812
304.759
304.753
304.715
304.747
304.772
304.82
304.85
304.891
304.897
304.882
304.86
304.82
304.796
304.763
304.748
304.727
304.768
304.809
374.735
373.737
372.888
372.421
372.129
372.472
372.795
373.415
373.897
374.495
374.789
374.599
374.204
373.66
373.177
373.024
372.958
373.058
373.722
374.536
364.751
363.942
363.189
362.803
362.555
362.815
363.102
363.596
364.008
364.55
364.807
364.622
364.28
363.785
363.354
363.23
363.175
363.241
363.8
364.51
354.783
354.122
353.5
353.158
352.941
353.144
353.408
353.773
354.134
354.598
354.807
354.661
354.37
353.951
353.564
353.503
353.409
353.461
353.921
354.524
344.805
344.315
343.786
343.516
343.313
343.488
343.717
344.005
344.268
344.653
344.83
344.732
344.495
344.147
343.793
343.766
343.68
343.7
344.085
344.56
334.824
334.523
334.048
333.875
333.698
333.834
334.016
334.231
334.427
334.733
334.848
334.82
334.603
334.339
334.041
334.037
333.966
333.985
334.264
334.625
324.874
324.689
324.325
324.208
324.081
324.187
324.315
324.458
324.614
324.816
324.888
324.885
324.702
324.555
324.316
324.314
324.249
324.268
324.459
324.718
314.926
314.828
314.592
314.548
314.47
314.533
314.606
314.699
314.784
314.914
314.94
314.943
314.826
314.758
314.595
314.614
314.567
314.562
314.692
314.853
305.011
304.972
304.893
304.873
304.847
304.876
304.889
304.921
304.951
305.001
305.003
305.003
304.971
304.954
304.889
304.893
304.879
304.876
304.934
304.981
376.766
375.84
374.958
374.411
374.158
374.342
374.588
375.018
375.442
375.901
376.104
376.076
375.878
375.55
375.111
374.977
374.89
375.127
375.737
376.743
366.514
365.743
365.002
364.513
364.295
364.429
364.635
365.017
365.363
365.76
365.934
365.906
365.709
365.435
365.058
364.939
364.853
365.061
365.566
366.43
356.265
355.639
355.003
354.602
354.401
354.516
354.697
355.002
355.277
355.614
355.756
355.75
355.551
355.339
354.993
354.926
354.824
355.011
355.423
356.161
346.031
345.515
345.018
344.691
344.527
344.602
344.748
344.997
345.221
345.485
345.572
345.61
345.408
345.262
344.939
344.944
344.81
344.997
345.32
345.933
335.795
335.418
335.034
334.758
334.65
334.685
334.799
335.017
335.18
335.356
335.42
335.482
335.278
335.216
334.936
334.963
334.817
334.989
335.261
335.704
325.579
325.313
325.028
324.834
324.77
324.768
324.861
325.038
325.14
325.25
325.314
325.359
325.173
325.158
324.939
324.979
324.863
324.991
325.207
325.497
315.356
315.212
315.029
314.929
314.876
314.872
314.934
315.048
315.087
315.157
315.208
315.233
315.092
315.084
314.96
315.002
314.933
315.012
315.155
315.3
305.152
305.097
305.039
304.999
304.99
304.982
304.997
305.043
305.056
305.077
305.091
305.1
305.043
305.059
305.008
305.038
305.006
305.033
305.08
305.125
378.849
377.778
376.928
376.341
376.118
376.103
376.374
376.649
377.039
377.323
377.546
377.574
377.402
377.109
376.846
376.841
376.923
377.136
377.752
378.873
368.334
367.425
366.676
366.183
365.972
365.961
366.163
366.417
366.758
366.982
367.172
367.19
367.041
366.782
366.548
366.552
366.592
366.76
367.299
368.265
357.813
357.05
356.434
356.013
355.823
355.801
355.959
356.194
356.503
356.646
356.79
356.811
356.708
356.477
356.241
356.28
356.31
356.433
356.877
357.692
347.299
346.689
346.195
345.856
345.684
345.656
345.794
345.989
346.227
346.346
346.457
346.459
346.38
346.201
345.96
346.039
346.041
346.144
346.493
347.167
336.798
336.352
335.955
335.698
335.548
335.523
335.631
335.761
335.951
336.05
336.124
336.123
336.076
335.935
335.74
335.799
335.802
335.877
336.104
336.647
326.283
325.994
325.694
325.532
325.405
325.378
325.449
325.544
325.687
325.759
325.807
325.801
325.762
325.668
325.516
325.582
325.571
325.608
325.777
326.148
315.781
315.628
315.435
315.356
315.27
315.236
315.273
315.337
315.412
315.463
315.485
315.499
315.458
315.417
315.304
315.366
315.356
315.377
315.478
315.697
305.284
305.239
305.183
305.152
305.13
305.097
305.124
305.143
305.167
305.174
305.194
305.198
305.179
305.171
305.123
305.15
305.154
305.157
305.195
305.268
380.743
379.81
378.827
378.304
377.928
377.914
378.156
378.4
378.631
378.964
378.985
379.152
378.982
378.775
378.689
378.701
378.847
379.079
379.846
380.748
369.949
369.175
368.339
367.884
367.544
367.535
367.71
367.912
368.139
368.407
368.43
368.52
368.383
368.203
368.132
368.16
368.291
368.455
369.103
369.862
359.176
358.53
357.818
357.422
357.15
357.137
357.291
357.444
357.671
357.854
357.874
357.929
357.83
357.675
357.595
357.627
357.742
357.864
358.391
359.021
348.417
347.893
347.313
346.956
346.763
346.758
346.88
346.988
347.194
347.339
347.335
347.375
347.288
347.172
347.086
347.108
347.211
347.314
347.722
348.245
337.675
337.266
336.796
336.523
336.365
336.392
336.465
336.547
336.71
336.791
336.818
336.824
336.761
336.701
336.601
336.62
336.704
336.782
337.097
337.506
326.938
326.617
326.285
326.1
325.986
326.026
326.065
326.105
326.238
326.276
326.3
326.313
326.265
326.238
326.136
326.165
326.22
326.282
326.489
326.771
316.166
315.982
315.775
315.671
315.601
315.64
315.638
315.69
315.768
315.776
315.788
315.816
315.771
315.762
315.684
315.707
315.742
315.785
315.889
316.071
305.423
305.361
305.284
305.249
305.234
305.238
305.231
305.264
305.289
305.289
305.292
305.307
305.283
305.283
305.258
305.262
305.263
305.29
305.331
305.389
382.621
381.723
380.775
380.248
379.725
379.64
379.711
380.002
380.203
380.458
380.611
380.652
380.474
380.364
380.436
380.35
380.625
380.931
381.82
382.766
371.538
370.796
369.992
369.537
369.067
368.978
369.048
369.287
369.456
369.681
369.809
369.827
369.672
369.574
369.64
369.531
369.778
370.025
370.801
371.585
360.481
359.864
359.214
358.798
358.428
358.342
358.376
358.588
358.73
358.918
359.043
359.04
358.906
358.787
358.864
358.77
358.937
359.175
359.835
360.478
349.458
348.956
348.458
348.091
347.806
347.726
347.712
347.903
348.031
348.197
348.293
348.277
348.174
348.06
348.109
348.041
348.17
348.371
348.919
349.416
338.46
338.092
337.689
337.398
337.154
337.109
337.082
337.227
337.353
337.506
337.56
337.539
337.456
337.348
337.387
337.334
337.438
337.589
337.99
338.384
327.477
327.225
326.924
326.71
326.511
326.518
326.472
326.588
326.682
326.795
326.831
326.813
326.744
326.67
326.706
326.662
326.729
326.839
327.11
327.406
316.501
316.342
316.163
316.042
315.916
315.919
315.9
315.963
316.02
316.097
316.107
316.108
316.054
316.015
316.044
316.008
316.054
316.121
316.267
316.454
305.536
305.469
305.419
305.371
305.334
305.347
305.331
305.356
305.374
305.391
305.404
305.4
305.383
305.364
305.386
305.369
305.389
305.401
305.455
305.52
384.102
383.069
382.185
381.579
380.881
381.049
380.954
381.037
381.273
381.536
381.66
381.746
381.503
381.543
381.702
381.594
381.971
382.341
383.156
384.027
372.781
371.896
371.121
370.638
369.977
370.157
370.049
370.128
370.324
370.549
370.651
370.699
370.512
370.565
370.679
370.575
370.863
371.187
371.879
372.619
361.495
360.759
360.116
359.741
359.134
359.286
359.185
359.27
359.433
359.631
359.707
359.735
359.572
359.63
359.709
359.631
359.846
360.119
360.69
361.293
350.274
349.659
349.146
348.861
348.343
348.442
348.353
348.452
348.583
348.761
348.812
348.833
348.68
348.731
348.792
348.726
348.892
349.105
349.577
350.069
339.078
338.592
338.197
337.978
337.562
337.635
337.555
337.654
337.751
337.894
337.939
337.931
337.82
337.88
337.937
337.868
337.971
338.154
338.519
338.876
327.896
327.562
327.282
327.13
326.798
326.869
326.811
326.886
326.937
327.062
327.107
327.075
327.005
327.056
327.088
327.044
327.109
327.249
327.492
327.732
316.743
316.555
316.373
316.283
316.081
316.104
316.098
316.145
316.17
316.25
316.276
316.246
316.216
316.25
316.271
316.243
316.25
316.365
316.492
316.634
305.629
305.547
305.495
305.468
305.391
305.403
305.39
305.413
305.427
305.45
305.444
305.446
305.44
305.446
305.455
305.441
305.435
305.488
305.525
305.57
)
;

boundaryField
{
    hotSide
    {
        type            fixedGradient;
        gradient        nonuniform List<scalar> 
400
(
579.211
580.414
585.188
593.445
604.837
618.864
634.99
652.724
671.661
691.484
711.957
732.91
754.23
775.849
797.739
819.901
842.359
865.148
888.299
911.822
555.402
556.911
562.241
571.282
583.614
598.644
615.757
634.411
654.169
674.7
695.764
717.196
738.888
760.784
782.868
805.156
827.693
850.531
873.718
897.277
541.237
543.388
549.32
558.91
571.739
587.219
604.737
623.747
643.805
664.576
685.814
707.355
729.092
750.976
772.997
795.182
817.581
840.257
863.264
886.634
536.113
539.22
545.816
555.774
568.735
584.195
601.608
620.47
640.355
660.929
681.944
703.232
724.689
746.266
767.959
789.798
811.835
834.131
856.741
879.698
537.648
541.892
549.249
559.585
572.605
587.895
604.998
623.467
642.908
663.001
683.503
704.248
725.139
746.133
767.235
788.479
809.919
831.615
853.622
875.978
543.131
548.584
556.818
567.688
580.928
596.188
613.069
631.172
650.132
669.645
689.484
709.495
729.601
749.778
770.05
790.467
811.094
831.996
853.23
874.838
550.337
557.01
566.228
577.827
591.548
607.057
623.976
641.92
660.532
679.516
698.659
717.839
737.01
756.194
775.45
794.86
814.51
834.477
854.827
875.604
557.57
565.417
575.679
588.171
602.622
618.685
635.96
654.035
672.524
691.119
709.619
727.941
746.101
764.186
782.318
800.625
819.223
838.206
857.645
877.587
563.503
572.391
583.659
597.11
612.451
629.302
647.214
665.705
684.323
702.714
720.682
738.194
755.358
772.352
789.378
806.617
824.219
842.291
860.908
880.113
567.086
576.757
588.847
603.149
619.356
637.053
655.731
674.819
693.767
712.152
729.768
746.647
762.997
779.102
795.241
811.646
828.487
845.88
863.897
882.574
567.576
577.642
590.196
605.032
621.835
640.166
659.47
679.109
698.453
717.014
734.575
751.212
767.204
782.906
798.645
814.679
831.189
848.293
866.059
884.519
564.661
574.64
587.187
602.095
619.04
637.573
657.128
677.055
696.716
715.617
733.529
750.516
766.844
782.858
798.881
815.167
831.9
849.199
867.134
885.74
558.565
567.984
580.065
594.602
611.263
629.6
649.063
669.045
688.962
708.362
727.009
744.902
762.219
779.22
796.171
813.301
830.781
848.734
867.239
886.339
550.096
558.571
569.861
583.76
599.935
617.936
637.235
657.273
677.529
697.591
717.213
736.321
754.983
773.357
791.628
809.978
828.558
847.489
866.855
886.712
540.624
547.907
558.252
571.462
587.193
604.977
624.282
644.564
665.331
686.189
706.874
727.255
747.321
767.138
786.823
806.506
826.315
846.36
866.727
887.478
532.115
538.084
547.468
560.085
575.552
593.35
612.894
633.618
655.023
676.714
698.412
719.954
741.276
762.388
783.357
804.274
825.244
846.366
867.723
889.38
527.219
531.879
540.366
552.508
567.86
585.806
605.685
626.88
648.875
671.268
693.778
716.226
738.522
760.647
782.633
804.547
826.476
848.51
870.729
893.193
529.17
532.686
540.357
552.019
567.167
585.1
605.086
626.477
648.747
671.499
694.453
717.427
740.32
763.093
785.758
808.362
830.978
853.686
876.559
899.651
540.846
543.556
550.472
561.447
575.979
593.368
612.888
633.9
655.893
678.478
701.382
724.418
747.475
770.499
793.481
816.45
839.46
862.574
885.854
909.341
563.094
565.378
571.589
581.608
595.02
611.233
629.618
649.599
670.702
692.558
714.894
737.52
760.31
783.193
806.139
829.154
852.265
875.515
898.943
922.576
)
;
    }
    coldSide
    {
        type            mixed;
        refValue        uniform 300;
        refGradient     uniform 0;
        valueFraction   uniform 0.991591;
        source          uniform 0;
        value           nonuniform List<scalar> 
400
(
300.031
300.031
300.031
300.032
300.032
300.033
300.034
300.035
300.036
300.037
300.038
300.039
300.04
300.041
300.042
300.043
300.044
300.046
300.047
300.047
300.03
300.03
300.03
300.031
300.032
300.032
300.033
300.034
300.035
300.036
300.037
300.038
300.039
300.04
300.042
300.043
300.044
300.045
300.046
300.047
300.029
300.029
300.03