/*--------------------------------*- C++ -*----------------------------------*\
| =========                 |                                                 |
| \\      /  F ield         | OpenFOAM: The Open Source CFD Toolbox           |
|  \\    /   O peration     | Version:  2212                                  |
|   \\  /    A nd           | Website:  www.openfoam.com                      |
|    \\/     M anipulation  |                                                 |
\*---------------------------------------------------------------------------*/
FoamFile
{
    version     2.0;
    format      ascii;
    arch        "LSB;label=32;scalar=64";
    class       volScalarField;
    location    "0";
    object      T;
}
// * * * * * * * * * * * * * * * * * * * * * * * * * * * * * * * * * * * * * //

dimensions      [0 0 0 1 0 0 0];

internalField   nonuniform List<scalar> 
3200
(
326.508
326.723
327.387
327.419
327.5
327.919
328.365
328.266
328.252
328.072
327.937
327.431
327.404
327.2
326.781
326.194
325.779
325.055
324.634
324
323.26
323.434
324.03
323.968
324.079
324.474
324.85
324.791
324.8
324.656
324.512
324.073
324.072
323.886
323.514
322.977
322.62
321.982
321.569
321.068
319.887
320.046
320.498
320.42
320.583
320.943
321.271
321.199
321.235
321.071
320.961
320.591
320.576
320.46
320.183
319.655
319.315
318.778
318.46
318.043
316.417
316.587
316.925
316.806
317.004
317.283
317.576
317.501
317.587
317.401
317.319
316.974
316.964
316.875
316.702
316.228
315.966
315.489
315.238
314.906
312.884
312.977
313.242
313.141
313.312
313.523
313.773
313.692
313.834
313.68
313.545
313.315
313.236
313.234
313.101
312.726
312.514
312.117
311.96
311.698
309.25
309.268
309.528
309.454
309.59
309.713
309.909
309.788
309.97
309.874
309.701
309.582
309.465
309.491
309.391
309.145
308.98
308.711
308.62
308.42
305.572
305.564
305.749
305.715
305.771
305.835
305.974
305.889
305.989
305.988
305.827
305.76
305.69
305.687
305.671
305.506
305.399
305.244
305.201
305.078
301.86
301.864
301.922
301.927
301.94
301.964
302.014
301.991
302.007
301.996
301.951
301.928
301.898
301.875
301.894
301.837
301.812
301.768
301.747
301.706
327.455
327.649
328.006
328.407
328.674
328.863
329.137
329.256
329.117
329.135
328.981
328.471
328.132
328.012
327.707
326.844
326.643
325.961
325.514
325.057
324.031
324.216
324.493
324.867
325.086
325.276
325.468
325.637
325.498
325.453
325.367
324.867
324.604
324.564
324.255
323.502
323.32
322.717
322.298
321.988
320.518
320.658
320.926
321.161
321.417
321.592
321.756
321.893
321.793
321.685
321.65
321.218
321.003
320.999
320.743
320.034
319.894
319.38
319.049
318.844
316.893
317.016
317.242
317.399
317.655
317.783
317.928
318.092
317.984
317.879
317.834
317.487
317.333
317.329
317.12
316.518
316.372
316.027
315.723
315.524
313.25
313.33
313.476
313.641
313.813
313.884
314.066
314.168
314.114
313.988
313.925
313.736
313.595
313.581
313.404
312.923
312.819
312.572
312.31
312.173
309.535
309.55
309.675
309.808
309.906
309.931
310.123
310.185
310.14
310.01
309.939
309.844
309.764
309.759
309.594
309.272
309.196
308.998
308.89
308.737
305.779
305.763
305.856
305.943
305.938
305.951
306.093
306.136
306.147
305.984
305.955
305.932
305.893
305.881
305.782
305.616
305.56
305.438
305.365
305.275
301.967
301.947
301.951
301.995
301.983
302.019
302.056
302.045
302.06
302
301.987
301.997
301.961
301.965
301.962
301.896
301.864
301.822
301.799
301.782
328.45
328.884
329.293
329.665
330.158
330.248
330.476
330.411
330.425
330.281
330.279
329.814
329.224
329.138
328.927
328.103
327.698
327.145
326.74
325.874
324.933
325.223
325.59
325.959
326.387
326.444
326.657
326.589
326.588
326.461
326.482
326.057
325.554
325.496
325.286
324.545
324.204
323.721
323.396
322.643
321.252
321.493
321.746
322.163
322.56
322.54
322.756
322.703
322.662
322.539
322.575
322.183
321.801
321.685
321.572
320.945
320.651
320.253
319.953
319.354
317.483
317.674
317.88
318.282
318.62
318.548
318.787
318.709
318.675
318.554
318.614
318.301
317.989
317.853
317.746
317.255
317.061
316.663
316.432
315.958
313.651
313.784
313.949
314.323
314.586
314.506
314.671
314.623
314.644
314.521
314.535
314.314
314.1
313.933
313.838
313.49
313.364
313.027
312.848
312.455
309.767
309.826
309.994
310.297
310.467
310.42
310.511
310.457
310.518
310.407
310.411
310.243
310.151
310.043
309.892
309.686
309.58
309.344
309.258
308.921
305.88
305.919
306.008
306.213
306.299
306.28
306.339
306.285
306.306
306.26
306.282
306.184
306.104
306.062
305.952
305.851
305.767
305.622
305.6
305.348
301.97
301.975
302.025
302.102
302.109
302.155
302.136
302.094
302.127
302.101
302.101
302.076
302.038
302.026
301.989
301.958
301.938
301.889
301.904
301.782
329.674
330.215
330.566
330.838
331.394
331.596
331.989
331.611
331.751
331.439
331.621
331.339
330.705
330.462
330.254
329.513
329.01
328.543
327.917
327.142
325.897
326.381
326.698
326.963
327.476
327.587
327.929
327.628
327.745
327.453
327.659
327.309
326.823
326.653
326.427
325.774
325.333
324.917
324.404
323.702
322.055
322.467
322.715
322.99
323.483
323.477
323.8
323.569
323.62
323.423
323.587
323.217
322.862
322.696
322.54
321.977
321.58
321.247
320.793
320.213
318.153
318.495
318.693
318.922
319.372
319.333
319.631
319.418
319.41
319.275
319.369
319.128
318.869
318.7
318.521
318.11
317.753
317.503
317.072
316.642
314.164
314.425
314.606
314.758
315.136
315.112
315.378
315.191
315.171
315.099
315.128
314.945
314.761
314.605
314.464
314.203
313.889
313.697
313.363
312.994
310.164
310.353
310.463
310.551
310.898
310.85
311.021
310.928
310.869
310.833
310.852
310.71
310.591
310.489
310.34
310.169
309.947
309.81
309.612
309.367
306.107
306.222
306.299
306.323
306.583
306.531
306.643
306.596
306.492
306.539
306.525
306.443
306.367
306.323
306.232
306.112
305.989
305.935
305.769
305.642
302.053
302.083
302.129
302.104
302.212
302.193
302.237
302.213
302.161
302.184
302.178
302.168
302.14
302.134
302.087
302.058
302.01
301.997
301.953
301.896
331.07
331.705
332.109
332.288
332.698
332.865
333.139
333.372
333.282
333.227
333.082
332.773
332.48
332.099
331.636
330.973
330.307
329.892
329.348
328.576
327.128
327.618
328.066
328.162
328.564
328.692
328.973
329.125
329.05
328.988
328.863
328.619
328.344
328.03
327.631
327.001
326.446
326.085
325.584
324.957
323.07
323.502
323.936
324.003
324.363
324.435
324.707
324.818
324.726
324.662
324.59
324.365
324.134
323.936
323.508
322.975
322.505
322.19
321.781
321.275
318.988
319.332
319.671
319.776
320.068
320.108
320.364
320.462
320.336
320.28
320.257
320.061
319.862
319.712
319.325
318.9
318.473
318.216
317.888
317.495
314.847
315.095
315.401
315.469
315.716
315.678
315.929
315.982
315.922
315.898
315.833
315.685
315.548
315.412
315.131
314.778
314.395
314.224
313.978
313.676
310.665
310.817
311.067
311.104
311.286
311.247
311.422
311.442
311.463
311.408
311.343
311.265
311.196
311.11
310.855
310.611
310.289
310.191
310.045
309.78
306.419
306.496
306.676
306.672
306.78
306.77
306.89
306.901
306.915
306.867
306.878
306.787
306.764
306.705
306.511
306.39
306.191
306.114
306.029
305.885
302.152
302.165
302.248
302.252
302.265
302.263
302.297
302.321
302.32
302.295
302.328
302.265
302.274
302.235
302.16
302.147
302.09
302.044
302.02
301.974
332.281
332.856
333.38
333.68
334.101
334.321
334.531
334.781
334.608
334.666
334.594
334.239
333.977
333.514
333.092
332.505
331.84
331.179
330.528
329.846
328.17
328.733
329.134
329.39
329.768
329.95
330.17
330.341
330.221
330.255
330.185
329.884
329.676
329.234
328.908
328.358
327.771
327.202
326.622
326.053
323.994
324.423
324.841
325.073
325.375
325.479
325.748
325.835
325.761
325.759
325.693
325.431
325.28
324.9
324.662
324.13
323.66
323.154
322.669
322.193
319.729
320.068
320.455
320.648
320.881
320.922
321.211
321.241
321.2
321.181
321.153
320.898
320.83
320.468
320.338
319.883
319.466
318.997
318.645
318.278
315.421
315.651
316.027
316.144
316.315
316.303
316.59
316.592
316.611
316.574
316.508
316.36
316.293
316.028
315.903
315.544
315.203
314.812
314.578
314.304
311.04
311.212
311.513
311.572
311.722
311.674
311.898
311.903
311.911
311.905
311.807
311.725
311.709
311.527
311.404
311.16
310.903
310.644
310.479
310.245
306.645
306.739
306.967
306.988
307.09
306.995
307.143
307.191
307.132
307.196
307.076
307.092
307.039
306.915
306.865
306.756
306.561
306.414
306.336
306.165
302.242
302.269
302.332
302.345
302.367
302.348
302.396
302.407
302.38
302.412
302.378
302.396
302.367
302.321
302.307
302.289
302.212
302.169
302.131
302.081
333.405
334.02
334.596
335.078
335.518
335.918
336.014
336.155
336.153
336.067
336
335.741
335.496
334.897
334.529
333.864
333.285
332.693
331.853
331.182
329.174
329.702
330.222
330.599
331.037
331.341
331.428
331.569
331.565
331.488
331.401
331.207
330.952
330.403
330.153
329.604
329.049
328.488
327.805
327.229
324.862
325.298
325.736
326.051
326.455
326.686
326.76
326.865
326.873
326.845
326.704
326.561
326.375
325.82
325.692
325.262
324.709
324.238
323.679
323.182
320.484
320.87
321.144
321.395
321.783
321.929
321.98
322.114
322.131
322.095
321.966
321.842
321.711
321.213
321.156
320.833
320.328
319.917
319.489
319.058
316.045
316.337
316.523
316.727
317.039
317.113
317.145
317.306
317.333
317.283
317.163
317.052
317.013
316.568
316.514
316.325
315.901
315.535
315.197
314.91
311.493
311.742
311.849
311.999
312.226
312.225
312.26
312.44
312.448
312.426
312.283
312.229
312.248
311.853
311.837
311.674
311.426
311.076
310.915
310.666
306.905
307.079
307.142
307.233
307.353
307.359
307.376
307.503
307.502
307.487
307.406
307.365
307.402
307.119
307.133
307.028
306.903
306.683
306.537
306.407
302.307
302.37
302.385
302.444
302.462
302.486
302.475
302.521
302.539
302.526
302.495
302.47
302.494
302.378
302.399
302.357
302.327
302.255
302.175
302.165
334.707
335.324
335.881
336.338
336.807
337.089
337.402
337.625
337.674
337.773
337.258
337.152
336.895
336.254
335.869
335.371
334.567
334.118
333.243
332.5
330.333
330.835
331.335
331.737
332.157
332.338
332.613
332.761
332.877
332.961
332.511
332.421
332.185
331.594
331.308
330.873
330.183
329.779
329.044
328.391
325.855
326.27
326.734
327.027
327.399
327.526
327.714
327.843
327.987
328.044
327.696
327.611
327.38
326.908
326.687
326.288
325.699
325.361
324.757
324.185
321.288
321.628
322.015
322.249
322.576
322.646
322.763
322.858
322.998
323.027
322.77
322.753
322.531
322.135
321.971
321.628
321.151
320.887
320.368
319.895
316.629
316.905
317.209
317.395
317.651
317.713
317.772
317.824
317.98
317.988
317.848
317.82
317.587
317.285
317.203
316.895
316.577
316.344
315.874
315.57
311.896
312.096
312.328
312.469
312.656
312.707
312.695
312.78
312.919
312.895
312.856
312.795
312.591
312.371
312.347
312.11
311.956
311.705
311.346
311.202
307.158
307.269
307.423
307.527
307.623
307.656
307.632
307.71
307.789
307.75
307.735
307.713
307.534
307.421
307.432
307.291
307.219
307.034
306.781
306.755
302.405
302.419
302.509
302.532
302.551
302.575
302.564
302.595
302.622
302.617
302.59
302.575
302.503
302.507
302.496
302.445
302.419
302.348
302.272
302.265
336.028
336.621
337.418
337.835
338.238
338.501
338.884
338.996
339.283
339.102
339.009
338.857
338.252
337.616
337.28
336.659
335.823
335.198
334.456
333.838
331.39
331.995
332.668
332.965
333.369
333.566
333.897
334.02
334.299
334.138
334.031
333.889
333.396
332.822
332.554
331.978
331.244
330.713
330.072
329.562
326.693
327.243
327.837
328.034
328.391
328.546
328.83
328.948
329.195
329.102
328.951
328.851
328.48
327.903
327.724
327.279
326.601
326.155
325.632
325.145
321.925
322.422
322.933
323.051
323.376
323.444
323.717
323.797
324.003
323.948
323.806
323.768
323.493
322.936
322.829
322.434
321.86
321.543
321.082
320.696
317.137
317.523
317.968
318.076
318.273
318.303
318.579
318.592
318.736
318.703
318.585
318.602
318.37
317.918
317.872
317.532
317.08
316.89
316.481
316.201
312.274
312.574
312.915
313.02
313.117
313.08
313.321
313.354
313.411
313.435
313.335
313.378
313.207
312.841
312.841
312.635
312.232
312.104
311.786
311.582
307.384
307.561
307.76
307.856
307.884
307.857
308.013
308.032
308.05
308.083
308.045
308.056
308
307.74
307.746
307.603
307.32
307.258
307.093
306.972
302.485
302.537
302.607
302.635
302.645
302.65
302.679
302.679
302.699
302.705
302.718
302.712
302.702
302.59
302.595
302.555
302.466
302.445
302.38
302.323
337.122
337.535
338.495
339.064
339.5
339.744
340
340.267
340.613
340.302
340.223
340.225
339.903
339.031
338.484
337.856
337.245
336.482
335.673
334.85
332.423
332.755
333.581
334.039
334.455
334.645
334.891
335.173
335.4
335.138
335.159
335.116
334.832
334.05
333.535
333.02
332.469
331.814
331.108
330.431
327.626
327.887
328.617
328.926
329.35
329.476
329.679
329.966
330.122
329.879
329.994
329.878
329.651
328.941
328.516
328.077
327.608
327.054
326.473
325.924
322.75
322.943
323.528
323.751
324.193
324.278
324.392
324.647
324.779
324.568
324.667
324.591
324.371
323.795
323.439
323.067
322.685
322.229
321.792
321.346
317.806
317.932
318.382
318.535
318.921
318.982
319.087
319.248
319.37
319.205
319.282
319.267
319.045
318.611
318.297
318.022
317.701
317.324
317.008
316.699
312.777
312.901
313.189
313.278
313.579
313.62
313.702
313.76
313.895
313.757
313.847
313.843
313.648
313.368
313.113
312.901
312.682
312.419
312.207
311.971
307.689
307.783
307.902
308
308.164
308.216
308.242
308.277
308.353
308.279
308.343
308.305
308.197
308.032
307.905
307.772
307.614
307.485
307.339
307.208
302.566
302.617
302.645
302.696
302.747
302.745
302.767
302.768
302.809
302.777
302.794
302.784
302.76
302.681
302.639
302.617
302.559
302.524
302.468
302.417
338.094
338.681
339.621
340.113
340.65
340.944
341.268
341.672
341.958
341.753
341.594
341.244
341.121
340.54
339.725
339.205
338.431
337.675
336.837
336.085
333.244
333.723
334.56
335
335.454
335.712
335.974
336.358
336.612
336.391
336.289
336.025
335.884
335.355
334.65
334.156
333.504
332.882
332.146
331.477
328.303
328.672
329.417
329.801
330.21
330.387
330.566
330.961
331.153
330.942
330.905
330.67
330.518
330.031
329.46
329.054
328.508
328.035
327.368
326.812
323.298
323.541
324.176
324.45
324.855
324.989
325.09
325.475
325.621
325.448
325.414
325.251
325.092
324.675
324.202
323.872
323.358
323.026
322.513
322.111
318.201
318.363
318.894
319.076
319.391
319.503
319.593
319.9
319.962
319.877
319.862
319.729
319.562
319.27
318.908
318.596
318.202
317.938
317.615
317.291
313.051
313.165
313.569
313.639
313.894
313.983
314.025
314.25
314.283
314.231
314.216
314.171
313.97
313.789
313.553
313.299
313.008
312.867
312.662
312.4
307.852
307.953
308.174
308.176
308.348
308.434
308.445
308.574
308.57
308.527
308.578
308.535
308.363
308.265
308.161
307.958
307.809
307.738
307.648
307.494
302.635
302.681
302.73
302.752
302.804
302.82
302.84
302.865
302.859
302.864
302.873
302.873
302.802
302.768
302.746
302.67
302.61
302.602
302.568
302.516
339.141
339.775
340.607
341.437
341.8
342.194
342.522
342.897
343.035
342.95
342.832
342.663
342.117
341.734
341.321
340.422
339.648
338.847
338.162
337.349
334.117
334.698
335.404
336.143
336.469
336.751
337.074
337.421
337.531
337.463
337.339
337.239
336.724
336.388
336.021
335.266
334.496
333.898
333.295
332.573
329.024
329.557
330.133
330.778
331.025
331.225
331.513
331.854
331.945
331.877
331.809
331.71
331.216
330.979
330.629
329.992
329.367
328.873
328.322
327.71
323.852
324.28
324.821
325.283
325.501
325.649
325.905
326.191
326.272
326.205
326.184
326.098
325.622
325.441
325.145
324.621
324.156
323.74
323.301
322.791
318.573
318.932
319.422
319.696
319.931
320.009
320.244
320.476
320.545
320.449
320.472
320.476
319.94
319.853
319.595
319.217
318.87
318.525
318.201
317.81
313.287
313.52
313.94
314.089
314.334
314.372
314.495
314.677
314.734
314.688
314.669
314.722
314.255
314.219
314.042
313.757
313.547
313.273
313.059
312.759
307.977
308.084
308.39
308.481
308.64
308.642
308.741
308.844
308.831
308.822
308.826
308.899
308.559
308.566
308.458
308.311
308.18
307.996
307.852
307.679
302.673
302.715
302.822
302.836
302.892
302.9
302.944
302.95
302.951
302.952
302.968
302.999
302.866
302.889
302.818
302.774
302.757
302.692
302.631
302.574
339.99
340.818
341.708
342.25
342.91
343.451
343.728
344.026
344.061
344.12
343.883
343.61
343.298
342.72
342.306
341.704
340.553
339.913
339.134
338.38
334.91
335.614
336.356
336.81
337.412
337.895
338.16
338.44
338.451
338.474
338.252
338.109
337.746
337.252
336.879
336.393
335.355
334.774
334.124
333.504
329.691
330.294
330.955
331.269
331.899
332.209
332.474
332.777
332.762
332.754
332.567
332.49
332.114
331.688
331.373
330.977
330.077
329.559
329.055
328.539
324.45
324.903
325.462
325.654
326.285
326.471
326.706
327.016
326.964
326.961
326.8
326.727
326.367
326.015
325.758
325.46
324.74
324.322
323.855
323.543
319.089
319.436
319.856
320.011
320.586
320.674
320.849
321.139
321.087
321.105
320.954
320.894
320.534
320.325
320.108
319.871
319.334
319.03
318.591
318.451
313.663
313.937
314.244
314.306
314.78
314.814
314.934
315.203
315.157
315.094
315.019
315.012
314.703
314.55
314.4
314.247
313.875
313.666
313.299
313.268
308.201
308.392
308.582
308.577
308.897
308.929
309.004
309.195
309.144
309.101
309.045
309.056
308.81
308.746
308.671
308.591
308.369
308.248
307.965
307.988
302.745
302.808
302.867
302.893
302.995
303.012
303.022
303.089
303.049
303.066
303.054
303.024
302.956
302.908
302.898
302.89
302.803
302.761
302.671
302.678
340.993
341.962
342.459
343.365
343.88
344.337
344.785
344.9
345.05
345.032
344.911
344.818
344.523
343.827
343.226
342.612
341.908
340.889
340.055
339.21
335.801
336.604
337.029
337.807
338.263
338.668
339.08
339.187
339.276
339.302
339.142
339.115
338.837
338.188
337.668
337.146
336.536
335.632
334.931
334.207
330.452
331.16
331.508
332.176
332.537
332.853
333.233
333.38
333.437
333.446
333.275
333.298
333.044
332.506
332.049
331.648
331.065
330.328
329.714
329.11
325.058
325.633
325.934
326.489
326.715
326.98
327.29
327.511
327.563
327.506
327.317
327.424
327.167
326.731
326.371
326.038
325.531
324.944
324.437
323.912
319.615
320.026
320.276
320.696
320.854
321.086
321.307
321.512
321.58
321.503
321.295
321.449
321.156
320.849
320.662
320.345
319.96
319.499
319.078
318.633
314.072
314.351
314.525
314.824
315.002
315.127
315.26
315.464
315.481
315.449
315.298
315.385
315.135
314.932
314.861
314.582
314.334
313.987
313.661
313.348
308.465
308.618
308.721
308.907
309.034
309.13
309.178
309.287
309.311
309.325
309.212
309.277
309.086
308.971
308.97
308.744
308.692
308.399
308.246
308.039
302.836
302.878
302.934
302.973
303.028
303.065
303.085
303.118
303.132
303.136
303.094
303.106
303.052
303.012
303.01
302.924
302.92
302.802
302.77
302.708
341.958
342.7
343.488
344.36
344.709
345.477
345.899
346.088
346.112
346.163
345.806
345.713
345.453
344.927
344.241
343.519
342.684
341.719
340.984
340.023
336.592
337.246
337.908
338.665
338.978
339.637
339.992
340.206
340.191
340.252
339.96
339.885
339.626
339.211
338.601
337.945
337.249
336.362
335.731
334.916
331.072
331.665
332.298
332.863
333.177
333.698
333.999
334.26
334.174
334.268
333.992
333.942
333.692
333.38
332.859
332.267
331.692
330.928
330.414
329.749
325.535
325.965
326.58
327.02
327.267
327.683
327.989
328.146
328.068
328.194
327.924
327.937
327.738
327.418
327.014
326.555
326.056
325.423
324.994
324.451
319.898
320.227
320.724
321.11
321.306
321.608
321.897
322.011
321.937
322.022
321.74
321.8
321.627
321.392
321.12
320.774
320.347
319.87
319.489
319.08
314.232
314.461
314.821
315.092
315.298
315.49
315.714
315.818
315.739
315.761
315.565
315.619
315.49
315.317
315.143
314.876
314.58
314.241
313.955
313.659
308.558
308.66
308.893
309.085
309.232
309.283
309.438
309.543
309.494
309.501
309.358
309.423
309.305
309.203
309.097
308.938
308.734
308.588
308.399
308.221
302.861
302.886
302.998
303.041
303.081
303.107
303.159
303.199
303.193
303.185
303.138
303.176
303.141
303.07
303.033
303.009
302.943
302.891
302.828
302.752
342.746
343.457
344.287
345.118
345.757
346.21
346.833
347.004
347.046
347.036
346.906
346.667
346.362
345.78
345.127
344.447
343.517
342.659
341.843
340.716
337.26
337.908
338.593
339.341
339.942
340.298
340.791
340.944
340.975
341.025
340.859
340.648
340.385
339.851
339.362
338.743
337.912
337.19
336.486
335.513
331.673
332.245
332.804
333.446
333.927
334.302
334.643
334.839
334.819
334.942
334.742
334.575
334.347
333.878
333.452
332.939
332.235
331.615
331.02
330.213
326.018
326.519
326.938
327.471
327.883
328.222
328.463
328.656
328.594
328.741
328.531
328.404
328.202
327.823
327.466
327.039
326.504
325.977
325.507
324.796
320.279
320.728
321.03
321.417
321.769
322.05
322.227
322.41
322.303
322.461
322.271
322.131
321.974
321.719
321.439
321.078
320.752
320.318
319.896
319.348
314.53
314.873
315.075
315.334
315.619
315.805
315.971
316.111
315.992
316.107
315.949
315.835
315.737
315.571
315.305
315.091
314.865
314.583
314.22
313.819
308.724
308.935
309.075
309.202
309.42
309.515
309.654
309.723
309.66
309.728
309.576
309.476
309.456
309.38
309.161
309.061
308.934
308.796
308.567
308.318
302.926
302.999
303.051
303.071
303.172
303.188
303.246
303.259
303.249
303.271
303.194
303.179
303.147
303.156
303.056
303.038
302.976
302.962
302.876
302.8
343.505
344.114
345.084
345.885
346.504
346.718
347.355
347.73
347.876
347.68
347.618
347.387
347.124
346.716
345.985
345.143
344.281
343.63
342.508
341.524
337.971
338.481
339.278
340.029
340.527
340.726
341.221
341.638
341.731
341.54
341.497
341.271
341.068
340.71
340.021
339.333
338.599
337.991
337.066
336.189
332.322
332.761
333.426
334.1
334.477
334.596
335.046
335.486
335.469
335.315
335.286
335.091
334.925
334.638
333.993
333.404
332.819
332.255
331.511
330.782
326.561
326.949
327.55
328.062
328.354
328.41
328.773
329.198
329.15
329.03
329.001
328.808
328.715
328.451
327.953
327.427
326.986
326.494
325.887
325.318
320.724
321.059
321.512
321.92
322.126
322.155
322.437
322.814
322.763
322.657
322.617
322.476
322.355
322.178
321.827
321.407
321.043
320.657
320.209
319.745
314.869
315.13
315.437
315.718
315.851
315.888
316.088
316.343
316.308
316.239
316.182
316.119
315.993
315.855
315.617
315.314
315.029
314.793
314.446
314.176
308.965
309.084
309.297
309.466
309.538
309.587
309.706
309.828
309.826
309.793
309.749
309.71
309.609
309.53
309.387
309.216
309.009
308.891
308.661
308.532
303.002
303.043
303.132
303.167
303.204
303.229
303.278
303.297
303.282
303.295
303.274
303.25
303.242
303.197
303.152
303.09
303.004
302.987
302.893
302.859
344.181
344.859
345.467
346.713
347.036
347.475
348.049
348.377
348.645
348.535
348.367
348.06
347.854
347.325
346.468
345.783
345.049
344.081
343.082
342.122
338.548
339.077
339.671
340.75
340.959
341.414
341.842
342.174
342.46
342.282
342.112
341.858
341.724
341.207
340.444
339.831
339.202
338.45
337.514
336.685
332.766
333.271
333.74
334.677
334.863
335.25
335.545
335.891
336.115
335.935
335.751
335.574
335.463
335.065
334.331
333.83
333.315
332.707
331.895
331.191
326.936
327.361
327.745
328.485
328.665
328.982
329.189
329.51
329.675
329.492
329.316
329.219
329.119
328.796
328.229
327.791
327.35
326.879
326.241
325.638
321.002
321.363
321.659
322.215
322.422
322.648
322.785
323.056
323.145
323.023
322.862
322.772
322.712
322.469
322.03
321.703
321.315
320.987
320.474
320.037
315.031
315.305
315.518
315.912
316.087
316.234
316.335
316.53
316.532
316.487
316.371
316.267
316.256
316.063
315.753
315.557
315.232
315.058
314.662
314.367
309.059
309.225
309.347
309.571
309.708
309.759
309.817
309.965
309.911
309.887
309.827
309.745
309.746
309.677
309.453
309.373
309.135
309.089
308.809
308.678
303.048
303.091
303.124
303.208
303.278
303.276
303.309
303.355
303.314
303.297
303.3
303.283
303.277
303.255
303.165
303.161
303.068
303.062
302.944
302.925
344.375
345.157
346.202
347.076
347.769
348.11
348.539
348.843
349.224
349.018
348.741
348.707
348.544
347.887
347.111
346.242
345.522
344.436
343.236
342.624
338.752
339.352
340.247
341.025
341.604
341.913
342.306
342.544
342.889
342.714
342.462
342.448
342.297
341.71
341.006
340.207
339.649
338.7
337.676
337.146
332.981
333.479
334.231
334.883
335.355
335.59
335.951
336.212
336.431
336.32
336.099
336.096
335.935
335.457
334.823
334.106
333.669
332.869
332.017
331.577
327.139
327.493
328.113
328.635
329.03
329.238
329.511
329.791
329.892
329.831
329.64
329.658
329.508
329.137
328.564
327.988
327.628
327.001
326.306
325.945
321.204
321.494
321.918
322.391
322.64
322.82
323.013
323.266
323.339
323.229
323.096
323.144
323.031
322.713
322.269
321.802
321.549
321.084
320.532
320.273
315.183
315.404
315.68
316.066
316.243
316.34
316.488
316.656
316.715
316.636
316.509
316.519
316.492
316.25
315.949
315.638
315.397
315.107
314.711
314.504
309.151
309.253
309.448
309.701
309.787
309.838
309.941
310
310.037
309.999
309.914
309.904
309.95
309.776
309.596
309.427
309.257
309.088
308.851
308.726
303.089
303.092
303.17
303.254
303.287
303.314
303.354
303.344
303.35
303.347
303.324
303.329
303.345
303.288
303.214
303.147
303.095
303.036
302.962
302.939
344.731
345.717
346.614
347.572
348.185
348.761
348.939
349.06
349.611
349.522
349.003
349.07
348.556
348.274
347.765
346.938
345.985
345.053
343.907
343.089
339.005
339.836
340.603
341.433
342.015
342.432
342.671
342.741
343.218
343.112
342.623
342.723
342.307
342.047
341.574
340.85
340.024
339.196
338.234
337.556
333.134
333.883
334.508
335.221
335.762
336.03
336.296
336.314
336.747
336.657
336.2
336.282
335.95
335.766
335.295
334.708
334.004
333.304
332.483
331.965
327.238
327.855
328.327
328.973
329.386
329.618
329.809
329.814
330.151
330.139
329.71
329.785
329.505
329.397
328.96
328.54
327.88
327.375
326.651
326.288
321.22
321.755
322.153
322.647
322.956
323.116
323.251
323.291
323.534
323.519
323.209
323.193
323.016
322.928
322.547
322.317
321.694
321.358
320.771
320.553
315.179
315.567
315.857
316.251
316.428
316.586
316.646
316.694
316.863
316.853
316.623
316.573
316.47
316.36
316.137
316.024
315.53
315.276
314.863
314.731
309.128
309.364
309.543
309.787
309.879
310.001
310.044
310.065
310.138
310.139
310.043
309.945
309.87
309.822
309.699
309.674
309.36
309.189
308.934
308.886
303.052
303.159
303.202
303.277
303.312
303.348
303.359
303.391
303.404
303.403
303.369
303.337
303.3
303.291
303.264
303.24
303.124
303.085
303.012
302.986
)
;

boundaryField
{
    hotSide
    {
        type            fixedGradient;
        gradient        nonuniform List<scalar> 
400
(
251.459
265.274
279.065
292.77
306.326
319.671
332.74
345.469
357.795
369.655
380.988
391.736
401.842
411.254
419.923
427.802
434.852
441.036
446.323
450.688
255.791
270.013
284.216
298.338
312.314
326.077
339.563
352.705
365.438
377.696
389.417
400.541
411.01
420.768
429.764
437.953
445.29
451.739
457.266
461.846
259.394
273.987
288.568
303.071
317.43
331.578
345.447
358.97
372.077
384.704
396.785
408.258
419.063
429.144
438.447
446.925
454.532
461.231
466.987
471.773
262.271
277.197
292.116
306.962
321.667
336.162
350.378
364.245
377.693
390.655
403.064
414.856
425.97
436.347
445.933
454.677
462.535
469.467
475.437
480.416
264.432
279.649
294.866
310.013
325.024
339.826
354.349
368.522
382.273
395.535
408.237
420.316
431.707
442.351
452.192
461.179
469.266
476.411
482.577
487.736
265.892
281.357
296.828
312.234
327.507
342.573
357.362
371.8
385.815
399.337
412.296
424.625
436.26
447.14
457.207
466.41
474.701
482.036
488.38
493.701
266.669
282.339
298.018
313.638
329.128
344.415
359.425
374.085
388.322
402.063
415.239
427.781
439.624
450.706
460.968
470.357
478.825
486.327
492.827
498.293
266.788
282.615
298.457
314.244
329.904
345.365
360.551
375.388
389.803
403.721
417.073
429.788
441.801
453.048
463.471
473.015
481.631
489.275
495.908
501.498
266.273
282.209
298.166
314.072
329.856
345.442
360.757
375.725
390.271
404.323
417.807
430.654
442.797
454.172
464.721
474.387
483.121
490.878
497.62
503.312
265.149
281.147
297.17
313.147
329.004
344.668
360.063
375.114
389.746
403.884
417.456
430.392
442.625
454.089
464.727
474.481
483.301
491.142
497.966
503.738
263.441
279.453
295.493
311.491
327.373
343.065
358.491
373.577
388.246
402.424
416.039
429.02
441.3
452.814
463.502
473.308
482.182
490.078
496.956
502.783
261.174
277.151
293.159
309.128
324.985
340.655
356.063
371.134
385.792
399.964
413.575
426.558
438.842
450.365
461.065
470.888
479.781
487.7
494.605
500.463
258.37
274.264
290.191
306.081
321.863
337.461
352.802
367.809
382.408
396.525
410.088
423.027
435.273
446.763
457.437
467.239
476.119
484.03
490.933
496.796
255.051
270.812
286.609
302.372
318.029
333.507
348.73
363.625
378.118
392.134
405.602
418.452
430.617
442.034
452.643
462.388
471.219
479.092
485.965
491.807
251.233
266.816
282.435
298.022
313.506
328.814
343.872
358.607
372.945
386.813
400.141
412.859
424.902
436.205
446.71
456.363
465.112
472.915
479.73
485.526
246.935
262.293
277.687
293.051
308.315
323.405
338.251
352.779
366.916
380.592
393.735
406.279
418.156
429.307
439.671
449.196
457.831
465.533
472.263
477.988
242.172
257.259
272.384
287.48
302.476
317.304
331.891
346.166
360.058
373.497
386.414
398.741
410.415
421.374
431.562
440.924
449.413
456.985
463.603
469.234
236.957
251.733
266.544
281.327
296.013
310.533
324.818
338.797
352.402
365.562
378.211
390.282
401.714
412.445
422.421
431.589
439.902
447.317
453.797
459.311
231.307
245.729
260.186
274.615
288.948
303.119
317.06
330.703
343.978
356.82
369.162
380.941
392.094
402.564
412.296
421.239
429.347
436.578
442.897
448.272
225.237
239.267
253.331
267.366
281.307
295.09
308.649
321.915
334.825
347.311
359.311
370.761
381.603
391.779
401.237
409.926
417.803
424.827
430.962
436.179
)
;
    }
    coldSide
    {
        type            mixed;
        refValue        uniform 300;
        refGradient     uniform 0;
        valueFraction   uniform 0.991591;
        source          uniform 0;
        value           nonuniform List<scalar> 
400
(
300.016
300.017
300.017
300.017
300.018
300.019
300.019
300.02
300.021
300.022
300.022
300.022
300.023
300.024
300.024
300.025
300.025
300.026
300.026
300.026
300.016
300.016
300.017
300.018
300.018
300.019
300.02
300.02
300.021
300.022
300.023
300.023
300.024
300.024
300.024
300.025
300.026
300.026
300.026
300.027