/*--------------------------------*- C++ -*----------------------------------*\
| =========                 |                                                 |
| \\      /  F ield         | OpenFOAM: The Open Source CFD Toolbox           |
|  \\    /   O peration     | Version:  2212                                  |
|   \\  /    A nd           | Website:  www.openfoam.com                      |
|    \\/     M anipulation  |                                                 |
\*---------------------------------------------------------------------------*/
FoamFile
{
    version     2.0;
    format      ascii;
    arch        "LSB;label=32;scalar=64";
    class       volScalarField;
    location    "./ITHACAoutput/true/18";
    object      error;
}
// * * * * * * * * * * * * * * * * * * * * * * * * * * * * * * * * * * * * * //

dimensions      [0 0 0 1 0 0 0];

internalField   nonuniform List<scalar> 
3200
(
1.25632
1.24273
1.33093
1.50843
1.65286
1.87242
2.19548
2.41451
2.69797
3.01295
3.19386
3.27651
3.48968
3.50449
3.53862
3.66973
3.76864
3.90845
4.11136
4.24165
1.15214
1.13386
1.14673
1.24338
1.39616
1.63706
1.84741
2.13421
2.28732
2.50367
2.65692
2.85494
2.94084
3.0225
3.04974
3.1111
3.30541
3.32582
3.50992
3.63967
0.929325
0.932788
0.975038
1.0967
1.2116
1.31475
1.54616
1.7585
1.87139
2.12928
2.28805
2.32806
2.47077
2.48019
2.59952
2.64574
2.77768
2.93966
3.04046
3.1087
0.754707
0.850467
0.709393
0.86532
0.960086
1.12679
1.22809
1.40281
1.58744
1.7592
1.8095
1.95269
1.95602
1.98312
2.06614
2.16243
2.23726
2.3486
2.46636
2.48002
0.501172
0.575306
0.524563
0.59698
0.703146
0.880698
1.00919
1.09202
1.17171
1.31822
1.43714
1.51626
1.56643
1.55291
1.60998
1.65829
1.66041
1.76708
1.86404
1.91047
0.420056
0.507841
0.465517
0.532265
0.480812
0.60321
0.689829
0.781729
0.83929
0.971683
1.011
1.01228
1.14622
1.18951
1.18122
1.24575
1.22025
1.26471
1.31904
1.41028
0.236796
0.24397
0.284477
0.27581
0.28758
0.404519
0.420593
0.460684
0.472204
0.564377
0.65251
0.620488
0.643446
0.650598
0.722094
0.733215
0.691645
0.79647
0.836324
0.812991
0.0617195
0.0761859
0.0602528
0.084526
0.0581047
0.132017
0.175711
0.158849
0.170873
0.174058
0.16611
0.241213
0.231135
0.234188
0.211473
0.222695
0.246867
0.331675
0.290432
0.274579
0.599182
0.574141
0.588271
0.679372
0.898625
1.16802
1.41539
1.57554
1.89154
2.07686
2.35305
2.4882
2.6457
2.71457
2.79618
2.81735
3.00162
3.13255
3.43921
3.54131
0.550602
0.533354
0.514054
0.631045
0.777728
1.03069
1.18365
1.38501
1.65346
1.89292
2.02466
2.17488
2.2928
2.34003
2.43686
2.50549
2.55263
2.77858
2.93654
3.08295
0.435271
0.509201
0.522063
0.511693
0.746383
0.858931
1.02987
1.24908
1.34752
1.59753
1.68819
1.87324
1.84344
2.00843
2.05627
2.13662
2.22754
2.41307
2.45652
2.60621
0.357829
0.404391
0.404057
0.443823
0.582022
0.667758
0.841666
0.943034
1.06263
1.26203
1.43747
1.52854
1.60801
1.57617
1.66971
1.71526
1.78096
1.82889
2.05377
2.11579
0.333335
0.257718
0.3692
0.332482
0.424658
0.533101
0.701876
0.765913
0.880114
1.02989
1.12449
1.16346
1.23998
1.29831
1.38772
1.36903
1.43536
1.55928
1.58146
1.70717
0.265622
0.200294
0.188034
0.254829
0.295486
0.357345
0.467827
0.551604
0.652135
0.712164
0.838955
0.728354
0.892529
0.873459
0.903177
0.982382
1.00704
0.990397
1.16127
1.14259
0.129437
0.124468
0.186456
0.241603
0.204725
0.217513
0.306066
0.318156
0.396672
0.397393
0.490417
0.474933
0.477519
0.577698
0.582449
0.585476
0.637169
0.690991
0.702893
0.748378
0.00917348
-0.0208479
-0.00371711
0.0146853
0.0923015
0.190233
0.181883
0.0779595
0.104428
0.0704991
0.191385
0.131387
0.164303
0.205064
0.276206
0.305986
0.198635
0.262735
0.246045
0.248849
-0.289722
-0.357748
-0.394067
-0.216258
-0.117738
0.0658599
0.313123
0.550259
0.828041
1.0606
1.25292
1.36354
1.52788
1.54827
1.72277
1.75667
2.03921
2.19099
2.3908
2.66977
-0.241184
-0.210701
-0.253407
-0.252727
-0.136921
0.113421
0.380667
0.467533
0.671155
0.921812
1.10564
1.23286
1.28385
1.39392
1.52066
1.63716
1.75526
1.87013
2.1529
2.33349
-0.107597
-0.165648
-0.180971
-0.151868
-0.10276
0.137233
0.293629
0.437279
0.61329
0.821691
0.95456
1.10116
1.15523
1.20636
1.32488
1.45902
1.50427
1.68777
1.84253
2.03301
-0.0782013
-0.12616
-0.196174
-0.141953
0.0219453
0.0856655
0.207059
0.356453
0.534843
0.676944
0.798707
0.936086
1.02642
1.05378
1.12914
1.17005
1.24295
1.36983
1.46631
1.61532
-0.0550546
-0.0760407
-0.114578
-0.0657576
0.0882527
0.0962861
0.196954
0.29735
0.405386
0.507926
0.55481
0.720812
0.767365
0.794032
0.849181
0.970795
0.941345
1.03501
1.18518
1.2629
-0.0605702
-0.0581755
-0.0621844
-0.0723928
0.00836265
0.0242948
0.118366
0.172712
0.236072
0.439192
0.473072
0.558533
0.548129
0.555935
0.646198
0.588641
0.716518
0.853517
0.750059
0.870584
-0.0459969
-0.0425658
-0.0127877
-0.0321648
0.0503743
0.0751521
0.0522069
0.0865456
0.112731
0.276933
0.219139
0.230755
0.256278
0.337095
0.307842
0.359274
0.45477
0.531651
0.512132
0.532397
0.00961223
-0.0595895
0.0173441
0.0127942
0.000574204
0.031982
-0.0162689
0.059792
0.0208434
0.0528223
0.0831054
0.114858
0.120645
0.0833018
0.195497
0.0913414
0.138842
0.138238
0.117109
0.149589
-1.15396
-1.26252
-1.2988
-1.25078
-1.22188
-0.990671
-0.834322
-0.532526
-0.30594
-0.0980864
0.0853607
0.267896
0.417938
0.518119
0.602961
0.810429
1.01093
1.21634
1.503
1.70088
-0.950953
-0.995078
-1.09792
-1.11719
-0.931994
-0.732045
-0.677785
-0.441084
-0.227274
-0.0924555
0.0761015
0.255842
0.351379
0.506295
0.67764
0.692761
0.917631
1.12185
1.31059
1.53576
-0.774994
-0.83125
-0.879764
-0.931123
-0.76603
-0.631003
-0.518437
-0.36915
-0.152751
-0.0373877
0.139434
0.226234
0.301751
0.453429
0.472458
0.622093
0.789462
0.973759
1.12873
1.26262
-0.651789
-0.700543
-0.64646
-0.685861
-0.598308
-0.552262
-0.309342
-0.294574
-0.10964
0.0564077
0.0951324
0.187404
0.342415
0.384943
0.435816
0.536804
0.654736
0.75139
0.929923
1.06928
-0.462145
-0.50452
-0.506797
-0.553348
-0.476232
-0.399719
-0.283018
-0.202121
-0.163011
0.0300485
0.0551759
0.193815
0.256847
0.244864
0.395773
0.398681
0.493753
0.699972
0.730253
0.898268
-0.253246
-0.388335
-0.356336
-0.396402
-0.350686
-0.315028
-0.261079
-0.164944
-0.0461896
-0.00274359
0.103145
0.13707
0.186574
0.255544
0.175596
0.292451
0.46729
0.493602
0.557601
0.588411
-0.205253
-0.247593
-0.213385
-0.256036
-0.175954
-0.114847
-0.15682
-0.0776523
-0.0413889
-0.0172967
0.0890371
0.118007
0.0959997
0.169243
0.159903
0.224856
0.206914
0.276675
0.30674
0.384021
-0.0946516
-0.0918826
-0.115813
-0.06563
-0.0557883
-0.0770751
-0.0836183
-0.00960552
-0.00648652
-0.00486393
0.0182783
0.000829516
-0.0346907
0.110381
0.0332127
0.0672003
0.146626
0.024948
0.167193
0.138919
-2.0737
-2.06805
-2.23385
-2.28655
-2.15055
-2.06981
-1.86331
-1.59853
-1.47242
-1.1689
-1.03289
-0.811671
-0.754028
-0.537571
-0.287551
-0.235693
-0.00307646
0.239814
0.554113
0.842341
-1.67249
-1.81848
-1.88337
-1.90708
-1.7915
-1.68899
-1.6078
-1.40609
-1.25672
-1.05324
-0.798904
-0.680108
-0.532154
-0.461712
-0.297485
-0.107319
0.0867259
0.300166
0.493958
0.771048
-1.38205
-1.4458
-1.56625
-1.53545
-1.50492
-1.41646
-1.32094
-1.14237
-1.00368
-0.811975
-0.673548
-0.540832
-0.427676
-0.401776
-0.226196
-0.0347133
0.0274549
0.26758
0.537093
0.681349
-1.17144
-1.15766
-1.19543
-1.20596
-1.25519
-1.04477
-1.05485
-0.954134
-0.747833
-0.682876
-0.548598
-0.46559
-0.407906
-0.278392
-0.139619
-0.0516238
0.086664
0.310373
0.463516
0.508775
-0.863918
-0.870332
-0.99742
-0.960653
-0.91834
-0.833697
-0.876227
-0.679739
-0.590272
-0.473081
-0.392958
-0.36731
-0.227593
-0.241788
-0.0676462
-0.00343955
0.0511549
0.181211
0.343644
0.497641
-0.623216
-0.655024
-0.679012
-0.667905
-0.705035
-0.629917
-0.625656
-0.444506
-0.389501
-0.323302
-0.240686
-0.238408
-0.147095
-0.165633
-0.0795084
-0.0341461
0.0127816
0.217956
0.210749
0.365538
-0.368485
-0.372177
-0.386804
-0.408165
-0.39259
-0.348952
-0.364015
-0.301366
-0.307986
-0.19399
-0.100521
-0.155426
-0.0952644
-0.0980691
0.0130764
-0.0800106
0.027893
0.034099
0.174311
0.237557
-0.0890463
-0.0949985
-0.112561
-0.181776
-0.108612
-0.0715587
-0.117967
-0.0614563
-0.124331
-0.0722322
0.0201098
-0.0726794
-0.079507
-0.0560259
0.0223228
-0.0226695
-0.000634811
0.0033808
0.0247115
0.0582669
-2.82976
-2.95763
-3.02823
-3.11835
-3.05942
-2.99278
-2.87632
-2.66612
-2.47705
-2.20737
-2.0317
-1.9119
-1.68022
-1.55105
-1.41578
-1.12926
-0.85413
-0.534085
-0.314364
0.065844
-2.40891
-2.55313
-2.54135
-2.66114
-2.6027
-2.59073
-2.40677
-2.18636
-2.0754
-1.96254
-1.75013
-1.57816
-1.43022
-1.33084
-1.0958
-0.898106
-0.812387
-0.446583
-0.199042
0.0561941
-1.93572
-2.06846
-2.14948
-2.17762
-2.21512
-2.16681
-2.03103
-1.86087
-1.72302
-1.57405
-1.40927
-1.32288
-1.19505
-1.11291
-0.926738
-0.761043
-0.536228
-0.282512
-0.116489
0.0917888
-1.6519
-1.69172
-1.70142
-1.78169
-1.72724
-1.68454
-1.55027
-1.52012
-1.34371
-1.2884
-1.13248
-1.12292
-1.01993
-0.795369
-0.729767
-0.538847
-0.448656
-0.265599
-0.0759501
0.17462
-1.16176
-1.27487
-1.41701
-1.31732
-1.37338
-1.33472
-1.1962
-1.14446
-1.02899
-0.97126
-0.892852
-0.790227
-0.752172
-0.662061
-0.528641
-0.439063
-0.311483
-0.179288
-0.0357165
0.0911794
-0.811412
-0.863424
-0.983107
-0.937935
-1.03184
-0.961889
-0.88943
-0.784323
-0.713383
-0.68713
-0.607274
-0.553373
-0.516173
-0.461569
-0.367139
-0.297235
-0.27023
-0.142869
-0.10852
0.0314557
-0.525168
-0.567017
-0.554766
-0.560856
-0.55823
-0.55336
-0.494894
-0.519398
-0.352247
-0.449231
-0.413751
-0.390366
-0.336014
-0.318259
-0.259121
-0.153304
-0.106662
-0.0808989
-0.0399327
-0.00184294
-0.0958903
-0.224127
-0.197394
-0.174497
-0.207953
-0.23042
-0.206909
-0.183719
-0.149359
-0.126289
-0.161048
-0.0813781
-0.0905034
-0.0837772
-0.0673999
-0.0912135
-0.0384996
0.0432452
-4.56209e-05
0.0168873
-3.45375
-3.62405
-3.7549
-3.90312
-3.89759
-3.87121
-3.75181
-3.51196
-3.42421
-3.22284
-3.08125
-2.87894
-2.58961
-2.42914
-2.28593
-1.96144
-1.6435
-1.34184
-0.96059
-0.689915
-2.91732
-3.04063
-3.24127
-3.35821
-3.32982
-3.20068
-3.15659
-2.99163
-2.92503
-2.73164
-2.52928
-2.43675
-2.26735
-2.11534
-1.83405
-1.77695
-1.37657
-1.15473
-0.769281
-0.538336
-2.41378
-2.54738
-2.73425
-2.75051
-2.78384
-2.72754
-2.6311
-2.52973
-2.44506
-2.28803
-2.07758
-2.02844
-1.85134
-1.69599
-1.55247
-1.40254
-1.08101
-0.881728
-0.660533
-0.427042
-1.94487
-2.02074
-2.18014
-2.25787
-2.25474
-2.22903
-2.17382
-2.05459
-1.95178
-1.8613
-1.6844
-1.64816
-1.48174
-1.40537
-1.27655
-1.10795
-0.960079
-0.724183
-0.524243
-0.360207
-1.52661
-1.59122
-1.73164
-1.76885
-1.77583
-1.69982
-1.76266
-1.57183
-1.5289
-1.42032
-1.31521
-1.35307
-1.24077
-1.05129
-0.937078
-0.846384
-0.738825
-0.558355
-0.379098
-0.213834
-1.07192
-1.17126
-1.17407
-1.18914
-1.28107
-1.21951
-1.21145
-1.12236
-1.10676
-1.04307
-0.953812
-0.868568
-0.834307
-0.714037
-0.730193
-0.542206
-0.553093
-0.416413
-0.187827
-0.0670915
-0.611443
-0.66373
-0.726239
-0.746
-0.750578
-0.746261
-0.609901
-0.63589
-0.613366
-0.61181
-0.553649
-0.509512
-0.43025
-0.468739
-0.403035
-0.377003
-0.344591
-0.198818
-0.126873
-0.0990341
-0.243657
-0.283542
-0.301468
-0.266642
-0.208423
-0.235496
-0.295272
-0.201432
-0.25222
-0.181359
-0.182993
-0.212994
-0.19271
-0.211817
-0.204999
-0.0221891
-0.178547
-0.0222529
-0.0690014
-0.0339838
-3.98836
-4.25324
-4.39486
-4.53529
-4.6316
-4.53553
-4.52959
-4.44197
-4.23306
-4.05799
-3.86178
-3.73329
-3.47768
-3.29903
-2.95226
-2.75129
-2.34363
-2.01687
-1.5884
-1.22446
-3.43235
-3.60282
-3.76789
-3.8924
-3.88872
-3.9341
-3.86585
-3.78846
-3.58662
-3.40638
-3.23136
-3.08988
-3.05098
-2.84802
-2.53502
-2.27094
-2.07769
-1.70969
-1.35526
-1.02136
-2.81807
-2.97686
-3.09124
-3.20822
-3.21492
-3.2746
-3.21277
-3.13728
-3.03721
-2.89159
-2.73963
-2.62762
-2.46217
-2.22971
-1.98473
-1.91357
-1.67047
-1.44734
-1.06258
-0.793774
-2.2394
-2.42961
-2.55801
-2.65197
-2.59532
-2.70199
-2.65505
-2.53455
-2.4257
-2.366
-2.24482
-2.12217
-2.005
-1.86147
-1.74264
-1.60749
-1.37088
-1.0943
-0.897465
-0.586017
-1.79186
-1.87872
-1.90684
-2.09937
-2.0078
-2.03563
-2.00417
-1.93557
-1.87593
-1.82521
-1.71831
-1.64656
-1.57196
-1.52917
-1.37378
-1.16834
-0.99069
-0.836702
-0.566493
-0.534101
-1.28751
-1.33697
-1.43039
-1.40138
-1.41482
-1.46551
-1.41346
-1.42978
-1.309
-1.31251
-1.23475
-1.1274
-1.07309
-1.04257
-0.884812
-0.813868
-0.717756
-0.678609
-0.41242
-0.315714
-0.783061
-0.661815
-0.818396
-0.86326
-0.809516
-0.902139
-0.899509
-0.787812
-0.853965
-0.805796
-0.760546
-0.669725
-0.614081
-0.555753
-0.648352
-0.461776
-0.389744
-0.357585
-0.325712
-0.144998
-0.266258
-0.294477
-0.255311
-0.315342
-0.320365
-0.333622
-0.278669
-0.319787
-0.292148
-0.210323
-0.218791
-0.241122
-0.289396
-0.178286
-0.192259
-0.180464
-0.168143
-0.0548082
-0.0566771
-0.0775345
-4.44174
-4.64726
-4.96235
-5.15368
-5.18301
-5.23834
-5.17455
-5.07082
-4.94234
-4.83401
-4.63951
-4.41408
-4.18548
-3.99355
-3.74243
-3.32601
-2.91721
-2.50718
-2.07907
-1.71166
-3.71311
-3.90266
-4.1982
-4.28639
-4.4527
-4.49892
-4.42184
-4.36742
-4.24985
-4.05845
-3.88864
-3.76133
-3.5354
-3.34749
-3.13587
-2.85408
-2.47587
-2.12314
-1.71695
-1.43513
-3.11995
-3.40302
-3.47415
-3.58946
-3.6531
-3.73503
-3.67896
-3.63278
-3.52969
-3.43924
-3.25673
-3.14357
-2.90099
-2.79696
-2.55752
-2.35386
-2.0461
-1.70033
-1.44263
-1.1455
-2.56562
-2.61342
-2.83102
-2.96215
-3.0281
-3.02686
-2.98293
-2.88791
-2.86022
-2.79082
-2.6122
-2.59669
-2.40454
-2.29639
-2.05363
-1.91652
-1.75228
-1.40869
-1.16961
-0.907737
-1.9687
-2.07939
-2.17292
-2.23615
-2.30609
-2.32899
-2.35408
-2.2516
-2.22885
-2.156
-2.0603
-1.93328
-1.94638
-1.77826
-1.60744
-1.383
-1.32374
-1.0795
-0.839583
-0.681787
-1.43451
-1.4842
-1.57646
-1.6365
-1.63047
-1.6598
-1.67958
-1.63514
-1.52445
-1.50708
-1.47315
-1.4447
-1.33991
-1.19703
-1.21578
-0.990105
-0.952951
-0.71636
-0.735032
-0.515341
-0.845101
-0.931675
-1.03499
-0.977912
-1.06161
-0.984589
-1.04195
-0.974001
-0.941946
-0.933247
-0.827471
-0.819341
-0.789346
-0.740418
-0.664467
-0.617973
-0.476097
-0.476166
-0.379632
-0.329039
-0.277753
-0.258591
-0.293827
-0.265831
-0.37037
-0.281609
-0.350224
-0.365338
-0.340677
-0.312804
-0.20775
-0.197662
-0.290831
-0.232638
-0.182806
-0.245638
-0.230276
-0.101116
-0.166264
-0.114373
-4.72261
-5.00035
-5.26162
-5.56011
-5.66943
-5.72667
-5.76806
-5.60461
-5.54669
-5.44969
-5.18184
-4.98628
-4.74304
-4.53221
-4.18918
-3.8536
-3.43867
-3.01804
-2.48102
-1.96306
-3.92918
-4.27754
-4.53985
-4.6975
-4.86719
-4.89632
-4.90272
-4.84189
-4.7094
-4.63527
-4.36127
-4.24016
-4.09456
-3.87345
-3.5526
-3.23534
-2.91244
-2.41165
-2.08686
-1.6136
-3.38653
-3.50219
-3.83043
-3.93867
-3.94864
-4.09491
-4.12875
-4.04006
-3.95786
-3.93278
-3.66769
-3.51304
-3.39726
-3.12847
-2.91042
-2.69704
-2.42647
-2.06237
-1.70034
-1.37817
-2.71623
-2.914
-3.02555
-3.18117
-3.34156
-3.29518
-3.31987
-3.26614
-3.1579
-3.09856
-3.04712
-2.93075
-2.70143
-2.57397
-2.38647
-2.19741
-1.95456
-1.64083
-1.3892
-1.04873
-2.1908
-2.22862
-2.3535
-2.4148
-2.49969
-2.55783
-2.54329
-2.51436
-2.46619
-2.41112
-2.28055
-2.30346
-2.14013
-2.00286
-1.82826
-1.66831
-1.52835
-1.25043
-1.05079
-0.87009
-1.4986
-1.55246
-1.72781
-1.63565
-1.77309
-1.78629
-1.88244
-1.81538
-1.81053
-1.78051
-1.6394
-1.56925
-1.59826
-1.40265
-1.36388
-1.17668
-1.05907
-0.863118
-0.743369
-0.588836
-0.862198
-0.937971
-1.05693
-1.06764
-1.02359
-1.08562
-1.09505
-1.10507
-1.06024
-1.01053
-0.981496
-1.01366
-0.938503
-0.859572
-0.85145
-0.69466
-0.658347
-0.548535
-0.486714
-0.389599
-0.296756
-0.308114
-0.324865
-0.356147
-0.374128
-0.381495
-0.293898
-0.370287
-0.316337
-0.305457
-0.274532
-0.265422
-0.296549
-0.286357
-0.250132
-0.239283
-0.219279
-0.162306
-0.183908
-0.147648
-4.9318
-5.17627
-5.58636
-5.8548
-6.03643
-6.10375
-6.10121
-6.15624
-6.00903
-5.8328
-5.60587
-5.47078
-5.19668
-4.89859
-4.54874
-4.18102
-3.78988
-3.23273
-2.70286
-2.21761
-4.15598
-4.42944
-4.73833
-4.89893
-5.07806
-5.2348
-5.12566
-5.13551
-5.09198
-4.9184
-4.83782
-4.58884
-4.43236
-4.20311
-3.95461
-3.5343
-3.25678
-2.72535
-2.28686
-1.86958
-3.51187
-3.62322
-3.98217
-4.13815
-4.26806
-4.39164
-4.40915
-4.3496
-4.25449
-4.17708
-4.04025
-3.8025
-3.67047
-3.46374
-3.17822
-3.02019
-2.62331
-2.22434
-1.8548
-1.57622
-2.82051
-3.00909
-3.22124
-3.31672
-3.48513
-3.53129
-3.45901
-3.55723
-3.50938
-3.38606
-3.32645
-3.12417
-2.91338
-2.85564
-2.63509
-2.38899
-2.03937
-1.83752
-1.51236
-1.25838
-2.12337
-2.33538
-2.4523
-2.65475
-2.60826
-2.722
-2.78313
-2.71711
-2.68761
-2.56257
-2.48344
-2.42787
-2.30925
-2.2375
-2.03256
-1.84125
-1.66569
-1.35979
-1.17639
-0.984325
-1.48692
-1.58564
-1.79143
-1.86113
-1.93783
-1.95679
-1.92261
-1.90722
-1.91815
-1.85706
-1.78204
-1.71427
-1.73901
-1.50858
-1.47701
-1.24422
-1.11409
-0.999599
-0.830986
-0.635021
-0.84212
-0.939903
-1.13544
-1.10593
-1.10945
-1.16294
-1.12414
-1.16239
-1.15689
-1.11825
-1.07925
-1.01921
-0.978458
-0.871937
-0.893431
-0.726358
-0.694044
-0.60625
-0.480633
-0.374773
-0.256695
-0.363001
-0.3288
-0.336859
-0.380707
-0.374851
-0.385632
-0.407217
-0.341913
-0.367502
-0.397293
-0.338107
-0.261311
-0.247533
-0.302644
-0.29805
-0.198445
-0.247682
-0.121172
-0.172084
-4.90093
-5.23082
-5.68301
-5.92635
-6.17976
-6.27553
-6.34874
-6.3255
-6.25494
-6.15357
-5.95883
-5.69897
-5.48384
-5.24426
-4.8016
-4.40274
-3.98937
-3.32843
-2.8287
-2.27105
-4.15281
-4.4219
-4.74026
-5.08082
-5.35247
-5.37074
-5.39885
-5.47252
-5.35736
-5.26663
-5.1164
-4.88027
-4.6249
-4.42854
-4.10023
-3.72088
-3.30077
-2.84473
-2.34567
-1.89497
-3.44941
-3.70049
-4.02577
-4.18733
-4.34193
-4.51083
-4.51828
-4.50569
-4.41612
-4.39554
-4.27915
-4.16283
-3.88055
-3.63292
-3.38405
-3.11
-2.80528
-2.28606
-1.93303
-1.51957
-2.84251
-3.04111
-3.19274
-3.40568
-3.48374
-3.64786
-3.63438
-3.65309
-3.65556
-3.53817
-3.48895
-3.37582
-3.1603
-3.04474
-2.76
-2.51455
-2.21506
-1.88216
-1.5979
-1.23349
-2.16581
-2.27437
-2.42097
-2.55635
-2.74585
-2.81279
-2.79566
-2.8191
-2.81335
-2.74477
-2.69673
-2.602
-2.43282
-2.24016
-2.15287
-1.95184
-1.6402
-1.4773
-1.22511
-0.96915
-1.46183
-1.67892
-1.77583
-1.87171
-1.94028
-1.94799
-2.05524
-2.01913
-2.04002
-2.00563
-1.92018
-1.79626
-1.67196
-1.63995
-1.54876
-1.36375
-1.23285
-1.00815
-0.813534
-0.608719
-0.894905
-0.943481
-1.07601
-1.13228
-1.19194
-1.23576
-1.2535
-1.23112
-1.12925
-1.12229
-1.11802
-1.14989
-1.05846
-0.954653
-0.862365
-0.818425
-0.669017
-0.58882
-0.562185
-0.432788
-0.327549
-0.37444
-0.323395
-0.385514
-0.379058
-0.401537
-0.421644
-0.389189
-0.427434
-0.378814
-0.360297
-0.358563
-0.364974
-0.353889
-0.301226
-0.258612
-0.185231
-0.210845
-0.185945
-0.101566
-4.78927
-5.13216
-5.57819
-5.89418
-6.20747
-6.31192
-6.41113
-6.43919
-6.30843
-6.31601
-6.05951
-5.87354
-5.64115
-5.24863
-4.91147
-4.47832
-3.94602
-3.42216
-2.74485
-2.2619
-4.03447
-4.34681
-4.74562
-4.99905
-5.30591
-5.36409
-5.42472
-5.50117
-5.46009
-5.4098
-5.21426
-4.92839
-4.75115
-4.57833
-4.15658
-3.71702
-3.33645
-2.88995
-2.32328
-1.82349
-3.34398
-3.63191
-3.9026
-4.15666
-4.4251
-4.51185
-4.67247
-4.58577
-4.52092
-4.48415
-4.29384
-4.1282
-4.00629
-3.71787
-3.4413
-3.18892
-2.7434
-2.33795
-1.90577
-1.55833
-2.67724
-2.90482
-3.17537
-3.37871
-3.53028
-3.60901
-3.6846
-3.73074
-3.68234
-3.63923
-3.51838
-3.40162
-3.24663
-2.9536
-2.8221
-2.50083
-2.29547
-1.91738
-1.488
-1.19408
-2.05798
-2.24039
-2.46776
-2.63947
-2.75399
-2.83209
-2.84741
-2.88986
-2.847
-2.76809
-2.69828
-2.62612
-2.49687
-2.36009
-2.1796
-1.8995
-1.66854
-1.43527
-1.13605
-0.942964
-1.45293
-1.55024
-1.76243
-1.83376
-1.88931
-1.98256
-1.99761
-2.06083
-1.99105
-1.90807
-1.9655
-1.86169
-1.7247
-1.64559
-1.52638
-1.37554
-1.26536
-0.964256
-0.875989
-0.605799
-0.873216
-0.921099
-0.999755
-1.05885
-1.17327
-1.24934
-1.19485
-1.25468
-1.2015
-1.2331
-1.22498
-1.14208
-1.06705
-0.972063
-0.966749
-0.803237
-0.750154
-0.582965
-0.495476
-0.404161
-0.366032
-0.319566
-0.350091
-0.382998
-0.369466
-0.438913
-0.427991
-0.406825
-0.446046
-0.455958
-0.337526
-0.379948
-0.335693
-0.396269
-0.351019
-0.324064
-0.236516
-0.194309
-0.103624
-0.181341
-4.45411
-4.94138
-5.39335
-5.76315
-6.00399
-6.27132
-6.34517
-6.42802
-6.40375
-6.29133
-6.10574
-5.88774
-5.62815
-5.22443
-4.86467
-4.423
-3.83961
-3.17571
-2.59816
-1.94817
-3.74655
-4.14701
-4.59539
-4.90761
-5.12874
-5.24414
-5.42629
-5.43846
-5.43987
-5.38892
-5.12451
-4.95943
-4.69574
-4.44849
-4.08458
-3.7216
-3.17027
-2.73063
-2.13995
-1.63842
-3.16532
-3.40928
-3.76681
-4.01732
-4.27734
-4.39026
-4.48819
-4.51681
-4.47921
-4.4521
-4.32611
-4.15285
-3.95169
-3.73943
-3.33457
-3.0746
-2.6531
-2.2871
-1.74317
-1.34315
-2.42352
-2.80399
-2.99841
-3.25579
-3.43119
-3.56021
-3.61441
-3.65192
-3.63134
-3.68688
-3.52514
-3.30499
-3.21842
-2.90833
-2.73265
-2.42092
-2.10633
-1.76426
-1.36154
-1.08849
-1.90841
-2.14334
-2.28363
-2.56978
-2.65458
-2.74855
-2.82069
-2.88698
-2.83368
-2.78822
-2.64601
-2.64247
-2.46691
-2.26009
-2.09584
-1.89298
-1.69826
-1.33077
-1.00378
-0.750435
-1.36721
-1.51016
-1.62305
-1.71366
-1.86563
-1.97447
-1.95079
-2.07821
-1.98797
-1.97308
-1.92044
-1.85555
-1.71795
-1.68524
-1.46614
-1.32913
-1.14059
-0.953434
-0.680304
-0.53902
-0.835069
-1.0035
-0.968242
-1.08636
-1.11331
-1.19399
-1.21882
-1.18432
-1.18377
-1.19687
-1.14808
-1.06284
-0.999155
-0.934997
-0.92352
-0.791778
-0.698864
-0.549117
-0.427973
-0.340266
-0.282715
-0.289932
-0.347554
-0.389674
-0.382114
-0.369739
-0.462399
-0.412478
-0.422497
-0.37115
-0.382206
-0.349096
-0.347824
-0.32062
-0.336251
-0.25089
-0.22678
-0.153517
-0.138444
-0.0745406
-4.00288
-4.42479
-4.97657
-5.35253
-5.68512
-5.99131
-6.13643
-6.18264
-6.17497
-6.11798
-5.94433
-5.7847
-5.37541
-5.07596
-4.59717
-4.14092
-3.52319
-2.88008
-2.25381
-1.66512
-3.33777
-3.77766
-4.20115
-4.57653
-4.84111
-5.05979
-5.20594
-5.24343
-5.1729
-5.16017
-4.98237
-4.80872
-4.57952
-4.30609
-3.87658
-3.45382
-2.90369
-2.3893
-1.82222
-1.3361
-2.78381
-3.08462
-3.48725
-3.78885
-3.99998
-4.18621
-4.20168
-4.31397
-4.33322
-4.29246
-4.25541
-4.05375
-3.81465
-3.57905
-3.23932
-2.84748
-2.45296
-2.02314
-1.4603
-1.09264
-2.181
-2.49135
-2.75794
-3.03026
-3.27762
-3.4207
-3.42436
-3.56059
-3.56143
-3.42122
-3.35544
-3.23476
-3.006
-2.80869
-2.61292
-2.31096
-1.98996
-1.54558
-1.16849
-0.763347
-1.70836
-1.95396
-2.18552
-2.35644
-2.49314
-2.61839
-2.67626
-2.72356
-2.70761
-2.69217
-2.6146
-2.48086
-2.39347
-2.16225
-1.9225
-1.77568
-1.45368
-1.19281
-0.845647
-0.558018
-1.21804
-1.29361
-1.52451
-1.59064
-1.81861
-1.83403
-1.91331
-1.88803
-1.88895
-1.89656
-1.82699
-1.77466
-1.71718
-1.58556
-1.44443
-1.26892
-1.00874
-0.789598
-0.611613
-0.427783
-0.691882
-0.831953
-0.867979
-1.02349
-1.07626
-1.03343
-1.1459
-1.1167
-1.18281
-1.1689
-1.08451
-1.01965
-0.995738
-1.00755
-0.828962
-0.755237
-0.657072
-0.457496
-0.339039
-0.197719
-0.278073
-0.235476
-0.290484
-0.388139
-0.358234
-0.407751
-0.361555
-0.321672
-0.377224
-0.35921
-0.430509
-0.324934
-0.36201
-0.286874
-0.283528
-0.24831
-0.203243
-0.122776
-0.132739
-0.126581
-3.40802
-3.9307
-4.48125
-4.861
-5.32765
-5.56035
-5.67915
-5.81607
-5.77874
-5.69822
-5.56313
-5.32751
-5.07574
-4.64943
-4.20535
-3.78991
-3.10301
-2.43407
-1.68836
-1.09525
-2.83915
-3.30163
-3.76423
-4.12793
-4.4379
-4.58797
-4.79907
-4.87299
-4.96119
-4.83227
-4.72084
-4.53533
-4.28244
-3.91897
-3.50895
-3.0617
-2.55414
-2.02645
-1.38462
-0.903226
-2.31489
-2.70009
-3.01682
-3.39368
-3.6771
-3.90516
-3.97907
-4.05231
-4.10009
-4.06596
-3.93468
-3.77047
-3.5239
-3.25996
-2.8807
-2.51332
-2.09927
-1.57995
-1.09093
-0.641364
-1.82554
-2.12587
-2.47295
-2.7524
-2.94435
-3.11376
-3.20369
-3.30498
-3.27306
-3.23717
-3.17727
-2.97785
-2.84166
-2.62502
-2.33435
-1.95788
-1.64481
-1.25137
-0.738219
-0.460608
-1.27721
-1.61638
-1.90052
-2.0983
-2.27959
-2.42641
-2.49632
-2.49015
-2.58833
-2.45834
-2.42205
-2.31881
-2.17975
-2.02145
-1.70484
-1.59459
-1.22014
-0.94082
-0.58509
-0.444789
-0.949508
-1.15093
-1.27807
-1.45251
-1.57874
-1.68873
-1.80476
-1.83656
-1.80905
-1.80479
-1.65562
-1.6361
-1.47682
-1.41124
-1.26025
-1.08012
-0.9018
-0.652109
-0.416668
-0.219868
-0.632287
-0.726686
-0.860622
-0.862601
-0.988253
-0.98724
-1.04883
-1.05962
-1.06932
-1.06237
-1.03871
-1.00469
-0.918681
-0.812922
-0.808623
-0.623854
-0.550046
-0.398643
-0.263985
-0.116492
-0.176258
-0.168652
-0.284887
-0.246641
-0.264675
-0.275278
-0.379865
-0.305417
-0.285388
-0.362381
-0.32708
-0.368233
-0.335152
-0.24367
-0.206264
-0.187316
-0.183977
-0.094772
-0.108207
-0.0837596
-2.61089
-3.23549
-3.76982
-4.24311
-4.68352
-4.93571
-5.10236
-5.2561
-5.18973
-5.17493
-5.08883
-4.85124
-4.57425
-4.15481
-3.66502
-3.12545
-2.52389
-1.75561
-1.1209
-0.399428
-2.14561
-2.62044
-3.14557
-3.60091
-3.94464
-4.19762
-4.35136
-4.51573
-4.39856
-4.44522
-4.19446
-4.0207
-3.85323
-3.48127
-3.04584
-2.63074
-2.08859
-1.44631
-0.771557
-0.3056
-1.7001
-2.12482
-2.57764
-2.91986
-3.29137
-3.45159
-3.57953
-3.64909
-3.61763
-3.60133
-3.44701
-3.38094
-3.21175
-2.84332
-2.4324
-2.10556
-1.66493
-1.19247
-0.626383
-0.127937
-1.40114
-1.58048
-2.02708
-2.29856
-2.60099
-2.80701
-2.82049
-2.92301
-3.00222
-2.87091
-2.82856
-2.69305
-2.50538
-2.25309
-1.97774
-1.68111
-1.26026
-0.914123
-0.452877
-0.0358487
-0.953512
-1.25863
-1.56492
-1.72529
-1.99976
-2.0865
-2.13414
-2.22311
-2.25648
-2.2492
-2.16734
-2.10911
-1.9191
-1.71833
-1.50743
-1.24689
-0.953172
-0.693883
-0.305211
-0.0624317
-0.686744
-0.934216
-1.08154
-1.2439
-1.34689
-1.55023
-1.57516
-1.54731
-1.58675
-1.54654
-1.5312
-1.50653
-1.40136
-1.21191
-1.01372
-0.843643
-0.676564
-0.50956
-0.210726
0.0475587
-0.408363
-0.494258
-0.65211
-0.726236
-0.81926
-0.83219
-0.920952
-0.95786
-1.0291
-0.925119
-0.943767
-0.869343
-0.787523
-0.802516
-0.605815
-0.562298
-0.426894
-0.27907
-0.0894257
0.0128556
-0.122878
-0.237895
-0.312217
-0.247003
-0.321261
-0.308723
-0.271725
-0.287579
-0.339086
-0.287489
-0.334224
-0.259711
-0.320995
-0.224314
-0.17133
-0.220892
-0.143708
-0.03189
-0.0338924
-0.0844541
-1.77214
-2.38139
-2.95648
-3.4703
-3.94268
-4.14555
-4.55394
-4.57607
-4.64075
-4.60662
-4.44605
-4.22214
-3.83042
-3.46544
-2.90715
-2.35944
-1.74592
-0.986113
-0.234297
0.400776
-1.46986
-1.90419
-2.40253
-2.86146
-3.22077
-3.54741
-3.74344
-3.84428
-3.87804
-3.79906
-3.69558
-3.40077
-3.21293
-2.90122
-2.40932
-1.94859
-1.48212
-0.781517
-0.100624
0.491542
-1.11216
-1.52491
-1.92347
-2.46613
-2.66484
-2.86188
-3.05021
-3.21008
-3.17609
-3.16839
-3.08782
-2.9174
-2.63056
-2.40937
-2.00226
-1.58024
-1.14109
-0.566254
0.0303827
0.461759
-0.864587
-1.20536
-1.51759
-1.92216
-2.05908
-2.29069
-2.42508
-2.49844
-2.51766
-2.52658
-2.51631
-2.2533
-2.17496
-1.90332
-1.53424
-1.19028
-0.871581
-0.413493
0.108179
0.415553
-0.639836
-0.882636
-1.16038
-1.42275
-1.60948
-1.75649
-1.87592
-1.94396
-1.92226
-1.93429
-1.85278
-1.7986
-1.58958
-1.40398
-1.20939
-0.944626
-0.608148
-0.305434
0.106571
0.346485
-0.431598
-0.616419
-0.742044
-1.04785
-1.12268
-1.21197
-1.2967
-1.39813
-1.36549
-1.39113
-1.29629
-1.28069
-1.15871
-0.992987
-0.82643
-0.674117
-0.409016
-0.198231
0.0984859
0.2867
-0.256699
-0.359258
-0.496888
-0.617302
-0.668845
-0.726683
-0.733577
-0.795986
-0.768515
-0.807534
-0.763399
-0.689023
-0.576247
-0.574783
-0.519441
-0.447978
-0.24306
-0.212065
0.0842154
0.186032
-0.0399755
-0.0902092
-0.139657
-0.24039
-0.237912
-0.266449
-0.289291
-0.271712
-0.208703
-0.269401
-0.31235
-0.187219
-0.282816
-0.251469
-0.141426
-0.10084
-0.0992024
-0.100417
0.124268
0.0553005
-0.873992
-1.45938
-2.13415
-2.65238
-3.07435
-3.3829
-3.68316
-3.85689
-3.85455
-3.81598
-3.69642
-3.45589
-3.13972
-2.75031
-2.31993
-1.61105
-0.990258
-0.233627
0.537788
1.1656
-0.678038
-1.15248
-1.72592
-2.18591
-2.5374
-2.92859
-3.12105
-3.17695
-3.28458
-3.23866
-3.03639
-2.89087
-2.57242
-2.196
-1.84586
-1.32054
-0.791196
-0.138018
0.496561
1.16962
-0.516567
-0.869677
-1.38254
-1.70361
-2.07601
-2.34184
-2.47775
-2.56855
-2.62104
-2.61102
-2.50353
-2.31809
-2.1329
-1.79635
-1.42723
-1.03243
-0.575912
-0.0197447
0.546593
1.07452
-0.325916
-0.737636
-1.05258
-1.38622
-1.62612
-1.89536
-1.99282
-2.13406
-2.08337
-2.11485
-1.99525
-1.88262
-1.65372
-1.47191
-1.16221
-0.81656
-0.484438
0.0695081
0.534511
0.994739
-0.278965
-0.553099
-0.806202
-1.01766
-1.27731
-1.43123
-1.49017
-1.56022
-1.68917
-1.56714
-1.49911
-1.41424
-1.27034
-1.05245
-0.776078
-0.537032
-0.313363
0.0649924
0.464257
0.717972
-0.130587
-0.35095
-0.568446
-0.691386
-0.859329
-0.947195
-1.06731
-1.11486
-1.15197
-1.14551
-1.10587
-0.984774
-0.960392
-0.770132
-0.610259
-0.384407
-0.227549
-0.0260183
0.351075
0.528999
-0.0680435
-0.187651
-0.305303
-0.375883
-0.557975
-0.530945
-0.683298
-0.666014
-0.675211
-0.638401
-0.696277
-0.650978
-0.584429
-0.481702
-0.294284
-0.194746
-0.105496
0.0330651
0.216122
0.409372
-0.088627
-0.0926109
-0.172518
-0.150335
-0.154561
-0.230636
-0.277078
-0.237507
-0.235162
-0.208622
-0.223114
-0.254334
-0.185797
-0.175234
-0.116625
-0.137711
-0.0401813
0.0265121
0.0834041
0.0980551
-0.154147
-0.757364
-1.37239
-1.96376
-2.40146
-2.73935
-3.07555
-3.15685
-3.29006
-3.17244
-3.06368
-2.91969
-2.51394
-2.13986
-1.62726
-1.02538
-0.38078
0.344523
1.19454
1.94685
0.0031093
-0.545618
-1.06234
-1.59769
-1.95958
-2.31731
-2.56606
-2.59318
-2.72886
-2.69505
-2.62133
-2.4211
-2.02788
-1.76364
-1.31749
-0.791114
-0.218588
0.445588
1.11524
1.77255
0.0170296
-0.356102
-0.848187
-1.25249
-1.61786
-1.89732
-2.13595
-2.20629
-2.21322
-2.17739
-2.10972
-1.9415
-1.66263
-1.40615
-1.07633
-0.579227
-0.135236
0.417137
0.978806
1.52461
0.103357
-0.299395
-0.660315
-1.01565
-1.35997
-1.55058
-1.63682
-1.77098
-1.79281
-1.74097
-1.74581
-1.55812
-1.38689
-1.16609
-0.817416
-0.533294
-0.0363691
0.440866
0.85076
1.25791
0.0915207
-0.173938
-0.467738
-0.722221
-1.02414
-1.20491
-1.31101
-1.39363
-1.31551
-1.36717
-1.28031
-1.13097
-1.04844
-0.812412
-0.591849
-0.257545
-0.0360815
0.314753
0.770198
0.979085
0.0646999
-0.0901707
-0.323041
-0.561613
-0.724612
-0.782692
-0.81251
-0.99951
-0.968758
-0.918767
-0.918557
-0.801192
-0.680086
-0.648737
-0.472957
-0.19808
-0.0185026
0.233144
0.500507
0.740634
0.00602138
-0.0758074
-0.186076
-0.326914
-0.367508
-0.393974
-0.557353
-0.616769