/*--------------------------------*- C++ -*----------------------------------*\
| =========                 |                                                 |
| \\      /  F ield         | OpenFOAM: The Open Source CFD Toolbox           |
|  \\    /   O peration     | Version:  2212                                  |
|   \\  /    A nd           | Website:  www.openfoam.com                      |
|    \\/     M anipulation  |                                                 |
\*---------------------------------------------------------------------------*/
FoamFile
{
    version     2.0;
    format      ascii;
    arch        "LSB;label=32;scalar=64";
    class       volScalarField;
    location    "0";
    object      stateMean;
}
// * * * * * * * * * * * * * * * * * * * * * * * * * * * * * * * * * * * * * //

dimensions      [0 0 0 1 0 0 0];

internalField   nonuniform List<scalar> 
3200
(
321.46
321.679
321.855
321.966
322.117
322.189
322.135
322.142
322.024
321.796
321.615
321.445
321.067
320.826
320.522
320.1
319.705
319.278
318.811
318.474
318.693
318.886
319.101
319.254
319.358
319.368
319.39
319.299
319.289
319.147
318.994
318.721
318.492
318.214
317.955
317.643
317.192
316.922
316.51
316.205
315.979
316.121
316.27
316.359
316.46
316.57
316.535
316.487
316.496
316.301
316.142
316.039
315.775
315.601
315.285
315.026
314.678
314.305
314.014
313.799
313.159
313.181
313.479
313.495
313.577
313.584
313.643
313.603
313.517
313.397
313.346
313.151
313.05
312.888
312.645
312.375
312.123
311.839
311.565
311.434
310.373
310.389
310.56
310.622
310.653
310.61
310.607
310.628
310.625
310.519
310.4
310.281
310.154
310.063
309.881
309.698
309.559
309.318
309.1
308.964
307.377
307.353
307.481
307.51
307.66
307.634
307.636
307.619
307.616
307.512
307.473
307.443
307.255
307.136
307.056
306.895
306.822
306.682
306.542
306.387
304.457
304.488
304.5
304.565
304.612
304.553
304.59
304.595
304.617
304.542
304.453
304.469
304.413
304.36
304.236
304.167
304.149
303.988
303.896
303.881
301.513
301.512
301.545
301.539
301.586
301.532
301.506
301.538
301.536
301.539
301.547
301.466
301.466
301.448
301.453
301.421
301.377
301.273
301.298
301.3
322.203
322.433
322.681
322.875
322.948
322.967
322.986
323.048
322.895
322.796
322.52
322.299
321.978
321.686
321.339
321.03
320.552
320.136
319.568
319.261
319.37
319.562
319.806
319.936
320.043
320.039
320.115
320.108
319.98
319.815
319.683
319.458
319.2
318.959
318.633
318.316
318.014
317.541
317.158
316.838
316.538
316.608
316.785
317.003
316.984
317.081
317.104
317.048
317.068
316.881
316.791
316.543
316.454
316.126
315.884
315.593
315.287
314.894
314.66
314.367
313.61
313.68
313.835
313.965
314.002
314.088
314.072
314.105
314.082
313.934
313.759
313.616
313.44
313.338
313.086
312.869
312.628
312.41
312.03
311.852
310.583
310.747
310.756
310.925
310.968
310.994
310.948
310.987
310.949
310.838
310.744
310.666
310.513
310.352
310.139
310.024
309.822
309.566
309.424
309.209
307.561
307.69
307.788
307.815
307.872
307.906
307.883
307.872
307.826
307.794
307.667
307.75
307.531
307.478
307.36
307.185
307.063
306.986
306.729
306.684
304.583
304.626
304.615
304.616
304.711
304.755
304.72
304.752
304.706
304.723
304.63
304.628
304.592
304.448
304.391
304.331
304.221
304.11
304.047
303.964
301.572
301.615
301.615
301.615
301.558
301.479
301.504
301.623
301.608
301.648
301.527
301.581
301.537
301.481
301.393
301.344
301.431
301.348
301.348
301.332
323.266
323.536
323.829
323.931
324.12
324.218
324.23
324.211
324.092
323.943
323.751
323.556
323.233
322.995
322.561
322.245
321.676
321.244
320.787
320.306
320.314
320.455
320.718
320.961
321.093
321.087
321.043
321.145
321.079
320.9
320.716
320.517
320.329
320.03
319.679
319.319
318.953
318.595
318.091
317.74
317.21
317.41
317.612
317.787
317.949
317.914
317.947
317.963
317.903
317.755
317.622
317.415
317.245
317.035
316.726
316.387
316.131
315.743
315.401
315.069
314.152
314.314
314.537
314.65
314.658
314.762
314.795
314.776
314.692
314.6
314.478
314.291
314.106
313.948
313.719
313.51
313.265
312.971
312.722
312.459
311.054
311.162
311.32
311.4
311.38
311.503
311.522
311.523
311.488
311.424
311.377
311.172
311.053
310.925
310.75
310.497
310.393
310.17
309.901
309.736
307.947
308.006
308.095
308.198
308.213
308.29
308.282
308.299
308.288
308.113
308.079
307.965
307.924
307.844
307.668
307.632
307.409
307.179
307.198
307.015
304.794
304.828
304.848
304.923
304.898
304.929
305.004
305.012
305.018
304.87
304.928
304.9
304.843
304.719
304.696
304.589
304.436
304.303
304.273
304.216
301.583
301.666
301.606
301.628
301.659
301.647
301.713
301.651
301.701
301.674
301.644
301.607
301.59
301.614
301.484
301.569
301.502
301.485
301.489
301.443
324.39
324.697
324.983
325.208
325.457
325.499
325.592
325.502
325.428
325.3
325.117
324.854
324.551
324.24
323.905
323.425
322.946
322.468
321.931
321.535
321.252
321.462
321.782
322.036
322.093
322.128
322.291
322.236
322.154
322.089
321.921
321.671
321.444
321.107
320.718
320.468
320.001
319.562
319.156
318.765
318.071
318.266
318.497
318.747
318.786
318.85
318.92
318.925
318.82
318.763
318.587
318.441
318.254
317.949
317.747
317.398
317.027
316.643
316.306
316.033
314.886
315.046
315.14
315.343
315.421
315.538
315.445
315.556
315.462
315.344
315.305
315.165
314.919
314.751
314.55
314.286
314.002
313.743
313.415
313.165
311.586
311.714
311.831
312.004
312.057
312.107
312.106
312.123
312.154
311.999
311.974
311.797
311.664
311.578
311.311
311.182
310.957
310.624
310.479
310.226
308.229
308.425
308.475
308.605
308.653
308.707
308.736
308.709
308.641
308.624
308.518
308.458
308.357
308.219
308.216
308.01
307.742
307.625
307.479
307.388
305.007
305.086
305.1
305.197
305.173
305.166
305.258
305.221
305.214
305.206
305.1
305.055
305.047
304.932
304.891
304.772
304.734
304.61
304.531
304.418
301.706
301.716
301.756
301.724
301.733
301.772
301.796
301.736
301.742
301.746
301.723
301.735
301.761
301.602
301.662
301.61
301.511
301.615
301.457
301.472
325.659
325.844
326.253
326.568
326.7
326.88
326.913
326.849
326.868
326.641
326.505
326.208
326.004
325.588
325.098
324.785
324.284
323.779
323.222
322.743
322.277
322.585
322.859
323.11
323.227
323.35
323.476
323.448
323.425
323.287
323.033
322.848
322.574
322.33
321.958
321.542
321.116
320.676
320.273
319.834
318.938
319.136
319.432
319.593
319.76
319.862
319.941
319.909
319.877
319.741
319.603
319.414
319.195
319.022
318.672
318.29
318.031
317.598
317.153
316.875
315.619
315.714
315.894
316.062
316.272
316.218
316.371
316.389
316.27
316.25
316.116
315.988
315.843
315.594
315.313
315.069
314.769
314.389
314.092
313.939
312.155
312.244
312.482
312.568
312.65
312.687
312.84
312.737
312.714
312.633
312.553
312.491
312.285
312.206
311.921
311.735
311.556
311.304
311.03
310.793
308.719
308.81
308.913
308.989
309.115
309.127
309.202
309.087
309.081
309.039
308.957
308.929
308.789
308.742
308.577
308.444
308.308
308.016
307.944
307.73
305.242
305.281
305.344
305.417
305.455
305.463
305.526
305.503
305.539
305.44
305.347
305.386
305.297
305.26
305.101
305.142
304.981
304.923
304.735
304.636
301.725
301.742
301.776
301.863
301.808
301.788
301.85
301.806
301.879
301.832
301.74
301.828
301.825
301.788
301.694
301.722
301.682
301.66
301.622
301.578
326.852
327.164
327.467
327.808
328.004
328.186
328.296
328.275
328.223
328.025
327.85
327.658
327.289
326.971
326.609
326.074
325.544
324.973
324.52
323.956
323.396
323.696
323.885
324.222
324.385
324.588
324.6
324.542
324.55
324.5
324.287
324.053
323.786
323.524
323.093
322.68
322.373
321.791
321.342
320.931
319.818
320.079
320.329
320.542
320.766
320.899
320.928
320.897
320.859
320.762
320.597
320.459
320.231
320.01
319.659
319.312
318.9
318.463
318.127
317.79
316.368
316.512
316.659
316.89
316.988
317.094
317.094
317.177
317.083
317.07
316.914
316.862
316.677
316.339
316.139
315.8
315.557
315.224
314.896
314.541
312.662
312.855
313.104
313.121
313.296
313.373
313.339
313.375
313.323
313.298
313.22
313.084
312.983
312.805
312.567
312.362
312.115
311.866
311.616
311.409
309.057
309.166
309.362
309.4
309.579
309.592
309.594
309.551
309.525
309.523
309.443
309.365
309.283
309.167
308.997
308.844
308.732
308.522
308.412
308.215
305.489
305.565
305.599
305.655
305.703
305.747
305.734
305.796
305.656
305.767
305.732
305.694
305.613
305.557
305.453
305.298
305.201
305.125
305.038
304.966
301.762
301.901
301.89
301.883
301.934
301.973
301.965
301.955
301.929
301.911
301.946
301.861
301.862
301.842
301.81
301.817
301.747
301.65
301.677
301.649
328.003
328.349
328.702
329.088
329.324
329.531
329.624
329.561
329.6
329.466
329.324
329.055
328.639
328.301
327.946
327.387
326.828
326.289
325.686
325.239
324.365
324.638
325.029
325.352
325.533
325.606
325.746
325.734
325.777
325.642
325.439
325.289
325.009
324.704
324.239
323.98
323.371
322.943
322.366
321.986
320.688
320.944
321.293
321.484
321.694
321.809
321.867
321.895
321.903
321.795
321.585
321.486
321.216
320.932
320.633
320.313
319.814
319.441
319.058
318.701
316.984
317.159
317.449
317.67
317.812
317.925
317.997
317.984
317.957
317.906
317.729
317.653
317.411
317.228
316.973
316.665
316.372
315.993
315.662
315.399
313.28
313.42
313.663
313.811
313.93
313.963
314.124
314.015
314.032
313.954
313.849
313.856
313.684
313.412
313.2
313
312.781
312.489
312.208
311.967
309.499
309.652
309.728
309.822
309.994
310.011
310.072
310.042
310.069
310.027
309.938
309.831
309.754
309.575
309.521
309.255
309.186
308.97
308.669
308.494
305.684
305.77
305.875
305.943
305.996
306.038
305.944
306.005
306.007
306.02
305.962
305.904
305.799
305.803
305.695
305.622
305.542
305.348
305.233
305.172
301.947
301.997
302.029
302.011
301.968
302.011
302.085
302.003
302.062
301.996
301.998
302.023
301.995
302.002
301.981
301.782
301.923
301.75
301.782
301.737
329.154
329.586
329.938
330.303
330.626
330.748
330.94
331.015
330.924
330.811
330.615
330.424
330.051
329.709
329.164
328.745
328.112
327.56
326.921
326.39
325.419
325.731
326.078
326.396
326.589
326.823
326.926
326.989
326.89
326.763
326.588
326.393
326.252
325.908
325.424
324.971
324.582
324.02
323.483
323.008
321.552
321.828
322.095
322.376
322.549
322.768
322.851
322.895
322.881
322.781
322.629
322.472
322.22
321.868
321.478
321.248
320.838
320.451
319.914
319.528
317.656
317.941
318.194
318.422
318.501
318.738
318.809
318.787
318.749
318.726
318.605
318.445
318.257
318.015
317.779
317.513
317.141
316.73
316.408
316.003
313.84
314
314.124
314.421
314.435
314.565
314.625
314.633
314.627
314.605
314.498
314.398
314.269
314.15
313.903
313.595
313.313
313.054
312.687
312.582
309.927
310.028
310.189
310.235
310.324
310.448
310.46
310.532
310.45
310.474
310.396
310.268
310.175
310.09
309.867
309.723
309.552
309.438
309.103
308.955
305.984
305.894
306.091
306.181
306.173
306.309
306.346
306.267
306.356
306.32
306.275
306.172
306.093
306.002
306.055
305.825
305.708
305.631
305.558
305.346
302.011
302.05
302.025
302.1
302.12
302.148
302.106
302.158
302.138
302.06
302.069
302.087
302.127
302.005
302.006
301.98
301.953
301.825
301.813
301.823
330.317
330.68
331.192
331.594
331.834
332.091
332.211
332.257
332.236
332.185
331.991
331.708
331.371
331.03
330.595
329.977
329.357
328.737
328.112
327.587
326.319
326.643
327.108
327.378
327.728
327.949
328.03
328.105
328.082
327.938
327.769
327.593
327.273
326.955
326.586
326.129
325.568
325.033
324.457
324.041
322.381
322.775
322.99
323.259
323.477
323.707
323.785
323.849
323.825
323.775
323.593
323.439
323.117
322.903
322.53
322.178
321.716
321.216
320.815
320.407
318.417
318.554
318.889
319.145
319.338
319.458
319.523
319.518
319.555
319.519
319.34
319.292
319.035
318.836
318.485
318.227
317.935
317.467
317.111
316.759
314.357
314.535
314.72
314.881
315.049
315.167
315.276
315.244
315.272
315.225
315.129
314.976
314.938
314.7
314.445
314.126
313.969
313.627
313.296
313.07
310.318
310.415
310.572
310.702
310.766
310.863
310.944
310.949
310.874
310.876
310.842
310.795
310.654
310.461
310.419
310.126
310.019
309.712
309.666
309.398
306.193
306.309
306.45
306.435
306.562
306.525
306.618
306.58
306.57
306.572
306.466
306.447
306.395
306.316
306.204
306.118
305.933
305.891
305.757
305.677
302.073
302.063
302.111
302.097
302.216
302.141
302.221
302.246
302.23
302.205
302.1
302.087
302.172
302.104
302.042
302.092
302.061
301.918
301.97
301.909
331.399
331.824
332.271
332.764
333.069
333.313
333.521
333.496
333.536
333.49
333.222
332.975
332.634
332.285
331.775
331.254
330.643
330.027
329.305
328.639
327.235
327.71
328.131
328.458
328.797
328.987
329.139
329.197
329.149
329.12
328.846
328.68
328.45
328.109
327.644
327.165
326.673
326.003
325.519
324.92
323.245
323.464
323.926
324.179
324.332
324.614
324.771
324.782
324.772
324.785
324.52
324.327
324.139
323.77
323.429
323.08
322.666
322.158
321.662
321.236
319.058
319.34
319.562
319.834
320.112
320.177
320.302
320.33
320.281
320.253
320.201
320.054
319.765
319.556
319.268
318.967
318.608
318.177
317.815
317.391
314.963
315.065
315.274
315.427
315.603
315.748
315.811
315.846
315.844
315.812
315.682
315.681
315.472
315.271
315.018
314.771
314.54
314.171
313.887
313.642
310.657
310.756
310.992
310.965
311.167
311.242
311.394
311.373
311.401
311.388
311.246
311.159
311.156
310.915
310.82
310.571
310.388
310.127
309.947
309.747
306.375
306.479
306.634
306.684
306.679
306.778
306.821
306.858
306.833
306.794
306.764
306.787
306.692
306.586
306.543
306.35
306.274
306.126
306.028
305.903
302.147
302.167
302.197
302.241
302.272
302.291
302.215
302.301
302.253
302.246
302.216
302.202
302.228
302.207
302.16
302.137
302.104
302.034
302.043
301.998
332.502
332.884
333.467
333.917
334.278
334.516
334.666
334.846
334.788
334.658
334.431
334.25
333.887
333.464
332.961
332.423
331.852
331.114
330.411
329.788
328.244
328.634
329.091
329.409
329.744
330.049
330.072
330.19
330.223
330.09
330.01
329.72
329.486
329.149
328.769
328.2
327.767
327.078
326.492
325.958
324.036
324.244
324.728
325.017
325.279
325.528
325.657
325.689
325.658
325.615
325.478
325.206
325.009
324.712
324.314
324.031
323.502
322.97
322.476
322.1
319.711
319.978
320.292
320.496
320.772
320.921
320.94
321.113
321.118
321.023
320.963
320.733
320.469
320.337
320.025
319.676
319.218
318.909
318.481
318.148
315.323
315.595
315.791
316.079
316.116
316.309
316.441
316.434
316.446
316.343
316.263
316.186
316.026
315.895
315.62
315.349
315.09
314.699
314.436
314.184
310.952
311.094
311.355
311.485
311.622
311.698
311.715
311.741
311.781
311.736
311.661
311.577
311.573
311.301
311.218
310.928
310.738
310.564
310.339
310.1
306.54
306.664
306.893
306.9
306.939
307.027
307.018
307.081
307.094
307.064
307.025
306.956
306.897
306.766
306.757
306.556
306.488
306.364
306.205
306.073
302.169
302.284
302.261
302.281
302.337
302.343
302.364
302.393
302.334
302.363
302.392
302.33
302.247
302.226
302.271
302.254
302.142
302.18
302.042
302.084
333.459
333.918
334.529
334.94
335.359
335.61
335.822
335.912
335.921
335.861
335.666
335.365
335.07
334.717
334.136
333.582
333.003
332.174
331.516
330.829
329.104
329.482
329.938
330.424
330.838
330.992
331.139
331.311
331.265
331.211
331.06
330.788
330.463
330.169
329.721
329.207
328.644
328.043
327.406
326.846
324.708
325.05
325.492
325.775
326.052
326.335
326.443
326.514
326.483
326.493
326.376
326.23
325.889
325.558
325.208
324.82
324.393
323.752
323.283
322.779
320.339
320.61
320.857
321.17
321.347
321.604
321.673
321.76
321.811
321.718
321.669
321.531
321.267
321.084
320.716
320.378
319.979
319.546
319.167
318.729
315.839
316.003
316.224
316.437
316.704
316.843
316.891
316.966
316.998
316.949
316.901
316.787
316.58
316.335
316.183
315.91
315.521
315.28
314.954
314.642
311.267
311.523
311.673
311.824
311.947
312.007
312.16
312.162
312.21
312.189
312.103
311.966
311.815
311.745
311.608
311.371
311.185
310.905
310.658
310.414
306.798
306.869
307.034
307.123
307.216
307.291
307.337
307.337
307.251
307.252
307.248
307.272
307.164
307.038
306.917
306.842
306.66
306.547
306.488
306.336
302.309
302.363
302.322
302.396
302.401
302.434
302.463
302.438
302.481
302.436
302.417
302.413
302.414
302.395
302.333
302.281
302.195
302.21
302.175
302.083
334.429
334.892
335.485
335.955
336.419
336.665
336.889
337.019
336.96
337.005
336.749
336.526
336.221
335.727
335.264
334.69
334.007
333.329
332.505
331.902
329.931
330.345
330.871
331.257
331.695
331.875
332.045
332.209
332.23
332.213
332.017
331.698
331.459
331.198
330.668
330.106
329.594
329.015
328.321
327.72
325.409
325.781
326.159
326.526
326.905
327.095
327.347
327.336
327.323
327.314
327.124
326.93
326.756
326.393
326.024
325.669
325.112
324.594
324.055
323.623
320.836
321.132
321.489
321.785
322.027
322.191
322.342
322.449
322.443
322.422
322.301
322.163
321.965
321.611
321.404
320.998
320.701
320.231
319.715
319.353
316.25
316.484
316.779
317.022
317.207
317.351
317.425
317.515
317.506
317.444
317.374
317.285
317.122
316.938
316.699
316.353
316.052
315.746
315.38
315.135
311.629
311.763
312.023
312.146
312.252
312.393
312.45
312.547
312.501
312.43
312.488
312.372
312.211
312.098
311.936
311.739
311.577
311.225
311.089
310.782
306.999
307.069
307.177
307.267
307.411
307.516
307.487
307.567
307.528
307.567
307.559
307.468
307.379
307.264
307.234
307.041
306.958
306.76
306.643
306.53
302.422
302.383
302.423
302.466
302.462
302.542
302.539
302.525
302.569
302.582
302.464
302.503
302.454
302.507
302.454
302.417
302.32
302.267
302.167
302.237
335.27
335.868
336.455
336.966
337.344
337.74
337.926
338.101
338.141
338.061
337.876
337.625
337.301
336.805
336.334
335.763
335.043
334.238
333.525
332.764
330.671
331.165
331.73
332.164
332.504
332.731
333.01
333.101
333.159
333.137
332.873
332.678
332.359
332.032
331.572
331.097
330.426
329.866
329.158
328.562
326.105
326.427
326.884
327.237
327.598
327.805
327.985
328.081
328.091
328.088
327.962
327.765
327.516
327.236
326.75
326.396
325.873
325.404
324.761
324.283
321.303
321.746
322.02
322.363
322.62
322.826
322.948
323.041
323.058
323.134
322.972
322.732
322.607
322.242
321.999
321.61
321.213
320.786
320.304
319.967
316.662
316.945
317.149
317.5
317.65
317.803
317.928
318.037
318.014
317.983
317.841
317.822
317.617
317.367
317.15
316.888
316.628
316.196
315.806
315.504
311.947
312.124
312.281
312.419
312.617
312.768
312.782
312.94
312.871
312.867
312.814
312.739
312.58
312.516
312.26
312.08
311.846
311.611
311.294
311.119
307.204
307.393
307.384
307.53
307.585
307.692
307.739
307.723
307.736
307.755
307.706
307.615
307.538
307.455
307.422
307.264
307.143
306.965
306.818
306.709
302.421
302.434
302.501
302.553
302.554
302.55
302.65
302.606
302.621
302.572
302.583
302.548
302.542
302.509
302.516
302.423
302.39
302.307
302.282
302.213
336.086
336.611
337.287
337.792
338.248
338.67
338.917
339.045
339.095
339.068
338.894
338.705
338.237
337.857
337.276
336.704
335.962
335.19
334.44
333.748
331.369
331.895
332.426
332.913
333.285
333.604
333.838
333.946
333.926
333.939
333.761
333.562
333.283
332.938
332.421
331.898
331.24
330.614
329.939
329.367
326.667
327.04
327.532
327.928
328.231
328.502
328.592
328.764
328.826
328.806
328.769
328.547
328.265
327.969
327.555
327.078
326.592
326.068
325.415
324.976
321.836
322.203
322.544
322.893
323.216
323.429
323.493
323.679
323.713
323.591
323.525
323.387
323.124
322.878
322.621
322.249
321.853
321.332
320.88
320.418
317.068
317.359
317.648
317.878
318.073
318.252
318.358
318.444
318.455
318.453
318.376
318.228
318.113
317.844
317.557
317.356
316.976
316.655
316.251
315.918
312.232
312.339
312.611
312.72
312.99
313.043
313.156
313.159
313.179
313.197
313.127
313.065
312.988
312.829
312.653
312.44
312.138
311.876
311.657
311.442
307.323
307.481
307.542
307.723
307.801
307.781
307.914
307.902
307.979
307.971
307.887
307.816
307.781
307.776
307.577
307.48
307.357
307.131
306.988
306.829
302.503
302.466
302.53
302.636
302.615
302.672
302.633
302.599
302.658
302.642
302.714
302.606
302.639
302.558
302.548
302.505
302.451
302.363
302.364
302.352
336.844
337.461
338.125
338.622
339.202
339.539
339.749
339.959
339.973
339.919
339.784
339.522
339.219
338.719
338.184
337.664
336.864
336.078
335.218
334.531
332.05
332.592
333.153
333.618
334.026
334.267
334.557
334.694
334.827
334.721
334.61
334.401
334.103
333.677
333.188
332.65
332.044
331.415
330.675
330.114
327.202
327.653
328.053
328.516
328.882
329.187
329.328
329.454
329.54
329.525
329.394
329.21
328.926
328.609
328.163
327.718
327.221
326.616
326.044
325.528
322.306
322.659
323.074
323.423
323.683
323.916
324.061
324.206
324.205
324.185
324.125
323.91
323.743
323.482
323.136
322.697
322.316
321.852
321.271
320.941
317.282
317.662
317.999
318.251
318.486
318.68
318.793
318.821
318.943
318.826
318.79
318.674
318.511
318.318
317.959
317.801
317.373
317.039
316.631
316.45
312.426
312.656
312.82
313.034
313.198
313.343
313.489
313.546
313.535
313.54
313.391
313.362
313.186
313.095
312.914
312.699
312.483
312.194
311.922
311.696
307.541
307.653
307.809
307.835
307.983
308.003
308.083
308.109
308.128
308.126
308.103
308.064
307.968
307.847
307.825
307.619
307.522
307.347
307.19
307.025
302.494
302.493
302.617
302.587
302.612
302.629
302.74
302.67
302.654
302.733
302.698
302.737
302.7
302.604
302.56
302.534
302.524
302.427
302.432
302.402
337.468
338.178
338.818
339.397
339.941
340.287
340.535
340.754
340.734
340.743
340.657
340.395
340.072
339.588
339.016
338.382
337.678
336.804
336.064
335.256
332.594
333.141
333.757
334.305
334.738
335.072
335.296
335.518
335.441
335.507
335.256
335.063
334.855
334.426
333.92
333.424
332.793
332.057
331.293
330.754
327.638
328.124
328.653
329.073
329.519
329.75
329.938
330.055
330.058
330.058
329.904
329.821
329.618
329.201
328.73
328.334
327.818
327.267
326.625
326.066
322.744
322.972
323.481
323.817
324.18
324.443
324.505
324.648
324.754
324.638
324.596
324.445
324.23
323.938
323.614
323.26
322.778
322.368
321.845
321.379
317.632
317.974
318.328
318.538
318.861
318.991
319.077
319.197
319.252
319.256
319.174
319.105
318.893
318.661
318.412
318.108
317.766
317.457
317.02
316.74
312.645
312.918
313.1
313.298
313.435
313.67
313.722
313.716
313.771
313.739
313.723
313.691
313.57
313.359
313.134
312.932
312.731
312.528
312.195
311.91
307.606
307.708
307.887
307.982
308.096
308.128
308.233
308.283
308.364
308.264
308.283
308.204
308.113
308.115
307.902
307.839
307.683
307.514
307.303
307.185
302.539
302.659
302.74
302.682
302.763
302.757
302.726
302.746
302.8
302.75
302.797
302.721
302.779
302.678
302.619
302.663
302.579
302.46
302.455
302.5
338.078
338.767
339.438
340.049
340.615
340.903
341.385
341.466
341.572
341.559
341.398
341.153
340.72
340.296
339.664
339.031
338.325
337.468
336.62
335.905
333.174
333.675
334.257
334.799
335.24
335.64
335.9
336.052
336.122
336.061
335.958
335.645
335.421
335.058
334.502
333.968
333.42
332.636
331.872
331.212
328.113
328.582
329.049
329.664
329.931
330.191
330.433
330.636
330.633
330.64
330.56
330.374
330.057
329.792
329.331
328.846
328.339
327.692
327.027
326.539
323.077
323.462
323.832
324.294
324.487
324.771
324.949
325.058
325.102
325.124
325.113
324.837
324.735
324.427
324.014
323.618
323.244
322.727
322.149
321.796
317.993
318.271
318.592
318.9
319.13
319.317
319.472
319.567
319.565
319.586
319.505
319.442
319.213
319
318.77
318.466
318.085
317.737
317.281
317.007
312.872
313.081
313.238
313.577
313.683
313.8
313.91
314.031
314.012
314.045
313.95
313.928
313.792
313.606
313.414
313.234
312.938
312.694
312.367
312.153
307.745
307.862
308.019
308.158
308.229
308.304
308.326
308.4
308.381
308.424
308.379
308.301
308.18
308.167
308.096
308.008
307.784
307.734
307.419
307.302
302.553
302.608
302.664
302.77
302.775
302.809
302.837
302.824
302.763
302.825
302.868
302.741
302.835
302.799
302.684
302.638
302.629
302.624
302.394
302.458
338.561
339.22
339.983
340.59
341.098
341.484
341.851
342.078
342.113
342.093
341.973
341.714
341.361
340.918
340.421
339.635
338.928
338.083
337.223
336.521
333.564
334.101
334.751
335.288
335.713
336.173
336.423
336.525
336.666
336.636
336.433
336.272
335.92
335.498
335.09
334.497
333.893
333.163
332.452
331.716
328.507
328.912
329.489
329.876
330.311
330.634
330.819
330.95
331.029
331.033
330.926
330.726
330.514
330.137
329.719
329.267
328.748
328.126
327.495
326.915
323.34
323.793
324.161
324.548
324.839
325.155
325.294
325.467
325.439
325.482
325.362
325.239
324.987
324.773
324.422
324.03
323.646
323.038
322.52
322.019
318.251
318.557
318.851
319.105
319.404
319.595
319.685
319.78
319.927
319.814
319.746
319.652
319.49
319.247
318.94
318.664
318.4
317.98
317.54
317.254
313.011
313.253
313.5
313.653
313.849
313.963
314.106
314.172
314.222
314.222
314.182
314.055
314.017
313.809
313.626
313.374
313.19
312.958
312.551
312.351
307.819
307.953
308.087
308.176
308.375
308.364
308.53
308.524
308.54
308.507
308.565
308.516
308.442
308.329
308.127
308.012
307.905
307.749
307.549
307.342
302.69
302.698
302.784
302.767
302.778
302.859
302.91
302.874
302.874
302.849
302.863
302.893
302.822
302.808
302.745
302.761
302.657
302.584
302.522
302.503
338.908
339.581
340.279
340.954
341.471
341.881
342.281
342.411
342.578
342.478
342.37
342.208
341.768
341.345
340.769
340.095
339.371
338.562
337.629
336.807
333.763
334.371
334.959
335.568
335.999
336.419
336.723
336.793
336.959
336.94
336.866
336.651
336.228
335.921
335.419
334.83
334.189
333.451
332.71
331.993
328.687
329.109
329.662
330.128
330.553
330.886
331.171
331.278
331.31
331.287
331.22
331.038
330.735
330.441
330.065
329.514
329.011
328.397
327.774
327.179
323.476
323.917
324.328
324.735
325.127
325.363
325.487
325.651
325.694
325.652
325.657
325.459
325.267
325.016
324.629
324.3
323.755
323.227
322.767
322.321
318.308
318.605
318.937
319.231
319.571
319.786
319.922
320.029
319.967
320.026
319.939
319.782
319.683
319.423
319.173
318.805
318.545
318.154
317.661
317.421
313.115
313.291
313.552
313.819
314.01
314.092
314.143
314.347
314.328
314.284
314.284
314.16
314.027
313.979
313.782
313.483
313.276
312.996
312.7
312.439
307.923
308.018
308.144
308.303
308.36
308.401
308.577
308.647
308.598
308.575
308.585
308.496
308.442
308.359
308.229
308.139
307.903
307.754
307.672
307.503
302.614
302.679
302.774
302.799
302.914
302.91
302.936
302.887
302.865
302.899
302.872
302.895
302.862
302.776
302.813
302.673
302.628
302.661
302.589
302.549
)
;

boundaryField
{
    hotSide
    {
        type            fixedGradient;
        gradient        nonuniform List<scalar> 
400
(
321.511
322.87
325.591
329.677
335.133
341.965
350.181
359.788
370.794
383.208
397.037
412.289
428.971
447.088
466.647
487.651
510.105
534.011
559.372
586.191
323.738
325.08
327.767
331.802
337.194
343.949
352.078
361.591
372.498
384.81
398.537
413.687
430.268
448.289
467.755
488.672
511.043
534.872
560.161
586.913
326.149
327.47
330.116
334.091
339.406
346.071
354.099
363.503
374.296
386.491
400.101
415.136
431.606
449.52
468.885
489.706
511.988
535.735
560.948
587.63
328.704
330
332.597
336.503
341.73
348.292
356.205
365.485
376.15
388.215
401.695
416.604
432.954
450.753
470.009
490.73
512.919
536.579
561.714
588.325
331.33
332.599
335.142
338.97
344.099
350.546
358.332
367.477
378.003
389.928
403.271
418.047
434.27
451.949
471.095
491.712
513.807
537.382
562.439
588.978
333.918
335.158
337.643
341.389
346.414
352.74
360.392
369.397
379.779
391.562
404.765
419.407
435.503
453.065
472.101
492.618
514.622
538.114
563.096
589.569
336.321
337.531
339.959
343.622
348.544
354.751
362.274
371.142
381.385
393.031
406.101
420.618
436.595
454.047
472.983
493.409
515.33
538.747
563.663
590.076
338.36
339.543
341.92
345.509
350.339
356.44
363.847
372.595
382.718
394.244
407.2
421.608
437.485
454.844
473.695
494.045
515.897
539.253
564.114
590.478
339.852
341.015
343.352
346.885
351.645
357.665
364.985
373.643
383.675
395.113
407.984
422.312
438.116
455.407
474.197
494.491
516.294
539.606
564.428
590.758
340.643
341.795
344.11
347.613
352.334
358.311
365.584
374.193
384.176
395.567
408.393
422.679
438.443
455.699
474.456
494.722
516.498
539.788
564.589
590.901
340.643
341.795
344.11
347.613
352.334
358.311
365.584
374.193
384.176
395.567
408.393
422.679
438.443
455.699
474.456
494.722
516.498
539.788
564.589
590.901
339.852
341.015
343.352
346.885
351.645
357.665
364.985
373.643
383.675
395.113
407.984
422.312
438.116
455.407
474.197
494.491
516.294
539.606
564.428
590.758
338.36
339.543
341.92
345.509
350.339
356.44
363.847
372.595
382.718
394.244
407.2
421.608
437.485
454.844
473.695
494.045
515.897
539.253
564.114
590.478
336.321
337.531
339.959
343.622
348.544
354.751
362.274
371.142
381.385
393.031
406.101
420.618
436.595
454.047
472.983
493.409
515.33
538.747
563.663
590.076
333.918
335.158
337.643
341.389
346.414
352.74
360.392
369.397
379.779
391.562
404.765
419.407
435.503
453.065
472.101
492.618
514.622
538.114
563.096
589.569
331.33
332.599
335.142
338.97
344.099
350.546
358.332
367.477
378.003
389.928
403.271
418.047
434.27
451.949
471.095
491.712
513.807
537.382
562.439
588.978
328.704
330
332.597
336.503
341.73
348.292
356.205
365.485
376.15
388.215
401.695
416.604
432.954
450.753
470.009
490.73
512.919
536.579
561.714
588.325
326.149
327.47
330.116
334.091
339.406
346.071
354.099
363.503
374.296
386.491
400.101
415.136
431.606
449.52
468.885
489.706
511.988
535.735
560.948
587.63
323.738
325.08
327.767
331.802
337.194
343.949
352.078
361.591
372.498
384.81
398.537
413.687
430.268
448.289
467.755
488.672
511.043
534.872
560.161
586.913
321.511
322.87
325.591
329.677
335.133
341.965
350.181
359.788
370.794
383.208
397.037
412.289
428.971
447.088
466.647
487.651
510.105
534.011
559.372
586.191
)
;
    }
    coldSide
    {
        type            mixed;
        refValue        uniform 300;
        refGradient     uniform 0;
        valueFraction   uniform 0.991591;
        source          uniform 0;
        value           nonuniform List<scalar> 
400
(
300.013
300.013
300.013
300.014
300.015
300.015
300.016
300.017
300.017
300.018
300.018
300.019
300.02
300.02
300.021
300.021
300.021
300.021
300.023
300.022
300.013
300.014
300.014
300.014
300.015
300.016
300.017
300.017
300.017
300.018
300.019
300.02
300.02
300.02
300.021
300.021
300.022
300.022
300.023
300.023