/*--------------------------------*- C++ -*----------------------------------*\
| =========                 |                                                 |
| \\      /  F ield         | OpenFOAM: The Open Source CFD Toolbox           |
|  \\    /   O peration     | Version:  2212                                  |
|   \\  /    A nd           | Website:  www.openfoam.com                      |
|    \\/     M anipulation  |                                                 |
\*---------------------------------------------------------------------------*/
FoamFile
{
    version     2.0;
    format      ascii;
    arch        "LSB;label=32;scalar=64";
    class       volScalarField;
    location    "0";
    object      T;
}
// * * * * * * * * * * * * * * * * * * * * * * * * * * * * * * * * * * * * * //

dimensions      [0 0 0 1 0 0 0];

internalField   nonuniform List<scalar> 
3200
(
349.361
348.531
347.944
347.849
347.925
348.667
349.328
350.033
350.514
350.935
350.971
350.527
349.737
348.611
347.635
346.559
345.546
345.135
345.387
346.138
342.611
341.926
341.44
341.357
341.435
342.065
342.656
343.277
343.675
344.059
344.086
343.695
343.017
342.016
341.183
340.26
339.383
338.962
339.181
339.795
335.924
335.369
334.978
334.91
334.986
335.509
336.065
336.525
336.889
337.233
337.236
336.916
336.335
335.441
334.791
334.006
333.254
332.841
333.058
333.54
329.315
328.846
328.581
328.508
328.572
328.993
329.482
329.833
330.144
330.416
330.439
330.169
329.682
328.951
328.426
327.765
327.158
326.791
326.963
327.359
322.768
322.378
322.183
322.142
322.197
322.514
322.921
323.176
323.421
323.62
323.648
323.44
323.064
322.493
322.076
321.573
321.085
320.802
320.938
321.261
316.254
315.953
315.823
315.814
315.846
316.064
316.37
316.54
316.723
316.881
316.87
316.75
316.483
316.053
315.762
315.413
315.062
314.839
314.949
315.185
309.765
309.595
309.494
309.503
309.521
309.642
309.833
309.943
310.059
310.135
310.109
310.062
309.896
309.643
309.479
309.269
309.052
308.91
308.968
309.126
303.27
303.224
303.184
303.191
303.183
303.229
303.293
303.329
303.371
303.403
303.387
303.376
303.316
303.222
303.183
303.116
303.036
302.986
303.003
303.062
349.299
348.298
347.816
347.75
348.16
348.782
349.606
350.37
350.943
351.31
351.291
350.893
350.052
348.997
347.933
346.807
345.628
345.201
345.468
346.051
342.546
341.748
341.331
341.287
341.633
342.177
342.903
343.559
344.079
344.367
344.362
343.996
343.263
342.369
341.434
340.464
339.412
339.058
339.267
339.758
335.876
335.237
334.9
334.857
335.142
335.62
336.233
336.794
337.237
337.477
337.481
337.142
336.535
335.782
334.976
334.158
333.281
332.972
333.108
333.541
329.269
328.767
328.512
328.456
328.699
329.115
329.594
330.076
330.434
330.629
330.613
330.34
329.855
329.238
328.557
327.891
327.188
326.928
327.013
327.368
322.729
322.321
322.135
322.118
322.312
322.604
322.989
323.353
323.636
323.815
323.784
323.579
323.184
322.724
322.185
321.656
321.115
320.931
320.975
321.241
316.21
315.926
315.806
315.775
315.933
316.117
316.416
316.683
316.886
317.009
316.993
316.829
316.561
316.229
315.815
315.466
315.083
314.958
314.954
315.165
309.715
309.557
309.47
309.476
309.558
309.656
309.853
310.011
310.135
310.218
310.22
310.112
309.94
309.748
309.487
309.282
309.057
308.974
308.965
309.109
303.262
303.202
303.162
303.177
303.2
303.227
303.307
303.363
303.407
303.43
303.431
303.393
303.331
303.267
303.182
303.107
303.041
302.993
302.996
303.052
349.252
348.42
347.93
347.85
348.401
349.18
349.999
350.848
351.469
351.931
351.931
351.464
350.677
349.608
348.272
347.115
345.989
345.524
345.588
346.145
342.517
341.861
341.426
341.353
341.822
342.506
343.238
343.979
344.507
344.932
344.9
344.5
343.834
342.882
341.763
340.755
339.742
339.32
339.393
339.838
335.847
335.331
334.979
334.912
335.316
335.877
336.533
337.157
337.593
337.949
337.911
337.575
337.022
336.222
335.31
334.433
333.58
333.189
333.236
333.611
329.272
328.86
328.576
328.498
328.867
329.313
329.845
330.378
330.725
331.018
330.978
330.685
330.253
329.591
328.874
328.142
327.423
327.096
327.125
327.429
322.728
322.396
322.207
322.122
322.451
322.776
323.19
323.633
323.893
324.12
324.075
323.838
323.522
323.018
322.445
321.903
321.308
321.053
321.057
321.305
316.213
315.994
315.84
315.789
316.043
316.259
316.566
316.887
317.059
317.232
317.168
317.019
316.802
316.441
316.027
315.632
315.208
315.055
315.018
315.221
309.737
309.602
309.508
309.498
309.622
309.747
309.946
310.143
310.249
310.367
310.302
310.227
310.086
309.89
309.619
309.402
309.123
309.033
309.008
309.146
303.262
303.212
303.19
303.193
303.223
303.263
303.336
303.399
303.428
303.481
303.447
303.427
303.379
303.318
303.227
303.16
303.055
303.028
303.019
303.067
349.525
348.76
348.277
348.374
348.76
349.642
350.515
351.509
352.265
352.691
352.741
352.295
351.617
350.239
348.831
347.689
346.497
345.849
345.902
346.451
342.761
342.151
341.742
341.829
342.171
342.898
343.65
344.552
345.2
345.552
345.602
345.233
344.612
343.432
342.208
341.25
340.213
339.61
339.66
340.111
336.064
335.569
335.256
335.301
335.623
336.201
336.845
337.619
338.166
338.479
338.529
338.21
337.688
336.665
335.653
334.821
333.953
333.426
333.473
333.833
329.42
329.047
328.808
328.839
329.107
329.552
330.093
330.725
331.178
331.435
331.505
331.217
330.796
329.965
329.134
328.442
327.741
327.287
327.337
327.614
322.836
322.562
322.393
322.417
322.609
322.949
323.389
323.851
324.212
324.416
324.502
324.257
323.931
323.308
322.624
322.098
321.576
321.204
321.23
321.451
316.282
316.084
315.996
316.013
316.145
316.366
316.713
317.028
317.297
317.43
317.507
317.325
317.093
316.668
316.152
315.782
315.395
315.109
315.147
315.312
309.762
309.637
309.601
309.628
309.679
309.818
310.045
310.201
310.371
310.448
310.514
310.414
310.285
310.008
309.704
309.478
309.22
309.058
309.083
309.179
303.269
303.223
303.212
303.227
303.237
303.294
303.371
303.418
303.482
303.501
303.518
303.485
303.453
303.357
303.257
303.17
303.088
303.035
303.033
303.069
350.032
349.169
348.761
348.92
349.312
350.154
351.153
352.304
353.046
353.65
353.656
353.167
352.455
351.132
349.705
348.362
347.126
346.434
346.415
346.979
343.157
342.492
342.156
342.296
342.609
343.345
344.228
345.246
345.855
346.366
346.402
345.994
345.337
344.209
342.963
341.826
340.745
340.133
340.112
340.587
336.382
335.879
335.586
335.732
335.963
336.614
337.357
338.212
338.72
339.147
339.2
338.881
338.277
337.325
336.297
335.315
334.413
333.896
333.88
334.284
329.668
329.334
329.051
329.196
329.362
329.911
330.532
331.216
331.635
331.984
332.045
331.778
331.228
330.496
329.652
328.849
328.125
327.706
327.683
328.019
323.012
322.812
322.578
322.695
322.816
323.24
323.728
324.235
324.574
324.838
324.89
324.715
324.238
323.7
323.037
322.428
321.857
321.552
321.499
321.796
316.4
316.309
316.121
316.202
316.303
316.573
316.941
317.287
317.537
317.725
317.764
317.673
317.283
316.935
316.46
316.019
315.588
315.385
315.356
315.564
309.832
309.795
309.683
309.722
309.786
309.942
310.174
310.363
310.515
310.645
310.675
310.613
310.371
310.171
309.886
309.62
309.336
309.243
309.227
309.35
303.29
303.284
303.246
303.262
303.275
303.338
303.413
303.465
303.523
303.563
303.579
303.566
303.474
303.407
303.305
303.205
303.127
303.105
303.101
303.139
350.548
349.755
349.448
349.587
350.19
350.796
351.966
353.144
354.031
354.569
354.698
354.299
353.353
352.002
350.424
349.085
347.921
347.28
347.205
347.618
343.629
342.967
342.738
342.89
343.375
343.925
344.94
345.944
346.716
347.19
347.298
346.962
346.101
344.955
343.598
342.441
341.452
340.886
340.803
341.161
336.81
336.271
336.101
336.241
336.63
337.103
337.942
338.8
339.456
339.861
339.967
339.66
338.923
337.976
336.842
335.831
335.029
334.537
334.448
334.752
330.046
329.631
329.52
329.592
329.93
330.314
331.001
331.683
332.229
332.554
332.653
332.397
331.794
331.012
330.134
329.252
328.622
328.227
328.151
328.379
323.328
323.039
322.921
322.979
323.274
323.562
324.077
324.613
325.056
325.268
325.36
325.196
324.682
324.101
323.418
322.712
322.253
321.942
321.876
322.047
316.648
316.438
316.359
316.404
316.643
316.816
317.183
317.574
317.906
318.019
318.115
317.997
317.606
317.205
316.72
316.199
315.896
315.676
315.612
315.733
309.994
309.873
309.817
309.851
309.994
310.1
310.304
310.542
310.752
310.821
310.866
310.818
310.553
310.314
310.044
309.721
309.551
309.419
309.364
309.434
303.357
303.301
303.287
303.29
303.353
303.383
303.443
303.536
303.603
303.634
303.643
303.623
303.536
303.46
303.358
303.255
303.196
303.159
303.136
303.151
351.226
350.496
350.16
350.419
350.978
351.575
352.814
353.907
355.001
355.524
355.726
355.416
354.364
353.025
351.276
349.987
348.802
348.237
348.056
348.226
344.217
343.64
343.362
343.605
344.12
344.582
345.674
346.61
347.59
348.004
348.181
347.938
347.008
345.858
344.334
343.225
342.194
341.714
341.548
341.653
337.277
336.837
336.629
336.831
337.258
337.666
338.568
339.365
340.207
340.535
340.69
340.469
339.711
338.725
337.454
336.517
335.65
335.247
335.067
335.124
330.41
330.084
329.918
330.117
330.453
330.79
331.537
332.144
332.838
333.12
333.258
333.069
332.453
331.652
330.619
329.829
329.13
328.807
328.636
328.657
323.614
323.368
323.239
323.401
323.666
323.922
324.512
324.951
325.542
325.744
325.871
325.696
325.218
324.597
323.798
323.164
322.645
322.387
322.246
322.25
316.848
316.682
316.588
316.699
316.892
317.081
317.494
317.818
318.246
318.385
318.477
318.344
318.009
317.559
316.986
316.531
316.16
315.976
315.881
315.872
310.103
310.012
309.949
310.016
310.147
310.263
310.499
310.699
310.955
311.043
311.095
311.014
310.81
310.56
310.208
309.932
309.703
309.601
309.538
309.524
303.38
303.356
303.331
303.348
303.392
303.437
303.521
303.589
303.671
303.692
303.718
303.696
303.616
303.53
303.418
303.325
303.254
303.228
303.192
303.192
352.172
351.442
351.045
351.145
351.774
352.529
353.755
354.757
355.911
356.531
356.751
356.394
355.533
353.977
352.292
350.853
349.739
349.123
348.946
349.069
345.056
344.485
344.123
344.26
344.789
345.413
346.476
347.336
348.344
348.909
349.085
348.773
348.033
346.69
345.235
344.01
343.004
342.5
342.322
342.38
338.019
337.561
337.258
337.407
337.843
338.341
339.257
339.976
340.835
341.306
341.475
341.208
340.56
339.456
338.217
337.205
336.32
335.913
335.772
335.755
331.045
330.688
330.427
330.567
330.931
331.322
332.064
332.659
333.362
333.746
333.907
333.672
333.138
332.234
331.251
330.4
329.669
329.351
329.252
329.194
324.121
323.83
323.632
323.751
324.056
324.347
324.93
325.376
325.923
326.227
326.36
326.177
325.733
325.045
324.307
323.628
323.065
322.815
322.737
322.67
317.211
316.985
316.866
316.965
317.185
317.377
317.79
318.115
318.507
318.734
318.839
318.703
318.355
317.885
317.362
316.893
316.465
316.291
316.244
316.17
310.317
310.171
310.136
310.187
310.325
310.444
310.678
310.875
311.125
311.244
311.32
311.236
311.005
310.741
310.422
310.152
309.876
309.767
309.753
309.704
303.458
303.403
303.384
303.41
303.459
303.498
303.581
303.647
303.732
303.768
303.796
303.774
303.69
303.604
303.482
303.402
303.315
303.278
303.278
303.26
353.151
352.439
352.039
352.12
352.556
353.492
354.564
355.748
356.708
357.43
357.681
357.277
356.341
354.822
353.239
351.866
350.761
350.054
349.72
349.959
345.915
345.328
344.982
345.068
345.461
346.263
347.194
348.208
349.026
349.673
349.875
349.535
348.755
347.433
346.057
344.863
343.919
343.272
342.972
343.163
338.738
338.274
337.977
338.052
338.396
339.095
339.876
340.731
341.405
341.964
342.125
341.843
341.212
340.084
338.902
337.921
337.109
336.544
336.294
336.44
331.639
331.265
331.002
331.113
331.372
331.954
332.586
333.283
333.818
334.301
334.408
334.187
333.674
332.752
331.793
331
330.326
329.845
329.65
329.753
324.575
324.302
324.103
324.197
324.39
324.843
325.34
325.868
326.271
326.645
326.726
326.571
326.159
325.454
324.705
324.093
323.56
323.179
323.028
323.12
317.54
317.352
317.236
317.281
317.421
317.736
318.094
318.465
318.754
319.038
319.08
318.992
318.663
318.161
317.646
317.207
316.83
316.558
316.46
316.512
310.531
310.399
310.35
310.387
310.472
310.617
310.88
311.101
311.256
311.444
311.454
311.422
311.196
310.888
310.592
310.335
310.118
309.94
309.875
309.914
303.539
303.493
303.472
303.483
303.519
303.545
303.651
303.722
303.761
303.843
303.838
303.826
303.744
303.645
303.55
303.466
303.394
303.341
303.301
303.328
354.063
353.359
352.939
353.092
353.475
354.344
355.371
356.486
357.487
358.213
358.473
358.073
357.089
355.556
354.176
352.924
351.736
350.886
350.491
350.986
346.704
346.105
345.775
345.908
346.218
346.998
347.905
348.825
349.708
350.345
350.583
350.216
349.381
348.056
346.87
345.796
344.737
344.005
343.656
344.077
339.427
338.908
338.647
338.776
339.024
339.705
340.483
341.252
341.99
342.506
342.726
342.42
341.706
340.609
339.604
338.704
337.791
337.174
336.872
337.222
332.206
331.786
331.572
331.688
331.866
332.462
333.099
333.705
334.326
334.727
334.908
334.643
334.085
333.196
332.37
331.637
330.878
330.357
330.131
330.4
325.027
324.682
324.543
324.617
324.743
325.237
325.727
326.184
326.673
326.964
327.115
326.919
326.5
325.797
325.15
324.575
323.996
323.591
323.399
323.612
317.865
317.613
317.536
317.576
317.657
318.033
318.366
318.691
319.055
319.264
319.352
319.219
318.921
318.427
317.943
317.548
317.131
316.854
316.701
316.845
310.713
310.554
310.529
310.552
310.592
310.834
311.032
311.206
311.425
311.558
311.622
311.553
311.348
311.076
310.751
310.539
310.297
310.123
310.027
310.098
303.581
303.529
303.524
303.539
303.548
303.63
303.696
303.749
303.823
303.87
303.902
303.864
303.791
303.706
303.603
303.529
303.462
303.389
303.36
303.385
354.972
354.328
354.008
353.954
354.375
355.244
356.247
357.228
358.236
358.894
359.164
358.658
357.722
356.405
355.032
353.622
352.506
351.907
351.595
351.92
347.499
346.963
346.693
346.663
347.032
347.767
348.655
349.511
350.378
350.958
351.192
350.722
349.936
348.771
347.633
346.41
345.44
344.9
344.616
344.883
340.099
339.662
339.431
339.446
339.731
340.364
341.113
341.845
342.584
343.032
343.249
342.832
342.207
341.194
340.268
339.226
338.398
337.927
337.685
337.904
332.742
332.415
332.226
332.251
332.48
333.003
333.596
334.207
334.811
335.16
335.34
335.015
334.51
333.651
332.917
332.062
331.377
330.986
330.774
330.959
325.431
325.194
325.048
325.068
325.248
325.672
326.126
326.607
327.059
327.316
327.465
327.204
326.834
326.154
325.582
324.915
324.379
324.082
323.89
324.037
318.138
317.987
317.89
317.933
318.025
318.342
318.672
319.006
319.333
319.497
319.62
319.427
319.16
318.667
318.28
317.814
317.406
317.188
317.05
317.137
310.89
310.811
310.751
310.78
310.802
311.004
311.236
311.441
311.605
311.687
311.776
311.657
311.486
311.188
310.975
310.706
310.429
310.317
310.239
310.28
303.65
303.619
303.605
303.601
303.636
303.684
303.762
303.841
303.882
303.909
303.959
303.904
303.853
303.749
303.671
303.586
303.502
303.463
303.423
303.444
355.869
355.311
354.965
354.943
355.4
356.044
357.065
357.95
358.877
359.402
359.647
359.204
358.3
357.088
355.782
354.417
353.399
352.744
352.543
352.828
348.258
347.816
347.539
347.505
347.935
348.485
349.385
350.129
350.926
351.377
351.584
351.205
350.461
349.378
348.253
347.07
346.19
345.629
345.437
345.671
340.74
340.379
340.168
340.122
340.525
340.975
341.737
342.349
343.019
343.403
343.582
343.25
342.65
341.722
340.769
339.781
339.018
338.537
338.381
338.582
333.274
332.982
332.845
332.775
333.132
333.512
334.123
334.602
335.17
335.451
335.612
335.316
334.858
334.091
333.308
332.509
331.882
331.496
331.334
331.517
325.83
325.637
325.514
325.472
325.753
326.058
326.537
326.901
327.335
327.549
327.656
327.41
327.105
326.491
325.867
325.254
324.787
324.478
324.336
324.486
318.447
318.311
318.201
318.186
318.386
318.611
318.962
319.224
319.508
319.661
319.771
319.575
319.367
318.929
318.447
318.03
317.698
317.508
317.368
317.462
311.091
311.006
310.934
310.911
311.032
311.173
311.39
311.554
311.707
311.791
311.883
311.77
311.64
311.357
311.059
310.817
310.627
310.517
310.436
310.469
303.73
303.682
303.671
303.654
303.708
303.747
303.819
303.863
303.926
303.947
303.993
303.953
303.908
303.811
303.699
303.618
303.55
303.526
303.506
303.505
356.89
356.288
355.91
355.926
356.288
356.903
357.878
358.781
359.473
360.03
360.088
359.702
358.916
357.802
356.494
355.253
354.231
353.617
353.428
353.707
349.138
348.669
348.346
348.344
348.687
349.229
350.091
350.858
351.46
351.939
351.962
351.62
350.977
350.005
348.867
347.795
346.919
346.362
346.219
346.442
341.478
341.092
340.819
340.836
341.14
341.597
342.337
342.959
343.487
343.862
343.89
343.588
343.086
342.244
341.274
340.365
339.629
339.171
339.057
339.222
333.869
333.565
333.333
333.387
333.618
334.001
334.611
335.094
335.553
335.825
335.853
335.597
335.232
334.53
333.718
332.975
332.381
332.015
331.944
332.027
326.277
326.06
325.898
325.957
326.107
326.446
326.909
327.264
327.65
327.831
327.857
327.666
327.411
326.85
326.212
325.627
325.168
324.888
324.833
324.885
318.75
318.604
318.494
318.56
318.629
318.878
319.206
319.466
319.761
319.855
319.901
319.765
319.59
319.205
318.709
318.313
317.981
317.793
317.706
317.764
311.244
311.185
311.106
311.159
311.177
311.341
311.509
311.684
311.873
311.911
311.954
311.882
311.779
311.538
311.233
310.995
310.8
310.707
310.62
310.666
303.773
303.748
303.721
303.741
303.742
303.806
303.857
303.905
303.984
303.994
304
303.99
303.952
303.861
303.758
303.683
303.624
303.6
303.548
303.573
357.944
357.418
356.909
356.86
357.224
357.676
358.638
359.372
360.063
360.407
360.44
360.108
359.544
358.315
357.016
355.985
355.174
354.505
354.365
354.618
350.052
349.627
349.211
349.151
349.494
349.886
350.738
351.376
351.971
352.277
352.272
351.987
351.507
350.47
349.315
348.434
347.743
347.178
347.019
347.235
342.252
341.902
341.559
341.501
341.803
342.138
342.862
343.409
343.927
344.184
344.168
343.938
343.511
342.664
341.654
340.914
340.344
339.869
339.718
339.918
334.507
334.211
333.958
333.911
334.152
334.433
334.996
335.473
335.892
336.118
336.095
335.914
335.577
334.871
334.028
333.418
332.96
332.592
332.453
332.615
326.803
326.559
326.377
326.337
326.548
326.763
327.161
327.568
327.897
328.06
328.07
327.911
327.669
327.099
326.453
325.969
325.619
325.336
325.225
325.335
319.127
318.96
318.808
318.783
318.964
319.118
319.393
319.681
319.916
320.054
320.055
319.924
319.762
319.38
318.875
318.544
318.31
318.108
318.022
318.112
311.491
311.378
311.281
311.263
311.402
311.485
311.644
311.812
311.954
312.053
312.046
311.971
311.869
311.637
311.314
311.151
310.998
310.888
310.83
310.883
303.85
303.805
303.778
303.771
303.82
303.86
303.904
303.953
304.001
304.034
304.038
304.006
303.985
303.901
303.79
303.745
303.689
303.645
303.635
303.646
358.987
358.385
357.829
357.892
358.047
358.582
359.251
360.103
360.591
360.938
360.991
360.59
359.939
358.931
357.682
356.745
355.845
355.368
355.317
355.663
350.934
350.487
350.005
350.059
350.181
350.666
351.241
352.013
352.416
352.712
352.764
352.428
351.857
350.973
349.893
349.112
348.312
347.929
347.864
348.13
342.959
342.619
342.254
342.256
342.364
342.809
343.293
343.946
344.291
344.545
344.562
344.312
343.819
343.077
342.124
341.48
340.829
340.515
340.436
340.662
335.055
334.798
334.538
334.493
334.586
335.003
335.355
335.927
336.216
336.41
336.411
336.204
335.818
335.209
334.397
333.871
333.352
333.124
333.02
333.224
327.232
327.03
326.846
326.785
326.875
327.213
327.449
327.936
328.151
328.271
328.298
328.132
327.836
327.374
326.721
326.297
325.925
325.77
325.662
325.81
319.424
319.302
319.18
319.121
319.208
319.454
319.596
319.947
320.102
320.186
320.211
320.063
319.884
319.547
319.067
318.766
318.53
318.418
318.344
318.414
311.645
311.58
311.528
311.48
311.532
311.674
311.767
311.973
312.089
312.134
312.145
312.053
311.939
311.728
311.448
311.289
311.131
311.062
311.015
311.043
303.905
303.879
303.861
303.853
303.874
303.908
303.942
304.011
304.045
304.072
304.07
304.035
304.002
303.92
303.835
303.788
303.737
303.709
303.688
303.696
359.915
359.386
358.953
358.897
358.905
359.311
360.024
360.725
361.028
361.459
361.369
361.151
360.358
359.436
358.421
357.477
356.699
356.184
356.249
356.604
351.761
351.305
350.997
350.923
350.94
351.305
351.902
352.542
352.811
353.192
353.085
352.905
352.244
351.435
350.544
349.717
349.064
348.615
348.655
348.958
343.678
343.304
343.078
343.005
343.035
343.347
343.828
344.419
344.626
344.946
344.868
344.701
344.138
343.468
342.691
342.011
341.462
341.08
341.115
341.343
335.662
335.333
335.199
335.12
335.152
335.437
335.805
336.308
336.465
336.741
336.673
336.529
336.072
335.533
334.863
334.339
333.909
333.595
333.605
333.77
327.693
327.442
327.348
327.284
327.299
327.548
327.818
328.231
328.341
328.564
328.522
328.366
328.039
327.616
327.077
326.671
326.358
326.119
326.138
326.245
319.758
319.579
319.524
319.471
319.488
319.656
319.875
320.157
320.227
320.405
320.357
320.241
320.031
319.712
319.315
319.052
318.816
318.638
318.682
318.741
311.85
311.761
311.709
311.689
311.698
311.789
311.919
312.093
312.151
312.244
312.207
312.144
312.03
311.835
311.591
311.443
311.289
311.171
311.234
311.244
303.968
303.939
303.923
303.914
303.918
303.953
304.002
304.052
304.075
304.105
304.087
304.064
304.032
303.976
303.882
303.832
303.774
303.745
303.764
303.769
360.995
360.481
359.99
359.831
359.959
360.239
360.755
361.348
361.583
361.887
361.832
361.698
360.817
359.985
359.044
358.259
357.588
357.062
357.192
357.737
352.692
352.275
351.863
351.705
351.856
352.096
352.565
353.072
353.252
353.539
353.518
353.42
352.62
351.925
351.076
350.406
349.842
349.36
349.491
349.942
344.489
344.122
343.797
343.661
343.794
344.018
344.426
344.856
344.964
345.244
345.255
345.174
344.46
343.901
343.153
342.589
342.103
341.7
341.817
342.2
336.341
336.05
335.778
335.661
335.773
335.968
336.304
336.657
336.748
336.995
336.995
336.938
336.321
335.891
335.262
334.82
334.423
334.051
334.157
334.485
328.234
327.995
327.785
327.7
327.791
327.937
328.218
328.5
328.567
328.748
328.762
328.71
328.218
327.897
327.386
327.046
326.765
326.423
326.551
326.801
320.153
319.974
319.826
319.762
319.841
319.949
320.157
320.355
320.404
320.523
320.551
320.51
320.167
319.919
319.536
319.314
319.112
318.857
318.967
319.118
312.095
311.99
311.918
311.865
311.924
311.96
312.102
312.219
312.244
312.312
312.339
312.32
312.113
311.94
311.728
311.599
311.469
311.316
311.4
311.465
304.05
304.025
303.999
303.967
304.002
304.011
304.066
304.092
304.106
304.138
304.128
304.131
304.064
304.003
303.926
303.883
303.837
303.789
303.821
303.849
362.415
361.677
361.115
360.845
360.893
361.11
361.471
361.965
362.117
362.365
362.218
362.159
361.352
360.647
359.857
359.123
358.363
358.095
358.297
358.692
353.917
353.311
352.833
352.598
352.661
352.847
353.192
353.594
353.747
353.951
353.81
353.778
353.09
352.468
351.78
351.137
350.486
350.245
350.441
350.735
345.497
345.009
344.616
344.396
344.48
344.64
344.938
345.268
345.398
345.581
345.464
345.442
344.852
344.316
343.733
343.204
342.633
342.434
342.623
342.86
337.134
336.793
336.416
336.261
336.325
336.457
336.729
337.006
337.097
337.264
337.154
337.139
336.667
336.197
335.721
335.32
334.819
334.679
334.821
335.016
328.832
328.591
328.267
328.168
328.222
328.314
328.548
328.764
328.863
328.956
328.882
328.844
328.5
328.103
327.773
327.453
327.04
326.963
327.072
327.195
320.573
320.427
320.155
320.125
320.157
320.223
320.405
320.545
320.643
320.678
320.635
320.585
320.354
320.069
319.84
319.613
319.301
319.249
319.343
319.414
312.351
312.272
312.097
312.088
312.128
312.147
312.246
312.353
312.412
312.431
312.39
312.352
312.222
312.041
311.901
311.778
311.583
311.562
311.616
311.66
304.139
304.111
304.046
304.054
304.062
304.083
304.096
304.144
304.161
304.17
304.145
304.143
304.087
304.032
303.997
303.946
303.879
303.876
303.891
303.911
363.328
362.595
362.068
361.682
361.702
361.892
362.235
362.524
362.608
362.768
362.676
362.562
361.994
361.245
360.519
359.816
359.28
359.03
359.201
359.655
354.694
354.097
353.666
353.318
353.331
353.523
353.809
354.064
354.131
354.279
354.217
354.13
353.633
352.978
352.359
351.743
351.267
351.083
351.235
351.578
346.14
345.657
345.317
345.049
345.027
345.193
345.445
345.678
345.704
345.848
345.812
345.736
345.325
344.75
344.254
343.723
343.297
343.171
343.283
343.563
337.652
337.297
336.996
336.809
336.767
336.932
337.145
337.332
337.331
337.471
337.435
337.372
337.024
336.564
336.174
335.745
335.354
335.312
335.368
335.587
329.244
329.001
328.714
328.588
328.553
328.696
328.872
329.012
328.999
329.129
329.096
329.039
328.784
328.408
328.121
327.784
327.48
327.475
327.494
327.65
320.883
320.715
320.465
320.41
320.381
320.499
320.615
320.706
320.694
320.798
320.782
320.735
320.552
320.274
320.087
319.849
319.629
319.614
319.651
319.739
312.53
312.43
312.24
312.241
312.234
312.306
312.364
312.423
312.409
312.479
312.473
312.437
312.345
312.169
312.058
311.92
311.792
311.781
311.798
311.87
304.194
304.167
304.093
304.098
304.099
304.118
304.148
304.157
304.149
304.19
304.178
304.165
304.135
304.072
304.046
303.995
303.96
303.948
303.951
303.974
364.123
363.393
362.797
362.383
362.331
362.632
362.883
362.995
363.217
363.287
363.054
362.902
362.439
361.632
361.131
360.596
360.001
359.76
359.99
360.399
355.307
354.711
354.255
353.857
353.838
354.137
354.36
354.462
354.652
354.715
354.51
354.378
353.991
353.289
352.85
352.384
351.863
351.646
351.852
352.172
346.629
346.117
345.804
345.448
345.436
345.681
345.891
345.999
346.145
346.201
346.042
345.923
345.616
345.01
344.628
344.23
343.774
343.605
343.797
344.013
338.048
337.625
337.416
337.121
337.087
337.282
337.503
337.586
337.681
337.732
337.614
337.538
337.28
336.773
336.471
336.118
335.74
335.632
335.803
335.961
329.527
329.189
329.056
328.851
328.795
328.949
329.117
329.215
329.268
329.304
329.242
329.17
328.974
328.568
328.34
328.073
327.744
327.697
327.82
327.933
321.089
320.831
320.716
320.606
320.535
320.654
320.771
320.841
320.887
320.913
320.894
320.831
320.692
320.378
320.215
320.056
319.809
319.789
319.856
319.935
312.658
312.487
312.437
312.369
312.347
312.381
312.459
312.487
312.531
312.548
312.551
312.509
312.419
312.223
312.121
312.052
311.9
311.901
311.921
311.965
304.24
304.175
304.168
304.154
304.138
304.142
304.175
304.181
304.192
304.2
304.207
304.197
304.153
304.092
304.057
304.04
303.984
303.987
303.998
304.012
)
;

boundaryField
{
    hotSide
    {
        type            fixedGradient;
        gradient        nonuniform List<scalar> 
400
(
549.682
547.257
547.288
549.701
554.237
560.528
568.184
576.85
586.241
596.142
606.403
616.934
627.696
638.694
649.976
661.625
673.75
686.464
699.855
713.964
533.589
531.449
531.932
534.945
540.172
547.174
555.5
564.756
574.63
584.898
595.406
606.068
616.851
627.774
638.9
650.335
662.213
674.676
687.842
701.765
524.848
523.282
524.296
527.784
533.429
540.789
549.411
558.894
568.923
579.265
589.768
600.346
610.971
621.672
632.522
643.636
655.16
667.244
680.014
693.532
522.962
522.243
523.882
527.766
533.614
541.042
549.64
559.036
568.922
579.069
589.322
599.598
609.876
620.19
630.621
641.286
652.328
663.887
676.083
688.983
526.1
526.405
528.789
533.129
539.181
546.622
555.098
564.273
573.86
583.637
593.455
603.237
612.973
622.707
632.53
642.562
652.94
663.796
675.242
687.35
532.158
533.58
536.839
541.796
548.223
555.831
564.298
573.313
582.601
591.95
601.222
610.357
619.363
628.309
637.306
646.489
655.999
665.97
676.512
687.703
539.347
541.921
546.168
551.928
558.966
566.991
575.682
584.72
593.823
602.778
611.457
619.826
627.935
635.896
643.86
651.993
660.459
669.4
678.935
689.146
546.227
549.923
555.216
561.921
569.783
578.484
587.664
596.96
606.049
614.694
622.774
630.297
637.375
644.195
650.972
657.923
665.242
673.091
681.595
690.841
551.593
556.286
562.574
570.257
579.055
588.606
598.49
608.26
617.511
625.953
633.465
640.111
646.1
651.719
657.271
663.032
669.233
676.052
683.616
692.011
554.443
559.868
566.937
575.444
585.09
595.475
606.107
616.443
625.968
634.313
641.349
647.21
652.217
656.773
661.27
666.039
671.337
677.35
684.205
691.983
554.042
559.787
567.237
576.186
586.324
597.229
608.362
619.105
628.861
637.194
643.966
649.36
653.784
657.719
661.614
665.834
670.649
676.25
682.764
690.263
550.068
555.627
562.935
571.783
581.858
592.731
603.855
614.611
624.399
632.782
639.618
645.084
649.58
653.583
657.544
661.829
666.716
672.403
679.019
686.641
542.73
547.608
554.267
562.499
571.988
582.314
592.961
603.368
613.009
621.505
628.716
634.758
639.942
644.662
649.316
654.248
659.734
665.98
673.126
681.26
532.793
536.605
542.261
549.556
558.18
567.728
577.73
587.695
597.183
605.875
613.632
620.501
626.681
632.465
638.173
644.109
650.54
657.675
665.67
674.621
521.514
524.031
528.524
534.803
542.56
551.396
560.865
570.522
579.979
588.954
597.299
605.009
612.201
619.08
625.9
632.928
640.416
648.581
657.587
667.539
510.599
511.737
515.071
520.428
527.486
535.826
544.988
554.535
564.096
573.4
582.292
590.733
598.788
606.607
614.4
622.407
630.879
640.041
650.073
661.082
502.216
502.022
504.299
508.887
515.433
523.466
532.485
542.033
551.739
561.337
570.665
579.668
588.381
596.921
605.471
614.26
623.544
633.569
644.53
656.538
498.898
497.555
498.911
502.821
508.896
516.616
525.444
534.91
544.643
554.383
563.97
573.338
582.507
591.57
600.69
610.087
620.019
630.748
642.483
655.331
502.867
500.694
501.262
504.445
509.867
517.015
525.366
534.464
543.955
553.587
563.204
572.734
582.184
591.627
601.204
611.115
621.601
632.911
645.243
658.692
514.849
512.195
512.1
514.465
518.982
525.223
532.739
541.127
550.064
559.315
568.728
578.227
587.802
597.51
607.463
617.825
628.796
640.575
653.321
667.107
)
;
    }
    coldSide
    {
        type            mixed;
        refValue        uniform 300;
        refGradient     uniform 0;
        valueFraction   uniform 0.991591;
        source          uniform 0;
        value           nonuniform List<scalar> 
400
(
300.027
300.027
300.027
300.027
300.028
300.028
300.028
300.029
300.03
300.03
300.031
300.031
300.032
300.032
300.033
300.033
300.034
300.035
300.035
300.036
300.027
300.027
300.027
300.027
300.028
300.028
300.028
300.029
300.029
300.03
300.03
300.031
300.032
300.032
300.033
300.033
300.034