/*--------------------------------*- C++ -*----------------------------------*\
| =========                 |                                                 |
| \\      /  F ield         | OpenFOAM: The Open Source CFD Toolbox           |
|  \\    /   O peration     | Version:  2212                                  |
|   \\  /    A nd           | Website:  www.openfoam.com                      |
|    \\/     M anipulation  |                                                 |
\*---------------------------------------------------------------------------*/
FoamFile
{
    version     2.0;
    format      ascii;
    arch        "LSB;label=32;scalar=64";
    class       volScalarField;
    location    "0";
    object      T;
}
// * * * * * * * * * * * * * * * * * * * * * * * * * * * * * * * * * * * * * //

dimensions      [0 0 0 1 0 0 0];

internalField   nonuniform List<scalar> 
3200
(
348.692
349.688
350.707
351.794
352.785
353.266
353.552
353.697
353.872
353.827
353.459
353.202
352.878
352.179
351.092
350.34
349.347
348.013
346.88
345.658
342.08
342.91
343.796
344.744
345.595
346.015
346.284
346.386
346.556
346.535
346.128
345.968
345.705
345.071
344.147
343.546
342.666
341.504
340.542
339.521
335.507
336.191
336.934
337.76
338.443
338.877
339.04
339.164
339.294
339.307
338.888
338.821
338.584
338.012
337.284
336.789
336.036
335.047
334.241
333.399
328.965
329.511
330.152
330.811
331.358
331.741
331.889
331.963
332.067
332.067
331.746
331.754
331.547
331.053
330.477
330.061
329.464
328.597
327.968
327.315
322.495
322.893
323.398
323.907
324.34
324.657
324.776
324.828
324.865
324.941
324.661
324.697
324.546
324.127
323.668
323.369
322.914
322.175
321.698
321.202
316.043
316.319
316.726
317.068
317.353
317.637
317.669
317.721
317.766
317.791
317.606
317.625
317.545
317.215
316.917
316.648
316.346
315.78
315.479
315.136
309.6
309.803
310.03
310.225
310.423
310.603
310.606
310.645
310.678
310.647
310.546
310.58
310.541
310.327
310.159
309.988
309.791
309.442
309.271
309.089
303.209
303.292
303.367
303.396
303.487
303.545
303.573
303.564
303.585
303.563
303.528
303.54
303.528
303.463
303.402
303.343
303.284
303.183
303.102
303.049
349.618
350.665
351.66
352.815
353.686
354.099
354.702
354.709
354.773
354.871
354.502
354.44
354.204
353.116
352.265
351.327
350.136
349.081
347.859
346.924
342.829
343.7
344.541
345.594
346.309
346.694
347.242
347.164
347.273
347.386
347.058
346.978
346.789
345.846
345.127
344.284
343.32
342.435
341.367
340.575
336.115
336.847
337.566
338.44
339.06
339.396
339.838
339.755
339.905
339.947
339.683
339.632
339.454
338.652
338.109
337.333
336.613
335.799
334.909
334.256
329.485
330.057
330.662
331.411
331.859
332.157
332.524
332.496
332.578
332.571
332.339
332.378
332.258
331.583
331.128
330.468
329.943
329.22
328.542
327.967
322.897
323.324
323.815
324.421
324.728
324.955
325.254
325.218
325.327
325.294
325.087
325.136
325.07
324.559
324.165
323.685
323.273
322.672
322.19
321.707
316.388
316.642
317.007
317.438
317.647
317.786
318.027
317.98
318.096
318.044
317.882
317.919
317.917
317.556
317.259
316.933
316.596
316.174
315.806
315.498
309.844
309.997
310.207
310.473
310.586
310.698
310.842
310.792
310.868
310.845
310.717
310.768
310.778
310.572
310.335
310.175
309.945
309.687
309.472
309.296
303.296
303.342
303.431
303.506
303.545
303.597
303.623
303.589
303.66
303.635
303.586
303.608
303.621
303.562
303.453
303.389
303.338
303.219
303.159
303.115
351.093
351.873
353.125
354.239
354.919
355.312
355.884
356.177
356.174
356.173
355.865
355.74
355.469
354.606
353.686
352.706
351.589
350.633
349.17
347.811
344.059
344.725
345.87
346.755
347.44
347.677
348.175
348.461
348.434
348.437
348.21
348.114
347.903
347.121
346.292
345.477
344.551
343.739
342.471
341.325
337.127
337.683
338.676
339.412
339.998
340.158
340.574
340.842
340.799
340.822
340.638
340.595
340.398
339.723
338.957
338.34
337.564
336.886
335.813
334.876
330.288
330.758
331.54
332.136
332.636
332.738
333.092
333.37
333.306
333.289
333.158
333.154
332.935
332.425
331.748
331.287
330.654
330.106
329.209
328.488
323.511
323.902
324.473
324.949
325.309
325.408
325.68
325.944
325.886
325.816
325.707
325.779
325.547
325.2
324.601
324.29
323.781
323.37
322.677
322.144
316.775
317.096
317.489
317.754
318.042
318.118
318.31
318.554
318.482
318.435
318.341
318.444
318.235
318.007
317.518
317.331
316.985
316.704
316.199
315.865
310.056
310.279
310.517
310.659
310.794
310.862
310.979
311.136
311.071
311.078
311.001
311.065
310.946
310.79
310.504
310.374
310.197
310.046
309.72
309.556
303.366
303.449
303.514
303.572
303.611
303.64
303.673
303.734
303.703
303.724
303.699
303.699
303.676
303.593
303.529
303.472
303.404
303.362
303.252
303.204
352.355
353.405
354.491
355.583
356.203
356.67
357.23
357.693
357.91
357.736
357.409
357.121
356.683
356.038
355.085
354.149
352.967
351.933
350.404
349.014
345.152
346.065
347.015
347.9
348.438
348.852
349.308
349.73
349.903
349.78
349.512
349.256
348.949
348.336
347.519
346.705
345.699
344.822
343.503
342.321
338.07
338.818
339.638
340.317
340.818
341.188
341.521
341.891
342.055
341.963
341.71
341.495
341.293
340.71
340.025
339.341
338.534
337.822
336.689
335.72
331.042
331.634
332.371
332.866
333.291
333.61
333.84
334.192
334.304
334.242
334.031
333.838
333.683
333.194
332.608
332.041
331.449
330.836
329.959
329.218
324.115
324.549
325.113
325.517
325.802
326.085
326.223
326.556
326.567
326.575
326.394
326.281
326.167
325.767
325.262
324.802
324.37
323.919
323.281
322.725
317.167
317.494
317.928
318.219
318.385
318.566
318.723
318.95
318.945
318.927
318.849
318.758
318.661
318.353
317.969
317.672
317.364
317.033
316.609
316.198
310.295
310.518
310.729
310.945
311.004
311.135
311.254
311.34
311.362
311.336
311.277
311.255
311.171
311.017
310.755
310.596
310.412
310.231
309.969
309.695
303.456
303.542
303.588
303.649
303.682
303.731
303.785
303.78
303.794
303.793
303.77
303.784
303.748
303.696
303.61
303.552
303.499
303.449
303.341
303.262
353.527
354.622
355.731
356.688
357.64
358.062
358.623
358.951
359.191
359.274
358.983
358.487
357.968
357.539
356.597
355.748
354.558
353.105
351.612
350.37
346.185
347.098
348.022
348.861
349.695
350.065
350.528
350.85
351.012
351.095
350.886
350.397
350.02
349.655
348.814
348.079
347.053
345.821
344.582
343.49
338.9
339.718
340.449
341.124
341.871
342.171
342.552
342.863
342.983
343.043
342.935
342.428
342.15
341.824
341.155
340.571
339.666
338.68
337.622
336.681
331.721
332.397
332.979
333.552
334.137
334.418
334.703
335
335.065
335.072
335.043
334.604
334.374
334.085
333.562
333.091
332.374
331.604
330.713
329.988
324.609
325.146
325.613
326.045
326.459
326.704
326.928
327.199
327.204
327.208
327.17
326.877
326.638
326.392
326.031
325.69
325.119
324.525
323.84
323.311
317.548
317.956
318.293
318.592
318.812
319.057
319.206
319.439
319.417
319.4
319.351
319.165
318.985
318.795
318.544
318.328
317.928
317.486
317.009
316.628
310.543
310.768
310.969
311.16
311.293
311.422
311.556
311.699
311.664
311.629
311.608
311.484
311.401
311.266
311.141
311.011
310.757
310.462
310.199
310.007
303.52
303.592
303.664
303.739
303.774
303.842
303.88
303.917
303.91
303.893
303.892
303.843
303.817
303.752
303.73
303.682
303.606
303.482
303.388
303.357
354.818
356.035
357.135
357.926
358.999
359.626
360.218
360.505
360.562
360.854
360.44
360.064
359.582
359.068
357.861
356.948
355.83
354.381
352.919
351.544
347.314
348.264
349.223
349.934
350.867
351.408
351.949
352.16
352.196
352.447
352.113
351.775
351.378
350.949
349.916
349.197
348.161
346.919
345.66
344.532
339.861
340.636
341.432
342.043
342.833
343.27
343.786
343.93
343.964
344.203
343.922
343.668
343.252
342.902
342.082
341.524
340.636
339.596
338.488
337.57
332.51
333.149
333.789
334.301
334.897
335.286
335.701
335.828
335.789
336.029
335.802
335.665
335.235
334.96
334.32
333.902
333.167
332.329
331.445
330.666
325.233
325.728
326.241
326.604
327.053
327.403
327.7
327.83
327.73
327.96
327.783
327.655
327.323
327.124
326.631
326.314
325.742
325.111
324.443
323.823
318.021
318.351
318.737
318.999
319.307
319.533
319.765
319.835
319.74
319.926
319.795
319.727
319.454
319.35
319.024
318.788
318.347
317.915
317.433
317.006
310.805
311
311.256
311.427
311.564
311.713
311.839
311.908
311.818
311.938
311.862
311.855
311.658
311.609
311.41
311.274
310.992
310.747
310.487
310.191
303.594
303.686
303.752
303.814
303.842
303.918
303.932
304.002
303.942
304.006
303.965
303.987
303.91
303.907
303.835
303.754
303.687
303.584
303.504
303.412
356.016
357.208
358.16
359.338
360.311
360.906
361.577
362.057
361.946
362.101
361.867
361.497
360.804
360.256
359.284
358.232
357.03
355.721
354.198
353.002
348.374
349.349
350.134
351.134
352.008
352.501
353.09
353.473
353.44
353.553
353.288
353.026
352.436
351.981
351.178
350.25
349.204
348.109
346.788
345.807
340.811
341.565
342.203
343.092
343.834
344.24
344.739
345.049
345.025
345.147
344.866
344.696
344.161
343.846
343.181
342.363
341.489
340.534
339.453
338.665
333.357
333.91
334.405
335.143
335.76
336.079
336.471
336.698
336.727
336.843
336.516
336.458
336.002
335.784
335.191
334.531
333.878
333.074
332.187
331.576
325.921
326.348
326.66
327.259
327.752
327.973
328.319
328.442
328.504
328.582
328.286
328.277
327.913
327.77
327.276
326.796
326.31
325.637
324.949
324.514
318.523
318.793
319.043
319.46
319.81
319.913
320.196
320.265
320.333
320.395
320.174
320.161
319.896
319.831
319.471
319.116
318.803
318.27
317.785
317.502
311.118
311.293
311.451
311.681
311.899
311.873
312.115
312.151
312.208
312.206
312.096
312.106
311.932
311.855
311.722
311.486
311.285
310.973
310.69
310.487
303.73
303.783
303.834
303.926
303.99
303.958
304.051
304.065
304.1
304.084
304.05
304.046
303.992
303.962
303.941
303.854
303.782
303.674
303.577
303.503
357.24
358.317
359.328
360.474
361.578
362.161
362.935
363.161
363.137
363.306
363.086
362.942
362.218
361.547
360.552
359.342
358.199
356.92
355.459
354.179
349.397
350.271
351.093
352.108
353.117
353.589
354.261
354.408
354.449
354.598
354.387
354.284
353.601
353.107
352.254
351.221
350.21
349.122
347.804
346.799
341.646
342.344
343.027
343.919
344.808
345.156
345.69
345.825
345.855
346.012
345.816
345.745
345.109
344.793
344.033
343.168
342.319
341.405
340.273
339.472
333.954
334.547
335.056
335.823
336.612
336.799
337.196
337.385
337.378
337.514
337.342
337.301
336.754
336.551
335.923
335.211
334.544
333.794
332.874
332.28
326.333
326.837
327.179
327.823
328.42
328.542
328.858
328.949
329.007
329.133
328.979
328.909
328.5
328.425
327.859
327.349
326.838
326.233
325.529
325.041
318.806
319.154
319.404
319.858
320.298
320.343
320.546
320.641
320.697
320.761
320.683
320.6
320.274
320.3
319.892
319.492
319.183
318.705
318.214
317.859
311.288
311.495
311.637
311.908
312.199
312.201
312.326
312.382
312.414
312.452
312.444
312.344
312.181
312.203
311.971
311.699
311.512
311.211
310.897
310.742
303.786
303.857
303.9
303.979
304.114
304.083
304.113
304.154
304.154
304.152
304.162
304.138
304.078
304.084
304.024
303.953
303.868
303.76
303.65
303.615
358.027
359.404
360.332
361.641
362.813
363.243
363.905
364.268
364.495
364.319
364.513
364.066
363.475
362.503
361.704
360.749
359.465
358.016
356.61
355.431
350.023
351.234
351.99
353.157
354.171
354.492
355.082
355.366
355.623
355.46
355.636
355.249
354.723
353.926
353.216
352.42
351.323
350.073
348.842
347.88
342.165
343.176
343.809
344.796
345.633
345.893
346.388
346.625
346.901
346.772
346.867
346.519
346.094
345.485
344.822
344.192
343.262
342.261
341.214
340.408
334.388
335.253
335.744
336.535
337.21
337.422
337.813
338.043
338.272
338.177
338.198
337.894
337.571
337.091
336.532
336.07
335.314
334.496
333.655
333.029
326.686
327.392
327.736
328.336
328.915
329.021
329.274
329.465
329.694
329.646
329.631
329.419
329.154
328.803
328.361
328.009
327.457
326.771
326.14
325.643
319.064
319.575
319.8
320.224
320.661
320.686
320.854
321
321.194
321.15
321.103
321.002
320.809
320.53
320.214
319.962
319.629
319.14
318.648
318.311
311.438
311.748
311.882
312.146
312.403
312.421
312.454
312.558
312.748
312.651
312.643
312.605
312.479
312.319
312.164
311.956
311.797
311.527
311.196
310.976
303.847
303.949
303.965
304.073
304.164
304.157
304.159
304.201
304.267
304.246
304.248
304.24
304.198
304.128
304.078
303.991
303.973
303.859
303.755
303.661
359.025
360.494
361.721
362.822
363.821
364.503
365.17
365.571
365.56
365.689
365.516
365.068
364.517
363.7
362.764
361.73
360.495
359.044
357.587
356.302
350.92
352.173
353.209
354.142
354.997
355.619
356.198
356.524
356.511
356.643
356.468
356.137
355.636
354.968
354.143
353.237
352.236
350.945
349.748
348.673
342.97
343.964
344.8
345.644
346.342
346.831
347.338
347.641
347.587
347.773
347.554
347.319
346.865
346.328
345.656
344.872
344.047
342.976
341.951
341.069
335.065
335.854
336.477
337.243
337.8
338.155
338.56
338.86
338.785
339.01
338.732
338.599
338.18
337.795
337.254
336.564
335.961
335.081
334.262
333.525
327.224
327.846
328.293
328.972
329.353
329.598
329.914
330.145
330.087
330.308
330.093
329.978
329.585
329.288
328.933
328.39
327.956
327.249
326.582
326.015
319.392
319.867
320.185
320.696
320.96
321.1
321.345
321.48
321.469
321.605
321.442
321.368
321.141
320.842
320.623
320.262
319.999
319.437
318.939
318.574
311.649
311.929
312.108
312.426
312.598
312.64
312.813
312.897
312.892
312.95
312.834
312.835
312.691
312.482
312.358
312.19
311.99
311.667
311.367
311.153
303.923
304.009
304.051
304.187
304.241
304.238
304.293
304.322
304.327
304.324
304.308
304.311
304.248
304.183
304.139
304.083
304.011
303.906
303.808
303.72
359.939
361.276
362.506
363.673
364.851
365.36
366.2
366.382
366.55
366.56
366.455
366.102
365.706
364.679
363.928
362.863
361.475
359.822
358.354
357.155
351.723
352.771
353.844
354.909
355.847
356.339
357.074
357.215
357.386
357.387
357.295
357.015
356.704
355.77
355.171
354.25
353.003
351.581
350.332
349.355
343.665
344.462
345.321
346.284
347.025
347.485
348.075
348.174
348.332
348.368
348.261
348.091
347.788
346.981
346.509
345.729
344.728
343.437
342.419
341.677
335.649
336.27
336.887
337.746
338.305
338.708
339.214
339.261
339.42
339.46
339.316
339.263
338.928
338.309
337.948
337.33
336.54
335.42
334.639
334.039
327.707
328.11
328.563
329.311
329.671
330.016
330.393
330.477
330.617
330.614
330.511
330.53
330.185
329.747
329.49
329.02
328.392
327.497
326.878
326.464
319.799
320.034
320.346
320.929
321.119
321.415
321.681
321.758
321.847
321.807
321.769
321.82
321.548
321.258
321.056
320.713
320.247
319.606
319.163
318.892
311.899
312.05
312.193
312.549
312.695
312.856
312.989
313.054
313.152
313.104
313.084
313.118
312.932
312.764
312.64
312.444
312.12
311.753
311.492
311.338
304.005
304.056
304.097
304.211
304.256
304.305
304.343
304.369
304.403
304.376
304.372
304.398
304.325
304.299
304.243
304.163
304.043
303.94
303.846
303.813
360.905
361.916
363.199
364.604
365.401
366.102
367.154
367.296
367.495
367.541
367.301
366.964
366.666
365.668
364.771
363.637
362.505
360.641
359.219
357.941
352.534
353.318
354.463
355.666
356.37
356.984
357.927
358.006
358.213
358.217
358.007
357.768
357.523
356.625
355.856
354.916
353.924
352.306
351.127
350.067
344.276
344.875
345.898
346.859
347.502
347.998
348.826
348.835
349.071
349.026
348.84
348.676
348.523
347.708
347.121
346.313
345.459
344.136
343.121
342.287
336.109
336.585
337.455
338.167
338.737
339.133
339.827
339.81
340.041
339.982
339.81
339.69
339.631
338.918
338.443
337.824
337.053
336.046
335.192
334.55
328.008
328.413
329.095
329.573
330.053
330.361
330.88
330.855
331.07
331.027
330.883
330.833
330.776
330.207
329.876
329.377
328.746
328
327.301
326.836
319.957
320.25
320.738
321.084
321.425
321.646
321.991
322.026
322.141
322.12
322.058
322.012
321.986
321.571
321.314
321.004
320.445
319.972
319.46
319.159
311.966
312.153
312.449
312.674
312.839
313.024
313.165
313.246
313.283
313.245
313.226
313.193
313.214
312.953
312.785
312.608
312.247
311.966
311.677
311.5
303.989
304.091
304.185
304.254
304.303
304.363
304.397
304.44
304.447
304.431
304.429
304.417
304.431
304.344
304.319
304.215
304.105
304.03
303.922
303.859
361.747
362.749
364.07
365.272
366.261
367.074
368.104
368.266
368.388
368.188
367.891
367.873
367.412
366.328
365.616
364.221
363.267
361.577
360.004
358.737
353.244
354.035
355.211
356.247
357.089
357.813
358.71
358.848
358.927
358.78
358.55
358.529
358.192
357.181
356.647
355.422
354.597
353.144
351.781
350.721
344.874
345.468
346.536
347.395
348.065
348.713
349.466
349.567
349.578
349.495
349.314
349.317
349.058
348.15
347.76
346.714
346.033
344.849
343.661
342.785
336.611
337.086
337.981
338.625
339.174
339.704
340.341
340.391
340.36
340.373
340.178
340.209
340.039
339.27
338.951
338.113
337.56
336.637
335.612
334.916
328.409
328.749
329.513
329.956
330.384
330.797
331.307
331.316
331.308
331.312
331.149
331.194
331.081
330.513
330.209
329.583
329.125
328.432
327.623
327.128
320.248
320.479
321.048
321.34
321.635
321.963
322.337
322.343
322.298
322.316
322.217
322.254
322.164
321.762
321.528
321.097
320.77
320.291
319.711
319.359
312.114
312.255
312.608
312.82
312.962
313.187
313.358
313.398
313.397
313.387
313.31
313.343
313.3
313.046
312.923
312.665
312.486
312.154
311.828
311.597
304.067
304.096
304.237
304.276
304.342
304.415
304.46
304.504
304.481
304.484
304.482
304.469
304.456
304.361
304.335
304.262
304.18
304.045
303.982
303.889
362.179
363.32
364.761
365.866
367.087
367.994
368.442
368.984
369.013
369.126
369.018
368.828
367.957
366.967
366.376
365.137
363.757
362.362
360.899
359.313
353.602
354.542
355.813
356.741
357.771
358.629
359.001
359.485
359.488
359.554
359.483
359.378
358.643
357.79
357.241
356.231
355.033
353.798
352.543
351.241
345.199
345.93
346.978
347.783
348.611
349.411
349.723
350.113
350.115
350.189
350.078
350.081
349.444
348.745
348.243
347.418
346.439
345.363
344.269
343.197
336.879
337.446
338.304
338.954
339.613
340.289
340.588
340.842
340.895
340.933
340.812
340.844
340.311
339.792
339.37
338.731
337.902
337.042
336.1
335.242
328.63
329.019
329.738
330.202
330.712
331.287
331.512
331.672
331.734
331.763
331.653
331.703
331.267
330.892
330.552
330.061
329.43
328.756
328.072
327.307
320.462
320.7
321.199
321.52
321.892
322.296
322.496
322.582
322.629
322.656
322.559
322.6
322.288
322.018
321.817
321.443
321.042
320.495
320.034
319.481
312.298
312.422
312.728
312.895
313.122
313.394
313.518
313.495
313.55
313.567
313.518
313.581
313.395
313.218
313.094
312.875
312.618
312.275
312.007
311.696
304.117
304.153
304.27
304.325
304.392
304.49
304.541
304.524
304.537
304.542
304.534
304.571
304.489
304.438
304.386
304.329
304.213
304.099
304.027
303.927
362.551
363.855
365.207
366.657
367.702
368.534
369.05
369.367
369.592
369.694
369.651
369.288
368.724
367.754
366.855
365.62
364.237
363.043
361.386
359.988
353.975
355.021
356.223
357.439
358.349
359.086
359.555
359.811
359.979
360.077
359.999
359.729
359.254
358.437
357.668
356.599
355.396
354.416
353.011
351.812
345.492
346.35
347.369
348.37
349.143
349.751
350.218
350.391
350.537
350.607
350.511
350.353
349.932
349.243
348.63
347.714
346.716
345.901
344.728
343.783
337.107
337.788
338.629
339.463
340.036
340.535
340.97
341.088
341.254
341.289
341.166
341.071
340.725
340.117
339.698
338.942
338.095
337.428
336.536
335.744
328.822
329.295
329.933
330.639
331.1
331.445
331.802
331.885
331.982
332.047
331.934
331.812
331.621
331.101
330.815
330.259
329.564
329.041
328.375
327.781
320.549
320.893
321.359
321.874
322.236
322.459
322.668
322.76
322.804
322.883
322.784
322.64
322.572
322.16
321.954
321.609
321.092
320.704
320.244
319.799
312.313
312.525
312.817
313.11
313.355
313.491
313.589
313.663
313.677
313.732
313.651
313.567
313.554
313.265
313.152
312.958
312.65
312.418
312.106
311.86
304.133
304.199
304.271
304.39
304.47
304.518
304.547
304.587
304.58
304.59
304.567
304.559
304.534
304.455
304.408
304.345
304.252
304.149
304.047
303.974
363.238
364.407
365.62
366.937
367.967
368.987
369.581
369.818
370.067
370.188
370.278
369.692
369.136
368.169
367.299
366.114
364.855
363.473
361.83
360.431
354.548
355.518
356.539
357.701
358.57
359.489
359.979
360.202
360.428
360.469
360.592
360.086
359.578
358.782
358.03
357.028
355.959
354.722
353.342
352.184
345.971
346.788
347.596
348.64
349.341
350.078
350.588
350.733
350.956
350.952
351.055
350.642
350.193
349.533
348.914
348.089
347.185
346.139
344.974
344.03
337.489
338.185
338.804
339.709
340.26
340.828
341.281
341.355
341.585
341.576
341.634
341.322
340.913
340.35
339.924
339.259
338.508
337.619
336.686
335.932
329.086
329.64
330.078
330.819
331.262
331.684
332.015
332.095
332.279
332.239
332.3
332.037
331.728
331.292
331.008
330.465
329.92
329.137
328.453
327.919
320.775
321.151
321.431
321.975
322.329
322.583
322.849
322.887
323.037
323.015
323.034
322.913
322.632
322.3
322.124
321.757
321.369
320.793
320.299
319.88
312.472
312.707
312.844
313.215
313.389
313.538
313.686
313.715
313.833
313.809
313.839
313.778
313.604
313.349
313.302
313.069
312.824
312.506
312.184
311.903
304.187
304.246
304.281
304.406
304.481
304.515
304.601
304.588
304.622
304.624
304.636
304.603
304.577
304.478
304.452
304.402
304.301
304.192
304.09
303.974
363.528
364.522
365.892
367.18
368.307
369.064
369.738
370.071
370.679
370.623
370.422
370.186
369.569
368.489
367.66
366.547
365.251
363.764
362.218
360.677
354.801
355.544
356.774
357.879
358.862
359.53
360.14
360.373
360.87
360.869
360.743
360.539
359.995
359.036
358.389
357.457
356.342
355.025
353.723
352.385
346.2
346.821
347.846
348.758
349.579
350.179
350.683
350.846
351.27
351.301
351.197
351.046
350.55
349.771
349.218
348.471
347.526
346.405
345.348
344.211
337.692
338.199
339.03
339.792
340.414
340.904
341.341
341.461
341.804
341.876
341.751
341.657
341.252
340.62
340.136
339.55
338.788
337.853
337.06
336.118
329.274
329.638
330.298
330.886
331.323
331.742
332.069
332.171
332.432
332.505
332.435
332.332
331.994
331.521
331.102
330.699
330.108
329.383
328.838
328.028
320.9
321.124
321.606
322.063
322.327
322.613
322.908
322.954
323.094
323.209
323.118
323.066
322.788
322.462
322.13
321.907
321.449
320.963
320.59
320.011
312.566
312.659
312.961
313.267
313.393
313.565
313.76
313.792
313.874
313.921
313.853
313.846
313.697
313.454
313.247
313.167
312.877
312.597
312.379
312.019
304.209
304.236
304.339
304.434
304.46
304.541
304.618
304.626
304.653
304.664
304.641
304.642
304.609
304.493
304.452
304.412
304.309
304.219
304.167
304.025
363.591
364.708
366.212
367.414
368.577
369.266
370.134
370.392
370.592
370.878
370.542
370.474
369.731
368.865
367.94
366.706
365.597
364.133
362.293
360.84
354.89
355.8
357.064
358.111
359.097
359.677
360.441
360.668
360.846
361.137
360.793
360.826
360.182
359.384
358.629
357.555
356.643
355.352
353.717
352.531
346.28
347.002
348.035
348.933
349.797
350.234
350.904
351.146
351.261
351.477
351.19
351.29
350.747
350.041
349.427
348.534
347.752
346.686
345.335
344.285
337.754
338.309
339.133
339.899
340.581
340.926
341.544
341.752
341.809
342.002
341.724
341.837
341.388
340.889
340.36
339.568
338.93
338.111
337.017
336.11
329.262
329.711
330.308
330.976
331.483
331.743
332.269
332.439
332.471
332.652
332.355
332.468
332.123
331.758
331.338
330.701
330.194
329.602
328.775
328.025
320.861
321.234
321.627
322.119
322.452
322.593
323.016
323.165
323.168
323.311
323.107
323.163
322.918
322.704
322.349
321.924
321.541
321.114
320.541
319.982
312.512
312.731
312.97
313.248
313.482
313.538
313.789
313.914
313.877
313.966
313.841
313.905
313.731
313.652
313.409
313.16
312.929
312.693
312.335
311.984
304.192
304.265
304.356
304.436
304.527
304.533
304.615
304.66
304.661
304.658
304.65
304.656
304.593
304.573
304.497
304.398
304.332
304.254
304.123
304.004
363.276
364.8
366.117
367.587
368.677
369.359
370.411
370.677
370.931
371.039
370.518
370.489
369.877
369.101
368.188
366.806
365.901
364.012
362.367
360.939
354.546
355.815
356.95
358.228
359.195
359.776
360.714
360.948
361.169
361.225
360.823
360.784
360.28
359.609
358.775
357.652
356.898
355.232
353.841
352.614
345.979
346.991
347.947
349.066
349.89
350.356
351.158
351.371
351.553
351.585
351.247
351.276
350.863
350.263
349.54
348.622
348.007
346.532
345.381
344.359
337.546
338.3
339.107
340.035
340.679
341.05
341.684
341.894
342.069
342.088
341.769
341.882
341.515
340.983
340.412
339.721
339.187
337.984
337.046
336.163
329.156
329.727
330.377
331.099
331.536
331.817
332.366
332.502
332.668
332.68
332.414
332.499
332.212
331.806
331.331
330.843
330.413
329.482
328.777
328.051
320.781
321.209
321.699
322.185
322.484
322.676
323.079
323.2
323.344
323.332
323.104
323.192
322.993
322.678
322.327
322.006
321.685
321.048
320.554
319.99
312.431
312.735
313.061
313.343
313.452
313.589
313.862
313.914
314.005
314.016
313.879
313.942
313.824
313.588
313.434
313.192
313.031
312.612
312.349
311.991
304.149
304.238
304.388
304.475
304.485
304.553
304.648
304.666
304.712
304.678
304.651
304.663
304.641
304.562
304.504
304.383
304.378
304.208
304.139
304.034
363.343
364.667
366.316
367.437
368.646
369.383
370.247
370.324
370.98
371.038
370.437
370.445
369.941
369.138
368.072
366.837
365.751
363.979
362.095
361.24
354.622
355.725
357.184
358.139
359.196
359.773
360.535
360.615
361.202
361.214
360.653
360.727
360.298
359.613
358.693
357.666
356.726
355.209
353.557
352.894
346.043
346.95
348.187
349.029
349.876
350.328
350.976
351.062
351.571
351.609
351.103
351.181
350.811
350.217
349.493
348.62
347.833
346.584
345.187
344.536
337.565
338.276
339.292
340.033
340.672
341.038
341.568
341.633
342.121
342.078
341.663
341.768
341.439
340.963
340.411
339.705
339.004
337.978
336.97
336.332
329.146
329.681
330.487
331.119
331.522
331.816
332.216
332.307
332.728
332.655
332.346
332.394
332.137
331.788
331.37
330.862
330.212
329.471
328.772
328.203
320.745
321.125
321.769
322.212
322.443
322.687
322.937
323.061
323.381
323.312
323.084
323.061
322.925
322.664
322.4
322.033
321.481
321.025
320.565
320.098
312.44
312.63
313.078
313.335
313.459
313.567
313.732
313.836
314.037
314.013
313.842
313.837
313.734
313.613
313.421
313.205
312.827
312.631
312.356
312.071
304.156
304.235
304.396
304.474
304.495
304.554
304.596
304.639
304.701
304.681
304.622
304.627
304.61
304.559
304.512
304.421
304.294
304.229
304.154
304.057
)
;

boundaryField
{
    hotSide
    {
        type            fixedGradient;
        gradient        nonuniform List<scalar> 
400
(
537.308
553.977
570.171
585.817
600.843
615.18
628.759
641.514
653.381
664.302
674.22
683.084
690.847
697.469
702.914
707.151
710.159
711.92
712.423
711.665
550.257
567.397
584.054
600.152
615.618
630.379
644.365
657.508
669.744
681.009
691.248
700.406
708.436
715.296
720.948
725.362
728.514
730.385
730.965
730.25
561.604
579.169
596.243
612.749
628.612
643.758
658.114
671.611
684.181
695.762
706.295
715.724
724.001
731.082
736.928
741.508
744.797
746.776
747.433
746.765
571.28
589.219
606.662
623.53
639.745
655.233
669.918
683.73
696.601
708.465
719.263
728.937
737.438
744.721
750.745
755.48
758.898
760.98
761.715
761.097
579.231
597.493
615.252
632.432
648.952
664.736
679.708
693.795
706.928
719.041
730.072
739.964
748.664
756.128
762.314
767.189
770.727
772.907
773.717
773.152
585.42
603.948
621.971
639.411
656.185
672.218
687.431
701.751
715.107
727.432
738.663
748.742
757.615
765.237
771.566
776.567
780.214
782.486
783.369
782.858
589.823
608.56
626.792
644.437
661.415
677.646
693.054
707.562
721.099
733.598
744.994
755.228
764.247
772.002
778.454
783.565
787.309
789.664
790.617
790.161
592.431
611.319
629.702
647.498
664.626
681.005
696.558
711.208
724.884
737.516
749.04
759.397
768.532
776.396
782.948
788.152
791.98
794.409
795.427
795.027
593.248
612.228
630.704
648.595
665.818
682.293
697.941
712.687
726.457
739.182
750.797
761.242
770.462
778.408
785.038
790.316
794.213
796.708
797.785
797.438
592.289
611.301
629.812
647.741
665.005
681.523
697.216
712.01
725.829
738.604
750.272
760.77
770.044
778.045
784.73
790.063
794.014
796.562
797.692
797.397
589.583
608.567
627.054
644.964
662.213
678.721
694.409
709.202
723.025
735.809
747.489
758.005
767.302
775.329
782.045
787.412
791.402
793.992
795.168
794.922
585.165
604.062
622.468
640.301
657.481
673.926
689.558
704.302
718.084
730.834
742.488
752.986
762.272
770.298
777.02
782.401
786.413
789.033
790.247
790.047
579.083
597.834
616.1
633.802
650.858
667.188
682.714
697.361
711.056
723.731
735.32
745.764
755.008
763.003
769.706
775.081
779.098
781.736
782.979
782.821
571.391
589.939
608.01
625.525
642.404
658.567
673.938
688.441
702.006
714.563
726.048
736.403
745.573
753.509
760.168
765.516
769.522
772.165
773.429
773.307
562.153
580.441
598.263
615.538
632.187
648.134
663.301
677.615
691.005
703.404
714.748
724.979
734.043
741.892
748.485
753.784
757.762
760.397
761.673
761.584
551.439
569.414
586.932
603.916
620.286
635.968
650.885
664.966
678.14
690.341
701.507
711.581
720.509
728.244
734.745
739.976
743.91
746.524
747.804
747.742
539.326
556.937
574.102
590.745
606.788
622.158
636.781
650.585
663.503
675.469
686.423
696.306
705.069
712.664
719.051
724.195
728.068
730.649
731.924
731.884
525.899
543.098
559.862
576.117
591.788
606.803
621.089
634.577
647.2
658.895
669.602
679.266
687.835
695.265
701.516
706.554
710.352
712.888
714.149
714.127
511.251
527.991
544.309
560.133
575.389
590.008
603.918
617.052
629.345
640.735
651.164
660.579
668.929
676.171
682.265
687.18
690.887
693.368
694.607
694.598
495.477
511.717
527.548
542.9
557.703
571.887
585.384
598.129
610.059
621.114
631.237
640.375
648.482
655.514
661.433
666.208
669.812
672.226
673.436
673.435
)
;
    }
    coldSide
    {
        type            mixed;
        refValue        uniform 300;
        refGradient     uniform 0;
        valueFraction   uniform 0.991591;
        source          uniform 0;
        value           nonuniform List<scalar> 
400
(
300.027
300.028
300.028
300.029
300.03
300.03
300.031
300.032
300.032
300.033
300.034
300.034
300.034
300.035
300.035
300.035
300.035
300.035
300.035
300.035
300.028
300.028
300.029
300.03
300.03
300.031
300.032
300.032
300.033
300.034
300.034
300.034
300.034
300.035
300.035
300.036