/*--------------------------------*- C++ -*----------------------------------*\
| =========                 |                                                 |
| \\      /  F ield         | OpenFOAM: The Open Source CFD Toolbox           |
|  \\    /   O peration     | Version:  2212                                  |
|   \\  /    A nd           | Website:  www.openfoam.com                      |
|    \\/     M anipulation  |                                                 |
\*---------------------------------------------------------------------------*/
FoamFile
{
    version     2.0;
    format      ascii;
    arch        "LSB;label=32;scalar=64";
    class       volScalarField;
    location    "0";
    object      relativeErrorField;
}
// * * * * * * * * * * * * * * * * * * * * * * * * * * * * * * * * * * * * * //

dimensions      [0 0 0 1 0 0 0];

internalField   nonuniform List<scalar> 
3200
(
0.000779095
0.000285583
0.00114313
0.00221589
0.00279163
0.00279988
0.00268521
0.00225107
0.00186018
0.00140236
0.00100012
0.000152151
0.000444403
0.00112935
0.00230933
0.00319823
0.00484375
0.0061873
0.00797415
0.00971749
0.000290772
0.000777774
0.00199175
0.00260024
0.00305759
0.00294994
0.00315585
0.00284471
0.00228955
0.00200388
0.00144142
0.000982341
0.000280017
0.00044273
0.00125806
0.00207921
0.00322425
0.00503577
0.00627593
0.00806618
5.04651e-05
0.000841444
0.00200172
0.00263264
0.00260867
0.00291633
0.00299687
0.002932
0.00253923
0.00224348
0.00175771
0.00115137
0.000959046
0.000136175
0.000588713
0.00149431
0.00248633
0.00390502
0.00525472
0.00635521
0.000137538
0.00119149
0.00170537
0.00225759
0.00288905
0.00284348
0.00281765
0.0027517
0.00224686
0.00202137
0.00173926
0.00130615
0.000977043
0.000648441
0.000145517
0.00100621
0.00172368
0.0027937
0.00404508
0.00507136
0.00048269
0.00108024
0.00167214
0.00192403
0.00242093
0.00237112
0.00226358
0.00227327
0.0021284
0.00181191
0.0017053
0.00122165
0.00118317
0.000466163
0.000135346
0.00032702
0.00124796
0.00200948
0.00281077
0.00385503
0.00042707
0.00105294
0.00139157
0.00160494
0.00184476
0.00169798
0.00190066
0.00171158
0.00168972
0.00130231
0.00132727
0.00114821
0.000778475
0.000346943
0.000166155
0.000249929
0.000863488
0.00138727
0.00186665
0.00243854
0.000183186
0.000431195
0.000891035
0.000839693
0.00110704
0.0012221
0.001169
0.000972095
0.000988714
0.000937137
0.00102125
0.000693011
0.000526687
0.000379068
6.49987e-05
1.79454e-05
0.000588735
0.000810136
0.00125779
0.00151825
0.000113547
0.000344381
0.000388666
8.10477e-05
0.000477616
0.000300811
0.000257143
0.000465589
0.000373983
0.000160888
0.000259679
5.47588e-05
0.000215385
7.73358e-05
4.62012e-05
9.55811e-05
0.00021794
7.25777e-06
0.00063999
0.000368613
0.00158586
0.00290018
0.00412071
0.00491258
0.00541424
0.00559119
0.00556087
0.00553534
0.00474951
0.00439329
0.00373727
0.00312332
0.00249367
0.00174975
0.000865826
0.00039564
0.00203857
0.00370774
0.00541167
0.00719996
0.00171254
0.00288592
0.00397402
0.00466731
0.00528301
0.0056161
0.00551459
0.00548521
0.00477962
0.00454887
0.00384337
0.00343451
0.0027183
0.00195461
0.00117917
6.62087e-05
0.00115092
0.00270119
0.00437317
0.00595393
0.00164629
0.00284899
0.00374071
0.00449242
0.00495339
0.00528799
0.00511912
0.00480131
0.00467898
0.00415126
0.00363848
0.00336354
0.00287156
0.00229571
0.00144134
0.000529973
0.000515121
0.00185036
0.00334782
0.00457746
0.00178208
0.00233886
0.00316683
0.00387278
0.00420777
0.00444898
0.00457988
0.00437577
0.00420486
0.00397291
0.00345798
0.00306978
0.00231972
0.00222727
0.00151352
0.000702573
0.000288295
0.00131346
0.00241694
0.00356545
0.00148809
0.00212944
0.00244307
0.00318505
0.00356942
0.00363014
0.00372766
0.00363851
0.00359436
0.00287977
0.00302931
0.00259107
0.0022431
0.00199064
0.00119148
0.000649813
8.8701e-05
0.000941611
0.00192926
0.00264174
0.00117601
0.0015306
0.00209628
0.00232992
0.00263224
0.00272561
0.00283919
0.0028559
0.00256335
0.00225187
0.00208377
0.00198133
0.00151076
0.00128132
0.00112807
0.000561789
0.000120087
0.000557622
0.00129449
0.00188157
0.000707091
0.00124723
0.00149882
0.00167728
0.00180499
0.00155166
0.00183246
0.00179698
0.00157015
0.00137604
0.00129246
0.00108104
0.00101478
0.000971577
0.000700702
0.000380287
0.000173184
0.000448879
0.00069546
0.00110524
0.000232204
0.000372311
0.000404807
0.000334619
0.000477878
0.000590284
0.000676733
0.000479376
0.000518316
0.000181653
0.000435427
0.000444351
0.000410122
0.000416702
0.000183858
5.9019e-06
4.71535e-05
0.000222561
0.000141997
0.000291577
0.0047238
0.00603327
0.00725499
0.00828822
0.00909013
0.0092473
0.00932149
0.00903819
0.00871104
0.00835234
0.00749137
0.00703899
0.00616289
0.00555501
0.00431757
0.00303463
0.0014015
0.000266784
0.00246507
0.00418798
0.00450469
0.00578596
0.00682711
0.00758954
0.00833008
0.00876314
0.00851081
0.00842904
0.00809738
0.00765892
0.00735462
0.00674815
0.00590815
0.00521208
0.00452797
0.00307947
0.00170462
0.000114395
0.00147959
0.00320281
0.00427382
0.00491861
0.00620923
0.00688474
0.00739592
0.00769997
0.00765754
0.00763724
0.00731856
0.00708806
0.00658996
0.00611622
0.00551042
0.00480128
0.00405806
0.00294171
0.00192597
0.000425661
0.000800604
0.00254866
0.00366909
0.00444104
0.00508897
0.00596102
0.00628148
0.00648096
0.00665081
0.0064109
0.0063616
0.00581407
0.00565941
0.00533668
0.00475522
0.00431645
0.00369528
0.00286626
0.00180025
0.000776443
0.000718118
0.00165445
0.00289402
0.00358633
0.00409239
0.00454496
0.00530083
0.00538552
0.00530364
0.00530682
0.00527693
0.00497476
0.00481209
0.00452722
0.00392542
0.00331427
0.00281902
0.00228357
0.00144748
0.00054969
0.00052304
0.00139219
0.00211864
0.00273867
0.00298894
0.00361618
0.00400154
0.00373793
0.00385274
0.00386435
0.00385192
0.00364229
0.00343216
0.00318749
0.00276455
0.00253966
0.00214389
0.00176558
0.00135787
0.000432642
0.000330245
0.000847511
0.00144351
0.00159996
0.00192646
0.00212333
0.00220868
0.00243505
0.00265079
0.00229748
0.00233324
0.00221791
0.00208912
0.00199814
0.00171636
0.00171549
0.00111906
0.00103142
0.00063086
0.000185724
0.000223128
0.000465846
0.000491066
0.00083039
0.000438348
0.000896025
0.000858727
0.00087237
0.000620095
0.000833691
0.000695697
0.000747807
0.000700035
0.000774839
0.000756101
0.000667297
0.000492185
0.00048749
0.000304497
3.80053e-05
0.000117139
0.000345651
0.00760053
0.0093842
0.0106587
0.0113185
0.0123833
0.0126994
0.0128796
0.0126767
0.0124205
0.0118537
0.0115051
0.0106334
0.00977405
0.00878257
0.00795634
0.00638009
0.00478213
0.00303217
0.00069092
0.001213
0.00712551
0.00819093
0.00961967
0.0103762
0.0111002
0.011699
0.011991
0.0117287
0.011419
0.0111727
0.010492
0.0097782
0.00916078
0.00825571
0.00714462
0.00619041
0.00450532
0.00295927
0.00111889
0.000610996
0.00608713
0.00732768
0.00848523
0.00953858
0.00982391
0.0102104
0.0102103
0.0102833
0.0103123
0.00983622
0.00944307
0.00883029
0.00827933
0.00764478
0.00698096
0.00561788
0.00432777
0.00298333
0.00105388
0.000409212
0.00531534
0.00624886
0.00692304
0.00781954
0.0084631
0.00891959
0.00869806
0.00887179
0.00873883
0.00853142
0.00782196
0.00760567
0.00705143
0.00667191
0.00586426
0.00488061
0.00366575
0.00266397
0.00124067
2.96771e-05
0.00415659
0.00489849
0.00589646
0.00642217
0.00664327
0.00668008
0.00721396
0.00728586
0.00691063
0.0067515
0.00650669
0.00615371
0.00573469
0.00519366
0.00476818
0.00386558
0.00319995
0.00232501
0.00122136
9.14816e-05
0.00333565
0.00359778
0.00434583
0.00450688
0.00490994
0.00514188
0.00533443
0.00506509
0.0050243
0.00499765
0.0046443
0.00463241
0.004091
0.00402273
0.00360764
0.00303598
0.00248676
0.00177216
0.000916712
0.000155286
0.00186812
0.00217545
0.00248434
0.00273826
0.00287297
0.00308601
0.00316731
0.0032258
0.00329665
0.00298243
0.00297102
0.00280686
0.00269195
0.00258949
0.00203902
0.00194962
0.00148379
0.000723029
0.00038354
0.000370323
0.000833792
0.000808135
0.000782877
0.00102196
0.0011208
0.00103303
0.00139093
0.00103226
0.000970703
0.00119541
0.00102574
0.00125464
0.000765424
0.00079048
0.00076183
0.000547534
0.000561337
0.000270292
0.000272099
0.000183404
0.0102082
0.0118477
0.0133649
0.0144598
0.0152717
0.0157516
0.0161225
0.0161509
0.0159779
0.0153676
0.0149809
0.0141933
0.0132544
0.0122599
0.0113034
0.00961006
0.00780142
0.00580507
0.00356557
0.00125062
0.00933863
0.0107133
0.012024
0.0133213
0.0140889
0.0143695
0.0146897
0.0147255
0.0142474
0.0140937
0.013489
0.0129601
0.0123824
0.0111565
0.0102998
0.00889629
0.0073426
0.00530365
0.00345912
0.0016248
0.00819889
0.00921799
0.0103976
0.0115377
0.0124667
0.0124526
0.0127402
0.0128552
0.012544
0.0123598
0.0120683
0.0115672
0.0108227
0.00996756
0.00910238
0.00795544
0.00644764
0.00489415
0.00336417
0.00153567
0.00690833
0.00791339
0.00889032
0.00971198
0.0103254
0.0106975
0.0109571
0.0107419
0.0109267
0.0104055
0.0100108
0.00968283
0.00922943
0.00871409
0.00779141
0.00682639
0.00570359
0.00439498
0.0029433
0.00188714
0.00551763
0.00630685
0.00705567
0.0079456
0.00818689
0.00851529
0.00866772
0.00868921
0.00845406
0.00845213
0.00797523
0.00811223
0.00746391
0.00671203
0.00625137
0.00522468
0.00462616
0.00351834
0.00217025
0.00133643
0.00396164
0.0046892
0.00528301
0.00563746
0.00608446
0.00615463
0.00605941
0.0063779
0.00635463
0.00635083
0.00599109
0.00600389
0.00559712
0.00512927
0.00457758
0.00407423
0.00321966
0.00247525
0.00190693
0.000962763
0.00241062
0.00288211
0.00305487
0.00359416
0.00382414
0.00387071
0.00387489
0.0038895
0.00400376
0.003814
0.0037769
0.00378774
0.00333094
0.00325915
0.00278781
0.00239969
0.00220217
0.00175167
0.00127946
0.000527853
0.000973986
0.000898973
0.00112872
0.00110265
0.00129088
0.00131567
0.00129374
0.00140642
0.00131721
0.00124682
0.00112806
0.00129934
0.00128044
0.00118248
0.00099098
0.000871107
0.00084257
0.000576337
0.000364865
0.00015526
0.0122604
0.013842
0.0154741
0.017148
0.0181012
0.0186496
0.0189891
0.0190142
0.0189648
0.0183419
0.0179163
0.0171129
0.0161847
0.0151129
0.0136322
0.0121967
0.0104336
0.00815804
0.00547945
0.00350918
0.0113384
0.0123849
0.0142393
0.0153802
0.0161505
0.0167999
0.0172157
0.0171294
0.0169512
0.0167362
0.0161665
0.0155915
0.0148454
0.0138401
0.012595
0.0111696
0.00939061
0.00759599
0.00552248
0.0035854
0.00984029
0.0108927
0.0122605
0.0134557
0.0143129
0.0146898
0.0149048
0.0152669
0.014907
0.01475
0.0141653
0.0135889
0.0128954
0.0121303
0.0112676
0.00989865
0.0082204
0.00695637
0.0049651
0.00325587
0.00796543
0.00931403
0.0102509
0.0114323
0.0120233
0.0123949
0.0125874
0.0126879
0.0124302
0.0123826
0.011931
0.0114355
0.0109128
0.010227
0.00933413
0.00858903
0.00706954
0.00576043
0.00418721
0.00295651
0.00660163
0.00723941
0.00828264
0.00913717
0.00937304
0.00991792
0.0101764
0.00995891
0.0100523
0.0098516
0.00945333
0.0092334
0.00868714
0.00826997
0.00747059
0.00652352
0.00570341
0.00481473
0.00357638
0.00249692
0.00466912
0.00533442
0.00617882
0.00674559
0.0068905
0.00717408
0.00752886
0.00742597
0.00744173
0.00720039
0.00710633
0.00645571
0.00630437
0.00607641
0.00544984
0.00485573
0.00416375
0.00364403
0.00259123
0.00170755
0.00285702
0.00318909
0.00390363
0.00403607
0.00437574
0.00457066
0.004457
0.00456933
0.00461394
0.00445836
0.00452236
0.00429051
0.00412818
0.00376045
0.00354328
0.00291979
0.00250343
0.00204004
0.00156618
0.00113846
0.00110122
0.0013238
0.00114682
0.00152197
0.00131127
0.00152443
0.00154168
0.00128761
0.00156736
0.00138832
0.00148092
0.00165425
0.0013507
0.0012156
0.00146178
0.000865518
0.000759443
0.000700607
0.000567807
0.00045696
0.0137002
0.0154805
0.0173062
0.0188762
0.0199307
0.0209089
0.021238
0.0212103
0.0211497
0.020933
0.0203974
0.0193963
0.0183981
0.0173816
0.015813
0.0143444
0.0121147
0.0098433
0.00711455
0.00507015
0.0125656
0.0138701
0.0155725
0.0169798
0.0178519
0.0187865
0.018943
0.0191889
0.019062
0.0188102
0.0184194
0.0175587
0.0168275
0.01579
0.0143506
0.0129879
0.0112576
0.00906658
0.00655093
0.00487627
0.0109789
0.012011
0.0134796
0.0149718
0.0157156
0.0163485
0.0164391
0.0168857
0.0166974
0.016614
0.0160092
0.0154281
0.0146845
0.0137116
0.0125954
0.0112701
0.0101981
0.00804518
0.00600927
0.00446959
0.00910529
0.010227
0.0114694
0.0123983
0.013272
0.0136188
0.0140711
0.0142119
0.0139973
0.014029
0.0135207
0.0131333
0.012623
0.0116069
0.0108272
0.00953615
0.00846451
0.00677609
0.00540756
0.00387026
0.00721585
0.00821073
0.0090304
0.0101116
0.0102381
0.0109403
0.0111861
0.0112409
0.0110537
0.0110997
0.0108371
0.0103194
0.0100612
0.00936181
0.00870266
0.00768926
0.00680015
0.00543487
0.00436549
0.00311743
0.00543212
0.00592186
0.00672364
0.00727839
0.00761263
0.0081325
0.00818319
0.00835456
0.00819845
0.00798961
0.00774485
0.007554
0.00748164
0.00670534
0.0064326
0.00598557
0.00499659
0.00440124
0.00319728
0.00232443
0.00313927
0.00371768
0.00405397
0.00435259
0.00455391
0.00499015
0.00495197
0.00495526
0.00517195
0.00504392
0.00491553
0.0046791
0.0044209
0.00427325
0.00393575
0.00327409
0.00329245
0.0025425
0.00185673
0.00143284
0.000921168
0.00131644
0.0011826
0.0016053
0.00170384
0.00153802
0.0016473
0.00184491
0.00186889
0.00187458
0.00162785
0.00140655
0.00157143
0.00133959
0.00151554
0.00104314
0.000996122
0.000912823
0.00072155
0.000368265
0.0146253
0.016361
0.0184755
0.0200218
0.0214382
0.0222059
0.0226095
0.0231272
0.0229099
0.0228136
0.0219246
0.0213194
0.0201414
0.019093
0.0175073
0.0156599
0.0133577
0.0108865
0.00840676
0.0060365
0.0130789
0.0147042
0.016478
0.0179794
0.0191368
0.0199356
0.0203239
0.0207282
0.0205253
0.0204543
0.0199924
0.0191839
0.0181337
0.0172654
0.0158444
0.0140602
0.0122755
0.0101823
0.00809222
0.00555782
0.0112366
0.0127565
0.0144723
0.0155749
0.0166777
0.0173519
0.0177866
0.0180113
0.0178282
0.0177689
0.0173332
0.0167684
0.0161174
0.0149529
0.0137043
0.012681
0.0109405
0.0089072
0.00689624
0.00516183
0.00957057
0.010656
0.012055
0.01306
0.0141757
0.0146464
0.0152041
0.0154302
0.0151154
0.0152049
0.0146009
0.0142713
0.0135393
0.0128366
0.0118967
0.0105645
0.0089575
0.00750781
0.00587514
0.00430223
0.00762043
0.0086152
0.00973423
0.0102431
0.0110806
0.0116956
0.0117815
0.0121339
0.012044
0.0119656
0.0117631
0.0114437
0.0108805
0.0102998
0.0094333
0.00868694
0.00768827
0.00589199
0.00474482
0.00349437
0.00565627
0.00623935
0.00720996
0.00741354
0.00808907
0.00857633
0.00891626
0.00904111
0.00901087
0.00894454
0.00852152
0.00825652
0.0080456
0.00746901
0.00665041
0.00632902
0.00518471
0.00458802
0.00358077
0.00282412
0.00354339
0.00393645
0.00419649
0.0046394
0.00488869
0.00529543
0.00536585
0.00547715
0.00555923
0.00531166
0.00541802
0.0052393
0.00475236
0.00469586
0.00414797
0.00366786
0.00338007
0.00282012
0.00225219
0.00184458
0.00129537
0.00109664
0.00166438
0.00160712
0.00183576
0.00157364
0.00170347
0.00205245
0.0018942
0.00216125
0.001825
0.00184273
0.00163121
0.00160489
0.00159535
0.00156429
0.00115104
0.00085591
0.000736186
0.000629371
0.0146378
0.0167018
0.0187954
0.0208341
0.022059
0.0232192
0.0237784
0.024084
0.0241726
0.0238345
0.0232675
0.0223789
0.0214182
0.0199742
0.0183224
0.0165426
0.0142398
0.0114293
0.00869119
0.00615504
0.013239
0.0148584
0.016857
0.0185608
0.0197188
0.0206699
0.0212389
0.0215924
0.0215355
0.0213743
0.0207938
0.0201553
0.0192132
0.0181566
0.0166181
0.0146898
0.0130136
0.010504
0.00812217
0.0059568
0.0115885
0.0131144
0.0147417
0.0162515
0.0173282
0.0180315
0.0185592
0.0187185
0.0189622
0.0185855
0.0181236
0.0178163
0.0168141
0.0159322
0.014631
0.0130808
0.0113561
0.00935758
0.00703257
0.00548554
0.00951238
0.0109653
0.0122178
0.0134658
0.0144318
0.015183
0.0158258
0.0158175
0.0158081
0.0159547
0.0153754
0.0149846
0.0142198
0.0133169
0.0124014
0.0112332
0.00971142
0.00790767
0.00599336
0.00466477
0.00768067
0.00869208
0.0100075
0.010834
0.0114266
0.0122991
0.0124271
0.0126554
0.0126807
0.0125281
0.0123703
0.0117434
0.0113968
0.010696
0.0099002
0.00896583
0.00770734
0.00644451
0.00497953
0.00385893
0.00545895
0.00627945
0.0071578
0.00778734
0.00844322
0.00905714
0.00885458
0.0092175
0.0094143
0.00910806
0.00914022
0.00850528
0.00831145
0.00786706
0.00712141
0.00657945
0.00557616
0.00471852
0.00373696
0.00273723
0.00329509
0.00361541
0.00439166
0.00482831
0.00537156
0.00543366
0.00573143
0.00574868
0.00551508
0.00560657
0.00544109
0.0050843
0.00525988
0.00477567
0.00450919
0.00400606
0.00380444
0.0029744
0.0022154
0.00170737
0.00104417
0.0013265
0.00149683
0.00151177
0.00181422
0.00218274
0.0020397
0.00200042
0.00199087
0.00205165
0.00187644
0.00168623
0.00182542
0.00180181
0.00156792
0.00140961
0.00126235
0.000852234
0.000974896
0.000578105
0.014128
0.0162323
0.0184663
0.0206261
0.0222998
0.0234518
0.0239965
0.0242771
0.0242828
0.0242896
0.0236724
0.0225135
0.0214729
0.0201426
0.0186514
0.0166573
0.0139975
0.0112515
0.00837347
0.00570749
0.0127515
0.0144307
0.0166456
0.0186406
0.01973
0.0210187
0.0213253
0.021908
0.0218135
0.0216628
0.0212138
0.0204764
0.0194563
0.0182678
0.0170166
0.0149594
0.0127629
0.0105622
0.00767451
0.00573806
0.0112912
0.0128339
0.0146004
0.0160479
0.017198
0.0182501
0.0189026
0.0189853
0.0193131
0.018913
0.0184364
0.0178192
0.0172129
0.0159219
0.0148867
0.0131152
0.0114179
0.009269
0.00723671
0.00515645
0.00943418
0.0107169
0.0121071
0.0134395
0.0143701
0.0153642
0.0157275
0.0163044
0.0160799
0.0160447
0.0158252
0.0150531
0.0145825
0.0135874
0.012406
0.0111269
0.00968512
0.00758116
0.00615663
0.00451502
0.00742274
0.00857663
0.00966774
0.0106801
0.011581
0.0125229
0.0127637
0.0127184
0.0127427
0.0128269
0.0124535
0.0120427
0.0115778
0.0108528
0.00991728
0.00890777
0.0074757
0.0061769
0.00488476
0.00333026
0.00547778
0.0062301
0.00715282
0.00794043
0.00831771
0.00893703
0.00933194
0.00928867
0.00957929
0.00948729
0.00904019
0.00878203
0.00850727
0.00815396
0.00744076
0.00653397
0.00575974
0.00469985
0.00343503
0.00271996
0.00343088
0.00398606
0.00412074
0.00492967
0.00522247
0.00526732
0.0055603
0.00565952
0.00582042
0.00595533
0.00555746
0.00556299
0.00512578
0.00500455
0.00475952
0.00393423
0.00383585
0.00289913
0.00245572
0.00162532
0.00108833
0.00126317
0.00156656
0.00173557
0.00177401
0.00172892
0.00185654
0.00216606
0.00193393
0.00194418
0.00200645
0.00176276
0.00173585
0.00164271
0.00145646
0.00141403
0.00108829
0.00112808
0.00090249
0.000539355
0.0130147
0.0154527
0.0178365
0.0198164
0.0217278
0.0227558
0.0236456
0.0239038
0.0241875
0.0236968
0.0233124
0.0225052
0.0215114
0.0199032
0.0179933
0.0158187
0.0132267
0.0105587
0.00755963
0.00494166
0.0117068
0.0136899
0.0160516
0.0177072
0.01902
0.0202789
0.0211067
0.0217289
0.0214701
0.0215488
0.0209565
0.0202304
0.0191143
0.0179503
0.0165461
0.0145641
0.0122218
0.00970472
0.00687559
0.00459045
0.0102741
0.0119111
0.0137475
0.0153489
0.0167456
0.0177686
0.0184297
0.0187888
0.0189165
0.0187661
0.0185299
0.0176771
0.0171343
0.0156413
0.0141382
0.012757
0.0107507
0.00867797
0.00631947
0.00440653
0.00856508
0.0102012
0.0115314
0.0129453
0.0140813
0.014842
0.0153365
0.0157834
0.0157975
0.0158835
0.015451
0.0148718
0.0144368
0.0132255
0.0121697
0.010695
0.00913519
0.00723572
0.00533707
0.00392165
0.00683478
0.00785506
0.00906806
0.0102234
0.0112574
0.0120131
0.0122913
0.0125464
0.0126685
0.0125197
0.0122728
0.0119022
0.0113765
0.0106418
0.00990029
0.00878656
0.00722241
0.0057557
0.00461592
0.00320554
0.00488166
0.00581408
0.00673745
0.00741321
0.00814402
0.00890937
0.00886282
0.00922539
0.00938317
0.00938746
0.00910152
0.00900103
0.00845055
0.0078897
0.00729205
0.0063919
0.00555961
0.0041864
0.00348992
0.0023054
0.00344973
0.00362521
0.00415742
0.00480602
0.00511539
0.00529077
0.00545876
0.00573864
0.00572844
0.00562728
0.00573968
0.00544677
0.00517259
0.0048737
0.00435663
0.00374632
0.00311413
0.00262751
0.00219672
0.00152777
0.000991944
0.00139968
0.00144704
0.00144009
0.00190341
0.00178331
0.00184377
0.0019652
0.00215758
0.00200166
0.00206663
0.00177164
0.00168656
0.0015443
0.00127052
0.00145566
0.00100464
0.000588094
0.000985862
0.000375678
0.0110471
0.0135005
0.016103
0.018245
0.0200141
0.0214063
0.022382
0.0229517
0.0229225
0.0229341
0.0226235
0.0215087
0.0203438
0.0186486
0.0168233
0.0147301
0.0119081
0.00909925
0.00596165
0.00301514
0.0101557
0.0121342
0.014053
0.0162606
0.0179153
0.0190984
0.0199056
0.0206485
0.0206979
0.0204633
0.0201039
0.0193718
0.018261
0.016999
0.0153318
0.0133232
0.0110333
0.00828196
0.00561833
0.00313349
0.00883493
0.0107393
0.0124989
0.0140616
0.0156198
0.0168134
0.0172347
0.0179768
0.0179384
0.0180782
0.0177579
0.0167865
0.016087
0.0149474
0.013509
0.0118906
0.0097931
0.00743154
0.00527555
0.00317524
0.00738834
0.0088479
0.0103932
0.0117969
0.0131192
0.0139503
0.0145961
0.015022
0.0151967
0.0150618
0.0147715
0.014312
0.0136229
0.0126247
0.011308
0.00997432
0.0081592
0.00634828
0.00433923
0.00273927
0.00606371
0.00716226
0.00825508
0.00959551
0.0105338
0.0110302
0.0116654
0.0122585
0.0123006
0.0121823
0.0117559
0.011437
0.0107843
0.00995323
0.00897126
0.0081118
0.0066483
0.00514931
0.00362211
0.00232073
0.00461961
0.00527418
0.00618006
0.00694865
0.00757465
0.00805407
0.00833927
0.00879681
0.00888368
0.00893697
0.00872087
0.00871555
0.00800648
0.00754418
0.00657915
0.00574137
0.00498416
0.00372731
0.00270778
0.00156814
0.00251998
0.00316487
0.00387018
0.00408264
0.00466144
0.00512951
0.00530053
0.00540099
0.00522967
0.00553775
0.00533218
0.00522038
0.00505842
0.00430807
0.0040009
0.0036271
0.00312416
0.00228086
0.00178757
0.00107662
0.000920916
0.00105413
0.00143792
0.00147622
0.00158564
0.00176911
0.0018144
0.0018231
0.00165653
0.00181015
0.0018278
0.00173384
0.00172569
0.00149991
0.00129724
0.00109381
0.000971457
0.000760077
0.000608639
0.000364237
0.00863775
0.0111267
0.0138269
0.0158636
0.0179286
0.019397
0.0203789
0.0212598
0.021416
0.0211239
0.0207581
0.0198715
0.0185034
0.0169209
0.015015
0.0125453
0.00992973
0.00689238
0.00370534
0.000783904
0.00779799
0.00993009
0.0122678
0.0143319
0.0160727
0.0175128
0.0184661
0.0189731
0.0193358
0.0188842
0.0185282
0.0178671
0.0168322
0.0153072
0.0136854
0.0115157
0.00925579
0.00639465
0.00359754
0.0010015
0.00676587
0.00865296
0.0108367
0.0126648
0.0139623
0.0152106
0.0160687
0.0163862
0.0166269
0.0168667
0.0162525
0.0156587
0.0145807
0.0133944
0.0121619
0.0103345
0.00801225
0.00565755
0.00338588
0.00104898
0.00564839
0.00746317
0.00893904
0.0106348
0.0116315
0.0126702
0.0134519
0.0139494
0.0140907
0.0140204
0.013675
0.0132012
0.0122636
0.0112581
0.0101387
0.00874582
0.00718535
0.00498274
0.0028007
0.00132785
0.00472933
0.00570782
0.00715148
0.00837964
0.00921036
0.0103141
0.0107424
0.0110317
0.0112352
0.0111205
0.0109448
0.0105581
0.00987922
0.00923348
0.00830503
0.00694601
0.00542977
0.00419948
0.00251003
0.000998835
0.00332836
0.00426573
0.00526773
0.00600907
0.00693619
0.0075784
0.00787892
0.00818992
0.0081931
0.00847888
0.00807952
0.00772466
0.00728292
0.00671271
0.00595637
0.00501108
0.00414876
0.0029984
0.00169167
0.00100942
0.00215328
0.0025344
0.00311168
0.00357631
0.00423738
0.00476639
0.00483678
0.00500945
0.00526711
0.00503215
0.00506026
0.00462352
0.0044003
0.00411578
0.00356229
0.00314816
0.00222963
0.00167742
0.00107444
0.000710052
0.000549313
0.000849202
0.00113925
0.00130252
0.00137346
0.00145781
0.00171406
0.00178908
0.00159936
0.00184024
0.00188503
0.00163918
0.00152758
0.0014837
0.00117247
0.000936391
0.00109816
0.000649687
0.0002703
0.000312045
0.00558294
0.00780621
0.0106209
0.0130018
0.0150893
0.0169612
0.0176945
0.0187173
0.018817
0.0186049
0.0181537
0.0171301
0.0160335
0.0143232
0.0123115
0.00993418
0.00716541
0.00385524
0.00060011
0.00246134
0.0049213
0.00704249
0.00955879
0.0119869
0.0134687
0.0148806
0.0158992
0.0167678
0.0170386
0.0167464
0.0163534
0.0154395
0.0144474
0.0130294
0.011166
0.00883889
0.00681022
0.00369975
0.000903651
0.00169654
0.00464192
0.0063021
0.00842574
0.0101641
0.0116135
0.0130799
0.0138395
0.0145444
0.0145877
0.0147072
0.0143285
0.0136577
0.0125714
0.0115511
0.00989692
0.00803965
0.00577722
0.00377074
0.000879994
0.000954411
0.0036425
0.00511929
0.00698458
0.00847686
0.00991529
0.0108709
0.0118286
0.0122312
0.0122539
0.0124297
0.0122952
0.0117733
0.0109156
0.00971841
0.00838059
0.0068766
0.00511182
0.00298756
0.0010856
0.000722244
0.00302522
0.00413178
0.00554068
0.00682825
0.0079586
0.00873708
0.00941885
0.00993276
0.0101093
0.0102123
0.00971838
0.00919261
0.00862083
0.00764813
0.00673803
0.00548352
0.0040677
0.00264972
0.000770459
0.000670261
0.00212792
0.00302372
0.00402013
0.0049907
0.00579257
0.00618992
0.00680299
0.00715377
0.00720947
0.00726653
0.00716242
0.00668968
0.00629411
0.00586883
0.00491633
0.00426567
0.00312122
0.00175597
0.00071463
0.000433189
0.00129768
0.00169065
0.00252676
0.00307638
0.0034659
0.00392774
0.00439433
0.00436156
0.00451005
0.00469088
0.00445307
0.00417393
0.00385422
0.00354848
0.00295477
0.00260306
0.00165353
0.00111921
0.000341788
0.000204953
0.000474034
0.000506575
0.000983902
0.000839154
0.00108569
0.00123038
0.00124669
0.0015056
0.00144052
0.00155357
0.00151188
0.00148291
0.00146546
0.00113392
0.00109233
0.000978691
0.000602396
0.000442302
0.000160642
4.2062e-05
0.00139641
0.00422267
0.00679404
0.00959991
0.011641
0.0131979
0.0145739
0.0152466
0.0154185
0.0152539
0.0149746
0.0140464
0.0126008
0.0108961
0.00892134
0.00648335
0.00343252
0.000404287
0.00304122
0.00602514
0.00141849
0.00380082
0.00616439
0.00853377
0.0103517
0.0119164
0.0129012
0.0135893
0.0140413
0.0138499
0.0135337
0.0125445
0.0114451
0.0100919
0.00825466
0.00590421
0.00338702
0.000800494
0.00234618
0.00491754
0.00131312
0.00325079
0.00551605
0.0074709
0.00911997
0.0103848
0.0115609
0.0118686
0.0122355
0.0120635
0.0118529
0.0111289
0.0100318
0.00890876
0.00730821
0.00556439
0.00318031
0.000681594
0.00199912
0.00399266
0.00123553
0.00293497
0.00474917
0.00644249
0.00773224
0.00875579
0.00935964
0.0101403
0.0104236
0.0102445
0.010382
0.00951374
0.00853233
0.00745703
0.00628629
0.00470401
0.00286854
0.00104147
0.00128167
0.00337242
0.000929979
0.00225105
0.00368822
0.00510514
0.00630846
0.00693325
0.00777668
0.00794181
0.00834185
0.00815284
0.0080931
0.00757774
0.00694906
0.00619747
0.00506897
0.00359257
0.00220667
0.000838386
0.000990292
0.00248313
0.000734216
0.00162433
0.00253988
0.0037908
0.00442563
0.00522179
0.00566166
0.00590951
0.0059554
0.00620888
0.00589082
0.00567045
0.00496289
0.0044028
0.00374881
0.00262814
0.00177903
0.000414481
0.000948056
0.00185907
0.000467335
0.00102582
0.001551
0.00226545
0.00282286
0.00287134
0.00354221
0.00350186
0.00377419
0.00378865
0.00366242
0.00319993
0.00301286
0.00266173
0.00249118
0.00173985
0.000954688
0.00056016
0.000390858
0.00113826
0.000171679
0.000412629
0.000480291
0.000926641
0.000993113
0.00110848
0.00101018
0.00131882
0.00124323
0.00132164
0.00124923
0.0012106
0.00106399
0.00113451
0.000936365
0.000285018
0.000308507
0.000223549
0.000263476
0.000216469
0.00301002
0.000401035
0.00261874
0.00505934
0.00733436
0.00887093
0.0103576
0.0114083
0.0116525
0.0113413
0.0110904
0.0101548
0.00888637
0.00719409
0.00484806
0.00219865
0.000620024
0.00369355
0.00721821
0.0104894
0.00277177
6.57702e-06
0.00205365
0.00465786
0.00667886
0.0084383
0.00918686
0.00999653
0.0103465
0.0105029
0.0100664
0.00935177
0.00782567
0.00641404
0.00461725
0.00247777
0.000179223
0.00308706
0.00614856
0.00881101
0.00201293
0.000127468
0.00204868
0.00404271
0.00585084
0.0072516
0.00817239
0.0090208
0.00925634
0.00915349
0.00878109
0.00827674
0.00710657
0.00577352
0.00422272
0.00196373
1.377e-05
0.00241935
0.00531895
0.00724777
0.00175392
0.000250282
0.00176452
0.00350961
0.00470278
0.00625277
0.00683188
0.00743991
0.00789148
0.00787095
0.00736233
0.00691393
0.00611446
0.00511688
0.00364874
0.00182842
0.000182526
0.00194323
0.00412947
0.00595551
0.0012681
8.11186e-05
0.00133215
0.0028583
0.00412421
0.00465018
0.00553662
0.00606885
0.00632679
0.00623468
0.00609722
0.00556337
0.00483514
0.00405064
0.00290423
0.00191859
0.000146336
0.00149597
0.00337834
0.00480914
0.00100488
0.000247533
0.000938629
0.00184317
0.00301705
0.00353255
0.00398328
0.00434792
0.00460143
0.00455317
0.00447287
0.00417358
0.00352202
0.00306171
0.00218189
0.00119915
6.69717e-05
0.00112494
0.00224794
0.0033204
0.000570858
0.000119512
0.00064798
0.00123133
0.00186576
0.00205616
0.00254277
0.00254755
0.00282816
0.00294399
0.00256622
0.00251374
0.00208519
0.00172089
0.0015642
0.000807239
0.000105361
0.000645603
0.00146708
0.00210146
0.000333683
1.19186e-05
1.32525e-05
0.000392615
0.000410657
0.000916538
0.000703063
0.00112338
0.00111515
0.000993166
0.000893735
0.000720277
0.000637933
0.000718025
0.000448952
0.000167685
3.17591e-05
8.33166e-05
0.000517273
0.000554384
0.00793342
0.00538696
0.00240348
0.00021525
0.00235652
0.00399798
0.00564436
0.00662346
0.00685433
0.00686264
0.00637458
0.00555151
0.00406461
0.00239127
0.000102275
0.00222278
0.00551246
0.00878323
0.0122215
0.0153749
0.00712436
0.00467211
0.00196454
0.000328219
0.00245714
0.00397054
0.00525318
0.00611253
0.00621924
0.00629818
0.00587983
0.00522177
0.00401414
0.00229168
0.000558901
0.00193448
0.00441936
0.00746155
0.0103504
0.0133509
0.00608519
0.00415787
0.00170457
0.000378835
0.00214273
0.0035468
0.00437656
0.00523416
0.00571597
0.00554277
0.00532076
0.00456593
0.00351394
0.00218481
0.000602764
0.00152715
0.00362448
0.00624866
0.00892332
0.0111133
0.00520392
0.00343538
0.00127838
0.000244218
0.00184005
0.00284318
0.0040434
0.0045429
0.00482905
0.00480104
0.00447946
0.00384118
0.00311573
0.00203222
0.000653086
0.001117
0.00308986
0.00498293
0.00746509
0.00912478
0.00418646
0.00274094
0.00126416
0.000241238
0.00142847
0.00239854
0.00304551
0.00370545
0.00405234
0.0037435
0.00369892
0.00332528
0.0026423
0.0016279
0.000538901
0.000761606
0.00249777
0.00412809
0.00577235
0.00732545
0.00291152
0.00182008
0.000896709
0.00010364
0.00123772
0.0018842
0.00241787
0.00260762
0.00270958
0.00297688
0.00253985
0.00241009
0.0018371
0.00137869
0.000572924
0.000582692
0.00150495
0.00313543
0.00431017
0.00548757
0.00164987
0.00106754
0.000620653
7.2384e-05
0.000623993
0.00113618
0.00132649
0.0015443
0.00166652
0.00160808
0.00178837
0.00146936
0.00125876
0.000908431
0.000316587
0.00025082
0.000965517
0.00157005
0.00281472
0.00342246
0.000802653
0.000391322
0.000245753
3.61545e-05
0.00033126
0.000354985
0.000398486
0.000557002