/*--------------------------------*- C++ -*----------------------------------*\
| =========                 |                                                 |
| \\      /  F ield         | OpenFOAM: The Open Source CFD Toolbox           |
|  \\    /   O peration     | Version:  2212                                  |
|   \\  /    A nd           | Website:  www.openfoam.com                      |
|    \\/     M anipulation  |                                                 |
\*---------------------------------------------------------------------------*/
FoamFile
{
    version     2.0;
    format      ascii;
    arch        "LSB;label=32;scalar=64";
    class       volScalarField;
    location    "./ITHACAoutput/true/9.6";
    object      error;
}
// * * * * * * * * * * * * * * * * * * * * * * * * * * * * * * * * * * * * * //

dimensions      [0 0 0 1 0 0 0];

internalField   nonuniform List<scalar> 
3200
(
0.596838
0.363706
0.187612
0.0157848
0.0934907
0.240888
0.425579
0.622683
0.827279
0.916972
0.990298
0.89282
0.819713
0.592189
0.458112
0.381941
0.291812
0.415664
0.646881
0.936493
0.457696
0.2974
0.0185192
0.0408604
0.0815956
0.158838
0.267246
0.47241
0.756219
0.772
0.797226
0.769965
0.670934
0.506737
0.287363
0.286102
0.256561
0.372125
0.587713
0.79322
0.382047
0.158625
0.0840509
-0.0500963
0.051885
0.156078
0.217047
0.400257
0.543461
0.584498
0.620708
0.583801
0.511063
0.294887
0.314312
0.230597
0.201676
0.335477
0.462527
0.623931
0.277741
0.105194
0.0263862
-0.0498113
0.00204684
0.0415477
0.203426
0.341886
0.406621
0.438202
0.538153
0.508054
0.426601
0.281288
0.19939
0.209356
0.201909
0.216202
0.349818
0.563217
0.191641
0.0773036
0.0203762
0.0549656
0.0208926
0.0477362
0.0764163
0.21597
0.277707
0.401653
0.416117
0.366283
0.345113
0.246392
0.197941
0.0715459
0.152594
0.178717
0.30582
0.437512
0.162119
0.12252
-0.00371028
-0.0239868
-0.00344689
0.0160678
0.151538
0.211146
0.284656
0.259199
0.326954
0.212049
0.236457
0.168622
0.0988969
0.173607
0.0887103
0.191541
0.138278
0.341469
0.159904
0.000320189
-0.0589335
-0.0745211
-0.0256621
0.00547941
0.0550506
0.0945072
0.120369
0.171036
0.173821
0.201757
0.071399
0.131609
0.110913
0.0707005
0.0601075
0.100465
0.110167
0.176348
0.0764339
0.0355639
-0.0177002
-0.0251156
-0.0856885
0.0276771
0.00747053
0.0232404
0.0140109
0.0407237
0.0721967
0.0685425
0.0252234
0.0412186
0.00202733
-0.0154457
-0.0168212
0.0245906
0.0135884
0.0980393
-0.325749
-0.563277
-0.817043
-0.962365
-0.854037
-0.800311
-0.636341
-0.451287
-0.283707
-0.121609
-0.157134
-0.159524
-0.305354
-0.442572
-0.590288
-0.681476
-0.643099
-0.506456
-0.2251
0.015189
-0.232127
-0.463514
-0.623852
-0.724958
-0.707809
-0.725151
-0.458717
-0.33121
-0.197099
-0.0572611
-0.078021
-0.151465
-0.183856
-0.321597
-0.444978
-0.506824
-0.500509
-0.376144
-0.212463
0.108442
-0.193122
-0.390902
-0.557208
-0.618739
-0.613332
-0.601411
-0.481451
-0.26188
-0.199241
-0.00843914
0.041267
-0.107518
-0.217229
-0.272177
-0.430057
-0.415926
-0.405937
-0.265332
-0.187544
-0.017731
-0.16058
-0.240113
-0.396919
-0.51529
-0.506084
-0.394762
-0.318966
-0.254532
-0.10282
-0.0503274
-0.0881872
-0.00906411
-0.159622
-0.245921
-0.291057
-0.337711
-0.345488
-0.227784
-0.0507791
0.0129591
-0.110769
-0.212386
-0.340024
-0.367082
-0.328791
-0.400146
-0.246764
-0.18187
-0.09813
-0.0506147
-0.0388844
0.0582502
-0.0489873
-0.196486
-0.169049
-0.299307
-0.204015
-0.166367
-0.054751
0.118974
-0.0865235
-0.219704
-0.221738
-0.251718
-0.254148
-0.246266
-0.183893
-0.160292
-0.0691774
0.0336966
-0.044566
-0.0180493
-0.0979368
-0.14922
-0.160411
-0.220862
-0.126323
-0.104782
-0.0754277
0.040384
-0.0418202
-0.0936046
-0.147521
-0.188948
-0.159351
-0.0802685
-0.150464
-0.122823
-0.0512798
-0.0135386
-0.000520807
-0.0256955
-0.119308
-0.101165
-0.0635153
-0.123042
-0.118749
-0.0522061
-0.0345561
0.024542
-0.00822293
-0.0174002
-0.0215407
-0.0306459
-0.0804521
-0.0786332
0.0143908
-0.0498032
0.0180681
0.046357
-0.00510687
-0.0400597
-0.0612139
-0.0164329
-0.0797795
-0.0323779
-0.0664929
-0.0180144
0.0233291
0.0066378
-1.33129
-1.71832
-1.94353
-2.07809
-2.1144
-2.08751
-1.87147
-1.75507
-1.58328
-1.53115
-1.50689
-1.51702
-1.68701
-1.7626
-1.91105
-1.90513
-1.89782
-1.59037
-1.3224
-1.11229
-1.11211
-1.40223
-1.62936
-1.7652
-1.84109
-1.69236
-1.5973
-1.47078
-1.30333
-1.2443
-1.26647
-1.31865
-1.38348
-1.46148
-1.59419
-1.58446
-1.51484
-1.43218
-1.12455
-0.876439
-0.903173
-1.10292
-1.33138
-1.40211
-1.50739
-1.40874
-1.32159
-1.22861
-1.14688
-1.02072
-1.03629
-1.03425
-1.15235
-1.18314
-1.2985
-1.29182
-1.32679
-1.13163
-0.941223
-0.692837
-0.751654
-0.965085
-1.10447
-1.15265
-1.21119
-1.14321
-1.05822
-0.971649
-0.920546
-0.864353
-0.88236
-0.798183
-0.889193
-1.00313
-1.02953
-1.01556
-1.04551
-0.930048
-0.77579
-0.580115
-0.611057
-0.738957
-0.835524
-0.839198
-0.947297
-0.833773
-0.825867
-0.764329
-0.719026
-0.673812
-0.581246
-0.600801
-0.71329
-0.792817
-0.769187
-0.770074
-0.742926
-0.656168
-0.58557
-0.448716
-0.389718
-0.510336
-0.578714
-0.659998
-0.720215
-0.718465
-0.613482
-0.518115
-0.482023
-0.520314
-0.49399
-0.42766
-0.520532
-0.54571
-0.498275
-0.512538
-0.577749
-0.501649
-0.455165
-0.321048
-0.243891
-0.284721
-0.308787
-0.345033
-0.365766
-0.302606
-0.354937
-0.30434
-0.246285
-0.269071
-0.313739
-0.240057
-0.332919
-0.327302
-0.262795
-0.361792
-0.371303
-0.295906
-0.222222
-0.122715
-0.0658121
-0.136862
-0.102439
-0.114893
-0.0899011
-0.147129
-0.133883
-0.153867
-0.149275
-0.0365546
-0.0539035
-0.126903
-0.105607
-0.117549
-0.106447
-0.100625
-0.023949
-0.0788246
-0.0752436
-0.133556
-2.39787
-2.71405
-2.99849
-3.26891
-3.28267
-3.3032
-3.18804
-3.11914
-3.01217
-2.93463
-2.90179
-2.96954
-3.01538
-3.0851
-3.22524
-3.26744
-3.08927
-2.81218
-2.55047
-2.20555
-2.01414
-2.33983
-2.59786
-2.73745
-2.83858
-2.8138
-2.78586
-2.57567
-2.54378
-2.48619
-2.41637
-2.46349
-2.55795
-2.60683
-2.70814
-2.71569
-2.61446
-2.44215
-2.13156
-1.84956
-1.63881
-1.92804
-2.16771
-2.28786
-2.36804
-2.33428
-2.29842
-2.22023
-2.0877
-2.09111
-2.10533
-2.07412
-2.14336
-2.21693
-2.23508
-2.21311
-2.15311
-1.94831
-1.75109
-1.56138
-1.33425
-1.56199
-1.72641
-1.87734
-1.88853
-1.95724
-1.87991
-1.80654
-1.71536
-1.6361
-1.61696
-1.66269
-1.68507
-1.76807
-1.76362
-1.76994
-1.73553
-1.58544
-1.39078
-1.22581
-1.01122
-1.22671
-1.32886
-1.32688
-1.50851
-1.46221
-1.49532
-1.31633
-1.35575
-1.2941
-1.21022
-1.26596
-1.3713
-1.35398
-1.38713
-1.3718
-1.33096
-1.14486
-1.11187
-0.898331
-0.74634
-0.765279
-1.00682
-1.07972
-1.01659
-1.01134
-1.00565
-0.98979
-0.97465
-0.873305
-0.957279
-0.899323
-0.965646
-1.02039
-1.00183
-0.957171
-0.910534
-0.84402
-0.766498
-0.649747
-0.437294
-0.466531
-0.567918
-0.662121
-0.620114
-0.581209
-0.55729
-0.539675
-0.565404
-0.530234
-0.593432
-0.559238
-0.57764
-0.571773
-0.651965
-0.630696
-0.592431
-0.526082
-0.482548
-0.425931
-0.0856311
-0.153568
-0.246937
-0.178472
-0.209716
-0.224965
-0.267759
-0.129268
-0.214002
-0.189248
-0.143847
-0.127681
-0.185015
-0.228405
-0.159727
-0.247328
-0.190695
-0.153741
-0.12617
-0.0468
-3.31361
-3.73697
-4.12896
-4.29434
-4.49537
-4.51257
-4.50517
-4.38396
-4.33709
-4.29352
-4.26163
-4.30008
-4.32979
-4.41567
-4.43145
-4.41246
-4.26652
-3.91504
-3.56396
-3.16308
-2.83337
-3.20236
-3.48347
-3.71381
-3.78222
-3.86895
-3.85003
-3.74316
-3.70192
-3.56613
-3.59605
-3.63476
-3.70762
-3.722
-3.82936
-3.71429
-3.52639
-3.30376
-2.94823
-2.66558
-2.26619
-2.70092
-2.92446
-3.09806
-3.23678
-3.26591
-3.21798
-3.08963
-3.0724
-3.0541
-3.04697
-3.07998
-3.09493
-3.09412
-3.14017
-3.07715
-2.95039
-2.75298
-2.48116
-2.14821
-1.9107
-2.06648
-2.36547
-2.46178
-2.59758
-2.65565
-2.57928
-2.46196
-2.44644
-2.42752
-2.45394
-2.50365
-2.50375
-2.57364
-2.52115
-2.47702
-2.39512
-2.21418
-2.02661
-1.75024
-1.48905
-1.69083
-1.82002
-1.89135
-1.99329
-1.95574
-2.03164
-1.96338
-1.94553
-1.89396
-1.7714
-1.84628
-1.86808
-1.95254
-1.89111
-1.91346
-1.84596
-1.7578
-1.55822
-1.33989
-1.14231
-1.13042
-1.2773
-1.34173
-1.39341
-1.47427
-1.43735
-1.35157
-1.35534
-1.34658
-1.34126
-1.36902
-1.33488
-1.38119
-1.3925
-1.41115
-1.35268
-1.20512
-1.13359
-0.95554
-0.622669
-0.672711
-0.739809
-0.843953
-0.830273
-0.808198
-0.813791
-0.779624
-0.797921
-0.770826
-0.77325
-0.744243
-0.750246
-0.916834
-0.864405
-0.759867
-0.803666
-0.675706
-0.604986
-0.566465
-0.251877
-0.232619
-0.229912
-0.300717
-0.25742
-0.299552
-0.267495
-0.303007
-0.288874
-0.254289
-0.272991
-0.185793
-0.258811
-0.284167
-0.256048
-0.243164
-0.251908
-0.211516
-0.227193
-0.273963
-3.99684
-4.48317
-4.89557
-5.24812
-5.447
-5.57873
-5.56028
-5.56343
-5.53844
-5.425
-5.51335
-5.50228
-5.54476
-5.59584
-5.48286
-5.36476
-5.17509
-4.85639
-4.43816
-3.98616
-3.47845
-3.80925
-4.18774
-4.51749
-4.65653
-4.73284
-4.8298
-4.72546
-4.67977
-4.70543
-4.66458
-4.65465
-4.74181
-4.64428
-4.77083
-4.55039
-4.35508
-4.12739
-3.70635
-3.38378
-2.93132
-3.16912
-3.55361
-3.76474
-3.9024
-3.98145
-3.93674
-3.94875
-3.93489
-3.92219
-3.95975
-3.90929
-3.97216
-3.94767
-4.01893
-3.82351
-3.73314
-3.45573
-3.13399
-2.7882
-2.3688
-2.60109
-2.90679
-3.01609
-3.19809
-3.23848
-3.22051
-3.19358
-3.17889
-3.11438
-3.14088
-3.06587
-3.27641
-3.09191
-3.22939
-3.07726
-2.9007
-2.78021
-2.53269
-2.23875
-1.7868
-1.9655
-2.276
-2.30305
-2.42263
-2.5441
-2.48124
-2.55105
-2.37867
-2.43786
-2.38718
-2.42395
-2.37724
-2.48151
-2.44779
-2.38237
-2.25616
-2.08886
-1.97431
-1.73932
-1.33937
-1.45006
-1.58504
-1.71684
-1.75158
-1.70444
-1.76337
-1.80949
-1.73968
-1.7084
-1.73237
-1.71732
-1.67945
-1.72597
-1.76293
-1.64547
-1.63136
-1.52924
-1.39103
-1.1659
-0.770298
-0.831215
-0.943929
-0.989145
-1.01819
-1.06988
-1.06306
-1.03564
-1.03539
-1.02502
-0.990314
-1.05814
-0.95659
-1.04354
-1.03612
-0.998469
-1.02817
-0.904983
-0.845182
-0.630977
-0.307354
-0.343761
-0.358158
-0.349414
-0.323233
-0.352788
-0.313566
-0.362761
-0.284786
-0.394717
-0.377006
-0.28702
-0.338818
-0.290026
-0.331225
-0.308142
-0.320954
-0.316512
-0.30064
-0.250562
-4.6661
-5.17668
-5.59371
-6.05285
-6.34186
-6.51214
-6.53012
-6.5559
-6.5045
-6.51488
-6.54868
-6.48764
-6.50996
-6.50509
-6.41685
-6.27104
-5.98196
-5.61048
-5.10683
-4.52906
-3.96315
-4.31903
-4.88207
-5.18569
-5.40409
-5.53483
-5.56524
-5.59118
-5.64718
-5.57575
-5.59058
-5.51083
-5.59495
-5.54145
-5.5151
-5.35725
-5.14122
-4.83931
-4.33373
-3.91312
-3.31476
-3.72159
-4.05031
-4.34291
-4.5135
-4.59721
-4.67791
-4.72248
-4.71086
-4.64265
-4.68856
-4.6616
-4.61431
-4.63503
-4.59377
-4.52461
-4.28883
-3.97212
-3.61614
-3.24729
-2.68184
-2.96473
-3.24572
-3.54332
-3.71027
-3.74713
-3.81093
-3.85836
-3.82853
-3.75608
-3.75552
-3.77498
-3.76569
-3.72357
-3.67939
-3.58752
-3.49028
-3.17872
-2.87291
-2.61877
-2.08366
-2.27774
-2.59113
-2.66615
-2.81318
-2.92667
-2.90131
-2.97486
-2.90459
-2.95476
-2.99077
-2.90026
-2.88738
-2.92787
-2.85478
-2.79687
-2.65563
-2.45533
-2.26668
-2.0633
-1.48843
-1.61929
-1.81336
-1.84291
-1.93322
-2.08029
-2.1289
-2.12133
-2.10048
-2.12268
-2.0653
-2.02555
-2.09996
-2.09811
-2.11034
-1.93303
-1.89614
-1.69098
-1.5467
-1.49264
-0.871
-0.923981
-1.05526
-1.1453
-1.17518
-1.27747
-1.19756
-1.32429
-1.23308
-1.25206
-1.25853
-1.24787
-1.25859
-1.21577
-1.23582
-1.14342
-1.0665
-1.07406
-1.00581
-0.870869
-0.287041
-0.331078
-0.364075
-0.360956
-0.389987
-0.410999
-0.404014
-0.417467
-0.400095
-0.437337
-0.447718
-0.406284
-0.473209
-0.378648
-0.407952
-0.385599
-0.35125
-0.408243
-0.280155
-0.331517
-5.00435
-5.58982
-6.08665
-6.59539
-6.90336
-7.19584
-7.34876
-7.31197
-7.38383
-7.37787
-7.38584
-7.43369
-7.3234
-7.31069
-7.23282
-6.96396
-6.68308
-6.19103
-5.57946
-5.03472
-4.29354
-4.87284
-5.26272
-5.59237
-5.96607
-6.0682
-6.28888
-6.29289
-6.29682
-6.30991
-6.32245
-6.22578
-6.26608
-6.26758
-6.08555
-5.91931
-5.66853
-5.27134
-4.74801
-4.37444
-3.61156
-4.04009
-4.37051
-4.70678
-4.99199
-5.19393
-5.21775
-5.26436
-5.26652
-5.28944
-5.34081
-5.31819
-5.29646
-5.22561
-5.14236
-4.99593
-4.74904
-4.33377
-3.9275
-3.55428
-2.9412
-3.24613
-3.54349
-3.90236
-4.09019
-4.15667
-4.30233
-4.28339
-4.29087
-4.27227
-4.34325
-4.23105
-4.2274
-4.25005
-4.11291
-4.00796
-3.81206
-3.55835
-3.19732
-2.88873
-2.31881
-2.51337
-2.77218
-2.96421
-3.17298
-3.29941
-3.24615
-3.31653
-3.32699
-3.30147
-3.31759
-3.27508
-3.28432
-3.26268
-3.16044
-3.13113
-2.97353
-2.71633
-2.49092
-2.15269
-1.59188
-1.73804
-1.86514
-2.16997
-2.20163
-2.26116
-2.33628
-2.32635
-2.37215
-2.39359
-2.39023
-2.39534
-2.39595
-2.26498
-2.33869
-2.2229
-2.13273
-1.99943
-1.70931
-1.61313
-1.00111
-1.06828
-1.16779
-1.24831
-1.28283
-1.3964
-1.39651
-1.41144
-1.46536
-1.47099
-1.42034
-1.42004
-1.41071
-1.41362
-1.34589
-1.33524
-1.28307
-1.20609
-1.08169
-0.971427
-0.36735
-0.395096
-0.42089
-0.427528
-0.41723
-0.5121
-0.502138
-0.43784
-0.466454
-0.451173
-0.492982
-0.511329
-0.452727
-0.441973
-0.4614
-0.459761
-0.467972
-0.428159
-0.338078
-0.301612
-5.16287
-5.79457
-6.44745
-6.97078
-7.4172
-7.64674
-7.92224
-8.03679
-8.04754
-8.0058
-8.09664
-8.03995
-7.98846
-7.86105
-7.68991
-7.42948
-7.12733
-6.5351
-5.86102
-5.32423
-4.42613
-4.95407
-5.51714
-5.97336
-6.29531
-6.52923
-6.73901
-6.8023
-6.90137
-6.8651
-6.93579
-6.86518
-6.88102
-6.76026
-6.66186
-6.39039
-5.97181
-5.65368
-5.02662
-4.47106
-3.73671
-4.13524
-4.6036
-5.01129
-5.30038
-5.504
-5.68286
-5.74925
-5.72077
-5.77653
-5.77224
-5.85581
-5.68573
-5.62896
-5.54495
-5.25241
-4.97506
-4.59542
-4.19482
-3.77833
-3.02572
-3.42697
-3.7277
-4.10439
-4.303
-4.55743
-4.57301
-4.67045
-4.68624
-4.686
-4.71598
-4.74555
-4.63137
-4.55264
-4.47302
-4.32525
-4.06436
-3.71695
-3.41304
-2.99255
-2.34448
-2.62225
-2.87509
-3.13112
-3.30525
-3.48605
-3.52801
-3.56227
-3.6545
-3.59695
-3.51964
-3.61195
-3.57142
-3.49349
-3.41475
-3.28419
-3.14332
-2.9445
-2.5678
-2.38137
-1.66995
-1.87874
-2.04934
-2.22631
-2.37857
-2.48806
-2.49685
-2.56734
-2.55519
-2.58211
-2.5638
-2.5935
-2.49075
-2.50177
-2.42364
-2.35143
-2.24759
-2.03337
-1.89009
-1.63611
-0.955995
-1.15326
-1.20394
-1.35411
-1.39526
-1.54714
-1.48572
-1.51761
-1.54973
-1.54928
-1.58297
-1.56824
-1.54688
-1.53156
-1.49656
-1.41373
-1.26478
-1.20874
-1.09262
-0.998985
-0.305863
-0.313713
-0.371195
-0.408429
-0.450647
-0.457471
-0.524747
-0.46112
-0.490333
-0.564913
-0.465443
-0.544155
-0.506545
-0.516553
-0.492409
-0.495023
-0.428651
-0.454209
-0.393096
-0.341788
-5.12247
-5.8159
-6.58644
-7.11513
-7.59375
-7.87113
-8.1766
-8.34978
-8.48662
-8.5141
-8.48631
-8.47159
-8.45135
-8.24348
-8.03955
-7.69898
-7.30349
-6.63353
-6.07666
-5.28264
-4.41095
-4.95243
-5.64917
-6.16724
-6.47201
-6.79592
-6.91314
-7.10579
-7.19115
-7.2105
-7.24202
-7.17931
-7.20784
-7.11051
-6.80425
-6.57903
-6.19425
-5.73021
-5.15498
-4.54232
-3.64181
-4.10193
-4.71592
-5.0573
-5.5174
-5.69765
-5.85567
-6.00998
-6.06909
-6.07415
-6.11351
-6.11359
-6.06064
-5.84152
-5.72709
-5.5
-5.19123
-4.66877
-4.26214
-3.80011
-3.01464
-3.34007
-3.75833
-4.1694
-4.38311
-4.59345
-4.78602
-4.84665
-4.95324
-4.91262
-4.88323
-4.93038
-4.91064
-4.85667
-4.64673
-4.44586
-4.09877
-3.80732
-3.40807
-3.07843
-2.37881
-2.61436
-2.9182
-3.21876
-3.38878
-3.55614
-3.69296
-3.80298
-3.84969
-3.8157
-3.87487
-3.81145
-3.73779
-3.72136
-3.55419
-3.48328
-3.30493
-2.97685
-2.66034
-2.37106
-1.6067
-1.8299
-2.06397
-2.2339
-2.45398
-2.57083
-2.60897
-2.64606
-2.68867
-2.65514
-2.74653
-2.69966
-2.68271
-2.62796
-2.53951
-2.49643
-2.32494
-2.07929
-1.81731
-1.64411
-0.983845
-1.13562
-1.20968
-1.31447
-1.35239
-1.49629
-1.57958
-1.66405
-1.61674
-1.61673
-1.61542
-1.55822
-1.57493
-1.60419
-1.59281
-1.45933
-1.36526
-1.25389
-1.12986
-0.964422
-0.276129
-0.383043
-0.389458
-0.49402
-0.420689
-0.52056
-0.497272
-0.480118
-0.490198
-0.559716
-0.522422
-0.544721
-0.534097
-0.483005
-0.569028
-0.534255
-0.436941
-0.3753
-0.340795
-0.376951
-4.93539
-5.52386
-6.45828
-7.0846
-7.60468
-8.00492
-8.31105
-8.50978
-8.5925
-8.72567
-8.73529
-8.76876
-8.49277
-8.38813
-8.12007
-7.7711
-7.20902
-6.57192
-5.87736
-5.07213
-4.265
-4.75863
-5.41998
-6.04254
-6.49002
-6.85798
-7.13623
-7.24079
-7.43146
-7.40175
-7.4902
-7.47918
-7.3024
-7.10945
-6.93541
-6.65942
-6.23005
-5.554
-4.96101
-4.366
-3.46749
-4.0221
-4.48028
-5.0489
-5.41006
-5.69801
-5.96824
-6.13782
-6.24078
-6.25383
-6.32558
-6.21886
-6.15727
-6.07707
-5.81844
-5.55451
-5.11905
-4.69569
-4.14206
-3.65495
-2.88482
-3.2338
-3.72005
-4.06536
-4.39594
-4.67462
-4.78901
-4.94065
-5.01773
-5.05116
-5.06712
-5.06143
-4.947
-4.84739
-4.69925
-4.48259
-4.16658
-3.72886
-3.35437
-2.94168
-2.2207
-2.45491
-2.86068
-3.15013
-3.40817
-3.61161
-3.67193
-3.81
-3.93336
-3.87225
-3.90418
-3.92454
-3.88861
-3.75985
-3.52662
-3.52895
-3.19802
-2.9165
-2.59216
-2.31561
-1.44873
-1.75828
-2.03953
-2.22974
-2.46276
-2.55301
-2.65743
-2.68966
-2.80458
-2.82628
-2.765
-2.77
-2.67525
-2.65533
-2.66818
-2.45921
-2.28861
-1.99716
-1.8121
-1.57696
-0.945999
-1.05946
-1.28133
-1.3462
-1.51749
-1.559
-1.6066
-1.6978
-1.68512
-1.73268
-1.64434
-1.63251
-1.64892
-1.56927
-1.54578
-1.43717
-1.34755
-1.16731
-1.05306
-0.863849
-0.341558
-0.392398
-0.401056
-0.438776
-0.436536
-0.441372
-0.518992
-0.495189
-0.517004
-0.542081
-0.578239
-0.574844
-0.635988
-0.509314
-0.553518
-0.477496
-0.463565
-0.370377
-0.325979
-0.287826
-4.40196
-5.16243
-6.02312
-6.79772
-7.34286
-7.82114
-8.19095
-8.39039
-8.52942
-8.6334
-8.7129
-8.63984
-8.52095
-8.28515
-7.98118
-7.54505
-6.97578
-6.25783
-5.51124
-4.7172
-3.79804
-4.47168
-5.16413
-5.79212
-6.36043
-6.71411
-7.01851
-7.27905
-7.33557
-7.42737
-7.44073
-7.43099
-7.35446
-7.1013
-6.81495
-6.41564
-5.89909
-5.36716
-4.61202
-3.99661
-3.15971
-3.66078
-4.23724
-4.82124
-5.22711
-5.56564
-5.84568
-6.02934
-6.17718
-6.2921
-6.15805
-6.23345
-6.03779
-5.95444
-5.68377
-5.32005
-5.01922
-4.37357
-3.90064
-3.32713
-2.56931
-2.99234
-3.41824
-3.90405
-4.22499
-4.53693
-4.75243
-4.89492
-4.99567
-5.14091
-5.02594
-5.02416
-4.86098
-4.79884
-4.57077
-4.40422
-3.93836
-3.62224
-3.0803
-2.68773
-1.93723
-2.22672
-2.65301
-3.00953
-3.2878
-3.50115
-3.55813
-3.7153
-3.8714
-3.90212
-3.87582
-3.86329
-3.83171
-3.70342
-3.51839
-3.37155
-3.10747
-2.70265
-2.40791
-2.04812
-1.35342
-1.57186
-1.86915
-2.14852
-2.33404
-2.50023
-2.62906
-2.71354
-2.71389
-2.76582
-2.72559
-2.80686
-2.73718
-2.68669
-2.45135
-2.36894
-2.21708
-1.934
-1.66772
-1.43958
-0.788204
-0.945498
-1.13172
-1.244
-1.40567
-1.44362
-1.54198
-1.59832
-1.672
-1.62209
-1.68358
-1.6184
-1.578
-1.55788
-1.46016
-1.4385
-1.28967
-1.14423
-1.06693
-0.841351
-0.256366
-0.320577
-0.380147
-0.481391
-0.45885
-0.492353
-0.52011
-0.6065
-0.552097
-0.548261
-0.58629
-0.557852
-0.483158
-0.550215
-0.449825
-0.50139
-0.415709
-0.353638
-0.341471
-0.287689
-3.68784
-4.62006
-5.4162
-6.17842
-6.82927
-7.38452
-7.79499
-8.00279
-8.31936
-8.37773
-8.39572
-8.38073
-8.16886
-7.92485
-7.60296
-7.13761
-6.47451
-5.74424
-4.90975
-3.98446
-3.14614
-3.85029
-4.6388
-5.28962
-5.90753
-6.25745
-6.67177
-6.84584
-7.03659
-7.16271
-7.2111
-7.17409
-7.01381
-6.80387
-6.45018
-6.11963
-5.51902
-4.87909
-4.08671
-3.49584
-2.62081
-3.17072
-3.81336
-4.44265
-4.87964
-5.23248
-5.64739
-5.78295
-5.89293
-5.94476
-6.00243
-5.93799
-5.8464
-5.62944
-5.35051
-5.06
-4.59574
-4.15098
-3.4194
-2.89367
-2.07634
-2.58764
-3.07985
-3.52745
-3.91047
-4.26464
-4.48097
-4.627
-4.76096
-4.85009
-4.85829
-4.80329
-4.77171
-4.53531
-4.3638
-4.0446
-3.6758
-3.23305
-2.77891
-2.29381
-1.61545
-1.93743
-2.38886
-2.75101
-3.08482
-3.29033
-3.53104
-3.62655
-3.68786
-3.75706
-3.74744
-3.71405
-3.63697
-3.54081
-3.327
-3.14047
-2.78938
-2.4996
-2.06179
-1.74867
-1.18368
-1.43154
-1.65583
-1.94645
-2.18231
-2.32011
-2.49969
-2.54223
-2.63437
-2.70321
-2.64616
-2.63371
-2.57823
-2.54662
-2.38561
-2.19713
-1.97476
-1.76338
-1.48734
-1.27686
-0.679493
-0.832832
-1.01644
-1.05582
-1.30472
-1.48276
-1.5298
-1.55528
-1.61572
-1.58713
-1.58677
-1.60976
-1.58453
-1.53981
-1.404
-1.3861
-1.18866
-1.01905
-0.911856
-0.763097
-0.256179
-0.294869
-0.304014
-0.423314
-0.448147
-0.471312
-0.473871
-0.500588
-0.525674
-0.532825
-0.546493
-0.578662
-0.509836
-0.513461
-0.494935
-0.458261
-0.386659
-0.378676
-0.289919
-0.327558
-2.6514
-3.61204
-4.54473
-5.35113
-6.06062
-6.74659
-7.16544
-7.40784
-7.63117
-7.78778
-7.82363
-7.79844
-7.58355
-7.34329
-6.96036
-6.4439
-5.67233
-4.94657
-4.00842
-3.1193
-2.25526
-3.02423
-3.82193
-4.52192
-5.13305
-5.70506
-6.07653
-6.37534
-6.55249
-6.65574
-6.73586
-6.59835
-6.50271
-6.15419
-5.91344
-5.44978
-4.76497
-4.14381
-3.35354
-2.62386
-1.85926
-2.52341
-3.20416
-3.81922
-4.32793
-4.73916
-5.08532
-5.28096
-5.4763
-5.63141
-5.59493
-5.58296
-5.42116
-5.11004
-4.9133
-4.4867
-4.05186
-3.42732
-2.812
-2.17536
-1.54379
-2.04573
-2.56536
-3.12141
-3.52849
-3.91556
-4.11223
-4.35315
-4.39572
-4.53637
-4.49632
-4.44503
-4.37893
-4.21671
-3.96348
-3.62515
-3.24474
-2.73315
-2.22304
-1.75879
-1.12146
-1.4953
-1.92342
-2.3373
-2.72121
-2.95207
-3.12834
-3.30742
-3.41597
-3.44017
-3.48985
-3.47497
-3.43723
-3.29237
-3.0858
-2.79385
-2.47964
-2.1197
-1.70706
-1.30645
-0.794727
-1.06462
-1.3934
-1.72274
-1.85946
-2.11121
-2.28039
-2.38327
-2.5016
-2.49374
-2.50686
-2.44313
-2.4121
-2.2792
-2.1595
-2.00999
-1.78023
-1.42966
-1.18524
-0.986134
-0.440806
-0.666801
-0.774935
-1.00063
-1.12846
-1.23142
-1.43188
-1.41721
-1.48569
-1.44463
-1.48996
-1.49454
-1.36078
-1.36579
-1.3564
-1.14421
-1.00465
-0.848089
-0.762289
-0.490492
-0.163268
-0.263618
-0.291761
-0.332149
-0.407179
-0.445254
-0.525226
-0.560399
-0.474279
-0.575611
-0.55788
-0.469467
-0.495523
-0.475021
-0.421024
-0.437647
-0.336954
-0.336857
-0.190811
-0.167775
-1.52219
-2.39826
-3.47167
-4.31098
-5.09581
-5.74516
-6.1864
-6.56901
-6.81707
-6.94275
-7.02931
-6.93134
-6.69917
-6.38758
-5.98463
-5.41715
-4.69178
-3.8881
-2.90617
-2.04928
-1.30145
-2.02334
-2.90851
-3.66152
-4.32263
-4.80346
-5.37144
-5.55509
-5.76891
-5.93118
-5.96532
-5.93048
-5.74115
-5.47021
-5.07145
-4.50921
-3.97177
-3.21937
-2.38175
-1.6865
-1.06249
-1.66786
-2.36671
-2.9506
-3.55334
-3.97707
-4.3753
-4.63792
-4.79926
-4.8853
-4.92471
-4.89534
-4.77729
-4.48356
-4.17458
-3.7536
-3.30064
-2.64553
-1.97877
-1.3562
-0.815496
-1.33185
-1.87456
-2.39093
-2.81753
-3.1876
-3.60392
-3.80136
-3.91763
-3.97344
-3.99926
-3.88618
-3.81524
-3.64172
-3.3965
-3.06064
-2.65931
-2.05845
-1.60951
-1.06556
-0.611953
-0.926414
-1.40069
-1.84399
-2.2435
-2.48073
-2.70511
-2.90766
-2.94691
-3.04164
-3.02405
-3.08596
-2.9436
-2.69079
-2.57039
-2.36992
-2.01473
-1.5362
-1.17955
-0.802082
-0.351135
-0.622763
-1.01008
-1.31842
-1.47101
-1.75911
-1.91169
-2.02545
-2.15635
-2.19849
-2.15589
-2.17603
-2.0356
-2.00323
-1.80666
-1.6785
-1.32463
-1.13411
-0.804268
-0.596833
-0.213945
-0.43367
-0.652666
-0.829903
-0.916201
-1.10791
-1.1673
-1.23844
-1.3912
-1.35358
-1.29197
-1.27269
-1.24822
-1.24185
-1.11341
-0.933032
-0.830502
-0.716865
-0.448343
-0.353683
-0.140431
-0.0960616
-0.214622
-0.278479
-0.26035
-0.371699
-0.414859
-0.418327
-0.340222
-0.47786
-0.409704
-0.415624
-0.400278
-0.31927
-0.333448
-0.337106
-0.315532
-0.221425
-0.132511
-0.0583565
-0.020098
-1.03295
-2.09872
-3.02016
-3.77979
-4.52524
-5.05595
-5.40855
-5.68517
-5.84219
-5.87117
-5.89449
-5.67174
-5.2946
-4.74108
-4.22906
-3.49959
-2.50014
-1.5427
-0.642816
-0.00654385
-0.809845
-1.7201
-2.47662
-3.20915
-3.7944
-4.24737
-4.55099
-4.78293
-4.98299
-5.03124
-4.96884
-4.76656
-4.53544
-3.99673
-3.52301
-2.85642
-2.0634
-1.21746
-0.443106
0.0697606
-0.622986
-1.35347
-2.07338
-2.63576
-3.11474
-3.59449
-3.86686
-4.10529
-4.07937
-4.16532
-4.08957
-3.96581
-3.72128
-3.336
-2.90829
-2.33899
-1.66894
-0.941455
-0.301244
0.107173
-0.481948
-1.02453
-1.57926
-2.18297
-2.5542
-2.76269
-3.07985
-3.19052
-3.29047
-3.31034
-3.30397
-3.14768
-2.94602
-2.68002
-2.33819
-1.85815
-1.26664
-0.809984
-0.225871
0.0813317
-0.309868
-0.813135
-1.25045
-1.64633
-1.90716
-2.16874
-2.42508
-2.52608
-2.55877
-2.55052
-2.52404
-2.37119
-2.25285
-2.01641
-1.72808
-1.41604
-0.985049
-0.569342
-0.140712
0.0690945
-0.181149
-0.533446
-0.890444
-1.11981
-1.35334
-1.46456
-1.69048
-1.76155
-1.82964
-1.82726
-1.78076
-1.74719
-1.5571
-1.47941
-1.23157
-1.03092
-0.630032
-0.344898
-0.0996997
0.0533135
-0.116226
-0.312947
-0.570011
-0.696581
-0.849583
-0.896535
-1.06108
-1.06453
-1.04857
-1.03235
-1.08566
-1.06643
-0.93974
-0.795454
-0.671376
-0.57149
-0.419933
-0.182896
-0.0753248
0.0511895
-0.0553838
-0.136013
-0.173526
-0.20476
-0.281571
-0.335681
-0.277837
-0.276165
-0.320176
-0.396712
-0.335612
-0.327322
-0.350373
-0.302478
-0.211575
-0.267085
-0.133761
-0.104918
-0.070889
1.57747
0.611973
-0.482152
-1.48724
-2.30715
-3.05494
-3.63926
-4.02391
-4.34937
-4.60445
-4.53289
-4.45872
-4.25135
-3.83118
-3.41553
-2.72022
-1.9656
-1.01545
0.00843182
1.00788
1.4204
0.673609
-0.281007
-1.19197
-1.87817
-2.5435
-3.02703
-3.4405
-3.60644
-3.84128
-3.80067
-3.70019
-3.54352
-3.22839
-2.81491
-2.25397
-1.56459
-0.76641
0.0908251
0.943275
1.29673
0.629927
-0.223824
-0.902965
-1.57905
-2.0445
-2.50965
-2.81978
-3.02655
-3.2064
-3.13296
-3.07245
-2.89375
-2.62851
-2.30391
-1.77207
-1.25211
-0.54926
0.16693
0.904198
1.05785
0.503733
-0.137331
-0.702917
-1.19067
-1.65275
-1.99067
-2.24537
-2.3764
-2.50755
-2.4892
-2.48515
-2.30528
-2.18795
-1.76187
-1.4797
-0.946002
-0.423914
0.249888
0.729914
0.849791
0.393195
-0.00120544
-0.532397
-0.852215
-1.19818
-1.4842
-1.68873
-1.79036
-1.89983
-1.95262
-1.91672
-1.7778
-1.59025
-1.36031
-1.06212
-0.683685
-0.247393
0.242664
0.651893
0.682181
0.356645
0.00472037
-0.278449
-0.597318
-0.969077
-1.02804
-1.24105
-1.30628
-1.35413
-1.37715
-1.29399
-1.28705
-1.13971
-0.971447
-0.735198
-0.462916
-0.213974
0.193627
0.465876
0.375718
0.258468
0.0658766
-0.138669
-0.314126
-0.578006
-0.652414
-0.657858
-0.759985
-0.842134
-0.778502
-0.734674
-0.705295
-0.667417
-0.562971
-0.46591
-0.293509
-0.0143505
0.108279
0.266973
0.178102
0.0560891
0.0013519
-0.0890923
-0.142425
-0.19338
-0.214821
-0.197805
-0.279273
-0.252706
-0.324072
-0.187339
-0.269192
-0.251465
-0.19203
-0.178074
-0.101097
0.00397805
0.0797582
0.113857
3.42772
2.40061
1.26571
0.187461
-0.580397
-1.36789
-2.03157
-2.51929
-2.71688
-2.88952
-2.97479
-2.99131
-2.6639
-2.30667
-1.75102
-1.09125
-0.304774
0.740271
1.76476
2.71386
3.00196
2.18133
1.17646
0.305132
-0.47695
-1.07741
-1.64979
-2.02896
-2.29186
-2.47214
-2.42647
-2.42153
-2.20072
-1.84525
-1.40638
-0.797504
-0.161945
0.719378
1.7002
2.4426
2.62917
1.91518
1.07725
0.350224
-0.311919
-0.815687
-1.22749
-1.63533
-1.86337
-1.97838
-2.02207
-1.92756
-1.77325
-1.49986
-1.15879
-0.62214
0.00138417
0.710008
1.52622
2.13379
2.17997
1.6271
0.911161
0.358405
-0.168209
-0.586319
-0.94766
-1.26383
-1.4169
-1.55911
-1.68696
-1.53795
-1.385
-1.19596
-0.875235
-0.517735
0.00502564
0.623689
1.22518
1.82018
1.73036
1.26482
0.764881
0.283815
-0.124835
-0.493759
-0.767998
-0.996062
-1.14896
-1.22629
-1.28096
-1.12258
-1.04501
-0.817987
-0.600651
-0.276312
0.0485356
0.496379
0.989711
1.45166
1.21202
0.956185
0.547275
0.255977
-0.069838
-0.239637
-0.587479
-0.649952
-0.75234
-0.816277
-0.845201
-0.731155
-0.796071
-0.642443
-0.460122
-0.231137
0.0121966
0.362913
0.808684
1.06967
0.713229
0.564132
0.306065
0.147952
-0.074806
-0.220836
-0.239449
-0.385637
-0.471029
-0.47011
-0.496271
-0.488477
-0.444808
-0.356443
-0.249529
-0.122486
-0.0150684
0.320962
0.366869
0.62578
0.327497
0.191876
0.0887089
0.076489
0.06532
-0.055975
-0.116525
-0.151867
-0.204556
-0.125059
-0.145031
-0.217624
-0.169769
-0.123373
-0.0497019
-0.0700586
-0.0637402
0.0588588
0.151997
0.199832
5.26003
4.23123
3.07848
2.06142
1.06725
0.234381
-0.297177
-0.85985
-1.1059
-1.36835
-1.31511
-1.24344
-0.998308
-0.6309
-0.0814023
0.616514
1.49613
2.41072
3.52738
4.56822
4.67161
3.77902
2.73941
1.82309
1.01484
0.338837
-0.169763
-0.612834
-0.920504
-0.994956
-1.154
-1.00272
-0.77771
-0.45153
0.0705109
0.589447
1.36524
2.2223
3.09397
3.98792
3.98193
3.18701
2.3193
1.61475
0.924007
0.392541
-0.0608143
-0.456077
-0.659341
-0.825067
-0.909178
-0.808911
-0.673111
-0.305518
0.084567
0.571952
1.17666
1.94085
2.70766
3.48729
3.16547
2.64535
1.96605
1.32326
0.771002
0.369771
-0.0892364
-0.326136
-0.506241
-0.662294
-0.661088
-0.662092
-0.50322
-0.288595
0.0427202
0.552618
1.025
1.62652
2.22877
2.80582
2.49297
2.1207
1.53806
0.999579
0.550461
0.264894
-0.0194172
-0.287032
-0.339487
-0.519674
-0.489179
-0.466188
-0.298902
-0.11086
0.0600013
0.403065
0.759379
1.31296
1.78215
2.17898
1.72806
1.54984
1.12727
0.760699
0.466555
0.174592
-0.0560589
-0.19105
-0.278504
-0.299051
-0.290062
-0.281664
-0.233384
-0.142576
0.10193
0.335192
0.606479
0.846118
1.30004
1.53385
1.08777
0.927231
0.640444
0.497189
0.246134
0.103427
0.0621523
-0.106789
-0.193538
-0.149201
-0.193847
-0.171123
-0.186807
0.0117004
0.0508189
0.186471
0.373259
0.613453
0.800414
0.96771
0.37804
0.242189
0.225869
0.138871
0.110464
-0.0227911
0.036008
-0.0622856
-0.0652512
-0.0735539
-0.0722401
-0.0865579
-0.0622008
-0.0113994
-0.00186981
0.0657533
0.0835122
0.156222
0.273856
0.290303
6.86838
5.72044
4.52712
3.51317
2.56534
1.76678
1.08349
0.583289
0.23583
0.0400533
0.0321491
0.0577185
0.289091
0.770862
1.29595
2.00691
2.91783
3.9439
5.00433
6.04843
5.81439
5.00282
3.94386
2.97981
2.15173
1.50852
0.916462
0.542967
0.221792
-0.00919963
-0.0513221
0.117439
0.391676
0.650007
1.11106
1.74629
2.47344
3.41134
4.36072
5.2213
4.97657
4.17343
3.31161
2.5667
1.95944
1.24553
0.823376
0.480459
0.192841
0.0506782
-0.08557
0.10161
0.283338
0.626944
0.942579
1.5574
2.13274
2.89784
3.73371
4.41364
4.00293
3.40321
2.72481
2.02143
1.50059
1.03383
0.685685
0.314669
0.117447
0.0118203
0.039565
0.109937
0.235378
0.461944
0.800149
1.25062
1.7489
2.36983
3.10584
3.61182
3.19283
2.69501
2.11966
1.61727
1.13092
0.794373
0.533482
0.26913
0.110998
-0.0169403
-0.0593373
0.137195
0.214009
0.313126
0.610969
0.959031
1.40709
1.87938
2.29827
2.79163
2.19299
1.90152
1.5245
1.17197
0.903675
0.575463
0.418633
0.211154
0.0652908
0.0515698
-0.0398176
0.0133004
0.141147
0.22791
0.496557
0.702768
1.0196
1.31181
1.7241
1.99928
1.35172
1.13485
0.957789
0.662002
0.54995
0.404669
0.160838
0.084876
0.0529399
0.0519068
0.0116431