/*--------------------------------*- C++ -*----------------------------------*\
| =========                 |                                                 |
| \\      /  F ield         | OpenFOAM: The Open Source CFD Toolbox           |
|  \\    /   O peration     | Version:  2212                                  |
|   \\  /    A nd           | Website:  www.openfoam.com                      |
|    \\/     M anipulation  |                                                 |
\*---------------------------------------------------------------------------*/
FoamFile
{
    version     2.0;
    format      ascii;
    arch        "LSB;label=32;scalar=64";
    class       volScalarField;
    location    "0";
    object      stateMean;
}
// * * * * * * * * * * * * * * * * * * * * * * * * * * * * * * * * * * * * * //

dimensions      [0 0 0 1 0 0 0];

internalField   nonuniform List<scalar> 
3200
(
337.945
338.657
339.444
340.283
340.892
341.418
341.855
342.183
342.362
342.474
342.401
342.296
341.986
341.689
341.201
340.603
340.007
339.216
338.374
337.606
333.062
333.629
334.434
334.989
335.542
336.048
336.478
336.726
336.773
336.931
336.906
336.759
336.527
336.238
335.92
335.338
334.773
334.081
333.338
332.727
328.068
328.627
329.147
329.768
330.168
330.556
330.949
331.149
331.285
331.391
331.354
331.244
331.038
330.871
330.398
329.989
329.516
328.896
328.323
327.826
323.06
323.503
323.945
324.419
324.777
325.139
325.349
325.523
325.685
325.774
325.674
325.584
325.438
325.271
324.982
324.57
324.167
323.755
323.258
322.775
317.999
318.322
318.66
318.935
319.288
319.573
319.833
319.936
320.051
320.02
320.006
319.963
319.807
319.663
319.423
319.237
318.837
318.501
318.093
317.753
312.857
313.043
313.37
313.611
313.818
314.022
314.092
314.206
314.258
314.351
314.283
314.331
314.181
314.075
313.939
313.641
313.498
313.174
313.028
312.678
307.668
307.916
308.095
308.243
308.331
308.434
308.507
308.571
308.622
308.611
308.608
308.54
308.595
308.43
308.328
308.234
308.108
307.936
307.806
307.652
302.549
302.619
302.713
302.764
302.871
302.802
302.864
302.883
302.917
302.904
302.873
302.862
302.881
302.83
302.828
302.8
302.756
302.67
302.641
302.527
339.001
339.713
340.574
341.379
341.951
342.563
343.014
343.347
343.558
343.595
343.63
343.434
343.201
342.821
342.353
341.778
341.06
340.263
339.375
338.66
333.868
334.503
335.186
335.858
336.429
337.022
337.288
337.608
337.8
337.832
337.853
337.754
337.461
337.151
336.742
336.228
335.634
334.938
334.251
333.528
328.741
329.273
329.879
330.424
330.915
331.39
331.719
331.878
332.09
332.044
331.995
331.999
331.833
331.51
331.219
330.718
330.211
329.587
329.07
328.566
323.579
323.927
324.443
324.955
325.353
325.64
325.93
326.175
326.247
326.313
326.351
326.153
326.08
325.857
325.536
325.185
324.785
324.274
323.738
323.405
318.365
318.673
319.079
319.413
319.69
320.071
320.202
320.377
320.467
320.512
320.5
320.311
320.244
320.151
319.84
319.66
319.25
318.905
318.516
318.135
313.151
313.43
313.63
313.879
314.107
314.32
314.461
314.608
314.641
314.604
314.683
314.59
314.546
314.426
314.234
314.074
313.753
313.513
313.285
313.024
307.897
308.036
308.209
308.381
308.487
308.54
308.732
308.808
308.811
308.813
308.8
308.786
308.804
308.683
308.524
308.451
308.311
308.113
307.977
307.83
302.642
302.68
302.725
302.778
302.873
302.916
302.864
302.962
302.919
302.905
302.956
302.977
302.973
302.894
302.917
302.825
302.813
302.721
302.64
302.627
340.274
341.128
341.951
342.733
343.434
344.06
344.444
344.834
345.029
345.172
345.148
344.963
344.766
344.336
343.883
343.225
342.553
341.597
340.732
340.055
334.981
335.667
336.408
337.105
337.757
338.172
338.596
338.907
339.057
339.166
339.188
339.073
338.819
338.46
338.074
337.5
336.855
336.211
335.39
334.745
329.648
330.177
330.838
331.383
331.975
332.353
332.705
332.981
333.167
333.182
333.197
333.054
332.904
332.566
332.243
331.76
331.308
330.639
330.015
329.438
324.332
324.809
325.301
325.738
326.194
326.515
326.788
327.004
327.171
327.23
327.248
327.048
326.921
326.733
326.402
325.999
325.631
325.127
324.62
324.16
318.991
319.322
319.693
319.997
320.414
320.604
320.874
321.046
321.171
321.216
321.123
321.053
320.995
320.841
320.539
320.237
319.901
319.513
319.169
318.829
313.544
313.808
314.072
314.368
314.649
314.863
314.957
315.029
315.114
315.216
315.19
315.06
315.032
314.89
314.643
314.442
314.286
313.995
313.753
313.475
308.153
308.28
308.421
308.586
308.739
308.806
308.977
309.027
309.041
309.103
309.148
309.035
309.056
308.949
308.766
308.735
308.612
308.408
308.217
308.032
302.718
302.818
302.822
302.879
302.898
302.998
303.025
303.079
303.098
302.999
303.016
303.076
303.031
303.009
302.957
302.909
302.788
302.799
302.756
302.786
341.743
342.516
343.381
344.283
344.943
345.594
346.059
346.477
346.724
346.834
346.801
346.682
346.373
345.956
345.516
344.927
344.103
343.195
342.352
341.551
336.233
336.945
337.705
338.389
339.05
339.571
340.045
340.256
340.53
340.634
340.564
340.449
340.238
339.866
339.465
338.927
338.266
337.549
336.737
336.069
330.681
331.291
331.953
332.534
333.087
333.514
333.902
334.18
334.306
334.445
334.459
334.292
334.103
333.821
333.415
332.932
332.399
331.733
331.114
330.603
325.157
325.643
326.152
326.679
327.078
327.523
327.792
328.009
328.128
328.16
328.141
328.076
327.887
327.68
327.33
326.959
326.538
326.011
325.472
325.049
319.581
319.995
320.364
320.655
321.137
321.383
321.685
321.732
321.936
321.96
321.876
321.846
321.787
321.544
321.308
321
320.659
320.18
319.88
319.468
314.036
314.195
314.627
314.909
315.061
315.264
315.451
315.596
315.698
315.658
315.742
315.622
315.572
315.465
315.255
315.001
314.74
314.464
314.196
313.94
308.427
308.541
308.756
308.976
309.063
309.149
309.241
309.32
309.415
309.417
309.48
309.409
309.358
309.256
309.22
309.074
308.906
308.714
308.557
308.416
302.766
302.862
302.993
302.966
303.041
303.098
303.18
303.073
303.182
303.169
303.124
303.096
303.129
303.14
303.033
303.078
302.979
302.9
302.834
302.727
343.198
344.064
345.018
345.791
346.613
347.236
347.782
348.126
348.416
348.55
348.518
348.379
348.072
347.693
347.154
346.53
345.764
344.804
343.891
343.047
337.52
338.264
339.03
339.787
340.392
341.003
341.463
341.758
342.008
342.026
342.056
341.941
341.723
341.335
340.963
340.324
339.599
338.851
338.01
337.353
331.705
332.451
333.083
333.701
334.295
334.766
335.123
335.334
335.562
335.673
335.666
335.57
335.339
334.999
334.64
334.135
333.553
332.912
332.231
331.587
326.06
326.465
327.097
327.557
328.065
328.485
328.738
328.899
329.083
329.171
329.197
329.141
328.941
328.733
328.35
327.944
327.49
326.946
326.426
325.899
320.312
320.707
321.094
321.447
321.838
322.082
322.415
322.562
322.701
322.731
322.608
322.601
322.467
322.336
322.017
321.758
321.402
321.032
320.574
320.163
314.613
314.737
315.068
315.335
315.592
315.874
316.021
316.089
316.203
316.254
316.248
316.217
316.072
315.965
315.793
315.61
315.346
314.996
314.741
314.427
308.723
308.854
309.031
309.256
309.366
309.465
309.581
309.639
309.724
309.732
309.734
309.67
309.609
309.684
309.521
309.296
309.216
308.967
308.786
308.666
302.968
302.976
303.01
303.122
303.12
303.203
303.207
303.274
303.282
303.259
303.278
303.179
303.23
303.224
303.159
303.106
303.073
302.992
302.97
302.99
344.559
345.471
346.423
347.356
348.147
348.854
349.359
349.8
350.093
350.146
350.234
350.057
349.782
349.395
348.758
348.065
347.283
346.383
345.426
344.548
338.754
339.445
340.29
341.122
341.774
342.347
342.898
343.172
343.401
343.57
343.53
343.376
343.189
342.712
342.385
341.667
340.96
340.229
339.342
338.66
332.869
333.407
334.184
334.82
335.39
335.889
336.229
336.561
336.778
336.887
336.925
336.752
336.584
336.24
335.927
335.312
334.788
334.086
333.372
332.726
326.927
327.4
328.025
328.482
329.018
329.402
329.698
329.933
330.107
330.141
330.168
329.994
330.015
329.569
329.393
328.897
328.367
327.898
327.332
326.797
320.929
321.293
321.851
322.148
322.544
322.932
323.112
323.385
323.36
323.496
323.445
323.405
323.211
323.113
322.836
322.503
322.101
321.664
321.301
320.881
315.038
315.28
315.592
315.917
316.148
316.291
316.524
316.715
316.751
316.774
316.798
316.728
316.585
316.487
316.35
316.041
315.831
315.536
315.221
314.865
309.007
309.146
309.365
309.526
309.673
309.839
309.937
309.997
310.059
310.082
310.047
310.082
309.918
309.918
309.805
309.653
309.565
309.326
309.16
308.868
303.069
303.132
303.182
303.212
303.225
303.294
303.29
303.368
303.311
303.432
303.414
303.313
303.344
303.266
303.272
303.21
303.184
303.141
303.089
303.013
346.045
346.963
347.894
348.905
349.753
350.464
350.974
351.409
351.654
351.819
351.853
351.637
351.363
350.949
350.369
349.682
348.834
347.91
346.893
345.908
339.949
340.65
341.656
342.438
343.14
343.739
344.195
344.575
344.886
344.95
344.965
344.75
344.579
344.171
343.719
343.093
342.393
341.613
340.665
339.899
333.856
334.549
335.25
335.947
336.527
337.006
337.447
337.79
337.995
338.04
338.086
337.946
337.682
337.404
337.003
336.539
335.893
335.172
334.443
333.788
327.734
328.247
328.833
329.46
329.962
330.322
330.68
330.972
331.119
331.138
331.138
331.065
330.88
330.593
330.254
329.84
329.407
328.766
328.155
327.671
321.611
321.982
322.531
322.863
323.27
323.636
323.838
324.102
324.169
324.291
324.327
324.164
324.014
323.865
323.564
323.254
322.853
322.395
321.971
321.59
315.463
315.719
316.081
316.294
316.57
316.897
317.109
317.237
317.314
317.388
317.33
317.24
317.216
317.078
316.927
316.57
316.347
315.959
315.647
315.468
309.273
309.401
309.633
309.833
309.974
310.184
310.203
310.411
310.378
310.428
310.435
310.393
310.346
310.221
310.143
309.942
309.754
309.652
309.483
309.273
303.105
303.174
303.241
303.274
303.341
303.398
303.424
303.464
303.467
303.514
303.525
303.473
303.52
303.399
303.395
303.337
303.264
303.285
303.123
303.15
347.343
348.316
349.299
350.327
351.16
351.958
352.568
352.91
353.255
353.392
353.4
353.305
352.921
352.53
351.995
351.221
350.415
349.403
348.305
347.374
341.114
342.021
342.83
343.609
344.438
344.977
345.594
345.926
346.166
346.303
346.315
346.095
345.899
345.573
344.995
344.391
343.686
342.838
341.896
341.194
334.86
335.56
336.245
336.961
337.63
338.202
338.561
338.884
339.087
339.213
339.265
339.138
338.916
338.569
338.15
337.634
337.003
336.208
335.447
334.802
328.573
329.097
329.682
330.352
330.854
331.224
331.642
331.85
332.021
332.087
332.158
331.961
331.794
331.59
331.18
330.772
330.262
329.697
329.048
328.521
322.298
322.66
323.143
323.576
324.03
324.391
324.55
324.798
324.934
324.975
324.992
324.882
324.765
324.567
324.252
323.988
323.586
323.087
322.638
322.132
315.89
316.155
316.441
316.919
317.125
317.352
317.579
317.695
317.831
317.901
317.897
317.854
317.765
317.508
317.43
317.146
316.882
316.575
316.126
315.911
309.597
309.735
309.931
310.115
310.255
310.468
310.561
310.65
310.758
310.793
310.742
310.713
310.65
310.578
310.418
310.307
310.15
309.969
309.749
309.567
303.25
303.302
303.36
303.401
303.426
303.554
303.575
303.536
303.582
303.577
303.619
303.627
303.551
303.515
303.503
303.469
303.441
303.367
303.245
303.185
348.606
349.604
350.713
351.724
352.659
353.357
354.054
354.518
354.779
354.868
354.959
354.771
354.469
353.993
353.4
352.671
351.88
350.801
349.67
348.767
342.206
343.043
344.001
344.879
345.624
346.263
346.839
347.204
347.519
347.596
347.667
347.483
347.283
346.86
346.396
345.719
344.878
344.138
343.116
342.251
335.799
336.454
337.256
338.019
338.666
339.213
339.701
340.022
340.177
340.329
340.324
340.312
339.959
339.647
339.254
338.618
337.983
337.247
336.514
335.84
329.325
329.933
330.505
331.172
331.664
332.199
332.467
332.773
332.939
333.017
333.047
332.999
332.734
332.447
332.115
331.686
331.132
330.494
329.919
329.292
322.843
323.28
323.743
324.226
324.627
325.026
325.265
325.461
325.669
325.673
325.596
325.627
325.47
325.23
324.955
324.606
324.238
323.813
323.226
322.88
316.34
316.661
316.981
317.32
317.636
317.9
318.05
318.236
318.307
318.377
318.359
318.345
318.16
318.055
317.836
317.608
317.342
316.965
316.672
316.306
309.776
310.04
310.181
310.428
310.567
310.813
310.836
310.937
311.019
311.044
311.078
311.037
310.966
310.882
310.763
310.586
310.339
310.186
309.98
309.819
303.264
303.294
303.382
303.451
303.527
303.564
303.66
303.62
303.665
303.749
303.649
303.719
303.666
303.652
303.599
303.571
303.472
303.465
303.373
303.3
349.816
350.854
352.052
353.034
353.966
354.674
355.367
355.859
356.224
356.37
356.342
356.209
355.96
355.433
354.843
354.071
353.222
352.1
351.115
349.977
343.278
344.11
345.176
346.087
346.784
347.482
347.934
348.403
348.685
348.808
348.839
348.673
348.505
348.132
347.49
346.891
346.114
345.257
344.313
343.409
336.627
337.328
338.253
338.926
339.718
340.215
340.656
341.043
341.269
341.361
341.401
341.314
341.094
340.642
340.244
339.701
339.06
338.206
337.488
336.785
330.07
330.59
331.261
331.944
332.429
332.898
333.322
333.574
333.816
333.847
333.817
333.793
333.638
333.393
332.952
332.492
331.874
331.31
330.658
330.133
323.467
323.851
324.352
324.864
325.245
325.613
325.93
326.189
326.342
326.363
326.422
326.303
326.124
325.958
325.611
325.339
324.95
324.411
323.897
323.459
316.698
317.027
317.401
317.722
318.093
318.353
318.52
318.663
318.782
318.787
318.879
318.793
318.7
318.539
318.322
318.135
317.813
317.416
317.014
316.735
310.057
310.272
310.431
310.625
310.754
310.984
311.145
311.293
311.291
311.315
311.313
311.232
311.204
311.169
311.081
310.861
310.676
310.475
310.266
310.037
303.319
303.447
303.481
303.617
303.574
303.703
303.705
303.709
303.734
303.812
303.774
303.789
303.763
303.691
303.751
303.687
303.56
303.467
303.405
303.42
351.03
351.94
353.272
354.319
355.256
356.052
356.71
357.199
357.487
357.728
357.737
357.664
357.182
356.787
356.167
355.422
354.443
353.386
352.293
351.167
344.349
345.115
346.12
347.106
347.915
348.625
349.209
349.565
349.933
349.997
350.085
349.981
349.626
349.182
348.702
348.084
347.293
346.254
345.317
344.45
337.484
338.264
339.012
339.888
340.555
341.133
341.662
342.044
342.297
342.389
342.461
342.275
342.063
341.771
341.253
340.7
339.958
339.228
338.384
337.672
330.787
331.317
332.039
332.636
333.217
333.733
334.059
334.384
334.584
334.682
334.698
334.627
334.39
334.117
333.757
333.304
332.738
332.048
331.437
330.844
323.968
324.342
324.931
325.416
325.868
326.257
326.481
326.754
326.973
326.962
326.994
326.965
326.833
326.569
326.172
325.989
325.464
324.986
324.479
324.063
317.012
317.42
317.832
318.162
318.534
318.756
318.977
319.107
319.29
319.347
319.286
319.255
319.092
318.975
318.871
318.53
318.221
317.789
317.474
317.14
310.303
310.475
310.775
310.924
311.179
311.3
311.418
311.567
311.595
311.665
311.576
311.543
311.518
311.38
311.287
311.099
310.926
310.661
310.469
310.221
303.48
303.55
303.585
303.651
303.677
303.708
303.809
303.805
303.84
303.873
303.909
303.898
303.946
303.799
303.821
303.717
303.676
303.554
303.484
303.426
352.048
353.107
354.337
355.499
356.427
357.265
357.956
358.416
358.741
358.942
359.022
358.852
358.547
358.05
357.425
356.629
355.677
354.572
353.456
352.363
345.23
346.157
347.168
348.131
349.031
349.697
350.28
350.766
350.984
351.159
351.173
351.079
350.841
350.362
349.798
349.087
348.238
347.371
346.297
345.429
338.32
339.031
339.876
340.743
341.43
342.033
342.548
342.922
343.207
343.392
343.258
343.263
342.931
342.656
342.151
341.523
340.941
340.013
339.271
338.487
331.408
332
332.645
333.363
333.913
334.442
334.849
335.149
335.361
335.564
335.449
335.389
335.115
334.896
334.476
334.092
333.397
332.849
332.088
331.527
324.415
324.834
325.43
325.968
326.424
326.806
327.012
327.291
327.534
327.609
327.583
327.526
327.408
327.157
326.823
326.508
326.065
325.48
325.015
324.526
317.439
317.749
318.167
318.576
318.889
319.175
319.411
319.583
319.645
319.729
319.689
319.738
319.606
319.469
319.126
318.924
318.644
318.232
317.845
317.526
310.459
310.671
310.931
311.12
311.359
311.469
311.631
311.739
311.85
311.82
311.882
311.796
311.719
311.647
311.485
311.391
311.166
310.943
310.793
310.512
303.499
303.583
303.666
303.793
303.797
303.854
303.903
304.007
303.965
303.968
304.006
303.971
303.884
303.933
303.812
303.839
303.728
303.64
303.603
303.531
353.037
354.246
355.383
356.501
357.501
358.385
359.085
359.528
360.011
360.156
360.174
360.073
359.694
359.215
358.603
357.81
356.798
355.711
354.536
353.333
346.058
346.997
348.08
349.039
349.96
350.593
351.259
351.637
351.972
352.173
352.221
352.109
351.805
351.391
350.786
350.172
349.268
348.32
347.234
346.408
339.036
339.781
340.671
341.561
342.255
342.847
343.474
343.783
344.015
344.131
344.188
344.06
343.846
343.456
342.966
342.435
341.714
341.009
340.029
339.309
331.944
332.613
333.307
333.967
334.56
335.111
335.501
335.789
336.023
336.163
336.171
336.065
335.934
335.555
335.21
334.695
334.116
333.46
332.804
332.162
324.894
325.337
325.946
326.473
326.971
327.329
327.705
327.911
328.05
328.159
328.149
328.076
327.921
327.715
327.366
327.026
326.511
326.057
325.462
325.028
317.843
318.176
318.512
318.92
319.273
319.52
319.797
319.918
320.065
320.163
320.106
320.065
319.954
319.844
319.586
319.288
318.949
318.619
318.231
317.936
310.695
310.9
311.15
311.261
311.58
311.824
311.929
312.001
312.095
312.084
312.084
312.089
312.031
311.939
311.745
311.661
311.394
311.153
310.979
310.779
303.615
303.671
303.702
303.845
303.894
303.939
303.961
304.004
304.04
304.053
304.066
304.093
304.013
304
303.963
303.904
303.809
303.777
303.666
303.687
353.854
355.072
356.319
357.451
358.479
359.462
360.141
360.595
360.968
361.202
361.238
361.135
360.771
360.319
359.675
358.862
357.772
356.721
355.468
354.322
346.778
347.765
348.834
349.816
350.703
351.532
352.13
352.612
352.918
353.089
353.169
352.964
352.74
352.207
351.74
351.02
350.059
349.156
348.095
347.147
339.641
340.485
341.394
342.248
342.99
343.619
344.157
344.508
344.812
345.024
344.988
344.919
344.648
344.182
343.793
343.149
342.481
341.617
340.774
339.957
332.532
333.179
333.884
334.636
335.234
335.8
336.153
336.521
336.653
336.84
336.8
336.702
336.547
336.258
335.847
335.331
334.76
334.052
333.356
332.747
325.273
325.759
326.331
326.897
327.429
327.799
328.097
328.375
328.554
328.614
328.664
328.613
328.505
328.261
327.933
327.502
327.04
326.528
325.971
325.458
318.078
318.427
318.858
319.297
319.539
319.89
320.146
320.32
320.489
320.506
320.519
320.43
320.349
320.145
319.938
319.69
319.354
318.895
318.547
318.269
310.832
311.105
311.275
311.566
311.757
311.919
312.173
312.2
312.299
312.274
312.319
312.308
312.144
312.107
312.044
311.773
311.57
311.348
311.2
310.881
303.648
303.765
303.813
303.875
303.971
304.029
304.127
304.176
304.1
304.207
304.189
304.095
304.112
304.077
304.005
304.002
303.88
303.858
303.692
303.653
354.73
355.842
357.205
358.341
359.415
360.332
361.008
361.581
361.962
362.157
362.243
362.076
361.711
361.21
360.572
359.736
358.722
357.621
356.35
355.257
347.565
348.488
349.622
350.633
351.545
352.257
353.029
353.377
353.707
353.928
353.962
353.868
353.563
353.128
352.525
351.731
350.943
349.932
348.847
347.95
340.32
341.092
342
342.802
343.617
344.237
344.808
345.21
345.469
345.605
345.645
345.565
345.349
344.917
344.435
343.818
343.152
342.279
341.403
340.614
333.013
333.663
334.377
335.072
335.672
336.203
336.761
337.071
337.268
337.365
337.391
337.236
337.085
336.799
336.411
335.915
335.34
334.56
333.941
333.264
325.706
326.123
326.731
327.312
327.847
328.21
328.544
328.835
328.936
329.064
329.046
329.075
328.871
328.53
328.299
327.973
327.483
326.866
326.377
325.896
318.308
318.653
319.134
319.541
319.791
320.169
320.4
320.576
320.752
320.817
320.775
320.772
320.587
320.491
320.217
319.998
319.548
319.258
318.834
318.554
311.01
311.273
311.549
311.786
311.93
312.176
312.282
312.391
312.57
312.547
312.485
312.452
312.401
312.357
312.181
311.947
311.787
311.613
311.287
311.15
303.761
303.731
303.869
303.952
303.953
304.084
304.142
304.158
304.089
304.232
304.164
304.165
304.14
304.046
304.045
304.03
303.99
303.875
303.768
303.679
355.372
356.603
357.934
359.126
360.148
361.135
361.877
362.399
362.794
363.013
363.042
363.003
362.662
362.116
361.351
360.597
359.606
358.335
357.113
355.995
348.133
349.12
350.258
351.25
352.209
353.004
353.64
354.091
354.426
354.68
354.728
354.612
354.307
353.928
353.207
352.523
351.629
350.601
349.527
348.569
340.765
341.61
342.533
343.451
344.207
344.863
345.497
345.895
346.22
346.239
346.325
346.205
345.994
345.624
345.084
344.479
343.717
342.849
341.928
341.136
333.382
334.094
334.794
335.51
336.272
336.789
337.124
337.543
337.726
337.862
337.882
337.839
337.611
337.307
336.915
336.427
335.789
335.036
334.422
333.715
326.019
326.504
327.129
327.692
328.211
328.585
328.946
329.281
329.438
329.499
329.491
329.436
329.227
329.03
328.694
328.293
327.858
327.301
326.763
326.241
318.607
318.924
319.363
319.81
320.128
320.441
320.624
320.906
321.018
321.106
321.103
321.037
320.963
320.716
320.567
320.24
319.951
319.46
319.088
318.776
311.175
311.384
311.633
311.944
312.124
312.325
312.415
312.613
312.641
312.637
312.62
312.662
312.618
312.458
312.27
312.098
311.945
311.74
311.451
311.303
303.714
303.834
303.932
303.988
304.037
304.13
304.199
304.152
304.158
304.206
304.283
304.218
304.201
304.213
304.15
304.044
304.081
303.93
303.884
303.836
356.037
357.202
358.538
359.79
360.847
361.814
362.587
363.124
363.555
363.865
363.794
363.665
363.351
362.779
362.175
361.26
360.269
359.071
357.806
356.606
348.665
349.58
350.744
351.869
352.761
353.616
354.264
354.808
355.067
355.349
355.309
355.161
354.912
354.465
353.887
353.137
352.242
351.229
350.163
349.142
341.194
342.002
343.032
343.892
344.742
345.369
345.973
346.395
346.68
346.899
346.826
346.725
346.469
346.092
345.628
344.935
344.241
343.357
342.465
341.587
333.786
334.453
335.238
335.952
336.583
337.176
337.628
337.973
338.168
338.333
338.314
338.277
338.033
337.825
337.285
336.872
336.195
335.525
334.707
334.114
326.303
326.847
327.352
327.999
328.43
328.878
329.253
329.529
329.68
329.815
329.868
329.807
329.618
329.359
329.04
328.64
328.151
327.598
326.997
326.501
318.747
319.133
319.564
319.93
320.328
320.773
320.896
321.16
321.26
321.326
321.349
321.248
321.206
321.008
320.775
320.466
320.115
319.783
319.296
318.963
311.304
311.458
311.698
311.953
312.175
312.483
312.595
312.632
312.755
312.848
312.785
312.73
312.679
312.61
312.468
312.327
312.108
311.778
311.608
311.413
303.739
303.873
303.944
304.051
304.12
304.185
304.22
304.213
304.302
304.279
304.35
304.21
304.284
304.256
304.184
304.156
304.063
303.941
303.849
303.803
356.503
357.714
359.071
360.375
361.358
362.343
363.178
363.801
364.094
364.316
364.401
364.368
363.946
363.453
362.726
361.869
360.867
359.597
358.35
357.217
349.081
350.058
351.254
352.32
353.29
354.061
354.782
355.279
355.625
355.847
355.801
355.755
355.451
354.977
354.39
353.611
352.787
351.711
350.539
349.64
341.545
342.388
343.388
344.28
345.101
345.75
346.287
346.795
347.093
347.244
347.288
347.158
346.933
346.56
346.093
345.411
344.629
343.755
342.777
342.04
334.035
334.692
335.54
336.228
336.884
337.421
337.886
338.284
338.495
338.666
338.794
338.616
338.405
338.134
337.71
337.234
336.581
335.827
335.094
334.395
326.486
327.031
327.633
328.22
328.73
329.191
329.546
329.837
330.035
330.135
330.19
330.009
329.886
329.596
329.298
328.881
328.455
327.902
327.306
326.764
318.974
319.287
319.768
320.135
320.533
320.769
321.174
321.282
321.416
321.497
321.526
321.395
321.428
321.229
320.989
320.694
320.379
319.952
319.434
319.116
311.421
311.604
311.906
312.109
312.375
312.561
312.613
312.788
312.892
312.901
312.927
312.909
312.847
312.73
312.59
312.422
312.272
311.891
311.801
311.508
303.742
303.888
304.006
304.034
304.06
304.194
304.267
304.311
304.37
304.293
304.313
304.383
304.329
304.273
304.188
304.195
304.174
304.036
303.928
303.869
356.893
358.092
359.449
360.673
361.865
362.878
363.564
364.25
364.582
364.888
364.835
364.719
364.388
363.898
363.193
362.315
361.238
360.116
358.796
357.585
349.303
350.34
351.557
352.653
353.632
354.465
355.108
355.659
356.041
356.154
356.313
356.123
355.824
355.39
354.733
354.058
353.111
352.074
351.025
349.987
341.769
342.683
343.701
344.557
345.393
346.057
346.625
347.111
347.378
347.576
347.66
347.528
347.328
346.87
346.365
345.745
344.995
344.079
343.162
342.264
334.323
334.94
335.74
336.508
337.18
337.689
338.242
338.554
338.786
338.968
338.967
338.942
338.731
338.442
338.016
337.398
336.806
336.079
335.356
334.682
326.703
327.149
327.826
328.462
329.005
329.374
329.731
330.058
330.15
330.352
330.321
330.277
330.07
329.823
329.579
329.152
328.703
328.051
327.488
327.017
319.152
319.383
319.873
320.309
320.669
321.022
321.305
321.482
321.599
321.634
321.625
321.602
321.524
321.392
321.095
320.801
320.464
320.154
319.633
319.346
311.461
311.653
311.98
312.165
312.456
312.636
312.708
312.902
313.007
312.971
313.016
312.984
312.982
312.758
312.688
312.516
312.289
312.007
311.78
311.581
303.83
303.976
304.006
304.107
304.149
304.294
304.246
304.352
304.361
304.373
304.371
304.383
304.352
304.293
304.273
304.193
304.162
304.076
303.944
303.918
357.018
358.326
359.711
360.92
362.052
363.018
363.846
364.461
364.887
365.124
365.132
365.065
364.755
364.158
363.489
362.61
361.515
360.294
359.042
357.838
349.582
350.529
351.754
352.888
353.877
354.666
355.385
355.858
356.248
356.515
356.557
356.353
356.009
355.651
355.064
354.283
353.395
352.287
351.171
350.175
341.921
342.838
343.84
344.729
345.474
346.311
346.841
347.269
347.616
347.788
347.925
347.707
347.466
347.037
346.614
345.876
345.163
344.254
343.277
342.484
334.389
335.081
335.874
336.696
337.328
337.898
338.334
338.775
339.021
339.151
339.123
339.028
338.855
338.558
338.132
337.578
336.968
336.229
335.378
334.78
326.685
327.254
327.918
328.513
329.087
329.504
329.834
330.152
330.348
330.496
330.538
330.322
330.207
330.054
329.687
329.259
328.723
328.159
327.651
327.086
319.164
319.505
319.946
320.365
320.696
321.082
321.288
321.535
321.708
321.735
321.827
321.76
321.605
321.479
321.16
320.897
320.517
320.159
319.683
319.358
311.479
311.726
311.941
312.277
312.427
312.606
312.88
312.979
313.028
313.037
313.077
313.042
312.953
312.908
312.725
312.578
312.36
312.099
311.858
311.661
303.849
303.943
304.051
304.144
304.141
304.217
304.227
304.31
304.309
304.386
304.408
304.463
304.381
304.358
304.31
304.162
304.141
304.037
303.962
303.898
)
;

boundaryField
{
    hotSide
    {
        type            fixedGradient;
        gradient        nonuniform List<scalar> 
400
(
321.511
322.87
325.591
329.677
335.133
341.965
350.181
359.788
370.794
383.208
397.037
412.289
428.971
447.088
466.647
487.651
510.105
534.011
559.372
586.191
323.738
325.08
327.767
331.802
337.194
343.949
352.078
361.591
372.498
384.81
398.537
413.687
430.268
448.289
467.755
488.672
511.043
534.872
560.161
586.913
326.149
327.47
330.116
334.091
339.406
346.071
354.099
363.503
374.296
386.491
400.101
415.136
431.606
449.52
468.885
489.706
511.988
535.735
560.948
587.63
328.704
330
332.597
336.503
341.73
348.292
356.205
365.485
376.15
388.215
401.695
416.604
432.954
450.753
470.009
490.73
512.919
536.579
561.714
588.325
331.33
332.599
335.142
338.97
344.099
350.546
358.332
367.477
378.003
389.928
403.271
418.047
434.27
451.949
471.095
491.712
513.807
537.382
562.439
588.978
333.918
335.158
337.643
341.389
346.414
352.74
360.392
369.397
379.779
391.562
404.765
419.407
435.503
453.065
472.101
492.618
514.622
538.114
563.096
589.569
336.321
337.531
339.959
343.622
348.544
354.751
362.274
371.142
381.385
393.031
406.101
420.618
436.595
454.047
472.983
493.409
515.33
538.747
563.663
590.076
338.36
339.543
341.92
345.509
350.339
356.44
363.847
372.595
382.718
394.244
407.2
421.608
437.485
454.844
473.695
494.045
515.897
539.253
564.114
590.478
339.852
341.015
343.352
346.885
351.645
357.665
364.985
373.643
383.675
395.113
407.984
422.312
438.116
455.407
474.197
494.491
516.294
539.606
564.428
590.758
340.643
341.795
344.11
347.613
352.334
358.311
365.584
374.193
384.176
395.567
408.393
422.679
438.443
455.699
474.456
494.722
516.498
539.788
564.589
590.901
340.643
341.795
344.11
347.613
352.334
358.311
365.584
374.193
384.176
395.567
408.393
422.679
438.443
455.699
474.456
494.722
516.498
539.788
564.589
590.901
339.852
341.015
343.352
346.885
351.645
357.665
364.985
373.643
383.675
395.113
407.984
422.312
438.116
455.407
474.197
494.491
516.294
539.606
564.428
590.758
338.36
339.543
341.92
345.509
350.339
356.44
363.847
372.595
382.718
394.244
407.2
421.608
437.485
454.844
473.695
494.045
515.897
539.253
564.114
590.478
336.321
337.531
339.959
343.622
348.544
354.751
362.274
371.142
381.385
393.031
406.101
420.618
436.595
454.047
472.983
493.409
515.33
538.747
563.663
590.076
333.918
335.158
337.643
341.389
346.414
352.74
360.392
369.397
379.779
391.562
404.765
419.407
435.503
453.065
472.101
492.618
514.622
538.114
563.096
589.569
331.33
332.599
335.142
338.97
344.099
350.546
358.332
367.477
378.003
389.928
403.271
418.047
434.27
451.949
471.095
491.712
513.807
537.382
562.439
588.978
328.704
330
332.597
336.503
341.73
348.292
356.205
365.485
376.15
388.215
401.695
416.604
432.954
450.753
470.009
490.73
512.919
536.579
561.714
588.325
326.149
327.47
330.116
334.091
339.406
346.071
354.099
363.503
374.296
386.491
400.101
415.136
431.606
449.52
468.885
489.706
511.988
535.735
560.948
587.63
323.738
325.08
327.767
331.802
337.194
343.949
352.078
361.591
372.498
384.81
398.537
413.687
430.268
448.289
467.755
488.672
511.043
534.872
560.161
586.913
321.511
322.87
325.591
329.677
335.133
341.965
350.181
359.788
370.794
383.208
397.037
412.289
428.971
447.088
466.647
487.651
510.105
534.011
559.372
586.191
)
;
    }
    coldSide
    {
        type            mixed;
        refValue        uniform 300;
        refGradient     uniform 0;
        valueFraction   uniform 0.991591;
        source          uniform 0;
        value           nonuniform List<scalar> 
400
(
300.021
300.022
300.023
300.023
300.025
300.026
300.026
300.027
300.027
300.028
300.029
300.029
300.03
300.031
300.032
300.031
300.031
300.031
300.032
300.032
300.022
300.023
300.024
300.024
300.025
300.026
300.027
300.028
300.028
300.029
300.03
300.03
300.031
300.032
300.031
300.032
300.033
300.033
300.033