/*--------------------------------*- C++ -*----------------------------------*\
| =========                 |                                                 |
| \\      /  F ield         | OpenFOAM: The Open Source CFD Toolbox           |
|  \\    /   O peration     | Version:  2212                                  |
|   \\  /    A nd           | Website:  www.openfoam.com                      |
|    \\/     M anipulation  |                                                 |
\*---------------------------------------------------------------------------*/
FoamFile
{
    version     2.0;
    format      ascii;
    arch        "LSB;label=32;scalar=64";
    class       volScalarField;
    location    "0";
    object      T;
}
// * * * * * * * * * * * * * * * * * * * * * * * * * * * * * * * * * * * * * //

dimensions      [0 0 0 1 0 0 0];

internalField   nonuniform List<scalar> 
3200
(
346.2
344.51
342.971
342.102
341.991
341.955
342.172
342.457
342.667
342.795
342.62
342.306
341.811
341.236
340.672
340.111
340.115
340.444
341.418
342.828
339.998
338.62
337.319
336.573
336.494
336.469
336.689
336.939
337.143
337.257
337.141
336.877
336.447
335.931
335.494
334.991
335.017
335.305
336.13
337.298
333.824
332.724
331.649
331.041
330.953
330.939
331.164
331.377
331.531
331.656
331.58
331.345
330.995
330.533
330.2
329.763
329.81
330.038
330.752
331.679
327.659
326.807
325.925
325.466
325.374
325.352
325.586
325.755
325.868
325.983
325.945
325.73
325.461
325.091
324.818
324.469
324.494
324.684
325.271
325.989
321.513
320.889
320.194
319.838
319.779
319.728
319.955
320.096
320.164
320.255
320.244
320.084
319.86
319.587
319.382
319.092
319.123
319.266
319.734
320.269
315.376
314.941
314.44
314.174
314.16
314.112
314.274
314.399
314.442
314.492
314.486
314.396
314.232
314.062
313.896
313.676
313.713
313.802
314.124
314.521
309.235
308.989
308.666
308.521
308.507
308.496
308.582
308.657
308.68
308.725
308.705
308.655
308.571
308.47
308.384
308.218
308.27
308.301
308.472
308.731
303.096
303.015
302.904
302.857
302.852
302.86
302.875
302.908
302.907
302.937
302.91
302.911
302.876
302.847
302.827
302.764
302.77
302.789
302.839
302.93
346.493
344.741
343.425
342.589
342.398
342.349
342.555
343.048
343.298
343.372
343.358
343.019
342.397
341.785
341.074
340.508
340.525
340.831
341.834
343.231
340.259
338.811
337.703
336.99
336.836
336.816
337.001
337.441
337.669
337.751
337.733
337.489
336.932
336.419
335.816
335.347
335.371
335.65
336.518
337.656
334.068
332.859
331.973
331.349
331.231
331.219
331.417
331.774
331.988
332.045
332.051
331.885
331.392
330.979
330.456
330.061
330.089
330.352
331.059
331.984
327.847
326.904
326.207
325.711
325.576
325.599
325.784
326.064
326.246
326.297
326.311
326.196
325.777
325.448
325.022
324.697
324.74
324.953
325.532
326.249
321.645
320.941
320.402
320.04
319.921
319.927
320.098
320.326
320.457
320.517
320.517
320.428
320.125
319.865
319.51
319.281
319.316
319.506
319.932
320.459
315.474
314.983
314.592
314.326
314.24
314.248
314.393
314.551
314.634
314.675
314.684
314.623
314.42
314.227
313.969
313.804
313.846
313.97
314.281
314.657
309.299
309.005
308.775
308.589
308.561
308.556
308.659
308.759
308.8
308.803
308.814
308.793
308.683
308.561
308.414
308.312
308.325
308.394
308.594
308.815
303.105
303.013
302.945
302.874
302.874
302.88
302.903
302.928
302.957
302.946
302.951
302.951
302.921
302.872
302.834
302.788
302.8
302.821
302.882
302.957
347.194
345.342
344.063
343.337
343.053
343.099
343.406
343.802
344.158
344.26
344.303
344.038
343.341
342.643
341.838
341.332
341.12
341.524
342.504
343.913
340.854
339.322
338.233
337.639
337.402
337.445
337.726
338.088
338.414
338.529
338.565
338.37
337.741
337.182
336.478
336.062
335.887
336.246
337.071
338.242
334.535
333.27
332.399
331.9
331.717
331.742
331.989
332.328
332.623
332.737
332.744
332.616
332.063
331.62
331.022
330.695
330.52
330.86
331.552
332.492
328.229
327.238
326.539
326.137
325.972
326.019
326.218
326.515
326.777
326.871
326.856
326.777
326.332
325.994
325.496
325.232
325.076
325.36
325.937
326.68
321.929
321.198
320.66
320.336
320.227
320.262
320.421
320.666
320.87
320.937
320.923
320.885
320.535
320.286
319.878
319.694
319.584
319.79
320.252
320.8
315.659
315.159
314.776
314.528
314.459
314.504
314.614
314.784
314.939
314.988
314.966
314.944
314.695
314.522
314.223
314.102
314.034
314.172
314.507
314.886
309.393
309.108
308.879
308.731
308.668
308.714
308.779
308.895
308.983
309.017
308.99
308.985
308.837
308.731
308.544
308.492
308.454
308.516
308.724
308.949
303.145
303.057
302.987
302.931
302.906
302.93
302.94
302.984
303.019
303.022
303.012
303.023
302.967
302.932
302.868
302.845
302.836
302.859
302.922
302.996
348.077
346.371
345.049
344.3
344.008
344.233
344.541
344.801
345.193
345.316
345.381
345.136
344.467
343.837
342.992
342.337
342.139
342.441
343.476
344.746
341.645
340.236
339.099
338.467
338.242
338.429
338.701
338.956
339.304
339.411
339.458
339.297
338.736
338.177
337.458
336.931
336.758
337.047
337.922
338.98
335.202
334.067
333.137
332.598
332.433
332.564
332.818
333.053
333.351
333.443
333.494
333.374
332.917
332.432
331.845
331.436
331.245
331.546
332.267
333.134
328.796
327.904
327.141
326.707
326.596
326.688
326.898
327.108
327.355
327.444
327.468
327.39
327.029
326.625
326.147
325.855
325.67
325.93
326.516
327.215
322.395
321.726
321.109
320.825
320.722
320.784
320.929
321.14
321.334
321.386
321.396
321.351
321.089
320.756
320.381
320.179
320.038
320.227
320.705
321.235
315.992
315.527
315.092
314.924
314.829
314.862
314.96
315.132
315.268
315.298
315.301
315.279
315.123
314.874
314.577
314.45
314.358
314.489
314.818
315.204
309.613
309.334
309.071
308.982
308.907
308.928
309.005
309.122
309.17
309.202
309.186
309.182
309.096
308.945
308.767
308.679
308.66
308.703
308.92
309.139
303.212
303.121
303.042
303.008
302.985
302.988
303.012
303.058
303.068
303.087
303.08
303.08
303.051
302.992
302.945
302.908
302.905
302.912
302.993
303.065
349.247
347.663
346.323
345.627
345.365
345.527
345.884
346.185
346.499
346.679
346.674
346.436
345.904
345.164
344.265
343.761
343.49
343.878
344.776
345.959
342.636
341.324
340.196
339.602
339.389
339.555
339.859
340.147
340.432
340.59
340.628
340.423
339.951
339.336
338.567
338.14
337.935
338.28
339.042
340.023
336.042
334.974
334.059
333.547
333.394
333.528
333.807
334.073
334.312
334.455
334.503
334.332
333.923
333.41
332.792
332.453
332.264
332.568
333.22
334.012
329.486
328.629
327.878
327.488
327.346
327.458
327.7
327.93
328.151
328.261
328.311
328.175
327.835
327.439
326.954
326.651
326.502
326.737
327.313
327.91
322.919
322.277
321.705
321.429
321.302
321.393
321.563
321.773
321.945
322.027
322.064
321.981
321.693
321.403
321.04
320.802
320.672
320.85
321.313
321.776
316.372
315.927
315.521
315.338
315.248
315.305
315.418
315.561
315.707
315.755
315.79
315.736
315.517
315.318
315.09
314.906
314.817
314.924
315.263
315.597
309.828
309.551
309.32
309.218
309.162
309.216
309.276
309.345
309.455
309.467
309.5
309.441
309.338
309.211
309.094
308.974
308.907
308.953
309.19
309.388
303.286
303.2
303.117
303.093
303.071
303.095
303.113
303.138
303.176
303.165
303.195
303.151
303.141
303.086
303.051
303.017
302.984
303.004
303.081
303.151
350.856
349.283
347.828
347.185
346.95
346.983
347.306
347.673
348.071
348.276
348.317
347.917
347.392
346.596
345.729
345.117
345.002
345.324
346.238
347.436
344.045
342.739
341.514
340.954
340.774
340.808
341.108
341.421
341.805
341.978
342.057
341.695
341.256
340.571
339.845
339.32
339.233
339.514
340.353
341.311
337.241
336.177
335.168
334.69
334.535
334.612
334.883
335.142
335.469
335.63
335.716
335.405
335.035
334.462
333.859
333.441
333.366
333.595
334.349
335.107
330.456
329.606
328.788
328.427
328.281
328.377
328.612
328.812
329.083
329.226
329.308
329.038
328.75
328.286
327.812
327.485
327.424
327.594
328.235
328.836
323.699
323.032
322.39
322.127
322.02
322.101
322.281
322.467
322.652
322.788
322.824
322.624
322.416
322.056
321.707
321.448
321.423
321.555
322.031
322.49
316.948
316.44
315.997
315.822
315.714
315.793
315.94
316.08
316.186
316.305
316.322
316.191
316.04
315.79
315.53
315.348
315.367
315.441
315.771
316.097
310.184
309.869
309.61
309.505
309.434
309.502
309.586
309.677
309.723
309.788
309.799
309.732
309.649
309.496
309.317
309.219
309.263
309.293
309.483
309.678
303.416
303.319
303.216
303.186
303.172
303.191
303.214
303.246
303.266
303.276
303.289
303.268
303.239
303.185
303.125
303.084
303.111
303.117
303.192
303.246
352.677
351.147
349.681
348.845
348.6
348.696
348.906
349.386
349.674
349.997
349.89
349.659
348.964
348.248
347.471
346.85
346.695
346.972
347.894
349.087
345.632
344.351
343.084
342.381
342.181
342.287
342.488
342.887
343.168
343.462
343.399
343.196
342.619
342.024
341.343
340.819
340.687
340.954
341.743
342.749
338.617
337.52
336.474
335.902
335.736
335.853
336.019
336.333
336.606
336.878
336.848
336.656
336.186
335.704
335.132
334.718
334.579
334.838
335.498
336.312
331.604
330.7
329.858
329.387
329.284
329.391
329.522
329.77
329.989
330.244
330.24
330.069
329.692
329.29
328.848
328.519
328.4
328.638
329.165
329.802
324.592
323.87
323.241
322.874
322.803
322.89
322.994
323.193
323.347
323.554
323.592
323.43
323.15
322.833
322.505
322.269
322.154
322.358
322.749
323.232
317.574
317.042
316.608
316.352
316.297
316.365
316.454
316.589
316.698
316.861
316.907
316.762
316.588
316.336
316.095
315.955
315.861
316.019
316.291
316.633
310.559
310.223
309.978
309.813
309.792
309.818
309.874
309.979
310.002
310.152
310.18
310.087
309.97
309.83
309.69
309.592
309.537
309.647
309.811
310.001
303.542
303.429
303.35
303.283
303.282
303.287
303.304
303.341
303.345
303.41
303.411
303.393
303.339
303.289
303.252
303.21
303.199
303.233
303.294
303.346
354.473
353.033
351.595
350.822
350.47
350.508
350.615
350.964
351.316
351.665
351.727
351.399
350.747
350.106
349.427
348.73
348.467
348.867
349.663
350.905
347.173
345.998
344.74
344.087
343.823
343.859
343.949
344.276
344.58
344.917
344.971
344.725
344.153
343.614
343.048
342.461
342.221
342.607
343.279
344.313
339.916
338.933
337.894
337.334
337.152
337.177
337.251
337.559
337.816
338.104
338.136
337.97
337.502
337.051
336.573
336.105
335.858
336.223
336.797
337.652
332.646
331.866
331.045
330.564
330.462
330.453
330.514
330.77
330.977
331.25
331.251
331.168
330.795
330.404
330.032
329.651
329.438
329.769
330.208
330.895
325.392
324.787
324.167
323.782
323.723
323.715
323.765
323.959
324.109
324.359
324.345
324.315
324.02
323.706
323.433
323.117
322.974
323.236
323.559
324.081
318.152
317.701
317.281
317.003
316.971
316.94
316.998
317.13
317.25
317.441
317.412
317.4
317.178
316.982
316.789
316.557
316.458
316.643
316.847
317.255
310.907
310.621
310.37
310.233
310.201
310.17
310.218
310.301
310.365
310.486
310.451
310.472
310.33
310.211
310.103
309.956
309.915
310.016
310.126
310.379
303.663
303.566
303.469
303.424
303.425
303.407
303.416
303.449
303.477
303.519
303.512
303.514
303.466
303.419
303.392
303.344
303.337
303.358
303.395
303.485
356.452
354.946
353.651
352.787
352.433
352.45
352.431
352.886
353.08
353.452
353.374
353.135
352.478
351.945
351.214
350.702
350.442
350.937
351.678
352.774
348.897
347.656
346.532
345.776
345.478
345.552
345.535
345.942
346.135
346.431
346.42
346.211
345.642
345.214
344.585
344.18
343.948
344.404
345.008
345.953
341.374
340.368
339.43
338.78
338.526
338.614
338.59
338.939
339.159
339.358
339.373
339.23
338.743
338.4
337.878
337.52
337.341
337.757
338.258
339.063
333.833
333.058
332.302
331.757
331.554
331.629
331.616
331.899
332.107
332.242
332.3
332.194
331.808
331.528
331.091
330.781
330.664
331.02
331.432
332.101
326.306
325.739
325.175
324.72
324.566
324.635
324.629
324.852
325.011
325.114
325.154
325.078
324.812
324.596
324.246
323.981
323.907
324.18
324.526
325.038
318.782
318.402
318.008
317.682
317.554
317.614
317.62
317.798
317.897
317.966
317.996
317.924
317.763
317.606
317.361
317.156
317.102
317.302
317.553
317.913
311.279
311.029
310.809
310.627
310.555
310.584
310.595
310.706
310.76
310.818
310.812
310.766
310.693
310.612
310.431
310.318
310.274
310.395
310.546
310.755
303.776
303.693
303.621
303.576
303.548
303.553
303.561
303.586
303.608
303.629
303.617
303.618
303.591
303.562
303.5
303.453
303.44
303.483
303.539
303.618
358.408
356.954
355.782
354.848
354.521
354.326
354.396
354.687
354.912
355.235
355.157
354.781
354.286
353.781
353.133
352.626
352.588
352.968
353.741
354.72
350.58
349.347
348.366
347.585
347.284
347.16
347.232
347.489
347.714
348.015
347.96
347.635
347.223
346.797
346.258
345.821
345.816
346.143
346.816
347.601
342.756
341.747
340.931
340.317
340.022
339.957
340.032
340.252
340.494
340.713
340.702
340.45
340.105
339.742
339.294
338.933
338.945
339.21
339.798
340.418
334.967
334.144
333.502
333.039
332.76
332.737
332.79
332.999
333.212
333.352
333.366
333.196
332.887
332.597
332.252
331.94
331.972
332.207
332.697
333.173
327.205
326.557
326.065
325.723
325.469
325.47
325.53
325.709
325.885
325.983
325.98
325.889
325.616
325.427
325.15
324.901
324.946
325.127
325.527
325.854
319.44
318.952
318.634
318.392
318.225
318.207
318.265
318.402
318.535
318.579
318.578
318.534
318.323
318.228
318.009
317.828
317.854
318.004
318.286
318.517
311.684
311.37
311.186
311.034
310.957
310.938
310.984
311.052
311.147
311.17
311.162
311.147
311.007
310.986
310.853
310.72
310.74
310.832
310.994
311.146
303.919
303.804
303.754
303.694
303.679
303.669
303.682
303.708
303.738
303.745
303.74
303.74
303.69
303.695
303.646
303.593
303.6
303.63
303.684
303.735
360.386
359.119
357.971
357.025
356.513
356.332
356.357
356.522
356.835
356.996
357.133
356.821
356.265
355.677
355.105
354.685
354.701
355.037
355.838
356.805
352.283
351.218
350.241
349.465
349.035
348.878
348.916
349.102
349.394
349.53
349.679
349.396
348.943
348.421
347.952
347.61
347.623
347.925
348.635
349.427
344.203
343.317
342.497
341.899
341.537
341.392
341.474
341.642
341.898
341.996
342.141
341.913
341.524
341.105
340.717
340.429
340.469
340.715
341.314
341.933
336.154
335.433
334.772
334.317
334.029
333.888
334.002
334.139
334.327
334.416
334.557
334.381
334.049
333.714
333.418
333.183
333.233
333.421
333.922
334.4
328.116
327.546
327.062
326.718
326.521
326.372
326.493
326.588
326.745
326.796
326.917
326.797
326.524
326.278
326.034
325.891
325.913
326.057
326.465
326.807
320.097
319.676
319.325
319.105
318.957
318.848
318.931
319.035
319.153
319.18
319.247
319.192
318.98
318.818
318.621
318.538
318.542
318.637
318.931
319.187
312.062
311.812
311.603
311.487
311.394
311.33
311.364
311.458
311.525
311.539
311.557
311.557
311.41
311.301
311.193
311.142
311.139
311.2
311.371
311.515
304.034
303.958
303.901
303.859
303.826
303.793
303.801
303.838
303.875
303.871
303.869
303.881
303.819
303.793
303.747
303.74
303.741
303.752
303.807
303.859
362.588
361.177
360.179
359.27
358.657
358.335
358.366
358.52
358.728
358.863
358.768
358.598
358.017
357.601
357.167
356.85
356.755
357.134
358.028
358.876
354.193
353
352.159
351.406
350.88
350.626
350.652
350.808
351.018
351.152
351.04
350.935
350.461
350.113
349.737
349.49
349.427
349.722
350.511
351.199
345.812
344.842
344.132
343.522
343.086
342.882
342.89
343.077
343.248
343.384
343.285
343.199
342.813
342.516
342.219
342.02
341.985
342.25
342.9
343.453
337.463
336.712
336.123
335.626
335.271
335.123
335.147
335.285
335.449
335.579
335.484
335.405
335.106
334.85
334.641
334.473
334.447
334.683
335.205
335.627
329.146
328.573
328.102
327.72
327.451
327.367
327.385
327.473
327.601
327.726
327.643
327.584
327.367
327.151
327.03
326.877
326.843
327.035
327.443
327.747
320.823
320.421
320.076
319.8
319.624
319.578
319.588
319.657
319.735
319.824
319.781
319.758
319.571
319.423
319.365
319.229
319.211
319.346
319.641
319.842
312.507
312.261
312.056
311.885
311.792
311.767
311.764
311.841
311.872
311.909
311.895
311.886
311.748
311.674
311.666
311.556
311.559
311.624
311.806
311.934
304.196
304.114
304.043
303.972
303.955
303.948
303.947
303.984
303.976
303.995
303.987
303.997
303.93
303.914
303.923
303.885
303.887
303.896
303.962
304.009
364.759
363.456
362.294
361.407
360.814
360.518
360.365
360.304
360.491
360.671
360.575
360.483
359.969
359.51
359.157
358.977
359.018
359.296
360.186
361.007
356.066
354.976
353.991
353.234
352.75
352.529
352.392
352.351
352.539
352.71
352.652
352.566
352.143
351.746
351.459
351.325
351.358
351.625
352.386
353.052
347.416
346.51
345.693
345.074
344.671
344.497
344.391
344.372
344.529
344.678
344.672
344.576
344.238
343.921
343.709
343.578
343.615
343.831
344.503
345.04
338.794
338.051
337.396
336.89
336.582
336.465
336.368
336.36
336.491
336.599
336.623
336.52
336.279
336.02
335.874
335.748
335.789
335.963
336.505
336.953
330.172
329.592
329.064
328.707
328.471
328.384
328.295
328.305
328.42
328.501
328.53
328.448
328.29
328.05
327.967
327.854
327.909
328.03
328.458
328.781
321.553
321.145
320.774
320.525
320.342
320.282
320.24
320.239
320.332
320.376
320.424
320.365
320.262
320.055
320.019
319.943
319.966
320.057
320.351
320.596
312.939
312.703
312.475
312.326
312.213
312.178
312.15
312.164
312.215
312.248
312.282
312.252
312.183
312.049
312.037
311.993
312.004
312.058
312.223
312.389
304.337
304.262
304.186
304.141
304.095
304.073
304.065
304.087
304.102
304.101
304.117
304.105
304.092
304.035
304.045
304.014
304.028
304.041
304.099
304.159
366.98
365.71
364.51
363.682
362.93
362.645
362.447
362.297
362.347
362.388
362.389
362.189
361.901
361.456
361.119
361.011
361.08
361.521
362.275
363.158
357.983
356.924
355.899
355.22
354.558
354.34
354.225
354.091
354.149
354.199
354.213
354.054
353.837
353.432
353.167
353.086
353.158
353.527
354.165
354.932
349.041
348.158
347.31
346.75
346.187
346.025
345.95
345.848
345.917
345.947
345.985
345.832
345.689
345.346
345.139
345.069
345.14
345.453
345.973
346.631
340.103
339.4
338.741
338.275
337.806
337.692
337.63
337.586
337.639
337.655
337.711
337.552
337.468
337.191
337.044
336.972
337.036
337.31
337.714
338.26
331.191
330.63
330.149
329.784
329.429
329.334
329.284
329.285
329.327
329.325
329.364
329.258
329.199
328.966
328.874
328.828
328.877
329.088
329.396
329.813
322.285
321.879
321.56
321.296
321.036
320.964
320.946
320.952
320.987
320.988
321.018
320.929
320.884
320.735
320.645
320.632
320.668
320.815
321.012
321.315
313.364
313.144
312.952
312.796
312.641
312.592
312.598
312.572
312.611
312.61
312.654
312.578
312.557
312.461
312.403
312.409
312.445
312.511
312.638
312.807
304.47
304.417
304.342
304.291
304.241
304.223
304.229
304.215
304.223
304.231
304.253
304.213
304.206
304.172
304.154
304.157
304.172
304.204
304.247
304.297
369.246
368.079
366.779
365.837
365.062
364.63
364.446
364.24
364.202
364.295
364.223
364.019
363.843
363.315
363.154
363.036
363.276
363.59
364.433
365.288
359.964
358.991
357.866
357.057
356.42
356.06
355.909
355.755
355.73
355.842
355.816
355.635
355.516
355.052
354.958
354.856
355.06
355.338
356.047
356.759
350.718
349.904
348.956
348.281
347.762
347.495
347.358
347.245
347.255
347.358
347.339
347.203
347.116
346.729
346.67
346.579
346.712
346.996
347.565
348.14
341.456
340.789
340.059
339.495
339.089
338.91
338.797
338.71
338.709
338.805
338.812
338.692
338.631
338.329
338.294
338.195
338.297
338.572
339.013
339.47
332.213
331.71
331.169
330.725
330.43
330.3
330.208
330.128
330.146
330.204
330.246
330.143
330.095
329.872
329.853
329.786
329.851
330.079
330.39
330.759
323.009
322.651
322.282
321.971
321.748
321.659
321.609
321.53
321.55
321.59
321.637
321.548
321.53
321.359
321.347
321.322
321.367
321.52
321.729
321.988
313.811
313.603
313.396
313.189
313.069
313.005
312.993
312.918
312.95
312.984
313.002
312.954
312.945
312.83
312.823
312.818
312.849
312.943
313.061
313.204
304.628
304.555
304.5
304.423
304.387
304.359
304.362
304.315
304.334
304.352
304.353
304.343
304.333
304.292
304.299
304.295
304.309
304.341
304.389
304.436
371.47
370.363
369.151
368.13
367.27
366.741
366.403
366.297
366.079
366.012
365.986
365.859
365.639
365.203
365.077
365.163
365.207
365.736
366.521
367.446
361.866
360.969
359.927
359.076
358.329
357.866
357.61
357.538
357.386
357.298
357.332
357.242
357.045
356.681
356.599
356.666
356.681
357.178
357.843
358.629
352.303
351.577
350.721
350.008
349.391
348.986
348.803
348.745
348.67
348.557
348.62
348.559
348.366
348.069
348.031
348.082
348.096
348.536
349.075
349.744
342.767
342.193
341.507
340.955
340.453
340.113
339.967
339.922
339.885
339.793
339.844
339.813
339.642
339.41
339.393
339.423
339.452
339.837
340.243
340.789
333.266
332.81
332.279
331.895
331.492
331.235
331.1
331.088
331.057
330.996
331.038
331.024
330.879
330.689
330.698
330.724
330.761
331.052
331.361
331.785
323.77
323.434
323.067
322.803
322.517
322.338
322.221
322.214
322.212
322.165
322.204
322.19
322.096
321.928
321.966
322.005
322.019
322.219
322.426
322.718
314.273
314.04
313.854
313.691
313.526
313.434
313.349
313.345
313.36
313.317
313.348
313.345
313.294
313.173
313.198
313.237
313.253
313.347
313.475
313.641
304.78
304.703
304.642
304.593
304.527
304.503
304.487
304.473
304.488
304.47
304.474
304.476
304.455
304.409
304.424
304.436
304.439
304.468
304.513
304.571
373.665
372.543
371.386
370.396
369.423
368.915
368.469
368.314
368.084
367.869
367.813
367.588
367.533
367.219
367.086
367.16
367.385
368.03
368.808
369.607
363.763
362.833
361.86
361.029
360.201
359.783
359.395
359.266
359.073
358.926
358.902
358.752
358.688
358.406
358.327
358.382
358.606
359.149
359.85
360.52
353.907
353.128
352.336
351.662
350.977
350.605
350.299
350.186
350.04
349.947
349.932
349.841
349.767
349.532
349.476
349.524
349.727
350.18
350.785
351.342
344.057
343.473
342.836
342.292
341.747
341.412
341.179
341.091
340.992
340.928
340.935
340.874
340.781
340.608
340.591
340.621
340.787
341.151
341.632
342.102
334.231
333.794
333.323
332.909
332.49
332.204
332.047
331.98
331.912
331.87
331.881
331.884
331.767
331.634
331.64
331.658
331.787
332.064
332.437
332.789
324.434
324.143
323.801
323.51
323.234
323.003
322.895
322.86
322.798
322.802
322.815
322.823
322.718
322.627
322.632
322.658
322.759
322.959
323.213
323.461
314.675
314.501
314.307
314.117
313.969
313.8
313.751
313.734
313.697
313.718
313.726
313.71
313.66
313.594
313.595
313.6
313.686
313.827
313.967
314.122
304.924
304.863
304.793
304.737
304.685
304.622
304.603
304.609
304.594
304.613
304.604
304.593
304.577
304.555
304.554
304.552
304.594
304.635
304.68
304.746
375.835
374.702
373.498
372.528
371.644
370.956
370.527
370.183
369.885
369.719
369.552
369.408
369.183
368.942
369.074
369.076
369.423
370.046
370.878
371.458
365.626
364.679
363.669
362.852
362.11
361.523
361.155
360.898
360.651
360.51
360.412
360.294
360.095
359.913
360.043
360.036
360.352
360.911
361.62
362.066
355.478
354.691
353.853
353.194
352.551
352.094
351.796
351.569
351.38
351.265
351.202
351.128
350.956
350.808
350.925
350.922
351.219
351.7
352.26
352.627
345.364
344.733
344.046
343.541
343.004
342.642
342.399
342.226
342.09
341.98
341.943
341.905
341.772
341.63
341.749
341.729
342.025
342.412
342.855
343.125
335.261
334.791
334.261
333.874
333.449
333.164
333.001
332.87
332.767
332.672
332.667
332.638
332.546
332.424
332.541
332.49
332.747
333.056
333.407
333.583
325.184
324.861
324.495
324.206
323.916
323.692
323.6
323.514
323.424
323.365
323.363
323.357
323.289
323.186
323.279
323.236
323.442
323.652
323.896
324.008
315.119
314.935
314.712
314.538
314.376
314.226
314.182
314.115
314.077
314.036
314.041
314.047
313.993
313.939
313.987
313.968
314.085
314.219
314.361
314.418
305.067
304.997
304.93
304.861
304.825
304.767
304.762
304.726
304.727
304.696
304.712
304.693
304.684
304.673
304.692
304.694
304.717
304.777
304.815
304.843
377.792
376.697
375.518
374.377
373.487
372.806
372.358
371.896
371.586
371.364
371.324
371.029
370.807
370.733
370.912
370.882
371.303
371.988
372.663
373.415
367.302
366.409
365.401
364.414
363.675
363.098
362.71
362.37
362.081
361.918
361.885
361.68
361.506
361.426
361.621
361.614
361.956
362.544
363.136
363.729
356.866
356.147
355.312
354.481
353.87
353.411
353.078
352.819
352.583
352.435
352.404
352.242
352.148
352.058
352.243
352.254
352.51
353.029
353.521
353.991
346.463
345.904
345.219
344.564
344.075
343.713
343.432
343.246
343.066
342.922
342.892
342.773
342.757
342.637
342.807
342.827
343.032
343.474
343.833
344.218
336.103
335.685
335.155
334.648
334.28
334.001
333.795
333.661
333.511
333.406
333.373
333.3
333.307
333.18
333.333
333.374
333.503
333.882
334.142
334.412
325.777
325.492
325.138
324.736
324.503
324.297
324.164
324.067
323.939
323.88
323.851
323.789
323.798
323.708
323.848
323.871
323.961
324.259
324.418
324.601
315.471
315.309
315.121
314.834
314.71
314.608
314.532
314.45
314.358
314.331
314.337
314.27
314.317
314.25
314.348
314.358
314.403
314.586
314.667
314.786
305.185
305.126
305.075
304.972
304.924
304.887
304.869
304.843
304.808
304.798
304.816
304.782
304.805
304.789
304.802
304.81
304.828
304.898
304.916
304.957
379.261
378.129
376.935
375.747
374.922
374.254
373.636
373.111
372.789
372.619
372.477
372.179
372.269
372.055
372.143
372.326
372.736
373.241
373.973
374.938
368.553
367.577
366.553
365.556
364.863
364.309
363.794
363.334
363.093
362.946
362.829
362.579
362.701
362.506
362.591
362.739
363.117
363.564
364.205
365.033
357.898
357.086
356.225
355.428
354.845
354.373
353.97
353.578
353.403
353.26
353.193
352.994
353.102
352.953
353.014
353.146
353.452
353.829
354.397
355.099
347.286
346.644
345.93
345.329
344.857
344.434
344.144
343.824
343.708
343.591
343.554
343.379
343.484
343.381
343.42
343.516
343.778
344.07
344.569
345.118
336.72
336.231
335.673
335.233
334.881
334.524
334.305
334.08
334.011
333.935
333.899
333.745
333.862
333.782
333.807
333.872
334.094
334.302
334.722
335.128
326.222
325.857
325.464
325.165
324.92
324.647
324.491
324.343
324.297
324.25
324.226
324.109
324.214
324.157
324.187
324.21
324.38
324.53
324.853
325.116
315.743
315.52
315.287
315.113
314.943
314.792
314.72
314.616
314.597
314.569
314.549
314.475
314.548
314.525
314.528
314.553
314.653
314.743
314.953
315.087
305.281
305.191
305.121
305.056
305.011
304.957
304.942
304.895
304.905
304.881
304.881
304.854
304.88
304.869
304.875
304.878
304.914
304.944
305.021
305.05
)
;

boundaryField
{
    hotSide
    {
        type            fixedGradient;
        gradient        nonuniform List<scalar> 
400
(
495.265
498.884
505.967
516.44
529.99
546.163
564.465
584.442
605.709
627.955
650.936
674.454
698.349
722.486
746.744
771.011
795.182
819.168
842.904
866.363
468.511
472.266
479.729
490.808
505.13
522.158
541.332
562.15
584.205
607.175
630.811
654.922
679.351
703.969
728.659
753.311
777.821
802.094
826.064
849.706
450.164
454.303
462.119
473.517
488.128
505.424
524.849
545.904
568.177
591.342
615.148
639.4
663.943
688.647
713.401
738.1
762.645
786.951
810.955
834.64
439.744
444.489
452.646
464.12
478.604
495.65
514.773
535.513
557.477
580.344
603.857
627.817
652.064
676.471
700.93
725.345
749.632
773.721
797.564
821.149
435.165
440.621
449.139
460.625
474.834
491.412
509.96
530.078
551.408
573.64
596.525
619.861
643.492
667.295
691.171
715.038
738.832
762.5
786.012
809.358
434.087
440.264
449.187
460.756
474.765
490.926
508.906
528.358
548.959
570.421
592.506
615.026
637.836
660.829
683.925
707.063
730.2
753.301
776.348
799.336
434.656
441.522
450.897
462.67
476.652
492.586
510.171
529.092
549.045
569.761
591.019
612.652
634.544
656.617
678.821
701.126
723.508
745.953
768.452
791.002
435.549
443.044
452.897
464.988
479.126
495.058
512.489
531.1
550.586
570.681
591.18
611.948
632.91
654.035
675.315
696.755
718.357
740.124
762.053
784.141
435.814
443.833
454.14
466.606
481.035
497.161
514.667
533.207
552.445
572.098
591.97
611.965
632.064
652.298
672.713
693.349
714.234
735.381
756.794
778.465
434.757
443.131
453.785
466.589
481.338
497.751
515.48
534.133
553.322
572.73
592.161
611.561
630.976
650.502
670.234
690.247
710.586
731.272
752.305
773.677
431.931
440.416
451.215
464.198
479.154
495.792
513.736
532.557
551.822
571.179
590.427
609.54
628.611
647.777
667.169
686.876
706.955
727.428
748.298
769.551
427.186
435.489
446.166
459.086
474.033
490.706
508.722
527.64
547.023
566.51
585.896
605.146
624.348
643.636
663.138
682.947
703.122
723.687
744.649
765.996
420.734
428.566
438.863
451.492
466.233
482.775
500.739
519.702
539.25
559.043
578.868
598.653
618.43
638.288
658.324
678.616
699.219
720.162
741.456
763.099
413.187
420.31
430.047
442.265
456.733
473.131
491.079
510.167
530.007
550.275
570.746
591.303
611.916
632.612
653.443
674.463
695.717
717.235
739.033
761.117
405.577
411.831
420.927
432.738
447.013
463.405
481.505
500.897
521.193
542.068
563.283
584.684
606.195
627.793
649.491
671.316
693.3
715.469
737.844
760.436
399.424
404.723
413.179
424.67
438.906
455.476
473.916
493.767
514.623
536.147
558.088
580.273
602.595
625.004
647.486
670.047
692.708
715.491
738.417
761.5
396.854
401.197
409.055
420.31
434.607
451.443
470.273
490.585
511.944
534.007
556.518
579.296
602.226
625.243
648.315
671.44
694.629
717.898
741.268
764.752
400.523
404.033
411.339
422.323
436.57
453.496
472.486
492.993
514.567
536.865
559.635
582.697
605.933
629.271
652.671
676.121
699.624
723.193
746.843
770.587
412.811
415.755
422.533
433.034
446.84
463.362
481.984
502.162
523.454
545.524
568.123
591.072
614.251
637.577
661.004
684.508
708.083
731.735
755.472
779.299
434.364
437.047
443.31
453.064
465.962
481.504
499.151
518.411
538.873
560.215
582.19
604.618
627.367
650.347
673.498
696.784
720.187
743.699
767.318
791.043
)
;
    }
    coldSide
    {
        type            mixed;
        refValue        uniform 300;
        refGradient     uniform 0;
        valueFraction   uniform 0.991591;
        source          uniform 0;
        value           nonuniform List<scalar> 
400
(
300.026
300.026
300.026
300.027
300.028
300.029
300.03
300.031
300.032
300.033
300.034
300.035
300.036
300.038
300.039
300.04
300.041
300.043
300.044
300.044
300.025
300.025
300.026
300.026
300.027
300.028
300.029
300.03
300.031
300.032
300.033
300.035
300.036
300.037
300.038
300.04
300.041
300.042
300.043