/*--------------------------------*- C++ -*----------------------------------*\
| =========                 |                                                 |
| \\      /  F ield         | OpenFOAM: The Open Source CFD Toolbox           |
|  \\    /   O peration     | Version:  2212                                  |
|   \\  /    A nd           | Website:  www.openfoam.com                      |
|    \\/     M anipulation  |                                                 |
\*---------------------------------------------------------------------------*/
FoamFile
{
    version     2.0;
    format      ascii;
    arch        "LSB;label=32;scalar=64";
    class       volScalarField;
    location    "./ITHACAoutput/true/11.8";
    object      error;
}
// * * * * * * * * * * * * * * * * * * * * * * * * * * * * * * * * * * * * * //

dimensions      [0 0 0 1 0 0 0];

internalField   nonuniform List<scalar> 
3200
(
3.01053
3.20459
3.42479
3.78582
4.23265
4.69659
5.09291
5.4772
5.6831
5.91827
5.9991
5.95932
5.71692
5.49192
5.08011
4.76928
4.4521
4.17972
3.97294
3.81477
2.57262
2.70563
2.94587
3.24089
3.62996
3.93968
4.35721
4.68911
4.88548
5.14111
5.11874
5.09127
4.9088
4.68717
4.38808
4.18589
3.81184
3.54557
3.38873
3.26652
2.1798
2.28781
2.52772
2.74341
3.00714
3.38105
3.69013
3.99425
4.08707
4.27747
4.35145
4.26774
4.13132
3.92512
3.70304
3.46634
3.16844
2.95804
2.82206
2.72982
1.75183
1.82942
2.01036
2.17765
2.41565
2.70476
2.88766
3.17679
3.3481
3.43494
3.46406
3.45721
3.3492
3.11891
2.9628
2.84187
2.60711
2.47365
2.31203
2.2529
1.39791
1.42564
1.58117
1.74888
1.92545
2.10567
2.31545
2.49691
2.65111
2.6349
2.7191
2.63598
2.53291
2.46531
2.23217
2.19693
2.03792
1.91575
1.81474
1.77353
0.959731
0.997801
1.07886
1.19432
1.3709
1.51709
1.56608
1.79634
1.86483
1.91991
1.95445
1.9364
1.82159
1.65196
1.65506
1.52599
1.42656
1.3221
1.31186
1.25976
0.604395
0.632549
0.677362
0.73458
0.726445
0.867162
1.03103
1.07053
1.04705
1.13668
1.12533
1.14217
1.09364
1.04165
0.964604
0.931045
0.805118
0.799239
0.781539
0.722177
0.166216
0.197553
0.180553
0.217356
0.203718
0.325192
0.339489
0.321548
0.373666
0.33795
0.391402
0.363101
0.345681
0.344043
0.376792
0.296191
0.28977
0.272328
0.273305
0.256051
2.40509
2.56338
2.84269
3.17146
3.54642
3.91225
4.33472
4.76698
4.9687
5.19492
5.27897
5.22916
4.90162
4.67306
4.3086
4.05232
3.68431
3.47621
3.25897
3.05053
2.0338
2.18304
2.47906
2.63729
3.02702
3.35772
3.73875
4.0835
4.31817
4.47593
4.44782
4.43567
4.27014
3.96605
3.73064
3.47394
3.21268
3.01647
2.80406
2.71191
1.7818
1.85918
2.0535
2.36037
2.59314
2.92804
3.15855
3.42809
3.65184
3.71914
3.85118
3.75597
3.64093
3.42958
3.21394
2.97864
2.71617
2.5266
2.41408
2.29176
1.36673
1.5038
1.71214
1.88319
1.97788
2.30587
2.56657
2.72926
2.99095
3.11846
3.13811
3.11514
2.93428
2.6764
2.6286
2.40862
2.22287
2.06847
1.88921
1.90685
1.09443
1.211
1.29907
1.55922
1.62375
1.78638
1.9369
2.13904
2.34972
2.3911
2.44093
2.3426
2.2987
2.11031
2.06222
1.85827
1.71521
1.53109
1.47297
1.45548
0.724151
0.821206
0.970066
1.06073
1.14851
1.26908
1.40078
1.58525
1.69266
1.69431
1.75822
1.73913
1.68742
1.55408
1.46213
1.35434
1.25758
1.10694
1.06897
1.02492
0.464944
0.464704
0.560405
0.680007
0.756079
0.801926
0.814815
0.930126
1.04282
1.02298
1.05434
1.01962
0.955652
0.931077
0.916683
0.748294
0.681184
0.717494
0.639329
0.638036
0.170817
0.168131
0.214032
0.279849
0.221948
0.255953
0.297107
0.318029
0.306093
0.40592
0.373369
0.379867
0.324867
0.306968
0.255023
0.275315
0.273043
0.229967
0.215168
0.233288
1.6247
1.70647
2.00087
2.2547
2.61747
2.93919
3.35885
3.72131
3.93928
4.10828
4.21591
4.08588
3.88383
3.6509
3.33286
3.04062
2.76727
2.4877
2.34872
2.24909
1.45807
1.51297
1.75414
2.00765
2.30603
2.52884
2.90517
3.17508
3.4847
3.6429
3.60553
3.54422
3.34018
3.13553
2.89779
2.59975
2.39739
2.22731
2.12787
1.9497
1.18053
1.29024
1.46748
1.64233
1.87636
2.18594
2.48322
2.68407
2.9045
2.9883
3.06809
3.04044
2.92764
2.65697
2.48427
2.233
1.99349
1.81769
1.74036
1.66865
1.02081
1.04456
1.24521
1.34719
1.61726
1.83355
2.02194
2.22373
2.42837
2.54647
2.54439
2.46339
2.30149
2.17926
2.04346
1.85497
1.68662
1.54276
1.47147
1.40155
0.755903
0.886895
0.900276
1.08572
1.20971
1.43162
1.55723
1.74025
1.88819
2.01001
1.96125
1.89984
1.82975
1.79397
1.55925
1.47956
1.3181
1.19165
1.1791
1.06403
0.549108
0.551769
0.742394
0.741854
0.827905
0.972809
1.12337
1.2468
1.34528
1.41154
1.34065
1.35646
1.25762
1.19565
1.08774
1.00932
0.910042
0.827693
0.77927
0.80272
0.335269
0.394363
0.412898
0.477157
0.553213
0.598479
0.691954
0.754143
0.822151
0.797364
0.904297
0.830648
0.815276
0.777039
0.741935
0.608178
0.585618
0.444876
0.487785
0.437395
0.113703
0.119013
0.150921
0.12414
0.220848
0.254144
0.217144
0.209695
0.274149
0.241261
0.285881
0.337749
0.251835
0.215583
0.202721
0.216155
0.179439
0.150991
0.182429
0.135551
0.82156
0.851509
1.09789
1.33903
1.61318
1.95194
2.25047
2.57996
2.83438
3.00319
3.09151
2.95549
2.80349
2.63259
2.2751
1.98503
1.7316
1.57755
1.38621
1.3934
0.726023
0.729633
0.923724
1.16159
1.48353
1.7107
1.95764
2.30311
2.53067
2.64147
2.7043
2.49578
2.46406
2.18915
1.95722
1.75888
1.53555
1.35102
1.21637
1.19663
0.593596
0.639731
0.873628
1.01068
1.23409
1.4496
1.65417
2.00706
2.17123
2.24699
2.27764
2.20991
2.07354
1.9045
1.67568
1.47221
1.30763
1.20926
1.04104
1.05729
0.522681
0.498361
0.715243
0.812835
0.968509
1.13609
1.37514
1.60367
1.75837
1.84363
1.80498
1.79308
1.68954
1.50277
1.37384
1.24275
1.13699
0.984773
0.876968
0.818594
0.336145
0.473807
0.581657
0.688291
0.758555
0.920299
1.06714
1.23407
1.32841
1.44863
1.4761
1.41778
1.32187
1.28052
1.12721
0.95318
0.844326
0.747126
0.681156
0.690751
0.264696
0.27824
0.343041
0.470206
0.541748
0.654812
0.77779
0.920249
0.941984
0.996174
1.02608
1.00052
0.959833
0.912077
0.772698
0.683662
0.584786
0.488607
0.525169
0.384024
0.201993
0.217227
0.145362
0.255836
0.327938
0.370946
0.528876
0.536223
0.63152
0.61992
0.640904
0.65149
0.640805
0.540297
0.433925
0.404335
0.421111
0.372823
0.219207
0.317086
0.0030951
0.110615
0.0838464
0.0363484
0.0462638
0.161811
0.16123
0.198064
0.121445
0.233905
0.221404
0.266033
0.239622
0.167007
0.158281
0.085487
0.115344
0.122399
0.129143
0.120464
0.0253906
0.0365191
0.152706
0.335591
0.702767
0.956278
1.24019
1.56347
1.77467
1.78815
1.90494
1.90495
1.67474
1.4554
1.18169
0.987308
0.789136
0.571201
0.488499
0.451254
0.0721024
0.0600102
0.211224
0.390804
0.638609
0.850923
1.18304
1.36145
1.4863
1.66787
1.75807
1.62034
1.40558
1.25941
1.04492
0.834203
0.709548
0.57241
0.43268
0.38601
0.0178119
0.0460793
0.121781
0.327503
0.541705
0.718986
0.935087
1.15069
1.27429
1.39361
1.41133
1.32893
1.29568
1.11966
0.969315
0.67942
0.59381
0.550289
0.406477
0.280007
0.00748847
0.0593723
0.191347
0.252709
0.475461
0.603878
0.797489
0.903201
1.07004
1.15295
1.16262
1.09979
1.02571
0.877497
0.797562
0.650292
0.549036
0.40021
0.374041
0.253244
-0.015043
0.0670069
0.11151
0.172632
0.30166
0.466172
0.629426
0.779476
0.838376
0.937836
0.882326
0.81311
0.802644
0.681317
0.615439
0.512035
0.39075
0.341721
0.281759
0.201973
0.04434
0.075052
0.075779
0.131779
0.22201
0.330312
0.467689
0.501359
0.617238
0.684216
0.721867
0.619697
0.601203
0.514096
0.436544
0.331157
0.274235
0.19704
0.136835
0.188708
0.0337844
0.00751648
0.0863315
0.0834595
0.14968
0.135375
0.219705
0.316015
0.400121
0.353613
0.385843
0.392273
0.308905
0.330745
0.2886
0.230009
0.176761
0.0942146
0.0769459
0.108464
0.0282223
-0.00222388
-0.00658368
0.0445847
0.0170623
0.0510861
0.0366929
0.123127
0.141913
0.105577
0.135378
0.169427
0.087597
0.0503948
0.114275
0.0924863
0.0711945
-0.0409907
0.0470277
0.0148231
-0.69576
-0.698334
-0.694511
-0.46473
-0.235451
0.0461351
0.271923
0.492974
0.637222
0.747965
0.860464
0.753696
0.60693
0.38376
0.185895
0.0143528
-0.173595
-0.366576
-0.42332
-0.423617
-0.570535
-0.593317
-0.520525
-0.422198
-0.196201
-0.00699895
0.204767
0.365966
0.610487
0.648602
0.73795
0.628448
0.476826
0.435954
0.199155
0.0468986
-0.171774
-0.272889
-0.328275
-0.304425
-0.515736
-0.474442
-0.394377
-0.314684
-0.197823
-0.0157891
0.205291
0.39372
0.453133
0.540994
0.679143
0.600763
0.426049
0.269065
0.183518
-0.0357049
-0.0866505
-0.245885
-0.201101
-0.197869
-0.415726
-0.383194
-0.343176
-0.224238
-0.109557
0.0294893
0.175737
0.30682
0.391361
0.459877
0.450195
0.462159
0.37205
0.2326
0.178113
0.107488
-0.0245261
-0.142984
-0.156779
-0.237283
-0.327441
-0.277799
-0.22455
-0.230138
-0.0759827
-0.000732241
0.149279
0.228004
0.357545
0.385099
0.454648
0.353363
0.210232
0.206803
0.148232
0.0700861
-0.0806392
-0.0615453
-0.0797955
-0.142564
-0.241987
-0.158238
-0.15451
-0.0950651
-0.129136
0.0473367
0.0725823
0.182793
0.259336
0.278165
0.217713
0.240552
0.232907
0.163135
0.162824
0.00175472
-0.0664357
-0.0632858
-0.100999
-0.125068
-0.1104
-0.118776
-0.060464
-0.0364837
-0.0518891
0.0248826
0.0612256
0.181793
0.110504
0.130099
0.190136
0.13759
0.104513
0.0970223
0.0155374
0.0506611
-0.050145
-0.0465195
-0.0617221
-0.0569165
-0.0414713
-0.0519339
-0.000710785
0.0304075
-0.0502565
0.0207991
0.0684768
0.030548
0.0866204
0.0227703
0.0352953
0.0692962
0.041682
0.0431068
0.0033218
0.0480705
0.0266035
-0.0523631
-0.0239102
-0.017925
-1.40379
-1.30157
-1.35276
-1.24947
-1.1508
-0.818278
-0.654694
-0.496416
-0.431286
-0.331157
-0.267797
-0.38959
-0.489142
-0.64978
-0.802961
-0.889701
-1.07928
-1.16863
-1.19646
-1.14609
-1.17523
-1.23217
-1.18084
-1.10453
-0.924415
-0.739815
-0.5768
-0.406166
-0.320306
-0.180805
-0.197358
-0.263323
-0.405812
-0.435351
-0.635836
-0.792709
-0.956415
-0.988957
-0.950613
-0.994787
-0.973355
-1.01563
-0.945298
-0.871122
-0.821324
-0.672711
-0.495913
-0.386799
-0.224404
-0.149053
-0.13085
-0.222868
-0.26591
-0.439382
-0.575448
-0.685983
-0.739832
-0.812424
-0.796226
-0.866631
-0.757867
-0.791757
-0.759464
-0.701582
-0.671395
-0.528069
-0.420653
-0.248852
-0.250481
-0.178412
-0.155319
-0.175167
-0.180354
-0.220762
-0.393474
-0.542732
-0.631924
-0.626702
-0.681075
-0.665573
-0.637377
-0.680809
-0.622318
-0.57292
-0.464862
-0.402197
-0.318732
-0.247014
-0.142818
-0.0612793
-0.104837
-0.106774
-0.165577
-0.225384
-0.350969
-0.412207
-0.447791
-0.521742
-0.5198
-0.525012
-0.482818
-0.444646
-0.387097
-0.34846
-0.380428
-0.262699
-0.244838
-0.234168
-0.132451
-0.0345573
-0.0454789
-0.1032
-0.0968687
-0.219775
-0.288304
-0.264556
-0.351857
-0.357404
-0.36297
-0.444596
-0.287035
-0.309915
-0.224045
-0.147539
-0.227448
-0.138902
-0.110778
-0.0519632
-0.0601454
-0.0195722
-0.0218842
-0.0464402
-0.046406
-0.134934
-0.117733
-0.182227
-0.140677
-0.138668
-0.25452
-0.250615
-0.0809805
-0.147574
-0.0510939
-0.0666749
-0.0384995
-0.108105
-0.00499031
0.0096302
-0.0587349
-0.00610497
0.0219452
-0.0380177
0.0359767
-0.155358
-0.097465
-0.0155191
-0.094309
-0.106044
-0.120087
-0.0767717
-1.9601
-2.02595
-2.03905
-1.98629
-1.93268
-1.68735
-1.58889
-1.41597
-1.32083
-1.25255
-1.23993
-1.2772
-1.3631
-1.5794
-1.67672
-1.81033
-1.89242
-2.02558
-1.89875
-1.83956
-1.74627
-1.68682
-1.73377
-1.7533
-1.60509
-1.52688
-1.33022
-1.28951
-1.13515
-1.04121
-1.10495
-1.09839
-1.2313
-1.35103
-1.40805
-1.54428
-1.61325
-1.7221
-1.64094
-1.57474
-1.42968
-1.42917
-1.42166
-1.45777
-1.42677
-1.24321
-1.1212
-1.0219
-0.956603
-0.874244
-0.859645
-0.976849
-1.01907
-1.09276
-1.23551
-1.27935
-1.3641
-1.35142
-1.36685
-1.37279
-1.13862
-1.2102
-1.17599
-1.16381
-1.14489
-1.06165
-0.974325
-0.827022
-0.75983
-0.757804
-0.704176
-0.712427
-0.81483
-0.857681
-0.98302
-1.04109
-1.14523
-1.08758
-1.1673
-1.15153
-0.92136
-0.9547
-0.884409
-0.95045
-0.870292
-0.772219
-0.722262
-0.647974
-0.569004
-0.575591
-0.576362
-0.513454
-0.69919
-0.675764
-0.764417
-0.831982
-0.851455
-0.795591
-0.824812
-0.892994
-0.650195
-0.661547
-0.63875
-0.680554
-0.618852
-0.563495
-0.522714
-0.454981
-0.410745
-0.382425
-0.36355
-0.37705
-0.375911
-0.467764
-0.537141
-0.538957
-0.585717
-0.655795
-0.593849
-0.579515
-0.383223
-0.455807
-0.396669
-0.40931
-0.342511
-0.376285
-0.314848
-0.203847
-0.304235
-0.219326
-0.232824
-0.240251
-0.336691
-0.250656
-0.294499
-0.266113
-0.344407
-0.398129
-0.376645
-0.332872
-0.0745373
-0.130376
-0.0568097
-0.143356
-0.118749
-0.14013
-0.0788225
-0.104756
-0.0962055
-0.0594777
-0.0629076
-0.16871
-0.0744728
-0.08375
-0.146955
-0.118344
-0.21322
-0.107047
-0.074156
-0.0810569
-2.50886
-2.57831
-2.54061
-2.64699
-2.6409
-2.53634
-2.41658
-2.25116
-2.25858
-2.18532
-2.19822
-2.25268
-2.26212
-2.42795
-2.50228
-2.52971
-2.64683
-2.63012
-2.50403
-2.43955
-2.16158
-2.26737
-2.25167
-2.26965
-2.23866
-2.14982
-2.10152
-2.00854
-1.92995
-1.90558
-1.89414
-1.94054
-1.97992
-2.06922
-2.10854
-2.17319
-2.28971
-2.19984
-2.18192
-2.12479
-1.82116
-1.81706
-1.94099
-1.87771
-1.8574
-1.82842
-1.69914
-1.68668
-1.52884
-1.58134
-1.5252
-1.65355
-1.65204
-1.66818
-1.80946
-1.85432
-1.87508
-1.89468
-1.87214
-1.74084
-1.42282
-1.52329
-1.54769
-1.60058
-1.53448
-1.45649
-1.41418
-1.3814
-1.31868
-1.26423
-1.27146
-1.31172
-1.3566
-1.34678
-1.47428
-1.5118
-1.51965
-1.56465
-1.46534
-1.46136
-1.12534
-1.19738
-1.19217
-1.12151
-1.2471
-1.15838
-1.01912
-1.07011
-0.979763
-1.03177
-0.992501
-1.02963
-1.06607
-1.04998
-1.11138
-1.19163
-1.18496
-1.22177
-1.14699
-1.15895
-0.786324
-0.855055
-0.808823
-0.824086
-0.83825
-0.863181
-0.738191
-0.738161
-0.629304
-0.678167
-0.691303
-0.778509
-0.718353
-0.71828
-0.780773
-0.778915
-0.818167
-0.82669
-0.860925
-0.726991
-0.48739
-0.59149
-0.546117
-0.476813
-0.442017
-0.435719
-0.427743
-0.431236
-0.428849
-0.465462
-0.412272
-0.451404
-0.531055
-0.43141
-0.466421
-0.50457
-0.523817
-0.524702
-0.568918
-0.447031
-0.157114
-0.156262
-0.207202
-0.159298
-0.141201
-0.161544
-0.0900573
-0.145099
-0.150151
-0.169669
-0.127285
-0.151571
-0.10306
-0.166857
-0.21979
-0.152665
-0.116497
-0.161798
-0.154019
-0.104408
-2.88856
-2.95958
-3.10529
-3.21335
-3.13247
-3.15914
-3.0606
-3.06221
-2.97171
-2.98482
-2.96876
-2.96589
-3.09765
-3.17864
-3.20451
-3.31028
-3.24276
-3.225
-3.02344
-2.99617
-2.38295
-2.6211
-2.68189
-2.79588
-2.73394
-2.72899
-2.69154
-2.62645
-2.54317
-2.59172
-2.58093
-2.59575
-2.60435
-2.67076
-2.76269
-2.81527
-2.7931
-2.73613
-2.6839
-2.54476
-2.10925
-2.20951
-2.29299
-2.29863
-2.26654
-2.28229
-2.28146
-2.241
-2.16125
-2.1479
-2.19148
-2.19284
-2.21814
-2.28711
-2.37509
-2.3154
-2.34778
-2.23183
-2.27171
-2.15104
-1.66609
-1.7637
-1.82684
-1.85147
-1.8691
-1.85119
-1.88778
-1.72431
-1.77971
-1.73595
-1.78938
-1.72686
-1.83714
-1.85398
-1.88191
-1.94097
-1.84487
-1.88037
-1.84713
-1.71552
-1.3047
-1.36418
-1.44191
-1.47451
-1.46264
-1.47974
-1.39006
-1.3621
-1.35968
-1.30832
-1.35071
-1.35238
-1.4095
-1.42269
-1.42896
-1.39224
-1.46659
-1.44627
-1.42134
-1.2968
-0.882095
-0.992438
-0.993492
-0.998745
-1.10103
-0.985767
-1.04467
-0.978276
-0.959619
-0.896608
-0.939673
-0.996337
-0.959721
-1.02778
-0.996073
-1.03702
-1.01546
-1.02984
-1.04469
-0.973302
-0.598579
-0.522303
-0.540559
-0.631859
-0.633796
-0.617532
-0.542845
-0.664513
-0.572685
-0.566513
-0.536519
-0.587868
-0.61335
-0.573696
-0.592369
-0.573179
-0.66752
-0.60161
-0.596095
-0.532035
-0.231218
-0.168385
-0.188731
-0.272448
-0.209795
-0.274968
-0.179403
-0.190742
-0.177735
-0.1798
-0.225769
-0.17575
-0.098491
-0.12079
-0.219005
-0.253151
-0.201795
-0.193077
-0.208809
-0.265705
-3.09927
-3.30723
-3.54035
-3.60434
-3.67315
-3.66449
-3.71037
-3.62943
-3.6032
-3.67272
-3.69046
-3.68375
-3.76302
-3.8062
-3.85283
-3.91179
-3.85043
-3.64789
-3.56507
-3.38806
-2.67135
-2.81513
-3.02684
-3.12158
-3.17582
-3.19998
-3.21541
-3.20655
-3.13561
-3.09549
-3.14006
-3.20511
-3.2522
-3.29542
-3.25704
-3.27014
-3.30474
-3.17914
-3.06791
-2.94798
-2.27754
-2.32646
-2.52015
-2.69733
-2.68675
-2.67415
-2.71438
-2.63756
-2.62971
-2.62119
-2.67141
-2.6869
-2.72932
-2.70612
-2.83684
-2.70647
-2.78118
-2.6882
-2.59084
-2.42636
-1.89196
-2.00412
-2.07543
-2.18219
-2.18113
-2.11349
-2.1905
-2.17039
-2.1402
-2.12341
-2.21045
-2.16857
-2.25172
-2.31876
-2.32129
-2.1851
-2.19111
-2.15852
-2.01834
-1.90459
-1.4153
-1.45704
-1.56857
-1.7381
-1.64896
-1.70838
-1.74474
-1.67014
-1.64042
-1.6687
-1.69607
-1.6771
-1.74658
-1.67966
-1.80239
-1.79581
-1.72921
-1.64409
-1.56387
-1.48904
-1.03122
-1.08553
-1.1395
-1.1576
-1.17262
-1.17288
-1.20605
-1.21287
-1.19688
-1.15094
-1.1685
-1.18366
-1.22661
-1.26849
-1.24697
-1.23395
-1.21301
-1.22795
-1.18916
-1.12145
-0.580135
-0.669942
-0.665236
-0.67238
-0.73022
-0.739728
-0.705253
-0.777699
-0.676762
-0.671212
-0.74467
-0.669734
-0.743223
-0.746792
-0.75673
-0.757033
-0.708498
-0.696232
-0.645232
-0.622427
-0.189545
-0.212007
-0.264282
-0.251461
-0.296091
-0.309201
-0.21328
-0.190276
-0.252457
-0.277379
-0.183148
-0.232996
-0.230258
-0.243321
-0.223013
-0.266173
-0.214645
-0.197583
-0.179523
-0.26968
-3.29182
-3.56858
-3.77595
-4.02893
-4.09451
-4.18279
-4.20433
-4.21401
-4.23256
-4.21031
-4.24401
-4.32599
-4.26895
-4.377
-4.35757
-4.31164
-4.20182
-4.04476
-3.86545
-3.70969
-2.86326
-3.01911
-3.3121
-3.43386
-3.56471
-3.52715
-3.68084
-3.65773
-3.61273
-3.5908
-3.6553
-3.67163
-3.69183
-3.78633
-3.72599
-3.7484
-3.59641
-3.51267
-3.33667
-3.21053
-2.42695
-2.59332
-2.74469
-2.82561
-3.00616
-3.01331
-3.02481
-3.02217
-3.05898
-3.09177
-3.0789
-3.1104
-3.11688
-3.1618
-3.12178
-3.03322
-3.01938
-2.941
-2.75972
-2.56995
-1.90339
-2.05908
-2.23894
-2.33921
-2.40428
-2.44638
-2.45571
-2.4975
-2.46251
-2.46768
-2.53237
-2.53042
-2.51071
-2.6467
-2.62128
-2.50343
-2.49377
-2.39219
-2.26428
-2.13129
-1.54339
-1.58571
-1.73305
-1.8037
-1.82846
-1.9341
-1.94942
-1.92502
-1.91982
-1.954
-1.91171
-2.0116
-1.96868
-1.95996
-2.02671
-1.95395
-1.88497
-1.8681
-1.76345
-1.62621
-1.12218
-1.15998
-1.24712
-1.306
-1.30804
-1.394
-1.31524
-1.33122
-1.35368
-1.3475
-1.41611
-1.45756
-1.38172
-1.36875
-1.40147
-1.34943
-1.36692
-1.3164
-1.19833
-1.18629
-0.635746
-0.721158
-0.709531
-0.754257
-0.797567
-0.794773
-0.868489
-0.880829
-0.809039
-0.867308
-0.887467
-0.805415
-0.828614
-0.824619
-0.906698
-0.870642
-0.793861
-0.729653
-0.668185
-0.710777
-0.22268
-0.238762
-0.241647
-0.340358
-0.293004
-0.316333
-0.286917
-0.299054
-0.322067
-0.283095
-0.317273
-0.250405
-0.277971
-0.357594
-0.285352
-0.25425
-0.280647
-0.25781
-0.291726
-0.205221
-3.39525
-3.65086
-3.95308
-4.17258
-4.40477
-4.55497
-4.56149
-4.58067
-4.63468
-4.61848
-4.69676
-4.73605
-4.71911
-4.79412
-4.79692
-4.58967
-4.51613
-4.344
-4.08036
-3.83502
-2.89511
-3.19715
-3.38264
-3.55909
-3.77914
-3.84132
-3.94113
-3.9393
-4.00516
-4.0222
-4.02601
-4.13088
-4.04805
-4.11709
-4.08653
-3.98905
-3.89442
-3.75033
-3.50779
-3.28617
-2.45834
-2.58451
-2.84295
-3.04056
-3.14255
-3.18268
-3.33973
-3.37441
-3.37393
-3.39705
-3.41818
-3.43254
-3.4706
-3.35616
-3.45197
-3.28872
-3.25191
-3.08885
-2.9435
-2.74066
-1.97455
-2.11342
-2.35227
-2.42398
-2.53928
-2.61116
-2.7466
-2.77554
-2.70178
-2.80068
-2.72022
-2.74166
-2.78802
-2.78545
-2.74938
-2.70194
-2.66343
-2.50846
-2.37787
-2.28495
-1.52664
-1.65127
-1.76842
-1.92161
-2.01591
-2.09372
-2.09618
-2.05608
-2.09848
-2.16764
-2.11309
-2.2067
-2.13797
-2.05569
-2.18537
-2.123
-2.01673
-1.9386
-1.91938
-1.80153
-1.13102
-1.13282
-1.29765
-1.37176
-1.39861
-1.38022
-1.50809
-1.4605
-1.49834
-1.56824
-1.49
-1.57062
-1.5181
-1.53799
-1.59377
-1.50611
-1.50035
-1.35525
-1.35487
-1.21904
-0.65777
-0.703664
-0.767815
-0.887674
-0.876289
-0.904996
-0.861939
-0.893656
-0.909445
-0.968201
-0.886957
-0.910749
-0.916206
-0.950218
-0.91668
-0.932777
-0.878223
-0.796348
-0.745171
-0.703339
-0.167045
-0.282414
-0.245812
-0.279526
-0.275803
-0.313869
-0.327966
-0.315957
-0.265582
-0.307804
-0.310889
-0.272765
-0.344081
-0.31227
-0.268749
-0.316127
-0.325244
-0.327441
-0.226093
-0.246808
-3.33158
-3.59631
-3.96378
-4.20361
-4.46211
-4.68621
-4.78248
-4.92872
-4.96055
-4.94502
-5.11736
-5.00675
-5.09507
-5.10871
-5.01504
-4.84679
-4.77566
-4.51339
-4.17553
-3.90346
-2.82456
-3.1208
-3.39808
-3.61326
-3.88332
-4.02485
-4.13116
-4.16224
-4.19475
-4.25874
-4.32433
-4.33054
-4.29336
-4.19706
-4.2665
-4.17118
-4.02727
-3.81228
-3.63983
-3.40152
-2.3534
-2.57054
-2.88118
-3.06495
-3.22083
-3.37312
-3.44214
-3.61106
-3.50144
-3.58434
-3.63141
-3.6236
-3.60296
-3.66583
-3.56375
-3.49572
-3.4388
-3.22608
-3.09054
-2.82567
-1.97311
-2.12728
-2.25796
-2.50904
-2.68682
-2.75991
-2.84938
-2.83694
-2.88637
-2.9106
-3.02446
-2.93264
-2.98853
-3.00126
-2.90748
-2.82675
-2.75281
-2.58612
-2.42859
-2.23554
-1.50899
-1.70941
-1.7451
-1.8917
-2.00554
-2.11717
-2.20036
-2.21135
-2.22602
-2.22181
-2.33796
-2.23168
-2.30696
-2.28349
-2.24468
-2.18457
-2.07468
-2.08405
-1.89329
-1.77329
-1.11576
-1.15917
-1.27166
-1.40108
-1.49391
-1.45416
-1.60492
-1.56036
-1.62593
-1.60386
-1.60269
-1.64212
-1.64374
-1.66669
-1.63875
-1.55609
-1.4709
-1.46305
-1.32601
-1.21335
-0.70513
-0.741552
-0.714474
-0.810068
-0.860466
-0.902464
-0.924438
-0.911189
-0.977461
-1.00109
-0.967627
-0.995993
-0.998729
-0.982813
-0.934128
-0.958248
-0.913938
-0.800793
-0.763631
-0.779744
-0.227661
-0.163679
-0.289853
-0.249587
-0.335752
-0.315863
-0.329992
-0.362799
-0.333335
-0.282982
-0.320718
-0.345965
-0.334472
-0.354136
-0.328382
-0.331854
-0.304953
-0.333711
-0.218085
-0.2236
-3.14389
-3.46852
-3.84025
-4.23159
-4.53295
-4.72078
-4.8941
-5.00733
-5.04756
-5.14207
-5.14773
-5.20124
-5.24812
-5.17717
-5.08604
-4.93869
-4.75332
-4.43044
-4.10313
-3.8694
-2.69064
-2.98292
-3.34288
-3.63545
-3.91335
-4.05163
-4.25484
-4.2997
-4.4267
-4.46998
-4.44711
-4.44132
-4.40171
-4.47771
-4.41902
-4.23122
-4.07198
-3.76833
-3.52923
-3.2599
-2.3077
-2.53736
-2.77992
-3.06726
-3.22408
-3.40888
-3.49427
-3.63139
-3.6724
-3.7488
-3.68509
-3.77221
-3.78004
-3.74789
-3.73926
-3.57332
-3.44746
-3.21916
-2.92025
-2.7918
-1.82067
-2.01815
-2.26942
-2.48514
-2.63969
-2.68783
-2.90946
-2.96642
-2.99617
-2.96572
-3.07092
-3.10333
-3.06784
-3.03635
-3.01799
-2.86249
-2.75103
-2.70254
-2.43852
-2.21678
-1.4332
-1.60578
-1.75663
-1.9114
-2.04313
-2.17382
-2.21297
-2.28204
-2.31248
-2.36383
-2.30362
-2.31086
-2.33653
-2.33017
-2.33719
-2.22014
-2.08464
-2.00399
-1.91406
-1.72592
-0.975881
-1.10825
-1.28544
-1.338
-1.42059
-1.54131
-1.58621
-1.62602
-1.65461
-1.71203
-1.67193
-1.7194
-1.70275
-1.62986
-1.62177
-1.60311
-1.5495
-1.41663
-1.31585
-1.19248
-0.680531
-0.693929
-0.760718
-0.796351
-0.835857
-0.944751
-1.01333
-1.00346
-0.961503
-0.9994
-1.01874
-0.982725
-1.02339
-1.0228
-0.986611
-0.969913
-0.983891
-0.79825
-0.825655
-0.778898
-0.271945
-0.200317
-0.258392
-0.346763
-0.279508
-0.320686
-0.327369
-0.365269
-0.329438
-0.325235
-0.388284
-0.346743
-0.329704
-0.307371
-0.311065
-0.299954
-0.277748
-0.346645
-0.307543
-0.246403
-2.80328
-3.21501
-3.6355
-4.00496
-4.37998
-4.53063
-4.84035
-4.96306
-5.07867
-5.16602
-5.26153
-5.28427
-5.17957
-5.15955
-5.06216
-4.86113
-4.63358
-4.3711
-3.98142
-3.70642
-2.40931
-2.75068
-3.12433
-3.46512
-3.75622
-4.02775
-4.13838
-4.25906
-4.34603
-4.46181
-4.44652
-4.49536
-4.43555
-4.39841
-4.29653
-4.20622
-3.9822
-3.7414
-3.32853
-3.1493
-2.02209
-2.28219
-2.57618
-2.90049
-3.12251
-3.32422
-3.43828
-3.57077
-3.68435
-3.73344
-3.74143
-3.74855
-3.7929
-3.70606
-3.61488
-3.46037
-3.37291
-3.09622
-2.87932
-2.61117
-1.6551
-1.85015
-2.1342
-2.30868
-2.48056
-2.69475
-2.83811
-2.86896
-2.95942
-3.06473
-3.04958
-3.13321
-3.10082
-3.0805
-2.96603
-2.86912
-2.66682
-2.52108
-2.29995
-2.0926
-1.26871
-1.37668
-1.6854
-1.81975
-1.98456
-2.0779
-2.17736
-2.24264
-2.23145
-2.3278
-2.38307
-2.38025
-2.46648
-2.27095
-2.24794
-2.19856
-2.10236
-2.01442
-1.81681
-1.56641
-0.902023
-0.97282
-1.09337
-1.28119
-1.36213
-1.42999
-1.55088
-1.52432
-1.70003
-1.73134
-1.63747
-1.65523
-1.73944
-1.69218
-1.65001
-1.5971
-1.45065
-1.4319
-1.26053
-1.12773
-0.567857
-0.613977
-0.75511
-0.841597
-0.89253
-0.869967
-0.825653
-0.930966
-1.01471
-0.951917
-0.963209
-0.979287
-1.01152
-0.93644
-0.919006
-0.92678
-0.84
-0.791472
-0.743507
-0.652834
-0.223981
-0.209875
-0.296144
-0.221985
-0.319477
-0.255346
-0.299723
-0.26798
-0.289197
-0.358372
-0.354304
-0.338758
-0.358361
-0.256467
-0.423432
-0.395639
-0.29036
-0.317695
-0.22131
-0.265846
-2.38314
-2.82898
-3.30554
-3.68057
-4.077
-4.38331
-4.63456
-4.8405
-4.94627
-5.0196
-5.09631
-5.08005
-5.17169
-4.97316
-4.97697
-4.67334
-4.38945
-4.0708
-3.69581
-3.35314
-2.049
-2.44067
-2.76645
-3.30683
-3.50183
-3.75578
-3.96127
-4.11238
-4.22865
-4.37708
-4.35689
-4.3744
-4.27462
-4.20907
-4.26027
-3.97662
-3.80961
-3.51468
-3.18748
-2.81585
-1.74327
-1.98052
-2.34475
-2.70959
-2.96016
-3.14926
-3.29429
-3.39916
-3.56068
-3.66855
-3.72057
-3.72442
-3.71405
-3.57041
-3.55426
-3.39516
-3.17025
-2.83253
-2.61308
-2.3619
-1.32596
-1.62889
-1.94201
-2.23101
-2.33551
-2.56047
-2.63565
-2.72227
-2.92969
-2.95682
-2.98509
-3.02413
-2.91539
-2.90036
-2.84272
-2.71243
-2.60399
-2.35881
-2.12184
-1.87032
-1.07213
-1.25125
-1.54265
-1.73844
-1.85652
-2.02182
-2.09609
-2.15855
-2.23292
-2.32592
-2.29006
-2.31568
-2.26254
-2.28686
-2.24041
-2.11607
-1.98868
-1.76864
-1.6431
-1.45102
-0.742215
-0.914151
-1.02135
-1.14986
-1.29814
-1.39775
-1.45332
-1.5307
-1.61004
-1.6152
-1.62745
-1.63752
-1.63672
-1.64824
-1.60874
-1.47854
-1.46153
-1.31395
-1.13693
-1.01995
-0.456053
-0.578724
-0.669147
-0.735265
-0.709887
-0.898618
-0.927599
-0.931657
-0.916695
-0.944849
-0.925313
-0.989388
-0.987755
-0.978053
-0.913527
-0.892212
-0.868019
-0.712884
-0.711269
-0.657492
-0.156707
-0.156473
-0.215515
-0.227917
-0.290904
-0.28317
-0.248836
-0.375142
-0.370803
-0.241662
-0.296033
-0.344751
-0.397339
-0.324794
-0.284234
-0.317352
-0.317718
-0.320758
-0.249713
-0.171269
-1.83085
-2.31095
-2.83166
-3.28126
-3.65201
-4.05455
-4.31513
-4.49233
-4.7154
-4.79149
-4.83588
-4.82417
-4.7565
-4.71875
-4.60472
-4.40487
-4.1027
-3.65848
-3.28287
-2.88472
-1.64058
-1.99566
-2.39049
-2.81196
-3.11635
-3.48762
-3.67727
-3.87477
-3.91722
-4.05113
-4.18343
-4.19076
-4.05735
-4.06009
-3.9022
-3.69598
-3.46752
-3.23051
-2.82242
-2.51412
-1.31472
-1.6851
-1.96734
-2.40406
-2.68163
-2.89275
-3.06309
-3.22262
-3.3673
-3.45728
-3.47982
-3.4947
-3.44387
-3.36909
-3.33145
-3.17416
-3.02233
-2.6293
-2.26829
-2.10214
-1.07951
-1.32766
-1.64236
-1.95185
-2.17819
-2.40571
-2.52569
-2.67849
-2.74623
-2.84395
-2.83795
-2.84153
-2.79393
-2.83237
-2.64892
-2.53269
-2.31601
-2.17492
-1.82191
-1.65122
-0.805467
-0.997863
-1.28855
-1.47158
-1.61679
-1.74539
-1.95725
-2.05978
-2.13317
-2.18374
-2.16734
-2.2008
-2.20877
-2.18228
-2.0058
-1.93197
-1.83725
-1.60556
-1.39883
-1.30328
-0.564602
-0.769688
-0.943702
-1.06306
-1.20081
-1.33646
-1.34557
-1.36923
-1.58344
-1.52514
-1.59347
-1.54242
-1.51635
-1.5324
-1.48755
-1.39553
-1.30927
-1.20444
-1.07037
-0.925891
-0.353236
-0.430693
-0.537885
-0.69948
-0.709654
-0.776872
-0.788141
-0.856688
-0.898247
-0.966403
-0.91094
-0.939096
-0.898482
-0.896628
-0.879001
-0.763744
-0.797704
-0.772489
-0.618226
-0.516024
-0.0735007
-0.15061
-0.214069
-0.199239
-0.195846
-0.269569
-0.272062
-0.29281
-0.320288
-0.266097
-0.344853
-0.313595
-0.232757
-0.277108
-0.255173
-0.26067
-0.238416
-0.270881
-0.213395
-0.205657
-1.23001
-1.76368
-2.27187
-2.84446
-3.2055
-3.58329
-3.85854
-4.09779
-4.32311
-4.45738
-4.44119
-4.54423
-4.47325
-4.33812
-4.21196
-4.01806
-3.65624
-3.28592
-2.80876
-2.4013
-1.15333
-1.49256
-1.97889
-2.37361
-2.7513
-3.06253
-3.32389
-3.55728
-3.69417
-3.77668
-3.87793
-3.91201
-3.86374
-3.73579
-3.59221
-3.39812
-3.13632
-2.80552
-2.35596
-1.97257
-0.950013
-1.27163
-1.62162
-1.9704
-2.33552
-2.57709
-2.77536
-2.98608
-3.12114
-3.30808
-3.27342
-3.26886
-3.21402
-3.13033
-2.96071
-2.86458
-2.59068
-2.33729
-1.92414
-1.76511
-0.736129
-0.980598
-1.2971
-1.70632
-1.92035
-2.11188
-2.27293
-2.42171
-2.49926
-2.59482
-2.61755
-2.62583
-2.57855
-2.59854
-2.38997
-2.29011
-2.10835
-1.91628
-1.6458
-1.37117
-0.592834
-0.769226
-0.998443
-1.21486
-1.4921
-1.69639
-1.73069
-1.81756
-1.94939
-1.99327
-1.99798
-2.06599
-2.0076
-1.94822
-1.91211
-1.81371
-1.60283
-1.47941
-1.17363
-1.00923
-0.420081
-0.587179
-0.72147
-0.888758
-1.04095
-1.1226
-1.26882
-1.29916
-1.44127
-1.38036
-1.43025
-1.44474
-1.46668
-1.38747
-1.30534
-1.25458
-1.11944
-1.0474
-0.809607
-0.77117
-0.281626
-0.362026
-0.450688
-0.524192
-0.652766
-0.700131
-0.799561
-0.829815
-0.746155
-0.915248
-0.814494
-0.816915
-0.87581
-0.899807
-0.86648
-0.759045
-0.7565
-0.603128
-0.49259
-0.439335
-0.0310685
-0.0914792
-0.221232
-0.204289
-0.187029
-0.225978
-0.241245
-0.236954
-0.280442
-0.252152
-0.277641
-0.369787
-0.339883
-0.288779
-0.212051
-0.25795
-0.258578
-0.206505
-0.154407
-0.0992738
-0.752782
-1.30241
-1.79717
-2.3182
-2.80039
-3.18807
-3.5119
-3.78084
-3.99234
-4.05745
-4.1512
-4.18863
-4.07218
-4.02866
-3.81122
-3.61078
-3.25041
-2.90059
-2.37232
-1.92856
-0.665122
-1.10008
-1.68441
-2.0102
-2.42317
-2.73728
-3.00486
-3.31878
-3.40443
-3.57793
-3.58352
-3.60385
-3.58706
-3.45819
-3.29936
-3.06618
-2.79943
-2.37281
-2.07249
-1.68507
-0.583996
-0.926624
-1.30455
-1.72534
-2.05786
-2.4327
-2.58724
-2.78466
-2.90692
-2.9965
-3.00789
-2.98418
-2.98914
-2.9437
-2.77769
-2.61658
-2.32357
-2.01711
-1.72673
-1.47793
-0.455259
-0.781443
-1.08201
-1.38899
-1.62893
-1.94549
-2.07422
-2.27464
-2.37834
-2.41914
-2.48393
-2.46835
-2.47574
-2.36603
-2.29081
-2.2242
-1.91214
-1.71568
-1.43072
-1.09221
-0.402698
-0.656371
-0.885191
-1.16668
-1.3158
-1.43527
-1.62591
-1.65847
-1.81402
-1.7846
-1.97267
-1.97404
-1.91883
-1.87328
-1.77048
-1.66473
-1.45613
-1.34581
-1.09834
-0.897906
-0.22967
-0.477002
-0.576871
-0.798114
-0.913178
-1.01763
-1.17785
-1.2477
-1.3643
-1.30044
-1.31984
-1.32723
-1.33484
-1.31598
-1.21158
-1.24785
-1.10362
-0.962461
-0.768423
-0.680563
-0.248172
-0.240443
-0.410417
-0.481836
-0.57141
-0.590004
-0.733836
-0.787323
-0.778519
-0.740509
-0.763649
-0.855836
-0.80817
-0.839208
-0.761534
-0.648541
-0.55906
-0.526097
-0.412743
-0.413743
-0.0938232
-0.13107
-0.127393
-0.187633
-0.196959
-0.245217
-0.260025
-0.180483
-0.343432
-0.228774
-0.317513
-0.271902
-0.276745
-0.237795
-0.298642
-0.2107
-0.175187
-0.217658
-0.126676
-0.119229
)
;

boundaryField
{
    hotSide
    {
        type            calculated;
        value           nonuniform List<scalar> 