/*--------------------------------*- C++ -*----------------------------------*\
| =========                 |                                                 |
| \\      /  F ield         | OpenFOAM: The Open Source CFD Toolbox           |
|  \\    /   O peration     | Version:  2212                                  |
|   \\  /    A nd           | Website:  www.openfoam.com                      |
|    \\/     M anipulation  |                                                 |
\*---------------------------------------------------------------------------*/
FoamFile
{
    version     2.0;
    format      ascii;
    arch        "LSB;label=32;scalar=64";
    class       volScalarField;
    location    "./ITHACAoutput/true/7.8";
    object      error;
}
// * * * * * * * * * * * * * * * * * * * * * * * * * * * * * * * * * * * * * //

dimensions      [0 0 0 1 0 0 0];

internalField   nonuniform List<scalar> 
3200
(
-3.13888
0.5847
2.6577
1.6593
4.39365
5.73441
3.76684
3.07314
1.88411
2.18031
4.30914
3.30053
1.61261
3.27133
2.79328
4.85251
3.07385
2.06534
1.77543
-0.760223
-4.21673
1.0628
0.919482
0.408342
2.52731
1.15218
2.94628
4.07046
3.67102
2.0177
1.6045
2.44862
3.60221
2.95104
2.08506
3.49721
1.39373
1.98059
-0.172602
-0.968501
-2.267
-2.53132
2.30266
0.718728
2.20828
2.17286
1.96173
-0.362379
1.75473
1.38061
3.15246
3.37036
2.11672
2.67313
0.524328
0.557018
-0.0675406
2.54229
-0.106757
-0.951849
-0.516654
-1.3122
0.906618
2.1557
1.05379
1.77204
1.28758
0.720435
-0.0374873
1.98804
3.35697
1.99143
2.19977
1.11918
0.787787
2.66948
0.887982
-0.322485
-0.496516
0.0788579
-2.33237
-0.70215
1.04792
3.88922
-2.34767
0.88922
1.7367
4.04077
0.206211
0.959679
2.23503
2.13919
1.99652
-0.544159
1.03009
1.1548
1.80844
0.931697
1.2688
-0.649837
-2.06167
0.317239
0.70899
-1.02546
0.211711
1.78628
1.46645
1.33581
0.0584767
0.664293
1.96631
1.55364
0.753669
0.80067
-2.36085
1.24481
0.078961
1.43437
0.0157661
-1.5882
0.797421
-1.32175
-0.426558
0.32304
-1.69033
0.516661
-0.450519
-1.15712
-0.601768
2.58205
2.58867
-0.170105
1.27514
2.05305
-0.338132
-0.0135199
-1.03901
1.29821
-0.667659
-0.174625
0.568296
-0.625402
-1.63161
0.366592
1.05357
-0.803552
2.0778
-1.51965
0.755846
0.987365
1.02168
1.28331
-0.436519
0.0749624
0.284988
-2.3684
-0.132002
-2.29427
-1.65134
1.61281
-3.31665
1.6851
2.54977
3.37038
1.7796
3.28858
1.77807
2.27726
2.48714
3.62147
4.68591
3.01523
1.15229
2.12126
4.14114
0.962106
3.39824
-0.00936504
-1.15081
-0.605031
-3.12391
-0.734942
0.35623
-0.0272723
2.3538
0.792584
2.09028
0.0179068
2.60024
0.304435
0.512644
2.66322
-0.418657
0.808582
0.507355
3.06521
-0.138327
2.35745
-0.648157
0.0730338
-2.25218
0.317932
1.36488
3.24177
1.16068
1.33842
2.55693
2.17433
1.11948
0.203538
3.17725
2.68948
1.60037
2.26897
3.31104
2.82384
4.84359
-0.543414
-0.545113
-1.01266
-1.14829
-2.28605
1.69753
0.273124
-1.97749
1.27835
2.96319
1.62948
-0.87791
3.24348
1.53925
-0.677559
1.22663
1.90221
2.35746
2.61868
0.572145
-0.288507
-0.37829
-1.64169
-1.26219
-1.06942
0.665781
3.13184
1.01309
0.296677
1.46617
1.91971
0.674841
0.124685
-0.235929
2.02779
1.86802
0.868989
4.46319
2.0605
0.975796
0.588421
-0.985252
-1.62893
-2.18843
-1.05845
-1.36986
0.98992
1.58733
-0.435924
-1.14244
0.216946
0.529824
1.34605
0.252701
-0.202476
1.04517
0.173881
0.107226
1.22172
3.85482
-0.775052
-2.17083
-0.48483
-0.891409
-0.73341
-0.511102
-2.64367
2.21198
-0.0454794
1.42887
0.0412471
1.45364
2.04265
-2.76018
0.633596
3.00542
0.755162
-1.36695
-0.485619
1.52019
0.718991
-1.23275
-0.917496
0.966075
-0.189361
0.739542
1.28899
1.161
2.14533
1.19964
0.781768
1.12442
-0.709186
-0.792889
2.88861
0.375214
-0.0812423
1.23311
1.19878
-2.15984
-1.01958
1.37695
1.30089
-1.12938
-0.184225
0.940073
4.30719
2.26804
2.97926
2.86979
3.97577
1.39569
2.64082
2.63999
1.12474
3.18324
2.50534
3.42184
1.39018
4.17044
3.53892
-1.82814
-1.45668
-0.00387439
-1.75411
2.73134
1.47671
1.38566
1.65668
4.00651
0.202235
0.83653
0.434984
2.42342
1.26171
2.31378
2.44747
-0.755416
2.51494
1.73296
1.90589
-1.42336
-1.17837
-2.41714
-0.657008
-0.432677
2.67138
-0.245807
1.9912
2.08285
3.22556
1.72951
1.48812
-1.72787
-1.42876
1.64443
1.37763
2.50284
-0.143196
-1.76446
1.99769
0.757235
-0.832397
-1.10394
-0.603241
2.02901
1.14158
1.97594
2.22455
4.71831
0.832694
2.25069
1.46026
0.203213
1.66998
-0.00852047
-0.407349
1.20268
2.62673
0.195119
0.206362
-0.82169
-2.44608
-1.37016
-1.48951
-0.53721
-0.414982
1.92494
3.09376
3.2342
1.36234
0.522648
0.373541
0.675494
2.17787
1.5531
0.521262
1.31075
2.4527
1.2709
2.38215
-0.258452
0.188969
0.271534
-0.463755
-0.658836
0.402883
-2.36915
2.44734
0.463148
1.09104
-1.47726
-0.675494
2.17483
-1.16151
-0.840557
1.58569
2.88032
0.686342
0.415075
1.2837
0.239662
0.9154
-0.638721
-1.10117
0.3514
-0.282506
-2.70066
0.497945
2.62447
-0.620521
1.09751
0.511008
-0.372338
-0.735572
1.48136
-1.34248
0.0821162
-1.92738
-2.6318
-0.292684
-1.17758
1.02066
-1.22938
0.408867
2.5938
2.48152
0.142953
0.984511
1.03433
-1.57793
0.399979
-0.195389
0.494558
0.268449
-0.362442
-0.103675
0.216456
1.2497
-0.86487
0.295381
-0.179185
-0.271112
-1.0491
-3.59617
0.993934
1.91572
3.24563
0.905363
3.81282
2.73583
2.3227
0.200387
0.907736
2.28522
1.57792
1.22855
2.08995
3.60049
-2.10642
5.70161
1.48459
-2.52758
-3.73438
-0.178992
0.695771
0.48044
0.620569
-0.696517
0.251674
-0.102241
1.79563
0.0219424
-0.507385
2.00703
-0.072685
1.08796
0.13782
2.58822
0.482854
0.924477
0.320158
-2.87244
-5.72124
-0.825129
-0.45644
1.49017
2.01234
0.137218
2.04319
0.795259
1.13642
2.13578
2.81436
0.326372
0.891185
1.27534
1.49869
1.18943
2.41451
1.73447
0.99232
-2.99908
-1.12001
0.0997176
-0.253278
-1.90916
0.528725
-1.01468
1.46781
3.13664
-1.31315
0.212019
0.885569
-1.41695
0.176536
2.26996
0.83281
2.94379
1.21261
-0.406461
-0.22879
0.249247
0.264153
-2.77441
-0.907126
-0.687492
1.10062
3.27836
1.39233
0.79138
0.637467
1.46362
-2.80593
-3.06679
-0.689485
-1.17215
0.367471
2.5302
-1.22171
0.164699
-0.615174
0.00499549
-4.96978
-1.32251
0.773315
0.363045
0.0124486
1.95186
-2.23862
0.0861228
-0.921221
-0.0869475
1.38953
-0.65307
-0.288495
2.3677
1.79942
1.13281
-0.308314
-0.885196
-1.03908
0.758498
0.708826
-2.52318
-0.256875
-2.79365
0.482544
-0.0593635
0.284691
1.87736
-0.47438
0.270799
-0.887503
1.80158
0.806121
-0.0732837
1.82131
1.39747
0.0665022
-0.295359
0.850699
1.94595
-0.320005
1.56583
0.82984
-0.188579
-1.85381
0.0198624
-2.32516
0.729959
-1.48587
-1.06488
1.38565
0.772524
-0.45092
-1.15642
3.01226
-0.62224
0.858069
-1.10626
-0.775314
1.02094
-1.71297
-2.42337
-0.072422
1.52347
3.30698
2.48626
2.08804
4.00597
0.546086
-1.26613
0.56478
2.09104
0.454371
0.352133
1.03319
1.27641
2.71579
-0.153657
-0.996645
-2.37027
-1.93019
-1.06902
0.13643
0.53932
1.93885
3.00841
2.19059
0.972801
-0.713463
-1.17032
0.535276
-0.770591
1.17124
2.50149
1.23381
0.542425
1.71343
1.14241
2.15876
-2.25203
-0.809501
0.00310695
1.09467
-0.352253
0.823554
0.787812
-1.04259
1.97961
-0.362846
-2.5048
-1.95914
0.43019
-1.61285
1.54108
1.7772
0.266285
-1.23735
0.185851
-0.046955
-0.372333
-2.60046
-0.920138
1.69819
1.65179
-1.56559
-0.435155
0.75502
-0.0818781
-0.375038
-0.965583
-0.77799
-1.0801
1.50931
1.89863
-0.943914
0.712421
0.595596
1.22508
-1.83913
-1.43316
-3.63495
-1.84647
0.188378
0.806135
0.300636
2.8344
-1.65682
-1.71993
-1.04595
0.240465
-0.0143958
-0.820026
-0.455243
-0.147779
1.69531
2.05899
0.368615
0.43964
-1.22997
-2.00172
-1.59734
-1.3834
-0.978223
1.76757
1.86357
0.60914
-0.533453
0.246732
0.619198
0.97351
1.25274
-1.58939
0.125997
-0.688903
-2.69637
-0.399371
-0.577533
-0.176189
-0.748266
0.0963026
-0.411281
2.06822
0.0860456
-0.58255
1.70215
2.54303
2.21588
-0.264273
-0.796324
2.15116
1.31466
0.539912
1.73657
-0.658371
0.77106
-0.737696
0.135816
0.459747
-2.18412
1.1626
1.18483
1.57342
0.529623
0.909081
-1.50855
1.90039
0.173066
0.57751
-0.48408
-1.44192
-0.198535
-0.626975
1.55509
-1.87808
0.184143
-0.22928
-2.64905
0.013748
-1.52171
1.39834
-2.87703
0.735788
-2.5866
-0.231731
-0.4482
1.33213
1.50618
0.873656
-2.99276
-0.0930816
-1.04276
-0.864466
0.93297
0.0266786
2.953
-0.522866
-0.144837
3.6144
-2.24372
0.756819
-3.66354
-0.461437
-2.10753
0.607696
-0.497135
-0.0291398
1.60633
0.220652
0.570518
0.057429
-0.416826
-0.318614
-0.558047
-1.68491
-0.0757235
2.42988
0.0722462
0.614046
-0.0141412
-6.04619
-1.07626
-0.859143
0.119954
0.954067
1.58128
1.71081
-1.07538
0.582272
-0.566723
0.183335
-2.28759
-1.84442
0.471274
-0.850306
-1.04959
2.12831
-2.51771
-1.00623
-2.40638
-2.38593
-3.71176
-1.47311
0.757555
-1.72175
-1.13212
-0.864563
-0.454677
0.0998451
0.931577
2.0668
-1.85905
-1.88125
-2.00686
2.43896
-0.475714
-1.3063
0.151349
1.26502
-1.56915
-2.77506
-1.46108
1.28952
-0.310738
0.594535
-0.4683
0.184887
0.942603
0.650754
-2.16043
-0.0632952
-1.6596
-0.721796
-0.713033
-1.37195
-0.606931
0.671434
1.34533
2.57628
-0.671195
-1.52063
-2.28339
-2.60625
-2.11599
-1.59891
0.997348
2.11924
-0.94886
0.856217
-1.27486
-0.909007
-0.440662
-0.283767
0.755345
0.853158
0.424029
-0.649196
-0.662157
-0.820738
1.24372
-1.35725
-2.58422
-1.61144
-2.08032
-0.432444
-0.17138
-0.730007
2.82118
0.496112
0.412308
-0.298953
1.65791
1.29604
1.18242
0.187632
0.292057
-1.05681
2.36358
-0.17294
0.781857
-0.865725
-0.497498
1.1838
-0.119301
-0.201329
-3.08134
0.175583
1.905
0.643034
1.72654
-0.825113
0.0503342
0.13384
0.941788
0.223039
-1.971
-1.03041
-0.826273
0.708377
-1.37797
0.935346
-3.07323
1.10327
-0.153047
2.16069
0.266765
0.84631
-0.120048
-2.75621
-2.63913
0.267516
-0.744286
-0.426417
-2.88949
-0.332577
0.0515356
-1.84515
0.44621
-0.108002
0.429027
-1.90208
-4.05041
-1.80814
-0.948758
-0.946461
0.499394
-1.47373
1.2371
-1.12337
-1.18057
-0.228952
-0.162646
1.69414
-1.70582
0.105429
0.875779
0.630459
-0.14693
-0.654377
0.181957
-1.37418
-4.44672
-0.689668
-1.83105
-0.760026
1.5943
-0.458786
1.16459
-1.54809
-1.10976
-1.77566
-0.592822
-1.58528
0.370993
-1.14609
1.98223
0.870561
0.321308
0.736707
-0.982571
-2.38619
-2.74949
-1.91018
0.312096
1.18142
-1.94453
-2.01703
-1.5108
0.254755
-1.39574
1.77803
-1.46087
-2.10279
-0.910444
-2.40976
-0.192669
1.41851
-2.23713
-1.92691
-2.99105
-1.52036
-1.05949
0.590173
-1.31234
-0.674264
0.592744
-0.83461
-2.77648
0.428908
-0.832924
-1.01281
-0.698597
-3.06621
-1.69874
0.481775
-3.00462
-2.6367
1.18467
-2.27205
1.18692
-1.08164
-1.20426
0.958592
0.467782
-2.52986
1.34396
1.36394
-0.344902
2.14199
1.78035
-0.640038
-2.18928
1.1982
-0.351278
0.737579
0.204771
-1.77336
-0.329636
-1.38289
-0.691599
-2.38662
-3.1972
-0.363373
-0.990396
0.935636
-1.42087
0.0979952
-2.34568
-0.566505
-1.1996
-0.297782
0.480014
-0.269976
-1.39927
0.751752
1.65656
2.8471
-0.564842
0.191138
-0.581709
2.04418
0.656714
1.54797
-1.20843
-0.323124
-2.17136
0.134413
-1.8736
3.10575
-1.70826
-0.00932261
-1.71428
1.12166
0.285383
-2.97479
1.39033
-1.99664
-1.14002
1.38968
-0.118597
-2.73616
-3.7046
-0.328837
-2.53272
-1.34197
-2.36204
0.768304
-0.789594
-1.96547
-1.45537
-1.22682
-3.51216
-1.34641
-0.424257
-1.8033
0.945213
-1.59775
-0.41965
-0.448745
-1.80841
-0.70432
-3.97686
-0.203359
-1.63962
-0.368508
1.74525
0.163602
1.09993
-0.414643
-3.04735
-0.00367155
0.320606
-3.66084
-0.417006
-0.114696
0.0898736
-2.93557
0.0241611
0.526482
0.0833483
-3.44435
-1.62392
-1.34387
-2.06925
-2.37973
0.111248
0.671766
0.51174
-1.34193
-2.20415
-1.59947
-3.10397
-3.67587
-2.76627
-0.151629
0.492425
-0.898734
-0.397344
0.0787183
-2.34277
-2.2086
-1.40261
-1.23486
-1.48917
-1.05076
0.695929
-0.259171
0.775677
-2.35481
-0.917806
0.137003
-1.13463
-2.99195
-1.34652
-1.88847
-0.906802
-0.151174
1.08677
-0.735808
-1.60597
-0.245331
-2.11694
-1.11824
-0.875093
-1.14233
-2.35476
1.26288
-0.373671
0.489601
-2.99398
-2.15538
-0.443627
-3.35759
0.683184
-0.1124
0.482658
-0.65052
-0.595418
0.368211
-0.819483
-4.04059
-0.0405329
-0.232932
0.586216
-2.16765
-0.445608
-0.414082
0.491454
-1.89701
0.223907
-0.659003
-0.304609
0.782207
1.4166
1.41311
0.628736
-2.54701
-0.207577
1.18666
1.42593
-1.42431
-3.24872
-0.132813
0.509083
0.467971
1.84847
1.44297
1.10341
1.58782
-1.65137
0.730139
-0.714117
-1.02235
1.04117
1.43526
0.973288
1.14077
1.30497
1.728
-0.906404
0.516471
-0.485759
-1.49005
-0.145058
-0.132191
0.612001
0.484936
-1.33904
0.686301
-0.631817
-2.48784
-3.20972
1.10608
0.223725
2.49252
1.26709
0.657413
0.915327
-1.7288
0.906325
-2.52425
-3.55932
-1.75455
-0.0553308
-0.577075
0.5948
-1.56579
1.31484
-2.04823
-2.9125
-2.45494
-2.26961
-0.740154
-3.67073
-1.28302
-2.98989
1.10393
-0.655853
-2.37439
-1.65713
-3.81225
-3.41997
0.927868
-0.958306
-2.08012
0.74841
-0.621808
-1.00359
-2.26715
-1.37934
-3.29352
-2.84293
-4.85967
-3.22689
-2.08286
-0.4087
2.06408
-3.5389
-0.552074
-1.11014
-1.2882
-1.68645
-2.25379
-0.360817
0.0513599
0.206346
-1.35377
-1.24899
-1.61916
-2.64664
-4.35526
-3.06721
-2.62069
-5.64542
-2.71113
-0.539362
-0.745728
-1.26072
0.227882
-0.0322059
-3.02564
-3.96204
-3.43383
-1.7351
-0.13892
-3.48248
-1.29323
-0.886276
-1.30764
-0.763102
-1.42893
-2.476
-0.637355
-0.172522
-3.48875
1.12227
-0.322485
-0.78585
-1.98246
-0.284663
-1.72684
-2.03597
-1.48698
-1.25704
0.584218
-1.2112
-0.558211
-0.744149
0.25981
-1.65929
-0.626602
-0.555898
-0.0813685
-1.17117
-1.40609
-0.395001
-0.73422
-2.56059
-1.49006
-0.437494
-2.12903
-2.59155
-1.74273
-0.596276
-0.35549
0.63311
1.50139
-1.42744
-1.4669
0.68334
-1.8215
-0.74268
-1.4003
1.20199
0.805946
1.58697
-1.11291
-0.604901
0.585672
-1.56122
-3.33181
-0.43483
0.748669
-0.391625
0.568688
0.338498
-2.30892
-0.389122
0.398227
-0.247315
-0.290647
1.69361
1.90142
-1.10443
-1.07712
-1.10706
0.78709
0.886542
-1.56974
-1.05066
-1.39234
-0.347062
-0.385842
-0.710752
0.930624
1.54232
0.519539
0.148616
-0.405289
-1.00606
-1.05027
-0.644371
-1.92285
-0.330949
3.05486
1.43083
-0.432532
1.88287
-1.93369
1.10935
-2.71582
-3.24604
-2.34652
-2.20796
-2.52317
0.60902
2.18259
0.107394
-1.67019
-1.34307
-0.476411
-0.378142
-2.67028
-1.86024
-1.75894
-1.75613
-4.62071
-0.116347
-4.35509
-1.38129
-3.16622
-2.77718
0.16183
-3.37219
0.277075
0.759511
-0.0300386
-1.43073
-0.0549893
-1.31673
-0.413398
-0.545177
-2.54751
0.120474
-0.331715
-0.672031
-2.31916
-0.084798
-1.16339
-0.102941
-2.37734
-3.3146
-3.05292
-1.28604
-1.07534
0.0582779
-0.0654339
-1.32787
-1.63804
-0.984245
-1.89968
-4.13076
-0.939509
-3.57619
-1.48015
-4.65463
-2.26549
-0.643133
-3.12505
-1.20211
-5.06839
-1.53473
-0.709013
-3.19079
-0.193972
-0.696437
-0.671029
-0.640704
-1.93009
-1.90512
-2.59596
-1.91975
-0.763897
1.87316
-0.683601
0.456657
-2.3951
-0.545518
1.99731
-2.56788
0.607635
-3.16351
-1.06379
-1.71168
-1.20032
-1.16625
1.21891
-2.97647
-3.5049
-4.2477
0.318807
-1.96069
-2.93813
-0.517063
-1.65165
-0.0803997
0.314862
0.741201
-1.18338
-2.13419
0.518396
-1.54356
-0.0757462
-1.35749
-0.691713
-1.60845
0.0547361
-0.178447
-2.51628
-2.54267
-0.975208
-1.88972
0.0331804
-2.10999
-1.30143
-1.07445
-1.7116
0.994947
-2.73269
0.956515
-2.27728
-2.07094
-1.98426
-0.484012
-3.99879
1.3466
-3.16098
-1.17184
-0.7922
-1.31456
-1.26018
-1.35161
-1.08489
-1.41188
1.13343
2.10346
-1.5318
-0.535295
0.532607
-2.02881
-1.58584
-0.411069
1.3945
-0.161175
1.72035
-0.619574
0.39268
-0.562002
-2.30805
0.533704
0.029575
-0.262685
0.353577
-0.328103
2.11061
1.64585
0.842537
-0.880417
-0.453511
-0.492781
0.102452
-4.97712
-3.45761
-0.767207
-1.32655
-0.488757
0.430177
-2.62814
0.18559
-1.86454
-3.86399
-2.72519
-2.43694
-3.47984
-1.82346
-2.88935
-1.07583
-1.3041
-1.10705
-4.29232
-2.97887
-3.38342
0.021533
-2.02884
0.389856
-1.79596
-0.105767
-1.76997
-0.0586145
-1.36878
0.650524
-0.44548
-2.18594
-0.519278
-2.76099
-0.404304
-2.38938
0.167591
-0.588848
0.355973
-5.0246
-2.15426
-2.15266
-2.66482
-0.633191
-1.22619
-2.5855
-2.50675
-1.36619
-0.506235
-1.60117
-3.88467
-1.93132
-1.66732
-2.13058
-1.39611
0.0928987
-0.590235
0.137738
-2.04511
-6.96806
-4.38998
-2.04938
-1.92886
-0.0683869
-0.0574072
0.145008
-0.25032
-1.84534
-2.4235
-1.21427
-4.46027
-1.10554
-1.3747
-0.48521
-0.221908
-3.52537
0.321984
-0.593888
-2.3323
-0.939786
-4.31235
-2.79199
1.85726
0.18532
-1.31405
0.163704
1.92427
-0.0802104
-2.47943
0.546616
-1.03072
-3.19473
-2.84407
-0.476123
-0.743358
0.239577
-0.668365
-1.76476
-1.23193
-2.45492
-1.82789
-0.558951
-1.4074
0.770067
0.78254
0.282023
-2.51338
-0.847841
-2.76395
-0.410488
-1.28729
-0.619726
-1.637
-1.43606
-1.50401
-2.00133
-1.28148
-1.5976
-1.16907
-0.828154
-0.088252
0.542182
1.39038
-0.297442
1.11184
-0.833775
-0.407954
1.34263
-1.63451
-1.07235
1.08533
-2.73197
0.156124
-1.56897
-0.572513
-0.0237972
-0.255356
0.366682
-0.713057
-2.67597
0.00475472
0.190864
0.321484
-0.493816
-1.08189
-1.38156
-0.650401
-0.852296
-2.74154
0.531983
0.245303
1.05559
-1.15442
1.8982
2.46604
1.44174
1.36315
1.53669
-1.55282
0.699585
-4.55664
-3.45105
-3.40999
-0.593374
0.750148
-3.51736
-2.71927
-1.85615
-1.30146
-2.08167
-1.31561
-4.10886
-4.60741
-1.55384
-1.66323
0.392549
-0.271108
-0.307925
-2.49791
-3.38253
-4.27652
-3.21629
-1.31496
-1.07958
-0.833412
-1.68232
-2.8092
-2.6714
-3.04456
-4.16326
-1.81231
-4.35424
-1.26816
-0.110749
-2.31605
-3.09638
-2.5812
-1.89214
-1.66319
-4.16505
-0.123383
-4.07107
-0.433598
-1.84128
-0.932514
-0.610983
-1.3813
-1.09872
0.0921218
-2.12607
-1.53099
-5.20105
-3.77397
-2.19268
-0.556856
0.211092
0.895114
-2.6329
-1.64532
-1.87206
0.472829
-2.24867
-0.240998
0.359377
-1.1305
-1.78173
-1.30578
-0.81163
-0.997391
-0.422846
-1.94688
-1.83797
-0.25183
-3.01026
-1.36941
-0.890871
0.960215
-1.88953
-2.19062
-3.95399
-3.03064
-2.19269
0.801543
-0.830751
-0.945614
1.44584
1.29345
0.586376
-1.24539
0.0757432
-1.50255
-2.24043
-0.157826
-0.68017
-1.51928
-1.24795
-1.55073
-0.70447
-0.150289
-1.26637
-3.0468
-1.57051
0.836389
0.96198
1.34761
1.20277
0.0602377
-1.29605
-2.35069
0.673282
-1.60537
2.47201
-1.35414
1.27981
-1.13742
1.60444
-0.0785285
-0.50069
1.67446
-0.19144
-1.15213
0.906243
3.27399
-0.0290262
-1.92638
-1.41196
-1.15583
1.46077
-3.55863
-2.38363
0.822157
-2.28038
-2.63136
-1.71234
0.669476
0.663903
1.13325
1.98153
-0.693603
-2.01107
-0.538856
-0.182077
-0.124389
-2.08896
-0.677132
-0.293879
0.310951
-0.175603
-0.0287264
-1.67277
1.67411
0.17654
1.51009
0.0903693
-0.102699
0.422923
-3.6883
0.650468
1.32928
0.245701
-4.53949
0.232047
-0.374289
1.47182
-0.26742
-1.17546
-0.584079
-0.648669
1.0157
-0.365765
-3.69917
-3.13162
-2.19228
-0.684936
-1.55536
-1.20101
0.313803
1.71169
-0.174217
-0.959627
-4.27943
0.245349
-1.22492
-0.201037
0.594929
0.349873
-0.17801
0.293804
-3.266
0.0384341
0.339258
-1.5007
-0.150912
-1.65923
0.493136
-1.62181
-0.100095
-0.785097
0.271499
-0.780987
-0.955384
-2.88731
-0.36804
0.487089
-0.0062344
0.458609
-0.666503
-0.300468
-0.19002
-1.63907
-2.16726
-3.09579
-0.511043
0.183526
1.05333
-1.22775
-1.52422
-2.01339
-3.2891
-3.16375
-2.42066
-1.24356
-0.366392
-0.821227
-2.01204
-0.86462
0.184708
-0.879361
-0.834522
-1.99636
-3.48426
-0.618022
-2.95422
0.835318
-2.38912
-2.01542
-1.45742
-2.24145
-2.89217
-2.59055
-4.21925
-2.20883
0.0864443
-1.02051
0.391983
0.972621
-0.596242
-0.611803
-0.83557
-0.167839
-2.71997
-1.67612
-1.43951
-2.62904
-2.16454
-0.234352
1.07049
-1.58084
0.156326
-4.00995
-1.86813
-3.32646
-1.668
-0.920195
-1.82011
1.22328
-0.70063
-2.69181
-2.08484
-0.0264345
-1.55623
-1.40038
0.477581
-1.36764
1.81959
1.42246
0.611266
1.05352
0.571658
-0.840024
-3.65658
0.772417
-1.41584
2.43921
1.19479
0.38168
0.505729
-1.97775
-1.32272
-1.17358
-0.681683
-2.63776
0.913161
-0.202389
0.238337
0.186399
-0.0624411
0.522275
0.984327
1.52664
-0.526978
3.40135
0.756807
-1.9782
2.11352
-0.322045
-0.305034
0.892899
-0.715757
-1.80539
0.467774
2.97831
-0.298084
0.309745
0.59153
-0.706496
1.7196
-2.87854
-0.998924
-0.603289
-3.29435
-5.00233
-2.01479
1.00381
-0.586442
0.762705
-0.401908
-1.50238
1.3757
0.068878
-1.86606
-3.09764
-0.156811
-1.71664
0.544394
-0.0989029
-0.601019
-3.87773
-5.39912
-3.02612
-3.82428
-2.43612
-2.4027
0.136142
-1.95214
-2.39826
-3.20548
-1.425
-1.19862
0.0388239
-1.65499
-2.69096
-1.33587
-1.17937
-1.56069
-4.00897
-1.39648
-2.14164
-2.65373
-1.40095
-3.43099
-0.965229
-2.39625
-4.33356
1.36319
-0.879502
-2.41409
-0.90778
0.0289936
-0.361554
-0.720051
0.265847
1.24211
-1.11973
-3.31921
-2.23851
0.766818
-1.38719
-5.22274
-2.79043
-0.72081
-0.931222
-1.76008
1.80249
0.600237
2.84719
-0.957976
0.591217
-0.074134
-0.628438
-1.68948
-1.86765
-2.61428
-0.301241
-0.661626
0.45373
-0.969292
-1.43382
-0.0696741
-2.04255
-4.16653
-2.99942
0.442785
-1.68806
-2.45936
-0.152907
1.51536
-1.8458
-2.76972
-4.39202
-2.58206
-1.88879
0.286862
-0.710223
-0.780873
0.781837
0.211966
-3.35303
-0.627596
-2.77121
-0.0805276
-2.01156
-0.648726
1.01555
-1.7848
1.79687
-1.55014
-3.89208
-0.0987369
0.573979
1.545
-1.98175
-2.13861
-1.09721
-2.79257
-1.23052
0.90231
0.505194
-2.56577
-2.46737
1.5635
-0.596033
-0.218536
0.864188
1.75356
-0.661062
1.55578
-2.02199
0.644241
-0.513945
-2.27018
-0.873923
-0.31349
-1.06646
-1.58687
-1.82276
-1.52602
-0.496504
-0.0896296
-0.635051
0.657036
0.506163
-0.846423
-0.21128
0.729929
-2.57948
1.30095
-0.0435209
-1.07698
0.441065
-0.270877
-0.804952
1.1661
-1.60941
-3.11649
0.834008
-0.148556
-0.380769
-0.0984959
-1.37489
-3.15596
-3.66016
-0.618914
-1.10499
0.764401
1.15378
-1.32569
1.73395
0.150577
-3.85056
-2.15539
1.6804
3.34965
-0.546827
-0.0719187
-1.1911
2.35025
-0.664714
-1.30775
-1.9807
-1.93693
-0.517182
0.0429011
0.33826
-0.0339378
-0.284501
-1.07288
-0.556626
0.48016
-0.428274
0.325614
0.23194
-0.0484676
-0.924877
0.528333
0.318591
0.0370366
-0.631399
-0.199241
-2.75011
-3.53019
-1.25459
-0.018899
-0.781931
-0.352256
2.02558
0.59758
0.204731
-0.654251
-2.70314
1.19783
-1.93828
-0.358937
2.19983
1.63865
-1.31134
0.825162
-2.81124
-2.40353
-0.608112
-1.13942
-1.85525
-1.1447
0.012693
-1.16443
-1.97063
1.88112
-3.72671
0.937076
-2.94563
-1.58359
-0.754167
-0.903921
-2.3241
-1.3124
-1.21277
0.43182
-2.26858
-1.2736
-3.44256
-2.29849
-0.956761
-1.13331
-3.37271
2.57043
0.186028
-0.392092
1.14612
-0.00409448
-0.343631
1.08441
1.98659
0.292761
0.0920499
-0.324781
1.67257
-1.32234
-0.303808
0.985834
-2.07107
-0.726912
0.540641
-0.921906
-2.65264
1.18033
-1.11327
-3.81822
-2.36046
-0.2304
-1.62843
-1.01193
0.489602
-0.815244
-0.207282
-1.31496
-0.977817
0.655793
-0.168323
-0.0496599
-3.75808
-0.130567
-0.749637
0.959782
1.67797
2.14883
-0.201676
-0.450912
-0.73666
0.635806
-1.65935
-1.29855
-0.528309
-1.74548
-0.790846
0.452228
-0.706168
-1.15953
-1.53826
0.507313
-0.284505
0.390279
0.886712
3.28497
-1.39235
0.838375
-0.427099
1.20562
-1.0786
-0.642155
-0.750628
-0.215613
-1.53952
-2.09577
-0.276897
-0.424786
0.805013
-0.33182
0.525778
-0.456465
-0.286349
-1.72718
-0.74409
-2.48195
-0.548879
0.869355
2.89577
-0.00665999
2.59852
2.22001
-0.133507
1.54322
2.04156
-1.01744
2.325
2.35447
1.14543
1.00988
2.28574
-1.22051
0.389454
-1.57457
0.370455
1.86693
0.464317
-0.586588
3.96199
-1.59106
-1.98409
-0.357516
1.86795
0.673503
0.491211
0.782704
1.5883
0.106187
-2.11942
-0.0385546
-0.106007
-3.4517
-0.879015
-2.58972
-0.663988
1.33914
-0.648485
-0.372452
1.14982
-2.23334
2.59141
-0.235193
-0.95337
1.91076
1.70593
2.94764
1.05056
-0.118218
0.349602
-0.58773
-0.555184
-1.777
0.609008
-0.867934
2.0599
0.685022
1.06351
2.11967
1.50572
-0.124733
1.34369
-0.827832
-0.955836
0.370838
0.243657
-0.722944
0.15933
1.48558
-2.19813
-0.796875
1.11198
0.567003
-2.04307
-0.862715
1.1649
-1.13033
0.709848
0.214044
-0.0381189
2.0536
0.829239
0.776073
-0.161258
2.02645
1.72532
-0.221835
1.13997
1.41946
1.13428
0.533244
-0.0286067
0.969024
-1.51609
-0.566722
-0.238424
-4.26881
-0.358331
1.33723
0.573376
-0.840506
2.00143
-0.650276
-1.91843
-0.228111
-3.25123
1.6608
-1.12841
0.74232
1.42632
0.341251
2.17074
0.0602969
-2.01989
-1.67152
0.424039
0.203218
3.15749
-1.84902
1.44772
1.60931
-0.400763
3.24378
-0.118767
0.589577
0.91259
1.06322
-0.0909875
3.00263
0.462387
1.12159
-0.12544
-0.640175
-0.155232
-2.21198
1.57748
0.0382838
-2.49901
-1.09167
2.07713
3.23471
-0.011676
-0.0774124
-1.2481
0.826726
-1.31749
-0.274396
0.919669
0.325552
-0.000581013
-1.00709
-0.661996
-2.84586
0.743763
-1.67727
1.98135
-0.845034
3.32191
1.47193
3.39783
5.32767
3.18411
1.02328
2.88349
0.437764
3.04622
0.546473
1.17038
2.9157
1.80329
2.91448
0.119778
0.0387404
-1.18291
-0.877325
0.56997
1.40264
-0.115169
2.6605
0.338506
3.99426
0.0737971
-0.818113
0.745121
0.404126
0.036605
-0.155971
3.34554
-0.339302
0.982688
0.158725
0.392361
0.417261
0.564554
-1.2193
0.468899
0.789994
1.40342
1.92766
3.27602
0.231316
-0.0348125
1.11478
0.713921
1.16666
0.988856
0.378273
0.721775
2.49349
0.750064
0.72917
4.23818
-1.30322
-0.436381
-0.120509
1.96883
-1.33648
1.25469
2.13503
2.97076
0.550987
2.88635
1.43211
1.36472
-0.695332
-0.436355
1.44353
-0.161758
1.94026
2.62076
1.53976
-0.538243
-1.83127
-0.030012
-1.58733
-2.41138
1.86069
3.03517
0.333009
1.63124
1.44039
-0.282254
3.36233
2.5833
0.173788
0.684453
-0.328838
0.884156
0.563497
0.753522
2.41662
-0.755663
-1.03271
-0.969033
-2.89547
0.570019
1.03988
-0.476221
0.926102
-0.342462
0.120803
1.90809
0.393098
-0.0383412
0.937639
-0.749548
-0.460822
-1.09074
1.56777
2.39164
1.23749
-0.582208
-2.0545
-0.341831
1.46192
-0.0477093
-0.309921
-1.9563
-1.51628
2.54085
-0.114342
2.69532
0.57668
1.47816
2.00417
0.460274
0.266898
0.559717
0.327467
1.9097
0.392778
-0.0856275
-1.33441
2.06463
-0.624421
-0.654252
-0.561822
-0.838935
0.9037
0.740716
-2.03152
3.2448
-1.13669
-0.582226
-0.10365
0.40944
0.637201
-0.934482
0.741257
0.561397
-0.408777
-3.72357
0.75339
1.87292
-1.86784
2.14496
5.38051
3.97304
4.16813
2.4281
2.27635
4.83886
4.61112
3.26328
3.27882
3.88489
3.84739
4.86415
4.95049
4.80149
3.26493
1.7684
2.0409
-2.12947
2.1395
1.29805
2.17075
1.97854
4.86788
2.60619
2.05078
3.64352
4.13216
2.03564
6.58972
2.17098
1.28514
2.31057
2.16397
0.753146
1.45432
0.929076
-0.059392
1.22727
-1.23485
0.87861
1.50327
1.43354
0.963779
2.27281
4.28289
1.94534
2.46
4.02018
3.49284
0.602095
2.92657
2.53767
1.33975
0.0263123
2.87126
1.92267
-1.24238
-0.0627812
0.24295
0.814113
2.92673
2.97029
1.57499
0.781896
3.98071
4.02314
1.89904
0.942127
0.000491988
1.19982
1.19286
1.15076
1.42146
4.48699
2.49692
2.48449
1.53792
-2.41561
0.582936
-0.0269124
2.55427
1.85263
1.42746
1.05918
2.11195
0.744925
2.40771
0.95217
2.29281
0.505741
1.90389
2.30944
4.47982
0.624054
1.53299
-1.02233
0.0960686
-0.508962
-1.38613
-0.218151
2.06495
0.351553
2.06766
1.03791
2.6344
0.835016
1.41293
0.710354
1.65758
0.329795
1.66524
0.484585
1.03762
-0.528308
-2.36029
1.91467
0.114981
-0.436787
-0.904452
-1.08268
1.80177
1.96082
-2.32482
-0.673322
1.92197
1.70901
-2.1914
1.49807
0.422838
1.70257
-1.4426
0.952813
-0.98474
0.267186
1.9996
0.115907
1.3832
-0.212719
0.474332
1.15258
-1.07714
3.48829
1.486
0.894043
-0.036605
-0.709187
1.00607
1.79893
0.852048
0.58293
-0.439403
0.760222
-0.559215
1.38888
1.73089
-1.20358
-1.01176
0.0383736
2.10621
2.02356
5.34599
3.49759
6.09314
6.21807
7.53963
5.37993
5.69165
4.13062
5.76212
5.65693
4.32035
4.17397
4.28176
5.48359
3.89563
2.82946
0.852885
0.18655
-0.41198
0.208198
0.952115
0.444216
4.95954
-0.147761
6.16602
0.320121
3.27127
-0.182657
-0.151234
3.98239
0.594668
5.04154
0.161811
2.5822
0.0792716
4.42859
0.325138
0.922825
1.69397
2.0235
3.09763
2.64628
2.5604
2.79966
4.51525
3.93584
1.27478
1.30523
2.01763
3.74386
4.20102
3.75537
3.8446
2.43703
1.34641
3.89579
3.0883
4.69873
0.0793107
0.493176
4.02251
2.1372
1.86814
1.46823
2.70519
3.06733
2.56391
3.43856
2.30054
-0.334165
1.92978
3.17887
-0.18197
-1.352
1.56704
2.96932
0.112116
-2.67166
0.752576
-0.296782
1.20875
2.30686
3.14255
0.72539
0.204766
4.29538
2.93143
5.53291
1.50257
1.01324
0.811472
2.38521
4.07436
0.902915
4.069
-0.0717619
1.25295
1.45632
-3.10344
0.652539
-3.18201
-1.69595
2.60408
3.10908
1.03008
1.09807
3.46338
3.02217
3.27007
0.411897
1.62476
0.992643
-1.81011
1.3701
-0.0123663
0.633359
0.0823155
-0.575523
1.72562
1.63893
1.03929
-1.70744
0.967282
-0.809219
2.73415
1.72504
1.05054
0.799595
1.12846
-0.675778
3.94292
4.94208
-0.329772
1.69373
-0.843542
0.280328
1.44955
1.2699
2.49126
0.0499779
3.02393
0.281954
0.600802
-0.652316
-0.236421
1.80606
0.684319
0.0647882
-2.25571
-0.306673
1.49077
1.62541
-2.01318
0.481942
0.266337
2.97196
-1.26883
0.248847
2.13028
4.95385
6.36303
6.0432
5.92192
6.92353
6.10101
5.03846
7.55362
5.13303
5.14995
5.19106
5.61281
6.91332
7.54402
5.27429
4.82402
3.00596
3.12872
2.92808
3.38167
4.62863
5.32448
1.65056
5.15665
4.40914
5.11095
5.37693
5.24355
2.28616
5.35259
4.30019
5.23992
3.79145
4.08239
5.65997
4.93654
1.13629
4.29695
2.26615
3.91051
2.63726
5.55862
3.39202
4.51903
5.71114
6.0726
5.38762
4.13967
4.29695
2.73755
2.63936
5.0665
1.60131
3.63426
2.28061
4.54613
4.68344
2.56338
0.933948
0.186826
0.367186
2.46122
3.39328
3.68776
3.28522
3.24625
5.64034
4.57602
2.64695
4.14101
3.66786
4.06763
2.16732
2.79859
4.09555
4.16817
1.40485
3.27179
0.332789
0.151257
0.385743
2.33709
0.0778664
0.358581
4.00177
5.2298
2.2854
3.2905
0.540113
2.43486
3.22265
-0.309664
1.8128
2.16545
0.688698
1.31955
1.22665
-0.395918
0.0198691
1.51804
0.333684
0.105347
3.9521
0.649646
1.47822
0.55552
1.012
-0.193255
0.00471129
0.465926
2.65092
2.26759
1.76401
1.64977
0.249453
0.791018
1.42964
-0.881824
-0.0854569
1.3007
1.42268
-0.47825
2.51089
0.267295
1.1448
3.39402
-0.26249
1.21671
-1.67207
0.469851
0.585501
2.76485
1.58164
0.799066
0.11473
-0.688505
1.96412
1.87671
0.457766
0.246129
-1.70624
-1.60901
-0.850217
0.0839614
1.00111
-2.42838
-0.308329
-1.06489
-0.28076
-0.0924039
-1.62881
-0.115398
2.64919
-1.65233
-0.269511
4.0732
3.49362
2.41776
0.887494
)
;

boundaryField
{
    hotSide
    {
        type            calculated;
        value           nonuniform List<scalar> 
400
(
-1.93644
-2.11116
0.0822075
0.171726
-0.479719
-1.62805
-1.80513
-2.41387
-2.24232
-1.89902
-3.59621
-3.13784
-3.07872
-1.78742
-1.59862
-0.115113
-0.00608123
-0.133106
3.90896
4.00554
1.82038
2.92356
1.05983
-2.34363
-1.15936
2.01436
2.39967
0.988799
-0.412125
-0.975591
-2.05431
-2.0114
1.71218
-3.47749
-2.08629
0.883206
3.66653
3.89254
3.83808
6.83989
3.92936
3.82389
2.21917
2.28062
1.22459
-1.27636
1.17351
-1.18656
1.31392
-0.811948
0.659424
-1.94871
1.12581
-0.471583
0.971812
-0.839223
0.854252
7.14097
7.17225
8.25977
2.96907
4.68224