/*--------------------------------*- C++ -*----------------------------------*\
| =========                 |                                                 |
| \\      /  F ield         | OpenFOAM: The Open Source CFD Toolbox           |
|  \\    /   O peration     | Version:  2212                                  |
|   \\  /    A nd           | Website:  www.openfoam.com                      |
|    \\/     M anipulation  |                                                 |
\*---------------------------------------------------------------------------*/
FoamFile
{
    version     2.0;
    format      ascii;
    arch        "LSB;label=32;scalar=64";
    class       volScalarField;
    location    "0";
    object      relativeErrorField;
}
// * * * * * * * * * * * * * * * * * * * * * * * * * * * * * * * * * * * * * //

dimensions      [0 0 0 1 0 0 0];

internalField   nonuniform List<scalar> 
3200
(
0.00899808
0.00167338
0.0075903
0.00472813
0.0124903
0.0162645
0.0106614
0.00868252
0.00531628
0.00614785
0.0121506
0.00931293
0.00455611
0.00925892
0.00792257
0.0137948
0.00875883
0.00589853
0.00508117
0.00217929
0.0123157
0.00309971
0.00267677
0.00118637
0.00732753
0.00333383
0.0085092
0.0117375
0.0105736
0.00580808
0.00461867
0.00705276
0.0103873
0.00852293
0.00603308
0.0101396
0.00404927
0.00576584
0.000503401
0.00282867
0.00674884
0.00752667
0.00683597
0.00213001
0.0065328
0.00641684
0.00578403
0.00106701
0.00516164
0.00405905
0.00926836
0.00991415
0.0062326
0.00788154
0.00154843
0.00164784
0.000200162
0.00754735
0.000317432
0.00283364
0.0015684
0.00397953
0.0027459
0.00651963
0.00318231
0.00534356
0.00387751
0.00216711
0.000112672
0.00597267
0.0100854
0.00598544
0.00661704
0.00337038
0.00237556
0.0080615
0.00268558
0.000976717
0.00150579
0.000239388
0.0072232
0.00217284
0.00323945
0.0120091
0.00724059
0.00273933
0.00534439
0.0124236
0.0006336
0.00294768
0.00686494
0.00657285
0.00613846
0.00167456
0.0031733
0.00356159
0.00558409
0.00288018
0.00392636
0.0020125
0.00651656
0.00100217
0.00223805
0.00323433
0.000667168
0.0056244
0.0046138
0.00420002
0.000183774
0.00208714
0.00617795
0.00488261
0.00236966
0.00251909
0.00743351
0.00392277
0.000249045
0.00452781
4.9806e-05
0.00502002
0.00257366
0.00426449
0.0013756
0.00104124
0.00544547
0.00166358
0.00144992
0.00372252
0.00193535
0.0083029
0.00832419
0.000547078
0.00410218
0.00660741
0.00108874
4.35547e-05
0.00334896
0.00418657
0.00215413
0.000563601
0.00187372
0.00206176
0.00537807
0.00120814
0.00347151
0.00264723
0.00684401
0.00500487
0.00248907
0.00325131
0.00336431
0.00422605
0.00143765
0.000246917
0.000938868
0.00780389
0.000435025
0.00756232
0.00544396
0.00531757
0.00950297
0.00482035
0.00727867
0.00959958
0.00505696
0.00932378
0.00503069
0.00643177
0.00701559
0.0102083
0.0132088
0.00850519
0.00325447
0.00600168
0.011741
0.00273395
0.00967892
2.67338e-05
0.00329197
0.00173355
0.00911992
0.00214257
0.00103662
7.92044e-05
0.00682197
0.00229254
0.00603501
5.16202e-05
0.00748732
0.000876091
0.00147527
0.00766867
0.00120687
0.00233452
0.00146752
0.00888385
0.000401731
0.00686014
0.00188957
0.000213214
0.00670217
0.000944996
0.00405052
0.00960404
0.00343256
0.00395141
0.00753685
0.00640054
0.00329222
0.000598266
0.00933902
0.00790931
0.00471098
0.00668807
0.00977516
0.00835116
0.0143496
0.00161268
0.00162025
0.00301354
0.00348477
0.00693082
0.00513984
0.000825794
0.00597018
0.0038539
0.00892142
0.00490049
0.0026381
0.00974244
0.00462345
0.00203605
0.00368896
0.00572708
0.00710713
0.00790598
0.00172989
0.000873552
0.00114689
0.00498212
0.00390795
0.00330855
0.00205767
0.00966834
0.00312387
0.000913761
0.00451103
0.00590125
0.00207316
0.000382911
0.000724543
0.0062295
0.00574236
0.00267366
0.0137466
0.00635356
0.00301238
0.00181858
0.00304816
0.00504344
0.00691596
0.00334309
0.00432347
0.00312172
0.0050014
0.00137238
0.0035939
0.000682028
0.00166487
0.00422865
0.000793866
0.000636242
0.00328577
0.000546996
0.00033757
0.00384943
0.0121562
0.00244616
0.00685655
0.00153218
0.00287668
0.00236601
0.00164807
0.00852034
0.00712532
0.000146425
0.00459821
0.000132684
0.00467474
0.00656791
0.00887503
0.00203757
0.00966784
0.00243017
0.00440101
0.00156429
0.00489946
0.00231842
0.00397688
0.00296087
0.00318511
0.000624242
0.00243757
0.00424784
0.00382538
0.00706739
0.00395135
0.00257463
0.00370273
0.00233524
0.00261086
0.00951222
0.00123571
0.000267595
0.00406227
0.00394986
0.00711772
0.00336059
0.00453921
0.00428897
0.00323274
0.000526479
0.00268108
0.012257
0.00643954
0.00844019
0.00811352
0.0112212
0.0039343
0.00743928
0.00743696
0.00317052
0.00898434
0.00708314
0.009694
0.00394706
0.0118678
0.010093
0.00522447
0.00416959
1.1301e-05
0.00510938
0.00794164
0.00428531
0.00401308
0.00478861
0.01156
0.000582628
0.00240736
0.00125107
0.00697009
0.00363096
0.00666589
0.0070617
0.00218352
0.00728362
0.00502896
0.00554157
0.00414597
0.00343713
0.00718764
0.00195141
0.00128314
0.00790887
0.000726481
0.00587506
0.00613598
0.00949001
0.00508363
0.00437192
0.00507628
0.00419962
0.00483812
0.00405842
0.00738466
0.000423214
0.00522384
0.00592431
0.0022491
0.00247523
0.00334807
0.00182778
0.00613988
0.00344963
0.00596233
0.00670307
0.014199
0.00250314
0.00676041
0.00438437
0.000610137
0.00501613
2.56132e-05
0.00122585
0.00362394
0.00792605
0.000589611
0.000624462
0.00248966
0.00741854
0.00424013
0.00460598
0.00165953
0.00128052
0.00593305
0.00952491
0.0099471
0.00418641
0.00160507
0.00114678
0.00207378
0.00668833
0.00477259
0.00160319
0.00403546
0.00755969
0.00392163
0.00735883
0.000799206
0.000584787
0.0008578
0.00146425
0.00207865
0.00127008
0.00746247
0.00770249
0.00145657
0.00342908
0.00464083
0.00212157
0.00683065
0.00364889
0.00264183
0.00498687
0.0090652
0.00216188
0.00130852
0.00405013
0.000756702
0.00289183
0.00206077
0.00355165
0.00113287
0.000910311
0.00869779
0.00160289
0.00844431
0.00199577
0.00352891
0.00164284
0.00119703
0.00236515
0.00476446
0.00431948
0.000264332
0.00620735
0.00848038
0.000943575
0.0037981
0.00329306
0.0040529
0.00134776
0.00854869
0.00817722
0.000470984
0.00324309
0.00340667
0.00519636
0.00131707
0.000643351
0.00162842
0.00088396
0.00119358
0.000341462
0.000713029
0.00411734
0.00284996
0.000973523
0.000590653
0.000893774
0.00299848
0.0102623
0.00283075
0.00544431
0.00920353
0.00256183
0.0107676
0.00771345
0.00654085
0.000563944
0.00255462
0.00643531
0.00444882
0.0034695
0.00591376
0.0102098
0.00598627
0.0162383
0.00423653
0.00722416
0.0108783
0.000520701
0.00202053
0.00139256
0.00179525
0.00201115
0.000725436
0.000294277
0.00516285
6.30543e-05
0.00145804
0.00577066
0.000209206
0.00313599
0.000397948
0.00748749
0.00139956
0.00268469
0.000931366
0.00836744
0.0169935
0.00244804
0.00135217
0.00440731
0.00594172
0.000404495
0.00601398
0.00233786
0.00333774
0.00626995
0.00826203
0.000958577
0.00261985
0.00375387
0.0044179
0.00351196
0.00714111
0.00513823
0.00294407
0.00890799
0.00339359
0.000301858
0.000765748
0.00576421
0.00159412
0.00305513
0.00441396
0.00942258
0.00394176
0.000636175
0.0026572
0.00425334
0.000530319
0.00682618
0.00250753
0.00887559
0.00366116
0.00122887
0.000692578
0.000755211
0.000816837
0.00857298
0.00280027
0.00211997
0.00339013
0.0100871
0.0042798
0.00243056
0.00195667
0.00449109
0.00860991
0.00941333
0.00211761
0.00360299
0.00113067
0.00779356
0.0037673
0.000508422
0.0019009
1.54475e-05
0.0156914
0.00417343
0.00243858
0.00114393
3.91929e-05
0.00614033
0.00703738
0.000270574
0.00289295
0.000272981
0.0043626
0.00205086
0.00090637
0.00744317
0.00566079
0.00356651
0.000971475
0.00279139
0.003279
0.00239484
0.00228618
0.0081354
0.000827871
0.00899915
0.00155364
0.00019104
0.000915766
0.00603667
0.00152496
0.000870398
0.0028526
0.00579143
0.00259209
0.000235732
0.00586122
0.00449941
0.000214223
0.000951899
0.00274288
0.00627629
0.00105484
0.00516092
0.0027347
0.000621352
0.00610712
6.54229e-05
0.00765743
0.00240367
0.00489233
0.00350602
0.00456213
0.00254359
0.00148483
0.00380844
0.00992181
0.00204988
0.00282726
0.00364562
0.0025554
0.00336535
0.00488617
0.00690209
0.000205874
0.00432183
0.00936159
0.00702385
0.00588782
0.0112782
0.00153568
0.00355846
0.00158731
0.00588035
0.00127922
0.000992936
0.00291882
0.00361332
0.00770424
0.0004368
0.00283859
0.00676107
0.00561278
0.00310454
0.000395541
0.00156076
0.00560049
0.00867425
0.00630576
0.0027964
0.00204886
0.00335906
0.00153635
0.00221291
0.00336684
0.00720072
0.00355749
0.00156682
0.00495857
0.00331209
0.00626928
0.00654866
0.00240077
9.20426e-06
0.00323823
0.00104039
0.0024285
0.00231948
0.00306523
0.00581311
0.00106458
0.00734565
0.00574543
0.00126216
0.00473613
0.00453077
0.00523244
0.000785223
0.00365455
0.000549783
0.000139103
0.00110424
0.00786933
0.00278193
0.00512808
0.00498145
0.00471516
0.00130887
0.00226826
0.000245736
0.00112477
0.00289477
0.00233238
0.0032393
0.00452982
0.00570393
0.00283913
0.00214563
0.00179619
0.00369943
0.0055604
0.00433693
0.011229
0.00570002
0.000580965
0.00248356
0.00092522
0.00871399
0.00508885
0.00527851
0.00320821
0.000737348
4.41426e-05
0.00251524
0.00139715
0.000453897
0.00521201
0.00633663
0.00113564
0.00135587
0.00379689
0.00618366
0.00503966
0.00436245
0.0030826
0.00556577
0.00586351
0.00191514
0.00167602
0.000774744
0.00194348
0.00305489
0.00393111
0.00498863
0.000395634
0.00216442
0.00847743
0.00125657
0.00181856
0.000555212
0.0023596
0.000303839
0.00132591
0.00666555
0.000277194
0.0018758
0.00547826
0.00818078
0.00712534
0.000849491
0.00255908
0.00691208
0.00422423
0.00173507
0.00558209
0.00211704
0.00248046
0.00237423
0.000437325
0.00148107
0.00703911
0.00374806
0.00390499
0.00518516
0.0017451
0.00299492
0.00496904
0.00625872
0.000569891
0.00190146
0.00159369
0.00474688
0.000653589
0.00206414
0.00512016
0.00618435
0.000606455
0.000755229
0.00872715
4.52992e-05
0.00501474
0.00460866
0.00818615
0.00209054
0.00733564
0.000655898
0.00126606
0.00375565
0.00423887
0.00245511
0.00840115
0.000261149
0.00292556
0.00242669
0.00262179
7.50818e-05
0.00832538
0.00147698
0.000409953
0.0102505
0.00637492
0.00215341
0.0106297
0.00133718
0.00609749
0.00175512
0.00143327
8.38676e-05
0.004616
0.000633245
0.00163578
0.000164578
0.00119452
0.000913522
0.00160153
0.0048418
0.000217941
0.00700547
0.000208659
0.00177655
4.09792e-05
0.017543
0.00318584
0.00254046
0.000354208
0.00281301
0.0046552
0.00502907
0.00315692
0.00170741
0.00166047
0.000536931
0.00669964
0.00540404
0.00138193
0.00249618
0.00308537
0.00626562
0.00742332
0.00297126
0.0071156
0.00706262
0.0112144
0.00444687
0.00228419
0.00518495
0.00340496
0.00259704
0.00136426
0.000299304
0.00279067
0.00618919
0.00556707
0.00563555
0.00601592
0.0073181
0.00142899
0.0039288
0.000455777
0.00381432
0.00473679
0.00838437
0.00450785
0.00397582
0.000957186
0.00182956
0.00143963
0.000567818
0.00289229
0.00199529
0.00662057
0.000193911
0.00508436
0.00221192
0.00218625
0.00420971
0.00186398
0.0020641
0.00413997
0.00793588
0.00206941
0.00469157
0.00719755
0.00821119
0.00666214
0.00503049
0.00313552
0.00665783
0.00297899
0.00268668
0.00399874
0.00285061
0.0013819
0.000890065
0.00237015
0.00267853
0.00133213
0.00204098
0.00208328
0.00258407
0.00391842
0.00427823
0.00832647
0.00519057
0.00669811
0.00139174
0.000551304
0.00234729
0.00906768
0.00159404
0.00132445
0.0009602
0.00532501
0.00416326
0.0037992
0.000603075
0.00093909
0.00339961
0.00760678
0.000556824
0.00251841
0.0027894
0.00163934
0.00390043
0.000393023
0.000663154
0.0101479
0.000578169
0.00627202
0.00211688
0.00568334
0.00271595
0.00016568
0.000440567
0.00310038
0.000734333
0.00649022
0.00339349
0.00272164
0.00233366
0.00454019
0.00308213
0.0087182
0.00312545
0.000432812
0.006099
0.000751577
0.00238004
0.000337046
0.00772769
0.00739209
0.000748911
0.00208363
0.00119438
0.00810136
0.000933744
0.000144931
0.00519848
0.00125952
0.000305426
0.00121539
0.00539586
0.0117211
0.00522616
0.00273805
0.00272692
0.00143644
0.00423217
0.00354744
0.0032174
0.00337827
0.000654858
0.000465205
0.00484788
0.00488556
0.000302323
0.00251501
0.00181343
0.000423331
0.00188848
0.000525921
0.00397663
0.0131327
0.00203477
0.00539515
0.00223621
0.00468413
0.00134606
0.00341253
0.00453153
0.00324603
0.00519169
0.0017333
0.00463691
0.00108596
0.00335834
0.00581577
0.00255774
0.000945376
0.00217069
0.00289894
0.00704722
0.00829122
0.00575545
0.00093933
0.00355156
0.00583856
0.0060492
0.0045262
0.000762552
0.00417518
0.00531703
0.00436858
0.00629025
0.00272521
0.00721938
0.000577827
0.00425914
0.00672519
0.0057995
0.00901218
0.00458473
0.00326386
0.0018169
0.00403664
0.00207202
0.00181977
0.00255995
0.00850897
0.00131354
0.00254957
0.00309937
0.00213783
0.00938563
0.00520244
0.00147648
0.00921588
0.00809487
0.00364051
0.00698865
0.00365403
0.00333211
0.0037918
0.00301684
0.00147125
0.00795132
0.0042211
0.00428097
0.00108187
0.00671547
0.00557963
0.0020055
0.0068599
0.00375514
0.00110131
0.0023136
0.000642708
0.00556975
0.00103605
0.00434941
0.00217657
0.00751461
0.0102945
0.00116967
0.00318677
0.00300929
0.00456799
0.000314916
0.00753521
0.00181925
0.0038515
0.00095596
0.00154097
0.000866797
0.00449358
0.00241491
0.00532349
0.00915318
0.0018167
0.00061502
0.00187248
0.00658195
0.00216348
0.00509913
0.00398015
0.0010641
0.00714961
0.000442516
0.00616747
0.0102223
0.00562219
3.0681e-05
0.00564174
0.00369158
0.000939315
0.00979234
0.00457724
0.00657429
0.00375426
0.0045771
0.000390667
0.00901402
0.0104725
0.000928367
0.00713861
0.00377578
0.00663415
0.00215424
0.00221055
0.00549554
0.00406554
0.00342545
0.00980648
0.00376118
0.00118624
0.00504851
0.00265028
0.00448753
0.00118074
0.00126481
0.00510548
0.00199103
0.0114726
0.000585996
0.00471788
0.00105871
0.00500621
0.000468587
0.00314614
0.00118467
0.00869951
1.0477e-05
0.000914872
0.0104509
0.00119142
0.000328064
0.000257414
0.00842062
6.94139e-05
0.00151491
0.000240175
0.00993641
0.00478316
0.00395449
0.00608144
0.00698455
0.000326074
0.00196644
0.00149625
0.00391978
0.00643384
0.00466711
0.00905708
0.0107297
0.00808028
0.000443338
0.00144146
0.00263425
0.00116621
0.000231349
0.00689387
0.00650529
0.00422018
0.00371254
0.00447244
0.00315224
0.00208541
0.000775787
0.00231959
0.00703612
0.00274079
0.000408997
0.00338722
0.0089347
0.00402337
0.00564728
0.00271437
0.000453005
0.00326029
0.00220987
0.00482826
0.000738154
0.00650986
0.0034366
0.00268715
0.00350463
0.00721786
0.00386766
0.00114351
0.00149731
0.009152
0.00658694
0.00135575
0.0102635
0.00208932
0.000343964
0.00147817
0.00199399
0.00182672
0.00113066
0.00251845
0.0124253
0.000127457
0.000732138
0.00184145
0.0068047
0.00139794
0.00129822
0.00153992
0.00594128
0.00070102
0.00206288
0.00095352
0.00244897
0.00443669
0.00442781
0.0019712
0.00799037
0.000651629
0.0037276
0.00448189
0.00447881
0.010452
0.000427178
0.00163681
0.00150402
0.00593847
0.00463395
0.00354224
0.00509582
0.00529867
0.00234251
0.0022911
0.00328037
0.00334145
0.00460755
0.0031256
0.00366489
0.00419406
0.00555589
0.00291535
0.00166163
0.00159985
0.00490701
0.000477644
0.000435216
0.00201462
0.00159613
0.00440684
0.00225842
0.00207897
0.00818585
0.0105611
0.00363952
0.000736214
0.00820296
0.00417054
0.00216412
0.00301355
0.00569255
0.0029847
0.00831361
0.0100214
0.00493392
0.000155355
0.00161764
0.00166459
0.00437512
0.00366874
0.00570841
0.00811037
0.00683322
0.00631736
0.00206109
0.0102303
0.00357994
0.0083543
0.00308944
0.00183846
0.00666669
0.00465996
0.0107336
0.00983104
0.00266441
0.00274808
0.00595644
0.00213997
0.0017755
0.00286208
0.00645885
0.00392669
0.00937234
0.00809011
0.0138345
0.00919305
0.00593996
0.001167
0.00590191
0.0101337
0.00158315
0.00318781
0.00370305
0.00495209
0.00661205
0.00105731
0.000150313
0.000603147
0.00395231
0.00364249
0.00471781
0.00770671
0.0126778
0.0089284
0.00763114
0.0164493
0.00790659
0.00157466
0.00217976
0.00368972
0.000667769
9.44839e-05
0.00888445
0.0118904
0.0102976
0.00519827
0.000415762
0.0104115
0.00386248
0.00264463
0.00389905
0.00227417
0.00425728
0.00737684
0.00189942
0.000514417
0.0104104
0.00335185
0.000964125
0.0023519
0.00593935
0.000853664
0.0051824
0.00624806
0.00456065
0.00385244
0.00178896
0.00370576
0.00170653
0.00227334
0.000793237
0.0050639
0.00191187
0.00169613
0.000248324
0.00357574
0.00429554
0.00120757
0.00224641
0.00784087
0.00456655
0.00134182
0.00653365
0.0081371
0.00546961
0.00187038
0.00111441
0.00198349
0.00470103
0.00446712
0.00458861
0.0021369
0.00569515
0.00232209
0.00437895
0.00375994
0.00252218
0.00496899
0.00348667
0.00189628
0.00183711
0.00489993
0.0104614
0.00139768
0.00240584
0.00125805
0.00182616
0.00108657
0.00740892
0.00124822
0.00127708
0.000792969
0.000931811
0.00542968
0.00609654
0.00354183
0.00345518
0.00355236
0.00252654
0.00284685
0.00504259
0.00337629
0.00447542
0.00114269
0.00127026
0.00233964
0.00306302
0.00507569
0.00170955
0.000488969
0.00133335
0.00330958
0.0034549
0.00211968
0.0063255
0.00108878
0.010051
0.00470818
0.00142343
0.00619721
0.00636528
0.00365218
0.00894173
0.009098
0.00656926
0.0061725
0.00704301
0.00169741
0.00607436
0.000298504
0.00463742
0.00372632
0.00132127
0.00104873
0.00740864
0.00516512
0.00488901
0.00488749
0.0128785
0.000324763
0.012175
0.00386702
0.00887429
0.0079513
0.000462873
0.00963308
0.000790436
0.00216383
8.54703e-05
0.00406628
0.000156139
0.00373628
0.00117262
0.00154642
0.00722866
0.000342079
0.00094277
0.00191216
0.00660722
0.000241911
0.00332338
0.000294434
0.00680652
0.00969925
0.00892599
0.00375597
0.00313696
0.00016981
0.000190452
0.0038611
0.00475911
0.00285794
0.0055144
0.0119908
0.00272804
0.0103901
0.00430388
0.0135478
0.0066012
0.00187614
0.00912692
0.00351467
0.0148312
0.00459248
0.00212016
0.00953276
0.000578948
0.00207663
0.00199903
0.00190711
0.00574119
0.00566415
0.00771617
0.00570623
0.00227116
0.00557184
0.0020348
0.00136041
0.00714171
0.0016282
0.00596714
0.00767873
0.00181827
0.00968593
0.0032553
0.0052341
0.00366761
0.00356075
0.0037188
0.00907501
0.0106804
0.0129389
0.000970919
0.00597122
0.00894981
0.00157563
0.00503574
0.000245293
0.000961326
0.00226476
0.00361862
0.0065308
0.00158721
0.00483837
0.000237337
0.00425121
0.00216498
0.00503143
0.000171129
0.000557637
0.00786012
0.00794028
0.00304495
0.00590038
0.000103616
0.00659097
0.0040669
0.00335922
0.0053541
0.00311407
0.00855786
0.00299706
0.00713825
0.00664974
0.00636989
0.00155328
0.0128283
0.00431845
0.0101337
0.00375567
0.00253832
0.0042113
0.00403672
0.00432961
0.00347553
0.00452386
0.00363257
0.00674342
0.00491237
0.00171725
0.00170923
0.0065129
0.00509212
0.00135294
0.00458931
0.00053037
0.00566039
0.00203832
0.00129171
0.00184851
0.00759088
0.00175518
9.72597e-05
0.000863858
0.0011628
0.00107909
0.0069421
0.00541399
0.00277183
0.0028968
0.00149235
0.00162175
0.000337198
0.0138797
0.00963187
0.00213437
0.00368531
0.00135595
0.00119186
0.0072731
0.00051311
0.00515147
0.0106719
0.00752664
0.00673292
0.00962088
0.00504623
0.00800534
0.00298463
0.00362294
0.00307982
0.0119571
0.00830716
0.00964382
6.13191e-05
0.00577072
0.00110751
0.00509572
0.000299747
0.00501097
0.000165803
0.00386953
0.00183844
0.00125897
0.00617962
0.00146888
0.00781664
0.00114581
0.00677947
0.000476097
0.00167489
0.0010137
0.0143217
0.0062795
0.0062699
0.00775381
0.00184042
0.00356024
0.00749943
0.0072645
0.00395626
0.00146521
0.00463303
0.0112404
0.00558985
0.00482828
0.00617436
0.00404952
0.00026973
0.00171556
0.000400776
0.00595667
0.0203114
0.0130941
0.00610878
0.00574468
0.000203492
0.000170669
0.000430737
0.000743003
0.00547399
0.0071859
0.00359961
0.0132221
0.00327801
0.00407789
0.00144021
0.000659165
0.0104808
0.000958097
0.00176876
0.00695209
0.00280311
0.0131694
0.00852206
0.00566517
0.000564873
0.00400252
0.000498298
0.00585378
0.000243886
0.00753626
0.00166114
0.00313233
0.00971042
0.0086476
0.0014484
0.00226271
0.000729738
0.00203724
0.00538302
0.00376027
0.00749705
0.00571883
0.00174812
0.00439947
0.00240594
0.00244364
0.000880241
0.00784123
0.00264414
0.00861765
0.00127968
0.00401307
0.00193223
0.00510527
0.00448022
0.00469428
0.00624956
0.00400375
0.00499403
0.00365626
0.002591
0.000283047
0.00173852
0.00445698
0.000953162
0.0035618
0.00267019
0.00130614
0.0042977
0.00523118
0.00343174
0.00347327
0.00874354
0.000499748
0.00502334
0.00183349
7.62346e-05
0.000818298
0.00117542
0.00228644
0.00858253
1.56429e-05
0.00062789
0.00105748
0.00162417
0.00355796
0.00454299
0.00213852
0.00280214
0.009013
0.00174889
0.00080643
0.00347032
0.00379544
0.00624129
0.00810908
0.00474138
0.00448342
0.00505476
0.00510834
0.00230161
0.0126366
0.00956107
0.00943576
0.00163982
0.00207045
0.00969656
0.00748849
0.00510716
0.00357875
0.00572235
0.00361652
0.0112986
0.0126772
0.00427905
0.00458514
0.00108345
0.000749218
0.000852058
0.00692041
0.00938054
0.0121295
0.00911455
0.00372242
0.00305262
0.00235391
0.00474658
0.00791858
0.00752442
0.00857081
0.0117168
0.00510045
0.0122577
0.00357196
0.000312181
0.0065346
0.0087455
0.0072986
0.00535631
0.00471326
0.0118134
0.000358122
0.0118078
0.00125644
0.00533023
0.00269687
0.00176538
0.00398789
0.00316997
0.00026566
0.00612964
0.00441398
0.0149987
0.0108885
0.00633039
0.00160898
0.000610488
0.00259123
0.00762937
0.0047721
0.00543369
0.00140529
0.00667921
0.000715278
0.00106574
0.00334981
0.00527544
0.00386359
0.00240015
0.00294831
0.00124969
0.00575384
0.00543307
0.000744712
0.00890686
0.0040546
0.00263976
0.00284755
0.00560809
0.00650679
0.0117516
0.00922891
0.00667401
0.0024382
0.00252539
0.00287269
0.00438965
0.00392486
0.00177851
0.00377616
0.000229624
0.00455514
0.00679322
0.000478696
0.00206391
0.0046126
0.00379116
0.00471403
0.00214291
0.000457443
0.00385635
0.00951252
0.00490167
0.00260924
0.0029996
0.00420005
0.00374696
0.000187582
0.00403462
0.00731606
0.0020952
0.00499579
0.00769362
0.00421547
0.00398537
0.00354338
0.00500048
0.000244864
0.00156198
0.00522608
0.000597702
0.00369043
0.00290221
0.0104819
9.2902e-05
0.0061638
0.00451659
0.00369636
0.00467062
0.0113767
0.00761971
0.00262818
0.00729019
0.00841343
0.00547609
0.00214152
0.00212428
0.0036271
0.00634403
0.00222124
0.00644172
0.00177204
0.00059872
0.000408989
0.00686775
0.00222593
0.000965975
0.00102201
0.000577116
9.44041e-05
0.00549712
0.00550152
0.000580167
0.00496286
0.000297017
0.000337571
0.00139027
0.0121258
0.00213872
0.00437107
0.000807994
0.012513
0.000639043
0.00102961
0.00404403
0.000733929
0.00322257
0.00159975
0.00177528
0.00277825
0.0010002
0.0101155
0.00856597
0.00599985
0.00187599
0.00426407
0.00329615
0.000862214
0.00470859
0.000479783
0.00264518
0.0120727
0.000691605
0.00344946
0.000565547
0.00167191
0.0009823
0.00049936
0.000823622
0.00915116
0.000107663
0.000950344
0.00420489
0.000423053
0.00465453
0.00138453
0.00455774
0.000281582
0.00221089
0.000765319
0.00220324
0.00276014
0.00833591
0.00106165
0.0014038
1.79518e-05
0.00131946
0.00191619
0.00086333
0.00054575
0.0047065
0.00622317
0.00889134
0.00146837
0.000527636
0.00303053
0.00353527
0.00439285
0.00580784
0.00949591
0.00914018
0.00716635
0.00367952
0.00108332
0.00242632
0.00594017
0.00255085
0.000544602
0.00259146
0.00245845
0.00588008
0.0102625
0.00182066
0.00870603
0.00246289
0.00704853
0.00595017
0.00430597
0.00662737
0.0085575
0.00766933
0.0128085
0.00670248
0.000262158
0.00309302
0.00118734
0.00294449
0.00180416
0.00185052
0.00252663
0.000507442
0.00822355
0.00506833
0.00435407
0.00795518
0.00655289
0.000709867
0.00324451
0.00479418
0.000474357
0.0121731
0.00581925
0.0103587
0.00519204
0.00286305
0.00566055
0.00380286
0.00217729
0.00836267
0.00647565
8.20984e-05
0.00483322
0.00434968
0.00148371
0.00425009
0.00565663
0.00442385
0.00190186
0.0032793
0.00178016
0.00261668
0.0116961
0.0024702
0.00452672
0.0077965
0.0038179
0.00121934
0.00161527
0.0063157
0.00422341
0.00374694
0.00217645
0.0084223
0.00291607
0.000646419
0.000761408
0.000595633
0.000199582
0.00166981
0.00314789
0.00488318
0.00173214
0.0111792
0.00248718
0.00650058
0.00694461
0.00105808
0.00100212
0.00293323
0.00235121
0.00593045
0.00153657
0.00978354
0.000979226
0.0010176
0.00194348
0.00232141
0.00565078
0.00946006
0.00328317
0.00198297
0.00902137
0.0136871
0.00550709
0.00274082
0.00159956
0.00207832
0.00109424
0.0040876
0.0037411
0.000187261
0.00507332
0.00842378
0.000426643
0.00467374
0.00148344
0.000269765
0.00164103
0.0105991
0.0147727
0.00828683
0.010726
0.00682766
0.00672788
0.000380856
0.00545605
0.00669714
0.00894454
0.00397387
0.00334114
0.000108196
0.00461222
0.00750101
0.00372531
0.0032909
0.00435822
0.0112047
0.00390663
0.00599688
0.00743753
0.00392927
0.00986235
0.00277283
0.00687834
0.0124291
0.00390664
0.0025186
0.00690861
0.00259649
8.28982e-05
0.00103355
0.00205837
0.000760109
0.00355276
0.00320442
0.00950511
0.00641512
0.00219932
0.00398185
0.0150034
0.00802107
0.00212494
0.00274383
0.00518265
0.00530388
0.00176502
0.00836706
0.00281365
0.00173568
0.000217572
0.00184407
0.00495755
0.00548128
0.00767493
0.000884771
0.00194432
0.00133421
0.00285217
0.00422194
0.000205293
0.00602143
0.0126058
0.00907106
0.0013384
0.0050997
0.00742582
0.000461459
0.00457118
0.005566
0.00834998
0.0132391
0.00778322
0.0056942
0.000865029
0.00214244
0.0023566
0.00236069
0.000640357
0.0101352
0.00189802
0.00838429
0.000250224
0.00624869
0.00201443
0.0031522
0.00553774
0.00557314
0.00480633
0.0120645
0.000306005
0.0017787
0.00478779
0.00614185
0.0066292
0.00340198
0.0086614
0.00381798
0.00280073
0.00156873
0.00797029
0.00766688
0.00499341
0.00190324
0.000697658
0.00275816
0.00559535
0.00210887
0.00496216
0.00644806
0.00205423
0.00163867
0.00723827
0.00278659
0.000999711
0.00340147
0.00506232
0.00581617
0.00487047
0.00158505
0.000286203
0.00202819
0.00215849
0.00166274
0.00278027
0.000693935
0.00239721
0.00847078
0.00427192
0.000142901
0.00353611
0.00144815
0.000889373
0.00264296
0.00382888
0.0052848
0.0102343
0.00273902
0.000487922
0.00125072
0.000323558
0.00451677
0.00858175
0.00994515
0.00168009
0.0029967
0.00207108
0.00312337
0.00358601
0.00468746
0.000406886
0.0104026
0.00582296
0.00454074
0.00905525
0.00147917
0.000194688
0.0032272
0.00637378
0.00180442
0.00355333
0.00538596
0.00539871
0.00144055
0.000119397
0.000940596
9.42917e-05
0.000789841
0.00297655
0.00154343
0.00133089
0.00118684
0.000902349
0.000642886
0.000134393
0.00256593
0.00146677
0.000885164
0.000102987
0.00175723
0.000554962
0.00766523
0.0100926
0.00358478
5.39619e-05
0.00223097
0.00100431
0.00577124
0.00170161
0.000582694
0.00186148
0.00768964
0.00340749
0.00551479
0.00102159
0.00626401
0.00466881
0.00373876
0.00235432
0.00802688
0.00686768
0.00173856
0.00334375
0.00544187
0.00335566
3.71859e-05
0.00340928
0.00576646
0.00550181
0.0108954
0.00273886
0.00860818
0.00462782
0.00220426
0.0026427
0.00679743
0.00384036
0.00355081
0.00126508
0.00665028
0.00373577
0.0101026
0.00692885
0.00288311
0.00341351
0.0101534
0.0077344
0.000559503
0.00117881
0.00344465
1.23032e-05
0.00103243
0.00325808
0.00596934
0.000879891
0.000276744
0.000976822
0.00503275
0.00398087
0.000915058
0.00297072
0.00624331
0.00225272
0.00167501
0.00285524
0.00821249
0.00365296
0.00344425
0.0118095
0.00729903
0.000712326
0.00503421
0.00312831
0.0015137
0.00252091
0.00064111
0.00406827
0.00302621
0.00203031
0.000521314
0.000153856
0.0116464
0.000416312
0.00238981
0.00305908
0.00534694
0.00684585
0.000642376
0.00143598
0.00234564
0.0020243
0.00528282
0.00413415
0.00168205
0.00555789
0.00251855
0.00144043
0.00224974
0.0036949
0.00490284
0.0016173
0.000907141
0.00128142
0.0029112
0.0107842
0.00457059
0.00275187
0.0014018
0.00395677
0.00353974
0.00210734
0.00246327
0.000707559
0.0050522
0.00687787
0.000908763
0.00139421
0.00264237
0.00108925
0.00172608
0.00149864
0.000940176
0.00466159
0.00200686
0.00668828
0.00147781
0.00233868
0.00778395
1.78902e-05
0.00697637
0.0059579
0.000358226
0.00414077
0.00547901
0.00273158
0.00624545
0.00632892
0.00308138
0.00271901
0.00615953
0.0032918
0.00105112
0.00435968
0.00102509
0.00516211
0.00128285
0.00161945
0.0109307
0.00438689
0.00546793
0.000984936
0.00514519
0.00185513
0.00135326
0.00215704
0.00437931
0.000292957
0.0058513
0.000106522
0.000293114
0.00955123
0.00243382
0.00736135
0.00188643
0.0038021
0.00183993
0.00105606
0.00325826
0.00632535
0.00733638
0.000665643
0.00269782
0.00540701
0.00482811
0.0083449
0.00297543
0.000334996
0.000991273
0.00166756
0.00157628
0.00504855
0.00173112
0.00253477
0.00601328
0.00199862
0.00310114
0.00617746
0.00438594
0.000363171
0.00391086
0.00240884
0.00278095
0.00107893
0.000708998
0.00210416
0.000463903
0.00432728
0.00640613
0.00232364
0.00324431
0.0016552
0.0059667
0.00259065
0.0034969
0.00339162
0.00212898
0.000641681
0.00011423
0.00615179
0.00248337
0.00232369
0.000482782
0.00606689
0.00516588
0.000664341
0.0034149
0.00425365
0.00340045
0.00159931
8.58365e-05
0.0029089
0.00455268
0.00175131
0.000736608
0.0131842
0.00110633
0.0041273
0.00176917
0.00259274
0.00617259
0.00200522
0.00591531
0.000703358
0.0100256
0.00512206
0.00348084
0.00229046
0.00440228
0.0010536
0.0067043
0.000186286
0.00624196
0.00532031
0.00134947
0.000646598
0.0100444
0.0058808
0.00460361
0.00511664
0.00127402
0.010311
0.000377508
0.001874
0.00290084
0.00337996
0.000289286
0.00954808
0.00147062
0.00356794
0.000399125
0.00203731
0.000494089
0.00725828
0.00517599
0.000125607
0.00819852
0.00358121
0.00681353
0.0106101
3.82968e-05
0.0002539
0.00409349
0.00271148
0.00432115
0.000900004
0.00301659
0.0010679
1.906e-06
0.00330396
0.00217197
0.00933775
0.00244055
0.00449159
0.00530247
0.00225973
0.00887619
0.00393003
0.00906581
0.0142063
0.00848634
0.00272633
0.00768118
0.00116614
0.0081161
0.00145647
0.00312083
0.00777942
0.00481475
0.00778753
0.000320301
0.000103677
0.00316772
0.00241233
0.00156634
0.00385196
0.000316059
0.00729625
0.000927755
0.0109413
0.000202062
0.00223938
0.00203926
0.00110602
0.000100197
0.000427061
0.00916431
0.000929937
0.00269496
0.00043559
0.00107751
0.00114668
0.00155232
0.0034451
0.00132424
0.00222972
0.00395867
0.0054342
0.00923034
0.000651438
9.8003e-05
0.00313747
0.002009
0.00328302
0.00278306
0.0010649
0.00203268
0.00702551
0.00211448
0.00205679
0.0119621
0.00368047
0.00123299
0.000350167
0.00571866
0.00388
0.00364069
0.00619206
0.00861193
0.00159662
0.00836128
0.00414766
0.00395205
0.00201359
0.00126377
0.00418169
0.000468734
0.0056246
0.0076008
0.00446787
0.0015626
0.00531912
8.72072e-05
0.00474742
0.00720976
0.00556104