/*--------------------------------*- C++ -*----------------------------------*\
| =========                 |                                                 |
| \\      /  F ield         | OpenFOAM: The Open Source CFD Toolbox           |
|  \\    /   O peration     | Version:  2212                                  |
|   \\  /    A nd           | Website:  www.openfoam.com                      |
|    \\/     M anipulation  |                                                 |
\*---------------------------------------------------------------------------*/
FoamFile
{
    version     2.0;
    format      ascii;
    arch        "LSB;label=32;scalar=64";
    class       volScalarField;
    location    "0";
    object      stateMean;
}
// * * * * * * * * * * * * * * * * * * * * * * * * * * * * * * * * * * * * * //

dimensions      [0 0 0 1 0 0 0];

internalField   nonuniform List<scalar> 
3200
(
351.978
348.828
347.487
349.284
347.371
346.838
349.549
350.872
352.519
352.465
350.336
351.102
352.332
350.045
349.779
346.912
347.869
348.08
347.638
349.599
346.604
341.809
342.585
343.786
342.379
344.452
343.301
342.72
343.515
345.377
345.79
344.737
343.188
343.296
343.519
341.409
342.8
341.523
343.045
343.356
338.177
338.844
334.542
336.71
335.822
336.446
337.201
339.983
338.2
338.75
336.979
336.585
337.504
336.49
338.095
337.473
337.497
334.303
336.42
336.862
329.931
331.05
329.265
328.492
330.086
329.849
330.777
331.72
332.749
330.868
329.499
330.721
330.24
330.946
330.833
328.471
329.76
330.494
330.235
329.335
325.232
323.851
322.438
319.967
326.586
323.723
323.22
321.207
325.253
324.611
323.336
323.32
323.251
325.501
323.582
323.083
322.048
322.554
321.88
323.55
318.436
316.234
316.081
318.08
317.116
315.809
316.375
316.713
318.141
317.615
316.313
316.645
317.295
317.04
319.956
316.083
316.976
315.356
316.535
317.962
309.042
311.266
310.515
309.924
312.101
310.054
311.17
312.001
311.536
308.4
308.393
311.104
309.569
308.666
310.909
310.425
311.286
308.79
310.612
310.014
302.731
303.959
305.014
303.068
302.436
304.348
301.516
305.155
302.91
302.695
302.66
302.383
304.072
303.519
303.259
305.858
303.567
305.676
304.985
301.686
352.329
347.896
347.757
347.727
350.131
349.42
351.667
351.788
352.03
351.135
350.07
351.502
352.913
351.324
348.568
350.949
347.699
350.316
350.732
349.617
345.661
343.753
343.288
344.355
342.678
344.93
344.269
346.877
344.686
347.188
346.979
344.623
347.314
345.55
345.216
341.967
344.466
341.287
343.666
342.464
338.289
336.119
335.599
334.3
336.976
337.382
336.7
337.536
338.921
340.009
337.036
337.351
338.11
336.988
335.409
335.313
332.698
337.507
336.982
337.05
330.665
332.125
328.571
330.468
333.205
330.426
329.18
330.884
333.659
329.68
331.384
333.459
331.286
330.241
329.347
328.609
330.169
330.558
330.217
331.159
324.243
324.297
322.895
320.796
323.293
324.38
323.552
323.385
324.839
325.499
325.86
323.486
323.437
324.149
320.214
322.246
322.952
322.973
324.213
324.61
318.62
317.665
318.214
316.117
315.79
318.077
319.026
317.872
317.708
316.971
318.064
318.44
317.044
317.71
317.534
316.155
313.252
317.619
318.778
316.917
310.765
310.711
310.632
312.922
308.228
310.644
309.316
310.827
309.503
308.962
313.765
310.323
307.863
309.99
311.966
310.926
308.758
309.402
311.211
310.791
302.344
303.534
302.653
302.157
302.339
301.408
302.402
302.861
302.549
304.398
304.482
300.784
303.268
303.683
302.32
302.301
305.606
304.413
301.968
302.009
350.487
350.102
349.692
347.1
349.937
350.006
350.834
350.334
353.354
352.342
352.343
353.625
351.127
351.199
349.563
350.815
347.237
347.093
351.746
350.815
342.841
345.065
341.195
343.12
343.901
344.306
342.577
346.906
346.651
347.254
345.266
346.226
344.794
344.137
346.718
342.772
342.864
342.02
344.734
344.015
338.708
337.341
337.636
335.099
338.599
336.933
337.366
336.664
338.481
338.893
342.109
341.64
338.246
338.071
336.421
338.496
339.534
335.205
335.927
337.123
330.829
330.644
328.435
329.786
329.428
329.646
327.582
331.827
330.671
331.601
332.858
331.252
332.669
332.707
330.668
328.777
330.733
330.258
330.863
332.171
324.512
324.876
324.25
324.489
322.519
321.713
321.906
324.058
325.1
325.357
325.056
323.445
323.867
324.619
323.496
321.991
322.803
321.331
323.644
322.953
316.275
317.183
317.612
316.807
319.844
315.287
317.509
317.081
319.794
319.068
316.218
319.479
319.013
316.386
314.854
316.789
316.795
315.669
316.479
315.632
310.582
311.147
309.835
310.623
313.2
310.157
308.173
311.539
309.907
310.54
311.423
311.741
309.437
312.139
310.573
312.426
312.972
310.479
311.224
308.922
304.563
302.959
300.821
300.985
303.377
302.587
302.586
305.238
303.289
303.9
303.21
303.421
304.022
303.724
303.356
302.27
304.332
303.12
303.547
303.605
350.928
354.022
350.127
349.96
349.404
352.5
350.287
351.947
352.784
355.131
354.423
352.822
353.105
352.871
351.315
349.05
353.982
345.419
348.941
352.407
347.022
343.93
343.655
344.524
345.052
347.024
346.676
347.534
346.003
347.97
348.499
345.792
347.505
345.84
346.189
343.085
344.521
343.427
343.431
346.16
342.394
337.882
338.018
336.624
336.668
339.095
337.697
339.371
339.339
338.502
337.824
340.149
339.275
338.465
337.733
337.491
335.699
335.828
336.065
339.672
331.157
330.246
331.012
333.118
331.143
333.139
331.07
329.749
334.451
333.059
332.385
334.555
332.709
330.268
331.291
328.728
329.996
331.165
330.575
329.788
323.121
326.397
324.849
324.98
323.552
321.726
323.934
324.805
325.155
324.431
328.701
328.859
326.285
326.498
324.637
322.123
325.515
323.777
324.238
323.38
321.691
318.212
316.344
317.004
317.612
315.923
320.343
318.211
319.358
318.598
317.121
319.09
318.585
315.736
316.076
316.491
317.675
318.002
317.928
315.963
309.339
312.671
310.541
313.229
310.106
310.798
310.592
309.116
311.551
310.85
312.009
309.275
310.187
310.95
308.918
309.192
310.368
310.579
309.297
308.102
303.689
301.836
302.618
303.687
305.404
303.58
305.972
302.955
305.2
304.793
302.342
302.941
304.136
304.803
300.588
304.172
302.64
304.554
304.177
302.348
352.289
353.529
351.85
350.983
349.943
351.488
352.55
351.188
355.052
357.076
355.245
353.507
354.74
354.286
352.941
351.974
349.79
351.932
352.103
352.946
345.822
345.409
344.785
345.011
344.255
343.813
345.204
346.903
348.938
349.578
347.873
348.996
346.705
344.894
345.587
345.652
343.837
343.779
342.181
346.144
337.994
337.553
336.95
338.929
338.297
338.863
341.179
338.562
341.199
343.496
342.95
340.406
342.155
338.595
337.874
338.855
339.814
337.859
337.603
337.556
333.055
331.675
329.456
329.937
333.599
332.901
332.108
333.277
333.81
334.527
334.339
334.515
331.686
330.964
333.41
331.321
330.993
329.929
332.594
331.888
327.346
325.787
324.062
323.782
324.633
322.436
327.235
327.556
327.069
325.881
326.135
326.843
326.291
325.726
323.575
322.875
324.219
323.81
325.171
325.713
318.55
318.499
318.315
315.81
315.961
317.456
318.818
318.222
317.983
317.699
317.42
320.191
318.343
318.974
320.761
318.224
318.156
317.513
317.864
316.857
310.598
308.216
310.33
311.144
309.008
308.311
308.77
311.36
311.972
309.067
309.903
310.636
309.359
311.644
310.083
311.448
310.425
309.956
312.468
309.024
302.23
301.875
302.962
302.632
305.099
301.739
303.51
303.142
304.231
305.203
303.96
304.374
302.165
305.561
303.455
303.819
306.19
303.478
304.97
302.017
354.328
351.225
355.194
353.535
354.459
353.367
353.821
354.978
359.225
356.524
357.474
357.096
354.919
355.3
351.746
354.534
353.448
348.993
354.205
350.694
348.314
345.543
347.747
345.633
347.352
347.479
346.387
348.226
348.204
348.891
349.365
349.094
349.005
349.678
347.526
344.425
346.169
345.025
345.096
350.696
338.901
339.043
338.533
338.208
338.1
338.473
341.718
340.444
341.87
341.266
343.737
343.147
340.555
341.493
341.234
337.553
341.68
339.659
340.59
340.211
334.692
332.742
330.893
333.789
333.624
333.768
333.733
333.491
332.886
331.87
335.796
335.699
335.598
330.839
333.379
333.798
331.916
330.386
332.838
333.755
325.58
323.051
324.948
324.366
325.759
325.425
324.959
325.494
328.481
326.476
328.073
327.043
326.858
327.274
326.217
324.62
323.616
322.061
325.012
325.64
319.528
320.008
319.73
319.443
317.083
316.189
319.466
317.834
320.091
319.791
319.323
319.1
317.935
317.664
317.884
318.729
318.506
318.435
316.158
318.602
312.946
312.067
312.663
311.153
311.034
311.73
308.304
310.733
310.893
311.643
309.686
310.009
310.047
310.937
310.708
311.92
308.357
310.756
309.674
311.228
303.971
302.321
303.667
303.795
306.723
303.512
301.825
303.122
302.063
304.628
303.753
303.656
302.823
303.507
305.659
304.672
304.42
302.84
304.883
302.539
355.58
351.892
353.763
352.109
354.673
354.741
356.296
359.423
359.659
356.938
357.95
357.446
359.556
356.509
355.535
356.785
353.824
353.718
352.566
354.409
349.615
347.786
347.458
348.027
347.162
349.695
347.493
350.278
350.642
349.85
349.784
347.767
350.861
348.625
347.345
347.031
347.228
347.163
345.796
346.939
343.047
339.632
341.22
340.633
338.769
341.296
340.102
343.174
342.994
343.796
342.613
343.469
341.255
342.413
338.855
339.492
339.552
338.652
339.925
340.986
334.363
333.8
331.942
331.468
334.995
335.455
335.301
333.827
335.69
332.626
335.865
336.397
334.992
336.2
333.631
331.631
334.886
334.181
334.881
333.134
325.671
324.234
326.418
326.088
325.132
326.861
329.076
326.099
327.525
327.791
327.477
329.758
328.227
325.818
329.031
328.362
324.229
327.378
323.637
325.694
318.801
316.788
317.481
320.698
317.047
317.242
319.146
316.822
317.301
319.782
321.331
317.883
319.315
318.063
318.401
320.164
318.498
319.332
318.439
319.984
313.771
311.026
311.774
309.98
312.471
311.081
313.642
311.961
312.664
311.799
311.021
311.734
312.793
310.544
309.522
308.203
311.481
310.593
311.245
308.53
302.888
302.027
304.823
303.983
305.875
303.614
305.661
300.714
305.551
303.865
305.57
302.721
303.535
306.762
302.358
305.701
304.8
302.225
303.694
306.281
357.451
354.539
357.325
356.756
358.405
355.879
357.984
359.614
359.431
359.374
361.659
359.322
358.073
358.997
355.702
357.641
355.834
355.241
356.018
354.45
350.616
347.235
349.174
348.442
346.872
348.976
348.514
350.422
353.337
350.442
350.117
353.951
350.424
349.729
349.05
351.553
348.049
347.008
346.949
350.083
341.132
341.178
342.326
343.093
341.062
340.943
341.504
343.69
344.791
344.311
345.816
346.263
345.114
342.168
341.123
342.072
341.11
340.178
342.177
341.717
333.761
333.854
334.454
334.388
333.017
334.334
333.627
337.029
335.787
334.835
336.107
337.861
336.021
336.291
334.982
333.864
332.25
333.701
334.225
332.603
327.307
326.51
326.534
327.091
328.596
325.26
327.151
326.498
330.134
329.375
327.664
330.498
326.305
326.889
326.04
326.892
326.544
325.291
326.211
329.231
318.052
318.386
317.758
320.719
319.206
319.375
318.652
321.19
319.178
320.117
319.763
318.62
317.876
317.73
318.332
321.307
318.759
317.157
316.727
319.435
314.071
311.04
310.513
310.678
309.423
309.949
310.398
310.004
313.308
310.961
312.405
312.679
310.551
310.066
310.419
310.13
309.841
309.294
311.813
310.306
304.114
305.147
303.84
303.869
303.167
303.334
305.195
303.2
304.54
306.407
307.129
302.802
303.662
301.363
302.552
303.122
302.822
305.424
302.751
306.152
358.73
357.364
356.212
357.317
356.73
359.452
357.076
360.857
362.02
361.72
361.535
359.848
362.48
359.674
360.876
356.221
357.396
358.531
357.266
358.983
351.295
347.317
349.676
351.302
348.982
350.837
351.656
353.281
352.652
354.702
354.251
356.133
354.241
352.735
350.624
347.666
352.761
349.27
349.355
349.163
342.24
343.115
341.62
341.635
341.909
343.879
344.144
344.82
346.067
347.889
346.601
346.041
348.846
345.606
343.064
342.861
342.947
341.031
340.893
343.58
337.175
336.894
335.52
334.273
337.967
336.113
336.009
336.681
336.315
337.074
338.121
336.189
335.546
338.612
333.698
334.807
334.92
335.767
333.745
334.94
327.892
327.533
327.555
325.985
328.053
327.661
328.082
327.272
329.33
328.371
328.3
327.752
328.703
328.744
327.498
327.576
329.13
327.788
326.483
327.985
321.078
320.364
319.396
319.349
318.556
317.874
320.97
321.149
319.098
321.654
320.576
321.181
318.48
318.737
317.788
320.302
319.599
318.214
320.182
321.818
311.543
310.439
311.688
310.843
311.191
313.95
312.131
311.427
312.132
312.207
310.222
309.984
312.929
312.819
312.748
310.742
310.525
312.866
312.239
312.5
304.071
304.137
304.498
302.895
302.323
303.383
303.788
304.369
304.99
305.045
304.639
305.907
304.295
300.882
302.472
304.298
301.943
305.721
302.642
306.44
360.032
359.544
359.917
360.775
358.185
357.128
359.667
361.825
361.771
361.046
360.948
363.098
362.015
361.533
361.067
363.415
358.368
362.064
358.578
359.952
352.051
349.46
353.436
350.257
350.243
351.481
353.283
352.237
353.735
352.954
353.086
354.966
352.062
352.184
352.123
353.322
350.619
351.227
349.725
351.651
345.053
345.079
343.685
343.871
343.136
343.637
345.239
345.829
345.374
346.394
348.625
345.33
347.767
345.391
348.227
345.459
343.439
345.524
343.228
346.806
335.717
335.123
337.909
335.237
336.064
336.348
336.596
338.113
338.251
339.027
338.351
337.11
334.31
336.639
335.22
337.763
335.589
332.721
336.982
333.574
329.773
327.852
328.736
328.476
328.695
326.551
330.961
331.668
332.538
328.037
330.317
331.228
328.68
329.637
327.85
327.214
326.535
328.207
328.922
326.091
320.569
319.227
320.676
320.192
321.288
319.797
320.184
322.649
322.767
321.246
322.161
320.191
322.243
321.307
320.926
321.392
318.505
322.052
318.194
321.302
313.502
313.491
312.091
315.715
310.477
315.089
313.192
312.888
313.466
313.439
313.531
313.236
313.508
310.887
309.825
313.356
312.251
311.074
313.536
313.017
304.244
302.464
304.052
302.208
304.584
303.606
304.592
306.363
303.54
304.053
304.346
303.72
304.383
301.919
302.353
303.121
304.808
304.345
304.351
303.731
363.568
362.434
360.22
361.282
360.944
360.498
363.979
361.511
363.809
365.936
364.797
364.381
365.177
363.174
363.817
361.531
361.259
360.56
363.268
361.57
354.221
351.142
353.604
351.621
354.24
352.96
354.989
353.579
355.102
353.194
354.29
355.919
354.039
355.98
353.258
354.833
351.843
352.164
350.808
355.863
345.216
345.485
346.344
344.68
345.639
347.346
347.576
346.689
346.01
347.199
349.483
347.435
346.99
347.2
346.156
344.32
344.637
343.541
345.377
350.03
339.655
337.531
337.694
336.134
336.423
336.505
337.153
338.955
339.682
338.549
341.795
338.364
338.485
337.388
336.872
339.891
335.744
336.359
337.814
336.205
331.764
330.411
325.982
327.888
329.62
328.362
326.799
328.965
331.479
328.513
330.091
332.195
331.729
329.199
329.269
328.066
328.741
329.604
328.851
329.907
321.455
320.304
321.309
319.299
319.452
320.111
323.047
321.497
323.495
321.184
322.061
321.351
322.286
321.97
321.897
322.236
321.35
321.5
320.914
320.455
311.881
311.322
310.567
312.355
311.046
313.087
312.745
311.063
314.091
313.553
311.396
315.188
312.25
313.906
312.826
312.182
312.313
311.59
312.577
314.469
303.949
303.786
303.688
304.536
305.158
305.49
304.786
305.011
306.918
303.652
303.939
303.12
305.313
302.238
301.642
302.634
302.679
302.472
305.53
303.254
365.147
364.399
364.8
362.447
361.562
366.26
365.846
365.296
364.963
365.86
365.094
367.771
368.047
364.681
364.406
361.919
362.125
361.698
363.446
363.973
356.848
356.09
354.57
354.737
354.887
356.11
357.569
357.702
358.269
359.487
357.136
359.578
356.299
354.871
356.744
357.15
356.238
355.147
354.537
356.736
344.651
348.85
345.535
347.281
346.709
346.703
347.755
347.702
346.674
348.977
348.382
351.967
350.377
348.567
346.649
345.565
344.545
347.734
346.424
346.4
335.992
338.916
337.17
336.848
338.612
339.523
339.277
338.97
339.289
338.784
340.308
340.13
338.41
340.981
339.11
338.373
336.247
338.819
338.858
340.419
331.417
330.734
327.942
329.791
330.12
327.93
328.261
329.114
331.049
329.782
331.361
332.044
329.858
330.234
330.895
330.422
330.511
329.448
328.691
329.652
323.341
321.975
319.713
319.741
319.508
319.797
321.068
322.528
323.657
320.672
322.95
318.834
322.586
319.848
322.137
319.252
320.782
321.05
318.73
320.485
313.346
311.353
309.072
312.468
314.457
314.029
313.85
311.296
316.36
315.208
312.002
315.081
315.388
314.406
311.948
311.867
311.306
310.364
312.953
314.205
304.627
304.292
304.263
306.259
304.878
304.524
303.945
304.453
304.321
305.972
302.625
304.115
302.767
304.166
304.333
303.778
307.858
303.489
302.781
303.842
367.322
362.884
363.898
362.478
364.635
365.935
365.691
366.038
364.573
366.059
369.392
368.721
367.581
365.792
366.315
365.569
363.636
361.812
363.29
363.743
358.751
354.508
356.33
355.675
355.242
355.827
356.655
356.428
360.161
356.946
356.645
358.396
356.873
358.136
355.684
357.459
355.574
355.89
354.482
355.253
347.091
349.257
347.035
346.491
347.291
347.114
348.494
348.334
348.371
349.895
350.423
351.277
348.545
347.643
346.52
348.513
348.502
348.68
349.659
349.3
340.202
339.213
338.577
339.287
340.729
339.818
338.976
340.209
340.285
341.508
342.996
340.068
342.284
338.326
341.342
340.732
339.923
340.452
340.861
340.372
333.629
331.763
329.656
330.961
329.743
329.346
331.077
331.224
331.541
330.922
333.474
332.381
332.052
333.11
332.484
330.369
328.87
331.323
329.398
333.42
322.894
324.454
322.93
322.324
323.363
320.451
322.491
324.576
324.035
322.011
323.541
323.35
321.406
323.158
319.854
320.121
320.793
320.208
320.556
321.866
316.29
311.922
314.191
310.421
311.748
312.64
312.586
315.126
314.511
314.383
313.891
315.826
312.235
313.294
312.784
312.757
312.922
312.253
311.71
311.106
304.762
300.855
303.526
306.289
302.225
304.688
304.694
303.515
305.137
306.233
303.96
301.443
304.706
304.079
303.774
305.045
302.591
307.162
305.255
304.838
368.466
370.481
367.87
365.241
367.212
366.218
367.696
369.049
366.35
367.749
369.684
370.824
367.704
369.011
366.437
366.725
366.846
369.733
370.878
368.198
360.366
359.238
359.529
357.328
359.746
360.5
361.578
360.018
359.946
358.789
360.483
361.438
359.929
359.552
359.663
361.803
358.86
359.268
359.456
357.943
351.319
349.068
350.773
352.996
347.579
350.083
351.846
350.526
349.72
350.179
350.537
349.483
348.376
350.552
352.522
351.181
347.895
349.764
353.326
350.678
339.935
340.319
341.371
338.042
339.473
337.439
341.432
340.035
340.807
341.417
342.478
342.601
343.24
340.775
340.948
339.619
340.813
341.045
339.458
341.257
334.691
333.657
330.388
332.7
333.649
331.509
329.987
333.467
334.474
336.139
334.329
333.593
331.334
332.212
332.137
330.408
330.8
334.184
331.286
333.295
321.903
323.929
322.689
321.154
324.082
320.619
324.07
326.497
322.763
322.121
321.15
324.646
324.744
323.617
325.209
323.528
321.268
321.535
324.483
324.289
311.549
313.764
313.461
312.456
311.642
314.129
311.974
315.603
312.973
314.149
315.905
314.491
313.894
314.596
315.055
315.219
314.846
313.739
313.258
313.747
303.739
303.909
305.285
304.677
303.761
307.094
303.235
304.597
305.642
304.13
304.842
305.37
303.387
306.145
307.631
303.657
304.615
304.82
304.513
305.771
370.908
371.695
369
369.842
368.319
368.25
371.011
368.178
369.921
374.005
372.309
368.392
366.562
370.232
369.476
370.274
366.387
369.046
369.343
369.733
360.714
359.534
359.271
359.285
359.957
360.486
361.518
361.199
360.3
361.28
360.526
360.548
360.69
361.37
359.673
359.604
359.586
359.945
359.216
361.527
353.308
351.232
350.247
351.271
351.095
348.953
350.587
351.147
352.123
354.233
350.332
353.407
351.711
348.985
349.34
352.054
349.664
353.039
352.381
350.386
341.9
342.776
342.27
341.326
342.711
343.711
340.028
345.772
341.204
345.136
343.774
342.895
342.949
344.233
343.052
342.76
340.907
343.394
342.195
344.204
334.025
332.807
333.142
335.548
329.767
332.301
333.01
331.578
332.803
333.181
331.753
330.812
332.431
332.526
332.812
330.664
333.497
332.313
330.864
333.798
323.409
322.228
323.804
325.654
321.936
324.337
327.135
325.753
323.677
325.102
324.486
322.957
324.208
323.524
324.539
324.094
322.345
323.05
322.819
326.44
313.759
314.43
312.788
312.141
311.739
314.155
314.46
314.792
313.451
315.762
315.402
314.615
315.8
314.8
313.501
314.594
314.979
315.286
313.173
313.913
304.179
303.699
301.324
306.025
303.818
305.105
303.491
305.791
305.365
305.479
304.944
306.263
306.808
304.974
305.103
303.851
304.965
304.083
305.042
304.855
372.24
371.518
373.572
371.963
370.859
369.122
372.278
369.875
370.396
372.824
371.147
370.574
373.491
369.946
369.664
370.583
370.404
368.804
371.995
370.124
362.742
361.018
359.793
361.478
362.801
358.503
364.275
364.844
363.342
361.18
362.374
362.493
362.077
361.096
362.359
364.333
361.981
361.766
364.84
362.046
354.389
352.646
350.873
353.098
353.052
351.743
355.311
350.636
353.567
354.339
351.475
351.626
350.279
352.027
353.011
352.33
353.038
352.767
353.759
351.19
343.28
340.499
342.062
341.878
341.01
341.799
343.581
342.235
344.492
344.664
343.337
343.42
344.302
343.297
341.819
345.328
343.739
341.635
341.992
344.455
333.874
331.959
334.4
332.711
333.354
333.741
331.768
333.088
333.207
334.179
331.992
332.258
334.139
332.682
332.284
332.434
332.888
333.299
332.155
334.527
324.166
323.917
328.052
324.249
322.659
323.52
325.018
322.244
324.942
326.235
324.545
327.543
322.584
325.305
323.351
322.57
323.55
321.612
323.619
325.619
315.85
313.802
314.085
311.196
316.265
313.027
312.916
314.967
311.351
314.728
314.019
313.682
313.503
314.616
311.472
313.954
313.231
314.413
314.866
314.333
306.965
303.192
304.752
307.311
305.925
302.776
301.635
304.895
304.97
306.146
304.071
306.21
305.157
303.95
304.527
304.834
305.819
305.452
307.615
304.009
375.102
371.684
374.799
370.928
373.062
371.398
369.695
372.02
374.308
372.514
374.959
372.285
374.658
373.853
371.88
372.731
371.336
373.834
373.626
374.608
364.56
363.316
362.733
364.507
361.979
364.527
361.068
365.146
366.148
364.642
364.983
365.293
365.376
361.716
365.205
363.656
364.233
363.744
363.469
363.118
355.141
353.621
353.511
353.115
352.799
351.643
354.855
355.254
354.197
354.647
354.194
354.323
354.841
354.364
352.426
353.977
353.789
350.063
355.393
354.358
344.267
342.312
345.789
343.375
342.666
341.988
344.544
342.318
343.849
343.955
346.015
345.717
343.76
345.257
343.019
342.18
343.09
344.991
346.112
344.176
335.944
336.872
332.733
331.697
334.532
333.357
333.654
335.461
331.877
332.686
335.095
334.555
335.508
334.21
334.425
334.111
332.315
335.35
335.494
335.326
327.454
324.062
323.688
325.302
323.995
325.351
324.964
323.238
324.795
325.248
324.272
325.938
325.607
326.176
323.441
322.529
323.589
325.31
326.687
324.901
313.293
314.846
315.165
316.871
316.488
312.483
315.184
312.412
314.555
313.667
313.141
314.672
314.84
314.51
314.697
313.062
314.522
314.941
316.132
312.69
305.57
305.615
305.542
305.839
304.115
304.296
307.084
301.819
306.21
305.659
305.181
304.664
304.427
305.986
304.296
304.458
305.409
308.704
304.208
303.073
378.28
374.487
371.517
373.194
373.258
375.234
375.59
373.19
373.532
374.939
374.923
374.258
374.182
373.002
372.712
372.625
373.902
375.13
374.591
378.541
364.112
365.141
364.497
364.923
362.258
364.725
365.458
364.006
363.617
365.764
361.21
365.578
366.365
365.198
365.167
366.373
365.448
365.739
366.498
365.025
357.316
355.357
354.926
355.193
355.853
354.718
352.858
355.316
354.885
353.368
353.895
356.743
354.334
354.603
355.651
356.791
353.756
354.506
357.478
356.144
345.659
345.212
343.257
343.376
344.927
345.862
342.786
342.843
345.035
346.028
346.97
345.734
345.673
345.616
345.223
342.015
343.849
343.7
344.488
348.318
335.133
335.839
333.38
334.208
334.755
335.234
334.277
335.72
334.111
335.594
334.253
336.013
334.561
334.08
331.813
335.558
334.528
336.956
335.716
336.225
326.913
325.812
323.617
325.42
323.791
324.9
323.373
325.226
324.686
325.409
324.461
325.769
324.396
325.522
324.9
326.387
328.132
323.767
325.479
325.964
316.238
316.458
313.625
313.52
317.858
316.254
313.7
313.946
317.869
314.192
315.267
313.975
317.098
314.669
316.566
315.266
313.481
315.311
313.992
315.547
304.666
304.001
306.248
301.702
303.721
304.329
305.274
305.957
304.25
303.461
304.408
304.673
305.687
304.477
305.782
303.818
303.459
306.375
306.166
305.102
377.175
377.461
374.384
376.48
374.121
374.211
373.075
375.382
375.173
376.787
375.156
375.208
376.442
376.441
376.147
374.73
376.082
376.901
378.632
379.094
369.102
368.655
368.123
368.846
364.535
369.83
363.678
369.652
366.79
370.29
370.258
366.079
369.377
364.802
369.52
366.913
369.211
364.646
368.538
367.767
356.414
356.228
355.332
355.967
356.227
356.146
354.568
355.256
357.992
358.001
357.288
355.523
354.991
355.328
355.101
356.35
357.267
354.534
355.164
353.409
347.457
347.158
343.774
345.809
346.221
346.752
345.627
345.354
345.919
345.076
346.214
348.817
346.491
345.153
348.402
349.441
346.379
344.828
347.539
350.208
336.219
337.357
335.965
334.983
334.258
336.778
337.385
333.365
334.778
332.2
336.23
336.696
336.849
335.205
333.429
336.498
333.221
337.246
335.807
335.516
329.518
325.825
329.741
328.338
324.118
323.686
325.827
325.809
323.479
323.938
323.69
326.53
325.282
325.864
328.605
325.352
326.654
325.926
326.396
326.991
314.139
314.263
314.912
317.708
315.082
316.901
313.396
314.435
315.13
315.392
315.064
316.857
312.217
311.188
316.422
314.355
316.845
315.671
314.452
314.595
302.827
305.28
302.322
305.081
304.778
306.046
305.643
303.611
304.74
305.362
307.683
305.731
303.926
303.782
307.407
304.897
305.097
302.374
306.599
305.069
379.398
376.766
375.587
376.139
376.481
375.68
376.676
377.876
375.455
377.925
377.908
377.818
377.301
375.864
375.06
377.129
377.358
378.944
378.591
378.6
367.145
366.061
365.565
369.441
366.128
367.051
366.499
366.353
366.569
369.57
366.503
367.513
366.49
367.819
367.378
365.625
366.155
369.753
366.393
368.261
355.677
357.087
354.334
356.673
355.71
354.667
354.433
355.22
356.538
356.418
357.977
358.039
355.541
358.905
356.744
357.948
355.519
355.21
357.161
358.654
348.512
348.442
346.486
345.695
345.535
346.06
346.205
343.894
345.016
346.975
345.481
345.924
345.466
347.284
346.546
345.127
344.92
347.542
345.537
348.366
337.698
337.547
335.704
338.073
337.897
334.35
333.204
336.214
335.255
338.028
336.133
335.322
338.809
336.621
336.187
337.567
336.831
336.814
338.329
337.829
325.51
326.754
327.059
323.291
326.669
325.909
326.89
326.481
327.718
327.537
327.076
324.874
325.225
325.682
325.737
327.07
326.452
325.734
327.97
327.113
314.926
314.84
316.787
313.845
316.135
315.298
313.084
316.768
315.309
318.208
316.066
315.94
313.741
314.896
315.644
316.287
317.045
314.345
314.386
315.769
305.192
307.156
307.075
306.331
305.413
304.509
307.95
305.84
306.603
305.823
305.634
307.167
305.647
302.873
307.162
305.767
301.408
301.972
303.032
304.551
)
;

boundaryField
{
    hotSide
    {
        type            fixedGradient;
        gradient        nonuniform List<scalar> 
400
(
321.511
322.87
325.591
329.677
335.133
341.965
350.181
359.788
370.794
383.208
397.037
412.289
428.971
447.088
466.647
487.651
510.105
534.011
559.372
586.191
323.738
325.08
327.767
331.802
337.194
343.949
352.078
361.591
372.498
384.81
398.537
413.687
430.268
448.289
467.755
488.672
511.043
534.872
560.161
586.913
326.149
327.47
330.116
334.091
339.406
346.071
354.099
363.503
374.296
386.491
400.101
415.136
431.606
449.52
468.885
489.706
511.988
535.735
560.948
587.63
328.704
330
332.597
336.503
341.73
348.292
356.205
365.485
376.15
388.215
401.695
416.604
432.954
450.753
470.009
490.73
512.919
536.579
561.714
588.325
331.33
332.599
335.142
338.97
344.099
350.546
358.332
367.477
378.003
389.928
403.271
418.047
434.27
451.949
471.095
491.712
513.807
537.382
562.439
588.978
333.918
335.158
337.643
341.389
346.414
352.74
360.392
369.397
379.779
391.562
404.765
419.407
435.503
453.065
472.101
492.618
514.622
538.114
563.096
589.569
336.321
337.531
339.959
343.622
348.544
354.751
362.274
371.142
381.385
393.031
406.101
420.618
436.595
454.047
472.983
493.409
515.33
538.747
563.663
590.076
338.36
339.543
341.92
345.509
350.339
356.44
363.847
372.595
382.718
394.244
407.2
421.608
437.485
454.844
473.695
494.045
515.897
539.253
564.114
590.478
339.852
341.015
343.352
346.885
351.645
357.665
364.985
373.643
383.675
395.113
407.984
422.312
438.116
455.407
474.197
494.491
516.294
539.606
564.428
590.758
340.643
341.795
344.11
347.613
352.334
358.311
365.584
374.193
384.176
395.567
408.393
422.679
438.443
455.699
474.456
494.722
516.498
539.788
564.589
590.901
340.643
341.795
344.11
347.613
352.334
358.311
365.584
374.193
384.176
395.567
408.393
422.679
438.443
455.699
474.456
494.722
516.498
539.788
564.589
590.901
339.852
341.015
343.352
346.885
351.645
357.665
364.985
373.643
383.675
395.113
407.984
422.312
438.116
455.407
474.197
494.491
516.294
539.606
564.428
590.758
338.36
339.543
341.92
345.509
350.339
356.44
363.847
372.595
382.718
394.244
407.2
421.608
437.485
454.844
473.695
494.045
515.897
539.253
564.114
590.478
336.321
337.531
339.959
343.622
348.544
354.751
362.274
371.142
381.385
393.031
406.101
420.618
436.595
454.047
472.983
493.409
515.33
538.747
563.663
590.076
333.918
335.158
337.643
341.389
346.414
352.74
360.392
369.397
379.779
391.562
404.765
419.407
435.503
453.065
472.101
492.618
514.622
538.114
563.096
589.569
331.33
332.599
335.142
338.97
344.099
350.546
358.332
367.477
378.003
389.928
403.271
418.047
434.27
451.949
471.095
491.712
513.807
537.382
562.439
588.978
328.704
330
332.597
336.503
341.73
348.292
356.205
365.485
376.15
388.215
401.695
416.604
432.954
450.753
470.009
490.73
512.919
536.579
561.714
588.325
326.149
327.47
330.116
334.091
339.406
346.071
354.099
363.503
374.296
386.491
400.101
415.136
431.606
449.52
468.885
489.706
511.988
535.735
560.948
587.63
323.738
325.08
327.767
331.802
337.194
343.949
352.078
361.591
372.498
384.81
398.537
413.687
430.268
448.289
467.755
488.672
511.043
534.872
560.161
586.913
321.511
322.87
325.591
329.677
335.133
341.965
350.181
359.788
370.794
383.208
397.037
412.289
428.971
447.088
466.647
487.651
510.105
534.011
559.372
586.191
)
;
    }
    coldSide
    {
        type            mixed;
        refValue        uniform 300;
        refGradient     uniform 0;
        valueFraction   uniform 0.991591;
        source          uniform 0;
        value           nonuniform List<scalar> 
400
(
300.023
300.02
300.038
300.031
300.019
300.033
300.024
300.035
300.034
300.036
300.033
300.039
300.04
300.031
300.035
300.059
300.047
300.039
300.024
300.044
300.033
300.03
300.025
300.015
300.016
300.02
300.017
300.043
300.035
300.021
300.032
300.036
300.007
300.033
300.031
300.027
300.047
300.034
300.044
300.06
300.042