/*--------------------------------*- C++ -*----------------------------------*\
| =========                 |                                                 |
| \\      /  F ield         | OpenFOAM: The Open Source CFD Toolbox           |
|  \\    /   O peration     | Version:  2212                                  |
|   \\  /    A nd           | Website:  www.openfoam.com                      |
|    \\/     M anipulation  |                                                 |
\*---------------------------------------------------------------------------*/
FoamFile
{
    version     2.0;
    format      ascii;
    arch        "LSB;label=32;scalar=64";
    class       volScalarField;
    location    "0";
    object      T;
}
// * * * * * * * * * * * * * * * * * * * * * * * * * * * * * * * * * * * * * //

dimensions      [0 0 0 1 0 0 0];

internalField   nonuniform List<scalar> 
3200
(
343.686
344.075
345.162
345.882
346.61
347.33
347.586
347.704
348.109
348.377
348.194
348.018
347.574
346.804
346.15
345.659
344.848
343.936
342.715
341.87
337.904
338.223
339.138
339.705
340.372
341.038
341.207
341.37
341.709
341.972
341.763
341.61
341.252
340.577
340.011
339.551
338.932
338.132
337.038
336.363
332.11
332.371
333.141
333.613
334.12
334.748
334.85
335.016
335.283
335.561
335.341
335.233
334.922
334.367
333.874
333.426
333.004
332.313
331.364
330.811
326.234
326.534
327.173
327.535
327.907
328.455
328.487
328.644
328.867
329.115
328.949
328.823
328.578
328.135
327.706
327.366
327.036
326.433
325.67
325.21
320.406
320.708
321.16
321.471
321.713
322.128
322.134
322.257
322.486
322.619
322.567
322.45
322.256
321.881
321.545
321.294
321.092
320.583
319.924
319.605
314.573
314.84
315.09
315.376
315.523
315.762
315.765
315.889
316.093
316.142
316.153
316.021
315.895
315.647
315.403
315.24
315.082
314.735
314.202
314.039
308.733
308.922
309.058
309.267
309.352
309.459
309.417
309.534
309.671
309.677
309.707
309.626
309.528
309.409
309.247
309.168
309.078
308.831
308.522
308.426
302.93
302.991
303.029
303.083
303.134
303.16
303.147
303.195
303.243
303.243
303.257
303.232
303.189
303.145
303.108
303.075
303.055
302.952
302.869
302.823
344.397
345.032
345.779
346.782
347.611
348.16
348.449
348.509
349.083
349.147
348.978
348.854
348.373
347.86
347.066
346.334
345.845
344.602
343.329
342.645
338.499
338.984
339.656
340.491
341.256
341.701
341.95
342.034
342.541
342.529
342.387
342.307
341.907
341.48
340.77
340.116
339.662
338.589
337.561
337.014
332.544
332.979
333.584
334.251
334.924
335.223
335.509
335.557
335.972
335.913
335.79
335.791
335.462
335.105
334.457
333.898
333.556
332.588
331.792
331.366
326.585
326.982
327.44
328.035
328.556
328.764
329.067
329.065
329.423
329.355
329.249
329.286
329.009
328.727
328.142
327.704
327.474
326.658
325.988
325.64
320.633
320.989
321.291
321.789
322.23
322.342
322.576
322.627
322.892
322.817
322.757
322.745
322.543
322.331
321.845
321.523
321.397
320.741
320.201
319.977
314.712
314.99
315.204
315.586
315.877
315.966
316.127
316.18
316.368
316.308
316.238
316.229
316.094
315.953
315.612
315.362
315.346
314.859
314.442
314.237
308.823
309.01
309.134
309.341
309.528
309.582
309.678
309.743
309.863
309.784
309.759
309.771
309.65
309.572
309.36
309.219
309.237
308.897
308.688
308.508
302.943
303.009
303.052
303.131
303.195
303.19
303.24
303.272
303.306
303.28
303.276
303.27
303.22
303.2
303.129
303.097
303.112
302.989
302.917
302.848
345.396
346.11
346.856
347.805
348.684
349.507
349.63
349.749
350.352
350.536
350.26
349.844
349.55
348.993
348.196
347.593
346.746
345.692
344.439
343.715
339.349
339.89
340.526
341.367
342.163
342.8
342.913
343.017
343.607
343.717
343.493
343.167
342.894
342.405
341.737
341.246
340.506
339.56
338.504
337.923
333.325
333.715
334.259
334.951
335.623
336.18
336.24
336.328
336.856
336.945
336.709
336.519
336.238
335.849
335.289
334.835
334.233
333.424
332.603
332.104
327.315
327.581
327.973
328.546
329.185
329.564
329.644
329.691
330.157
330.213
329.996
329.865
329.614
329.337
328.847
328.48
328.01
327.261
326.67
326.301
321.268
321.459
321.713
322.185
322.762
322.994
323.1
323.104
323.465
323.481
323.341
323.217
323.005
322.812
322.444
322.134
321.789
321.155
320.754
320.474
315.206
315.335
315.522
315.884
316.274
316.406
316.492
316.547
316.777
316.756
316.663
316.582
316.409
316.302
316.036
315.77
315.602
315.087
314.859
314.632
309.144
309.217
309.301
309.554
309.764
309.888
309.884
309.933
310.064
310.039
310.006
309.956
309.861
309.806
309.611
309.418
309.364
309.039
308.918
308.773
303.08
303.09
303.107
303.211
303.261
303.311
303.298
303.321
303.376
303.358
303.36
303.342
303.318
303.292
303.211
303.15
303.134
303.024
302.981
302.948
346.439
347.138
348.046
349.001
349.827
350.645
350.939
351.189
351.381
351.648
351.385
351.052
350.832
350.345
349.441
348.832
347.973
346.981
345.811
344.857
340.21
340.842
341.531
342.403
343.144
343.812
344.073
344.283
344.463
344.667
344.496
344.207
344.034
343.569
342.78
342.288
341.544
340.703
339.617
338.927
334.007
334.536
335.098
335.831
336.458
337.082
337.241
337.4
337.578
337.744
337.625
337.408
337.228
336.839
336.182
335.766
335.15
334.426
333.477
332.959
327.863
328.297
328.682
329.267
329.789
330.354
330.432
330.535
330.74
330.877
330.759
330.599
330.418
330.067
329.592
329.229
328.771
328.158
327.364
327.007
321.664
322.019
322.302
322.725
323.159
323.636
323.628
323.697
323.932
323.977
323.902
323.806
323.636
323.334
323.029
322.711
322.382
321.874
321.276
320.989
315.468
315.743
315.956
316.272
316.533
316.91
316.812
316.906
317.083
317.107
317.068
317.001
316.889
316.667
316.47
316.195
315.981
315.61
315.203
315.001
309.298
309.47
309.595
309.762
309.922
310.177
310.062
310.118
310.257
310.271
310.255
310.2
310.138
309.981
309.905
309.706
309.545
309.382
309.11
309.002
303.119
303.187
303.22
303.274
303.347
303.419
303.348
303.388
303.44
303.453
303.441
303.424
303.39
303.332
303.325
303.259
303.176
303.138
303.044
303.026
347.421
348.35
349.303
350.207
350.906
351.808
352.404
352.489
352.815
352.888
352.691
352.213
352.05
351.529
350.753
350.004
348.868
348.012
346.866
345.979
341.094
341.819
342.658
343.454
344.045
344.772
345.326
345.434
345.735
345.741
345.601
345.199
345.029
344.622
343.973
343.333
342.336
341.556
340.622
339.872
334.758
335.318
336.024
336.736
337.228
337.792
338.291
338.386
338.667
338.667
338.544
338.229
338.024
337.739
337.174
336.651
335.793
335.089
334.372
333.754
328.467
328.905
329.418
330.039
330.455
330.866
331.271
331.332
331.599
331.586
331.485
331.241
331.095
330.884
330.411
330.011
329.288
328.646
328.121
327.658
322.149
322.477
322.852
323.322
323.686
324.014
324.286
324.359
324.525
324.516
324.477
324.279
324.155
324.003
323.657
323.35
322.787
322.239
321.905
321.549
315.827
316.001
316.302
316.654
316.934
317.18
317.3
317.429
317.515
317.489
317.476
317.346
317.233
317.137
316.954
316.642
316.293
315.851
315.673
315.415
309.485
309.589
309.801
310.053
310.157
310.336
310.359
310.477
310.485
310.484
310.522
310.432
310.348
310.265
310.192
309.968
309.805
309.515
309.396
309.288
303.167
303.192
303.277
303.387
303.395
303.462
303.456
303.491
303.508
303.52
303.524
303.5
303.44
303.435
303.414
303.338
303.271
303.191
303.141
303.111
348.407
349.5
350.265
351.334
352.101
352.878
353.404
353.855
354.043
354.005
354.014
353.47
353.154
352.639
351.885
351.158
349.893
348.888
348.12
346.917
341.915
342.863
343.478
344.444
345.055
345.743
346.224
346.603
346.821
346.768
346.769
346.287
345.942
345.514
344.922
344.251
343.171
342.329
341.635
340.63
335.414
336.222
336.73
337.57
338.05
338.632
339.057
339.383
339.555
339.556
339.518
339.117
338.814
338.44
338.006
337.35
336.503
335.785
335.179
334.375
328.978
329.635
330.023
330.686
331.08
331.561
331.915
332.19
332.322
332.389
332.243
331.969
331.697
331.411
331.074
330.49
329.841
329.251
328.754
328.129
322.561
323.049
323.357
323.845
324.128
324.551
324.796
324.995
325.106
325.212
325.044
324.865
324.628
324.437
324.205
323.672
323.21
322.708
322.343
321.856
316.131
316.458
316.714
317.062
317.217
317.53
317.731
317.877
317.929
318.04
317.86
317.745
317.621
317.459
317.349
316.9
316.565
316.168
315.966
315.601
309.659
309.873
310.06
310.25
310.318
310.544
310.678
310.723
310.767
310.818
310.725
310.651
310.603
310.509
310.419
310.142
309.967
309.679
309.564
309.345
303.236
303.326
303.379
303.421
303.447
303.534
303.584
303.599
303.601
303.632
303.592
303.58
303.558
303.53
303.503
303.396
303.347
303.239
303.212
303.162
349.506
350.563
351.513
352.825
353.526
353.931
354.702
354.858
355.147
355.134
354.854
354.712
354.093
353.758
352.993
352.175
351.147
350.053
349.044
347.867
342.826
343.729
344.546
345.706
346.306
346.617
347.327
347.526
347.745
347.744
347.446
347.353
346.751
346.541
345.848
345.153
344.244
343.286
342.471
341.453
336.196
336.891
337.66
338.579
339.067
339.396
339.983
340.16
340.365
340.387
340.075
340.011
339.506
339.338
338.754
338.15
337.361
336.539
335.881
335.02
329.558
330.134
330.792
331.507
331.943
332.216
332.642
332.833
333.003
333.036
332.757
332.704
332.285
332.145
331.685
331.197
330.503
329.862
329.325
328.585
322.954
323.419
323.966
324.497
324.842
325.061
325.363
325.528
325.673
325.675
325.453
325.429
325.094
324.966
324.587
324.235
323.688
323.198
322.758
322.215
316.391
316.728
317.116
317.481
317.733
317.877
318.1
318.224
318.356
318.297
318.189
318.148
317.948
317.854
317.536
317.296
316.902
316.594
316.289
315.861
309.834
310.04
310.282
310.458
310.639
310.735
310.862
310.938
311.011
310.97
310.895
310.881
310.757
310.729
310.536
310.375
310.156
309.951
309.804
309.554
303.29
303.386
303.445
303.498
303.57
303.591
303.646
303.67
303.689
303.674
303.652
303.654
303.604
303.605
303.544
303.471
303.416
303.327
303.297
303.227
350.271
351.42
352.654
353.629
354.505
354.941
355.68
355.833
356.094
356.115
356.105
355.884
355.197
354.909
354.042
353.235
352.093
351.091
349.961
348.844
343.51
344.514
345.577
346.413
347.147
347.559
348.186
348.344
348.5
348.559
348.519
348.36
347.726
347.502
346.79
346.103
345.09
344.239
343.258
342.302
336.814
337.648
338.545
339.279
339.875
340.22
340.699
340.853
340.985
341.001
340.933
340.884
340.326
340.105
339.565
338.953
338.12
337.414
336.566
335.813
330.108
330.785
331.524
332.157
332.626
332.884
333.31
333.387
333.545
333.471
333.447
333.395
332.981
332.787
332.387
331.837
331.179
330.6
329.929
329.286
323.372
323.946
324.494
325.005
325.399
325.57
325.91
325.958
326.126
326.006
326.033
325.974
325.689
325.52
325.171
324.785
324.249
323.813
323.293
322.804
316.676
317.094
317.472
317.873
318.154
318.249
318.522
318.536
318.669
318.525
318.615
318.577
318.348
318.241
317.978
317.708
317.318
317.029
316.653
316.325
310
310.242
310.49
310.75
310.896
310.941
311.151
311.136
311.233
311.092
311.171
311.18
311.001
310.937
310.818
310.616
310.401
310.222
310.027
309.85
303.336
303.425
303.501
303.613
303.665
303.657
303.755
303.724
303.752
303.711
303.744
303.74
303.7
303.664
303.614
303.549
303.479
303.41
303.361
303.308
351.131
352.526
353.546
354.39
355.513
356.153
356.617
357.019
357.063
357.242
357.313
356.635
356.376
355.773
355.129
354.147
353.159
351.921
350.932
349.585
344.28
345.51
346.312
347.013
348.069
348.598
348.987
349.352
349.314
349.547
349.59
349.018
348.785
348.225
347.653
346.886
345.975
344.963
344.145
342.935
337.432
338.475
339.159
339.708
340.617
341.078
341.379
341.694
341.687
341.875
341.863
341.434
341.231
340.741
340.241
339.648
338.846
338.056
337.355
336.299
330.581
331.481
332.053
332.471
333.218
333.545
333.835
334.052
334.114
334.215
334.18
333.866
333.682
333.301
332.89
332.433
331.731
331.152
330.511
329.671
323.757
324.486
324.979
325.288
325.826
326.069
326.305
326.469
326.534
326.618
326.546
326.326
326.185
325.863
325.556
325.191
324.688
324.255
323.693
323.083
316.949
317.495
317.867
318.104
318.423
318.593
318.785
318.94
318.965
319.049
318.955
318.813
318.671
318.44
318.207
317.994
317.659
317.342
316.91
316.49
310.165
310.499
310.738
310.906
311.052
311.144
311.288
311.397
311.413
311.453
311.371
311.297
311.167
311.049
310.928
310.825
310.639
310.398
310.153
309.921
303.419
303.52
303.6
303.641
303.706
303.73
303.776
303.831
303.82
303.844
303.807
303.8
303.739
303.699
303.667
303.627
303.565
303.474
303.407
303.316
352.115
353.038
354.28
355.154
356.445
357.078
357.489
357.95
357.894
358.316
358.302
357.709
357.339
356.824
355.899
355.152
354.167
352.759
351.503
350.407
345.103
345.922
346.946
347.688
348.854
349.372
349.706
350.092
350.054
350.48
350.479
349.975
349.593
349.183
348.363
347.735
346.853
345.652
344.621
343.644
338.112
338.797
339.618
340.277
341.269
341.694
341.996
342.335
342.271
342.664
342.688
342.235
341.926
341.64
340.868
340.307
339.552
338.616
337.743
336.892
331.173
331.725
332.387
332.882
333.717
334.062
334.306
334.581
334.565
334.915
334.946
334.495
334.285
334.038
333.405
332.938
332.253
331.623
330.875
330.218
324.23
324.719
325.214
325.572
326.226
326.449
326.648
326.896
326.856
327.163
327.13
326.788
326.639
326.432
325.973
325.574
325.052
324.64
324.019
323.526
317.318
317.674
318.002
318.286
318.693
318.832
319.029
319.254
319.182
319.438
319.38
319.15
319
318.886
318.573
318.241
317.867
317.624
317.17
316.834
310.405
310.622
310.811
311.006
311.213
311.265
311.434
311.594
311.521
311.683
311.641
311.532
311.392
311.346
311.141
310.953
310.71
310.594
310.313
310.088
303.496
303.554
303.62
303.684
303.75
303.764
303.826
303.897
303.886
303.905
303.92
303.873
303.84
303.803
303.733
303.682
303.594
303.562
303.451
303.385
352.818
353.927
354.989
356.04
357.028
357.909
358.162
358.69
358.783
359.049
359.081
358.531
358.221
357.542
356.79
355.776
354.774
353.462
352.156
351.165
345.765
346.682
347.566
348.489
349.312
350.121
350.301
350.771
350.868
351.084
351.184
350.649
350.378
349.774
349.145
348.259
347.423
346.238
345.148
344.328
338.721
339.475
340.183
340.954
341.657
342.355
342.503
342.888
342.975
343.181
343.3
342.808
342.607
342.102
341.535
340.808
340.059
339.127
338.176
337.494
331.691
332.304
332.837
333.494
334.031
334.649
334.773
335.067
335.106
335.308
335.397
334.971
334.871
334.432
333.991
333.375
332.756
332.028
331.23
330.694
324.669
325.093
325.51
326.054
326.421
326.904
327.014
327.274
327.279
327.453
327.491
327.193
327.071
326.759
326.436
325.936
325.46
324.951
324.262
323.883
317.62
317.914
318.205
318.598
318.896
319.18
319.275
319.465
319.511
319.607
319.604
319.449
319.308
319.119
318.878
318.527
318.162
317.841
317.349
317.054
310.614
310.778
310.933
311.154
311.339
311.523
311.573
311.672
311.723
311.766
311.769
311.671
311.57
311.491
311.335
311.135
310.885
310.712
310.408
310.235
303.557
303.635
303.645
303.732
303.819
303.85
303.898
303.904
303.916
303.931
303.969
303.922
303.862
303.854
303.79
303.721
303.648
303.608
303.469
303.444
353.62
354.619
355.762
356.938
357.606
358.576
358.91
359.223
359.575
359.85
359.912
359.487
359.073
358.378
357.491
356.364
355.318
354.109
352.878
351.784
346.43
347.216
348.238
349.262
349.859
350.685
350.923
351.219
351.549
351.79
351.822
351.453
351.114
350.562
349.733
348.742
347.843
346.866
345.793
344.87
339.276
339.886
340.769
341.603
342.129
342.844
343.012
343.279
343.602
343.804
343.826
343.481
343.236
342.741
342.028
341.21
340.412
339.641
338.744
337.965
332.181
332.595
333.316
334.054
334.488
335.031
335.113
335.356
335.631
335.791
335.814
335.533
335.394
334.921
334.334
333.671
332.972
332.407
331.68
331.066
325.023
325.345
325.91
326.475
326.827
327.256
327.267
327.493
327.698
327.815
327.777
327.604
327.521
327.118
326.687
326.161
325.562
325.208
324.626
324.199
317.846
318.123
318.52
318.922
319.149
319.478
319.445
319.656
319.765
319.844
319.843
319.736
319.634
319.331
319.075
318.698
318.244
318.031
317.576
317.297
310.701
310.871
311.139
311.363
311.456
311.712
311.649
311.806
311.855
311.916
311.943
311.868
311.781
311.58
311.451
311.254
310.984
310.816
310.532
310.385
303.602
303.637
303.738
303.795
303.849
303.931
303.921
303.95
303.957
304.018
304.043
303.979
303.945
303.875
303.861
303.785
303.705
303.62
303.53
303.487
354.199
355.339
356.599
357.687
358.395
359.221
359.473
360.054
360.244
360.281
360.388
360.124
359.516
359.053
358.211
356.926
355.894
354.537
353.534
352.257
346.921
347.891
349.018
349.935
350.577
351.219
351.412
351.931
352.125
352.135
352.251
352.035
351.499
351.137
350.419
349.24
348.326
347.205
346.345
345.277
339.668
340.442
341.441
342.222
342.745
343.262
343.381
343.868
344.044
344.089
344.175
343.989
343.525
343.221
342.634
341.586
340.781
339.889
339.166
338.356
332.463
333.036
333.893
334.545
334.972
335.345
335.465
335.896
335.991
336.083
336.097
335.989
335.62
335.345
334.848
334.005
333.304
332.639
332.038
331.42
325.219
325.66
326.384
326.885
327.207
327.475
327.559
327.895
327.944
328.129
328.09
328.006
327.718
327.492
327.091
326.422
325.842
325.364
324.922
324.471
317.987
318.295
318.822
319.221
319.412
319.626
319.665
319.883
319.942
320.133
320.093
320.071
319.823
319.623
319.356
318.879
318.415
318.108
317.813
317.493
310.761
310.984
311.296
311.55
311.65
311.77
311.793
311.971
311.963
312.137
312.077
312.07
311.932
311.798
311.637
311.334
311.031
310.901
310.695
310.505
303.604
303.68
303.788
303.872
303.892
303.937
303.948
304.024
304.015
304.088
304.062
304.062
303.997
303.962
303.897
303.789
303.689
303.657
303.587
303.53
354.431
355.619
356.867
358.123
358.986
359.67
360.075
360.587
360.728
360.99
360.946
360.736
360.147
359.544
358.78
357.483
356.227
355.197
354.176
352.652
347.141
348.157
349.218
350.297
351.052
351.584
352.009
352.444
352.529
352.736
352.771
352.63
352.054
351.526
350.849
349.705
348.668
347.767
346.917
345.607
339.925
340.695
341.613
342.484
343.167
343.534
343.977
344.337
344.372
344.511
344.59
344.533
343.972
343.51
342.983
341.975
341.135
340.383
339.734
338.615
332.69
333.291
334.086
334.705
335.341
335.566
335.926
336.251
336.281
336.352
336.444
336.429
335.968
335.558
335.137
334.307
333.617
333.012
332.503
331.617
325.423
325.882
326.527
326.984
327.499
327.618
327.96
328.201
328.221
328.22
328.348
328.339
327.969
327.572
327.301
326.718
326.143
325.677
325.305
324.628
318.086
318.482
318.941
319.314
319.689
319.717
319.976
320.131
320.129
320.139
320.255
320.297
319.972
319.674
319.472
319.103
318.666
318.34
318.088
317.605
310.833
311.089
311.362
311.612
311.853
311.827
312.003
312.132
312.11
312.08
312.181
312.16
312.016
311.808
311.684
311.506
311.202
310.982
310.855
310.576
303.626
303.72
303.814
303.891
303.963
303.972
304.025
304.09
304.078
304.035
304.095
304.07
304.033
303.963
303.915
303.866
303.75
303.662
303.637
303.531
354.934
356.086
357.286
358.222
359.314
360.174
360.649
361.162
361.242
361.579
361.307
361.395
360.549
359.943
359.161
358.074
356.673
355.714
354.538
353.223
347.586
348.537
349.557
350.36
351.357
352.035
352.495
352.928
353.026
353.293
353.034
353.172
352.368
351.869
351.189
350.245
349.025
348.211
347.211
346.115
340.237
341.046
341.883
342.569
343.409
343.937
344.407
344.714
344.812
345.082
344.828
344.903
344.258
343.817
343.258
342.481
341.426
340.753
339.947
339
332.913
333.587
334.199
334.823
335.463
335.926
336.32
336.567
336.59
336.885
336.612
336.724
336.156
335.801
335.405
334.715
333.861
333.306
332.663
331.951
325.579
326.114
326.561
327.091
327.529
327.95
328.269
328.418
328.417
328.689
328.426
328.568
328.162
327.807
327.553
326.966
326.295
325.868
325.427
324.891
318.252
318.628
318.967
319.346
319.663
319.94
320.219
320.29
320.293
320.522
320.291
320.403
320.126
319.882
319.677
319.296
318.802
318.45
318.175
317.781
310.929
311.173
311.389
311.59
311.8
311.972
312.123
312.215
312.171
312.333
312.174
312.244
312.109
311.957
311.783
311.601
311.306
311.047
310.891
310.672
303.653
303.746
303.804
303.882
303.958
304.007
304.06
304.115
304.071
304.145
304.07
304.094
304.065
304.007
303.921
303.888
303.82
303.686
303.634
303.583
355.03
356.253
357.674
358.52
359.632
360.446
360.774
361.467
361.529
361.653
361.62
361.617
361.092
360.269
359.485
358.45
357.112
356.038
354.726
353.361
347.661
348.737
349.917
350.655
351.597
352.323
352.635
353.165
353.239
353.38
353.335
353.362
352.872
352.148
351.472
350.582
349.425
348.502
347.343
346.2
340.325
341.246
342.223
342.797
343.618
344.213
344.535
344.919
345.04
345.141
345.065
345.157
344.713
344.058
343.499
342.817
341.752
341.019
340.009
339.067
332.975
333.711
334.535
335.023
335.65
336.143
336.446
336.722
336.865
336.935
336.833
336.928
336.574
335.984
335.55
335.028
334.142
333.529
332.707
332.003
325.612
326.164
326.833
327.279
327.739
328.083
328.328
328.566
328.656
328.737
328.597
328.701
328.465
327.985
327.642
327.259
326.578
326.048
325.404
324.92
318.275
318.68
319.146
319.496
319.833
320.06
320.215
320.386
320.469
320.548
320.418
320.475
320.345
319.986
319.727
319.487
319.011
318.605
318.131
317.801
310.964
311.246
311.503
311.722
311.9
312.031
312.115
312.219
312.305
312.355
312.249
312.318
312.205
311.998
311.856
311.694
311.422
311.208
310.9
310.67
303.674
303.774
303.855
303.923
303.987
304.028
304.065
304.074
304.115
304.162
304.111
304.134
304.066
304.036
303.972
303.909
303.845
303.766
303.648
303.553
355.22
356.586
357.709
358.937
359.679
360.775
361.254
361.835
361.894
362.016
362.048
361.847
361.382
360.607
359.567
358.799
357.462
356.273
355.075
353.603
347.822
348.951
349.914
351.033
351.619
352.599
352.998
353.543
353.54
353.69
353.702
353.568
353.125
352.415
351.584
350.851
349.727
348.744
347.693
346.422
340.454
341.33
342.171
343.14
343.63
344.409
344.791
345.284
345.299
345.386
345.386
345.296
344.914
344.24
343.612
342.981
342.035
341.185
340.311
339.244
333.108
333.745
334.457
335.266
335.696
336.291
336.638
336.982
337.023
337.1
337.104
337.04
336.72
336.116
335.66
335.117
334.362
333.654
332.946
332.058
325.731
326.279
326.806
327.459
327.754
328.168
328.475
328.744
328.786
328.83
328.807
328.778
328.534
328.075
327.724
327.308
326.709
326.134
325.625
324.916
318.365
318.774
319.121
319.646
319.816
320.065
320.323
320.529
320.563
320.616
320.56
320.566
320.378
320.033
319.824
319.523
319.125
318.661
318.309
317.802
311.031
311.287
311.486
311.829
311.887
312.027
312.159
312.294
312.342
312.38
312.358
312.322
312.224
312.018
311.922
311.712
311.515
311.199
310.959
310.677
303.7
303.789
303.858
303.983
303.996
304.043
304.071
304.12
304.129
304.122
304.145
304.156
304.095
304.025
303.984
303.932
303.858
303.755
303.663
303.566
355.408
356.621
357.946
359.007
359.991
360.758
361.298
361.94
361.976
362.336
362.114
361.78
361.43
360.628
359.793
358.985
357.671
356.622
355.185
353.926
347.922
348.993
350.109
351.049
351.896
352.606
353.053
353.574
353.614
353.99
353.764
353.422
353.147
352.466
351.735
351.04
349.936
349.05
347.74
346.736
340.49
341.398
342.357
343.141
343.832
344.462
344.838
345.235
345.3
345.61
345.469
345.167
344.889
344.351
343.708
343.108
342.229
341.481
340.346
339.547
333.118
333.846
334.656
335.293
335.823
336.343
336.645
336.951
337.062
337.251
337.158
336.92
336.686
336.268
335.722
335.229
334.523
333.891
332.982
332.304
325.773
326.322
326.942
327.447
327.86
328.275
328.483
328.731
328.798
328.936
328.897
328.672
328.491
328.203
327.752
327.375
326.839
326.346
325.619
325.129
318.43
318.772
319.237
319.619
319.886
320.168
320.37
320.536
320.54
320.674
320.635
320.427
320.333
320.154
319.767
319.553
319.196
318.836
318.284
317.958
311.095
311.287
311.56
311.804
311.948
312.089
312.237
312.346
312.315
312.441
312.377
312.233
312.212
312.154
311.837
311.72
311.533
311.286
310.992
310.782
303.733
303.803
303.874
303.965
303.994
304.048
304.09
304.142
304.133
304.163
304.138
304.096
304.093
304.086
303.943
303.919
303.872
303.805
303.689
303.612
355.404
356.603
358.066
359.045
359.999
360.863
361.485
361.789
362.273
362.403
362.088
361.726
361.464
360.797
360.011
358.867
357.86
356.656
355.124
354.044
347.935
348.996
350.273
351.142
351.932
352.684
353.241
353.475
353.891
354.027
353.725
353.408
353.153
352.643
351.962
350.933
350.059
349.063
347.771
346.853
340.503
341.364
342.493
343.24
343.91
344.483
345.056
345.167
345.546
345.648
345.443
345.167
344.914
344.505
343.926
343.063
342.354
341.498
340.417
339.646
333.093
333.779
334.743
335.321
335.893
336.329
336.814
336.884
337.247
337.327
337.168
336.948
336.688
336.367
335.895
335.195
334.652
333.945
333.058
332.432
325.705
326.227
327.019
327.433
327.911
328.21
328.623
328.668
328.981
329.021
328.881
328.751
328.496
328.27
327.886
327.347
326.912
326.441
325.712
325.22
318.324
318.728
319.286
319.584
319.98
320.12
320.413
320.5
320.742
320.707
320.613
320.569
320.373
320.198
319.916
319.537
319.171
318.915
318.359
318.019
310.989
311.235
311.558
311.728
311.997
312.073
312.247
312.336
312.47
312.425
312.372
312.363
312.249
312.16
311.962
311.7
311.502
311.342
310.981
310.836
303.689
303.76
303.864
303.926
304.026
304.033
304.105
304.142
304.191
304.15
304.139
304.138
304.1
304.095
304.009
303.919
303.847
303.794
303.679
303.645
355.363
356.54
358.232
359.104
360.074
360.842
361.422
361.791
362.415
362.332
362.013
361.802
361.256
360.683
360.153
358.84
357.935
356.519
355.206
353.838
347.974
348.968
350.422
351.194
352.027
352.666
353.124
353.467
354.006
353.942
353.693
353.456
353.027
352.506
352.092
350.935
350.199
348.903
347.788
346.598
340.573
341.392
342.657
343.307
343.966
344.502
344.859
345.204
345.681
345.639
345.425
345.237
344.826
344.395
344.053
343.067
342.5
341.316
340.416
339.399
333.193
333.887
334.894
335.418
335.906
336.389
336.648
336.936
337.314
337.321
337.146
337.018
336.614
336.311
336.011
335.235
334.775
333.784
333.068
332.273
325.77
326.413
327.106
327.58
327.902
328.288
328.435
328.687
329.018
329.021
328.911
328.806
328.476
328.213
327.992
327.374
327.058
326.262
325.718
325.122
318.387
318.935
319.386
319.7
319.932
320.193
320.261
320.475
320.708
320.74
320.654
320.59
320.334
320.136
319.99
319.548
319.33
318.745
318.393
317.974
311.023
311.383
311.627
311.803
311.958
312.101
312.186
312.285
312.425
312.445
312.444
312.405
312.209
312.103
312.005
311.772
311.608
311.3
311.088
310.783
303.686
303.824
303.889
303.971
304.001
304.036
304.085
304.129
304.171
304.162
304.174
304.151
304.095
304.072
304.026
303.947
303.896
303.784
303.702
303.625
)
;

boundaryField
{
    hotSide
    {
        type            fixedGradient;
        gradient        nonuniform List<scalar> 
400
(
458.912
472.48
485.627
498.293
510.421
521.955
532.839
543.02
552.449
561.079
568.864
575.766
581.747
586.776
590.825
593.873
595.902
596.9
596.86
595.781
470.51
484.463
497.985
511.016
523.497
535.369
546.577
557.065
566.783
575.681
583.713
590.84
597.022
602.227
606.427
609.599
611.725
612.791
612.792
611.726
480.818
495.117
508.978
522.339
535.139
547.318
558.819
569.587
579.566
588.709
596.968
604.3
610.667
616.034
620.374
623.662
625.879
627.012
627.055
626.004
489.774
504.379
518.54
532.193
545.276
557.729
569.491
580.506
590.721
600.082
608.543
616.061
622.594
628.109
632.577
635.971
638.273
639.47
639.553
638.521
497.329
512.198
526.618
540.523
553.852
566.541
578.53
589.762
600.18
609.733
618.372
626.052
632.733
638.379
642.96
646.45
648.83
650.085
650.209
649.198
503.446
518.535
533.17
547.287
560.821
573.708
585.888
597.302
607.893
617.608
626.398
634.217
641.025
646.784
651.463
655.038
657.487
658.797
658.959
657.971
508.098
523.362
538.169
552.453
566.151
579.198
591.531
603.091
613.822
623.669
632.582
640.516
647.427
653.28
658.043
661.689
664.199
665.557
665.755
664.79
511.27
526.661
541.594
556.003
569.822
582.987
595.435
607.105
617.942
627.889
636.896
644.918
651.91
657.837
662.667
666.372
668.931
670.331
670.561
669.62
512.955
528.426
543.439
557.926
571.823
585.065
597.588
609.332
620.239
630.254
639.326
647.408
654.458
660.439
665.317
669.066
671.665
673.099
673.359
672.442
513.155
528.658
543.703
558.225
572.156
585.432
597.99
609.769
620.711
630.761
639.868
647.984
655.067
661.079
665.989
669.768
672.395
673.856
674.14
673.246
511.88
527.367
542.399
556.909
570.83
584.099
596.651
608.427
619.368
629.42
638.53
646.652
653.744
659.767
664.689
668.482
671.126
672.606
672.911
672.039
509.15
524.573
539.544
553.996
567.864
581.083
593.59
605.325
616.229
626.249
635.332
643.433
650.508
656.52
661.435
665.229
667.878
669.367
669.688
668.836
504.988
520.3
535.164
549.514
563.285
576.413
588.834
600.49
611.323
621.278
630.304
638.355
645.389
651.367
656.259
660.036
662.678
664.169
664.5
663.668
499.428
514.582
529.294
543.498
557.129
570.124
582.422
593.962
604.687
614.545
623.484
631.458
638.426
644.351
649.199
652.946
655.569
657.053
657.39
656.575
492.508
507.46
521.975
535.99
549.44
562.263
574.398
585.785
596.37
606.099
614.921
622.792
629.671
635.52
640.308
644.009
646.601
648.07
648.407
647.609
484.274
498.98
513.256
527.04
540.269
552.881
564.816
576.017
586.428
595.996
604.674
612.417
619.183
624.936
629.646
633.287
635.838
637.284
637.616
636.832
474.78
489.197
503.193
516.707
529.676
542.04
553.74
564.72
574.925
584.305
592.812
600.4
607.032
612.671
617.286
620.853
623.352
624.767
625.091
624.319
464.084
478.173
491.85
505.055
517.728
529.809
541.241
551.968
561.939
571.102
579.411
586.823
593.299
598.805
603.311
606.791
609.227
610.605
610.915
610.156
452.253
465.976
479.298
492.16
504.501
516.266
527.399
537.844
547.552
556.472
564.56
571.774
578.075
583.431
587.812
591.194
593.559
594.892
595.186
594.437
439.361
452.684
465.617
478.102
490.081
501.5
512.303
522.439
531.857
540.511
548.356
555.351
561.46
566.65
570.894
574.167
576.452
577.736
578.009
577.27
)
;
    }
    coldSide
    {
        type            mixed;
        refValue        uniform 300;
        refGradient     uniform 0;
        valueFraction   uniform 0.991591;
        source          uniform 0;
        value           nonuniform List<scalar> 
400
(
300.025
300.025
300.026
300.026
300.027
300.027
300.028
300.028
300.029
300.029
300.03
300.03
300.03
300.03
300.031
300.031
300.031
300.031
300.031
300.031
300.025
300.025
300.026
300.027
300.027
300.028
300.028
300.029
300.03
300.03
300.031
300.031
300.031
300.031
300.032
300.032
300.032
300.032
300.032