/*--------------------------------*- C++ -*----------------------------------*\
| =========                 |                                                 |
| \\      /  F ield         | OpenFOAM: The Open Source CFD Toolbox           |
|  \\    /   O peration     | Version:  2212                                  |
|   \\  /    A nd           | Website:  www.openfoam.com                      |
|    \\/     M anipulation  |                                                 |
\*---------------------------------------------------------------------------*/
FoamFile
{
    version     2.0;
    format      ascii;
    arch        "LSB;label=32;scalar=64";
    class       volScalarField;
    location    "./ITHACAoutput/true/10.6";
    object      error;
}
// * * * * * * * * * * * * * * * * * * * * * * * * * * * * * * * * * * * * * //

dimensions      [0 0 0 1 0 0 0];

internalField   nonuniform List<scalar> 
3200
(
-2.83361
1.89233
0.937914
2.10417
1.39946
2.82382
2.82173
2.26938
2.39201
2.65816
1.48726
3.36576
3.81918
1.83445
1.77198
1.77122
1.97762
0.883738
3.16866
1.1378
-0.230907
0.320497
1.6796
-0.156002
1.85373
3.11525
1.22495
2.42836
2.91441
1.36491
1.525
3.09202
4.2655
2.37904
2.1437
1.91533
1.06481
3.25751
1.88965
-1.18338
-0.448381
-1.83083
2.45912
2.23239
1.93119
3.32228
1.49389
2.36412
1.84353
3.10872
1.40896
0.550388
1.58241
1.28397
1.86503
2.51676
2.07236
1.34184
0.598634
0.31417
0.449481
0.647369
0.230343
1.97249
0.448931
2.62203
2.67856
0.667842
0.165477
-0.0381528
0.755788
2.09159
2.51489
0.969637
2.12918
3.28163
1.03241
-0.364936
1.44352
-1.01921
-0.300499
-1.30818
1.23949
1.48185
2.19434
1.43289
-0.222378
1.25756
1.29378
-0.30698
2.39525
1.51814
0.741093
1.98801
0.784715
1.79408
1.95072
-0.437426
0.62651
-0.158328
-0.265583
0.708514
-0.167684
0.994306
0.453658
1.20983
-0.340495
-0.048751
0.493898
-0.281207
-0.607617
-0.690953
0.0359519
1.49498
0.463895
0.379289
0.377538
1.28693
-0.180741
-0.614295
1.88077
-0.830903
1.22842
0.781418
-0.397514
0.960101
1.67765
0.521376
0.242757
0.252365
1.35411
-0.135576
-0.726676
-1.3737
0.569473
1.19028
1.56194
0.580222
-0.214391
0.482879
0.0493227
1.29765
-0.61104
0.999901
1.33107
-0.132906
0.460492
-0.332751
0.77203
-0.0907971
0.115751
-0.357242
1.8785
-0.660782
0.55767
-0.302749
0.348733
-0.261225
-2.87586
0.713913
-0.453547
-1.29361
1.49174
1.62598
3.70157
3.90619
1.59303
2.15403
2.58599
1.35925
2.339
1.34423
2.06863
2.79722
1.95934
2.08843
1.58316
2.42284
0.69344
0.402681
-1.45492
-0.0572837
0.313433
0.414163
1.71311
0.139263
-0.464398
0.00995279
2.75708
0.0702623
-0.0431099
1.47248
0.547644
1.56586
0.0578701
1.3824
0.167216
1.06449
0.415385
-0.933202
-2.92197
0.836111
1.58541
0.901437
1.99989
1.34535
2.33202
1.42643
2.64125
2.89236
1.83979
2.18014
2.62334
1.52499
1.42071
0.637037
1.66886
1.73849
-0.099849
-0.115682
0.976702
-0.585989
0.348712
0.40357
2.57227
0.714742
1.45982
2.48964
1.36652
0.987231
0.768262
2.24836
1.91488
2.25048
1.83915
2.22601
1.7834
1.53134
0.593189
0.315173
0.0298973
-1.26635
0.504437
0.831628
1.70994
1.62439
0.840659
0.794305
1.68226
1.05645
0.213471
-0.0895417
1.58227
0.522008
0.597963
1.60917
0.101689
2.00261
0.70485
1.11095
-1.37381
-1.37366
0.935153
1.36548
1.29777
0.104293
1.02521
1.41782
0.716328
-0.262236
2.38381
0.965264
-0.0265538
0.872565
-0.631778
0.0741087
2.56322
1.67959
1.16359
-0.79855
-0.593063
-0.621068
-0.0590001
0.618685
1.21558
1.03667
-0.473278
0.386749
0.928578
0.00551283
-0.456152
1.87573
0.347523
-0.346556
0.188438
-0.515078
0.371518
1.31585
2.37195
0.584381
-0.465053
-0.852509
0.765368
0.454025
0.552978
-2.31674
-0.196837
0.294865
0.0421355
1.2113
0.302607
-0.0267628
-0.521715
1.54936
0.211421
1.06835
1.14263
0.252564
1.02472
-0.132638
-0.860907
-1.03479
1.65862
0.441318
2.92229
2.2169
2.79271
3.68256
1.87024
1.87963
2.06884
1.10495
1.38015
1.44321
0.62782
2.70758
1.62333
1.88746
0.339391
-1.66867
-0.447651
-0.615359
2.14931
0.560851
1.4909
0.66886
4.4016
3.6935
2.1906
1.57518
0.253696
1.16048
1.70885
3.97862
1.75762
2.78875
0.559877
-0.151104
-0.155387
1.48565
-1.03661
-0.573509
0.480106
0.612531
0.978794
2.68546
2.12553
1.68278
1.81128
2.05313
2.0883
2.42932
-0.24511
0.430881
2.73042
1.23678
0.257454
1.85932
2.13532
0.21153
-0.522466
0.0653404
0.908534
-0.0419676
2.12313
1.28119
0.5453
0.444907
0.841609
-1.79124
0.655778
0.27758
2.4303
0.648142
1.06361
0.982891
1.64973
1.7612
0.878894
0.00211369
-1.82382
0.514649
1.37112
1.71664
2.02119
0.472775
0.057609
1.59076
0.0298839
0.766576
0.131728
-0.147912
0.808827
0.583339
1.24494
1.31566
-0.67516
-1.19068
-0.202063
-0.486273
-0.191187
-0.503234
1.64167
0.674443
0.903564
0.760079
0.991123
0.107742
0.181714
1.65367
1.79087
1.07032
1.33813
-0.738062
1.75586
0.107956
1.5433
1.18526
-0.118974
-0.386678
0.393903
1.03169
-0.630426
0.847059
0.165767
1.14513
0.757636
0.766298
-1.32535
0.488522
0.496288
0.452387
1.29671
-0.514
-0.755937
-0.946813
1.05121
-0.0463875
-1.06836
0.342455
-1.65858
-1.469
-0.356455
-0.570317
1.45162
-0.851339
0.486206
0.713982
-0.534932
-0.872173
-1.69839
0.011311
-0.457567
0.0765491
1.18402
0.196481
-0.118664
0.637762
-0.214509
0.306267
-0.0711751
-0.637182
0.501918
0.648294
1.44348
3.70773
2.43161
1.43274
2.05147
0.409831
1.19197
0.382691
0.633952
1.72743
0.310431
1.40977
0.93871
2.21638
1.05315
-0.353064
-0.178431
0.107442
0.765462
-0.0238271
0.480778
0.0654855
1.38327
0.00293862
1.25925
0.575139
-0.319649
0.470593
-0.210919
0.909551
0.0028427
1.0725
-0.0165588
1.66104
-0.0300829
1.05123
0.986202
-1.64683
0.303957
1.1188
-1.14647
1.04471
0.991065
0.936923
0.652055
0.446163
0.369203
0.303952
1.01906
0.13043
0.444594
0.740683
1.40181
-0.0293285
-1.10116
-1.08198
-0.650682
-0.459716
-0.194429
0.841186
1.08013
1.49641
-0.0563235
1.67811
0.707065
1.07929
-0.378143
0.375259
0.812934
0.969492
1.08329
1.41713
2.3814
0.326808
0.06004
0.0603748
1.12591
-0.00220338
0.740764
0.340348
-0.70183
-0.28019
2.1102
1.56691
-0.995401
-0.152587
0.902886
-0.153688
1.15336
0.231254
2.21602
1.49493
0.747178
0.455354
0.368984
-0.768221
1.30544
-0.71355
1.81874
-1.67084
0.904708
-0.383501
0.367702
1.69559
1.02511
0.350365
0.849997
1.66545
1.82578
0.578081
0.372607
0.450159
0.114601
0.0375616
0.753975
1.52591
1.75395
-0.841267
0.498479
0.713792
0.373336
0.910708
0.899964
0.862181
0.986003
1.6252
1.81414
0.807521
0.907163
0.474613
1.75693
-0.253366
1.4999
1.65082
1.31684
0.477914
0.715348
-1.67472
-0.445163
1.2269
-0.122302
-1.226
-0.710455
-0.815201
0.54787
1.06852
0.712347
0.460418
-1.24329
0.13747
0.897796
-0.271898
0.793428
0.291042
-0.829567
-0.924405
-3.22484
0.100705
1.38684
1.91936
2.17649
2.49874
0.461498
0.81913
1.27443
0.896028
0.432584
-0.0699183
1.30676
1.41904
0.0246635
0.0191284
0.654799
2.5901
-0.373218
-0.870766
0.22979
-1.52905
-0.226051
2.01493
0.940656
0.990172
1.16996
0.579676
-0.248589
0.0463479
0.348365
-0.672586
1.06074
1.40013
-1.26958
0.530187
-0.142044
1.6171
0.300165
-1.80007
-1.7547
-0.0488332
1.73047
-0.895782
0.887398
1.56123
2.06076
2.1002
-0.473095
-0.0504201
0.559873
-0.302002
0.846318
1.43938
1.88505
0.703582
0.945724
0.0596055
-0.37035
-1.08423
-0.427713
-0.196664
0.320633
0.276234
0.833215
2.40583
2.51864
1.06922
-0.482222
0.22819
-0.525145
-2.01051
-1.7358
-0.406496
0.780005
2.36398
0.333976
0.278851
-1.17952
2.39122
-1.06361
-0.0677559
0.0864605
0.315247
0.413736
1.16515
0.270633
-0.204465
2.04317
0.56315
0.0819735
-0.640836
0.00111212
-1.68284
-0.983488
0.28241
0.64264
1.73204
0.236322
-0.271688
-1.22112
0.0428661
0.210116
0.851666
2.43924
-0.63425
0.974593
-0.733903
0.916614
1.65043
-0.291485
0.859993
-1.42658
0.253091
1.44764
0.655913
-0.249325
0.522258
0.433338
-0.217879
-0.831048
1.31187
-0.0432366
1.65133
0.186897
0.215
1.38931
-0.809607
-0.234333
-1.84628
0.54963
0.599993
-0.590086
0.150301
-0.654751
0.721153
-0.904513
-1.0714
0.433598
-0.0618093
-0.980292
0.792326
-0.402596
0.297978
1.00967
0.638154
0.252471
0.489934
-1.08979
0.440567
-0.71872
-0.166012
0.991924
-0.0643932
-0.95164
0.694341
0.96219
0.536391
0.734193
0.160976
-1.52044
-1.44236
-0.845126
-0.909381
0.676607
0.738954
1.93888
1.64156
1.64794
-0.0211917
0.476535
-1.67904
0.677606
0.891151
-0.332509
-0.392301
-0.132203
0.526678
0.419801
-1.06168
-0.838152
0.0256652
0.698367
0.00264566
1.40433
-0.00916222
2.32281
-0.110145
1.1714
-0.0347724
0.410345
-0.76542
-0.232739
0.565623
0.180963
0.805822
-0.205379
1.87522
-0.445223
0.467637
-2.13546
0.811242
0.630091
1.444
0.934456
0.88012
-0.469782
-0.249035
-1.10032
0.143231
0.990127
-0.338993
-0.67036
-0.404082
0.181288
0.275268
-0.686909
1.59806
-0.244485
-0.567467
-0.753536
0.226845
-1.23017
0.922256
1.33199
0.948868
2.56679
-1.06923
-0.262958
-1.12834
-0.0834977
0.583264
2.34712
-1.49786
0.115978
0.165611
-0.173845
0.741974
-0.382988
-0.384935
0.303127
-0.306126
0.757066
0.812982
2.09003
1.27069
0.689915
-0.816161
0.147935
-0.224928
-1.09646
1.18039
-1.73139
0.608534
-0.353581
0.811842
-0.185651
1.09086
0.676253
-0.235148
-0.370695
0.485325
-0.210824
0.160329
0.571993
0.97115
-0.474925
-0.624369
0.816056
1.3692
-0.127381
0.286431
-1.14185
0.342379
0.136326
0.52148
-0.295495
-1.04957
-0.080047
-1.51114
-1.75262
0.410306
0.627847
-1.37556
1.45003
0.596541
0.416111
0.120782
-2.34076
-0.873542
-0.364989
-0.959859
-0.26669
0.419854
-0.867493
0.159403
1.28652
1.10996
1.22016
-0.0274751
-2.09766
0.581831
-0.225688
0.475294
1.49598
-0.570826
2.64274
-0.657884
0.120245
0.362362
-0.370686
-0.225484
-0.0579253
0.587
-0.218326
-0.499729
0.226641
1.4623
0.216024
-1.529
-1.3158
0.29391
-0.531872
1.57299
2.18776
1.78793
-1.03956
-0.864863
-0.379024
-1.74932
-1.19351
-0.573248
-0.00491562
-0.0166555
0.608463
0.430355
-0.608012
0.807269
0.075056
-2.03825
-1.53499
1.23358
1.33884
-1.00114
1.0533
0.371012
-0.248424
0.858763
-1.59756
-1.87433
-1.2636
-0.015544
0.983156
0.054861
-0.473477
2.66681
0.503328
0.776058
0.328967
-2.10465
-1.11537
-2.76594
-0.949818
0.277098
0.0540168
0.0507192
-0.288178
0.562195
-0.0632449
-2.09006
-0.212002
0.396527
1.15806
0.456601
-0.481244
1.67105
0.236012
-0.628726
-0.764113
-1.46679
-0.359848
-0.00112905
-1.34347
0.494082
1.05355
-0.0214567
1.83358
-0.014246
-0.0762126
-1.89306
-0.580416
-0.461319
1.52115
-0.311233
-1.35596
2.09223
1.62079
-0.794287
0.198298
0.361617
-1.19359
-1.37752
-0.524674
0.129013
1.86714
-0.0127246
0.221398
1.10462
0.228158
0.805157
-0.256372
0.0018916
0.879872
-0.852586
-0.859484
1.29406
-1.74348
-0.341939
-0.0392426
0.590737
-0.812156
-0.585598
0.186881
0.210491
0.407793
-0.136844
1.05345
0.0940178
0.349327
0.30261
-1.68326
0.286796
-1.35052
-1.25186
1.30679
-1.4921
0.808186
-1.36537
-0.906863
-0.581255
2.17894
-0.804423
0.128215
0.271476
0.313997
1.18672
-1.5456
0.507481
0.171399
-0.338639
-0.392162
-0.98557
0.302008
-1.64703
0.945711
0.954083
0.986369
-0.305468
-0.144461
0.661891
0.608166
0.627493
-0.133724
0.145047
1.13714
0.398864
0.367661
-1.32475
1.02509
-0.732563
1.32791
-0.0758591
0.00631409
0.154307
-1.45995
-0.30641
0.679579
0.922978
0.838444
-0.00392181
-1.75063
-1.11078
-1.35301
-0.535219
0.170566
-0.825911
0.054888
-0.637928
-0.567286
-1.92656
-1.80417
-0.603037
0.123495
-0.0520695
0.510215
-0.734206
-0.413537
-1.06455
-1.08821
-1.62366
-3.88643
-0.0343908
0.0591169
-0.0312006
1.73566
0.0888678
1.50886
-0.291037
-0.624352
-0.43657
-0.233626
-2.51344
-0.013652
-0.772782
-0.253642
0.430451
-0.242662
0.95945
0.130084
0.706318
-2.41869
-1.41169
-2.06004
0.651357
0.735236
0.356513
-0.286147
0.927584
-2.24619
0.831209
0.670046
-1.94587
-0.674157
1.51069
0.0101936
-0.587444
-1.18872
-0.414904
-1.74425
-1.1973
-1.54701
-1.41214
0.711396
-1.98007
-0.404426
0.185787
0.384026
-1.26266
1.59717
0.13477
-1.87906
-2.79912
-0.964964
-0.300624
2.00166
1.16038
-0.37107
-0.421845
0.0236874
-1.60197
-0.811587
-0.220917
1.20638
0.0110572
-1.09841
1.06422
0.455539
0.190374
-1.74568
-0.813094
-1.76895
0.00540899
0.0467184
-0.306011
-1.18881
0.145436
-0.723274
0.87591
-0.992788
-1.19785
1.0973
-0.181456
-0.578022
0.397856
-1.17383
-0.460089
-0.295722
-2.50571
1.57635
0.290591
0.504553
-0.246705
-0.820481
-0.199955
1.37252
0.867104
-0.0893245
0.850003
-0.34292
-1.63782
-2.10616
-0.165206
-0.454044
0.732347
-0.733352
1.33615
0.00317204
0.401226
-0.145328
-0.119698
0.110653
-1.15588
-0.304255
0.568112
-0.426077
-1.4457
-0.449462
0.966276
0.192244
0.00719168
-0.923389
1.06932
0.0113414
-0.0944385
0.385017
1.07722
-1.00403
0.478591
0.264866
-1.24417
-0.572618
0.944046
1.58011
-0.24567
-0.117718
-0.0681293
0.0264928
-1.2438
0.13939
-1.1031
-2.07899
-1.52535
1.27199
-1.08969
0.707593
0.414346
-1.18655
-0.158384
-1.52128
-1.50188
-0.266719
-1.9642
-1.38705
-1.64632
-0.15423
-0.15564
0.64529
-0.818928
-1.17011
-1.25159
-2.6105
-2.74022
-0.552548
0.170638
-1.4947
-0.200661
-0.449057
-0.773259
-1.53044
-1.41704
-1.84675
-0.687195
-1.9385
-1.09255
-1.75225
0.447594
-0.765355
-1.22943
-0.991151
-2.87165
-1.46038
-0.924804
-0.410819
-1.84699
-1.63468
-1.09517
-0.838595
-0.270734
-0.53474
-1.54644
-0.892612
-1.07276
-1.11309
-0.315122
-1.70008
-0.297131
-1.42296
0.386316
-0.422826
-0.693997
-2.15949
-0.496981
0.730512
-1.76483
1.87449
-1.48005
0.752088
0.346048
-1.05278
0.368836
-3.10927
-1.18995
-1.3816
-0.37643
-1.41643
-0.371238
0.579734
0.3953
-0.40661
-1.94271
-2.34541
-0.649721
-0.322525
-0.304193
-0.093314
-0.676071
-0.434406
-0.294134
-0.949125
-0.00660722
-2.30578
-0.516887
-0.524916
0.700001
-0.644848
1.02082
-0.0669928
-1.39769
0.546244
1.35273
-1.71068
-0.849769
0.890108
-1.75652
-0.657397
-0.143075
0.205842
-0.980292
-0.513574
-1.2155
-0.170135
-0.632863
1.07577
-1.19185
-1.26709
0.186627
-0.401641
0.980494
-0.768441
-1.4667
0.0535022
0.735168
-1.35765
0.847383
2.63043
1.78672
0.0940393
0.847491
-0.391997
1.01557
0.759246
-2.07957
0.859198
0.529776
-1.60578
-0.186093
0.063941
0.761558
-0.0830813
-0.250648
-0.152435
1.055
-0.138153
0.0780768
-0.711741
1.85551
-0.504888
0.702914
-1.41993
1.3454
0.466787
0.674774
0.904794
0.388726
-1.63074
0.464672
-0.152881
1.62347
0.109153
1.5266
-0.951406
-4.39161
-2.90668
-0.930385
-0.663243
-1.14784
-0.0984326
-0.621669
-1.79327
-2.76014
-2.15074
-2.24212
-1.22818
-3.19295
-0.7531
-0.981235
-1.92774
-1.37161
-1.17458
-2.33073
-2.8704
-0.233136
-1.40192
0.00117968
-0.222689
-0.220225
-0.651601
-0.378728
-0.786445
0.0115401
-0.170368
-1.54974
0.420587
-1.70508
-0.575919
-0.878466
-0.616896
-0.812806
0.0371238
-3.38735
-3.82406
-0.959549
-0.679946
-1.8467
-0.273434
-1.07332
-2.09956
-0.313378
0.471302
-2.41338
-2.34478
-1.48937
-1.92588
-0.327813
-1.71132
-0.216855
-1.30225
-2.72658
-1.05117
-2.26459
-0.0317257
-0.533338
-1.3898
-1.3181
0.351377
-0.0770786
-0.568222
-1.22788
-0.604375
0.0813535
-0.74778
-0.765826
-1.71433
-0.281421
0.444497
-0.33297
0.259607
0.6846
-0.341357
-0.869504
0.3801
0.302321
-0.602491
-0.223204
1.0581
0.323751
-0.461096
0.730466
-0.472446
-1.40942
-1.10726
-0.341801
-0.508117
-2.18604
1.13565
-0.18123
0.708517
-0.78933
0.372209
1.44236
0.572348
-0.348533
0.0769831
-1.18686
1.00407
0.152635
-0.225284
-2.22695
0.173186
-1.94729
-2.33501
-1.67275
-1.25389
-0.740752
-0.600994
0.279593
1.07023
0.114108
-0.209013
-0.231067
-0.623094
-0.336671
0.504089
-0.43243
-0.297792
0.228693
-0.357516
0.113702
-2.1849
-0.206111
0.698057
-1.94074
-0.577902
0.353853
0.884225
-0.0261832
0.371579
-1.01222
0.887913
0.609874
-0.481721
0.610073
0.586314
-0.365112
-0.0393843
0.0394603
-0.35097
-1.0046
-1.21522
1.18718
-0.516672
0.802794
0.00893324
0.39867
-0.462866
0.499271
1.76055
-0.590341
0.467917
-0.450959
-2.78381
-0.859707
-1.2566
-0.718305
-0.638622
-0.336699
-1.42346
-2.6552
-1.55411
-1.99171
-2.27929
-1.14666
-2.99321
-1.69759
-1.8857
1.30023
0.957807
-1.29196
-1.43485
-0.865162
-2.61322
-0.122542
-1.52211
0.424219
-1.74462
-0.19476
-0.327372
-0.19916
0.363456
0.122267
-0.384145
-1.66347
-0.184431
-1.57922
0.012773
0.725883
0.175506
0.458838
-0.0403596
-1.60881
-2.66701
-2.30946
-0.550989
0.971678
-1.3682
-0.0768004
-0.898153
-0.348436
-0.850394
-3.22794
0.173633
-2.86877
-1.31505
-1.26159
-0.662511
-1.08854
-1.22104
-1.1295
-1.46889
-0.110993
-1.36983
-0.636871
0.291915
-0.20856
-0.389804
-1.16708
-0.396503
-1.30658
0.103302
-1.48733
-2.23805
0.207945
-1.25554
0.419082
-1.17431
-1.7848
-0.15601
0.55339
-0.425607
-0.83024
-1.45423
-1.42701
0.882087
-0.00771011
-0.482701
-2.90601
0.0142521
0.125226
-1.77741
-0.388044
-0.534119
-0.706997
-1.62416
-2.00093
-0.0139254
-2.39443
1.24991
-0.651156
0.385739
-0.146579
-1.82942
-2.1846
-1.02497
-0.604115
0.205911
-0.137526
1.39092
-0.0871693
-0.915899
-1.13934
-1.05651
-1.59487
-0.128028
-1.26467
-1.89374
1.35799
-1.55116
-0.000100264
-2.28753
-1.74396
-0.70263
-0.740179
0.301485
-0.769659
-1.579
-1.20455
0.69849
-0.362872
1.55561
-1.50986
-1.7307
-1.54099
-1.48194
-0.0793578
0.355753
0.804271
-1.68892
-0.573925
-0.529936
0.142807
3.18513
0.184919
1.81832
-0.448916
-0.0521421
0.347923
0.388799
0.725193
0.120699
0.251209
0.674376
-0.869166
0.917919
1.96013
-0.424061
-0.221809
-0.332919
-0.195676
-1.2706
-1.43773
-0.884574
-2.26951
-2.44517
-0.782714
-1.25966
0.182889
-2.93657
-0.414961
-1.63409
-2.09285
-2.20124
-2.29154
-3.65564
-1.12356
-0.836746
-1.1451
0.212877
-0.507761
-2.02074
-0.710836
-2.48727
-1.45279
-1.07902
-0.665114
-1.11985
-0.0902869
0.990939
-2.22276
-2.35024
-1.86541
-1.22054
-0.704649
-1.25974
-1.47407
-0.997057
-0.843653
-1.73793
-1.0423
-0.815282
-2.86359
-0.227305
-2.32718
-0.467987
0.0209685
-0.0759009
-0.345846
-0.0180452
-1.32279
-1.43521
-1.0327
-0.314852
-0.271576
-1.30658
-1.7899
0.213163
-1.05154
0.399658
-1.62514
-1.75865
-2.92573
-3.62398
-0.653677
-1.3974
-0.500773
-0.755999
0.564565
-0.169615
-0.420761
-1.1866
-0.996357
0.755808
-0.143675
-0.648942
-1.0991
-0.620833
0.421098
-0.26368
0.188467
-0.219756
-1.90068
-0.529728
-1.61826
-1.58149
0.320987
0.387779
-0.939635
-0.494875
-1.49461
-2.31091
0.87822
-0.994978
0.147804
-1.76135
-1.20629
-0.446522
-0.579332
-1.5328
-1.46812
-0.592357
-0.557075
0.979275
-0.752491
-2.29904
0.197687
-0.730857
-1.04638
-1.74472
0.194636
-0.516625
-1.36572
-1.05303
-0.732573
-0.772221
0.46595
-0.774923
-1.91344
2.00439
0.0790786
-0.419139
-0.151501
-0.0476447
0.668147
1.40239
-0.934117
0.938759
-0.0076245
0.206915
-0.763234
-1.6522
-0.342243
-1.24224
-2.07446
-0.391782
-0.650658
-0.702429
-1.4955
-0.352305
0.455533
0.0474715
-1.06898
-0.637068
-1.41077
1.132
-0.689186
-1.3939
1.05209
1.07922
-0.373466
1.26494
-1.03304
-0.81279
-0.108963
0.214601
0.362166
-0.124564
0.434082
0.201177
0.822728
0.506663
1.13733
-2.17687
-2.44992
-1.14125
-1.54798
0.846246
-1.06758
-1.09522
-0.598181
-0.717692
-1.70122
-2.11659
-1.23922
-2.09491
-1.44078
-2.3905
-0.735461
-1.36686
-2.30968
0.62508
-2.61854
-3.04198
-0.428752
-0.867667
-0.34825
-0.48498
0.21921
-0.566551
-0.0716114
-1.43332
-0.0677871
0.0162428
-2.62849
-0.0234262
-2.72943
-0.250844
1.49072
0.134498
-1.26367
-0.276793
-0.413847
-1.97743
-0.848255
-1.28873
0.0904201
-0.229729
-1.00873
-2.04006
-0.0216848
-0.0267612
-2.19362
-2.7827
-2.56584
-0.331745
-1.80828
-0.401505
-1.04573
1.0127
-0.590937
-0.636031
-1.47976
-1.81614
-1.32843
0.223571
-0.0951657
0.663572
1.11799
-0.672351
-0.165736
-1.08728
-1.43317
-2.33388
-1.44914
-1.05961
-0.44551
-1.96235
0.360754
0.0460277
0.70714
-1.00865
-1.02482
-0.795401
0.188132
0.244195
-1.07621
-1.23848
-0.102981
-1.19529
-0.986494
-1.30209
-1.78023
0.179703
0.809811
0.00214541
0.162652
-0.663074
1.1213
-0.470753
-0.436789
0.200228
0.398404
-1.88828
-1.21621
-0.135893
-0.25485
-0.833651
0.312125
-2.38418
1.57613
-0.378585
0.0270091
0.243324
1.21022
0.255766
-1.45816
-0.916222
-1.46065
-1.86961
-0.601938
-1.72766
0.155376
0.0348105
-0.288843
0.348061
-0.488685
-0.868834
0.17203
0.136363
-1.4716
0.0807824
-0.929318
-0.49668
0.802133
0.979761
-1.47137
1.10908
-1.1757
-1.18127
-0.565111
0.526859
-0.956418
-0.72149
-0.804067
-1.15774
-0.159862
-1.29253
-1.15876
1.07451
-1.34777
-0.500447
-1.92395
0.852215
0.188093
-1.53918
-0.427922
-0.101433
-0.258455
-1.87789
0.355134
-0.703711
0.107532
-2.19903
-2.01542
0.0849486
-1.05475
-1.45928
-0.908512
-1.82747
-1.8025
0.296615
-2.68244
-1.15442
-1.32411
-1.80494
-0.213141
0.676313
-0.396919
0.713867
-1.44449
-0.238853
-0.562842
-2.62438
-1.02949
-0.845932
0.977617
2.1015
-2.44818
0.534905
-1.41378
0.0941552
0.0432101
-0.430372
-0.990763
-0.935637
-1.74737
-0.451072
0.233645
1.29382
-1.33281
-0.0671139
-1.54033
-2.03711
-0.706279
-0.273262
-0.893504
-0.99733
-0.413316
-0.433483
0.376059
-1.44391
-0.247582
-0.695268
-0.617372
-0.197067
-0.516955
-0.958034
0.758696
0.651655
-0.914884
-1.66495
-1.36873
-1.40327
-2.10572
0.441309
-0.479083
-0.549106
-0.0809515
-1.35384
0.462556
-1.69173
0.4882
-1.17546
0.785433
-0.890548
-2.45558
0.181089
-0.674178
-1.57169
0.484559
0.422473
-1.40264
-1.01083
-0.345598
-0.0326076
-0.271296
0.502335
-0.145669
0.430496
-1.61632
-1.13475
-0.106417
-1.69288
-0.532702
-1.2461
-1.03926
0.962046
-0.177897
-0.220428
1.2848
-0.0815037
0.261803
0.668421
-1.30417
0.298893
-1.1437
-0.785174
-1.50606
0.143604
-0.988071
-1.80417
-0.793159
-1.83165
0.0599741
0.12798
0.131774
-1.02078
0.161701
-1.1172
-0.049332
-1.20384
0.921536
-1.78403
-0.528421
-1.03813
1.22669
0.183032
0.461924
-0.300695
0.361561
-1.14927
0.0973963
-1.27901
-0.434899
-0.167248
-0.42391
-1.4453
-0.132893
-2.50613
0.180776
2.09516
0.43874
0.246084
-1.22454
-0.465416
-0.219461
-0.326665
0.258755
-1.62547
0.185569
0.0658853
-0.942085
-0.333066
0.126181
1.20468
0.495885
0.637805
-0.0940699
0.545033
0.781408
-0.38893
0.251799
-1.4977
-1.68117
0.332845
-0.0840803
1.19436
1.52613
1.20675
0.474266
-0.402822
-0.649016
-0.985205
-0.413336
0.978702
1.40547
-0.694622
0.350084
-0.254013
-1.20103
-1.17753
-2.0609
-0.542407
-0.0791898
-0.914606
0.28967
-1.2014
-0.0873502
-0.980766
0.0741122
1.02212
-0.269403
-0.399914
-0.431777
0.0363057
0.75831
0.0640896
0.817872
-0.105059
0.314102
-0.263661
0.0777173
-3.44504
-1.57447
-1.39778
0.856828
0.377913
0.583071
1.92589
0.0373117
0.341221
-0.506681
0.322233
-2.68932
1.13909
0.501903
1.34676
0.495915
0.698124
1.46432
-1.37514
-0.326255
-0.373928
0.395117
-0.761037
0.690777
1.37812
0.139495
-2.17949
0.410896
-1.42743
-1.73455
-1.05038
0.274278
-0.486564
0.933975
-1.88208
0.435984
-1.21342
-0.053029
-0.206112
-0.730358
-0.703566
-0.312561
0.523479
1.04812
1.26653
0.940452
0.138393
-0.0564898
-0.421335
0.293137
-1.85411
-0.56975
-0.707036
-1.00652
0.393463
0.38839
-0.773177
-0.312863
2.87366
-2.27857
0.129454
-0.862282
0.702293
-0.835578
-0.461003
0.452043
-0.311514
1.46586
0.194207
-0.885235
0.478755
-0.505985
-0.230121
-1.26777
-0.262111
0.98996
0.468044
-0.515595
-1.98698
-1.59322
-2.48312
0.337777
-0.729496
-0.87732
-1.3665
0.554224
-0.760133
0.243455
-1.10585
-1.61411
-0.0679454
-0.487513
-0.145224
1.06891
-0.0564025
-1.3361
0.11021
-0.932371
-0.407662
-0.172854
-0.827045
0.119422
1.64901
0.531752
-0.792682
-0.313919
0.151546
0.517554
-0.551596
0.996225
-0.855556
1.12137
1.31346
1.00667
1.17501
-1.56383
0.161138
-1.68298
-1.99524
0.627141
-1.02401
-0.83184
0.60738
-0.0770812
0.0930545
-0.174871
0.496136
0.347098
0.0692545
1.44952
-1.57553
-0.329735
0.611464
1.07076
-0.698375
1.40413
0.375292
-0.907125
0.468782
-0.0527668
-1.03927
-0.61701
-1.37371
-0.135288
2.51115
1.43223
0.891196
0.595815
0.0988571
0.911962
0.607711
-0.0822444
-0.413007
1.2775
0.948172
0.542463
1.01912
-0.213498
0.857401
-0.137963
-0.700252
-1.69418
-0.149191
1.61194
-0.0677454
-1.49633
0.47007
-0.401437
-0.0677555
-0.714213
-0.654654
1.31028
1.60122
0.384506
1.45315
-0.627247
0.22636
0.821356
-0.150563
1.99397
-1.34461
-0.0703237
1.27619
1.42435
1.68247
0.202933
0.176924
0.14383
0.185482
-0.119926
-0.285783
1.02143
0.0815641
-0.194983
0.756597
-0.58289
-0.342839
0.269636
1.1646
-1.00613
-0.166438
0.118015
0.0125105
-0.548328
0.789088
1.0465
-1.83115
-1.32034
-1.75863
0.351835
-1.05015
0.822883
0.205796
1.2289
0.038385
0.55308
0.458038
-1.65768
-0.873873
-2.0783
-0.983894
0.517837
0.466834
0.228968
0.70845
0.626045
0.42589
0.0507175
2.16499
1.40405
0.0683361
0.21909
0.657053
-1.64735
0.361165
-0.866689
0.661871
-0.896965
-0.295475
1.12702
-1.28735
-0.924735
-0.89079
-0.615009
-1.25159
1.27046
0.594451
1.07312
0.143108
1.04119
-0.630129
0.508611
-0.0760811
2.68914
0.340596
0.306723
-0.16458
0.557244
-0.516628
-0.953855
1.66361
-1.03843
-0.68428
0.833254
-0.256777
0.500928
1.04697
-0.261031
1.10504
1.25644
0.273039
-0.898937
0.830649
0.893418
0.839516
-1.29908
-1.75256
-0.222551
-0.588503
2.11063
-2.11163
0.394632
0.267223
-0.168449
1.10657
2.2979
1.86544
0.919496
1.19255
0.381642
0.509846
0.080013
1.52972
0.401679
2.1
0.0135438
1.75488
1.16465
0.721719
0.169127
0.669883
0.114239
0.911503
0.218267
1.90125
-0.342121
1.97009
-0.248453
0.534872
-0.466232
0.112581
0.785614
-0.121167
0.936261
0.237731
0.410844
0.216705
0.936577
0.0893447
1.34306
-1.80522
0.602603
0.330654
0.732085
0.328785
1.54276
1.02745
1.0756
0.0705301
0.231542
0.414363
1.27231
0.247885
3.20824
1.10401
0.141063
0.43647
0.212293
2.33776
0.170956
0.352699
-0.91532
0.967028
0.429291
1.59036
-1.20808
0.101379
2.0031
-0.14052
1.53649
-0.98324
-0.655284
-0.866204
-0.210566
0.0890086
0.390053
-0.742177
1.75462
-0.813365
-0.166432
0.299893
1.1029
-1.07318
-0.336079
0.884725
2.03753
-0.251568
0.177345
-0.20731
0.665145
0.677326
-0.0687482
-1.27822
0.528527
0.725789
-0.511062
0.0219295
1.99646
0.567939
0.618909
1.11812
0.111443
-0.84533
0.292699
-0.115379
-1.61087
1.71522
-0.598831
-0.789252
0.789727
-0.43924
0.799254
1.81308
-1.57108
1.67701
0.435636
1.74336
-1.16109
0.628832
1.5612
-0.704055
-0.547155
1.21465
0.389378
1.97192
0.108258
0.793459
0.556402
-1.15625
0.188176
1.18413
0.53815
-0.112475
0.715256
-0.942061
-0.406535
0.302667
-0.6583
2.15123
-0.388888
-1.00391
0.665263
0.700192
-0.406792
-1.123
0.585622
1.29602
-0.372055
-0.457594
0.671112
0.370496
-0.809528
2.29149
0.325833
0.430036
0.425938
-0.393531
-1.00087
-0.537339
0.368357
0.53461
1.14676
0.613928
0.674935
0.0823581
1.78032
0.274313
0.153326
1.30031
2.3128
1.60504
0.624525
0.743498
0.60967
0.229841
0.919632
1.82992
3.19994
3.05187
0.0781967
-0.632504
1.99222
-1.31545
2.21643
3.07052
1.85818
0.552706
2.39003
1.10574
0.904342
0.724003
2.24067
0.913781
1.54547
1.13866
0.346832
0.869482
1.16169
3.37408
-1.04819
-0.408639
1.00945
1.60117
3.66268
1.29564
0.653208
1.38979
1.9572
0.0397307
-0.428748
0.94286
-1.79104
1.24569
0.128194
0.970701
2.40779
1.14325
1.43171
1.16956
-0.0617507
0.0721295
0.162078
1.18177
-0.255886
1.12004
0.727408
-0.212931
2.75522
-0.349761
1.86284
0.838319
-0.484253
1.88804
-0.119737
0.65817
-0.322508
1.3164
1.57198
1.72181
1.43056
-0.823171
-0.642718
0.328142
0.98434
1.1057
2.04951
0.619786
-1.67015
0.69047
1.29959
-0.551416
1.57479
-0.808264
0.991492
-0.245061
1.95464
0.331707
0.392894
0.0440855
0.990394
1.3482
0.181782
0.0563788
2.291
0.295213
1.77051
-0.432347
1.85387
0.913382
-0.34524
-0.00748726
1.33944
-1.40894
-0.367182
0.673525
2.53421
-0.940841
0.568231
-0.0445151
0.737068
-0.673856
1.13009
-0.0469662
1.67583
0.607556
0.115697
1.97079
0.0121725
-0.267747
-0.486018
1.10602
-0.411175
0.902137
0.368182
1.32639
-0.0848148
0.668935
3.10672
-0.305601
1.11934
0.279439
-0.0581512
0.496474
-1.28314
-0.544477
0.452912
0.746973
-0.0344529
-0.653581
-0.76701
1.25362
-0.635355
0.238495
-0.370262
1.50151
-0.439785
-0.241014
-0.519741
-1.91429
-1.26556
0.867848
-0.164801
1.28406
3.0849
3.49563
2.861
2.20914
4.611
3.58858
3.44558
1.69685
0.116947
3.14897
1.65706
3.5793
1.83609
3.63446
2.80539
2.02007
1.2441
2.15203
-0.129249
0.150264
-0.095365
1.54146
-0.287805
3.18232
-0.331599
2.6536
0.282664
-0.322972
1.9027
0.3749
3.24502
-0.0697713
2.17494
0.321815
1.97939
-0.709547
1.46999
0.488476
1.65775
2.04226
2.3742
0.974127
1.90377
1.35395
3.05005
3.84607
2.91733
2.34732
2.81959
3.01852
0.803638
2.3878
3.83153
1.97166
1.15795
-0.0964944
0.130892
-0.0825464
-0.0482603
1.21416
2.59678
1.6885
1.44421
1.5354
2.37979
2.27685
0.941417
-0.492397
0.157126
3.27088
2.06563
2.52789
1.34314
1.6531
1.81153
0.511628
2.62513
-0.00664503
-1.17107
1.3249
0.00819348
0.308377
1.77853
1.78052
0.920475
0.250988
3.88394
1.9291
1.87367
1.49126
2.21648
1.01551
1.02865
1.39363
-0.140565
0.806401
0.679545
0.716441
-0.426221
-0.232472
1.56053
0.595647
0.498268
1.03213
0.546924
1.00694
0.297797
1.90642
-0.909906
2.22635
0.148862
2.03858
0.906128
2.02053
0.0328505
1.79206
1.93021
-1.60482
0.293531
-0.746006
0.790827
-0.681175
-1.8047
0.390185
1.08889
-0.552707
-0.202982
0.612255
1.69046
1.45036
1.05827
1.23838
1.85478
1.51627
0.217385
-0.559301
1.28483
0.703602
0.0981291
0.687551
1.40204
1.48692
1.33931
-0.013948
-0.602455
0.605019
0.796841
0.188055
-0.891875
0.753851
0.482564
-0.0875226
-0.185662
-0.162411
-0.719572
1.20036
-0.165865
1.62037
1.60845
2.47135
0.998283
2.49567
2.29492
2.35485
1.54079
2.97003
2.63473
3.80207
3.11732
3.35396
2.76009
3.9345
2.80533
2.11808
2.30207
2.62065
1.43591
-0.906027
1.47515
2.4581
2.05521
2.75951
3.29225
1.81375
2.1142
2.45651
2.99634
2.67124
1.76251
3.02189
3.47211
2.66206
2.4492
2.65928
2.422
3.91684
1.01021
-0.110512
1.45706
2.05246
0.773334
2.76614
1.93084
1.87023
1.40969
0.0914347
1.0425
1.12162
2.76127
2.06873
1.20564
3.53814
0.736146
1.84376
1.29357
0.973115
0.750384
2.23429
-0.415927
1.05602
1.40007
0.696431
2.58065
2.27442
1.01897
2.49669
1.04367
1.37634
1.66642
-0.602242
2.83118
0.727486
3.92074
1.21414
2.42828
2.51592
1.35331
0.0771798
1.28842
2.23689
1.07296
3.39023
1.13864
0.620975
1.03564
1.19975
1.18317
0.856661
1.56601
1.83261
1.60552
1.1418
1.31959
1.14219
1.09132
1.9041
2.31596
0.205066
-0.396653
-0.0477369
1.50482
0.494727
0.106229
-0.379007
-0.362055
-0.307046
1.57136
2.51601
2.2523
1.93779
0.752763
1.83706
1.92742
1.76045
0.00931222
0.885217
1.54518
-0.832383
1.03249
-0.155623
0.984886
0.0436106
1.37721
-0.523935
-0.430312
1.21965
1.42228
1.76856
1.42607
-0.375273
0.0449232
0.330792
-0.535632
-0.094337
2.15172
-0.969273
1.36781
0.653759
1.3709
0.376062
-0.763004
1.53986
-0.0808402
-1.12392
1.52372
1.15826
1.13659
-0.90554
-0.793815
-0.00417569
0.14844
0.873111
1.13145
-0.566954
0.766396
0.139365
0.891917
)
;

boundaryField
{
    hotSide
    {
        type            calculated;
        value           nonuniform List<scalar> 
400
(
-2.9808
-0.603229
-1.01555
-0.233207
-3.39666
-1.70436
-1.51408
-1.96545
-2.31244