/*--------------------------------*- C++ -*----------------------------------*\
| =========                 |                                                 |
| \\      /  F ield         | OpenFOAM: The Open Source CFD Toolbox           |
|  \\    /   O peration     | Version:  2212                                  |
|   \\  /    A nd           | Website:  www.openfoam.com                      |
|    \\/     M anipulation  |                                                 |
\*---------------------------------------------------------------------------*/
FoamFile
{
    version     2.0;
    format      ascii;
    arch        "LSB;label=32;scalar=64";
    class       volScalarField;
    location    "0";
    object      stateMean;
}
// * * * * * * * * * * * * * * * * * * * * * * * * * * * * * * * * * * * * * //

dimensions      [0 0 0 1 0 0 0];

internalField   nonuniform List<scalar> 
3200
(
332.138
327.846
329.353
328.79
330.116
329.301
329.866
330.894
331.117
331.034
332.205
330.143
329.344
330.854
330.353
329.744
328.916
329.407
326.569
328.166
325.751
325.567
324.684
327.042
325.569
324.836
327.212
326.42
326.233
327.94
327.78
326.055
324.582
326.058
325.807
325.508
325.821
323.106
323.997
326.703
322.132
323.819
319.931
320.599
321.354
320.409
322.648
322.124
322.896
321.765
323.465
324.19
322.906
322.858
321.866
320.768
320.759
321.048
321.389
321.37
317.355
317.402
318.147
316.765
318.659
316.85
317.129
319.423
320.132
320.443
319.649
318.205
317.576
318.838
317.343
315.826
317.705
318.742
316.605
318.823
314.188
315.384
313.092
313.129
312.705
313.749
315.665
314.405
314.528
316.214
313.512
314.304
314.922
313.455
314.397
313.105
312.66
314.768
313.449
314.046
310.211
309.369
310.427
309.465
310.211
309.657
311.393
311.259
310.83
311.665
311.992
312.015
311.174
309.558
310.403
310.286
310.081
308.972
310.259
310.559
304.101
306.892
304.942
305.509
306.812
305.575
304.969
306.22
306.566
306.593
305.491
306.945
307.468
308.021
305.966
305.224
304.728
305.59
306.275
305.499
301.957
300.735
302.68
301.11
300.82
302.325
301.769
302.594
301.512
302.387
302.18
302.641
300.382
302.89
301.634
302.454
301.761
302.33
304.909
301.292
329.852
331.122
328.885
329.348
327.887
328.286
331.156
331.064
330.973
332.381
331.401
332.215
331.149
329.952
330.233
329.501
329.391
327.954
329.135
328.995
327.057
326.023
326.126
326.542
325.775
327.871
328.955
328.886
326.434
329.277
329.39
327.719
328.348
326.925
327.952
326.106
326.789
325.375
325.551
326.535
324.675
321.219
320.869
321.99
321.341
322.436
321.855
323.103
322.137
322.018
323.07
322.598
321.906
322.662
322.36
322.704
321.222
320.716
322.155
321.869
316.884
318.69
318.08
318.382
316.582
318.799
318.386
317.635
318.961
319.448
319.667
318.08
318.21
317.596
317.675
316.928
317.003
316.898
317.511
317.546
313.903
315.386
313.868
313.817
313.225
313.591
314.631
314.895
314.165
314.874
315.717
315.937
314.107
314.95
314.617
313.326
314.547
312.369
313.415
312.822
311.351
311.483
309.354
309.122
309.393
310.787
310.05
309.811
310.626
311.663
309.017
310.377
311.256
310.202
311.523
310.617
307.924
308.609
308.945
310.776
306.594
306.701
306.246
305.687
305.213
305.512
307.132
306.365
305.891
306.849
307.311
304.944
306.404
307.006
306.361
306.944
305.934
304.871
303.708
305.417
302.478
302.892
301.31
301.661
301.603
304.513
302.43
301.97
302.245
301.088
301.996
302.314
302.787
300.684
301.985
301.088
300.972
301.822
301.014
302.146
330.448
331.045
328.891
330.695
328.817
330.112
330.079
329.647
331.793
331.958
331.769
332.558
331.95
331.429
331.701
329.031
329.513
328.663
329.671
331.256
326.214
326.74
324.441
326.536
326.128
327.46
324.197
325.3
327.091
327.859
329.18
328.122
327.285
324.62
326.371
324.83
326.537
326.741
326.28
324.28
322.93
322.764
322.102
322.398
322.473
321.198
322.154
322.93
323.045
322.931
322.896
322.427
324.858
323.849
321.153
322.215
322.754
320.723
320.055
321.681
318.498
318.15
317.625
318.927
317.122
318.317
319.377
319.749
319.55
322.288
319.841
320.114
317.764
319.274
318.534
318.262
317.235
316.773
317.336
317.974
315.846
313.691
313.083
313.009
312.985
314.807
315.474
314.153
315.867
315.211
315.846
316.045
314.935
314.949
314.035
313.69
315.401
315.645
314.408
314.508
310.232
310.674
308.706
309.868
309.838
310.178
310.126
311.16
311.196
309.782
309.645
310.308
309.93
311.855
309.182
310.634
308.999
309.163
310.29
310.428
305.645
305.085
306.853
305.493
306.294
305.432
305.927
306.01
308.167
306.387
306.38
306.39
305.479
307.199
307.333
307.407
305.289
306.269
307.185
305.697
303.685
303.521
302.443
302.696
300.715
303.057
301.756
301.558
302.83
303.178
304.004
302.284
302.73
302.165
301.022
301.971
302.245
301.449
302.267
301.72
329.943
330.922
330.309
330.733
330.523
328.829
330.63
332.07
331.772
333.582
332.8
333.44
332.869
331.335
332.227
330.556
330.442
328.595
329.232
330.225
326.192
326.257
326.052
327.335
327.336
328.246
327.382
329.143
328.164
328.994
329.889
328.952
329.357
327.855
328.308
326.745
327.328
325.156
326.394
324.963
321.117
324.041
322.472
322.074
324.767
322.993
323.43
323.806
324.325
324.654
324.731
324.673
323.724
324.291
323.593
322.88
321.791
322.805
323.495
323.185
318.799
318.842
318.888
318.193
318.304
318.229
320.095
318.624
319.785
319.514
320.971
320.117
319.489
319.07
318.642
317.967
316.653
318.367
318.322
318.088
313.031
314.338
313.837
314.503
315.817
315.66
313.513
314.261
316.971
316.207
315.151
316.13
314.675
315.392
313.164
313.62
314.096
314.123
313.967
314.925
308.832
310.978
308.618
312.297
309.915
311.393
310.815
309.633
310.409
311.14
310.64
309.769
309.503
310.605
310.636
310.37
310.511
310.399
309.51
308.611
304.343
307.014
305.778
305.676
306.134
305.709
305.825
305.95
305.89
305.284
305.095
306.068
305.905
306.25
304.863
306.76
304.89
304.625
304.856
305.619
301.33
303.746
302.55
300.916
302.304
303.446
302.965
303.1
301.758
301.248
301.605
301.846
303.528
302.118
301.322
302.454
301.35
301.814
302.901
302.969
333.478
330.553
329.775
329.793
330.098
330.323
332.862
332.925
332.775
333.313
333.776
334.119
332.437
331.904
332.797
332.255
331.057
328.572
331.027
331.124
326.116
328.214
327.35
325.585
327.145
327.57
327.824
328.777
329.87
329.713
329.411
330.294
328.296
327.594
329.83
327.556
327.742
325.507
326.385
328.146
324.14
322.716
321.306
324.335
322.963
322.689
322.556
322.824
325.619
325.313
324.703
325.448
324.078
323.178
322.365
323.146
322.493
322.976
323.037
323.469
318.808
318.803
318.587
318.96
318.74
317.494
317.68
319.381
321.114
320.499
321.252
322.643
322.186
320.605
319.12
317.209
318.902
318.629
319.786
315.989
315.402
314.579
314.659
314.686
314.848
314.351
315.478
316.148
314.042
315.596
316.077
316.726
315.943
317.432
316.499
314.98
314.358
313.013
314.275
314.61
311.488
310.347
310.346
309.887
308.486
311.741
310.298
312.146
310.596
309.916
311.857
310.653
312.839
311.02
309.659
310.269
310.988
310.034
309.957
310.485
307.006
304.937
306.391
304.807
306.383
306.464
305.39
307.672
307.157
308.801
306.405
306.323
307.452
306.629
307.334
305.849
307.363
307.419
305.815
306.237
303.051
301.304
302.532
301.868
301.194
301.602
302.022
301.812
303.412
301.891
303.051
302.488
301.31
302.338
303.192
301.51
301.204
301.593
301.362
301.91
332.253
332.56
332.451
333.041
331.991
332.449
331.723
332.417
332.698
334.518
334.02
336.025
333.381
332.771
333.521
333.06
332.264
331.079
330.698
331.795
327.602
327.064
326.813
327.963
327.026
328.889
326.967
329.743
328.71
330.047
329.602
330.646
329.866
328.724
328.699
327.624
328.171
325.636
327.535
326.296
324.875
322.2
322.736
322.306
323.208
323.643
325.34
325.408
326.469
325.336
324.489
325.708
325.829
325.274
324.342
323.867
324.437
321.768
323.255
323.307
319.425
318.662
320.408
318.571
318.481
319.175
317.841
321.713
321.078
322.033
320.988
320.232
318.297
321.906
320.008
319.647
319.667
318.436
319.272
319.056
314.262
315.038
314.199
314.388
313.36
314.421
315.222
316.912
316.081
316.524
317.395
315.049
317.827
315.303
316.046
314.638
315.387
313.865
314.056
314.8
310.8
310.063
310.919
310.722
310.488
310.262
311.865
312.145
310.8
310.297
311.793
311.33
312.663
311.048
311.097
310.539
311.177
311.758
310.628
311.94
308.026
305.934
305.811
307.92
305.201
306.158
306.433
306.807
309.326
307.889
307.38
307.945
307.195
306.429
307.622
306.492
305.257
305.329
305.124
306.3
304.202
301.546
302.386
301.72
300.735
302.837
299.654
302.982
302.223
301.991
302.724
302.568
302.382
301.71
302.484
302.731
301.968
300.698
301.912
303.633
332.629
331.387
332.678
331.073
330.964
331.853
335.126
335.322
335.103
336.613
336.058
335.297
334.462
334.103
333.033
332.722
333.254
331.339
331.606
333.351
328.803
326.347
326.643
329.415
327.799
328.905
329.909
329.122
331.81
332.208
331.598
330.228
328.998
329.606
329.749
326.185
327.911
327.206
327.252
329.373
324.284
326.194
324.716
323.854
324.448
324.809
325.473
324.894
325.714
327.844
325.966
325.254
324.298
324.728
325.341
322.831
323.895
324.395
324.192
324.636
319.383
319.233
320.85
319.312
319.055
320.423
318.834
320.903
321.124
323.025
321.712
321.509
319.368
320.979
321.758
318.017
318.185
320.301
319.034
318.661
316.033
316.377
315.738
315.316
313.814
315.921
315.894
315.182
316.183
315.671
316.732
316.409
315.407
316.968
316.767
314.387
317.188
315.555
315.038
314.248
311.438
311.325
310.704
310.847
310.818
311.525
310.483
311.565
311.398
311.49
313.476
311.46
313.01
312.788
310.081
312.718
310.249
312.256
311.646
311.207
304.212
307.263
306.422
306.379
306.437
305.661
308.483
306.504
306.893
307.431
307.484
308.05
306.709
308.584
305.902
305.797
305.664
306.855
306.603
305.729
301.536
301.539
302.331
302.085
301.127
301.898
301.959
303.676
301.344
303.112
301.051
302.445
302.345
302.173
303.757
302.57
301.55
301.274
301.328
302.148
333.746
333.456
334.138
333.791
333.56
335.013
334.546
335.583
335.758
337.248
337.125
335.794
334.822
334.653
333.677
334.465
333.67
333.85
333.433
333.619
331.748
328.193
328.479
328.977
327.621
329.664
328.602
330.699
331.245
331.17
330.967
333.134
330.422
330.884
330.007
328.927
329.189
327.579
328.029
327.156
326.093
325.332
326.299
323.933
324.197
324.909
325.855
324.892
328.246
325.264
325.425
327.946
326.494
324.058
325.256
325.519
325.773
324.654
325.664
324.871
320.984
321.047
319.185
322.158
320.866
320.55
320.599
322.451
319.739
321.278
323.292
324.135
322.153
321.284
318.734
319.302
320.549
320.318
319.611
321.039
315.974
315.535
314.311
315.724
317.055
315.105
315.906
316.331
318.382
317.509
318.465
316.631
316.474
316.668
317.358
315.812
316.458
314.641
316.307
316.36
309.76
311.146
311.687
310.867
312.597
312.035
312.008
314.332
310.332
311.66
311.446
312.155
312.646
311.912
310.202
310.556
311.354
310.259
311.308
312.495
308.636
306.759
307.135
306.043
307.603
305.625
307.04
306.711
307.306
307.307
307.076
308.317
307.416
306.475
307.387
308.316
307.224
305.715
306.402
306.523
303.113
301.143
302.23
302.366
301.919
301.258
303.366
301.906
302.137
303.654
302.983
301.458
300.805
302.608
302.453
302.372
302.246
303.485
302.073
303.293
334.86
334.637
332.254
335.057
333.701
334.419
336.402
335.688
337.278
337.377
336.142
337.721
336.917
336.861
334.987
334.565
333.322
334.345
334.282
334.033
331.157
331.567
329.737
329.395
331.444
330.517
331.095
331.693
332.645
332.635
333.065
331.802
332.858
331.739
332.068
329.501
330.331
330.413
329.818
331.419
325.715
325.412
325.2
326.958
327.07
326.84
326.864
326.527
326.956
328.054
327.401
327.494
327.369
326.34
327.445
325.732
326.534
324.403
324.91
324.949
322.074
320.599
319.616
322.376
319.002
322.61
320.606
321.201
322.735
321.384
324.862
322.872
322.929
321.734
322.546
321.247
320.031
319.952
320.509
321.858
317.88
316.328
316.192
316.378
316.373
317.153
317.089
317.096
317.856
316.969
319.268
317.424
317.327
315.955
317.122
315.259
316.141
317.267
315.132
314.182
312.835
312.075
310.471
313.264
312.312
311.939
311.717
313.007
312.617
313.357
312.312
312.736
310.951
313.115
313.063
311.468
311.909
310.381
311.993
312.591
306.637
306.016
308.191
306.074
304.379
305.307
307.076
306.386
307.67
306.285
306.542
309.358
306.374
306.64
308.7
307.195
306.857
306.071
306.834
306.942
302.396
301.21
302.43
302.243
303.063
300.523
302.91
301.723
303.861
301.104
301.982
301.766
301.521
302.016
304.01
301.886
302.474
300.669
302.156
300.717
334.625
338.377
337.279
335.713
335.855
336.731
336.031
336.843
338.22
339.295
338.686
338.669
337.449
339.126
336.336
336.173
336.711
335.744
335.16
336.005
332.194
329.82
331.324
330.276
330.855
331.19
331.925
331.902
332.487
331.782
331.964
333.251
331.102
332.978
331.546
331.51
330.894
330.735
329.55
332.711
328.739
326.094
326.095
327.563
326.289
327.375
328.658
327.082
326.449
329.412
329.344
328.409
328.695
326.886
328.013
326.233
327.018
328.142
326.185
327.18
320.489
321.165
322.252
322.426
321.002
321.664
322.365
323.198
322.697
322.076
322.905
322.859
323.684
322.078
321.143
321.686
320.848
320.177
320.973
321.327
315.577
315.79
316.872
316.684
315.594
316.51
317.458
316.402
317.699
318.686
318.384
317.569
317.64
319.183
315.698
316.833
315.752
317.059
315.72
314.515
310.854
311.871
311.572
312.972
310.918
311.899
312.393
314.491
312.159
314.315
314.703
314.005
313.518
312.909
312.653
311.642
310.715
311.535
311.731
311.657
307.496
307.267
306.502
307.52
307.468
307.019
307.676
307.261
309.601
307.644
306.74
309.357
307.953
306.964
306.364
307.196
306.716
308.018
306.042
306.263
302.787
301.714
301.764
302.742
302.444
302.392
302.805
303.479
303.702
301.308
303.012
301.684
302.465
302.055
302.894
301.906
300.616
302.94
301.856
302.756
337.459
335.826
336.583
336.424
336.723
336.778
338.184
339.678
338.763
339.298
339.585
338.356
340.016
338.459
338.327
334.784
334.748
336.618
336.401
335.54
332.809
330.565
332.275
330.658
333.154
331.914
332.322
332.421
332.021
332.346
332.852
334.047
332.406
333.574
331.706
330.683
330.906
330.294
330.482
331.805
328.323
328.169
326.673
325.428
328.045
327.016
328.071
327.713
328.351
330.801
327.399
330.37
328.68
328.435
327.602
327.766
327.621
327.251
327.329
325.767
322.434
321.866
321.151
321.879
322.286
323.278
322.699
323.766
322.468
324.116
324.867
322.363
323.715
321.883
323.285
323.681
321.826
320.89
321.655
321.894
317.885
317.984
315.841
316.908
317.559
320.149
317.378
317.389
319.378
318.034
318.18
318.308
319.138
319.393
317.257
319.47
315.65
317.374
316.171
316.578
313.595
314.04
312.998
312.704
312.019
312.483
311.06
312.625
313.516
313.771
313.689
314.195
312.666
313.716
314.239
310.867
313.651
311.973
314.143
313.51
307.78
307.87
306.9
308.047
308.931
308.629
306.79
307.903
306.021
309.107
309.328
309.118
309.022
307.567
307.068
306.548
308.966
307.775
307.66
306.934
299.189
302.207
300.597
302.89
302.518
302.142
302.122
301.804
302.421
302.297
301.874
303.411
301.611
300.551
302.914
302.688
302.774
302.611
303.663
303.812
336.671
338.327
338.836
337.524
338.347
337.231
340.641
338.355
339.742
340.289
340.397
340.4
341.596
338.828
338.251
338.232
336.528
336.899
338.078
336.497
333.65
332.845
332.759
332.649
333.404
332.656
331.827
335.246
335.518
335.109
334.465
333.873
334.283
334.292
333.563
333.128
333.722
332.722
332.207
334.027
326.704
328.994
327.378
327.146
327.497
328.006
327.89
329.369
329.604
329.266
328.548
328.441
329.353
329.662
327.447
328.473
326.767
328.535
328.426
329.403
325.363
322.546
323.487
322.801
323.263
322.138
323.047
323.44
324.307
324.168
322.416
323.264
323.668
323.976
323.324
322.086
322.564
321.902
322.112
323.64
317.487
318.693
318.809
317.071
317.165
318.645
318.336
319.446
320.34
317.192
319.065
317.881
319.712
319.047
318.152
318.132
318.925
318.696
317.667
317.514
311.163
312.977
314.634
312.253
313.298
313.722
314.517
312.656
313.424
314.302
313.989
313.64
313.623
312.306
313.451
314.48
310.447
312.256
312.644
312.294
307.351
306.685
306.017
308.422
306.619
307.631
307.474
308.492
309.414
308.122
309.022
309.836
308.121
308.332
308.325
309.053
307.84
306.963
307.306
308.372
303.087
303.877
301.356
303.201
303.929
301.505
301.497
302.965
301.339
303.642
303.422
302.713
302.377
302.214
302.682
302.101
302.311
301.665
301.959
301.313
339.185
339.709
338.709
339.437
337.36
339.57
339.859
339.575
339.846
340.908
341.324
340.367
341.072
340.205
340.892
338.941
339.256
339.878
336.634
339.627
335.268
332.868
333.573
333.332
333.743
333.296
334.309
333.999
335.491
334.194
334.11
336.686
333.95
336.471
333.766
331.767
332.85
333.969
332.716
332.64
329.358
328.405
329.07
327.927
328.479
329.475
330.699
328.837
328.953
331.177
331.766
331.492
329.147
330.467
328.868
329.295
327.004
328.372
328.193
328.861
324.296
323.95
322.581
323.093
322.524
322.248
324.195
323.817
324.828
325.221
326.122
325.19
324.711
323.969
325.328
322.827
322.952
322.098
323.631
323.505
318.331
317.457
317.543
319.012
319.322
318.326
319.54
319.43
319.817
320.331
318.371
317.705
318.442
318.182
318.886
316.963
318.407
318.224
317.445
317.138
314.444
313.849
312.871
313.097
313.781
312.734
315.518
311.629
313.634
313.254
313.038
312.045
312.949
314.592
313.962
314.408
314.712
313.337
314.361
312.401
307.517
307.887
307.311
308.212
308.656
307.674
307.763
309.413
307.89
308.916
308.484
307.169
306.961
309.37
306.737
308.963
308.904
308.224
307.071
308.508
303.254
303.353
303.727
302.751
303.905
303.791
301.574
304.012
303.174
304.603
301.827
302.486
304.203
303.077
302.733
302.87
304.469
302.214
303.253
302.425
340.54
340.588
338.773
340.207
340.899
340.618
341.772
341.939
339.974
343.023
341.495
341.595
341.941
340.158
339.033
339.837
338.438
340.302
338.812
338.904
336.011
334.612
334.675
333.106
332.231
337.014
334.236
336.351
334.96
335.072
335.545
336.045
335.873
336.518
335.017
334.099
332.79
335.162
333.65
334.927
330.403
329.235
329.009
329.846
330.16
329.773
329.966
329.298
331.217
330.072
330.519
330.39
329.871
330.05
330.318
328.404
328.3
329.651
330.194
329.735
324.692
325.526
323.148
324.244
324.487
324.181
325.596
323.893
326.129
323.991
325.654
323.652
325.247
326.698
323.919
324.612
325.337
323.104
322.998
324.692
319.177
318.613
318.431
318.806
318.168
318.941
318.476
320.611
320.193
319.197
320.784
319.591
320.241
319.945
317.833
318.848
318.755
317.113
318.349
317.904
312.34
314.383
312.873
314.414
314.152
314.962
313.391
314.587
315.448
314.46
315.499
313.584
313.471
313.403
314.477
313.205
314.387
313.221
314.283
312.086
309.608
308.394
308.96
306.754
307.856
307.631
308.441
307.816
309.355
308.123
309.499
308.641
308.345
308.564
309.538
308.172
310.487
307.741
305.771
307.385
302.378
303.864
303.122
302.896
303.023
302.455
304.355
302.557
302.686
303.699
303.09
302.626
301.538
302.234
302.076
302.79
302.132
301.876
303.028
302.372
341.282
341.679
339.926
340.612
339.596
339.506
340.038
340.942
341.94
342.248
342.584
341.95
340.437
339.84
341.727
340.44
340.782
341.46
341.176
341.845
335.184
334.902
335.963
334.992
336.709
335.806
336.884
335.978
335.134
336.479
336.61
336.588
336.016
335.145
335.655
334.69
335.387
334.734
335.087
334.564
332.877
331.156
331.17
329.112
329.783
329.756
328.569
330.584
330.369
331.262
330.433
333.399
329.482
329.993
328.992
329.665
329.271
328.308
330.957
329.758
324.538
323.89
325.2
323.91
323.38
324.765
327.21
324.723
326.634
326.979
326.294
324.933
325.621
324.097
326.786
324.322
325.814
324.492
324.491
324.894
319.552
319.254
318.538
318.138
318.042
318.482
319.384
319.658
320.079
319.394
321.541
320.228
320.309
320.529
319.029
318.921
319.959
319.374
316.067
321.127
313.367
314.423
312.945
314.573
314.285
313.453
314.288
312.568
313.88
314.98
313.616
314.58
314.264
315.244
314.167
312.834
313.269
314.163
315.548
315.089
310.6
307.818
308.937
309.139
309.681
307.809
309.165
308.197
309.57
310.091
308.545
308.952
308.585
307.336
308.419
309.65
308.152
309.14
308.564
308.29
303.55
302.617
301.104
302.239
303.582
303.119
302.667
302.313
303.391
301.847
303.699
301.718
301.518
301.812
301.63
304.353
302.61
304.436
304.731
302.096
342.354
342.359
341.159
342.088
342.155
342.642
342.162
342.465
342.85
341.525
344.551
343.249
342.201
341.587
343.165
340.844
341.636
342.673
341.058
341.383
337.025
336.77
337.733
336.707
334.266
335.535
336.242
336.67
337.26
336.495
336.799
337.441
337.679
335.855
336.019
336.235
335.553
336.572
335.296
336.124
331.272
332.404
331.033
329.452
331.306
332.895
331.069
332.053
331.799
332.486
332.427
330.421
330.051
331.154
329.946
331.865
330.838
330.063
330.861
328.578
326.444
325.28
324.076
324.075
323.959
325.57
325.711
325.836
325.86
326.198
326.364
325.024
325.898
326.083
325.016
326.224
325.842
325.082
324.045
326.105
319.743
319.544
319.759
320.434
319.208
319.054
322.02
321.581
322.07
319.985
321.387
319.488
320.055
318.96
320.062
319.444
319.428
321.43
320.536
321.655
315.001
313.559
313.689
314.009
313.609
313.764
314.028
314.454
312.376
313.156
314.492
314.322
313.848
316.101
314.029
315.184
313.576
315.053
314.372
312.89
309.717
309.392
309.405
309.178
309.862
307.384
308.099
307.651
308.602
307.715
309.386
308.236
308.8
306.004
308.313
308.303
308.728
307.957
308.984
309.384
301.164
303.878
303.54
302.039
303.145
302.402
301.869
303.187
301.828
301.681
302.664
303.832
302.095
302.023
302.063
304.187
304.625
303.079
303.429
300.717
345.073
342.747
343.094
343.753
342.693
341.699
342.304
343.387
343.209
344.07
343.942
344.322
342.776
343.767
341.897
343.786
341.83
342.196
342.42
342.792
336.731
337.441
336.832
337.719
336.223
338.637
336.474
338.811
338.112
339.155
338.576
337.861
338.684
337.508
338.057
337.713
337.72
336.807
337.466
336.058
333.576
331.295
331.726
331.489
332.05
330.981
331.623
331.675
332.751
332.626
332.444
331.55
332.503
329.442
331.42
332.238
331.785
331.845
329.56
331.6
325.727
327.097
325.345
326.017
324.986
327.902
326.697
324.877
327.079
325.432
327.951
327.593
327.746
327.009
326.605
326.186
327.188
324.557
326.995
326.246
320.04
319.316
321.593
320.96
319.84
318.779
321.15
320.785
321.214
320.365
320.353
321.076
322.24
320.369
320.091
321.236
320.602
318.524
319.851
319.721
313.445
314.508
315.535
314.472
314.952
316.514
313.245
315.605
315.828
314.265
315.494
314.24
313.193
316.531
313.226
314.401
313.022
315.851
313.99
313.002
309.462
309.339
307.62
308.491
306.951
308.854
308.204
308.469
310.2
308.866
307.87
308.506
309.137
308.282
309.904
309.33
308.577
309.493
306.641
309.147
303.942
302.284
302.263
303.385
304.116
302.42
301.722
303.399
303.491
302.366
302.667
303.843
300.736
302.692
302.576
302.567
303.372
303.964
303.486
302.57
344.099
343.653
344.387
344.53
345.318
343.798
345.459
345.703
344.642
343.673
344.381
345.317
345.113
345.123
345.348
344.48
343.375
341.801
341.748
344.556
339.479
336.995
340.475
337.121
336.435
337.803
339.242
337.512
338.871
339.111
339.291
337.736
338.988
338.25
338.522
339.159
338.468
337.998
335.613
339.894
333.398
332.097
331.651
329.738
332.249
333.023
332.4
331.924
333.904
334.405
333.033
335.735
332.635
333.662
332.705
331.137
332.258
331.82
331.936
333.051
327.002
327.006
326.105
327.665
326.407
326.908
327.941
325.047
328.204
326.018
327.043
328.338
325.914
327.848
326.977
327.85
326.093
325.715
325.446
325.643
321.934
321.827
320.948
320.388
320.357
319.497
320.999
323.347
321.028
320.438
322.289
320.143
322.485
320.628
321.792
319.508
321.04
320.883
321.14
320.121
313.765
314.982
315.174
313.007
315.069
313.653
315.907
313.663
314.633
315.905
315.567
314.207
316.926
315.842
314.75
312.83
316.239
314.662
315.209
314.376
309.762
307.989
309.205
307.523
308.631
309.159
307.335
309.319
309.616
309.843
308.251
309.759
308.429
308.938
307.949
309.324
308.53
306.051
309.425
307.969
302.769
303.116
302.576
304.368
303.643
302.658
302.374
303.163
303.789
303.905
301.884
303.77
302.891
303.491
301.609
303.539
303.326
303.592
304.972
304.314
345.368
346.555
345.291
343.678
343.445
344.243
345.035
342.745
343.844
344.027
345.776
347.316
344.207
345.587
343.525
345.105
343.129
343.77
344.37
344.992
338.061
340.473
340.353
340.761
339.28
341.251
337.903
341.514
338.595
341.001
341.607
339.346
340.807
337.84
341.033
338.646
340.344
338.524
341.054
338.743
333.641
332.58
332.331
332.136
333.668
332.858
333.512
331.898
331.159
332.118
332.688
332.185
331.929
334.062
332.374
330.81
332.538
333.215
334.334
333.998
328.079
328.131
326.979
325.709
326.725
327.069
327.062
326.285
326.435
327.795
329.228
328.555
325.394
326.531
325.985
327.071
326.653
326.381
327.571
325.371
321.828
323.06
320.649
322.054
321.838
320.444
320.508
321.422
322.127
318.513
320.468
320.504
320.851
320.073
321.207
321.117
320.668
322.115
321.083
321.141
314.9
316.09
315.957
314.227
315.252
315.405
314.918
315.441
315.007
315.73
314.122
316.924
313.762
315.801
313.864
314.942
313.767
315.692
313.872
313.686
310.994
309.124
310.2
308.701
310.209
311.366
309.2
308.523
310.181
309.839
309.024
307.938
308.162
308.532
308.323
307.673
307.976
309.237
309.977
308.104
302.445
303.06
302.483
301.781
301.708
301.867
303.23
303.826
302.624
302.435
303.044
304.121
302.47
302.733
303.294
303.381
303.345
303.891
301.958
303.315
345.865
346.022
345.332
346.981
345.65
346.003
346.073
346.991
345.634
346.006
344.839
345.487
345.178
345.668
344.364
345.341
345.861
345.501
345.009
346.049
342.144
339.886
339.054
339.61
339.05
338.651
340.243
340.033
339.753
339.246
339.571
340.447
339.125
338.585
339.281
339.361
339.006
339.09
337.444
340.228
335.069
333.604
333.136
334.545
332.676
333.624
333.782
334.319
335.691
334.767
334.688
333.021
333.66
334.446
332.017
334.706
333.474
333.894
334.088
334.208
326.415
329.148
327.78
327.543
328.349
326.557
326.943
328.262
326.827
328.303
327.971
327.658
329.883
326.386
328.411
325.124
327.729
326.408
326.216
327.296
322.239
321.091
320.224
321.471
319.233
321.557
322.137
321.771
321.641
321.676
322.002
321.275
320.974
321.152
321.554
321.303
321.402
321.37
320.475
320
315.757
316.404
316.113
314.62
315.687
316.128
316.657
316.675
316.645
314.78
313.835
314.086
314.375
315.525
314.397
314.255
314.365
316.056
315.122
314.417
310.426
308.589
309.812
308.707
309.682
308.38
310.308
310.235
308.6
308.405
308.058
308.394
310.18
309.739
309.426
310.262
309.786
307.504
310.59
308.226
302.563
301.855
302.862
304.013
301.721
303.353
304.405
301.764
302.135
302.158
304.201
304.087
303.292
303.133
302.399
302.13
303.817
302.472
303.087
302.325
)
;

boundaryField
{
    hotSide
    {
        type            fixedGradient;
        gradient        nonuniform List<scalar> 
400
(
321.511
322.87
325.591
329.677
335.133
341.965
350.181
359.788
370.794
383.208
397.037
412.289
428.971
447.088
466.647
487.651
510.105
534.011
559.372
586.191
323.738
325.08
327.767
331.802
337.194
343.949
352.078
361.591
372.498
384.81
398.537
413.687
430.268
448.289
467.755
488.672
511.043
534.872
560.161
586.913
326.149
327.47
330.116
334.091
339.406
346.071
354.099
363.503
374.296
386.491
400.101
415.136
431.606
449.52
468.885
489.706
511.988
535.735
560.948
587.63
328.704
330
332.597
336.503
341.73
348.292
356.205
365.485
376.15
388.215
401.695
416.604
432.954
450.753
470.009
490.73
512.919
536.579
561.714
588.325
331.33
332.599
335.142
338.97
344.099
350.546
358.332
367.477
378.003
389.928
403.271
418.047
434.27
451.949
471.095
491.712
513.807
537.382
562.439
588.978
333.918
335.158
337.643
341.389
346.414
352.74
360.392
369.397
379.779
391.562
404.765
419.407
435.503
453.065
472.101
492.618
514.622
538.114
563.096
589.569
336.321
337.531
339.959
343.622
348.544
354.751
362.274
371.142
381.385
393.031
406.101
420.618
436.595
454.047
472.983
493.409
515.33
538.747
563.663
590.076
338.36
339.543
341.92
345.509
350.339
356.44
363.847
372.595
382.718
394.244
407.2
421.608
437.485
454.844
473.695
494.045
515.897
539.253
564.114
590.478
339.852
341.015
343.352
346.885
351.645
357.665
364.985
373.643
383.675
395.113
407.984
422.312
438.116
455.407
474.197
494.491
516.294
539.606
564.428
590.758
340.643
341.795
344.11
347.613
352.334
358.311
365.584
374.193
384.176
395.567
408.393
422.679
438.443
455.699
474.456
494.722
516.498
539.788
564.589
590.901
340.643
341.795
344.11
347.613
352.334
358.311
365.584
374.193
384.176
395.567
408.393
422.679
438.443
455.699
474.456
494.722
516.498
539.788
564.589
590.901
339.852
341.015
343.352
346.885
351.645
357.665
364.985
373.643
383.675
395.113
407.984
422.312
438.116
455.407
474.197
494.491
516.294
539.606
564.428
590.758
338.36
339.543
341.92
345.509
350.339
356.44
363.847
372.595
382.718
394.244
407.2
421.608
437.485
454.844
473.695
494.045
515.897
539.253
564.114
590.478
336.321
337.531
339.959
343.622
348.544
354.751
362.274
371.142
381.385
393.031
406.101
420.618
436.595
454.047
472.983
493.409
515.33
538.747
563.663
590.076
333.918
335.158
337.643
341.389
346.414
352.74
360.392
369.397
379.779
391.562
404.765
419.407
435.503
453.065
472.101
492.618
514.622
538.114
563.096
589.569
331.33
332.599
335.142
338.97
344.099
350.546
358.332
367.477
378.003
389.928
403.271
418.047
434.27
451.949
471.095
491.712
513.807
537.382
562.439
588.978
328.704
330
332.597
336.503
341.73
348.292
356.205
365.485
376.15
388.215
401.695
416.604
432.954
450.753
470.009
490.73
512.919
536.579
561.714
588.325
326.149
327.47
330.116
334.091
339.406
346.071
354.099
363.503
374.296
386.491
400.101
415.136
431.606
449.52
468.885
489.706
511.988
535.735
560.948
587.63
323.738
325.08
327.767
331.802
337.194
343.949
352.078
361.591
372.498
384.81
398.537
413.687
430.268
448.289
467.755
488.672
511.043
534.872
560.161
586.913
321.511
322.87
325.591
329.677
335.133
341.965
350.181
359.788
370.794
383.208
397.037
412.289
428.971
447.088
466.647
487.651
510.105
534.011
559.372
586.191
)
;
    }
    coldSide
    {
        type            mixed;
        refValue        uniform 300;
        refGradient     uniform 0;
        valueFraction   uniform 0.991591;
        source          uniform 0;
        value           nonuniform List<scalar> 
400
(
300.016
300.021
300.031
300.011
300.026
300.035
300.013
300.026
300.02
300.023
299.993
300.026
300.027
300.02
300.03
300.01
300.033
300.023
300.021
300.022
300.006
300.024
300.03
300.031
300.011
300.013
300.013
300.01
300.01
300.014
300.019
300.033
300.028
300.032
300.022
300.033