/*--------------------------------*- C++ -*----------------------------------*\
| =========                 |                                                 |
| \\      /  F ield         | OpenFOAM: The Open Source CFD Toolbox           |
|  \\    /   O peration     | Version:  2212                                  |
|   \\  /    A nd           | Website:  www.openfoam.com                      |
|    \\/     M anipulation  |                                                 |
\*---------------------------------------------------------------------------*/
FoamFile
{
    version     2.0;
    format      ascii;
    arch        "LSB;label=32;scalar=64";
    class       volScalarField;
    location    "0";
    object      T;
}
// * * * * * * * * * * * * * * * * * * * * * * * * * * * * * * * * * * * * * //

dimensions      [0 0 0 1 0 0 0];

internalField   nonuniform List<scalar> 
3200
(
338.365
337.359
336.545
336.232
336.489
336.895
337.352
337.703
338.013
338.075
338.055
337.563
336.859
335.785
334.808
333.627
332.975
332.408
332.862
333.629
333.173
332.371
331.683
331.393
331.649
332.007
332.419
332.73
333.008
333.082
333.087
332.702
332.076
331.145
330.302
329.29
328.719
328.261
328.615
329.279
328.03
327.393
326.849
326.555
326.79
327.125
327.464
327.727
327.981
328.062
328.076
327.784
327.25
326.451
325.733
324.885
324.41
324.055
324.303
324.88
322.908
322.419
321.998
321.716
321.93
322.237
322.494
322.712
322.947
323.019
323.028
322.8
322.389
321.704
321.084
320.433
320.051
319.783
319.945
320.421
317.808
317.448
317.104
316.878
317.075
317.332
317.492
317.695
317.873
317.917
317.948
317.765
317.459
316.919
316.426
315.927
315.646
315.434
315.576
315.935
312.717
312.483
312.211
312.055
312.223
312.412
312.508
312.656
312.798
312.818
312.838
312.698
312.488
312.107
311.762
311.41
311.194
311.026
311.149
311.409
307.625
307.52
307.324
307.244
307.355
307.475
307.524
307.624
307.704
307.722
307.713
307.629
307.502
307.283
307.086
306.858
306.727
306.647
306.698
306.861
302.553
302.52
302.453
302.424
302.463
302.518
302.527
302.553
302.579
302.599
302.582
302.555
302.514
302.437
302.38
302.294
302.26
302.228
302.242
302.301
338.716
337.679
336.9
336.624
336.736
337.233
337.83
338.234
338.518
338.798
338.689
338.156
337.419
336.341
335.232
334.087
333.214
332.713
333.114
333.892
333.513
332.623
331.971
331.736
331.829
332.308
332.79
333.161
333.446
333.69
333.617
333.141
332.516
331.606
330.667
329.697
328.945
328.508
328.864
329.512
328.325
327.579
327.057
326.854
326.932
327.379
327.774
328.075
328.33
328.55
328.501
328.101
327.585
326.838
326.045
325.237
324.596
324.242
324.545
325.063
323.171
322.545
322.16
321.952
322.038
322.416
322.767
322.99
323.202
323.389
323.344
323.031
322.63
322.029
321.382
320.732
320.208
319.928
320.186
320.558
318.016
317.524
317.237
317.049
317.156
317.446
317.765
317.883
318.051
318.202
318.178
317.953
317.663
317.192
316.678
316.194
315.78
315.569
315.772
316.034
312.873
312.521
312.309
312.174
312.266
312.485
312.713
312.781
312.92
312.995
313
312.858
312.665
312.317
311.935
311.624
311.298
311.163
311.324
311.459
307.728
307.522
307.396
307.297
307.362
307.509
307.648
307.671
307.765
307.815
307.816
307.744
307.636
307.409
307.183
306.991
306.784
306.719
306.822
306.881
302.593
302.518
302.478
302.449
302.462
302.525
302.563
302.564
302.608
302.619
302.615
302.605
302.557
302.48
302.408
302.344
302.277
302.252
302.283
302.308
339.075
338.043
337.453
337.191
337.351
338.005
338.551
339.01
339.359
339.676
339.546
339.077
338.199
337.212
336.007
334.768
333.895
333.354
333.645
334.376
333.804
332.929
332.465
332.228
332.386
332.954
333.447
333.846
334.154
334.443
334.334
333.94
333.204
332.343
331.329
330.259
329.536
329.089
329.308
329.925
328.565
327.848
327.497
327.28
327.416
327.89
328.34
328.653
328.947
329.167
329.093
328.768
328.167
327.42
326.605
325.714
325.103
324.739
324.918
325.414
323.347
322.772
322.496
322.341
322.44
322.845
323.228
323.458
323.71
323.871
323.844
323.57
323.102
322.518
321.837
321.116
320.617
320.328
320.476
320.872
318.139
317.706
317.494
317.386
317.444
317.796
318.094
318.239
318.449
318.576
318.567
318.359
318.016
317.59
317.009
316.467
316.093
315.874
315.97
316.283
312.963
312.639
312.513
312.431
312.462
312.722
312.939
313.04
313.195
313.301
313.286
313.136
312.896
312.609
312.171
311.784
311.535
311.386
311.433
311.642
307.795
307.592
307.483
307.464
307.49
307.64
307.767
307.835
307.932
307.992
307.996
307.885
307.761
307.588
307.327
307.097
306.955
306.847
306.874
306.981
302.619
302.551
302.502
302.501
302.52
302.558
302.598
302.625
302.663
302.682
302.681
302.653
302.607
302.549
302.461
302.375
302.346
302.287
302.305
302.34
339.885
338.834
338.195
338.157
338.367
338.962
339.526
340.077
340.505
340.806
340.687
340.204
339.369
338.282
336.974
335.741
334.737
334.319
334.478
335.208
334.506
333.639
333.111
333.084
333.261
333.79
334.282
334.782
335.146
335.463
335.354
334.914
334.226
333.287
332.173
331.135
330.266
329.893
330.031
330.658
329.163
328.46
328.04
328.001
328.129
328.604
329.044
329.461
329.777
330.06
329.993
329.573
329.034
328.239
327.307
326.452
325.74
325.404
325.5
326.026
323.838
323.282
322.973
322.917
323.035
323.412
323.806
324.134
324.424
324.613
324.6
324.249
323.789
323.158
322.403
321.719
321.127
320.86
320.925
321.361
318.529
318.117
317.892
317.826
317.935
318.222
318.529
318.801
319.045
319.176
319.175
318.903
318.539
318.067
317.487
316.949
316.462
316.278
316.304
316.627
313.233
312.935
312.775
312.732
312.814
313.029
313.258
313.452
313.627
313.717
313.713
313.533
313.269
312.941
312.522
312.126
311.796
311.675
311.653
311.893
307.963
307.761
307.67
307.651
307.681
307.823
307.967
308.073
308.198
308.238
308.246
308.148
307.98
307.784
307.536
307.293
307.097
307.036
307.015
307.145
302.674
302.602
302.571
302.56
302.577
302.616
302.678
302.707
302.751
302.758
302.761
302.725
302.691
302.607
302.535
302.443
302.387
302.356
302.354
302.402
340.816
339.914
339.165
339.138
339.39
339.94
340.685
341.337
341.762
342.203
342.028
341.55
340.64
339.463
338.163
336.965
335.988
335.415
335.601
336.081
335.324
334.552
333.943
333.93
334.137
334.657
335.304
335.875
336.222
336.619
336.512
336.101
335.315
334.333
333.209
332.175
331.339
330.847
331.037
331.405
329.882
329.226
328.723
328.718
328.884
329.355
329.9
330.402
330.669
331.001
330.965
330.608
329.929
329.155
328.188
327.329
326.645
326.217
326.385
326.679
324.441
323.903
323.505
323.494
323.613
324.036
324.486
324.897
325.117
325.364
325.411
325.097
324.538
323.904
323.131
322.45
321.873
321.546
321.66
321.917
319.004
318.59
318.28
318.285
318.363
318.706
319.054
319.38
319.57
319.712
319.803
319.547
319.116
318.61
318.031
317.502
317.061
316.824
316.879
317.101
313.595
313.287
313.047
313.084
313.117
313.361
313.622
313.839
313.996
314.076
314.165
313.963
313.686
313.319
312.898
312.529
312.217
312.056
312.069
312.245
308.192
307.983
307.821
307.863
307.882
308.025
308.184
308.309
308.427
308.451
308.504
308.385
308.242
307.989
307.75
307.536
307.338
307.258
307.236
307.369
302.752
302.667
302.605
302.647
302.648
302.682
302.741
302.788
302.819
302.838
302.839
302.814
302.765
302.677
302.606
302.526
302.466
302.424
302.425
302.471
342.122
341.097
340.405
340.361
340.562
341.142
341.906
342.587
343.115
343.378
343.488
342.911
342.003
340.779
339.559
338.254
337.23
336.708
336.796
337.14
336.476
335.606
335.003
334.986
335.17
335.692
336.366
336.969
337.417
337.677
337.781
337.3
336.501
335.459
334.415
333.311
332.436
331.959
332.087
332.338
330.853
330.128
329.604
329.624
329.765
330.217
330.79
331.312
331.694
331.926
332.03
331.649
330.962
330.108
329.22
328.301
327.577
327.142
327.301
327.483
325.218
324.62
324.221
324.252
324.367
324.739
325.175
325.636
325.945
326.157
326.249
325.98
325.37
324.695
323.948
323.241
322.643
322.285
322.443
322.559
319.623
319.143
318.845
318.889
318.958
319.267
319.588
319.972
320.179
320.354
320.457
320.269
319.771
319.255
318.66
318.125
317.643
317.397
317.524
317.582
314.02
313.686
313.463
313.516
313.54
313.775
313.997
314.291
314.408
314.545
314.647
314.506
314.128
313.785
313.365
312.983
312.628
312.469
312.549
312.565
308.41
308.226
308.089
308.14
308.146
308.289
308.426
308.6
308.648
308.742
308.799
308.722
308.482
308.299
308.046
307.811
307.592
307.508
307.557
307.563
302.814
302.764
302.71
302.726
302.728
302.777
302.825
302.89
302.899
302.931
302.959
302.923
302.859
302.772
302.706
302.613
302.553
302.515
302.549
302.539
343.382
342.422
341.805
341.633
341.844
342.521
343.328
343.953
344.542
344.851
344.878
344.403
343.478
342.198
340.871
339.681
338.647
338.114
338.092
338.433
337.579
336.766
336.256
336.108
336.281
336.891
337.627
338.15
338.69
338.972
338.987
338.63
337.783
336.679
335.564
334.523
333.661
333.198
333.2
333.49
331.76
331.122
330.677
330.579
330.702
331.253
331.883
332.333
332.783
333.053
333.041
332.794
332.051
331.132
330.202
329.294
328.617
328.22
328.244
328.459
325.967
325.466
325.09
325.046
325.122
325.591
326.123
326.513
326.851
327.101
327.09
326.904
326.285
325.527
324.783
324.016
323.515
323.183
323.225
323.385
320.198
319.799
319.511
319.497
319.541
319.909
320.354
320.68
320.918
321.105
321.138
320.979
320.478
319.894
319.324
318.744
318.347
318.085
318.117
318.26
314.433
314.146
313.964
313.937
313.969
314.202
314.566
314.806
314.956
315.086
315.141
315.036
314.656
314.25
313.822
313.428
313.127
312.948
312.965
313.069
308.665
308.495
308.392
308.361
308.394
308.522
308.756
308.901
308.993
309.06
309.115
309.041
308.817
308.559
308.297
308.072
307.902
307.792
307.784
307.85
302.898
302.844
302.816
302.791
302.814
302.853
302.932
302.989
303.003
303.042
303.06
303.033
302.964
302.871
302.781
302.713
302.644
302.618
302.618
302.632
344.701
343.839
343.16
343.065
343.277
343.897
344.657
345.327
345.931
346.344
346.431
346.089
345.055
343.826
342.328
341.134
340.114
339.554
339.538
339.878
338.731
338.034
337.436
337.356
337.553
338.122
338.76
339.369
339.9
340.247
340.351
340.053
339.18
338.125
336.826
335.797
334.938
334.45
334.451
334.7
332.77
332.168
331.704
331.637
331.818
332.311
332.835
333.388
333.819
334.126
334.219
333.949
333.243
332.363
331.265
330.377
329.675
329.28
329.278
329.474
326.81
326.31
325.966
325.893
326.074
326.461
326.87
327.378
327.707
327.978
328.029
327.812
327.258
326.535
325.655
324.917
324.352
324.044
324.018
324.203
320.861
320.459
320.222
320.133
320.309
320.588
320.913
321.336
321.586
321.804
321.821
321.641
321.25
320.687
320.002
319.427
318.989
318.77
318.723
318.887
314.913
314.629
314.471
314.382
314.531
314.708
314.94
315.252
315.448
315.623
315.607
315.469
315.212
314.811
314.295
313.899
313.597
313.451
313.394
313.541
308.95
308.786
308.692
308.641
308.73
308.838
308.946
309.163
309.29
309.406
309.376
309.292
309.147
308.906
308.589
308.348
308.193
308.087
308.055
308.148
302.993
302.952
302.922
302.9
302.915
302.966
302.998
303.074
303.112
303.155
303.139
303.119
303.068
302.984
302.886
302.8
302.751
302.708
302.707
302.733
346.143
345.395
344.752
344.645
344.782
345.343
346.093
346.713
347.36
347.77
347.801
347.447
346.594
345.235
343.861
342.593
341.684
341.108
341.174
341.429
339.988
339.368
338.828
338.75
338.848
339.329
340.034
340.548
341.136
341.484
341.533
341.214
340.543
339.367
338.174
337.076
336.303
335.806
335.868
336.09
333.842
333.331
332.9
332.828
332.905
333.304
333.925
334.377
334.876
335.186
335.209
334.944
334.408
333.433
332.427
331.469
330.859
330.456
330.466
330.656
327.706
327.285
326.949
326.886
326.95
327.253
327.828
328.184
328.604
328.82
328.852
328.642
328.229
327.424
326.612
325.827
325.314
325.019
325.018
325.163
321.569
321.235
320.988
320.937
320.986
321.213
321.66
321.967
322.291
322.432
322.485
322.306
322.03
321.362
320.753
320.14
319.723
319.52
319.521
319.621
315.447
315.185
315.017
314.966
315.032
315.178
315.483
315.719
315.95
316.049
316.083
315.944
315.769
315.274
314.846
314.417
314.093
313.981
313.957
314.048
309.285
309.129
309.035
308.981
309.038
309.117
309.307
309.448
309.595
309.652
309.67
309.571
309.476
309.179
308.911
308.646
308.473
308.4
308.385
308.466
303.121
303.063
303.028
303
303.019
303.055
303.115
303.17
303.221
303.238
303.236
303.215
303.193
303.081
302.983
302.903
302.832
302.812
302.808
302.837
347.631
346.856
346.336
346.19
346.38
346.82
347.474
348.107
348.624
349.054
349.167
348.847
347.813
346.719
345.255
344.051
343.32
342.72
342.73
342.967
341.27
340.624
340.192
340.099
340.246
340.647
341.243
341.8
342.245
342.625
342.715
342.487
341.582
340.643
339.378
338.356
337.747
337.212
337.235
337.441
334.922
334.409
334.036
333.974
334.091
334.441
334.964
335.485
335.827
336.158
336.247
336.057
335.308
334.469
333.439
332.577
332.103
331.623
331.664
331.817
328.587
328.176
327.903
327.841
327.921
328.207
328.668
329.073
329.376
329.65
329.717
329.575
328.958
328.274
327.441
326.762
326.368
325.994
326.008
326.14
322.252
321.923
321.731
321.681
321.741
321.959
322.337
322.654
322.883
323.094
323.152
323.047
322.587
322.027
321.406
320.888
320.564
320.31
320.306
320.401
315.916
315.692
315.533
315.5
315.558
315.699
315.991
316.206
316.36
316.535
316.566
316.497
316.184
315.746
315.336
314.959
314.719
314.564
314.546
314.603
309.576
309.447
309.338
309.307
309.331
309.432
309.598
309.736
309.828
309.935
309.973
309.916
309.738
309.461
309.214
308.999
308.848
308.776
308.751
308.788
303.214
303.165
303.122
303.108
303.12
303.151
303.217
303.268
303.301
303.337
303.345
303.322
303.271
303.172
303.088
303.01
302.974
302.958
302.923
302.952
349.145
348.533
348.036
347.823
347.9
348.276
348.775
349.437
350.033
350.376
350.501
350.079
349.173
348.022
346.719
345.637
344.907
344.287
344.263
344.516
342.608
342.116
341.705
341.498
341.568
341.88
342.353
342.915
343.482
343.776
343.902
343.546
342.764
341.761
340.664
339.748
339.103
338.573
338.56
338.777
336.078
335.698
335.366
335.151
335.219
335.485
335.908
336.354
336.894
337.148
337.243
336.963
336.287
335.44
334.524
333.769
333.241
332.774
332.789
332.963
329.529
329.255
328.983
328.793
328.843
329.051
329.442
329.765
330.26
330.471
330.525
330.313
329.77
329.059
328.32
327.706
327.311
326.903
326.952
327.09
322.979
322.792
322.586
322.43
322.472
322.608
322.937
323.16
323.611
323.744
323.788
323.638
323.196
322.64
322.08
321.602
321.298
320.999
321.029
321.145
316.431
316.309
316.162
316.04
316.076
316.161
316.401
316.559
316.895
317.001
317.019
316.926
316.592
316.193
315.809
315.459
315.251
315.057
315.05
315.141
309.871
309.807
309.741
309.64
309.666
309.706
309.855
309.954
310.167
310.222
310.237
310.16
309.976
309.729
309.502
309.293
309.173
309.058
309.06
309.118
303.303
303.292
303.266
303.223
303.238
303.249
303.308
303.336
303.408
303.424
303.43
303.41
303.343
303.262
303.185
303.112
303.079
303.045
303.041
303.059
350.827
350.16
349.731
349.43
349.4
349.727
350.18
350.73
351.218
351.554
351.626
351.237
350.421
349.316
348.119
347.098
346.436
345.969
345.827
346.056
344.074
343.526
343.172
342.934
342.886
343.168
343.569
344.066
344.499
344.814
344.873
344.562
343.847
342.89
341.864
341.003
340.445
340.065
339.94
340.121
337.306
336.872
336.584
336.399
336.355
336.58
336.922
337.357
337.748
337.994
338.069
337.812
337.23
336.397
335.544
334.838
334.358
334.044
333.945
334.109
330.532
330.216
330.002
329.815
329.771
329.975
330.277
330.605
330.953
331.122
331.218
331.024
330.55
329.838
329.159
328.606
328.205
327.974
327.888
327.973
323.776
323.548
323.379
323.195
323.21
323.335
323.603
323.822
324.125
324.235
324.317
324.196
323.812
323.247
322.735
322.297
322.008
321.816
321.733
321.809
317.024
316.84
316.713
316.574
316.603
316.688
316.888
317.026
317.274
317.323
317.387
317.342
317.047
316.63
316.252
315.944
315.779
315.625
315.552
315.619
310.232
310.124
310.037
309.948
309.973
310.02
310.162
310.223
310.39
310.406
310.454
310.422
310.26
309.983
309.774
309.58
309.515
309.408
309.338
309.401
303.435
303.389
303.365
303.338
303.343
303.359
303.411
303.43
303.488
303.494
303.508
303.493
303.436
303.347
303.276
303.211
303.201
303.16
303.135
303.158
352.49
351.789
351.216
350.972
351.049
351.204
351.615
352.108
352.401
352.707
352.782
352.457
351.666
350.663
349.477
348.628
347.876
347.547
347.435
347.652
345.53
344.961
344.474
344.274
344.328
344.466
344.838
345.278
345.531
345.828
345.896
345.62
344.96
344.077
343.088
342.339
341.702
341.452
341.327
341.497
338.573
338.091
337.712
337.535
337.584
337.684
338.007
338.365
338.622
338.89
338.934
338.717
338.158
337.437
336.598
335.971
335.434
335.237
335.137
335.252
331.582
331.182
330.911
330.749
330.799
330.885
331.147
331.445
331.68
331.894
331.936
331.759
331.289
330.71
330.033
329.53
329.085
328.939
328.872
328.959
324.598
324.281
324.082
323.959
323.998
324.057
324.272
324.499
324.683
324.844
324.881
324.756
324.365
323.921
323.383
323.03
322.708
322.567
322.521
322.567
317.581
317.364
317.223
317.165
317.163
317.211
317.374
317.514
317.658
317.771
317.812
317.699
317.444
317.101
316.715
316.484
316.274
316.16
316.136
316.129
310.562
310.44
310.353
310.319
310.323
310.34
310.451
310.514
310.615
310.665
310.726
310.648
310.482
310.268
310.041
309.911
309.798
309.711
309.71
309.679
303.542
303.511
303.476
303.459
303.457
303.464
303.505
303.524
303.565
303.574
303.604
303.564
303.518
303.433
303.369
303.321
303.291
303.253
303.258
303.254
354.076
353.338
352.863
352.447
352.482
352.697
353.002
353.372
353.681
353.841
353.955
353.385
352.718
351.807
350.855
350.076
349.305
349.134
348.973
349.275
346.902
346.304
345.892
345.539
345.573
345.78
346.047
346.383
346.651
346.819
346.92
346.41
345.851
345.077
344.253
343.608
342.947
342.812
342.673
342.919
339.722
339.215
338.878
338.612
338.641
338.805
339.039
339.333
339.573
339.732
339.801
339.375
338.9
338.279
337.567
337.044
336.488
336.392
336.248
336.464
332.528
332.102
331.849
331.616
331.666
331.805
332.004
332.233
332.457
332.575
332.648
332.286
331.902
331.419
330.814
330.406
329.964
329.878
329.757
329.949
325.332
324.991
324.79
324.612
324.637
324.766
324.943
325.11
325.308
325.378
325.452
325.155
324.859
324.502
324.031
323.712
323.363
323.305
323.217
323.362
318.086
317.871
317.729
317.591
317.619
317.696
317.844
317.952
318.122
318.156
318.215
318.007
317.788
317.539
317.195
316.977
316.729
316.683
316.617
316.719
310.85
310.739
310.665
310.574
310.591
310.626
310.708
310.767
310.901
310.917
310.963
310.821
310.689
310.551
310.337
310.191
310.057
310.023
310.002
310.03
303.643
303.599
303.57
303.545
303.551
303.559
303.598
303.616
303.642
303.654
303.681
303.631
303.59
303.535
303.466
303.419
303.371
303.366
303.354
303.364
355.691
354.945
354.451
353.971
353.97
354.196
354.411
354.569
354.732
354.991
354.935
354.479
353.902
353.16
352.182
351.498
350.8
350.649
350.58
350.829
348.334
347.7
347.288
346.886
346.884
347.095
347.287
347.406
347.592
347.814
347.796
347.382
346.888
346.255
345.44
344.866
344.251
344.15
344.069
344.274
340.947
340.433
340.046
339.733
339.732
339.945
340.099
340.186
340.392
340.573
340.584
340.216
339.793
339.25
338.611
338.142
337.628
337.531
337.459
337.627
333.545
333.111
332.79
332.555
332.57
332.733
332.86
332.931
333.13
333.25
333.326
332.988
332.645
332.184
331.723
331.329
330.891
330.811
330.765
330.889
326.11
325.775
325.532
325.342
325.378
325.482
325.596
325.644
325.816
325.88
325.989
325.72
325.439
325.101
324.761
324.445
324.091
324.043
324.012
324.087
318.658
318.427
318.263
318.132
318.154
318.223
318.306
318.337
318.469
318.514
318.602
318.415
318.179
317.945
317.741
317.501
317.254
317.221
317.192
317.239
311.205
311.062
310.971
310.882
310.906
310.941
310.993
311.003
311.094
311.138
311.191
311.077
310.912
310.79
310.666
310.524
310.372
310.356
310.352
310.368
303.767
303.704
303.678
303.657
303.655
303.667
303.674
303.694
303.72
303.738
303.75
303.716
303.665
303.624
303.568
303.533
303.486
303.471
303.473
303.477
357.254
356.535
355.972
355.498
355.391
355.409
355.662
355.836
355.96
356.174
356.072
355.581
354.911
354.243
353.494
352.889
352.294
352.081
352.087
352.385
349.691
349.068
348.609
348.188
348.126
348.164
348.37
348.515
348.662
348.856
348.78
348.353
347.799
347.191
346.576
346.075
345.545
345.363
345.372
345.656
342.117
341.561
341.187
340.847
340.815
340.855
341.015
341.129
341.28
341.467
341.416
341.057
340.593
340.068
339.575
339.175
338.694
338.535
338.563
338.832
334.499
334.034
333.737
333.466
333.465
333.499
333.617
333.718
333.836
334.011
333.984
333.687
333.303
332.874
332.494
332.197
331.767
331.64
331.644
331.921
326.858
326.483
326.254
326.073
326.079
326.097
326.185
326.265
326.377
326.502
326.51
326.273
325.954
325.645
325.33
325.139
324.781
324.704
324.676
324.904
319.206
318.925
318.749
318.634
318.647
318.675
318.743
318.794
318.875
318.963
318.985
318.807
318.556
318.351
318.132
318.018
317.743
317.679
317.648
317.848
311.542
311.375
311.249
311.203
311.217
311.222
311.254
311.301
311.339
311.41
311.411
311.325
311.164
311.035
310.905
310.85
310.681
310.636
310.622
310.711
303.862
303.822
303.762
303.758
303.767
303.758
303.778
303.8
303.802
303.821
303.819
303.802
303.75
303.691
303.655
303.643
303.572
303.565
303.566
303.591
358.818
358.07
357.565
356.974
356.926
356.819
356.825
357.099
357.188
357.228
357.053
356.676
356.133
355.443
354.796
354.274
353.689
353.552
353.546
354.019
351.071
350.422
350.005
349.49
349.446
349.347
349.393
349.644
349.738
349.772
349.622
349.311
348.876
348.266
347.718
347.271
346.771
346.648
346.654
347.067
343.291
342.731
342.4
341.947
341.922
341.856
341.905
342.126
342.203
342.214
342.12
341.878
341.52
341.002
340.545
340.172
339.774
339.64
339.666
340.003
335.458
335.013
334.749
334.39
334.346
334.314
334.36
334.542
334.605
334.621
334.567
334.349
334.07
333.65
333.273
332.997
332.668
332.544
332.581
332.83
327.602
327.287
327.072
326.782
326.745
326.747
326.768
326.909
326.967
326.981
326.983
326.794
326.564
326.258
325.948
325.737
325.484
325.398
325.42
325.59
319.716
319.521
319.39
319.155
319.122
319.145
319.153
319.252
319.303
319.309
319.333
319.175
319.028
318.814
318.579
318.431
318.248
318.2
318.199
318.324
311.843
311.739
311.667
311.503
311.486
311.481
311.54
311.564
311.612
311.619
311.63
311.531
311.445
311.329
311.192
311.092
310.979
310.941
310.936
311.016
303.975
303.935
303.912
303.848
303.855
303.854
303.88
303.878
303.9
303.894
303.906
303.868
303.842
303.798
303.76
303.718
303.681
303.676
303.665
303.689
360.203
359.571
359.135
358.544
358.346
358.226
358.158
358.217
358.293
358.21
358.11
357.776
357.181
356.544
356.064
355.526
355.052
354.908
355.156
355.336
352.248
351.723
351.389
350.837
350.677
350.575
350.522
350.599
350.682
350.633
350.57
350.274
349.756
349.204
348.809
348.357
347.954
347.825
348.044
348.195
344.263
343.82
343.585
343.099
342.982
342.864
342.837
342.924
343.005
342.974
342.951
342.689
342.244
341.789
341.465
341.09
340.766
340.653
340.815
340.946
336.267
335.896
335.714
335.321
335.228
335.128
335.103
335.172
335.271
335.233
335.265
335.034
334.677
334.307
334.027
333.742
333.479
333.4
333.523
333.613
328.24
327.968
327.811
327.512
327.455
327.359
327.332
327.403
327.477
327.456
327.507
327.303
327.036
326.762
326.519
326.322
326.106
326.067
326.163
326.218
320.191
320.006
319.883
319.676
319.661
319.567
319.541
319.611
319.66
319.648
319.705
319.516
319.334
319.161
318.975
318.848
318.689
318.663
318.722
318.777
312.13
312.03
311.957
311.822
311.836
311.768
311.743
311.81
311.817
311.804
311.859
311.733
311.606
311.532
311.413
311.314
311.237
311.224
311.282
311.303
304.057
304.026
304.017
303.964
303.974
303.937
303.94
303.964
303.966
303.952
303.976
303.933
303.896
303.859
303.829
303.796
303.776
303.771
303.792
303.798
361.541
360.977
360.421
359.871
359.509
359.386
359.275
359.313
359.343
359.216
358.979
358.687
358.157
357.732
357.251
356.821
356.404
356.286
356.543
356.773
353.37
352.921
352.477
352.005
351.698
351.6
351.507
351.558
351.588
351.477
351.285
351.05
350.598
350.219
349.846
349.451
349.126
349.016
349.24
349.416
345.21
344.815
344.472
344.068
343.831
343.728
343.669
343.737
343.762
343.658
343.515
343.327
342.955
342.646
342.324
341.982
341.738
341.651
341.821
341.941
337.027
336.713
336.425
336.121
335.948
335.832
335.783
335.87
335.867
335.794
335.697
335.54
335.247
334.991
334.731
334.447
334.286
334.218
334.325
334.391
328.839
328.594
328.368
328.141
328.031
327.91
327.861
327.949
327.937
327.892
327.833
327.691
327.487
327.262
327.081
326.864
326.748
326.699
326.775
326.8
320.639
320.458
320.273
320.125
320.067
319.945
319.92
319.992
319.95
319.957
319.931
319.81
319.671
319.512
319.388
319.248
319.145
319.108
319.167
319.175
312.408
312.29
312.176
312.088
312.058
311.983
311.974
312.038
311.985
312.013
311.986
311.915
311.819
311.72
311.662
311.569
311.517
311.49
311.534
311.535
304.167
304.129
304.075
304.059
304.049
304.026
304.008
304.035
304.013
304.031
304.015
303.991
303.958
303.932
303.916
303.877
303.869
303.857
303.864
303.881
362.665
361.964
361.352
360.844
360.36
360.237
360.176
360.171
360.019
359.887
359.686
359.472
358.952
358.513
358.057
357.764
357.476
357.201
357.6
357.747
354.332
353.742
353.214
352.808
352.393
352.314
352.263
352.267
352.118
352.027
351.855
351.73
351.263
350.888
350.501
350.245
350.011
349.774
350.108
350.216
346.003
345.521
345.042
344.74
344.403
344.349
344.302
344.305
344.162
344.103
343.97
343.914
343.502
343.182
342.88
342.643
342.452
342.255
342.528
342.616
337.658
337.256
336.875
336.657
336.396
336.337
336.297
336.288
336.181
336.146
336.046
336.013
335.686
335.404
335.154
334.979
334.848
334.639
334.887
334.937
329.309
328.996
328.697
328.541
328.35
328.294
328.275
328.239
328.172
328.155
328.075
328.063
327.796
327.589
327.364
327.246
327.183
327.011
327.178
327.218
320.958
320.725
320.513
320.394
320.29
320.251
320.226
320.176
320.141
320.122
320.095
320.07
319.885
319.755
319.577
319.481
319.465
319.346
319.442
319.44
312.597
312.456
312.318
312.26
312.186
312.168
312.16
312.122
312.107
312.073
312.107
312.063
311.954
311.882
311.772
311.71
311.71
311.64
311.693
311.67
304.221
304.174
304.136
304.113
304.092
304.079
304.082
304.067
304.051
304.042
304.058
304.041
304.008
303.987
303.951
303.926
303.928
303.909
303.925
303.911
)
;

boundaryField
{
    hotSide
    {
        type            fixedGradient;
        gradient        nonuniform List<scalar> 
400
(
418.479
420.799
425.598
432.807
442.174
453.338
465.913
479.548
493.948
508.882
524.175
539.699
555.362
571.101
586.877
602.667
618.464
634.266
650.081
665.915
401.533
404.122
409.365
417.177
427.252
439.164
452.471
466.781
481.781
497.227
512.945
528.806
544.726
560.65
576.547
592.405
608.227
624.023
639.807
655.595
391.144
394.238
399.954
408.196
418.66
430.92
444.533
459.104
474.313
489.914
505.727
521.625
537.527
553.382
569.167
584.879
600.529
616.135
631.72
647.308
386.867
390.684
396.915
405.457
416.047
428.314
441.862
456.323
471.386
486.806
502.401
518.043
533.651
549.18
564.615
579.96
595.235
610.466
625.684
640.918
386.989
391.658
398.472
407.322
417.983
430.15
443.481
457.648
472.359
487.378
502.523
517.673
532.751
547.724
562.586
577.355
592.063
606.744
621.438
636.179
389.563
395.135
402.617
411.886
422.739
434.905
448.083
461.971
476.297
490.831
505.404
519.904
534.275
548.501
562.602
576.616
590.589
604.573
618.615
632.756
392.975
399.457
407.684
417.517
428.75
441.122
454.338
468.099
482.132
496.211
510.179
523.946
537.488
550.829
564.025
577.146
590.265
603.449
616.757
630.233
395.977
403.33
412.342
422.858
434.656
447.459
460.948
474.796
488.702
502.426
515.818
528.823
541.47
553.843
566.051
578.209
590.421
602.773
615.33
628.143
397.569
405.685
415.444
426.681
439.156
452.56
466.53
480.677
494.641
508.143
521.035
533.308
545.065
556.472
567.708
578.937
590.294
601.879
613.764
625.994
396.95
405.616
415.963
427.82
440.934
454.965
469.498
484.07
498.235
511.657
524.181
535.852
546.862
557.464
567.908
578.401
589.099
600.111
611.508
623.331
393.551
402.444
413.078
425.281
438.791
453.252
468.208
483.141
497.538
511.011
523.395
534.774
545.403
555.596
565.645
575.784
586.179
596.941
608.141
619.814
387.144
395.868
406.393
418.546
432.06
446.57
461.613
476.663
491.203
504.84
517.403
528.967
539.78
550.149
560.366
570.663
581.211
592.124
603.475
615.303
377.934
386.1
396.134
407.86
421.009
435.218
450.041
464.99
479.599
493.512
506.555
518.752
530.278
541.374
552.285
563.225
574.358
585.802
597.637
609.911
366.593
373.891
383.162
394.235
406.838
420.614
435.139
449.97
464.698
479.005
492.712
505.785
518.309
530.441
542.363
554.252
566.257
578.498
591.062
604.004
354.231
360.465
368.851
379.225
391.311
404.741
419.097
433.954
448.934
463.737
478.173
492.162
505.724
518.944
531.948
544.874
557.854
571.004
584.414
598.145
342.407
347.492
354.988
364.744
376.461
389.733
404.112
419.161
434.501
449.835
464.965
479.782
494.264
508.452
522.43
536.31
550.209
564.239
578.491
593.028
333.186
337.139
343.809
353.057
364.538
377.78
392.278
407.565
423.249
439.034
454.716
470.176
485.368
500.308
515.057
529.706
544.366
559.147
574.143
589.414
329.057
332.019
337.947
346.708
357.914
371.032
385.511
400.858
416.679
432.681
448.661
464.498
480.134
495.57
510.848
526.048
541.272
556.628
572.208
588.069
332.224
334.471
339.727
347.871
358.523
371.152
385.211
400.22
415.796
431.653
447.592
463.489
479.278
494.944
510.515
526.054
541.647
557.392
573.369
589.627
343.359
345.198
349.842
357.196
366.944
378.64
391.81
406.022
420.925
436.246
451.791
467.428
483.082
498.724
514.363
530.039
545.815
561.763
577.943
594.389
)
;
    }
    coldSide
    {
        type            mixed;
        refValue        uniform 300;
        refGradient     uniform 0;
        valueFraction   uniform 0.991591;
        source          uniform 0;
        value           nonuniform List<scalar> 
400
(
300.021
300.022
300.022
300.022
300.023
300.024
300.024
300.025
300.026
300.027
300.028
300.029
300.03
300.031
300.032
300.032
300.033
300.034
300.035
300.035
300.021
300.021
300.021
300.022
300.022
300.023
300.024
300.025
300.026
300.027
300.028
300.029
300.03
300.03
300.031