/*--------------------------------*- C++ -*----------------------------------*\
| =========                 |                                                 |
| \\      /  F ield         | OpenFOAM: The Open Source CFD Toolbox           |
|  \\    /   O peration     | Version:  2212                                  |
|   \\  /    A nd           | Website:  www.openfoam.com                      |
|    \\/     M anipulation  |                                                 |
\*---------------------------------------------------------------------------*/
FoamFile
{
    version     2.0;
    format      ascii;
    arch        "LSB;label=32;scalar=64";
    class       volScalarField;
    location    "0";
    object      stateMean;
}
// * * * * * * * * * * * * * * * * * * * * * * * * * * * * * * * * * * * * * //

dimensions      [0 0 0 1 0 0 0];

internalField   nonuniform List<scalar> 
3200
(
322.379
322.698
323.012
323.397
323.574
323.76
323.963
324.033
324.047
324.082
324.032
323.884
323.705
323.535
323.271
322.958
322.64
322.159
321.769
321.411
319.723
319.981
320.208
320.56
320.773
320.942
321.064
321.152
321.216
321.161
321.106
321.044
320.89
320.698
320.471
320.298
319.894
319.517
319.182
318.889
316.885
317.14
317.435
317.563
317.834
317.909
318.075
318.177
318.152
318.144
318.163
318.052
317.838
317.79
317.621
317.375
316.964
316.8
316.457
316.173
313.982
314.117
314.41
314.565
314.738
314.872
314.958
314.924
315.027
315.002
314.962
314.934
314.793
314.655
314.522
314.337
314.153
313.881
313.56
313.413
311.013
311.016
311.356
311.426
311.54
311.656
311.696
311.769
311.72
311.793
311.788
311.743
311.625
311.554
311.414
311.279
311.066
310.844
310.698
310.531
307.877
307.96
308.182
308.219
308.308
308.345
308.437
308.502
308.434
308.468
308.404
308.493
308.422
308.252
308.268
308.092
307.946
307.777
307.624
307.492
304.812
304.753
304.892
304.957
304.979
305.074
305.072
305.104
305.128
305.096
305.142
305.048
305.006
304.968
305.009
304.823
304.886
304.696
304.655
304.52
301.594
301.582
301.551
301.654
301.739
301.714
301.67
301.735
301.67
301.734
301.719
301.724
301.774
301.722
301.629
301.645
301.619
301.574
301.605
301.506
323.113
323.477
323.833
324.148
324.348
324.595
324.77
324.849
324.921
324.928
324.922
324.726
324.642
324.447
324.175
323.828
323.466
323.026
322.619
322.252
320.332
320.605
320.955
321.217
321.446
321.616
321.846
321.825
321.969
321.88
321.831
321.796
321.653
321.41
321.208
320.898
320.648
320.279
319.918
319.558
317.366
317.656
317.911
318.132
318.368
318.457
318.615
318.772
318.735
318.751
318.699
318.581
318.509
318.385
318.092
317.953
317.539
317.276
317.009
316.768
314.315
314.585
314.837
315.018
315.203
315.332
315.434
315.461
315.447
315.441
315.519
315.434
315.253
315.156
314.953
314.785
314.634
314.238
314.102
313.793
311.279
311.393
311.59
311.77
311.905
311.976
312.087
312.09
312.117
312.177
312.151
312.073
311.989
311.896
311.794
311.585
311.338
311.268
310.963
310.861
308.102
308.218
308.303
308.443
308.548
308.605
308.657
308.633
308.714
308.679
308.688
308.643
308.585
308.486
308.449
308.356
308.184
307.963
307.888
307.776
304.868
304.913
305.052
305.095
305.203
305.24
305.274
305.321
305.288
305.316
305.206
305.222
305.295
305.105
305.045
305.057
304.934
304.835
304.786
304.725
301.617
301.658
301.706
301.708
301.687
301.777
301.826
301.709
301.72
301.743
301.797
301.734
301.716
301.752
301.678
301.777
301.639
301.638
301.605
301.645
324.09
324.484
324.858
325.179
325.586
325.75
325.868
326.114
326.161
326.148
326.038
325.976
325.803
325.49
325.3
324.925
324.633
324.099
323.736
323.385
321.206
321.497
321.82
322.155
322.477
322.553
322.838
322.839
322.903
322.902
322.816
322.817
322.65
322.425
322.217
321.914
321.584
321.233
320.806
320.485
318.148
318.386
318.715
318.937
319.137
319.349
319.427
319.589
319.634
319.616
319.589
319.489
319.328
319.154
318.954
318.714
318.39
318.16
317.771
317.587
314.956
315.191
315.437
315.594
315.78
315.981
316.085
316.17
316.214
316.231
316.074
316.073
315.876
315.82
315.658
315.406
315.236
314.946
314.684
314.441
311.669
311.854
312.055
312.179
312.365
312.439
312.663
312.608
312.67
312.643
312.649
312.597
312.582
312.393
312.206
312.07
311.916
311.639
311.488
311.272
308.416
308.51
308.655
308.786
308.835
308.971
309.022
309.104
309.123
309.11
309.044
309.01
308.955
308.896
308.843
308.702
308.555
308.395
308.231
308.139
305.089
305.242
305.211
305.329
305.246
305.473
305.467
305.442
305.545
305.511
305.447
305.4
305.363
305.422
305.35
305.274
305.242
305.122
304.969
304.864
301.75
301.778
301.71
301.8
301.756
301.762
301.871
301.866
301.813
301.808
301.857
301.756
301.785
301.804
301.773
301.765
301.752
301.708
301.681
301.592
325.207
325.605
326.044
326.444
326.683
326.943
327.18
327.318
327.365
327.359
327.313
327.223
327.025
326.859
326.515
326.242
325.809
325.396
324.896
324.55
322.104
322.474
322.828
323.187
323.461
323.687
323.801
324.022
324.102
324.037
323.987
323.857
323.782
323.532
323.28
323.011
322.688
322.26
321.805
321.482
318.927
319.2
319.5
319.794
320.057
320.248
320.408
320.453
320.458
320.501
320.495
320.429
320.345
320.219
319.885
319.64
319.333
319.038
318.68
318.421
315.58
315.83
316.035
316.323
316.549
316.708
316.83
316.904
316.976
317.01
317.013
316.917
316.757
316.58
316.389
316.223
315.969
315.7
315.438
315.202
312.201
312.403
312.564
312.828
312.942
313.115
313.152
313.15
313.265
313.252
313.235
313.162
313.077
312.959
312.845
312.648
312.553
312.306
311.962
311.834
308.814
308.885
309.014
309.126
309.208
309.393
309.444
309.48
309.554
309.51
309.562
309.423
309.397
309.323
309.21
309.166
309.017
308.847
308.662
308.534
305.248
305.347
305.519
305.48
305.625
305.654
305.736
305.768
305.758
305.771
305.708
305.682
305.744
305.583
305.564
305.538
305.384
305.317
305.251
305.131
301.72
301.786
301.809
301.763
301.89
301.888
301.907
301.882
301.931
301.826
301.975
301.925
301.909
301.879
301.867
301.813
301.806
301.811
301.715
301.745
326.412
326.702
327.179
327.647
328.021
328.209
328.426
328.638
328.774
328.703
328.69
328.552
328.402
328.092
327.865
327.565
327.192
326.661
326.107
325.717
323.061
323.501
323.862
324.241
324.559
324.753
324.994
325.14
325.203
325.207
325.183
325.051
324.913
324.713
324.47
324.114
323.824
323.34
322.9
322.567
319.737
320.109
320.401
320.726
320.953
321.209
321.393
321.478
321.574
321.571
321.459
321.396
321.278
321.061
320.806
320.637
320.349
319.983
319.591
319.301
316.26
316.597
316.798
317.023
317.318
317.456
317.715
317.688
317.724
317.789
317.694
317.696
317.608
317.387
317.15
316.947
316.694
316.494
316.086
315.902
312.675
312.965
313.187
313.357
313.56
313.639
313.749
313.834
313.886
313.919
313.868
313.82
313.728
313.55
313.481
313.367
313.07
312.897
312.664
312.468
309.121
309.293
309.47
309.526
309.784
309.831
309.891
309.953
309.999
309.975
309.98
309.912
309.86
309.756
309.634
309.532
309.397
309.273
309.107
308.916
305.543
305.585
305.719
305.719
305.825
305.863
305.951
305.996
306.1
305.981
305.979
306.015
305.881
305.871
305.825
305.731
305.662
305.578
305.468
305.421
301.813
301.889
301.932
301.892
301.901
301.991
301.958
302.007
301.999
301.997
302.015
302.047
301.978
301.978
301.992
301.917
301.867
301.899
301.808
301.73
327.448
327.94
328.389
328.851
329.169
329.5
329.755
329.944
330.026
330.033
330.007
329.923
329.733
329.509
329.23
328.835
328.312
327.931
327.381
326.878
324.085
324.573
324.916
325.306
325.584
325.872
326.145
326.244
326.343
326.299
326.393
326.215
326.125
325.842
325.53
325.293
324.897
324.491
324.023
323.635
320.549
320.963
321.257
321.686
321.814
322.17
322.33
322.465
322.505
322.448
322.558
322.394
322.231
322.166
321.917
321.556
321.227
320.902
320.538
320.24
317.005
317.288
317.559
317.809
318.036
318.242
318.306
318.432
318.501
318.566
318.581
318.551
318.339
318.227
318.031
317.792
317.54
317.266
316.878
316.629
313.304
313.532
313.757
313.985
314.052
314.334
314.437
314.458
314.53
314.546
314.522
314.421
314.399
314.255
314.081
313.949
313.69
313.504
313.241
313.004
309.555
309.586
309.827
309.961
310.12
310.22
310.342
310.332
310.454
310.463
310.382
310.408
310.309
310.258
310.138
309.995
309.843
309.65
309.439
309.329
305.768
305.822
305.944
306.055
306.11
306.16
306.18
306.282
306.302
306.249
306.281
306.259
306.228
306.191
306.106
306.009
305.926
305.818
305.767
305.593
301.867
301.977
302.036
302.047
302.031
302.09
302.068
302.138
302.117
302.105
302.065
302.132
302.11
302.016
302.008
302.043
301.941
301.881
301.935
301.865
328.637
329.116
329.642
330.067
330.515
330.797
331.048
331.28
331.365
331.394
331.37
331.241
331.088
330.811
330.559
330.145
329.691
329.195
328.68
328.159
325.094
325.47
325.926
326.389
326.705
327.004
327.18
327.356
327.458
327.538
327.542
327.409
327.253
327.015
326.795
326.464
325.955
325.547
325.088
324.673
321.432
321.763
322.129
322.537
322.742
323.047
323.278
323.399
323.483
323.489
323.444
323.433
323.253
323.048
322.83
322.625
322.271
321.831
321.435
321.05
317.694
317.972
318.349
318.588
318.864
319.031
319.185
319.331
319.346
319.436
319.373
319.274
319.149
318.978
318.81
318.598
318.317
318.014
317.626
317.374
313.844
314.093
314.325
314.491
314.709
314.859
314.959
315.044
315.097
315.138
315.135
315.142
315.019
314.87
314.717
314.568
314.248
314.047
313.806
313.503
309.931
310.056
310.237
310.426
310.515
310.676
310.731
310.876
310.866
310.864
310.853
310.832
310.779
310.609
310.536
310.362
310.252
310.035
309.888
309.684
305.964
306.045
306.237
306.275
306.317
306.488
306.395
306.504
306.579
306.501
306.547
306.446
306.526
306.429
306.38
306.262
306.215
306.028
305.975
305.854
302.001
302.068
302.122
302.142
302.11
302.146
302.187
302.232
302.191
302.224
302.241
302.183
302.199
302.179
302.084
302.063
302.1
302.089
301.987
301.936
329.679
330.085
330.725
331.268
331.724
332.059
332.307
332.565
332.653
332.663
332.6
332.537
332.448
332.139
331.835
331.396
330.972
330.442
329.903
329.272
326.074
326.455
326.903
327.388
327.804
328.09
328.349
328.477
328.663
328.58
328.63
328.554
328.4
328.091
327.876
327.618
327.082
326.617
326.063
325.682
322.208
322.564
323.006
323.43
323.701
323.973
324.138
324.367
324.405
324.408
324.444
324.349
324.233
323.976
323.789
323.568
323.131
322.723
322.31
321.878
318.392
318.614
318.953
319.245
319.534
319.742
319.954
320.075
320.153
320.216
320.114
320.082
319.97
319.761
319.614
319.392
319.069
318.729
318.319
318.056
314.324
314.601
314.73
315.013
315.272
315.41
315.577
315.725
315.794
315.71
315.728
315.674
315.64
315.493
315.387
315.109
314.835
314.642
314.318
314.137
310.329
310.473
310.624
310.759
310.972
311.117
311.151
311.271
311.274
311.338
311.363
311.223
311.162
311.146
311.001
310.839
310.666
310.554
310.28
310.141
306.24
306.281
306.373
306.515
306.568
306.761
306.737
306.87
306.793
306.824
306.792
306.787
306.688
306.629
306.583
306.563
306.437
306.268
306.214
306.06
302.14
302.108
302.11
302.239
302.218
302.286
302.282
302.339
302.256
302.269
302.256
302.309
302.291
302.278
302.21
302.205
302.152
302.092
302.105
302.075
330.708
331.258
331.904
332.404
332.82
333.214
333.477
333.782
333.912
333.95
333.911
333.844
333.692
333.419
333.047
332.58
332.161
331.59
331.003
330.469
326.949
327.385
327.864
328.32
328.759
329.059
329.405
329.554
329.678
329.769
329.723
329.657
329.443
329.234
328.935
328.536
328.175
327.67
327.204
326.704
323.047
323.394
323.791
324.202
324.561
324.878
325.02
325.188
325.345
325.378
325.399
325.335
325.2
324.934
324.713
324.417
324.008
323.589
323.143
322.832
318.991
319.293
319.655
319.956
320.266
320.503
320.637
320.859
320.916
320.96
320.968
320.829
320.724
320.554
320.379
320.17
319.781
319.401
319.038
318.778
314.89
315.094
315.36
315.62
315.883
316.047
316.2
316.24
316.361
316.331
316.386
316.317
316.205
316.048
315.922
315.718
315.472
315.197
314.931
314.717
310.661
310.852
310.886
311.229
311.351
311.495
311.573
311.636
311.67
311.748
311.755
311.682
311.661
311.53
311.388
311.281
311.09
310.859
310.726
310.526
306.411
306.521
306.644
306.753
306.747
306.862
306.962
307.033
307.057
307.019
307.042
307.11
307.044
306.951
306.88
306.726
306.708
306.551
306.426
306.35
302.16
302.135
302.187
302.284
302.287
302.332
302.391
302.382
302.325
302.372
302.34
302.375
302.341
302.361
302.32
302.31
302.264
302.138
302.155
302.165
331.712
332.299
332.969
333.425
333.987
334.388
334.701
334.943
335.099
335.212
335.193
335.098
334.888
334.597
334.351
333.902
333.311
332.794
332.19
331.506
327.864
328.292
328.892
329.292
329.761
330.106
330.491
330.629
330.717
330.813
330.837
330.725
330.6
330.377
330.01
329.632
329.2
328.645
328.061
327.718
323.713
324.142
324.678
325.019
325.366
325.806
325.936
326.114
326.269
326.304
326.238
326.18
326.01
325.946
325.552
325.279
324.857
324.481
324.036
323.571
319.624
319.887
320.224
320.637
320.902
321.226
321.347
321.494
321.601
321.695
321.699
321.582
321.502
321.263
321.154
320.875
320.452
320.139
319.782
319.472
315.368
315.595
315.799
316.119
316.345
316.615
316.767
316.896
316.894
316.931
316.944
316.863
316.791
316.677
316.464
316.249
316.068
315.804
315.475
315.114
310.981
311.153
311.389
311.617
311.77
311.893
312.023
312.041
312.131
312.225
312.134
312.068
312.012
311.927
311.813
311.74
311.517
311.281
311.12
310.999
306.556
306.721
306.892
307.025
307.117
307.159
307.193
307.228
307.273
307.311
307.285
307.369
307.231
307.208
307.091
307.058
306.93
306.796
306.627
306.579
302.265
302.241
302.292
302.262
302.378
302.389
302.414
302.395
302.446
302.455
302.461
302.453
302.431
302.348
302.36
302.314
302.361
302.274
302.224
302.195
332.693
333.299
333.927
334.52
335.097
335.499
335.927
336.063
336.241
336.375
336.323
336.22
336.102
335.822
335.41
335.019
334.521
333.926
333.224
332.628
328.719
329.228
329.757
330.245
330.756
331.092
331.364
331.698
331.729
331.89
331.821
331.738
331.581
331.428
331.017
330.586
330.199
329.583
329.09
328.624
324.503
324.991
325.38
325.767
326.194
326.531
326.805
327.05
327.093
327.178
327.209
327.123
326.897
326.737
326.49
326.127
325.733
325.29
324.814
324.407
320.2
320.611
320.96
321.271
321.642
321.959
322.032
322.242
322.338
322.384
322.359
322.328
322.208
322.049
321.871
321.548
321.165
320.867
320.407
320.048
315.728
315.953
316.374
316.607
316.878
317.073
317.237
317.408
317.485
317.486
317.463
317.466
317.325
317.213
316.987
316.836
316.56
316.359
315.93
315.702
311.399
311.456
311.746
311.898
312.078
312.297
312.413
312.499
312.537
312.557
312.533
312.539
312.421
312.379
312.269
312.072
311.839
311.669
311.426
311.296
306.815
306.938
307.022
307.272
307.283
307.385
307.431
307.514
307.537
307.53
307.548
307.478
307.463
307.428
307.318
307.329
307.171
307.064
306.846
306.801
302.27
302.277
302.313
302.415
302.456
302.524
302.478
302.548
302.561
302.526
302.585
302.464
302.566
302.5
302.45
302.426
302.389
302.384
302.3
302.284
333.672
334.283
334.984
335.606
336.075
336.57
336.877
337.222
337.397
337.464
337.438
337.418
337.265
336.896
336.529
336.082
335.583
334.944
334.223
333.658
329.49
330.042
330.662
331.126
331.544
331.976
332.36
332.571
332.714
332.828
332.81
332.774
332.572
332.32
332.037
331.552
331.042
330.57
330.033
329.43
325.159
325.594
326.109
326.58
326.912
327.357
327.529
327.695
327.837
328.008
327.997
327.991
327.806
327.561
327.314
326.887
326.519
326.048
325.559
325.095
320.795
321.118
321.51
321.927
322.187
322.497
322.749
322.934
322.918
323.107
323.054
322.965
322.866
322.703
322.432
322.207
321.829
321.427
321.068
320.705
316.201
316.479
316.856
317.096
317.374
317.591
317.731
317.955
318.021
318.007
318.013
318.014
317.941
317.705
317.63
317.372
317.16
316.818
316.469
316.211
311.628
311.836
312.055
312.217
312.459
312.64
312.695
312.821
312.908
312.957
312.916
312.853
312.764
312.737
312.598
312.343
312.242
312.062
311.785
311.601
306.948
307.134
307.25
307.403
307.5
307.507
307.66
307.708
307.761
307.827
307.807
307.765
307.695
307.637
307.586
307.543
307.352
307.245
307.142
307.002
302.371
302.389
302.423
302.524
302.492
302.529
302.539
302.554
302.675
302.67
302.622
302.612
302.612
302.527
302.561
302.555
302.538
302.449
302.273
302.361
334.465
335.131
335.848
336.512
337.05
337.594
337.851
338.266
338.431
338.549
338.522
338.467
338.221
338.027
337.612
337.163
336.563
335.936
335.259
334.641
330.235
330.771
331.342
331.905
332.471
332.862
333.239
333.466
333.582
333.704
333.768
333.648
333.502
333.276
332.855
332.503
331.952
331.458
330.886
330.42
325.807
326.287
326.793
327.307
327.609
328.075
328.298
328.563
328.676
328.737
328.807
328.663
328.537
328.395
328.03
327.687
327.356
326.801
326.251
325.795
321.272
321.628
322.073
322.508
322.822
323.066
323.349
323.536
323.605
323.615
323.59
323.662
323.523
323.312
323.037
322.817
322.469
322.003
321.72
321.286
316.653
316.94
317.191
317.517
317.885
317.997
318.246
318.391
318.498
318.568
318.511
318.507
318.454
318.26
318.037
317.868
317.595
317.276
316.969
316.668
311.944
312.04
312.399
312.59
312.761
312.945
313.051
313.202
313.243
313.308
313.317
313.258
313.139
313.043
312.891
312.816
312.631
312.332
312.193
311.957
307.203
307.295
307.513
307.581
307.689
307.848
307.832
307.905
307.957
308.003
308.038
308.009
307.995
307.909
307.821
307.741
307.592
307.448
307.348
307.159
302.451
302.453
302.497
302.519
302.538
302.641
302.696
302.664
302.735
302.684
302.693
302.629
302.656
302.688
302.619
302.611
302.469
302.493
302.439
302.378
335.312
335.953
336.722
337.427
338.025
338.476
338.934
339.225
339.426
339.564
339.551
339.396
339.349
338.965
338.643
338.11
337.532
336.936
336.162
335.508
330.924
331.455
332.166
332.705
333.24
333.718
334.084
334.278
334.467
334.622
334.531
334.536
334.422
334.077
333.762
333.389
332.857
332.304
331.661
331.102
326.356
326.85
327.42
327.902
328.397
328.728
329.063
329.264
329.407
329.477
329.497
329.475
329.291
329.14
328.792
328.412
328.025
327.53
326.932
326.482
321.793
322.114
322.507
323.034
323.375
323.685
323.857
324.079
324.22
324.298
324.299
324.256
324.113
323.96
323.667
323.403
323.029
322.651
322.198
321.875
317.013
317.258
317.613
317.916
318.209
318.484
318.682
318.877
318.953
318.989
318.994
318.947
318.842
318.713
318.501
318.226
317.988
317.706
317.314
317.073
312.166
312.391
312.691
312.89
313.073
313.311
313.386
313.463
313.506
313.593
313.612
313.609
313.518
313.345
313.256
313.122
312.923
312.683
312.41
312.162
307.411
307.383
307.59
307.693
307.864
307.969
308.081
308.143
308.109
308.185
308.192
308.184
308.193
308.109
307.979
307.941
307.785
307.624
307.443
307.389
302.464
302.461
302.541
302.585
302.706
302.675
302.684
302.709
302.778
302.699
302.815
302.669
302.667
302.82
302.699
302.571
302.615
302.546
302.472
302.505
336.071
336.737
337.489
338.19
338.793
339.345
339.737
340.106
340.33
340.505
340.44
340.408
340.224
339.864
339.508
339.062
338.49
337.75
337.029
336.445
331.557
332.214
332.805
333.493
333.995
334.427
334.83
335.118
335.294
335.465
335.421
335.362
335.14
334.913
334.581
334.143
333.656
333.017
332.398
331.807
327.005
327.433
328
328.528
328.928
329.331
329.644
329.97
330.071
330.215
330.246
330.101
330.008
329.749
329.347
329.152
328.638
328.093
327.614
327.224
322.275
322.559
323.105
323.477
323.874
324.108
324.465
324.586
324.728
324.833
324.876
324.815
324.7
324.497
324.168
323.976
323.596
323.101
322.666
322.368
317.308
317.705
318.017
318.297
318.688
318.981
319.103
319.221
319.379
319.454
319.417
319.354
319.277
319.143
318.989
318.695
318.417
318.088
317.773
317.453
312.453
312.705
312.948
313.187
313.342
313.585
313.73
313.765
313.887
313.887
313.954
313.935
313.804
313.762
313.62
313.418
313.235
312.999
312.743
312.525
307.537
307.674
307.733
307.903
308.091
308.107
308.248
308.321
308.385
308.331
308.345
308.319
308.337
308.255
308.161
308.101
307.971
307.803
307.663
307.504
302.512
302.557
302.577
302.702
302.7
302.729
302.709
302.755
302.858
302.791
302.802
302.852
302.818
302.777
302.783
302.732
302.706
302.609
302.621
302.576
336.744
337.473
338.214
338.979
339.594
340.195
340.568
340.931
341.176
341.251
341.333
341.253
341.001
340.738
340.44
339.904
339.272
338.544
337.863
337.15
332.166
332.69
333.46
334.107
334.672
335.134
335.495
335.801
335.965
336.085
336.082
336.066
335.883
335.698
335.288
334.824
334.248
333.743
333.11
332.472
327.418
327.946
328.544
329.071
329.501
330.066
330.232
330.59
330.744
330.825
330.783
330.782
330.552
330.395
330.057
329.668
329.215
328.781
328.153
327.664
322.62
323.023
323.537
323.963
324.341
324.604
324.899
325.148
325.322
325.33
325.347
325.348
325.205
325.003
324.751
324.46
324.05
323.681
323.194
322.771
317.584
317.957
318.32
318.632
318.969
319.221
319.411
319.696
319.731
319.804
319.793
319.781
319.659
319.512
319.298
319.085
318.877
318.46
318.144
317.769
312.618
312.93
313.176
313.411
313.665
313.835
313.991
314.089
314.14
314.239
314.281
314.183
314.149
314.002
313.822
313.687
313.448
313.292
313.013
312.802
307.627
307.768
307.924
308.087
308.2
308.323
308.467
308.467
308.504
308.55
308.526
308.584
308.501
308.447
308.371
308.228
308.164
307.957
307.79
307.669
302.587
302.635
302.721
302.747
302.739
302.808
302.78
302.794
302.888
302.886
302.888
302.807
302.846
302.822
302.764
302.743
302.8
302.668
302.645
302.626
337.326
337.989
338.832
339.564
340.371
340.867
341.317
341.646
341.935
342.112
342.085
342.021
341.782
341.544
341.078
340.595
340.007
339.269
338.491
337.89
332.729
333.357
333.98
334.687
335.222
335.719
336.183
336.385
336.635
336.781
336.789
336.728
336.587
336.222
335.943
335.472
334.926
334.38
333.722
333.093
327.93
328.435
328.991
329.584
330.058
330.443
330.805
331.084
331.241
331.399
331.308
331.291
331.204
330.989
330.596
330.23
329.837
329.235
328.743
328.247
322.966
323.359
323.868
324.346
324.698
325.064
325.325
325.523
325.753
325.82
325.787
325.813
325.653
325.394
325.195
324.859
324.503
324.066
323.572
323.268
318.055
318.287
318.655
318.983
319.292
319.626
319.803
319.951
320.038
320.116
320.216
320.113
319.993
319.907
319.67
319.443
319.184
318.825
318.401
318.136
312.874
313.09
313.348
313.689
313.885
314.055
314.205
314.346
314.369
314.387
314.473
314.416
314.422
314.283
314.167
313.969
313.668
313.428
313.228
313.057
307.791
307.867
308.017
308.198
308.322
308.467
308.525
308.657
308.635
308.669
308.759
308.724
308.666
308.569
308.542
308.393
308.252
308.125
307.921
307.841
302.649
302.693
302.745
302.801
302.739
302.788
302.847
302.921
302.94
302.913
302.94
302.943
302.875
302.807
302.865
302.835
302.804
302.696
302.673
302.704
337.911
338.574
339.448
340.238
340.92
341.499
341.89
342.342
342.565
342.695
342.714
342.678
342.522
342.199
341.724
341.233
340.722
339.966
339.163
338.468
333.208
333.756
334.498
335.243
335.731
336.238
336.728
337.018
337.224
337.406
337.389
337.35
337.081
336.867
336.535
336.087
335.473
334.854
334.16
333.652
328.212
328.747
329.394
329.979
330.443
330.879
331.269
331.545
331.746
331.846
331.828
331.834
331.6
331.447
331.085
330.765
330.256
329.66
329.14
328.676
323.266
323.739
324.224
324.704
325.047
325.44
325.745
325.972
326.099
326.204
326.154
326.161
326.087
325.909
325.612
325.283
324.963
324.441
323.977
323.599
318.171
318.534
318.871
319.322
319.593
319.846
320.099
320.303
320.378
320.414
320.47
320.442
320.372
320.261
319.992
319.786
319.423
319.14
318.657
318.401
313.103
313.297
313.579
313.801
314.032
314.239
314.446
314.5
314.695
314.651
314.669
314.665
314.648
314.483
314.257
314.139
313.939
313.715
313.467
313.221
307.825
308.065
308.156
308.276
308.444
308.522
308.705
308.795
308.798
308.845
308.875
308.871
308.796
308.722
308.65
308.525
308.363
308.242
308.078
308.014
302.606
302.648
302.738
302.792
302.838
302.865
302.88
302.943
302.994
302.9
302.914
303.002
302.966
302.907
302.877
302.889
302.814
302.757
302.65
302.625
338.227
339.09
339.883
340.707
341.432
341.931
342.482
342.883
343.187
343.318
343.306
343.181
342.984
342.709
342.278
341.799
341.161
340.516
339.637
338.915
333.465
334.124
334.87
335.573
336.165
336.7
337.116
337.477
337.726
337.848
337.863
337.776
337.602
337.327
336.946
336.473
336.02
335.365
334.606
334.054
328.599
329.148
329.696
330.28
330.789
331.271
331.63
331.939
332.118
332.304
332.189
332.128
332.029
331.851
331.519
331.125
330.689
330.15
329.484
328.981
323.501
323.968
324.508
324.946
325.305
325.799
326.014
326.225
326.438
326.484
326.541
326.494
326.413
326.203
325.97
325.535
325.16
324.758
324.282
323.908
318.393
318.718
319.083
319.527
319.851
319.968
320.322
320.532
320.633
320.749
320.755
320.683
320.546
320.484
320.215
320.024
319.714
319.279
318.92
318.657
313.21
313.463
313.698
313.921
314.287
314.428
314.547
314.765
314.821
314.804
314.865
314.799
314.761
314.617
314.485
314.36
314.161
313.887
313.561
313.344
307.932
308.116
308.204
308.494
308.511
308.717
308.8
308.907
308.984
308.964
308.905
308.886
308.934
308.756
308.784
308.639
308.474
308.39
308.176
307.99
302.719
302.658
302.78
302.83
302.885
302.899
302.902
302.986
303.047
302.958
303.008
302.955
303.012
302.996
302.973
302.874
302.862
302.818
302.77
302.729
338.547
339.265
340.19
340.977
341.721
342.318
342.753
343.176
343.527
343.552
343.673
343.547
343.368
343.018
342.701
342.142
341.513
340.811
340.016
339.365
333.756
334.344
335.095
335.82
336.472
336.87
337.411
337.678
337.994
338.043
338.185
338.04
337.974
337.587
337.266
336.837
336.247
335.595
334.911
334.323
328.808
329.298
329.955
330.514
331.051
331.473
331.889
332.144
332.352
332.508
332.519
332.514
332.28
332.035
331.716
331.344
330.953
330.347
329.684
329.201
323.657
324.085
324.628
325.047
325.519
325.907
326.199
326.499
326.616
326.698
326.744
326.623
326.607
326.338
326.152
325.749
325.354
324.964
324.473
324.042
318.54
318.818
319.291
319.612
319.918
320.278
320.413
320.668
320.824
320.835
320.892
320.835
320.788
320.6
320.354
320.036
319.84
319.442
319.108
318.778
313.246
313.492
313.806
314.061
314.299
314.477
314.69
314.68
314.929
315.021
314.945
314.92
314.888
314.759
314.661
314.385
314.272
313.947
313.633
313.433
308.02
308.131
308.269
308.451
308.627
308.679
308.826
308.961
309.008
308.968
308.986
308.97
308.948
308.911
308.832
308.728
308.626
308.359
308.179
308.099
302.644
302.687
302.796
302.879
302.889
302.912
302.96
302.985
303.004
303.057
303.02
302.97
302.998
302.95
302.928
302.92
302.924
302.841
302.771
302.745
)
;

boundaryField
{
    hotSide
    {
        type            fixedGradient;
        gradient        nonuniform List<scalar> 
400
(
321.511
322.87
325.591
329.677
335.133
341.965
350.181
359.788
370.794
383.208
397.037
412.289
428.971
447.088
466.647
487.651
510.105
534.011
559.372
586.191
323.738
325.08
327.767
331.802
337.194
343.949
352.078
361.591
372.498
384.81
398.537
413.687
430.268
448.289
467.755
488.672
511.043
534.872
560.161
586.913
326.149
327.47
330.116
334.091
339.406
346.071
354.099
363.503
374.296
386.491
400.101
415.136
431.606
449.52
468.885
489.706
511.988
535.735
560.948
587.63
328.704
330
332.597
336.503
341.73
348.292
356.205
365.485
376.15
388.215
401.695
416.604
432.954
450.753
470.009
490.73
512.919
536.579
561.714
588.325
331.33
332.599
335.142
338.97
344.099
350.546
358.332
367.477
378.003
389.928
403.271
418.047
434.27
451.949
471.095
491.712
513.807
537.382
562.439
588.978
333.918
335.158
337.643
341.389
346.414
352.74
360.392
369.397
379.779
391.562
404.765
419.407
435.503
453.065
472.101
492.618
514.622
538.114
563.096
589.569
336.321
337.531
339.959
343.622
348.544
354.751
362.274
371.142
381.385
393.031
406.101
420.618
436.595
454.047
472.983
493.409
515.33
538.747
563.663
590.076
338.36
339.543
341.92
345.509
350.339
356.44
363.847
372.595
382.718
394.244
407.2
421.608
437.485
454.844
473.695
494.045
515.897
539.253
564.114
590.478
339.852
341.015
343.352
346.885
351.645
357.665
364.985
373.643
383.675
395.113
407.984
422.312
438.116
455.407
474.197
494.491
516.294
539.606
564.428
590.758
340.643
341.795
344.11
347.613
352.334
358.311
365.584
374.193
384.176
395.567
408.393
422.679
438.443
455.699
474.456
494.722
516.498
539.788
564.589
590.901
340.643
341.795
344.11
347.613
352.334
358.311
365.584
374.193
384.176
395.567
408.393
422.679
438.443
455.699
474.456
494.722
516.498
539.788
564.589
590.901
339.852
341.015
343.352
346.885
351.645
357.665
364.985
373.643
383.675
395.113
407.984
422.312
438.116
455.407
474.197
494.491
516.294
539.606
564.428
590.758
338.36
339.543
341.92
345.509
350.339
356.44
363.847
372.595
382.718
394.244
407.2
421.608
437.485
454.844
473.695
494.045
515.897
539.253
564.114
590.478
336.321
337.531
339.959
343.622
348.544
354.751
362.274
371.142
381.385
393.031
406.101
420.618
436.595
454.047
472.983
493.409
515.33
538.747
563.663
590.076
333.918
335.158
337.643
341.389
346.414
352.74
360.392
369.397
379.779
391.562
404.765
419.407
435.503
453.065
472.101
492.618
514.622
538.114
563.096
589.569
331.33
332.599
335.142
338.97
344.099
350.546
358.332
367.477
378.003
389.928
403.271
418.047
434.27
451.949
471.095
491.712
513.807
537.382
562.439
588.978
328.704
330
332.597
336.503
341.73
348.292
356.205
365.485
376.15
388.215
401.695
416.604
432.954
450.753
470.009
490.73
512.919
536.579
561.714
588.325
326.149
327.47
330.116
334.091
339.406
346.071
354.099
363.503
374.296
386.491
400.101
415.136
431.606
449.52
468.885
489.706
511.988
535.735
560.948
587.63
323.738
325.08
327.767
331.802
337.194
343.949
352.078
361.591
372.498
384.81
398.537
413.687
430.268
448.289
467.755
488.672
511.043
534.872
560.161
586.913
321.511
322.87
325.591
329.677
335.133
341.965
350.181
359.788
370.794
383.208
397.037
412.289
428.971
447.088
466.647
487.651
510.105
534.011
559.372
586.191
)
;
    }
    coldSide
    {
        type            mixed;
        refValue        uniform 300;
        refGradient     uniform 0;
        valueFraction   uniform 0.991591;
        source          uniform 0;
        value           nonuniform List<scalar> 
400
(
300.013
300.014
300.015
300.014
300.015
300.016
300.017
300.018
300.018
300.019
300.019
300.02
300.021
300.021
300.021
300.022
300.022
300.022
300.023
300.022
300.013
300.014
300.015
300.015
300.016
300.017
300.017
300.018
300.018
300.019
300.019
300.02
300.021
300.021
300.021
300.022
300.023