/*--------------------------------*- C++ -*----------------------------------*\
| =========                 |                                                 |
| \\      /  F ield         | OpenFOAM: The Open Source CFD Toolbox           |
|  \\    /   O peration     | Version:  2212                                  |
|   \\  /    A nd           | Website:  www.openfoam.com                      |
|    \\/     M anipulation  |                                                 |
\*---------------------------------------------------------------------------*/
FoamFile
{
    version     2.0;
    format      ascii;
    arch        "LSB;label=32;scalar=64";
    class       volScalarField;
    location    "./ITHACAoutput/true/1.9";
    object      error;
}
// * * * * * * * * * * * * * * * * * * * * * * * * * * * * * * * * * * * * * //

dimensions      [0 0 0 1 0 0 0];

internalField   nonuniform List<scalar> 
3200
(
1.92848
2.14486
2.53533
3.11357
3.92237
4.7129
5.5914
6.38573
6.87382
7.29882
7.30332
7.00461
6.50228
5.8284
5.05181
4.19388
3.54461
2.96144
2.56372
2.46158
1.58053
1.79732
2.11134
2.58932
3.36624
4.01833
4.79516
5.43006
6.02787
6.1717
6.24071
6.01606
5.53282
4.91679
4.24928
3.48772
3.03827
2.55662
2.09688
2.00252
1.3198
1.45492
1.80656
2.16755
2.7728
3.33215
4.01698
4.47983
4.93595
5.19597
5.15321
5.01831
4.58491
4.11481
3.5207
2.92888
2.47444
2.01808
1.73819
1.64323
1.04229
1.20425
1.3977
1.73952
2.17693
2.64187
3.20833
3.70578
4.00831
4.18605
4.19173
4.01085
3.69575
3.23902
2.8062
2.33987
1.96094
1.5624
1.35935
1.24027
0.804083
0.862116
1.08901
1.38123
1.68891
2.05297
2.4839
2.80923
3.06186
3.21739
3.17858
3.04277
2.85265
2.46834
2.15554
1.85834
1.52574
1.26675
1.03837
0.969318
0.490788
0.646504
0.768684
1.02434
1.26442
1.45176
1.70032
2.0214
2.18425
2.27592
2.31359
2.1949
1.99613
1.78023
1.58307
1.25547
1.0975
0.879863
0.736748
0.668834
0.357208
0.37425
0.491186
0.53928
0.682496
0.848065
1.06806
1.19539
1.31519
1.40393
1.39747
1.27514
1.21729
1.04718
0.934231
0.748285
0.67457
0.488902
0.437256
0.435595
0.102334
0.175325
0.187708
0.204771
0.148005
0.273712
0.367858
0.507525
0.459134
0.471177
0.445157
0.421676
0.409102
0.342089
0.395039
0.208732
0.197818
0.14094
0.174932
0.160062
1.32229
1.47988
1.87868
2.43932
3.1279
4.00025
4.76649
5.49389
6.14892
6.45538
6.47568
6.17434
5.68866
4.99791
4.16691
3.44127
2.81739
2.35346
2.00962
1.8022
1.1552
1.26747
1.538
2.1384
2.70046
3.36172
4.05659
4.72968
5.26198
5.48598
5.55948
5.38146
4.86694
4.30438
3.57322
2.93191
2.37484
1.86987
1.6275
1.43513
0.9099
0.987371
1.25898
1.67906
2.24557
2.89558
3.42281
3.9987
4.40163
4.56101
4.68329
4.43103
4.05969
3.53001
2.97718
2.44641
2.0378
1.62729
1.38911
1.20196
0.711043
0.829091
1.07999
1.393
1.79489
2.32466
2.80024
3.2152
3.56502
3.76601
3.79876
3.58797
3.32359
2.82053
2.45807
1.92463
1.55449
1.25331
1.09704
0.935814
0.568137
0.608653
0.758209
1.10574
1.42297
1.76791
2.07673
2.49733
2.80876
2.84917
2.82934
2.8031
2.57365
2.21426
1.89935
1.48261
1.13366
1.00655
0.749973
0.743634
0.354729
0.455693
0.632799
0.756155
0.885112
1.26801
1.55385
1.74669
2.00406
2.04308
2.06546
1.94865
1.86052
1.6062
1.30509
1.09395
0.833091
0.659727
0.554165
0.558277
0.192489
0.25239
0.457416
0.443868
0.627875
0.748096
0.906153
1.05501
1.23259
1.27746
1.23373
1.16615
1.04804
0.964012
0.799133
0.66303
0.578774
0.355705
0.367566
0.317839
0.0838135
0.066493
0.16543
0.121443
0.178788
0.287467
0.280581
0.365214
0.414131
0.451302
0.43504
0.467175
0.319783
0.363439
0.233957
0.243974
0.209119
0.164253
0.131331
0.102682
0.582475
0.636686
0.963759
1.48355
2.21896
2.91744
3.73423
4.44608
5.03516
5.30085
5.3645
5.16983
4.6361
4.01801
3.29895
2.54601
1.9115
1.40656
1.11847
1.06752
0.451942
0.534496
0.884341
1.34917
1.82354
2.58295
3.18165
3.78716
4.30957
4.59126
4.65657
4.42704
4.00442
3.35695
2.73587
2.16543
1.6167
1.22509
0.865632
0.856086
0.413191
0.481629
0.708902
1.12579
1.56143
2.09252
2.67557
3.21946
3.54614
3.8094
3.81702
3.67153
3.31697
2.87411
2.33852
1.78967
1.33414
0.945913
0.816258
0.661384
0.37098
0.365219
0.553883
0.888473
1.23483
1.7649
2.14157
2.54583
2.92521
3.12214
3.09615
3.02471
2.69017
2.37427
1.89626
1.48505
1.11082
0.833315
0.602834
0.476852
0.182789
0.321548
0.38483
0.690387
0.947248
1.35811
1.6772
2.02355
2.2401
2.43196
2.47703
2.2831
2.06814
1.79257
1.37835
1.1066
0.825474
0.695832
0.46993
0.377654
0.143645
0.170391
0.32567
0.487311
0.688201
0.961334
1.1676
1.49527
1.61026
1.71994
1.68124
1.6602
1.40883
1.27028
1.06152
0.781903
0.609567
0.443441
0.333
0.302348
0.0932552
0.141134
0.161256
0.281926
0.422132
0.590106
0.750368
0.831043
0.948638
0.952547
1.04091
0.910339
0.876273
0.779504
0.613507
0.481695
0.42859
0.25495
0.179102
0.129217
0.0169545
0.00742484
0.0889139
0.105917
0.121812
0.269052
0.232524
0.257832
0.35732
0.334117
0.299662
0.322509
0.287767
0.319057
0.209174
0.241846
0.101399
0.0539883
0.026325
-0.0386175
-0.278005
-0.0871542
0.170678
0.681405
1.22138
1.945
2.73603
3.34434
3.87266
4.26005
4.23026
3.9339
3.53858
2.89587
2.20783
1.56346
1.0539
0.706099
0.380468
0.298461
-0.159572
-0.0630532
0.082713
0.535648
1.03443
1.65707
2.29242
2.84715
3.39113
3.49187
3.59639
3.41045
3.03593
2.55593
1.94795
1.38266
0.806709
0.467958
0.313079
0.173283
-0.1928
-0.09776
0.190491
0.406062
0.864572
1.34742
1.98966
2.37678
2.72062
3.02349
2.96985
2.82827
2.50448
2.02496
1.64145
1.17074
0.714747
0.425015
0.181968
0.239685
-0.201742
0.0262708
0.0763711
0.328636
0.693296
1.10944
1.5859
1.91672
2.24147
2.40257
2.48572
2.39801
2.01597
1.68071
1.34034
0.908808
0.565617
0.293227
0.134866
0.134706
-0.0784638
-0.0120095
0.109624
0.289653
0.543194
0.839558
1.1413
1.47836
1.82619
1.82139
1.93282
1.75416
1.60413
1.30374
0.992767
0.681932
0.449393
0.22815
0.20765
0.0397906
0.0154592
-0.0184136
0.0239661
0.201327
0.377937
0.693458
0.812977
1.04653
1.23187
1.30207
1.30076
1.21194
1.14897
0.968487
0.653123
0.516347
0.298028
0.130266
0.0770109
0.0375496
-0.0362718
-0.0608786
0.0621978
0.192409
0.212466
0.390237
0.509872
0.68214
0.765934
0.793077
0.799506
0.752665
0.711527
0.585337
0.414492
0.312784
0.0879715
0.103154
0.0227265
-0.00829344
0.0140246
-0.0555966
-0.0319701
-0.00998828
0.0702719
0.0843477
0.213569
0.187053
0.192209
0.263696
0.282322
0.248386
0.242171
0.163573
0.124936
0.0727841
0.0543071
0.0296081
0.0349839
-0.00646566
-0.826891
-0.790636
-0.542997
-0.188152
0.340367
0.960017
1.70602
2.23752
2.68271
2.97915
3.06953
2.80835
2.4485
1.88355
1.30473
0.730042
0.331169
-0.117097
-0.236218
-0.27402
-0.720875
-0.74599
-0.520129
-0.0920558
0.360798
0.816791
1.43479
1.8618
2.31617
2.54416
2.60609
2.39753
2.11643
1.62103
1.11999
0.635115
0.205029
-0.0329719
-0.25479
-0.260247
-0.633323
-0.558971
-0.423818
-0.128502
0.249722
0.735698
1.22056
1.68988
1.91848
2.14752
2.14313
2.06741
1.7596
1.35373
0.922046
0.472094
0.146915
-0.0995443
-0.282238
-0.209892
-0.471694
-0.494473
-0.309198
-0.111719
0.226039
0.43501
0.985861
1.27826
1.60251
1.67977
1.7633
1.68013
1.38959
1.09114
0.733634
0.45065
0.0970244
-0.1529
-0.219068
-0.238942
-0.453768
-0.375697
-0.240866
-0.102973
0.220292
0.460278
0.740775
1.02255
1.21482
1.32317
1.34085
1.25543
1.13288
0.79503
0.56477
0.288018
0.104867
-0.100493
-0.166746
-0.107544
-0.205507
-0.281958
-0.21453
-0.139757
0.109893
0.294843
0.559549
0.765463
0.84228
0.979327
0.928615
0.885525
0.858541
0.621824
0.418832
0.208614
-0.00751336
-0.0744708
-0.116898
-0.107687
-0.212747
-0.116971
-0.133614
-0.115285
0.0567683
0.167343
0.333614
0.454701
0.501575
0.523944
0.571113
0.529878
0.537635
0.368166
0.327906
0.166519
0.0508593
-0.107242
-0.141409
-0.0559222
-0.0632515
-0.0342282
0.00156232
0.0133315
0.00832527
0.0975313
0.0320992
0.138727
0.126703
0.213337
0.194148
0.171389
0.115472
0.120515
0.0698692
0.0103541
-0.0213902
0.0356523
-0.0208814
-0.0443847
-1.33842
-1.30951
-1.22287
-0.883091
-0.461951
0.123911
0.724355
1.21413
1.68185
1.91408
1.99269
1.77765
1.43807
0.928891
0.422356
-0.0339064
-0.443498
-0.709703
-0.720547
-0.795976
-1.14514
-1.07617
-1.08214
-0.786476
-0.378368
0.116588
0.511254
1.02952
1.43592
1.65227
1.73866
1.53043
1.25612
0.796502
0.365875
-0.087957
-0.391219
-0.573447
-0.689443
-0.64171
-0.929872
-1.0326
-0.871626
-0.702908
-0.283126
0.039438
0.516395
0.849928
1.18609
1.34089
1.34877
1.32601
1.00885
0.625492
0.286205
-0.0496351
-0.309592
-0.570632
-0.650301
-0.571917
-0.777163
-0.837527
-0.741998
-0.524594
-0.282361
0.0135316
0.415687
0.699843
0.967678
1.08015
1.15825
0.996599
0.769632
0.511072
0.150701
-0.0389297
-0.382052
-0.499838
-0.453901
-0.418369
-0.621177
-0.665587
-0.6276
-0.442006
-0.234286
0.00126434
0.274009
0.547436
0.713569
0.861871
0.814682
0.761254
0.593076
0.394694
0.141331
-0.0575627
-0.22801
-0.311721
-0.420695
-0.358418
-0.46092
-0.444132
-0.385021
-0.306495
-0.16223
-0.0145499
0.186738
0.394156
0.47301
0.613962
0.566115
0.555184
0.383288
0.285321
0.0458095
-0.00938709
-0.207061
-0.309441
-0.310764
-0.290319
-0.318996
-0.250129
-0.314275
-0.16635
-0.0973332
0.0125886
0.163468
0.212828
0.30643
0.36718
0.354739
0.390666
0.283635
0.110933
0.0788256
0.0294489
-0.11505
-0.2148
-0.130059
-0.219976
-0.0731839
-0.0119568
-0.0537698
-0.0947336
-0.0436453
0.00808787
0.037837
0.110863
0.150714
0.161418
0.0757981
0.115381
0.0678684
0.105857
0.0463719
-0.00386212
0.024925
-0.0261051
-0.0411996
-0.0411197
-1.63397
-1.77852
-1.64889
-1.45951
-1.07887
-0.669829
-0.143119
0.314593
0.756821
1.00666
1.05368
0.882629
0.606867
0.184879
-0.289249
-0.767393
-0.979908
-1.13344
-1.17416
-1.07963
-1.34123
-1.47762
-1.44113
-1.26818
-0.990969
-0.468197
-0.146155
0.346424
0.59569
0.785031
0.828054
0.698288
0.430165
0.0771615
-0.27407
-0.6392
-0.896663
-1.02408
-1.02639
-0.924893
-1.23279
-1.2417
-1.27157
-1.13842
-0.784256
-0.467231
-0.0434182
0.267846
0.459894
0.702449
0.672607
0.562833
0.338185
0.0199019
-0.228777
-0.439336
-0.748036
-0.866466
-0.923924
-0.780537
-0.968365
-1.05291
-0.915372
-0.867664
-0.67778
-0.428323
-0.125228
0.141359
0.40849
0.506268
0.590764
0.409059
0.281456
0.00615748
-0.231768
-0.456009
-0.619251
-0.740431
-0.736663
-0.746728
-0.78554
-0.792697
-0.791703
-0.699833
-0.56091
-0.339824
-0.0943864
0.138848
0.297763
0.408705
0.406849
0.359867
0.250586
-0.0140374
-0.266895
-0.361727
-0.485295
-0.586507
-0.582612
-0.547385
-0.541693
-0.522899
-0.589885
-0.545124
-0.420246
-0.248571
-0.0607806
0.078578
0.282541
0.317575
0.281232
0.24296
0.127243
0.065042
-0.163823
-0.229162
-0.396314
-0.362121
-0.366431
-0.411544
-0.326833
-0.388982
-0.333922
-0.299625
-0.25577
-0.100532
-0.00153509
0.109668
0.0979525
0.164961
0.187976
0.175467
0.0776474
0.0429075
-0.0830283
-0.184527
-0.246871
-0.282002
-0.282973
-0.206085
-0.174497
-0.115046
-0.0875021
-0.13789
-0.125098
-0.0406824
-0.0259319
0.116519
-0.0255713
0.0088272
0.0401933
0.0451915
0.0434761
0.0418496
-0.0135111
-0.00814372
-0.103312
-0.0799934
-0.0605461
-0.156339
-1.85448
-1.90646
-1.97569
-1.83744
-1.60281
-1.20438
-0.825103
-0.347154
-0.105381
0.176058
0.0932249
0.0245674
-0.145996
-0.479155
-0.847133
-1.16645
-1.3284
-1.47817
-1.37618
-1.21651
-1.54985
-1.7033
-1.77544
-1.60895
-1.3259
-1.04834
-0.720129
-0.329753
-0.06068
0.132586
0.128694
0.0486187
-0.132982
-0.478898
-0.74044
-0.927557
-1.17792
-1.22977
-1.2424
-1.1037
-1.28477
-1.45702
-1.42559
-1.3083
-1.16494
-0.873382
-0.636342
-0.25914
-0.10074
0.0418742
0.138829
0.00123879
-0.144372
-0.383502
-0.696449
-0.845351
-1.00352
-1.13841
-1.04629
-0.965119
-1.11668
-1.16499
-1.20032
-1.1409
-0.998173
-0.760323
-0.502976
-0.221002
-0.089644
0.0667693
0.0201136
-0.0991885
-0.0958574
-0.282467
-0.584824
-0.764841
-0.895538
-0.862266
-0.859034
-0.785841
-0.857796
-0.922584
-0.872343
-0.93255
-0.74744
-0.594111
-0.37557
-0.267429
-0.121628
0.154205
0.00413949
0.00414978
-0.155375
-0.286136
-0.428238
-0.628497
-0.676388
-0.720847
-0.692821
-0.577219
-0.630755
-0.64714
-0.658937
-0.62677
-0.497768
-0.461521
-0.283957
-0.133749
-0.0836557
0.0568186
0.0249286
-0.0256108
-0.0831574
-0.301715
-0.310149
-0.381955
-0.533404
-0.583692
-0.498886
-0.425435
-0.415236
-0.457485
-0.370355
-0.406989
-0.375756
-0.255056
-0.201675
-0.108642
-0.115205
-0.0150785
-0.0076154
0.00295754
-0.115594
-0.130573
-0.185491
-0.231271
-0.286583
-0.3522
-0.366688
-0.29729
-0.20556
-0.097669
-0.0379096
-0.152297
-0.107864
-0.0926138
-0.0321401
-0.0230234
0.0242244
0.0286514
-0.0308025
0.0427141
-0.00115123
-0.122331
-0.0555271
-0.047845
-0.10716
-0.100382
-0.125598
-0.0805389
-1.76822
-1.9508
-2.08012
-1.99092
-1.87804
-1.57639
-1.30613
-0.911766
-0.637728
-0.56872
-0.423864
-0.535267
-0.681682
-0.911032
-1.28922
-1.41965
-1.5723
-1.56836
-1.39834
-1.14528
-1.55764
-1.72693
-1.79282
-1.77861
-1.68338
-1.39587
-1.08117
-0.829812
-0.63449
-0.446074
-0.439766
-0.413206
-0.593931
-0.831977
-1.09669
-1.2164
-1.32608
-1.38693
-1.20059
-1.07837
-1.35481
-1.4527
-1.5257
-1.50448
-1.40856
-1.17305
-0.99525
-0.681537
-0.467122
-0.420741
-0.393867
-0.448116
-0.556391
-0.737133
-0.925125
-1.06019
-1.07799
-1.16774
-1.01152
-0.912556
-1.07908
-1.18879
-1.22034
-1.2694
-1.18485
-1.03808
-0.795472
-0.523004
-0.40758
-0.262736
-0.283423
-0.417438
-0.476357
-0.651262
-0.755393
-0.860784
-0.908162
-0.974054
-0.864949
-0.730817
-0.801459
-0.920245
-0.984628
-0.922839
-0.892586
-0.76112
-0.614523
-0.459465
-0.267545
-0.331261
-0.281941
-0.307846
-0.382982
-0.488471
-0.680487
-0.686297
-0.785567
-0.751156
-0.723368
-0.593096
-0.628683
-0.678142
-0.726513
-0.727247
-0.630494
-0.62865
-0.49018
-0.307962
-0.250521
-0.161404
-0.15467
-0.188044
-0.228499
-0.334745
-0.441775
-0.529686
-0.522629
-0.489625
-0.457209
-0.499355
-0.336554
-0.37381
-0.378367
-0.456761
-0.367341
-0.325055
-0.185797
-0.223633
-0.206063
-0.0657553
-0.150246
-0.109492
-0.0956164
-0.138572
-0.319847
-0.367512
-0.299113
-0.324092
-0.2952
-0.274726
-0.125348
-0.150611
-0.0985241
-0.17197
-0.0732884
-0.178636
-0.121003
-0.0983022
-0.0524422
-0.0131608
-0.0168024
-0.0535399
-0.0489115
-0.0701793
-0.134072
-0.0756519
-0.148762
-0.139648
-0.12327
-0.1294
-1.61646
-1.85055
-2.02378
-2.04951
-2.03978
-1.75349
-1.49371
-1.33215
-1.05493
-0.933563
-0.881552
-0.984941
-1.00471
-1.27277
-1.42634
-1.55178
-1.52364
-1.50511
-1.24233
-0.946688
-1.33106
-1.6843
-1.78642
-1.81861
-1.67965
-1.57049
-1.31296
-1.11717
-0.939823
-0.853278
-0.897533
-0.794902
-0.946261
-1.13373
-1.25763
-1.30123
-1.40073
-1.2509
-1.08624
-0.752476
-1.1676
-1.31297
-1.48675
-1.52075
-1.45984
-1.36193
-1.15347
-1.02409
-0.902241
-0.710315
-0.720069
-0.772732
-0.88979
-0.953681
-1.11573
-1.21924
-1.18609
-1.09169
-0.960282
-0.687176
-0.962149
-1.14408
-1.24726
-1.25788
-1.21246
-1.11417
-0.939286
-0.814991
-0.649522
-0.510986
-0.518537
-0.61866
-0.651411
-0.784002
-0.879525
-0.886589
-1.00016
-0.895495
-0.731409
-0.566273
-0.735767
-0.852136
-0.93896
-0.905421
-0.912335
-0.863252
-0.756722
-0.625975
-0.564232
-0.489308
-0.419534
-0.456206
-0.49611
-0.636951
-0.731055
-0.767054
-0.695419
-0.674885
-0.564951
-0.570614
-0.562364
-0.620105
-0.669275
-0.635558
-0.66542
-0.599756
-0.510017
-0.485257
-0.350038
-0.364051
-0.382357
-0.369502
-0.39981
-0.439274
-0.539728
-0.559439
-0.555988
-0.519191
-0.38052
-0.400856
-0.356501
-0.379304
-0.471673
-0.488531
-0.447894
-0.374464
-0.318206
-0.222615
-0.218836
-0.22132
-0.226142
-0.152403
-0.225367
-0.209179
-0.296616
-0.32232
-0.307195
-0.348549
-0.27409
-0.241918
-0.104678
-0.114747
-0.123604
-0.14305
-0.151356
-0.0951203
-0.140924
-0.0354336
-0.1268
-0.0523431
-0.0111549
-0.0721501
-0.083953
-0.0929805
-0.156995
-0.12594
-0.109107
-0.0828858
-0.0537938
-0.0626424
-1.12075
-1.46181
-1.76534
-1.92092
-1.9161
-1.7535
-1.60017
-1.44933
-1.28905
-1.13855
-1.18259
-1.15586
-1.24124
-1.30963
-1.34614
-1.38333
-1.33663
-1.1746
-0.89432
-0.532842
-0.989576
-1.33831
-1.55271
-1.6327
-1.69075
-1.59472
-1.47292
-1.308
-1.13555
-1.04622
-0.994088
-1.08027
-1.13664
-1.14497
-1.20478
-1.26073
-1.17617
-0.993978
-0.752423
-0.411197
-0.920665
-1.09342
-1.35858
-1.37052
-1.41267
-1.446
-1.18994
-1.06064
-0.920184
-0.888248
-0.87869
-0.965237
-0.93619
-1.07338
-1.02179
-1.05138
-1.02694
-0.931277
-0.679643
-0.483999
-0.67533
-0.872949
-1.08481
-1.17617
-1.16072
-1.16922
-1.03915
-0.878071
-0.808108
-0.672211
-0.649
-0.777265
-0.741232
-0.793242
-0.94603
-0.922832
-0.797649
-0.744348
-0.529802
-0.362532
-0.543066
-0.702733
-0.852665
-0.880118
-0.862301
-0.831677
-0.81007
-0.673346
-0.583506
-0.541193
-0.489634
-0.609606
-0.646342
-0.617828
-0.740891
-0.716554
-0.679624
-0.583725
-0.4769
-0.261857
-0.414631
-0.521884
-0.530034
-0.653069
-0.622472
-0.659785
-0.559117
-0.517358
-0.398698
-0.451122
-0.368192
-0.456823
-0.455151
-0.524351
-0.549721
-0.492193
-0.526954
-0.432186
-0.380738
-0.150009
-0.23482
-0.29619
-0.288071
-0.376169
-0.413028
-0.373359
-0.293944
-0.281701
-0.216745
-0.259213
-0.253188
-0.240329
-0.277488
-0.232129
-0.255773
-0.324093
-0.199525
-0.259008
-0.22458
-0.0853644
-0.107068
-0.0567156
-0.127887
-0.142253
-0.0756004
-0.119896
-0.038951
-0.121208
-0.0951173
-0.0960296
-0.0228185
-0.11899
-0.0664883
-0.0799966
-0.0880941
-0.115256
-0.0677734
-0.0709781
-0.0555085
-0.0463519
-0.524607
-0.917433
-1.27667
-1.47104
-1.66986
-1.55797
-1.51751
-1.39632
-1.26259
-1.22708
-1.11512
-1.08872
-1.10385
-1.21362
-1.12111
-1.11514
-0.951382
-0.657821
-0.292419
0.15626
-0.43211
-0.798621
-1.14161
-1.2895
-1.46758
-1.3519
-1.40629
-1.16381
-1.11611
-1.03908
-1.0182
-0.959319
-1.02954
-1.07441
-1.0163
-0.966262
-0.832811
-0.634591
-0.223864
0.0521968
-0.41169
-0.684473
-0.957136
-1.15653
-1.16119
-1.16157
-1.1411
-1.01188
-0.99362
-0.866462
-0.848361
-0.810669
-0.698372
-0.892066
-0.918795
-0.794036
-0.756133
-0.513374
-0.153345
0.0198105
-0.346401
-0.511487
-0.71599
-0.899363
-0.976551
-0.925621
-0.975437
-0.87658
-0.722182
-0.763402
-0.758961
-0.703917
-0.711685
-0.680179
-0.732342
-0.736702
-0.543202
-0.44384
-0.202755
0.00439962
-0.280093
-0.464456
-0.653831
-0.740707
-0.707102
-0.737296
-0.803744
-0.647134
-0.608304
-0.540063
-0.542961
-0.521545
-0.58273
-0.541926
-0.578301
-0.591576
-0.515758
-0.370953
-0.150649
-0.0434618
-0.20404
-0.307578
-0.383568
-0.38238
-0.572584
-0.494407
-0.479834
-0.502885
-0.435007
-0.4084
-0.322866
-0.436769
-0.375092
-0.40327
-0.474159
-0.413407
-0.338653
-0.236688
-0.172054
-0.013007
-0.109455
-0.121091
-0.229878
-0.280212
-0.342346
-0.361704
-0.307965
-0.285421
-0.200672
-0.261021
-0.26172
-0.190606
-0.270258
-0.310181
-0.321846
-0.196527
-0.21936
-0.185271
-0.0952027
7.80254e-05
-0.0657442
0.00769592
-0.121522
-0.118486
-0.0996635
-0.145937
-0.0572873
-0.122216
-0.0839123
-0.119233
-0.116028
-0.0590251
-0.0885579
-0.0969652
-0.104996
-0.0502896
-0.0369831
-0.0659118
0.00475893
0.00821689
0.245288
-0.164064
-0.57919
-0.881543
-1.08414
-1.13328
-1.11827
-1.05291
-1.01242
-0.935254
-0.892207
-0.846821
-0.787919
-0.736066
-0.696885
-0.598978
-0.271638
-0.0294494
0.482322
0.987016
0.201348
-0.162822
-0.50138
-0.720501
-0.942186
-1.01563
-0.9864
-0.897163
-0.868062
-0.763833
-0.770217
-0.711875
-0.760863
-0.721625
-0.619923
-0.409553
-0.346012
0.0127538
0.451176
0.792561
0.21082
-0.176148
-0.420931
-0.664425
-0.785881
-0.759569
-0.87501
-0.77756
-0.731443
-0.680589
-0.672548
-0.660783
-0.625912
-0.61032
-0.557767
-0.505851
-0.229664
-0.0163878
0.35649
0.632257
0.109077
-0.0999315
-0.275978
-0.5006
-0.58723
-0.678533
-0.688261
-0.647067
-0.633587
-0.54839
-0.472046
-0.526
-0.483695
-0.448666
-0.505184
-0.410867
-0.28542
-0.0380639
0.23622
0.522443
0.104114
-0.0949288
-0.290179
-0.404618
-0.485707
-0.595018
-0.537687
-0.505743
-0.476025
-0.416548
-0.447301
-0.422705
-0.44107
-0.407934
-0.362624
-0.301687
-0.148152
-0.0159485
0.213756
0.419432
0.0775898
-0.0613084
-0.237845
-0.244384
-0.348269
-0.355058
-0.357255
-0.355849
-0.311904
-0.36015
-0.331236
-0.304094
-0.331756
-0.292024
-0.322649
-0.216233
-0.150253
-0.0849981
0.120096
0.265905
0.0482483
-0.0667381
-0.132969
-0.181025
-0.153277
-0.19671
-0.248573
-0.157176
-0.213182
-0.192411
-0.172582
-0.20479
-0.139552
-0.164465
-0.171477
-0.112204
-0.136145
-0.0748215
0.0960746
0.163504
0.0722986
0.0272078
0.0133594
-0.0542086
-0.158278
-0.0870839
-0.0678847
-0.089269
-0.128996
-0.1015
-0.0572377
-0.0400262
-0.000717259
-0.0515797
-0.0786506
-0.0719355
-0.065253
0.0443405
0.025015
0.0334795
1.34466
0.83042
0.323229
-0.0673378
-0.317969
-0.394877
-0.470284
-0.47531
-0.499899
-0.399468
-0.333754
-0.294058
-0.190261
-0.152755
-0.0315898
0.192163
0.554885
0.93146
1.57468
2.13358
1.18398
0.670627
0.284343
-0.0884057
-0.215576
-0.39341
-0.388878
-0.473508
-0.453051
-0.362837
-0.325336
-0.306784
-0.205963
-0.190584
0.0166337
0.162413
0.479426
0.785849
1.25964
1.76879
0.982199
0.58949
0.246349
-0.000350883
-0.180318
-0.368102
-0.361684
-0.377266
-0.39607
-0.241883
-0.387895
-0.248844
-0.155223
-0.139062
-0.0566255
0.199676
0.362925
0.690622
1.04717
1.46524
0.787366
0.509023
0.173458
0.028467
-0.179844
-0.234922
-0.29533
-0.290077
-0.269055
-0.258827
-0.197739
-0.21223
-0.163204
-0.145765
-0.071878
0.120004
0.270063
0.578955
0.879636
1.21557
0.627168
0.375851
0.165543
-0.0240888
-0.145023
-0.186482
-0.241973
-0.226533
-0.223081
-0.201791
-0.125951
-0.186788
-0.133449
-0.0307761
-0.0885739
0.0661933
0.213231
0.37975
0.64278
0.862038
0.447717
0.271964
0.165211
0.0043095
-0.035504
-0.219744
-0.220738
-0.181009
-0.181215
-0.092404
-0.0982513
-0.0837047
-0.0588067
-0.0577337
-0.0426072
0.0785349
0.210466
0.318084
0.436043
0.643789
0.260627
0.19882
0.00986513
-0.0303155
-0.118523
-0.106289
-0.0920732
-0.0518534
-0.0733293
-0.0163187
-0.093159
-0.0268876
-0.0348037
-0.139658
0.0319168
0.031554
0.129512
0.245807
0.286233
0.32401
0.109142
0.0664745
0.0797663
-0.0361373
0.000895397
-0.0302872
0.00226278
-0.0136801
0.00565825
-0.0114489
-0.0272211
-0.0353314
-0.017895
0.00499979
-0.0805562
-0.0102071
-0.030864
0.0502709
0.0528237
0.178098
2.64373
2.08404
1.50634
0.965949
0.696933
0.535042
0.389209
0.339532
0.341955
0.371181
0.476236
0.46229
0.625901
0.743794
0.961298
1.25399
1.65253
2.16514
2.74946
3.36004
2.24777
1.78911
1.32042
0.919364
0.643434
0.352073
0.382724
0.246415
0.260168
0.356024
0.346368
0.399621
0.508224
0.698987
0.802699
1.03818
1.44174
1.82009
2.37268
2.84164
1.87756
1.45328
1.14688
0.768142
0.523534
0.43845
0.338367
0.242184
0.247947
0.246621
0.306508
0.272452
0.409132
0.492036
0.71312
0.904214
1.13716
1.54987
1.96644
2.37854
1.50925
1.27116
0.930459
0.658633
0.518706
0.339276
0.140014
0.216227
0.217042
0.234416
0.252679
0.27628
0.353515
0.402603
0.536012
0.70961
0.977041
1.25425
1.63204
1.98513
1.15863
0.914562
0.704122
0.483386
0.422322
0.266511
0.165769
0.184523
0.204046
0.205696
0.214774
0.158463
0.340082
0.248235
0.466641
0.628579
0.70936
0.995878
1.16341
1.45503
0.891437
0.726697
0.51141
0.359532
0.238708
0.164479
0.172892
0.0709366
0.137062
0.090914
0.128035
0.172011
0.214871
0.238288
0.318785
0.338268
0.562327
0.66487
0.937815
1.0382
0.556193
0.401539
0.389592
0.243224
0.142176
0.13374
0.062174
0.0507801
0.115379
0.0265178
0.107393
0.0644844
0.117633
0.114863
0.154774
0.232864
0.241757
0.347399
0.534894
0.617321
0.165361
0.149765
0.0487037
0.0657091
0.0322831
0.029684
0.0982746
0.0357675
-0.0356626
-0.0239841
0.00502397
-0.0095793
0.020556
0.0675449
0.100773
0.0947508
0.101675
0.179273
0.159965
0.275856
4.14094
3.49424
2.94
2.38859
1.9727
1.73139
1.54431
1.459
1.46022
1.37989
1.5132
1.58233
1.70505
1.92977
2.14964
2.477
2.93629
3.5226
4.20189
4.89048
3.5344
3.08749
2.47769
2.10609
1.72063
1.49873
1.26362
1.21538
1.23785
1.28573
1.22245
1.33898
1.49282
1.65628
1.81271
2.13351
2.48787
3.0802
3.62979
4.18108
3.04781
2.59147
2.16806
1.72794
1.44585
1.25985
1.08274
1.05037
0.959207
1.01291
1.02732
1.15852
1.21794
1.40041
1.55258
1.76742
2.14869
2.56769
3.10278
3.44796
2.44744
2.12037
1.76498
1.40058
1.17267
1.06512
0.897567
0.765387
0.809763
0.77699
0.823398
0.896932
0.95381
1.08978
1.26332
1.56001
1.74099
2.1367
2.49955
2.80329
1.92203
1.61012
1.36309
1.08667
0.914568
0.773928
0.685325
0.593466
0.578742
0.669811
0.637399
0.719524
0.791557
0.833492
0.954887
1.04518
1.34555
1.62575
1.91083
2.13471
1.38047
1.1981
0.925434
0.798719
0.708083
0.589263
0.482531
0.491046
0.47685
0.41592
0.504925
0.463233
0.456238
0.603033
0.688448
0.850895
0.961985
1.1081
1.41873
1.51923
0.830113
0.717176
0.58814
0.553905
0.407911
0.324838
0.249942
0.243431
0.29185
0.251683
0.305606
0.335642
0.311936
0.352005
0.371861
0.528392
0.601221
0.698018
0.864
1.04439
0.296322
0.207987
0.212968
0.217301
0.07357
0.0138082
0.112652
0.0524487
0.133368
0.0834347
0.122109
0.109992
0.0579705
0.0762609
0.181494
0.253239
0.167926
0.224493
0.283597
0.355499
5.82838
5.12068
4.4329
3.89925
3.45354
3.18038
2.93189
2.73928
2.72788
2.65541
2.79643
2.90464
3.02837
3.24213
3.58669
3.98048
4.5313
5.13834
5.90959
6.55461
4.95971
4.50373
3.93899
3.39374
3.03074
2.66664
2.48217
2.39278
2.41798
2.29522
2.38709
2.51328
2.65027
2.8222
3.11198
3.41022
3.89074
4.50248
4.99983
5.60729
4.23771
3.83616
3.2766
2.87712
2.53309
2.25442
2.10595
2.04634
1.97703
1.92062
2.01138
2.12114
2.15415
2.3886
2.62885
2.86405
3.26389
3.73789
4.14758
4.72462
3.39637
3.08963
2.68864
2.36469
2.05164
1.8585
1.7521
1.62002
1.60054
1.60168
1.6304
1.69705
1.77043
1.9465
2.12269
2.35953
2.68891
3.05279
3.4319
3.81425
2.62354
2.37361
2.08165
1.80868
1.66548
1.46672
1.32507
1.22412
1.24445
1.24266
1.25678
1.32292
1.38183
1.43576
1.619
1.79321
1.97798
2.35844
2.66339
2.9255
1.9413
1.67963
1.51842
1.26796
1.14645
1.07849
0.997836
0.869923
0.88795
0.888548
0.918948
0.904962
0.965421
1.09168
1.17708
1.30985
1.47176
1.681
1.88229
2.11678
1.0868
1.00207
0.893392
0.758408
0.647532
0.643682
0.579789
0.523367
0.536002
0.573856
0.545324
0.587198
0.614262
0.634778
0.659245
0.735522
0.977816
0.986919
1.05168
1.30513
0.372494
0.328383
0.310531
0.254104
0.22131
0.236461
0.164538
0.235879
0.158781
0.213565
0.180185
0.208771
0.192853
0.170575
0.245823
0.262248
0.283009
0.303531
0.409512
0.436469
7.63638
6.94157
6.26123
5.60161
5.18015
4.75835
4.49491
4.31
4.15313
4.14569
4.20863
4.33951
4.62303
4.85177
5.17142
5.62448
6.2352
6.89975
7.70374
8.42382
6.66792
5.98562
5.3388
4.88405
4.39071
4.13122
3.91742
3.71847
3.64987
3.61653
3.64529
3.79632
3.99059
4.15812
4.53334
4.80608
5.27281
5.94636
6.56054
7.26441
5.52884
5.00688
4.55102
4.10411
3.70616
3.38776
3.22745
3.16283
3.06727
2.95346
3.06263
3.10267
3.29331
3.48217
3.79968
4.09989
4.44853
4.98262
5.52833
6.05672
4.52983
4.14225
3.71541
3.36417
3.01325
2.83244
2.68772
2.55174
2.50676
2.42438
2.50868
2.52298
2.65359
2.85523
3.01479
3.33408
3.61601
4.16764
4.45105
4.95664
3.49413
3.2526
2.91957
2.61516
2.34569
2.12205
2.00093
1.94227
1.93214
1.83575
1.91406
1.94582
2.02728
2.23138
2.4012
2.56709
2.80066
3.20539
3.46908
3.78929
2.53036
2.314
2.09775
1.80482
1.61415
1.52932
1.47865
1.41688
1.422
1.37053
1.39018
1.4089
1.38486
1.62089
1.72824
1.79159
2.03033
2.24733
2.51983
2.75887
1.54903
1.39116
1.28197
1.18689
1.03061
0.92541
0.918015
0.809118
0.835529
0.813789
0.791967
0.858525
0.899602
0.933279
0.983517
1.0883
1.16671
1.38909
1.45554
1.62719
0.477269
0.424451
0.390457
0.394689
0.327843
0.357402
0.330013
0.254241
0.313592
0.226342
0.292196
0.340307
0.209457
0.304406
0.325966
0.352207
0.409169
0.389228
0.507243
0.539113
9.45722
8.71283
7.98815
7.42661
6.79013
6.38387
6.02527
5.93514
5.84377
5.72572
5.82719
5.96107
6.16647
6.49013
6.89382
7.35743
7.96428
8.69041
9.59856
10.2823
8.10888
7.55474
6.86025
6.32942
5.88494
5.47776
5.16871
5.01953
4.99344
4.95069
4.94106
5.08705
5.2727
5.55165
5.90783
6.21012
6.82489
7.45039
8.18102
8.7969
6.84817
6.34304
5.75755
5.30162
4.90976
4.62652
4.38057
4.27693
4.17078
4.10241
4.15143
4.27211
4.47239
4.62714
4.88652
5.29169
5.699
6.19651
6.82209
7.35886
5.53427
5.121
4.7595
4.27123
4.05906
3.72172
3.57569
3.38518
3.36511
3.305
3.35482
3.44156
3.53396
3.71307
3.96865
4.30954
4.66368
5.11138
5.56899
5.93375
4.25563
4.01242
3.65643
3.36676
3.06973
2.8887
2.7229
2.61774
2.59234
2.56401
2.63462
2.65326
2.81648
2.85237
3.08354
3.30752
3.55957
3.96822
4.28345
4.59998
3.03389
2.81753
2.60668
2.39733
2.16826
2.04157
1.90904
1.90091
1.826
1.83956
1.80848
1.88354
1.98157
2.05083
2.18462
2.34622
2.56778
2.79182
3.01791
3.24801
1.77345
1.66593
1.5677
1.43451
1.28957
1.23042
1.17014
1.11355
1.16114
1.09609
1.05268
1.12427
1.22089
1.28984
1.33193
1.2732
1.59567
1.64269
1.78041
1.91485
0.643012
0.59747
0.478404
0.407536
0.475373
0.404371
0.320428
0.32992
0.404041
0.331774
0.323062
0.325363
0.40047
0.459532
0.45421
0.475104
0.506062
0.555128
0.633579
0.653013
10.9674
10.2004
9.47028
8.81108
8.22943
7.78483
7.46972
7.26472
7.10843
7.08478
7.09095
7.25823
7.47142
7.78424
8.20647
8.73897
9.44161
10.1734
10.9994
11.7939
9.36197
8.7598
8.04238
7.48771
6.96924
6.64931
6.31512
6.12281
6.04117
6.06682
6.04041
6.19732
6.33849
6.6823
6.93758
7.47925
8.02139
8.68865
9.35224
10.0415
7.77599
7.18239
6.74731
6.16946
5.82086
5.55179
5.32466
5.13167
4.99106
4.98594
5.04762
5.15991
5.25803
5.54373
5.84238
6.18473
6.69427
7.1506
7.80207
8.34964
6.27945
5.90177
5.43227
5.06699
4.68878
4.48034
4.25435
4.07849
4.05995
3.99264
4.06228
4.19395
4.3108
4.51833
4.74516
4.99276
5.4169
5.81902
6.28301
6.67741
4.85519
4.58132
4.1867
3.87245
3.64231
3.43583
3.18479
3.1428
3.10704
3.05669
3.05962
3.15797
3.29559
3.37205
3.64095
3.83764
4.15206
4.5279
4.8739
5.18278
3.47771
3.19554
2.996
2.75935
2.53654
2.45424
2.26327
2.24883
2.17435
2.19432
2.15629
2.30281
2.38501
2.41244
2.60154
2.72175
2.90473
3.14691
3.44816
3.68825
2.08596
1.87918
1.75117
1.63271
1.54717
1.49747
1.32306
1.32016
1.30088
1.26542
1.33697
1.30903
1.39355
1.39208
1.53722
1.65029
1.70349
1.90195
2.06825
2.1926
0.718772
0.734413
0.569123
0.599582
0.534187
0.490798
0.453446
0.454651
0.411926
0.422962
0.476089
0.44106
0.40895
0.473139
0.496568
0.503252
0.601958
0.637722
0.615617
0.711602
)
;

boundaryField
{
    hotSide
    {
        type            calculated;
        value           nonuniform List<scalar> 
400
(
2.71594
2.10769
1.36382
0.497394
-0.059167
-0.579901
-0.885946
-1.11801
-1.04408
-0.905183
-0.422614
0.160355
0.917251
2.00401
3.29099
4.77681
6.45367
8.252
10.0642
11.5668
3.00348
2.33588
1.48752
0.756125
0.0429031
-0.487628
-0.969898
-1.11238