/*--------------------------------*- C++ -*----------------------------------*\
| =========                 |                                                 |
| \\      /  F ield         | OpenFOAM: The Open Source CFD Toolbox           |
|  \\    /   O peration     | Version:  2212                                  |
|   \\  /    A nd           | Website:  www.openfoam.com                      |
|    \\/     M anipulation  |                                                 |
\*---------------------------------------------------------------------------*/
FoamFile
{
    version     2.0;
    format      ascii;
    arch        "LSB;label=32;scalar=64";
    class       volScalarField;
    location    "0";
    object      relativeErrorField;
}
// * * * * * * * * * * * * * * * * * * * * * * * * * * * * * * * * * * * * * //

dimensions      [0 0 0 1 0 0 0];

internalField   nonuniform List<scalar> 
3200
(
0.00563225
0.00624534
0.00735399
0.00899371
0.0112817
0.0134989
0.0159538
0.0181614
0.0195038
0.0206841
0.0206968
0.0198749
0.0184929
0.01663
0.0144696
0.0120626
0.0102388
0.00858999
0.00746496
0.00718922
0.00469299
0.00532283
0.0062318
0.0076146
0.00986214
0.0117293
0.0139496
0.0157517
0.0174497
0.0178466
0.0180461
0.0174155
0.0160498
0.0143034
0.0124034
0.010218
0.00893486
0.00754609
0.00621
0.00594597
0.00398541
0.00438382
0.00542765
0.0064917
0.0082775
0.00991583
0.011919
0.0132598
0.0145838
0.0153377
0.0152115
0.0148272
0.0135708
0.0122092
0.0104769
0.00874343
0.00741081
0.00606313
0.00523735
0.0049621
0.00320196
0.00369289
0.00427585
0.00530759
0.00662431
0.00801789
0.00971343
0.0111966
0.0120928
0.0126191
0.0126362
0.0121004
0.0111663
0.00980635
0.00851661
0.00712013
0.00598317
0.00477972
0.00416849
0.00381017
0.00251384
0.0026915
0.00339342
0.00429504
0.00524061
0.00635693
0.00767651
0.00866789
0.00943628
0.00990945
0.0097899
0.00937742
0.00880188
0.00762842
0.00667454
0.00576635
0.00474443
0.0039473
0.00324174
0.00303043
0.00156203
0.00205555
0.00244065
0.00324747
0.00400237
0.00458836
0.00536641
0.00637223
0.00687971
0.00716522
0.00728379
0.00691324
0.00629258
0.0056186
0.00500337
0.00397404
0.00347942
0.00279366
0.00234247
0.00212869
0.00115777
0.00121226
0.0015897
0.00174374
0.00220471
0.002737
0.00344403
0.00385185
0.00423562
0.00452016
0.00449937
0.00410663
0.00392239
0.00337672
0.00301509
0.00241723
0.00218119
0.00158231
0.00141635
0.00141183
0.000337893
0.000578775
0.000619475
0.000675575
0.000488132
0.000902439
0.00121248
0.00167242
0.00151269
0.00155222
0.0014665
0.00138928
0.00134809
0.00112755
0.00130246
0.000688418
0.000652636
0.000465132
0.000577478
0.000528503
0.00386078
0.00430799
0.00544816
0.00704488
0.00899541
0.0114568
0.0135995
0.015625
0.0174475
0.0182948
0.0183523
0.0175196
0.016179
0.0142598
0.0119341
0.00989662
0.00813677
0.00682502
0.0058501
0.005262
0.00342924
0.00375285
0.00453869
0.00628759
0.00791066
0.00981197
0.0118006
0.01372
0.015233
0.0158644
0.0160769
0.0155789
0.0141182
0.0125214
0.0104293
0.00858868
0.0069828
0.00551803
0.00481884
0.00426022
0.00274707
0.00297449
0.00378189
0.00502803
0.00670293
0.00861613
0.0101557
0.0118357
0.0130055
0.0134639
0.0138248
0.0130923
0.0120162
0.0104737
0.00885893
0.00730242
0.00610229
0.00488824
0.00418474
0.00362883
0.00218399
0.00254205
0.00330346
0.00424984
0.0054613
0.0070548
0.00847768
0.00971436
0.0107556
0.0113532
0.0114519
0.0108248
0.0100419
0.00853913
0.00745967
0.00585607
0.00474252
0.00383361
0.0033636
0.00287438
0.00177596
0.00189996
0.00236237
0.00343809
0.00441509
0.00547403
0.006418
0.00770549
0.00865639
0.00877553
0.00871446
0.00863893
0.00794097
0.00684304
0.00588101
0.00460014
0.0035249
0.00313613
0.00234111
0.00232455
0.00112888
0.00144873
0.00200904
0.00239709
0.00280157
0.00400747
0.00490406
0.00550624
0.00631221
0.00643226
0.00650272
0.00613769
0.00586506
0.00506929
0.00412468
0.0034626
0.00264099
0.00209454
0.00176179
0.00177665
0.000623849
0.00081749
0.00148033
0.00143517
0.0020282
0.00241432
0.00292192
0.0033995
0.00396963
0.00411301
0.00397221
0.00375566
0.00337703
0.00310849
0.00257903
0.00214176
0.00187137
0.00115116
0.00119054
0.00103011
0.000276734
0.0002195
0.000545943
0.000400654
0.000589653
0.00094778
0.000924809
0.00120347
0.00136442
0.00148675
0.00143317
0.00153918
0.00105377
0.00119791
0.00077136
0.000804639
0.00068991
0.000542061
0.000433538
0.000339034
0.00169976
0.00185249
0.00279368
0.00428306
0.0063797
0.00835406
0.0106534
0.0126448
0.0142879
0.0150239
0.0152043
0.0146701
0.0131852
0.011463
0.00944651
0.00731999
0.00551855
0.00407724
0.00325428
0.0031152
0.00134096
0.00158189
0.00260871
0.00396575
0.00534059
0.00753777
0.00925464
0.0109858
0.0124763
0.0132779
0.0134668
0.0128164
0.011616
0.00976455
0.00798403
0.00634185
0.00475212
0.0036139
0.00256191
0.0025401
0.00124694
0.00145038
0.00212879
0.00337033
0.00465984
0.00622566
0.00793802
0.00952911
0.0104781
0.0112458
0.0112683
0.0108486
0.00981772
0.00852704
0.00695755
0.00534099
0.00399408
0.00284052
0.00245808
0.00199595
0.00113909
0.00111943
0.00169375
0.00270998
0.00375656
0.00535543
0.00648319
0.00769185
0.00882549
0.00941257
0.00933422
0.00912568
0.00812797
0.00718762
0.00575404
0.00451778
0.00338818
0.00254824
0.00184775
0.00146416
0.00057123
0.00100349
0.00119877
0.00214625
0.00293866
0.00420475
0.00518302
0.00624359
0.00690395
0.00749078
0.0076296
0.00703646
0.00638118
0.00553957
0.00426742
0.00343302
0.00256621
0.00216756
0.00146656
0.0011802
0.000457044
0.000541605
0.0010338
0.00154462
0.00217808
0.00303804
0.0036849
0.00471364
0.00507193
0.00541507
0.00529321
0.00522923
0.00444113
0.00400895
0.00335465
0.00247464
0.00193214
0.00140764
0.00105848
0.000961998
0.000302201
0.00045708
0.00052182
0.000911485
0.00136352
0.00190436
0.00241954
0.0026778
0.00305517
0.00306694
0.00335145
0.00293183
0.00282355
0.00251349
0.00197988
0.00155591
0.00138566
0.000825012
0.000580043
0.000418739
5.59777e-05
2.45092e-05
0.00029342
0.000349423
0.000401736
0.000887054
0.000766407
0.000849618
0.00117726
0.00110071
0.000987198
0.00106256
0.00094826
0.00105162
0.00068964
0.000797605
0.000334518
0.000178164
8.68983e-05
0.000127501
0.000810594
0.000253391
0.000494421
0.00196615
0.00351009
0.00556786
0.00780431
0.0095109
0.0109895
0.012075
0.0119905
0.0111633
0.0100633
0.00826026
0.00632027
0.00449318
0.00304096
0.00204544
0.00110617
0.000870238
0.00047312
0.000186487
0.000243852
0.00157372
0.00302838
0.00483451
0.0066671
0.00825856
0.00981765
0.0100991
0.0104014
0.00987358
0.00880616
0.00743347
0.00568316
0.00404786
0.00237009
0.00137962
0.000925969
0.000513775
0.000581475
0.000294225
0.000571744
0.00121514
0.00257934
0.00400792
0.00590225
0.00703457
0.008039
0.00892617
0.00876781
0.00835709
0.00741254
0.00600698
0.00488253
0.00349277
0.00213887
0.00127565
0.000547662
0.000722878
0.000619123
8.04842e-05
0.000233442
0.00100204
0.00210856
0.00336587
0.00480046
0.00579087
0.00676269
0.00724351
0.00749421
0.00723499
0.00609074
0.00508747
0.00406639
0.00276401
0.00172462
0.0008963
0.000413182
0.000413397
0.000245105
3.74652e-05
0.000341372
0.000900215
0.0016848
0.00259891
0.00352663
0.0045613
0.00562833
0.00561031
0.00595355
0.00540633
0.00494934
0.00402856
0.00307318
0.00211511
0.00139667
0.000710465
0.000647792
0.000124298
4.91727e-05
5.85135e-05
7.60588e-05
0.000638015
0.00119595
0.00219125
0.00256555
0.00329897
0.00388012
0.00409952
0.0040954
0.00381735
0.00362187
0.0030563
0.00206379
0.00163393
0.000944465
0.000413411
0.000244721
0.000119438
0.00011752
0.00019713
0.000201241
0.000621994
0.000686214
0.00125927
0.001644
0.00219797
0.00246677
0.00255353
0.00257423
0.00242403
0.00229266
0.00188733
0.00133754
0.00101022
0.000284383
0.000333757
7.35901e-05
2.68706e-05
4.63014e-05
0.000183513
0.000105498
3.29503e-05
0.000231748
0.000278085
0.00070392
0.000616382
0.000633265
0.000868715
0.000930075
0.000818351
0.000798008
0.000539135
0.0004119
0.000240033
0.000179153
9.77033e-05
0.000115474
2.1346e-05
0.0024083
0.00229632
0.00157154
0.000542489
0.000977578
0.00274699
0.00486494
0.00636236
0.00761251
0.00844449
0.00870067
0.00796903
0.00696228
0.00537119
0.00373333
0.00209677
0.000954839
0.000338903
0.00068607
0.000798078
0.00213525
0.00220435
0.00153221
0.000270275
0.0010557
0.00238207
0.00417177
0.00539973
0.0067053
0.00735829
0.0075374
0.00694084
0.00613821
0.00471329
0.00326631
0.00185836
0.000601965
9.71292e-05
0.000752888
0.000770857
0.00190846
0.001681
0.00127119
0.000384317
0.00074467
0.00218762
0.00361996
0.005001
0.00566861
0.00634014
0.00632717
0.00610866
0.00520732
0.00401491
0.00274173
0.00140779
0.000439386
0.000298569
0.00084878
0.000632491
0.00144655
0.0015139
0.000944577
0.000340476
0.0006872
0.00131938
0.00298363
0.00386156
0.00483479
0.00506437
0.00531623
0.00506895
0.00419789
0.00330226
0.0022251
0.00137006
0.000295693
0.000467099
0.00067071
0.000732768
0.00141669
0.00117143
0.000749724
0.000319907
0.00068306
0.00142451
0.00228867
0.0031547
0.00374401
0.0040757
0.00413016
0.00386916
0.00349507
0.0024563
0.0017479
0.000893059
0.000325793
0.000312798
0.000519919
0.000335758
0.000653412
0.000895654
0.000680608
0.000442775
0.000347666
0.000931518
0.00176561
0.00241282
0.00265295
0.00308339
0.00292372
0.00278916
0.00270621
0.00196211
0.00132324
0.00065999
2.38036e-05
0.000236262
0.000371333
0.000342391
0.000689127
0.000378674
0.00043222
0.000372615
0.000183323
0.000539951
0.00107562
0.00146508
0.00161536
0.00168698
0.00183886
0.00170651
0.0017323
0.00118701
0.00105802
0.000537741
0.000164383
0.000346912
0.00045779
0.000181142
0.000208804
0.000112971
5.15513e-06
4.39768e-05
2.74545e-05
0.000321539
0.000105796
0.000457131
0.000417445
0.000702815
0.000639598
0.000564669
0.000380501
0.000397207
0.000230344
3.4145e-05
7.05599e-05
0.00011764
6.89196e-05
0.000146521
0.00389261
0.00379836
0.0035351
0.00254363
0.00132571
0.000354337
0.0020647
0.00345143
0.00477172
0.00542508
0.00564787
0.00504353
0.00408803
0.0026477
0.00120778
9.73047e-05
0.00127744
0.00205163
0.00209001
0.00231498
0.00338771
0.00317636
0.00318451
0.00230706
0.00110632
0.00033983
0.00148595
0.00298517
0.00415642
0.00477837
0.00502821
0.00443
0.00364222
0.00231502
0.00106645
0.00025718
0.00114761
0.00168754
0.00203491
0.00189839
0.00279908
0.00310229
0.00261201
0.00210063
0.00084376
0.000117214
0.00153102
0.00251473
0.00350415
0.00395843
0.0039817
0.00391753
0.00298495
0.00185447
0.000850637
0.00014792
0.000925213
0.00171002
0.00195373
0.00172157
0.00238122
0.0025621
0.00226508
0.00159775
0.000857988
4.10248e-05
0.0012577
0.00211381
0.00291919
0.00325639
0.00349183
0.00300643
0.0023246
0.00154629
0.000456893
0.000118292
0.00116361
0.00152585
0.00138854
0.00128188
0.00193799
0.00207396
0.00195234
0.0013725
0.000726155
3.91174e-06
0.000846381
0.00168867
0.00219899
0.00265465
0.0025093
0.00234594
0.00182946
0.00121916
0.000437266
0.000178412
0.000708008
0.000969701
0.00131088
0.00111822
0.00146475
0.00141013
0.00122098
0.000970674
0.000513095
4.5958e-05
0.00058914
0.00124229
0.00148976
0.00193297
0.00178233
0.00174857
0.00120804
0.000900159
0.000144696
2.96891e-05
0.000655765
0.000981301
0.000986686
0.000922604
0.00103296
0.000809519
0.00101637
0.000537543
0.000314263
4.06126e-05
0.00052699
0.000685701
0.000986842
0.00118221
0.00114215
0.00125812
0.000913831
0.000357628
0.000254303
9.50825e-05
0.000371773
0.000694664
0.000420924
0.000712318
0.000241566
3.94599e-05
0.000177406
0.000312474
0.000143921
2.66626e-05
0.000124703
0.000365306
0.000496547
0.000531769
0.000249706
0.000380136
0.000223634
0.000348882
0.00015287
1.27354e-05
8.22137e-05
8.61301e-05
0.000135967
0.000135728
0.00474393
0.00515046
0.00475977
0.00419865
0.00309289
0.00191385
0.000407687
0.00089389
0.00214655
0.00285246
0.00298568
0.00250338
0.00172436
0.000526644
0.000826449
0.00219996
0.00281895
0.00327185
0.00340027
0.00313452
0.00396177
0.00435506
0.00423556
0.00371598
0.00289483
0.00136368
0.000424557
0.00100408
0.00172379
0.00226979
0.00239419
0.00202069
0.00124679
0.000224142
0.000798261
0.00186724
0.00262738
0.00300984
0.00302512
0.00273197
0.00370608
0.00372593
0.00380636
0.0033989
0.00233534
0.00138777
0.000128665
0.000792211
0.00135836
0.00207329
0.00198521
0.00166241
0.00100026
5.8977e-05
0.000679515
0.00130824
0.00223336
0.0025937
0.0027724
0.00234649
0.00296384
0.0032177
0.00279178
0.00264054
0.00205814
0.00129789
0.000378732
0.000426836
0.00123203
0.00152601
0.0017807
0.00123374
0.000849861
1.86224e-05
0.000702296
0.00138471
0.00188455
0.00225823
0.00225126
0.00228549
0.00244868
0.00246805
0.00246104
0.00217172
0.00173759
0.00105094
0.000291454
0.000428204
0.000917454
0.00125869
0.00125297
0.00110881
0.0007728
4.33457e-05
0.000825399
0.00112056
0.00150597
0.00182318
0.00181395
0.0017063
0.00172036
0.00165925
0.00186965
0.00172562
0.00132862
0.000784904
0.000191711
0.000247618
0.00088976
0.000999739
0.00088533
0.000765117
0.000400974
0.000205153
0.000517297
0.000724503
0.00125455
0.00114775
0.00116275
0.00130702
0.00105794
0.00125845
0.00107956
0.000967934
0.000825616
0.00032427
4.94812e-06
0.000353298
0.000315426
0.000531091
0.000605188
0.000565038
0.000250142
0.000138306
0.000267811
0.000595645
0.000797514
0.000911702
0.000915487
0.000667081
0.000575907
0.000379627
0.00028867
0.000454778
0.000412479
0.000134105
8.54618e-05
0.000383928
8.42454e-05
2.90794e-05
0.000132409
0.000148885
0.000143253
0.000137921
4.4538e-05
2.68519e-05
0.000340737
0.000263898
0.00019979
0.000515977
0.0053731
0.00551037
0.00569319
0.00527772
0.00458884
0.00343742
0.00234831
0.000985727
0.000298723
0.000498635
0.000264034
6.96415e-05
0.000414549
0.00136371
0.0024178
0.00333955
0.0038156
0.00425952
0.00397766
0.00352469
0.00456974
0.00501174
0.0052101
0.00470809
0.00386872
0.00305047
0.00209023
0.000955167
0.000175507
0.000383189
0.00037194
0.000140622
0.000385196
0.00139004
0.00215453
0.00270643
0.00344682
0.0036088
0.0036556
0.00325424
0.00385634
0.00436568
0.00426175
0.00390156
0.00346545
0.00259196
0.00188445
0.000766053
0.000297424
0.000123546
0.000409602
3.65739e-06
0.000426784
0.0011357
0.00206687
0.00251474
0.00299266
0.00340323
0.00313501
0.00289689
0.00341339
0.00355592
0.0036568
0.00346868
0.0030285
0.00230229
0.00152031
0.000667021
0.000270273
0.000201195
6.06082e-05
0.00029905
0.000289314
0.000853796
0.00177087
0.00232056
0.0027227
0.00262691
0.00262204
0.0024021
0.00267118
0.00286969
0.00270935
0.00289165
0.00231388
0.00183632
0.0011592
0.000824449
0.000374647
0.000474783
1.27451e-05
1.27825e-05
0.000479
0.000883157
0.00132363
0.00194566
0.00209734
0.00223883
0.00215502
0.00179746
0.00200173
0.00205206
0.00208718
0.00198295
0.00157295
0.00145674
0.000895351
0.000421365
0.000263388
0.000178835
7.84619e-05
8.0635e-05
0.000261981
0.000951345
0.000978949
0.00120698
0.00168757
0.00184885
0.00158195
0.00135014
0.00134348
0.00147944
0.00119688
0.00131431
0.00121257
0.000822488
0.000649937
0.000349934
0.000370936
4.85398e-05
2.45151e-05
9.52263e-06
0.000372328
0.000420797
0.000598161
0.000746312
0.00092548
0.0011382
0.00118582
0.000961869
0.000678322
0.00032224
0.000125047
0.000502235
0.000355619
0.000305266
0.000105915
7.5858e-05
7.98043e-05
9.43825e-05
0.000101469
0.000140717
3.79311e-06
0.000403129
0.000183024
0.000157741
0.000353387
0.000331114
0.000414388
0.000265768
0.00511095
0.00562587
0.00598175
0.00570797
0.00536808
0.00449289
0.00371298
0.00258637
0.00180625
0.00160951
0.00119956
0.00151604
0.0019337
0.00258982
0.00367444
0.00405785
0.0045078
0.00451009
0.00403264
0.00331037
0.00458306
0.00507119
0.00525152
0.00519604
0.00490474
0.00405668
0.00313493
0.00240155
0.00183379
0.00128832
0.00127011
0.00119424
0.00171889
0.00241237
0.0031872
0.00354412
0.00387402
0.00406258
0.00352556
0.0031729
0.00405924
0.00434533
0.00455389
0.00448027
0.00418496
0.0034776
0.00294468
0.0020132
0.00137822
0.00124063
0.00116138
0.00132215
0.00164353
0.00218098
0.00274261
0.00314992
0.0032102
0.00348545
0.00302567
0.00273417
0.0032935
0.00362342
0.00371293
0.00385484
0.00359116
0.00314057
0.00240262
0.00157752
0.00122817
0.000791309
0.000853614
0.00125788
0.00143682
0.00196705
0.00228533
0.00260896
0.00275785
0.0029636
0.00263635
0.00223055
0.00249278
0.00285919
0.00305492
0.00285888
0.00276095
0.00235087
0.00189559
0.00141576
0.000823755
0.00101952
0.00086773
0.000947841
0.00118009
0.00150677
0.00210182
0.00212285
0.00243362
0.00233055
0.0022475
0.00184471
0.00199343
0.0021486
0.0022995
0.00229928
0.00199117
0.00198324
0.00154492
0.000969853
0.00078851
0.000507867
0.000486677
0.000591864
0.000719603
0.00105503
0.00139369
0.00167281
0.00165236
0.00154972
0.00144861
0.00158335
0.00108833
0.00120824
0.0012222
0.00147443
0.00118498
0.00104789
0.000598606
0.000720158
0.000663347
0.000211638
0.000483578
0.000352471
0.000307911
0.000446453
0.0010311
0.00118553
0.000965543
0.00104688
0.000954157
0.000888394
0.000413558
0.000496825
0.000324936
0.000567032
0.000241595
0.000588745
0.000398718
0.000323862
0.000172753
4.33513e-05
5.53464e-05
0.000176369
0.000161142
0.000231248
0.000441871
0.000249387
0.000490508
0.000460562
0.000406635
0.000426928
0.00465952
0.00532292
0.00580577
0.00586313
0.00581899
0.00498901
0.00423983
0.00377387
0.00298437
0.00263911
0.00249208
0.00278637
0.00284627
0.00361269
0.00405821
0.00442687
0.00435874
0.00431782
0.00357343
0.00272888
0.00390697
0.00493471
0.00522168
0.00530266
0.00488541
0.00455722
0.00380195
0.00322943
0.00271341
0.00246197
0.00258966
0.002295
0.00273537
0.00328293
0.00364937
0.00378473
0.00408422
0.00365636
0.0031825
0.00220869
0.00349107
0.00391964
0.00442953
0.00452116
0.00433088
0.00403222
0.00340887
0.00302202
0.00265963
0.00209271
0.00212144
0.00227786
0.0026257
0.00281843
0.0033033
0.00361709
0.00352623
0.00325252
0.00286674
0.00205463
0.00293155
0.00348142
0.00378906
0.00381455
0.00367028
0.00336707
0.00283426
0.00245615
0.00195574
0.00153789
0.00156062
0.00186282
0.00196317
0.0023657
0.00265796
0.00268383
0.003033
0.00272044
0.00222567
0.00172536
0.00228534
0.00264414
0.00290972
0.00280183
0.00281924
0.002664
0.00233245
0.00192754
0.00173619
0.00150509
0.00129047
0.00140379
0.00152765
0.00196328
0.00225604
0.0023703
0.00215197
0.00209138
0.00175302
0.00177236
0.00178137
0.00196286
0.00211647
0.00200778
0.00209996
0.00189088
0.00160655
0.00152745
0.00110125
0.00114503
0.00120261
0.00116249
0.00125849
0.0013837
0.00170162
0.0017655
0.00175641
0.00164185
0.00120449
0.00126977
0.00115213
0.00122529
0.00152278
0.00157621
0.00144419
0.0012067
0.00102485
0.000716664
0.000704277
0.000712154
0.00072767
0.000490476
0.000725522
0.000673707
0.000955832
0.00103929
0.000991143
0.00112528
0.000885408
0.000781825
0.000345291
0.000378446
0.000407575
0.000471595
0.00049887
0.000313452
0.000464304
0.000116726
0.000417661
0.000172401
3.67407e-05
0.000237652
0.00027656
0.000306345
0.00051735
0.000415099
0.000359694
0.00027331
0.000177417
0.000206632
0.00322064
0.00419237
0.00505042
0.00548129
0.00545351
0.00497861
0.00453348
0.00409886
0.00364098
0.0032138
0.0033381
0.00326479
0.00351035
0.00371034
0.00382201
0.00393716
0.00381403
0.00336037
0.00256484
0.0015312
0.00289673
0.00391082
0.00452754
0.00474989
0.00490763
0.00461897
0.00425806
0.00377538
0.00327398
0.00301468
0.00286446
0.0031146
0.00328076
0.00330997
0.00348955
0.00365945
0.00342175
0.00289833
0.00219874
0.00120367
0.00274631
0.00325689
0.00403917
0.00406666
0.00418353
0.00427431
0.00351163
0.00312582
0.00270928
0.00261394
0.00258581
0.00284192
0.00275905
0.00316764
0.00302037
0.0031136
0.00304718
0.00276877
0.00202441
0.00144375
0.00205363
0.00265141
0.0032898
0.003561
0.00350849
0.00352871
0.00313185
0.0026434
0.00243083
0.0020212
0.0019514
0.00233805
0.00223145
0.00239072
0.00285513
0.00278943
0.00241498
0.00225732
0.00160917
0.00110243
0.00168419
0.00217733
0.00263864
0.00272004
0.00266151
0.00256384
0.0024945
0.00207162
0.00179407
0.00166342
0.00150495
0.00187432
0.00198854
0.00190252
0.00228397
0.00221166
0.00210041
0.00180638
0.00147761
0.000812086
0.00131193
0.00165017
0.00167445
0.00206117
0.00196274
0.00207853
0.00175999
0.00162747
0.00125362
0.0014181
0.00115741
0.00143638
0.00143179
0.00165055
0.00173179
0.00155195
0.00166313
0.00136534
0.00120388
0.000474643
0.000758363
0.000956166
0.000929451
0.00121299
0.00133107
0.00120256
0.000946309
0.000906528
0.000697298
0.000833798
0.000814418
0.00077317
0.000892971
0.000747305
0.000823829
0.00104446
0.000643385
0.00083568
0.000724994
0.000275688
0.000353089
0.000187011
0.000421609
0.000468874
0.000249135
0.000395034
0.000128314
0.000399232
0.000313265
0.000316253
7.51479e-05
0.00039189
0.000218998
0.000263527
0.000290252
0.000379815
0.000223386
0.000233995
0.000183031
0.000152859
0.00150233
0.00262242
0.00364097
0.00418533
0.00473984
0.00441249
0.00428949
0.00394065
0.0035592
0.00345709
0.00314165
0.00306907
0.00311523
0.0034305
0.00317521
0.00316531
0.00270682
0.00187606
0.000835861
0.000447486
0.00126104
0.00232693
0.00331962
0.0037418
0.0042497
0.0039071
0.00405726
0.00335294
0.0032123
0.00298904
0.00292898
0.00276104
0.00296612
0.00309974
0.00293718
0.00279803
0.0024166
0.00184529
0.00065227
0.000152327
0.00122484
0.00203367
0.00283889
0.00342408
0.0034317
0.00342706
0.00336164
0.00297734
0.00292107
0.0025461
0.00249291
0.00238323
0.00205487
0.00262799
0.00271078
0.00234665
0.00223864
0.00152268
0.000455609
5.8939e-05
0.00105108
0.00155029
0.00216701
0.00271789
0.00294674
0.00278912
0.00293556
0.00263537
0.00216961
0.00229259
0.00227925
0.00211474
0.00213962
0.00204699
0.00220673
0.00222299
0.00164157
0.00134332
0.000614539
1.33497e-05
0.000867137
0.00143666
0.00202014
0.00228582
0.00217952
0.00227004
0.00247217
0.00198885
0.00186844
0.00165834
0.00166724
0.00160196
0.00179091
0.00166686
0.00178052
0.00182343
0.00159163
0.00114613
0.000465988
0.000134553
0.000644785
0.000971364
0.00121035
0.00120555
0.00180364
0.00155611
0.00150915
0.00158071
0.00136678
0.0012829
0.00101422
0.00137231
0.00117902
0.00126834
0.00149238
0.00130223
0.00106769
0.000746873
0.000543366
4.11035e-05
0.000353218
0.000390618
0.00074117
0.000902968
0.0011026
0.00116437
0.000990933
0.000918059
0.000645297
0.000839246
0.000841496
0.000612928
0.000869287
0.000998065
0.00103606
0.000632963
0.000706875
0.000597348
0.000307106
2.51792e-07
0.000216754
2.53696e-05
0.00040053
0.000390451
0.000328363
0.00048074
0.000188684
0.000402488
0.000276319
0.000392611
0.000382057
0.000194367
0.000291643
0.000319369
0.000345873
0.00016569
0.000121871
0.000217241
1.56878e-05
2.70906e-05
0.000699748
0.000467238
0.00164602
0.00249982
0.00306776
0.00320042
0.00315246
0.00296396
0.00284709
0.00262871
0.00250771
0.0023814
0.002218
0.00207501
0.00196802
0.00169492
0.000770295
8.3693e-05
0.0013736
0.00281573
0.000585616
0.000472868
0.00145342
0.0020846
0.00272085
0.00292776
0.00283906
0.00257894
0.00249306
0.00219269
0.00221102
0.00204449
0.00218714
0.00207698
0.00178705
0.00118271
0.0010011
3.69712e-05
0.00131031
0.00230515
0.000625397
0.000521892
0.00124516
0.00196217
0.00231707
0.00223607
0.00257244
0.00228344
0.00214635
0.00199632
0.00197273
0.001939
0.0018381
0.00179428
0.00164199
0.00149143
0.000678242
4.84768e-05
0.00105621
0.00187559
0.000330169
0.000302176
0.00083341
0.00150964
0.00176847
0.00204082
0.00206774
0.00194221
0.00190051
0.0016444
0.00141548
0.00157779
0.00145183
0.00134793
0.00151944
0.00123734
0.000860727
0.000114947
0.00071429
0.0015814
0.000321705
0.000293089
0.00089498
0.00124656
0.00149476
0.00182931
0.00165157
0.00155231
0.00146034
0.00127754
0.00137186
0.00129677
0.00135381
0.00125302
0.00111484
0.00092844
0.000456432
4.91888e-05
0.000659963
0.00129602
0.000244848
0.000193357
0.000749554
0.00076954
0.00109579
0.00111632
0.0011225
0.00111748
0.000979114
0.00113034
0.0010396
0.000954596
0.00104182
0.000917541
0.00101443
0.000680354
0.000473129
0.000267866
0.000378764
0.000839108
0.000155566
0.000215106
0.000428377
0.000582907
0.000493318
0.000632818
0.000799338
0.000505267
0.000685147
0.000618318
0.000554597
0.000658176
0.000448609
0.00052887
0.000551643
0.000361126
0.000438391
0.000241047
0.000309661
0.000527183
0.000238293
8.96652e-05
4.40198e-05
0.000178589
0.000521357
0.000286803
0.000223541
0.000293926
0.000424697
0.000334156
0.000188438
0.000131779
2.36163e-06
0.000169849
0.000259028
0.00023695
0.000214975
0.000146103
8.24387e-05
0.000110347
0.00381989
0.00235533
0.00091502
0.000190246
0.000896598
0.00111145
0.0013216
0.00133401
0.00140176
0.00111962
0.000935436
0.000824563
0.00053399
0.000429276
8.89152e-05
0.000541855
0.00156768
0.00263684
0.00446629
0.00606103
0.00343084
0.00194065
0.000821434
0.000254945
0.000620613
0.00113076
0.00111617
0.00135753
0.00129785
0.00103898
0.000931597
0.00087884
0.000590491
0.00054702
4.78098e-05
0.000467563
0.00138257
0.00227022
0.00364512
0.00512544
0.00290438
0.00174113
0.000726564
1.0333e-06
0.000530221
0.0010809
0.00106077
0.00110538
0.00115968
0.000707969
0.00113533
0.000728603
0.0004548
0.000407848
0.000166277
0.000587143
0.00106876
0.00203687
0.00309294
0.00433276
0.00237695
0.00153522
0.000522518
8.56444e-05
0.000540398
0.000705081
0.000885489
0.000869023
0.000805577
0.000774723
0.000591873
0.000635437
0.000488933
0.000437047
0.000215731
0.00036059
0.000812497
0.00174403
0.002653
0.00366965
0.00193381
0.00115804
0.000509568
7.40746e-05
0.000445516
0.000572352
0.000742063
0.000694262
0.000683365
0.000618001
0.000385736
0.000572189
0.000408983
9.43817e-05
0.000271852
0.000203348
0.000655699
0.00116893
0.00198048
0.00265801
0.00141067
0.000856446
0.000519904
1.35516e-05
0.000111565
0.000690042
0.000692754
0.000567797
0.000568254
0.00028971
0.000308042
0.000262481
0.000184468
0.000181189
0.000133796
0.000246782
0.00066183
0.00100098
0.00137315
0.00202845
0.000839537
0.000640237
3.17538e-05
9.75351e-05
0.000381159
0.000341673
0.000295869
0.000166578
0.000235519
5.24067e-05
0.000299176
8.63575e-05
0.000111806
0.00044878
0.000102599
0.000101475
0.000416684
0.0007912
0.000921722
0.00104371
0.00035961
0.000219002
0.000262753
0.000119019
2.94857e-06
9.97224e-05
7.44939e-06
4.50324e-05
1.86246e-05
3.76836e-05
8.95969e-05
0.000116296
5.89068e-05
1.64601e-05
0.000265236
3.36123e-05
0.000101651
0.000165594
0.000174029
0.000586813
0.00747593
0.00588473
0.004246
0.00271786
0.0019575
0.00150035
0.00108986
0.000949665
0.000955673
0.00103692
0.0013304
0.00129198
0.00175063
0.00208276
0.00269565
0.00352214
0.00464967
0.00610302
0.0077637
0.00950152
0.00648709
0.00515699
0.00380014
0.00264167
0.00184595
0.00100861
0.00109504
0.000704321
0.0007431
0.00101651
0.000988942
0.00114141
0.00145264
0.00199992
0.00229956
0.00297844
0.00414265
0.00523816
0.00683906
0.00820103
0.00553269
0.00427792
0.0033715
0.002255
0.00153485
0.00128381
0.000989679
0.000707736
0.00072413
0.000720026
0.000894868
0.000795697
0.00119561
0.00143914
0.00208806
0.00265089
0.00333831
0.00455619
0.00578847
0.00700894
0.00454301
0.00382301
0.00279525
0.00197636
0.00155473
0.00101586
0.000418847
0.000646362
0.00064846
0.000700183
0.000754733
0.000825448
0.00105675
0.00120437
0.00160493
0.00212693
0.0029318
0.00376798
0.00490836
0.00597545
0.00356429
0.00281155
0.00216272
0.00148336
0.00129481
0.000816427
0.000507447
0.000564526
0.000623996
0.000628909
0.000656664
0.000484598
0.00104044
0.000759888
0.0014295
0.00192718
0.0021768
0.00305885
0.00357657
0.00447611
0.00280401
0.0022847
0.00160681
0.00112887
0.000749011
0.000515783
0.000541877
0.000222234
0.000429267
0.00028469
0.000400931
0.000538723
0.00067316
0.000746842
0.000999665
0.00106141
0.00176561
0.00208897
0.00294845
0.00326567
0.00178977
0.00129172
0.0012528
0.000781805
0.000456816
0.000429553
0.000199627
0.000163001
0.000370292
8.50968e-05
0.000344628
0.000206953
0.000377596
0.0003688
0.000497108
0.000748199
0.00077709
0.00111712
0.00172072
0.00198648
0.000544652
0.000493233
0.000160379
0.000216345
0.000106277
9.77077e-05
0.000323444
0.000117708
0.000117356
7.89223e-05
1.65319e-05
3.15228e-05
6.76483e-05
0.000222306
0.000331704
0.000311921
0.000334763
0.000590335
0.000526826
0.000908592
0.0116522
0.00981943
0.00824868
0.00669063
0.00551694
0.00483501
0.00430709
0.00406501
0.00406549
0.00384042
0.00421144
0.00440547
0.00475055
0.00538212
0.006003
0.00692729
0.00822476
0.00988326
0.011808
0.0137613
0.0101561
0.00886175
0.00710148
0.00602763
0.00491753
0.00427782
0.00360269
0.00346199
0.00352378
0.00365887
0.0034788
0.00381166
0.0042523
0.00472217
0.005174
0.00609753
0.00712028
0.00882836
0.0104183
0.0120143
0.00894749
0.00760045
0.00635092
0.0050553
0.00422489
0.00367725
0.00315722
0.00306043
0.00279328
0.00294884
0.00299077
0.00337369
0.00354868
0.00408353
0.00453168
0.00516455
0.00628626
0.00752156
0.00910006
0.0101222
0.00734407
0.00635756
0.00528662
0.00419073
0.00350521
0.00318074
0.0026782
0.0022823
0.00241351
0.00231528
0.00245357
0.00267332
0.00284415
0.00325173
0.00377263
0.00466301
0.00520928
0.00640002
0.00749444
0.00841188
0.00589807
0.00493787
0.00417689
0.00332709
0.00279789
0.00236587
0.00209365
0.00181207
0.00176647
0.00204405
0.00194513
0.00219617
0.00241692
0.00254629
0.00291906
0.00319745
0.00411972
0.00498176
0.00586006
0.00655073
0.00433442
0.00376011
0.00290266
0.00250368
0.00221825
0.00184501
0.00151011
0.00153616
0.00149135
0.00130062
0.00157894
0.00144877
0.00142728
0.00188723
0.00215556
0.00266565
0.00301546
0.0034756
0.00445254
0.0047701
0.00266825
0.0023046
0.00188927
0.00177863
0.00130935
0.00104234
0.000801781
0.000780711
0.00093584
0.000806975
0.000979868
0.00107626
0.00100041
0.00112918
0.00119323
0.00169608
0.00193056
0.00224222
0.0027764
0.00335699
0.000975629
0.000684727
0.000701037
0.000715208
0.000242112
4.54362e-05
0.000370647
0.000172552
0.000438746
0.000274471
0.000401696
0.000361845
0.000190719
0.000250914
0.000597209
0.000833386
0.000552698
0.000738973
0.000933646
0.00117047
0.0163149
0.0143166
0.0123756
0.0108696
0.00961338
0.0088414
0.00814134
0.00759958
0.00756313
0.0073598
0.00775065
0.00805322
0.00840158
0.00900282
0.00997093
0.0110802
0.0126315
0.014345
0.0165222
0.0183478
0.0141862
0.0128685
0.0112404
0.00967173
0.00862627
0.00758112
0.00704958
0.00679021
0.00685784
0.00650779
0.00676827
0.00712814
0.00752089
0.00801528
0.00884722
0.00970637
0.0110881
0.0128484
0.014286
0.0160385
0.0123915
0.0112074
0.00956199
0.00838665
0.00737571
0.00655767
0.00612043