/*--------------------------------*- C++ -*----------------------------------*\
| =========                 |                                                 |
| \\      /  F ield         | OpenFOAM: The Open Source CFD Toolbox           |
|  \\    /   O peration     | Version:  2212                                  |
|   \\  /    A nd           | Website:  www.openfoam.com                      |
|    \\/     M anipulation  |                                                 |
\*---------------------------------------------------------------------------*/
FoamFile
{
    version     2.0;
    format      ascii;
    arch        "LSB;label=32;scalar=64";
    class       volScalarField;
    location    "0";
    object      stateMean;
}
// * * * * * * * * * * * * * * * * * * * * * * * * * * * * * * * * * * * * * //

dimensions      [0 0 0 1 0 0 0];

internalField   nonuniform List<scalar> 
3200
(
340.471
341.289
342.22
343.08
343.755
344.419
344.884
345.223
345.561
345.572
345.568
345.43
345.107
344.647
344.08
343.483
342.649
341.794
340.87
339.937
335.205
335.865
336.69
337.458
337.964
338.571
338.955
339.299
339.415
339.648
339.579
339.427
339.196
338.833
338.34
337.842
337.009
336.244
335.565
334.783
329.837
330.429
331.037
331.728
332.207
332.712
333.007
333.371
333.517
333.574
333.617
333.435
333.266
332.909
332.523
332.051
331.422
330.826
330.146
329.514
324.473
324.896
325.484
326.002
326.451
326.855
327.09
327.267
327.456
327.538
327.532
327.453
327.277
327.059
326.691
326.288
325.781
325.32
324.741
324.275
319.058
319.449
319.828
320.205
320.585
320.897
321.088
321.287
321.416
321.462
321.5
321.435
321.243
321.104
320.794
320.416
320.06
319.65
319.273
318.893
313.709
313.87
314.181
314.403
314.655
314.949
315.145
315.199
315.308
315.359
315.321
315.297
315.224
315.065
314.818
314.664
314.329
314.07
313.78
313.531
308.175
308.347
308.49
308.728
308.881
309.004
309.051
309.148
309.192
309.189
309.196
309.232
309.126
309.072
308.918
308.815
308.592
308.492
308.284
308.096
302.758
302.749
302.823
302.902
303.058
303.029
303.024
302.959
303.063
303.08
303.106
303.1
303.058
303.05
302.908
302.997
302.909
302.87
302.749
302.7
341.171
342.039
342.949
343.815
344.594
345.161
345.723
346.114
346.275
346.399
346.378
346.25
345.919
345.491
344.994
344.281
343.437
342.475
341.509
340.691
335.712
336.469
337.327
337.961
338.669
339.252
339.705
339.999
340.171
340.319
340.246
340.052
339.862
339.458
339.041
338.437
337.724
336.995
336.109
335.432
330.316
330.959
331.639
332.261
332.767
333.169
333.611
333.852
334.043
334.198
334.076
334.014
333.791
333.504
333.088
332.567
331.902
331.271
330.557
330.024
324.86
325.322
325.846
326.385
326.861
327.19
327.507
327.759
327.893
327.948
327.915
327.87
327.65
327.486
327.057
326.731
326.224
325.673
325.054
324.635
319.337
319.741
320.194
320.508
320.873
321.196
321.502
321.6
321.664
321.823
321.843
321.67
321.523
321.365
321.065
320.813
320.48
319.945
319.6
319.161
313.875
314.09
314.342
314.691
315.049
315.143
315.296
315.473
315.485
315.587
315.565
315.54
315.359
315.244
315.106
314.84
314.614
314.315
313.992
313.672
308.358
308.486
308.539
308.835
308.944
309.11
309.216
309.288
309.272
309.313
309.356
309.339
309.295
309.158
309.059
308.909
308.7
308.64
308.37
308.232
302.783
302.863
302.851
302.99
303.03
303.018
303.112
303.102
303.107
303.099
303.115
303.054
303.147
303.03
303.071
302.965
302.902
302.852
302.798
302.764
342.099
343.054
344.014
344.893
345.597
346.307
346.786
347.167
347.372
347.526
347.462
347.237
346.977
346.502
345.925
345.27
344.466
343.571
342.573
341.613
336.577
337.351
338.111
338.857
339.626
340.085
340.608
340.947
341.11
341.191
341.125
340.993
340.73
340.433
339.932
339.285
338.589
337.77
337.019
336.173
330.95
331.59
332.298
332.904
333.521
334.019
334.382
334.636
334.888
334.931
334.923
334.762
334.538
334.184
333.773
333.292
332.696
332.061
331.256
330.702
325.311
325.888
326.462
326.964
327.477
327.788
328.185
328.431
328.525
328.577
328.603
328.425
328.287
327.953
327.657
327.227
326.741
326.183
325.65
325.205
319.809
320.108
320.636
320.981
321.393
321.635
321.917
322.076
322.227
322.228
322.183
322.184
322.032
321.801
321.615
321.233
320.846
320.325
319.96
319.614
314.148
314.433
314.698
315.001
315.278
315.471
315.693
315.727
315.874
315.902
315.941
315.824
315.813
315.591
315.37
315.184
314.878
314.581
314.27
313.99
308.494
308.632
308.865
309.022
309.169
309.281
309.378
309.514
309.553
309.632
309.544
309.592
309.469
309.348
309.257
309.109
308.875
308.771
308.594
308.458
302.862
302.934
302.937
303.013
303.093
303.04
303.162
303.21
303.163
303.214
303.248
303.197
303.18
303.076
303.1
302.973
303.018
302.972
302.915
302.918
343.243
344.039
345.036
345.887
346.742
347.381
347.843
348.288
348.524
348.54
348.57
348.463
348.093
347.683
347.118
346.4
345.514
344.501
343.572
342.667
337.435
338.173
339.11
339.835
340.545
341.101
341.549
341.904
342.021
342.268
342.164
342.002
341.715
341.285
340.81
340.196
339.564
338.725
337.797
337.102
331.763
332.361
332.985
333.764
334.326
334.841
335.112
335.494
335.707
335.699
335.752
335.6
335.367
335.077
334.547
334.02
333.455
332.75
332.081
331.33
326.054
326.383
327.077
327.637
328.108
328.506
328.777
329.073
329.205
329.283
329.2
329.048
328.974
328.682
328.275
327.892
327.4
326.86
326.274
325.717
320.201
320.563
321.018
321.47
321.866
322.202
322.482
322.632
322.638
322.829
322.717
322.71
322.506
322.319
322.049
321.727
321.311
320.9
320.343
320.083
314.371
314.707
315.076
315.351
315.637
315.774
316.069
316.183
316.25
316.313
316.314
316.27
316.081
315.914
315.814
315.499
315.254
314.97
314.612
314.348
308.68
308.886
309.009
309.15
309.408
309.502
309.631
309.668
309.735
309.788
309.781
309.748
309.638
309.556
309.478
309.307
309.254
308.968
308.802
308.652
302.884
303.014
303.073
303.142
303.155
303.232
303.185
303.282
303.328
303.283
303.265
303.272
303.227
303.235
303.191
303.152
303.078
303.011
302.923
302.904
344.177
345.097
346.062
347.02
347.834
348.52
348.971
349.443
349.725
349.813
349.722
349.6
349.232
348.793
348.175
347.444
346.501
345.636
344.542
343.624
338.328
339.163
339.984
340.692
341.4
342.074
342.492
342.933
343.107
343.21
343.148
343.025
342.679
342.306
341.771
341.126
340.395
339.497
338.672
337.867
332.483
333.081
333.828
334.493
335.095
335.565
335.954
336.218
336.521
336.57
336.575
336.372
336.148
335.821
335.379
334.873
334.217
333.504
332.804
332.06
326.553
327.115
327.649
328.237
328.701
329.273
329.437
329.744
329.852
330.003
329.92
329.775
329.632
329.332
328.974
328.476
328.028
327.493
326.84
326.32
320.755
321.092
321.514
321.986
322.287
322.654
322.929
323.112
323.256
323.325
323.307
323.216
323.002
322.875
322.549
322.219
321.778
321.373
320.883
320.409
314.719
315.089
315.419
315.78
315.976
316.224
316.356
316.483
316.646
316.635
316.685
316.602
316.389
316.294
316.1
315.877
315.648
315.278
314.924
314.621
308.933
309.012
309.268
309.51
309.606
309.756
309.827
309.905
310.002
310.056
310.009
309.974
309.822
309.793
309.595
309.496
309.344
309.241
309.036
308.776
302.986
303.016
303.06
303.136
303.231
303.228
303.374
303.334
303.394
303.334
303.353
303.35
303.358
303.285
303.256
303.229
303.17
303.026
303.003
302.967
345.175
346.068
347.145
348.061
348.918
349.573
350.105
350.562
350.779
350.907
350.828
350.683
350.338
349.9
349.275
348.49
347.621
346.632
345.479
344.633
339.174
339.884
340.895
341.685
342.384
342.962
343.548
343.848
344.034
344.129
344.042
343.94
343.622
343.262
342.713
342.094
341.29
340.386
339.497
338.671
333.136
333.885
334.571
335.32
335.836
336.421
336.772
337.13
337.294
337.401
337.393
337.154
336.971
336.663
336.174
335.603
334.927
334.27
333.502
332.778
327.148
327.729
328.323
328.857
329.379
329.825
330.099
330.381
330.521
330.623
330.545
330.492
330.311
330.004
329.688
329.136
328.714
328.081
327.345
326.789
321.147
321.592
322.089
322.486
322.873
323.215
323.468
323.634
323.784
323.803
323.85
323.737
323.588
323.347
323.075
322.697
322.272
321.773
321.347
320.884
315.135
315.401
315.723
316.061
316.342
316.607
316.78
316.887
317.034
317.012
317.06
316.952
316.898
316.682
316.546
316.189
315.962
315.647
315.268
314.964
309.136
309.235
309.528
309.63
309.816
309.954
310.029
310.167
310.21
310.221
310.233
310.125
310.096
310.081
309.888
309.69
309.579
309.429
309.115
309.037
303.029
303.024
303.143
303.268
303.302
303.333
303.379
303.369
303.374
303.388
303.473
303.41
303.412
303.311
303.295
303.262
303.148
303.115
303.053
302.997
346.067
347.092
348.072
349.074
349.901
350.66
351.195
351.622
351.818
351.903
351.856
351.692
351.33
350.867
350.279
349.589
348.594
347.556
346.487
345.513
339.885
340.766
341.687
342.545
343.314
343.802
344.399
344.672
344.974
345.075
345.032
344.872
344.588
344.176
343.608
342.962
342.174
341.27
340.314
339.469
333.873
334.5
335.337
336.075
336.605
337.143
337.495
337.831
338.105
338.107
338.136
338.002
337.761
337.432
336.905
336.26
335.685
334.931
334.182
333.421
327.694
328.276
328.796
329.461
329.995
330.443
330.775
331.038
331.151
331.253
331.168
331.15
330.898
330.644
330.247
329.773
329.212
328.621
327.96
327.473
321.588
321.977
322.486
322.948
323.371
323.693
323.941
324.118
324.255
324.299
324.301
324.193
324.006
323.861
323.62
323.172
322.733
322.281
321.767
321.349
315.413
315.664
316.095
316.445
316.722
316.939
317.103
317.257
317.264
317.34
317.377
317.304
317.209
316.977
316.854
316.531
316.296
315.867
315.507
315.283
309.262
309.485
309.648
309.851
310.049
310.127
310.239
310.303
310.442
310.442
310.419
310.365
310.335
310.194
310.109
309.978
309.798
309.596
309.379
309.141
303.169
303.164
303.21
303.34
303.408
303.402
303.458
303.374
303.559
303.546
303.515
303.488
303.448
303.39
303.375
303.291
303.305
303.202
303.11
303.151
346.995
347.883
349.003
349.987
350.887
351.578
352.186
352.528
352.875
352.903
352.986
352.745
352.327
351.84
351.221
350.45
349.478
348.505
347.353
346.358
340.706
341.566
342.544
343.35
344.049
344.715
345.242
345.561
345.802
345.875
345.879
345.692
345.364
345.001
344.407
343.651
342.919
341.999
341.105
340.26
334.442
335.201
335.934
336.637
337.324
337.831
338.316
338.538
338.811
338.894
338.797
338.709
338.423
338.064
337.654
337.004
336.333
335.646
334.79
334.122
328.265
328.785
329.443
330.056
330.591
331.006
331.34
331.548
331.769
331.796
331.843
331.778
331.423
331.119
330.831
330.358
329.811
329.105
328.479
327.934
321.988
322.415
322.847
323.431
323.772
324.127
324.368
324.64
324.768
324.636
324.786
324.642
324.528
324.278
323.961
323.653
323.174
322.696
322.185
321.707
315.736
316.008
316.365
316.706
316.954
317.28
317.43
317.552
317.698
317.659
317.691
317.64
317.501
317.448
317.128
316.838
316.612
316.29
315.86
315.53
309.49
309.685
309.805
310.066
310.261
310.358
310.502
310.572
310.695
310.657
310.65
310.577
310.579
310.431
310.288
310.116
309.946
309.787
309.595
309.372
303.248
303.192
303.201
303.39
303.422
303.48
303.485
303.53
303.523
303.538
303.598
303.504
303.508
303.575
303.443
303.362
303.345
303.263
303.22
303.123
347.735
348.707
349.825
350.787
351.73
352.439
353.08
353.44
353.706
353.919
353.774
353.603
353.21
352.685
352.152
351.272
350.368
349.313
348.154
347.112
341.427
342.265
343.183
344.08
344.898
345.487
345.961
346.362
346.633
346.69
346.684
346.412
346.126
345.712
345.188
344.431
343.627
342.777
341.739
340.947
335.115
335.767
336.559
337.306
337.985
338.489
338.978
339.217
339.397
339.557
339.53
339.378
339.091
338.72
338.241
337.636
336.88
336.201
335.326
334.673
328.719
329.275
329.892
330.57
331.119
331.578
331.88
332.059
332.267
332.29
332.31
332.276
332.012
331.736
331.295
330.795
330.209
329.646
328.951
328.371
322.313
322.775
323.294
323.721
324.183
324.522
324.8
324.995
325.055
325.249
325.2
325.095
324.919
324.673
324.441
323.976
323.584
323.06
322.578
322.105
316.007
316.298
316.671
317.02
317.275
317.61
317.774
317.843
317.965
317.969
317.963
317.902
317.763
317.619
317.423
317.175
316.816
316.434
316.077
315.877
309.576
309.757
309.956
310.245
310.366
310.526
310.569
310.757
310.847
310.763
310.847
310.75
310.629
310.522
310.521
310.367
310.087
309.902
309.678
309.514
303.222
303.297
303.31
303.453
303.425
303.598
303.601
303.629
303.619
303.599
303.603
303.621
303.58
303.55
303.553
303.428
303.43
303.351
303.269
303.226
348.531
349.508
350.605
351.61
352.578
353.223
353.799
354.325
354.54
354.676
354.624
354.47
353.998
353.578
352.896
352.09
351.084
350.086
348.899
347.862
342.02
343.001
343.901
344.781
345.489
346.186
346.653
347.053
347.302
347.437
347.482
347.157
346.882
346.474
345.874
345.11
344.363
343.366
342.403
341.441
335.62
336.286
337.132
337.883
338.538
339.123
339.526
339.901
340.138
340.134
340.144
340.009
339.767
339.327
338.877
338.297
337.548
336.737
335.933
335.139
329.167
329.768
330.42
331.017
331.557
332.017
332.343
332.631
332.76
332.774
332.782
332.729
332.467
332.188
331.783
331.232
330.759
330.068
329.355
328.771
322.687
323.125
323.637
324.059
324.522
324.907
325.19
325.38
325.546
325.591
325.522
325.438
325.25
325.07
324.775
324.377
323.849
323.373
322.838
322.522
316.253
316.539
316.891
317.184
317.538
317.784
317.972
318.175
318.204
318.303
318.321
318.224
318.09
317.901
317.724
317.432
317.104
316.741
316.3
316.092
309.784
309.942
310.217
310.429
310.584
310.696
310.807
310.85
310.944
310.997
311.002
310.877
310.852
310.698
310.619
310.458
310.247
310.094
309.837
309.669
303.265
303.321
303.391
303.475
303.549
303.555
303.657
303.597
303.722
303.664
303.623
303.667
303.646
303.609
303.617
303.524
303.441
303.35
303.26
303.223
349.111
350.146
351.309
352.372
353.268
353.959
354.568
355.042
355.327
355.409
355.453
355.194
354.834
354.278
353.552
352.735
351.788
350.719
349.578
348.523
342.608
343.544
344.501
345.367
346.205
346.849
347.387
347.763
347.977
348.088
348.036
347.921
347.592
347.059
346.459
345.775
344.91
343.942
342.958
342.029
336.158
336.817
337.709
338.385
339.087
339.746
340.048
340.377
340.562
340.7
340.691
340.607
340.252
339.931
339.322
338.725
338.041
337.281
336.404
335.721
329.522
330.112
330.834
331.468
331.993
332.513
332.84
333.053
333.25
333.253
333.23
333.219
332.916
332.594
332.29
331.755
331.09
330.493
329.769
329.21
322.993
323.453
323.999
324.448
324.851
325.219
325.552
325.706
325.825
325.89
325.839
325.851
325.679
325.36
325.128
324.706
324.248
323.73
323.227
322.712
316.462
316.782
317.072
317.497
317.766
318.089
318.241
318.407
318.437
318.567
318.484
318.495
318.345
318.206
317.979
317.636
317.371
316.974
316.641
316.197
309.876
310.064
310.225
310.494
310.711
310.842
310.916
311.029
311.053
311.141
311.135
311.076
311.024
310.854
310.725
310.622
310.318
310.196
309.993
309.726
303.339
303.331
303.459
303.534
303.528
303.629
303.6
303.723
303.727
303.744
303.671
303.751
303.668
303.641
303.597
303.567
303.46
303.402
303.33
303.278
349.721
350.759
351.917
352.947
353.972
354.639
355.291
355.734
356.002
356.174
356.062
355.828
355.442
354.987
354.202
353.417
352.427
351.298
350.134
349.04
343.094
344.007
345.039
345.911
346.805
347.364
348.017
348.265
348.564
348.668
348.647
348.407
348.131
347.685
347.028
346.303
345.454
344.532
343.432
342.61
336.53
337.255
338.109
338.921
339.531
340.103
340.589
340.874
341.15
341.175
341.157
340.967
340.56
340.34
339.86
339.164
338.52
337.665
336.724
336.098
329.913
330.442
331.121
331.804
332.378
332.794
333.258
333.499
333.584
333.75
333.746
333.566
333.334
332.963
332.6
332.138
331.448
330.849
330.134
329.563
323.289
323.753
324.31
324.786
325.138
325.531
325.921
326.028
326.176
326.205
326.208
326.09
325.964
325.659
325.372
325.023
324.561
324.027
323.44
323.052
316.65
316.953
317.29
317.566
318.033
318.214
318.43
318.641
318.707
318.749
318.664
318.709
318.513
318.353
318.194
317.873
317.523
317.143
316.817
316.459
309.989
310.12
310.386
310.603
310.83
311.006
311.091
311.181
311.177
311.279
311.28
311.167
311.166
311.093
310.966
310.685
310.542
310.341
310.094
309.88
303.378
303.344
303.526
303.578
303.616
303.714
303.672
303.774
303.763
303.812
303.809
303.738
303.741
303.712
303.673
303.566
303.497
303.47
303.347
303.304
350.292
351.301
352.453
353.524
354.48
355.237
355.847
356.291
356.61
356.72
356.677
356.445
356.026
355.465
354.801
353.995
352.914
351.903
350.655
349.55
343.621
344.492
345.466
346.351
347.226
347.913
348.425
348.777
349.06
349.118
349.124
348.904
348.641
348.161
347.517
346.694
345.976
344.952
343.878
343.029
336.887
337.694
338.475
339.281
339.957
340.449
341.023
341.299
341.516
341.603
341.595
341.446
341.147
340.758
340.247
339.677
338.847
338.07
337.162
336.466
330.258
330.806
331.419
332.104
332.643
333.159
333.544
333.808
334.011
334.037
333.961
333.903
333.645
333.305
332.985
332.467
331.888
331.181
330.47
329.845
323.527
323.986
324.52
324.993
325.426
325.865
326.1
326.306
326.444
326.472
326.502
326.391
326.241
325.97
325.633
325.242
324.736
324.246
323.677
323.212
316.812
317.135
317.554
317.816
318.172
318.415
318.625
318.794
318.87
318.98
318.951
318.862
318.77
318.56
318.383
318.04
317.722
317.401
316.954
316.624
310.099
310.324
310.535
310.736
310.859
311.045
311.223
311.233
311.361
311.377
311.358
311.353
311.216
311.138
311.019
310.818
310.691
310.477
310.161
309.983
303.33
303.411
303.474
303.592
303.747
303.724
303.747
303.802
303.866
303.85
303.806
303.777
303.714
303.731
303.716
303.661
303.603
303.443
303.413
303.369
350.671
351.74
352.925
354.019
354.957
355.675
356.314
356.776
357.123
357.189
357.124
356.917
356.491
355.997
355.312
354.447
353.397
352.317
350.995
349.882
343.916
344.898
345.871
346.852
347.576
348.308
348.793
349.274
349.532
349.587
349.549
349.386
349.006
348.595
347.898
347.198
346.285
345.369
344.309
343.331
337.196
337.978
338.814
339.575
340.26
340.918
341.326
341.676
341.931
341.9
342.046
341.784
341.454
341.103
340.607
339.88
339.212
338.369
337.52
336.713
330.463
331.054
331.792
332.358
332.979
333.419
333.817
334.087
334.259
334.349
334.288
334.202
333.96
333.668
333.256
332.679
332.116
331.386
330.683
330.034
323.69
324.181
324.703
325.221
325.663
326.003
326.323
326.521
326.668
326.724
326.648
326.632
326.427
326.112
325.906
325.452
324.984
324.489
323.914
323.455
316.932
317.278
317.608
318.003
318.272
318.67
318.859
318.972
319.079
319.046
319.052
318.982
318.85
318.696
318.493
318.157
317.797
317.455
317.114
316.736
310.18
310.343
310.666
310.846
311.073
311.189
311.288
311.339
311.425
311.401
311.478
311.379
311.322
311.336
311.051
310.922
310.686
310.43
310.256
310.117
303.391
303.468
303.499
303.662
303.671
303.745
303.751
303.798
303.799
303.828
303.844
303.84
303.802
303.748
303.796
303.682
303.657
303.529
303.481
303.322
350.988
352.059
353.26
354.442
355.335
356.076
356.73
357.188
357.474
357.594
357.489
357.354
356.902
356.375
355.65
354.778
353.755
352.601
351.394
350.272
344.25
345.141
346.147
347.105
347.922
348.715
349.124
349.616
349.852
349.885
349.895
349.712
349.354
348.808
348.264
347.527
346.582
345.647
344.557
343.656
337.48
338.264
339.022
339.872
340.574
341.085
341.558
341.954
342.159
342.27
342.21
342.135
341.787
341.404
340.81
340.194
339.503
338.619
337.751
336.979
330.705
331.231
331.941
332.597
333.112
333.64
334.144
334.314
334.486
334.558
334.539
334.427
334.176
333.881
333.443
332.921
332.279
331.617
330.87
330.229
323.907
324.372
324.869
325.39
325.743
326.169
326.507
326.679
326.795
326.862
326.853
326.841
326.524
326.425
325.969
325.536
325.164
324.577
324.124
323.611
317.024
317.344
317.765
318.129
318.459
318.728
318.888
319.127
319.157
319.253
319.216
319.122
318.983
318.823
318.573
318.36
317.927
317.611
317.133
316.877
310.206
310.453
310.588
310.863
311.09
311.214
311.388
311.481
311.474
311.592
311.512
311.525
311.414
311.335
311.193
310.999
310.864
310.631
310.32
310.145
303.443
303.489
303.631
303.657
303.733
303.774
303.74
303.83
303.921
303.919
303.89
303.895
303.845
303.77
303.703
303.67
303.621
303.501
303.479
303.332
351.239
352.356
353.481
354.617
355.599
356.364
357.007
357.458
357.714
357.927
357.794
357.592
357.212
356.621
355.945
355.095
354.07
352.898
351.648
350.49
344.474
345.319
346.42
347.3
348.176
348.851
349.481
349.848
350.048
350.114
350.178
349.947
349.57
349.089
348.537
347.763
346.918
345.818
344.776
343.827
337.585
338.372
339.21
340.079
340.776
341.346
341.858
342.16
342.439
342.483
342.469
342.239
341.992
341.541
341.053
340.455
339.658
338.81
337.86
337.185
330.807
331.4
332.093
332.808
333.377
333.799
334.24
334.593
334.702
334.815
334.769
334.615
334.404
334.048
333.601
332.99
332.468
331.721
331.02
330.451
323.952
324.467
324.977
325.526
325.963
326.348
326.651
326.914
327.048
327.019
327.052
326.907
326.715
326.503
326.167
325.833
325.267
324.714
324.166
323.739
317.111
317.437
317.898
318.219
318.499
318.793
319.051
319.166
319.266
319.371
319.282
319.28
319.201
318.931
318.694
318.356
318.056
317.715
317.216
316.972
310.278
310.477
310.718
310.869
311.129
311.317
311.484
311.564
311.567
311.633
311.579
311.523
311.495
311.382
311.27
311.009
310.822
310.608
310.33
310.064
303.428
303.544
303.577
303.612
303.793
303.889
303.82
303.906
303.842
303.901
303.862
303.865
303.9
303.857
303.722
303.614
303.661
303.566
303.468
303.369
351.414
352.554
353.764
354.831
355.789
356.535
357.192
357.713
357.953
358.144
358.003
357.776
357.424
356.882
356.128
355.263
354.199
353.059
351.765
350.687
344.654
345.476
346.492
347.499
348.307
349.08
349.62
349.994
350.168
350.393
350.301
350.073
349.737
349.28
348.635
347.928
347.002
345.929
344.98
344.007
337.748
338.453
339.392
340.183
340.904
341.53
341.979
342.279
342.517
342.66
342.57
342.373
342.171
341.696
341.155
340.573
339.796
338.931
338.141
337.261
330.962
331.512
332.223
332.867
333.488
333.966
334.318
334.648
334.804
334.874
334.846
334.708
334.498
334.124
333.701
333.18
332.543
331.859
331.17
330.544
324.105
324.543
325.075
325.597
325.981
326.4
326.734
326.988
327.076
327.132
327.118
326.997
326.83
326.623
326.248
325.853
325.428
324.799
324.254
323.804
317.16
317.554
317.887
318.315
318.609
318.835
319.052
319.29
319.349
319.387
319.357
319.332
319.195
318.958
318.736
318.445
318.111
317.724
317.352
316.984
310.387
310.551
310.763
311.004
311.218
311.317
311.463
311.586
311.619
311.605
311.634
311.568
311.495
311.408
311.302
311.13
310.784
310.669
310.501
310.169
303.474
303.545
303.596
303.689
303.756
303.773
303.872
303.823
303.915
303.868
303.902
303.865
303.866
303.866
303.763
303.715
303.66
303.603
303.463
303.41
351.534
352.626
353.786
354.931
355.819
356.668
357.299
357.778
358.14
358.253
358.19
357.953
357.465
356.942
356.255
355.375
354.298
353.147
351.864
350.746
344.602
345.62
346.681
347.558
348.455
349.085
349.619
350.073
350.32
350.444
350.416
350.174
349.8
349.378
348.683
348.04
347.169
346.074
345.045
344.006
337.846
338.647
339.452
340.256
340.997
341.628
342.06
342.341
342.588
342.779
342.669
342.552
342.211
341.805
341.216
340.603
339.911
339.02
338.126
337.318
330.956
331.569
332.28
332.923
333.555
333.993
334.359
334.673
334.841
334.988
334.903
334.825
334.571
334.192
333.81
333.234
332.671
331.827
331.26
330.529
324.108
324.521
325.075
325.608
326.095
326.519
326.813
327.01
327.117
327.262
327.184
327.103
326.925
326.583
326.24
325.874
325.422
324.79
324.305
323.813
317.192
317.53
317.904
318.359
318.707
318.935
319.108
319.269
319.333
319.419
319.4
319.346
319.301
318.966
318.736
318.529
318.134
317.755
317.324
316.963
310.296
310.527
310.731
310.923
311.173
311.365
311.447
311.615
311.629
311.673
311.695
311.606
311.524
311.432
311.306
311.116
310.943
310.624
310.462
310.218
303.493
303.571
303.636
303.664
303.763
303.763
303.814
303.91
303.864
303.959
303.893
303.838
303.955
303.84
303.794
303.739
303.65
303.637
303.488
303.431
351.582
352.694
353.86
354.868
355.931
356.726
357.419
357.776
358.052
358.265
358.164
357.935
357.545
356.954
356.216
355.364
354.331
353.158
351.808
350.757
344.745
345.611
346.687
347.607
348.421
349.166
349.766
350.146
350.334
350.459
350.469
350.24
349.893
349.383
348.736
348.096
347.111
346.097
344.985
344.057
337.842
338.606
339.513
340.298
341.004
341.574
342.067
342.367
342.61
342.749
342.7
342.509
342.172
341.821
341.314
340.622
339.901
339.074
338.127
337.331
331.01
331.632
332.256
333.014
333.484
334.056
334.405
334.757
334.889
335.007
334.957
334.812
334.608
334.268
333.809
333.233
332.621
331.905
331.184
330.61
324.158
324.562
325.123
325.622
326.119
326.484
326.807
327.038
327.151
327.224
327.153
327.09
326.84
326.678
326.289
325.881
325.429
324.811
324.291
323.814
317.263
317.592
317.949
318.309
318.682
318.939
319.185
319.283
319.42
319.438
319.47
319.362
319.202
319.043
318.796
318.504
318.138
317.764
317.392
317.049
310.415
310.59
310.775
310.998
311.23
311.369
311.497
311.607
311.597
311.682
311.725
311.634
311.5
311.377
311.267
311.247
310.837
310.7
310.476
310.273
303.442
303.511
303.659
303.759
303.721
303.819
303.925
303.933
303.872
303.951
303.96
303.951
303.863
303.785
303.769
303.721
303.661
303.582
303.474
303.432
351.547
352.66
353.805
354.883
355.864
356.671
357.297
357.749
358.078
358.189
358.183
357.928
357.543
356.983
356.25
355.354
354.252
353.102
351.861
350.72
344.696
345.592
346.669
347.589
348.456
349.092
349.697
350.105
350.337
350.388
350.415
350.181
349.89
349.33
348.803
347.946
347.056
346.022
345
344.016
337.882
338.72
339.46
340.348
340.992
341.53
341.988
342.365
342.633
342.704
342.642
342.464
342.239
341.769
341.24
340.628
339.823
339.056
338.1
337.308
331.025
331.599
332.318
332.938
333.559
333.989
334.405
334.732
334.855
334.976
334.907
334.721
334.499
334.141
333.724
333.255
332.588
331.931
331.218
330.627
324.131
324.557
325.145
325.658
326.078
326.457
326.856
327.016
327.134
327.226
327.223
327.083
326.863
326.669
326.252
325.882
325.378
324.804
324.264
323.803
317.217
317.607
317.945
318.325
318.683
318.889
319.186
319.285
319.419
319.429
319.467
319.29
319.149
319.037
318.741
318.498
318.179
317.794
317.355
317.007
310.338
310.609
310.82
311.024
311.191
311.316
311.554
311.608
311.662
311.716
311.644
311.654
311.534
311.485
311.276
311.088
310.954
310.669
310.42
310.231
303.444
303.451
303.644
303.641
303.735
303.803
303.862
303.877
303.932
303.927
303.874
303.903
303.923
303.842
303.797
303.766
303.639
303.575
303.569
303.451
)
;

boundaryField
{
    hotSide
    {
        type            fixedGradient;
        gradient        nonuniform List<scalar> 
400
(
321.511
322.87
325.591
329.677
335.133
341.965
350.181
359.788
370.794
383.208
397.037
412.289
428.971
447.088
466.647
487.651
510.105
534.011
559.372
586.191
323.738
325.08
327.767
331.802
337.194
343.949
352.078
361.591
372.498
384.81
398.537
413.687
430.268
448.289
467.755
488.672
511.043
534.872
560.161
586.913
326.149
327.47
330.116
334.091
339.406
346.071
354.099
363.503
374.296
386.491
400.101
415.136
431.606
449.52
468.885
489.706
511.988
535.735
560.948
587.63
328.704
330
332.597
336.503
341.73
348.292
356.205
365.485
376.15
388.215
401.695
416.604
432.954
450.753
470.009
490.73
512.919
536.579
561.714
588.325
331.33
332.599
335.142
338.97
344.099
350.546
358.332
367.477
378.003
389.928
403.271
418.047
434.27
451.949
471.095
491.712
513.807
537.382
562.439
588.978
333.918
335.158
337.643
341.389
346.414
352.74
360.392
369.397
379.779
391.562
404.765
419.407
435.503
453.065
472.101
492.618
514.622
538.114
563.096
589.569
336.321
337.531
339.959
343.622
348.544
354.751
362.274
371.142
381.385
393.031
406.101
420.618
436.595
454.047
472.983
493.409
515.33
538.747
563.663
590.076
338.36
339.543
341.92
345.509
350.339
356.44
363.847
372.595
382.718
394.244
407.2
421.608
437.485
454.844
473.695
494.045
515.897
539.253
564.114
590.478
339.852
341.015
343.352
346.885
351.645
357.665
364.985
373.643
383.675
395.113
407.984
422.312
438.116
455.407
474.197
494.491
516.294
539.606
564.428
590.758
340.643
341.795
344.11
347.613
352.334
358.311
365.584
374.193
384.176
395.567
408.393
422.679
438.443
455.699
474.456
494.722
516.498
539.788
564.589
590.901
340.643
341.795
344.11
347.613
352.334
358.311
365.584
374.193
384.176
395.567
408.393
422.679
438.443
455.699
474.456
494.722
516.498
539.788
564.589
590.901
339.852
341.015
343.352
346.885
351.645
357.665
364.985
373.643
383.675
395.113
407.984
422.312
438.116
455.407
474.197
494.491
516.294
539.606
564.428
590.758
338.36
339.543
341.92
345.509
350.339
356.44
363.847
372.595
382.718
394.244
407.2
421.608
437.485
454.844
473.695
494.045
515.897
539.253
564.114
590.478
336.321
337.531
339.959
343.622
348.544
354.751
362.274
371.142
381.385
393.031
406.101
420.618
436.595
454.047
472.983
493.409
515.33
538.747
563.663
590.076
333.918
335.158
337.643
341.389
346.414
352.74
360.392
369.397
379.779
391.562
404.765
419.407
435.503
453.065
472.101
492.618
514.622
538.114
563.096
589.569
331.33
332.599
335.142
338.97
344.099
350.546
358.332
367.477
378.003
389.928
403.271
418.047
434.27
451.949
471.095
491.712
513.807
537.382
562.439
588.978
328.704
330
332.597
336.503
341.73
348.292
356.205
365.485
376.15
388.215
401.695
416.604
432.954
450.753
470.009
490.73
512.919
536.579
561.714
588.325
326.149
327.47
330.116
334.091
339.406
346.071
354.099
363.503
374.296
386.491
400.101
415.136
431.606
449.52
468.885
489.706
511.988
535.735
560.948
587.63
323.738
325.08
327.767
331.802
337.194
343.949
352.078
361.591
372.498
384.81
398.537
413.687
430.268
448.289
467.755
488.672
511.043
534.872
560.161
586.913
321.511
322.87
325.591
329.677
335.133
341.965
350.181
359.788
370.794
383.208
397.037
412.289
428.971
447.088
466.647
487.651
510.105
534.011
559.372
586.191
)
;
    }
    coldSide
    {
        type            mixed;
        refValue        uniform 300;
        refGradient     uniform 0;
        valueFraction   uniform 0.991591;
        source          uniform 0;
        value           nonuniform List<scalar> 
400
(
300.023
300.023
300.024
300.024
300.025
300.025
300.027
300.027
300.027
300.027
300.028
300.028
300.028
300.029
300.029
300.029
300.029
300.029
300.029
300.029
300.023
300.024
300.025
300.025
300.025
300.025
300.027
300.027
300.028
300.028
300.028
300.028
300.029
300.029
300.029
300.03
300.03
300.03
300.03
300.029
300.024