/*--------------------------------*- C++ -*----------------------------------*\
| =========                 |                                                 |
| \\      /  F ield         | OpenFOAM: The Open Source CFD Toolbox           |
|  \\    /   O peration     | Version:  2212                                  |
|   \\  /    A nd           | Website:  www.openfoam.com                      |
|    \\/     M anipulation  |                                                 |
\*---------------------------------------------------------------------------*/
FoamFile
{
    version     2.0;
    format      ascii;
    arch        "LSB;label=32;scalar=64";
    class       volScalarField;
    location    "./ITHACAoutput/true/17.9";
    object      error;
}
// * * * * * * * * * * * * * * * * * * * * * * * * * * * * * * * * * * * * * //

dimensions      [0 0 0 1 0 0 0];

internalField   nonuniform List<scalar> 
3200
(
1.95057
1.90245
2.03371
2.07703
2.29199
2.43751
2.71924
2.92163
3.20277
3.51348
3.66566
3.84739
3.9213
4.00767
4.13022
4.16262
4.31334
4.46285
4.59681
4.78147
1.6023
1.66725
1.57038
1.70612
1.84714
2.01665
2.27358
2.4862
2.67487
2.84466
3.02763
3.20783
3.3443
3.35288
3.52549
3.57544
3.71228
3.84628
3.91072
4.06801
1.25278
1.24636
1.3257
1.33948
1.47548
1.58429
1.81304
2.05405
2.1759
2.39689
2.54543
2.6508
2.74335
2.69337
2.81604
2.93919
2.98424
3.19274
3.3032
3.35813
1.04848
0.947136
0.993872
1.03416
1.18289
1.33789
1.46512
1.62955
1.73327
1.8961
2.04967
2.10383
2.10936
2.33281
2.28104
2.33874
2.45708
2.47025
2.66608
2.73687
0.816954
0.786829
0.759115
0.852486
0.850624
0.966188
1.09137
1.17197
1.32074
1.47441
1.58263
1.58458
1.62625
1.68437
1.77211
1.78722
1.80558
1.93774
2.03905
2.11027
0.532723
0.525762
0.44361
0.602784
0.558791
0.641246
0.737799
0.832802
0.942125
0.98786
1.09342
1.12453
1.14266
1.22269
1.14568
1.27478
1.29692
1.37349
1.39125
1.53136
0.324855
0.301784
0.27577
0.360654
0.397387
0.404965
0.412922
0.539529
0.513604
0.575779
0.631704
0.66258
0.744634
0.661014
0.794055
0.772008
0.818713
0.803886
0.870656
0.86985
0.0928645
0.119308
0.0850857
0.11333
0.0779781
0.171741
0.120942
0.15501
0.128129
0.210674
0.12069
0.218811
0.271671
0.200557
0.236451
0.21651
0.27857
0.232714
0.373774
0.260427
1.21221
1.14373
1.18453
1.28228
1.47689
1.68189
1.94
2.18618
2.40122
2.57856
2.84944
2.94782
3.05871
3.18946
3.29845
3.40049
3.4778
3.72266
3.90468
4.04755
1.01848
1.03613
0.995083
1.0053
1.14299
1.35217
1.60651
1.7986
2.02482
2.17502
2.38779
2.53187
2.59646
2.64226
2.76868
2.90375
3.02832
3.1553
3.36004
3.5089
0.875796
0.85273
0.833639
0.841546
0.962833
1.10367
1.24835
1.43723
1.63171
1.754
1.96427
2.08504
2.17083
2.26132
2.31181
2.35682
2.54446
2.66405
2.74495
2.94516
0.710571
0.638157
0.625989
0.659101
0.775843
0.921398
1.02519
1.13334
1.34533
1.43688
1.58167
1.5929
1.75587
1.80706
1.91615
1.89225
1.95902
2.14677
2.24101
2.28355
0.469232
0.518325
0.464507
0.545309
0.578271
0.682369
0.746122
0.894259
0.993075
1.05088
1.21122
1.33892
1.28193
1.3269
1.42379
1.47627
1.60285
1.65958
1.72114
1.81294
0.34199
0.358581
0.292059
0.42698
0.436733
0.412842
0.502384
0.614436
0.703259
0.78033
0.922381
0.887111
0.903191
0.925041
1.00667
1.03916
1.11193
1.19038
1.26284
1.27961
0.230857
0.173276
0.202988
0.185104
0.234386
0.305727
0.352498
0.388978
0.391397
0.46585
0.468815
0.489598
0.534146
0.655123
0.58591
0.662543
0.613044
0.699325
0.714574
0.817509
0.084245
0.112787
0.0678549
0.103041
0.0961811
0.106885
0.112343
0.164199
0.15836
0.142009
0.127248
0.168418
0.195222
0.150856
0.232652
0.185619
0.256191
0.204231
0.196994
0.25565
0.307655
0.292855
0.18477
0.2191
0.38707
0.565198
0.809216
1.05325
1.31475
1.5274
1.69476
1.89458
1.97057
2.11928
2.17219
2.34612
2.51741
2.72473
2.9887
3.24111
0.276946
0.202605
0.153706
0.237792
0.315466
0.439109
0.673238
0.916693
1.10457
1.35482
1.47738
1.57973
1.67229
1.79787
1.8378
1.99181
2.10166
2.3445
2.54508
2.79452
0.223105
0.114583
0.124372
0.172873
0.206866
0.401291
0.548539
0.702155
0.890598
1.13249
1.20675
1.30637
1.34809
1.47048
1.60231
1.67412
1.73393
1.94309
2.12807
2.34677
0.134466
0.129332
0.113949
0.150265
0.190411
0.288558
0.491451
0.518032
0.726603
0.855808
0.9644
1.06078
1.1157
1.1576
1.24651
1.32621
1.43895
1.60174
1.72373
1.86517
0.125351
0.105426
0.0528306
0.115699
0.152238
0.218333
0.281897
0.411119
0.513537
0.603253
0.741134
0.77477
0.833791
0.905008
0.990518
1.07627
1.13019
1.24984
1.29863
1.47074
0.100967
0.0926722
0.0664765
0.00935394
0.10028
0.0664591
0.1944
0.27181
0.33688
0.432768
0.477591
0.627601
0.553325
0.57606
0.735375
0.709323
0.797677
0.816657
0.971406
0.971354
0.0563114
0.0618899
0.0397188
-0.000752207
0.0866322
0.0125245
0.134086
0.168242
0.220165
0.263977
0.268148
0.390914
0.32762
0.361862
0.387025
0.42766
0.529478
0.479306
0.610697
0.646504
0.0134049
-0.0354222
-0.0547515
-0.0132655
-0.0133001
-0.0276409
0.0549088
0.0903142
0.0372106
0.0878775
0.0657326
0.062346
0.139604
0.243819
0.133225
0.212364
0.20933
0.140735
0.234638
0.249395
-0.547153
-0.748346
-0.717261
-0.744708
-0.684321
-0.431209
-0.325918
-0.0357066
0.169001
0.323603
0.617739
0.691265
0.809834
1.01016
1.16457
1.33167
1.5078
1.81575
2.12606
2.23791
-0.514354
-0.550333
-0.652124
-0.634421
-0.552613
-0.390426
-0.253164
-0.0913988
0.144057
0.367324
0.409218
0.606611
0.730122
0.828046
1.01214
1.1072
1.28569
1.51503
1.80613
1.89793
-0.429081
-0.484531
-0.588983
-0.627032
-0.436614
-0.383133
-0.266401
-0.0652761
0.0642416
0.257729
0.351471
0.471048
0.592647
0.720703
0.793511
0.872527
1.12135
1.32557
1.44019
1.63121
-0.352885
-0.486763
-0.465936
-0.430481
-0.504963
-0.330184
-0.21164
-0.065995
0.0794477
0.109575
0.300003
0.373232
0.471841
0.591171
0.587705
0.66342
0.857082
1.01762
1.13887
1.30215
-0.281886
-0.358056
-0.430365
-0.348642
-0.347836
-0.229525
-0.226617
-0.113036
-0.0490683
0.0608665
0.156921
0.228044
0.32722
0.405926
0.505831
0.475752
0.649566
0.707079
0.910419
1.03593
-0.23799
-0.305607
-0.346852
-0.29205
-0.232814
-0.21659
-0.138499
-0.0907149
-0.0279614
0.0888215
0.184141
0.196363
0.235381
0.236232
0.305144
0.395665
0.476509
0.541144
0.660666
0.672291
-0.124276
-0.111598
-0.243093
-0.176538
-0.183126
-0.133435
-0.0770918
-0.0866449
-0.00913702
0.0541633
0.114319
0.118261
0.216888
0.195834
0.20563
0.275948
0.257643
0.284793
0.357859
0.417849
-0.0985797
-0.0229565
-0.0127755
-0.00370074
-0.0466031
-0.0571395
-0.00979963
0.0117227
-0.0179708
0.0636762
-0.0037088
0.0537186
0.0666797
0.0561692
0.0718398
0.0595413
0.0736299
0.110424
0.106387
0.107073
-1.45003
-1.4895
-1.56054
-1.61547
-1.62543
-1.47901
-1.30321
-1.15183
-0.929984
-0.700023
-0.409937
-0.294417
-0.146943
-0.039862
0.105879
0.325981
0.552047
0.82025
1.15806
1.36226
-1.19286
-1.38906
-1.42531
-1.42595
-1.42328
-1.37254
-1.195
-0.948519
-0.82152
-0.675364
-0.494542
-0.275936
-0.213686
-0.0797255
0.146353
0.201724
0.474702
0.713397
0.925771
1.21159
-1.0709
-1.17535
-1.21234
-1.22222
-1.2706
-1.14655
-1.01206
-0.867458
-0.697369
-0.562718
-0.375382
-0.294094
-0.115509
-0.119592
0.0571736
0.136903
0.327896
0.588312
0.812937
0.998474
-0.803405
-0.900233
-1.01689
-1.01953
-1.03198
-0.935384
-0.905348
-0.72639
-0.662503
-0.494803
-0.371608
-0.332586
-0.209964
-0.0801598
-0.0601299
0.210925
0.245398
0.486515
0.636552
0.847626
-0.67254
-0.700303
-0.841936
-0.82048
-0.809278
-0.74674
-0.667629
-0.563298
-0.456032
-0.366738
-0.324253
-0.210188
-0.148967
-0.0927572
-0.0198876
0.056325
0.204768
0.38263
0.470994
0.640316
-0.474875
-0.555824
-0.542538
-0.606949
-0.629436
-0.521153
-0.512301
-0.43904
-0.33117
-0.284463
-0.203494
-0.185867
-0.194486
-0.100817
0.0214949
0.0263306
0.151579
0.207645
0.442934
0.406361
-0.329896
-0.298152
-0.342027
-0.356683
-0.35399
-0.331743
-0.236487
-0.269177
-0.262697
-0.187356
-0.138215
-0.144899
-0.0315486
-0.0185963
-0.000917138
0.0630021
0.071672
0.0922995
0.244193
0.355576
-0.0707854
-0.087222
-0.093153
-0.105672
-0.155726
-0.121861
-0.0338078
-0.0665183
-0.0807644
-0.0357305
-0.0772275
-0.0418464
-0.0554019
-0.0100853
0.0932346
0.0469055
0.0719474
0.0755344
0.0260161
0.00867428
-2.05846
-2.34567
-2.42513
-2.51301
-2.56417
-2.46332
-2.29891
-2.06147
-1.86366
-1.71966
-1.48882
-1.38272
-1.20341
-1.0149
-0.841047
-0.587005
-0.293952
-0.00543377
0.344405
0.690182
-1.8956
-2.04409
-2.12598
-2.26983
-2.15814
-2.15493
-2.00389
-1.85992
-1.69923
-1.53128
-1.35715
-1.24185
-1.02012
-0.900243
-0.709357
-0.524067
-0.286542
-0.0433851
0.244843
0.539979
-1.59168
-1.64819
-1.83051
-1.92416
-1.85153
-1.85347
-1.74894
-1.55532
-1.4599
-1.25449
-1.16785
-1.04523
-1.05241
-0.907591
-0.61886
-0.431786
-0.288264
-0.0131541
0.201232
0.451795
-1.32456
-1.36536
-1.48156
-1.56659
-1.54857
-1.48751
-1.41999
-1.39845
-1.31398
-1.06625
-0.99385
-0.89393
-0.82495
-0.723271
-0.62059
-0.444214
-0.219748
-0.0380905
0.181303
0.381416
-1.00569
-1.13093
-1.12086
-1.29708
-1.22907
-1.17128
-1.14528
-1.03194
-0.918489
-0.887906
-0.768104
-0.694782
-0.666319
-0.448235
-0.44493
-0.302959
-0.231306
-0.0518557
0.150352
0.243668
-0.765347
-0.780675
-0.835026
-0.85366
-0.830208
-0.837648
-0.868787
-0.710596
-0.687012
-0.603826
-0.553402
-0.468096
-0.457775
-0.392262
-0.284277
-0.30667
-0.162108
-0.0342975
0.0340211
0.227701
-0.434202
-0.463477
-0.50392
-0.489675
-0.496262
-0.520421
-0.507387
-0.461537
-0.422481
-0.374425
-0.314801
-0.383301
-0.250422
-0.213447
-0.142666
-0.221861
-0.122987
0.0500204
0.066197
0.0933894
-0.178676
-0.190386
-0.166704
-0.206469
-0.139026
-0.136625
-0.134582
-0.124702
-0.103302
-0.100151
-0.14063
-0.155133
-0.0655353
-0.146319
-0.0424202
-0.00491046
-0.0398833
-0.0402846
-0.0261638
0.00178155
-2.75176
-3.00691
-3.22879
-3.23358
-3.29418
-3.29969
-3.14223
-2.99442
-2.80306
-2.65604
-2.5222
-2.28589
-2.11533
-1.88815
-1.69052
-1.47247
-1.08161
-0.788005
-0.347633
-0.0534798
-2.36352
-2.5163
-2.71184
-2.83569
-2.84826
-2.81831
-2.76711
-2.60098
-2.48299
-2.42428
-2.1149
-2.05789
-1.85617
-1.67644
-1.47618
-1.21238
-0.983154
-0.66989
-0.335966
-0.0363515
-2.04039
-2.19493
-2.28103
-2.43432
-2.42455
-2.45974
-2.30275
-2.18955
-2.22178
-1.99429
-1.91098
-1.79386
-1.54806
-1.52391
-1.28067
-1.09196
-0.812156
-0.513719
-0.358285
-0.0775165
-1.65243
-1.86407
-1.91725
-1.93112
-1.99075
-2.08493
-1.95977
-1.83909
-1.73647
-1.69874
-1.44781
-1.39252
-1.31569
-1.15813
-1.08192
-0.871439
-0.707913
-0.466863
-0.207818
-0.0740699
-1.36152
-1.40387
-1.51223
-1.554
-1.54122
-1.53053
-1.50002
-1.54362
-1.33124
-1.35067
-1.18643
-1.14588
-1.08852
-1.0315
-0.847603
-0.727973
-0.608036
-0.375132
-0.241067
-0.0991776
-0.95436
-1.02226
-1.11991
-1.08385
-1.09004
-1.10651
-1.08007
-1.07829
-1.07764
-0.996744
-0.849589
-0.783107
-0.792458
-0.762018
-0.625153
-0.474516
-0.437283
-0.308268
-0.218685
-0.0264619
-0.489493
-0.552143
-0.605739
-0.608997
-0.612064
-0.698394
-0.628267
-0.615514
-0.600835
-0.623501
-0.501727
-0.452769
-0.438395
-0.414605
-0.334427
-0.225151
-0.305195
-0.250214
-0.0785135
-0.0184243
-0.183875
-0.224379
-0.205957
-0.228595
-0.164366
-0.21136
-0.216073
-0.249852
-0.174162
-0.148331
-0.14996
-0.126661
-0.20206
-0.16682
-0.0732944
-0.101935
-0.0352372
-0.0152274
0.000676442
0.0151739
-3.3409
-3.53338
-3.81394
-3.86292
-3.97042
-3.92033
-3.88064
-3.79387
-3.63903
-3.46345
-3.28645
-3.03307
-2.87419
-2.65922
-2.45347
-2.16248
-1.7964
-1.43135
-0.938243
-0.56618
-2.87648
-3.04102
-3.18446
-3.44192
-3.46171
-3.48995
-3.43954
-3.35195
-3.19586
-3.03791
-2.8508
-2.71806
-2.50881
-2.32602
-2.03505
-1.88633
-1.53864
-1.1777
-0.802821
-0.497426
-2.46158
-2.56342
-2.74588
-2.82725
-2.91225
-2.98995
-2.88317
-2.79071
-2.70774
-2.60954
-2.43756
-2.33669
-2.16786
-2.03237
-1.77868
-1.6507
-1.3047
-1.10586
-0.6491
-0.41651
-1.94805
-2.07324
-2.32557
-2.39724
-2.38172
-2.42465
-2.4072
-2.33103
-2.24822
-2.08799
-2.00549
-1.93913
-1.79
-1.6809
-1.45674
-1.3105
-1.09039
-0.864539
-0.564284
-0.382555
-1.50883
-1.64611
-1.76862
-1.86282
-1.86247
-1.91153
-1.83402
-1.8171
-1.77806
-1.67476
-1.58352
-1.46721
-1.40053
-1.28758
-1.2112
-0.957291
-0.830816
-0.665586
-0.419417
-0.314309
-1.15637
-1.09025
-1.2915
-1.3913
-1.35075
-1.34241
-1.33176
-1.35541
-1.20585
-1.29874
-1.21387
-1.09543
-0.999087
-0.967265
-0.841131
-0.681959
-0.593453
-0.543341
-0.275945
-0.277956
-0.645457
-0.704179
-0.753326
-0.723842
-0.813641
-0.838954
-0.851498
-0.840123
-0.750867
-0.695828
-0.639975
-0.684943
-0.611045
-0.586356
-0.470303
-0.523467
-0.326372
-0.295894
-0.180907
-0.139721
-0.21978
-0.218825
-0.209062
-0.237361
-0.267856
-0.277328
-0.301538
-0.323867
-0.275312
-0.273188
-0.24959
-0.204249
-0.257773
-0.172816
-0.186777
-0.152139
-0.164397
-0.0894925
-0.0846168
-0.066858
-3.59571
-3.97401
-4.173
-4.45383
-4.58744
-4.53198
-4.58466
-4.42003
-4.3014
-4.10696
-3.99113
-3.80024
-3.57971
-3.33513
-3.10501
-2.77245
-2.27073
-1.87236
-1.39408
-1.00279
-3.16769
-3.39329
-3.69421
-3.82584
-3.91986
-3.98932
-3.94675
-3.91187
-3.75782
-3.61963
-3.53776
-3.23365
-3.14943
-2.86615
-2.63606
-2.32138
-1.98834
-1.60742
-1.22274
-0.947711
-2.72637
-2.95194
-3.06201
-3.21143
-3.3286
-3.35534
-3.38415
-3.30474
-3.1956
-3.07863
-2.97309
-2.76017
-2.73885
-2.50372
-2.27458
-2.04119
-1.7091
-1.37519
-1.05192
-0.73573
-2.19092
-2.41595
-2.58921
-2.72368
-2.73139
-2.73008
-2.77347
-2.70978
-2.5991
-2.58579
-2.44193
-2.30454
-2.20412
-2.01894
-1.79785
-1.64713
-1.46046
-1.18761
-0.875245
-0.618331
-1.71774
-1.79132
-1.97931
-2.14103
-2.07009
-2.1922
-2.11824
-2.13368
-2.06826
-1.90704
-1.90984
-1.80852
-1.63583
-1.6104
-1.44032
-1.28325
-1.12316
-0.915094
-0.670337
-0.494596
-1.21377
-1.25198
-1.40863
-1.47082
-1.50055
-1.60862
-1.50484
-1.591
-1.48445
-1.41172
-1.37455
-1.28961
-1.22736
-1.14667
-1.12681
-0.950529
-0.757321
-0.612062
-0.445879
-0.410857
-0.717204
-0.739382
-0.865057
-0.883307
-0.910335
-0.973726
-0.962794
-0.923892
-0.882839
-0.778803
-0.815975
-0.732453
-0.715082
-0.692115
-0.669949
-0.552778
-0.439799
-0.376332
-0.30008
-0.208779
-0.178898
-0.235999
-0.226447
-0.294565
-0.337165
-0.25487
-0.309024
-0.312847
-0.262202
-0.31832
-0.265379
-0.264664
-0.210483
-0.232745
-0.191127
-0.1804
-0.147813
-0.161893
-0.098588
-0.121642
-3.9328
-4.23522
-4.53077
-4.82431
-4.9408
-5.0645
-4.99607
-4.96656
-4.82602
-4.72209
-4.58057
-4.31568
-4.08242
-3.81097
-3.54114
-3.14326
-2.79751
-2.20949
-1.74828
-1.24255
-3.44166
-3.66507
-3.90404
-4.1356
-4.31405
-4.26399
-4.38315
-4.34469
-4.20888
-4.13316
-3.92951
-3.73921
-3.59024
-3.3422
-3.01821
-2.79209
-2.3344
-1.92504
-1.48164
-1.08035
-2.87547
-3.08503
-3.26607
-3.5364
-3.64316
-3.66966
-3.77313
-3.69001
-3.56752
-3.47577
-3.27701
-3.2316
-3.05705
-2.87472
-2.60153
-2.3859
-1.9889
-1.61502
-1.23593
-0.962454
-2.31431
-2.54617
-2.76937
-2.86031
-3.01113
-3.01561
-3.01661
-3.068
-2.94669
-2.91074
-2.72532
-2.68599
-2.43477
-2.33736
-2.16328
-1.87091
-1.62528
-1.38265
-1.00849
-0.77206
-1.83613
-1.96224
-2.14556
-2.20289
-2.31802
-2.35088
-2.44306
-2.43894
-2.36033
-2.23511
-2.20261
-2.04343
-1.92794
-1.82368
-1.72692
-1.49893
-1.29732
-1.01917
-0.889702
-0.55997
-1.34536
-1.41578
-1.54928
-1.58362
-1.67371
-1.69205
-1.75599
-1.66742
-1.65102
-1.59763
-1.55973
-1.48688
-1.47447
-1.30789
-1.2615
-1.10362
-0.932821
-0.735759
-0.651384
-0.476176
-0.777864
-0.871196
-0.899941
-0.923436
-0.999366
-1.05998
-1.04051
-1.0513
-0.99211
-0.951113
-0.954807
-0.886261
-0.911127
-0.826788
-0.733147
-0.650531
-0.596658
-0.489347
-0.375832
-0.259302
-0.297233
-0.318432
-0.257443
-0.297497
-0.326764
-0.378743
-0.36736
-0.344192
-0.357313
-0.373452
-0.326634
-0.27555
-0.281133
-0.18506
-0.237448
-0.265878
-0.104703
-0.178887
-0.166946
-0.100652
-4.01608
-4.37589
-4.76685
-5.03695
-5.20365
-5.35252
-5.41507
-5.31457
-5.21442
-5.13297
-4.92462
-4.69116
-4.4546
-4.22328
-3.84165
-3.44307
-2.96524
-2.4772
-1.94745
-1.43942
-3.48551
-3.81389
-4.09151
-4.34609
-4.50429
-4.59842
-4.68131
-4.60835
-4.49038
-4.48626
-4.2655
-4.07494
-3.97966
-3.65511
-3.26715
-2.96574
-2.60393
-2.13704
-1.67999
-1.21979
-2.99068
-3.17415
-3.38568
-3.64093
-3.80869
-3.8856
-3.94963
-3.91431
-3.87233
-3.73967
-3.67144
-3.47969
-3.2642
-3.0914
-2.82721
-2.52483
-2.16725
-1.86336
-1.38899
-1.04799
-2.43532
-2.60834
-2.83053
-2.98895
-3.14436
-3.16569
-3.23227
-3.22192
-3.17757
-3.12025
-3.02566
-2.77112
-2.70035
-2.55956
-2.37744
-2.10746
-1.8187
-1.47715
-1.13748
-0.879147
-1.84538
-2.08514
-2.16085
-2.37201
-2.41256
-2.53618
-2.54018
-2.52077
-2.50371
-2.46937
-2.31742
-2.16919
-2.10297
-1.95849
-1.80461
-1.64066
-1.4251
-1.18007
-0.929342
-0.656085
-1.3253
-1.42655
-1.5841
-1.63162
-1.77655
-1.7314
-1.79577
-1.78098
-1.78935
-1.79203
-1.69199
-1.61315
-1.49768
-1.36899
-1.28876
-1.17159
-1.0508
-0.784909
-0.626012
-0.516739
-0.76866
-0.917587
-0.964933
-1.01519
-1.0767
-1.04429
-1.08885
-1.09846
-1.10744
-1.09615
-1.02508
-0.936459
-0.946756
-0.905052
-0.736718
-0.721914
-0.596569
-0.544615
-0.433231
-0.290227
-0.301797
-0.296658
-0.318255
-0.293218
-0.352166
-0.400507
-0.317066
-0.39163
-0.367418
-0.287401
-0.356837
-0.266601
-0.275462
-0.269818
-0.248828
-0.225521
-0.168091
-0.201046
-0.0637334
-0.0964289
-3.98241
-4.31451
-4.7641
-5.09177
-5.32255
-5.47649
-5.55211
-5.52015
-5.48262
-5.39666
-5.16225
-4.93626
-4.77135
-4.42891
-4.05145
-3.59499
-3.09891
-2.55684
-1.98743
-1.39886
-3.35584
-3.70386
-4.10866
-4.42708
-4.60494
-4.76921
-4.82338
-4.76001
-4.75232
-4.70304
-4.50621
-4.34199
-4.02579
-3.82342
-3.58345
-3.14294
-2.67255
-2.21604
-1.66544
-1.27261
-2.90025
-3.18035
-3.55938
-3.75494
-3.89417
-4.04998
-4.07351
-4.03989
-4.06939
-4.04666
-3.80239
-3.63577
-3.52187
-3.25228
-2.98486
-2.62625
-2.29996
-1.83604
-1.37994
-1.05984
-2.40335
-2.63848
-2.87412
-3.03877
-3.20765
-3.31994
-3.27488
-3.29732
-3.35326
-3.24318
-3.0834
-3.0565
-2.86497
-2.65793
-2.44137
-2.13778
-1.88319
-1.39404
-1.14716
-0.852318
-1.86306
-2.02859
-2.16613
-2.37565
-2.53667
-2.56603
-2.61249
-2.58272
-2.56309
-2.60325
-2.39515
-2.41544
-2.25129
-2.05837
-1.84237
-1.5941
-1.46866
-1.13071
-0.921392
-0.675773
-1.297
-1.43772
-1.5394
-1.66764
-1.73511
-1.81704
-1.89739
-1.81036
-1.87457
-1.79546
-1.70401
-1.72464
-1.5698
-1.51384
-1.31851
-1.22531
-1.09183
-0.86708
-0.642873
-0.44325
-0.832431
-0.827724
-0.948768
-0.959952
-1.06183
-1.07433
-1.06332
-1.16637
-1.07284
-1.03856
-0.983451
-1.06678
-0.898346
-0.877473
-0.905187
-0.787086
-0.615511
-0.527631
-0.423303
-0.291981
-0.260441
-0.263661
-0.277375
-0.302946
-0.387847
-0.386932
-0.327922
-0.43991
-0.318983
-0.257025
-0.368797
-0.319404
-0.261535
-0.34582
-0.280395
-0.249281
-0.219588
-0.169018
-0.148422
-0.0899337
-3.81794
-4.20651
-4.62118
-4.98344
-5.23281
-5.49206
-5.56118
-5.50991
-5.53174
-5.51609
-5.32423
-5.06268
-4.77368
-4.50157
-4.04785
-3.58028
-3.08744
-2.46982
-1.85322
-1.26969
-3.20652
-3.56574
-3.97511
-4.28052
-4.61138
-4.69784
-4.82189
-4.86786
-4.77162
-4.7517
-4.5777
-4.38583
-4.11335
-3.82915
-3.519
-3.13413
-2.66433
-2.13837
-1.56271
-1.10767
-2.78759
-3.0388
-3.32465
-3.62832
-3.83955
-3.96125
-4.05979
-4.07196
-3.99865
-3.97286
-3.89206
-3.70323
-3.53833
-3.26064
-3.01124
-2.60055
-2.16505
-1.83983
-1.31457
-0.981806
-2.28787
-2.4544
-2.76134
-2.91716
-3.11559
-3.21488
-3.32864
-3.29256
-3.3635
-3.30717
-3.21322
-3.01211
-2.89817
-2.61666
-2.39968
-2.05823
-1.7933
-1.47728
-1.11207
-0.736432
-1.7054
-1.90322
-2.12049
-2.33187
-2.47727
-2.51282
-2.594
-2.67616
-2.55305
-2.58918
-2.47111
-2.38655
-2.20632
-2.09037
-1.88093
-1.69898
-1.41504
-1.18941
-0.832579
-0.563622
-1.23737
-1.35667
-1.55826
-1.6234
-1.70478
-1.78692
-1.90585
-1.81869
-1.81918
-1.79156
-1.75358
-1.63195
-1.6464
-1.47135
-1.34556
-1.21807
-1.03181
-0.708
-0.579444
-0.41304
-0.735797
-0.803351
-0.928398
-1.05905
-1.1053
-1.09445
-1.13753
-1.09612
-1.09362
-1.06815
-1.0415
-1.01787
-0.950906
-0.845059
-0.802633
-0.788231
-0.598813
-0.505945
-0.385676
-0.285998
-0.260431
-0.319608
-0.327
-0.314843
-0.406478
-0.387327
-0.389702
-0.354206
-0.380285
-0.358737
-0.344905
-0.356864
-0.302307
-0.24555
-0.238584
-0.281743
-0.295997
-0.196153
-0.0875349
-0.0615171
-3.3777
-3.84382
-4.35896
-4.77337
-5.11337
-5.24765
-5.39726
-5.47316
-5.46261
-5.33286
-5.19525
-4.93673
-4.68505
-4.35284
-3.88636
-3.40496
-2.90122
-2.26282
-1.56487
-0.91083
-2.90358
-3.3124
-3.77248
-4.04791
-4.32607
-4.61443
-4.6244
-4.67851
-4.81531
-4.61311
-4.52932
-4.27768
-4.04701
-3.7814
-3.36024
-2.98473
-2.49776
-1.94691
-1.31541
-0.894994
-2.40956
-2.74282
-3.1593
-3.43462
-3.62472
-3.85066
-3.9142
-3.95464
-3.99953
-3.88029
-3.8576
-3.67632
-3.42429
-3.11126
-2.88439
-2.48783
-2.04261
-1.5699
-1.12191
-0.70895
-1.98052
-2.18457
-2.53837
-2.78168
-2.9983
-3.13397
-3.16427
-3.29543
-3.23002
-3.16413
-3.09989
-2.95648
-2.8037
-2.56878
-2.27067
-2.00805
-1.69397
-1.37867
-0.966692
-0.547201
-1.63115
-1.75207
-1.94939
-2.19
-2.34117
-2.43856
-2.49801
-2.56282
-2.45045
-2.45222
-2.44061
-2.27457
-2.17366
-2.00939
-1.77312
-1.54421
-1.35511
-1.00909
-0.702343
-0.482397
-1.08129
-1.21271
-1.40366
-1.5838
-1.71492
-1.74438
-1.84733
-1.82856
-1.76996
-1.8125
-1.76276
-1.67603
-1.60094
-1.47643
-1.26696
-1.12464
-0.98723
-0.675048
-0.439034
-0.336282
-0.646898
-0.766308
-0.746025
-0.955189
-0.947842
-1.07739
-1.04231
-1.09009
-1.07901
-1.11317
-1.1396
-0.989705
-0.893395
-0.828712
-0.761355
-0.726846
-0.517692
-0.409328
-0.277045
-0.22298
-0.247168
-0.261763
-0.261134
-0.361595
-0.330784
-0.38615
-0.408399
-0.344752
-0.356002
-0.356945
-0.325455
-0.302018
-0.294219
-0.282395
-0.22289
-0.216981
-0.172372
-0.151284
-0.131177
-0.109317
-2.90349
-3.38816
-3.92466
-4.36329
-4.63886
-4.83127
-5.10827
-5.08976
-5.14051
-5.10589
-4.90465
-4.74548
-4.42325
-4.05554
-3.62823
-3.10908
-2.55408
-1.85008
-1.15338
-0.537768
-2.47633
-2.87294
-3.38491
-3.65561
-3.99495
-4.22156
-4.41292
-4.37656
-4.44448
-4.40445
-4.25595
-4.08197
-3.77524
-3.49494
-3.07838
-2.61836
-2.1185
-1.50108
-1.01956
-0.506086
-2.08242
-2.4185
-2.75931
-3.07953
-3.43707
-3.58938
-3.72112
-3.72585
-3.75914
-3.67644
-3.63531
-3.41793
-3.19019
-2.93178
-2.62024
-2.23324
-1.79176
-1.29287
-0.716059
-0.395263
-1.63878
-1.93236
-2.29708
-2.55281
-2.76008
-2.90574
-2.97032
-3.05997
-3.01466
-3.02699
-2.93818
-2.78274
-2.61306
-2.36129
-2.13673
-1.83956
-1.43695
-1.06916
-0.605126
-0.277012
-1.25682
-1.51047
-1.72981
-2.0312
-2.10544
-2.26098
-2.34554
-2.36282
-2.39148
-2.35793
-2.27726
-2.19137
-2.01034
-1.8207
-1.62431
-1.31842
-1.09991
-0.790683
-0.502595
-0.18214
-0.932556
-1.06497
-1.29543
-1.41162
-1.49541
-1.6447
-1.66287
-1.66575
-1.71143
-1.67308
-1.62295
-1.56527
-1.43553
-1.35352
-1.13786
-1.09796
-0.80537
-0.625788
-0.311397
-0.088742
-0.466945
-0.627765
-0.718937
-0.8612
-0.952007
-1.01475
-1.02657
-1.0654
-1.04801
-1.02445
-0.99158
-0.935116
-0.893067
-0.790297
-0.751299
-0.523078
-0.473836
-0.342723
-0.219509
-0.0266402
-0.132916
-0.247018
-0.261543
-0.244419
-0.301163
-0.343771
-0.292435
-0.385751
-0.285758
-0.329789
-0.325534
-0.277456
-0.294552
-0.272359
-0.210449
-0.219815
-0.15529
-0.144315
-0.0882421
-0.0711946
-2.17983
-2.75762
-3.29599
-3.79039
-4.19536
-4.37194
-4.55758
-4.69939
-4.70498
-4.62847
-4.39351
-4.21056
-3.97858
-3.57367
-3.10369
-2.6403
-1.99565
-1.20227
-0.481149
0.101722
-1.82288
-2.30551
-2.78937
-3.21624
-3.52528
-3.72396
-3.90268
-4.00265
-4.01507
-3.96081
-3.83214
-3.55727
-3.42718
-3.11384
-2.65401
-2.2309
-1.74966
-1.11716
-0.355541
0.0772122
-1.55078
-1.92158
-2.31172
-2.62759
-2.95343
-3.17659
-3.33003
-3.34702
-3.39956
-3.3391
-3.17851
-3.06915
-2.8432
-2.53159
-2.24562
-1.77427
-1.36799
-0.819016
-0.352752
0.103541
-1.2405
-1.54826
-1.86614
-2.1162
-2.38443
-2.5736
-2.71026
-2.75937
-2.7651
-2.72847
-2.59245
-2.48439
-2.34003
-2.10399
-1.83547
-1.43764
-1.13166
-0.68516
-0.217145
0.150549
-0.892385
-1.18863
-1.4047
-1.6222
-1.86522
-2.02244
-2.02778
-2.19122
-2.19301
-2.1025
-2.08384
-1.9428
-1.81053
-1.65213
-1.37342
-1.16623
-0.829925
-0.574221
-0.179071
0.0975326
-0.624304
-0.849948
-0.970333
-1.208
-1.38658
-1.43058
-1.46373
-1.46357
-1.54209
-1.54599
-1.40471
-1.38847
-1.28435
-1.05342
-0.958527
-0.804022
-0.540219
-0.3597
-0.0848826
-0.0227215
-0.402389
-0.514855
-0.583309
-0.703004
-0.796731
-0.837928
-0.871232
-0.92166
-0.968625
-0.865888
-0.870021
-0.820254
-0.756739
-0.601203
-0.648047
-0.454767
-0.37198
-0.222388
-0.0359929
0.0197414
-0.161242
-0.176242
-0.17728
-0.250372
-0.272933
-0.27559
-0.305377
-0.372061
-0.27914
-0.259932
-0.296434
-0.324329
-0.279584
-0.224107
-0.216071
-0.18906
-0.119814
-0.00243224
-0.0857201
0.00822736
-1.32
-1.8858
-2.46495
-2.99357
-3.43184
-3.69107
-3.8901
-4.0745
-4.04395
-4.04211
-3.91438
-3.62295
-3.34175
-2.95947
-2.43633
-1.89201
-1.28935
-0.574587
0.161507
0.835072
-1.09543
-1.50477
-2.15049
-2.52169
-2.94303
-3.16402
-3.32132
-3.43863
-3.46152
-3.49145
-3.33647
-3.14336
-2.78044
-2.55571
-2.14009
-1.55795
-1.08347
-0.408882
0.289115
0.76037
-0.899999
-1.25389
-1.67786
-2.12963
-2.42087
-2.56581
-2.81446
-2.8728
-2.90856
-2.89038
-2.70439
-2.62279
-2.35787
-2.07932
-1.77167
-1.33304
-0.821014
-0.289372
0.274777
0.739654
-0.674679
-1.04119
-1.41441
-1.71723
-1.9505
-2.15011
-2.28242
-2.35155
-2.40418
-2.25828
-2.27397
-2.144
-1.98643
-1.67677
-1.34768
-1.07327
-0.662879
-0.338882
0.213653
0.61965
-0.456879
-0.764336
-1.08692
-1.35897
-1.50223
-1.65518
-1.76805
-1.77618
-1.83847
-1.83405
-1.72635
-1.69018
-1.5093
-1.31289
-1.0429
-0.838268
-0.519725
-0.221779
0.191595
0.532095
-0.389605
-0.592062
-0.678019
-0.86754
-1.05528
-1.14543
-1.24822
-1.29516
-1.28271
-1.32203
-1.33249
-1.20502
-1.05436
-0.919003
-0.77695
-0.589232
-0.424493
-0.145177
0.0675265
0.370801
-0.234362
-0.290603
-0.418005
-0.583541
-0.598272
-0.741279
-0.739317
-0.759151
-0.837938
-0.754349
-0.808526
-0.662485
-0.633837
-0.570038
-0.50195
-0.409992
-0.246722
-0.0715898
0.0848445
0.161081
-0.083875
-0.0865621
-0.119713
-0.180631
-0.278961
-0.197579
-0.221319
-0.173162
-0.263553
-0.269463
-0.263949
-0.189207
-0.257547
-0.162095
-0.180015
-0.0765004
-0.109135
-0.0590477
-0.00801256
0.0103216
-0.299455
-0.890867
-1.49301
-2.12895
-2.57102
-2.9398
-3.12513
-3.27618
-3.33512
-3.29039
-3.13131
-2.89379
-2.51883
-2.20572
-1.61701
-1.09962
-0.479346
0.263678
1.08642
1.82434
-0.268039
-0.797474
-1.29077
-1.75603
-2.11992
-2.42532
-2.70785
-2.79946
-2.80574
-2.74147
-2.67048
-2.41983
-2.2046
-1.86538
-1.35904
-0.884094
-0.32813
0.27662
1.03763
1.58102
-0.180023
-0.68528
-1.06015
-1.42109
-1.77246
-2.02566
-2.21209
-2.32699
-2.37391
-2.35711
-2.30043
-1.98143
-1.816
-1.57033
-1.09258
-0.703953
-0.27992
0.332157
0.901195
1.33462
-0.194287
-0.487434
-0.8275
-1.18858
-1.43388
-1.60636
-1.83448
-1.86158
-1.9576
-1.88231
-1.82688
-1.67922
-1.47373
-1.22616
-0.976431
-0.581532
-0.167112
0.203589
0.751443
1.13763
-0.0339142
-0.311299
-0.641344
-0.893252
-1.11364
-1.25226
-1.36707
-1.39662
-1.46916
-1.3616
-1.40347
-1.30123
-1.12086
-0.896895
-0.68486
-0.372191
-0.147122
0.265142
0.524721
0.87483
-0.0862298
-0.267543
-0.508098
-0.629309
-0.822946
-0.871358
-1.00686
-1.07043
-1.0147
-1.02572
-0.996952
-0.863643
-0.74967
-0.761238
-0.540029
-0.310697
-0.0706517
0.116734
0.475946
0.690314
-0.00810497
-0.163128
-0.265311
-0.424176
-0.454123
-0.525112
-0.565311
-0.579453
-0.608851
-0.66685
-0.607545
-0.580226
-0.447833
-0.460178
-0.309297
-0.240915
-0.0587977
0.120248
0.312113
0.419619
0.014414
-0.0973126
-0.169526
-0.0972356
-0.191369
-0.219617
-0.19767
-0.226305
-0.198436
-0.166064
-0.212733
-0.152723
-0.162725
-0.201949
-0.123902
-0.0759284
-0.00515712
0.0657442
0.0772711
0.21085
0.644014
0.0141102
-0.605876
-1.15542
-1.68178
-2.01474
-2.25278
-2.4562
-2.54409
-2.48026
-2.2471
-2.0502
-1.75976
-1.4001
-0.815906
-0.287492
0.380464
1.18464
1.92388
2.75639
0.565626
0.0959826
-0.446665
-0.932631
-1.43628
-1.71018
-1.95057
-2.02356
-2.04978
-2.04238
-1.9451
-1.71599
-1.45582
-1.16781
-0.738398
-0.189251
0.448003
1.09384
1.70797
2.393
0.541783
0.0969193
-0.431782
-0.761088
-1.19252
-1.4041
-1.62734
-1.70176
-1.86363
-1.731
-1.6575
-1.4596
-1.26155
-0.936618
-0.589115
-0.129806
0.385409
0.992834
1.52795
2.09127
0.499496
0.0953992
-0.253868
-0.630903
-0.954528
-1.14324
-1.35321
-1.38938
-1.39458
-1.48433
-1.2937
-1.22277
-0.941734
-0.755504
-0.453504
-0.121847
0.316778
0.800869
1.38374
1.6693
0.30123
0.017757
-0.139246
-0.451349
-0.762952
-0.850042
-0.99467
-1.02935
-1.15957
-1.01836
-1.04479
-0.904854
-0.738901
-0.595242
-0.361651
-0.0312641
0.29785
0.636317
0.966302
1.30103
0.237642
0.0788892
-0.126933
-0.346625
-0.511169
-0.592894
-0.720968
-0.762331
-0.772947
-0.745193
-0.68555
-0.632291
-0.558317
-0.392667
-0.221372
-0.0702039
0.161048
0.436798
0.775712
0.971498
0.130511
0.0103192
-0.118643
-0.18007
-0.317103
-0.392268
-0.428031
-0.475523
-0.510308
-0.486851
-0.454132
-0.428148
-0.385392
-0.270402
-0.0890756
0.0113596
0.0959434
0.264905
0.490965
0.523939
0.0600757
-0.0322353
-0.0531053
-0.0471539
-0.10945
-0.0468964
-0.115495
-0.162722
-0.160111
-0.151799
-0.213473
-0.0658673
-0.0743649
-0.0952366
-0.0865481
-0.00691739
0.0197354
0.0166107
0.165686
0.22047
1.50473
0.826137
0.202642
-0.393018
-0.842629
-1.21323
-1.62479
-1.78281
-1.74702
-1.73529
-1.60585
-1.39585
-1.06319
-0.694612
-0.0371274
0.372604
1.10911
1.95358
2.69579
3.46198
1.29936
0.748502
0.159932
-0.338422
-0.707933
-1.10167
-1.38263
-1.47928
-1.53158
-1.48349
-1.43635
-1.25577
-0.936274
-0.612327
-0.0737401
0.442806
1.05132
1.75311
2.36024
3.08659
1.10627
0.603559
0.230294
-0.2793
-0.658381
-0.907563
-1.13489
-1.19963
-1.34873
-1.32805
-1.25401
-1.05615
-0.70744
-0.501448
-0.0447222
0.339418
0.89152
1.49656
2.02377
2.58593
0.900242
0.571369
0.154621
-0.215275
-0.449971
-0.755976
-0.919105
-1.00197
-1.10271
-1.02057
-0.925787
-0.830123
-0.709364
-0.363748
-0.0597501
0.321852
0.69329
1.22815
1.62787
2.07992
0.687356
0.440614
0.107835
-0.244865
-0.346802
-0.597291
-0.716563
-0.80209
-0.807452
-0.829356
-0.723685
-0.647151
-0.45211
-0.268762
-0.0865968
0.269269
0.536799
0.920729
1.29209
1.55307
0.506617
0.348353
0.107442
-0.148097
-0.293261
-0.378972
-0.55842
-0.46618
-0.617319
-0.539911
-0.594614
-0.428196
-0.375346
-0.197972
-0.0431152
0.126978
0.440283
0.671095
0.921953
1.18339
0.317145
0.163636
0.0283734
-0.0479699
-0.211164
-0.314315
-0.32495
-0.396254