/*--------------------------------*- C++ -*----------------------------------*\
| =========                 |                                                 |
| \\      /  F ield         | OpenFOAM: The Open Source CFD Toolbox           |
|  \\    /   O peration     | Version:  2212                                  |
|   \\  /    A nd           | Website:  www.openfoam.com                      |
|    \\/     M anipulation  |                                                 |
\*---------------------------------------------------------------------------*/
FoamFile
{
    version     2.0;
    format      ascii;
    arch        "LSB;label=32;scalar=64";
    class       volScalarField;
    location    "0";
    object      T;
}
// * * * * * * * * * * * * * * * * * * * * * * * * * * * * * * * * * * * * * //

dimensions      [0 0 0 1 0 0 0];

internalField   nonuniform List<scalar> 
3200
(
345.276
346.275
347.134
348.221
348.938
349.435
349.883
350.111
350.541
350.398
350.365
349.804
349.558
348.919
348.182
347.414
346.268
345.299
344.572
343.327
339.463
340.277
341.143
342.035
342.625
343.087
343.488
343.682
344.054
343.927
343.9
343.44
343.17
342.655
341.994
341.292
340.29
339.45
338.825
337.786
333.508
334.212
335.008
335.753
336.227
336.637
336.955
337.155
337.448
337.366
337.327
336.961
336.665
336.265
335.718
335.08
334.246
333.506
333.013
332.131
327.512
328.064
328.795
329.373
329.743
330.15
330.29
330.515
330.75
330.701
330.663
330.355
330.083
329.772
329.335
328.801
328.134
327.541
327.129
326.41
321.445
321.885
322.482
322.949
323.236
323.55
323.636
323.813
324
323.979
323.928
323.681
323.412
323.208
322.859
322.494
321.921
321.512
321.113
320.606
315.314
315.674
316.052
316.435
316.643
316.869
316.936
317.054
317.22
317.157
317.133
316.938
316.748
316.639
316.342
316.131
315.698
315.44
315.105
314.75
309.213
309.426
309.624
309.87
310.011
310.162
310.184
310.279
310.369
310.33
310.326
310.185
310.099
310.004
309.811
309.709
309.468
309.293
309.057
308.877
303.086
303.143
303.22
303.316
303.371
303.423
303.405
303.457
303.472
303.461
303.455
303.387
303.374
303.374
303.299
303.234
303.194
303.106
303.026
302.957
346.474
347.329
348.346
349.283
349.934
350.446
350.955
351.442
351.467
351.34
351.395
350.909
350.4
349.995
349.273
348.591
347.381
346.471
345.476
344.441
340.482
341.165
342.088
342.886
343.468
343.913
344.368
344.758
344.797
344.669
344.748
344.323
343.859
343.501
342.875
342.266
341.129
340.387
339.516
338.702
334.396
334.943
335.767
336.413
336.906
337.307
337.693
338.026
338.034
337.957
338.001
337.629
337.276
336.942
336.422
335.876
334.889
334.26
333.564
332.884
328.247
328.628
329.37
329.915
330.26
330.662
330.943
331.199
331.186
331.171
331.203
330.888
330.597
330.322
329.908
329.441
328.634
328.133
327.529
326.986
322.058
322.288
322.906
323.345
323.566
323.936
324.14
324.319
324.317
324.315
324.313
324.121
323.839
323.659
323.318
322.982
322.364
321.955
321.459
321.043
315.78
315.937
316.39
316.743
316.843
317.15
317.264
317.396
317.422
317.388
317.383
317.288
317.072
316.988
316.714
316.448
316.027
315.722
315.36
315.053
309.477
309.615
309.884
310.079
310.093
310.329
310.396
310.446
310.475
310.434
310.445
310.381
310.252
310.232
310.061
309.931
309.65
309.485
309.25
309.049
303.186
303.245
303.33
303.357
303.381
303.461
303.489
303.506
303.519
303.509
303.509
303.499
303.441
303.44
303.399
303.338
303.243
303.186
303.088
303.044
347.596
348.504
349.725
350.565
351.375
351.916
352.182
352.739
352.958
352.941
352.69
352.463
352.035
351.506
350.692
349.876
348.961
347.772
346.744
345.764
341.445
342.229
343.2
343.992
344.641
345.158
345.391
345.854
346.081
346.07
345.789
345.608
345.233
344.805
344.082
343.387
342.581
341.521
340.697
339.823
335.192
335.856
336.633
337.329
337.853
338.313
338.532
338.936
339.155
339.097
338.851
338.711
338.407
338.022
337.389
336.821
336.113
335.266
334.58
333.792
328.912
329.429
330.048
330.631
331.015
331.412
331.626
331.906
332.12
332.029
331.874
331.777
331.532
331.156
330.651
330.171
329.617
328.937
328.425
327.738
322.551
322.94
323.425
323.867
324.163
324.462
324.704
324.852
325.059
324.968
324.867
324.786
324.532
324.259
323.886
323.492
323.097
322.57
322.189
321.618
316.129
316.408
316.752
317.019
317.302
317.484
317.703
317.737
317.966
317.9
317.812
317.723
317.559
317.362
317.132
316.804
316.499
316.19
315.879
315.467
309.671
309.861
310.083
310.221
310.42
310.503
310.652
310.65
310.819
310.767
310.747
310.633
310.505
310.444
310.323
310.123
309.907
309.726
309.526
309.305
303.242
303.303
303.386
303.431
303.486
303.534
303.568
303.563
303.624
303.617
303.621
303.568
303.535
303.503
303.461
303.385
303.33
303.251
303.173
303.135
348.885
349.889
350.896
351.934
352.806
353.339
353.932
354.223
354.439
354.327
354.204
354.058
353.571
352.985
352.435
351.281
350.425
349.362
348.335
347.173
342.609
343.364
344.286
345.182
345.885
346.336
346.907
347.117
347.335
347.26
347.166
347.043
346.56
346.101
345.552
344.602
343.815
342.922
342.028
341.027
336.229
336.766
337.609
338.362
338.926
339.321
339.824
339.999
340.171
340.134
340.064
339.954
339.53
339.145
338.606
337.838
337.159
336.438
335.689
334.81
329.737
330.181
330.864
331.512
331.922
332.271
332.678
332.801
332.95
332.956
332.873
332.75
332.433
332.084
331.602
331.039
330.477
329.885
329.258
328.525
323.188
323.536
324.052
324.599
324.88
325.165
325.495
325.546
325.708
325.7
325.641
325.522
325.282
324.974
324.617
324.217
323.775
323.28
322.757
322.24
316.617
316.877
317.164
317.573
317.806
318.012
318.262
318.269
318.417
318.41
318.375
318.28
318.104
317.863
317.591
317.303
317.018
316.66
316.277
315.938
310.006
310.152
310.295
310.546
310.694
310.83
311.028
310.977
311.083
311.076
311.088
311.008
310.908
310.755
310.556
310.424
310.233
310.009
309.776
309.584
303.355
303.398
303.449
303.544
303.596
303.633
303.703
303.695
303.716
303.725
303.728
303.7
303.64
303.586
303.541
303.486
303.418
303.37
303.261
303.216
350.38
351.381
352.382
353.298
354.245
354.696
355.479
355.739
355.935
356.081
355.864
355.378
355.087
354.653
353.777
352.79
352.03
350.587
349.568
348.458
343.883
344.707
345.556
346.341
347.163
347.532
348.216
348.448
348.636
348.767
348.596
348.099
347.891
347.51
346.747
345.876
345.22
343.99
343.102
342.124
337.291
337.959
338.656
339.327
340.012
340.349
340.91
341.097
341.219
341.401
341.272
340.819
340.614
340.329
339.701
339.005
338.357
337.351
336.571
335.738
330.613
331.144
331.702
332.249
332.852
333.133
333.574
333.699
333.767
333.943
333.826
333.476
333.298
333.084
332.586
332.055
331.489
330.664
329.988
329.293
323.895
324.297
324.725
325.131
325.632
325.872
326.211
326.242
326.287
326.474
326.364
326.098
325.896
325.791
325.454
325.055
324.576
323.864
323.36
322.793
317.121
317.386
317.676
317.999
318.375
318.533
318.778
318.802
318.795
318.944
318.905
318.7
318.522
318.473
318.3
317.972
317.603
317.075
316.668
316.306
310.285
310.447
310.61
310.833
311.016
311.161
311.319
311.298
311.294
311.403
311.396
311.247
311.115
311.147
311.007
310.816
310.608
310.242
310.004
309.828
303.428
303.474
303.567
303.637
303.681
303.731
303.802
303.793
303.799
303.828
303.827
303.761
303.733
303.738
303.7
303.644
303.577
303.424
303.356
303.297
351.752
352.822
353.719
354.96
355.746
356.354
356.982
357.132
357.499
357.486
357.702
357.045
356.651
356.047
355.344
354.301
353.448
352.127
351.09
349.919
345.027
345.943
346.677
347.762
348.475
348.945
349.539
349.644
349.982
350
350.16
349.591
349.23
348.708
348.106
347.155
346.477
345.309
344.397
343.387
338.189
338.958
339.607
340.543
341.154
341.491
342.031
342.098
342.4
342.43
342.59
342.025
341.72
341.327
340.832
340.016
339.414
338.433
337.663
336.867
331.316
331.956
332.496
333.266
333.755
334.002
334.483
334.492
334.728
334.768
334.895
334.466
334.23
333.96
333.517
332.805
332.284
331.521
330.935
330.274
324.439
324.888
325.353
325.915
326.304
326.472
326.858
326.834
327.018
327.113
327.168
326.905
326.673
326.523
326.167
325.547
325.14
324.564
324.148
323.626
317.489
317.789
318.148
318.552
318.828
318.935
319.228
319.175
319.326
319.4
319.429
319.283
319.073
319.009
318.715
318.246
318
317.569
317.32
316.92
310.545
310.688
310.911
311.139
311.293
311.378
311.547
311.491
311.601
311.663
311.682
311.631
311.462
311.458
311.294
310.976
310.8
310.543
310.42
310.157
303.53
303.597
303.665
303.722
303.797
303.811
303.858
303.843
303.881
303.931
303.922
303.895
303.848
303.838
303.787
303.671
303.628
303.539
303.487
303.401
352.983
354.033
355.119
356.266
357.084
357.949
358.258
358.535
359.028
358.959
359.022
358.573
358.12
357.615
356.75
355.898
354.733
353.46
352.381
351.13
346.056
346.942
347.917
348.884
349.657
350.359
350.615
350.847
351.299
351.246
351.293
350.898
350.485
350.037
349.323
348.615
347.571
346.457
345.528
344.444
339.124
339.838
340.63
341.484
342.17
342.706
342.934
343.11
343.488
343.485
343.514
343.138
342.819
342.418
341.844
341.233
340.379
339.387
338.646
337.687
332.109
332.658
333.311
334.017
334.594
335.037
335.177
335.304
335.605
335.653
335.646
335.387
335.076
334.79
334.334
333.796
333.117
332.31
331.733
330.93
325.068
325.444
325.959
326.526
326.946
327.319
327.418
327.501
327.729
327.798
327.781
327.584
327.327
327.084
326.75
326.331
325.799
325.203
324.709
324.14
317.974
318.202
318.617
318.994
319.26
319.557
319.671
319.707
319.779
319.928
319.87
319.747
319.524
319.35
319.153
318.846
318.46
318.026
317.7
317.306
310.837
310.943
311.22
311.394
311.571
311.737
311.818
311.857
311.873
312.005
311.936
311.863
311.709
311.642
311.529
311.323
311.124
310.825
310.61
310.409
303.633
303.664
303.771
303.816
303.881
303.921
303.955
303.984
303.99
304.025
303.999
303.966
303.928
303.886
303.876
303.776
303.75
303.608
303.543
303.487
354.335
355.175
356.32
357.458
358.579
359.286
359.74
360.004
360.498
360.233
360.37
360.058
359.553
359.032
358.173
357.191
355.927
354.797
353.622
352.447
347.301
347.965
348.923
349.975
350.91
351.552
351.95
352.151
352.596
352.319
352.483
352.192
351.726
351.324
350.534
349.695
348.613
347.636
346.609
345.604
340.131
340.677
341.52
342.415
343.153
343.745
344.07
344.25
344.629
344.367
344.524
344.232
343.866
343.56
342.869
342.163
341.24
340.396
339.569
338.702
332.901
333.35
334.096
334.813
335.394
335.894
336.121
336.251
336.564
336.417
336.495
336.245
335.959
335.72
335.139
334.546
333.811
333.109
332.472
331.745
325.62
325.975
326.621
327.185
327.585
327.983
328.135
328.277
328.472
328.385
328.435
328.196
328.003
327.809
327.328
326.926
326.306
325.808
325.33
324.74
318.322
318.575
319.075
319.495
319.753
320.061
320.153
320.243
320.355
320.355
320.341
320.134
320.065
319.908
319.554
319.252
318.832
318.435
318.112
317.656
311.034
311.173
311.437
311.724
311.857
312.04
312.116
312.183
312.257
312.264
312.247
312.107
312.076
311.967
311.775
311.568
311.299
311.054
310.863
310.599
303.712
303.77
303.804
303.927
303.97
304.05
304.061
304.089
304.097
304.13
304.115
304.056
304.033
304.012
303.946
303.882
303.79
303.71
303.617
303.537
355.519
356.467
357.543
358.905
359.782
360.542
361.062
361.447
361.903
361.604
361.463
361.367
361.016
360.273
359.573
358.516
357.446
356.043
354.744
353.511
348.246
349.074
349.996
351.192
351.968
352.613
353.078
353.388
353.806
353.481
353.395
353.354
353.017
352.378
351.767
350.824
349.945
348.691
347.574
346.531
340.932
341.651
342.404
343.425
344.092
344.608
345.068
345.23
345.648
345.334
345.279
345.263
344.963
344.422
343.892
343.07
342.363
341.289
340.36
339.502
333.608
334.157
334.775
335.552
336.139
336.582
336.975
337.023
337.406
337.227
337.17
337.126
336.869
336.438
335.978
335.281
334.75
333.866
333.099
332.407
326.27
326.605
327.099
327.673
328.188
328.485
328.789
328.828
329.142
329.087
328.967
328.888
328.733
328.393
328.003
327.483
327.106
326.387
325.789
325.278
318.847
319.025
319.382
319.83
320.193
320.373
320.6
320.626
320.838
320.898
320.703
320.675
320.586
320.324
320.023
319.671
319.406
318.882
318.447
318.096
311.344
311.455
311.637
311.926
312.135
312.21
312.371
312.397
312.52
312.601
312.426
312.408
312.377
312.246
312.033
311.847
311.698
311.354
311.07
310.868
303.799
303.84
303.893
303.988
304.067
304.09
304.166
304.167
304.205
304.236
304.156
304.145
304.151
304.105
304.055
303.969
303.937
303.809
303.709
303.651
356.558
357.358
358.622
359.917
360.853
361.643
362.287
362.706
362.866
362.894
362.921
362.577
362.12
361.403
360.721
359.935
358.518
357.154
355.77
354.63
349.181
349.843
350.887
352.077
352.871
353.531
354.126
354.467
354.625
354.633
354.681
354.362
353.983
353.391
352.757
352.055
350.86
349.639
348.415
347.532
341.736
342.246
343.15
344.217
344.851
345.354
345.963
346.178
346.346
346.3
346.35
346.087
345.79
345.29
344.731
344.152
343.167
342.08
341.028
340.367
334.25
334.644
335.372
336.284
336.791
337.173
337.721
337.788
338.011
337.948
337.988
337.74
337.54
337.128
336.684
336.209
335.384
334.505
333.634
333.052
326.721
327.017
327.532
328.289
328.653
328.954
329.388
329.428
329.636
329.612
329.613
329.411
329.263
328.932
328.546
328.209
327.57
326.937
326.191
325.699
319.083
319.333
319.715
320.262
320.473
320.713
321.044
321.03
321.186
321.211
321.181
321.043
320.929
320.729
320.416
320.177
319.691
319.278
318.733
318.362
311.454
311.657
311.877
312.192
312.315
312.445
312.639
312.631
312.717
312.768
312.731
312.668
312.582
312.445
312.272
312.112
311.808
311.56
311.275
311.028
303.818
303.919
303.995
304.074
304.13
304.169
304.251
304.239
304.264
304.291
304.244
304.248
304.233
304.174
304.116
304.078
303.96
303.877
303.779
303.701
357.341
358.482
359.766
361.049
362.066
362.886
363.388
363.865
364.107
364.223
364.009
363.751
363.232
362.542
361.746
360.821
359.508
358.097
356.79
355.45
349.887
350.834
351.956
353.033
353.9
354.64
355.08
355.541
355.695
355.805
355.607
355.36
354.921
354.32
353.639
352.808
351.646
350.452
349.311
348.169
342.358
343.14
344.089
345.002
345.684
346.337
346.76
347.136
347.227
347.315
347.134
346.951
346.57
346.073
345.462
344.805
343.741
342.785
341.813
340.869
334.76
335.351
336.184
336.925
337.486
338
338.383
338.654
338.732
338.74
338.631
338.498
338.19
337.791
337.236
336.768
335.821
335.099
334.241
333.522
327.052
327.508
328.237
328.8
329.225
329.63
329.928
330.14
330.184
330.138
330.088
329.985
329.732
329.477
328.974
328.67
327.927
327.321
326.685
326.123
319.376
319.672
320.239
320.598
320.933
321.218
321.442
321.569
321.57
321.528
321.527
321.394
321.229
321.054
320.678
320.54
319.989
319.519
319.112
318.708
311.677
311.821
312.182
312.387
312.581
312.728
312.89
312.99
312.954
312.939
312.929
312.82
312.74
312.636
312.422
312.357
312.013
311.736
311.484
311.265
303.923
303.971
304.079
304.179
304.214
304.242
304.324
304.357
304.343
304.332
304.332
304.285
304.271
304.241
304.157
304.167
304.041
303.936
303.849
303.78
358.428
359.398
360.777
361.951
363.048
363.772
364.409
364.941
365.156
365.276
365.044
364.802
364.296
363.686
362.921
361.878
360.573
359.105
357.721
356.387
350.756
351.594
352.853
353.832
354.803
355.393
355.938
356.429
356.563
356.727
356.499
356.291
355.836
355.36
354.649
353.792
352.598
351.338
350.149
348.97
343.061
343.771
344.85
345.667
346.5
346.982
347.41
347.868
347.96
348.105
347.907
347.686
347.348
346.957
346.304
345.629
344.56
343.523
342.492
341.556
335.326
335.887
336.805
337.484
338.161
338.521
338.872
339.25
339.353
339.438
339.301
339.075
338.828
338.507
337.964
337.45
336.527
335.666
334.775
334.061
327.531
327.912
328.736
329.22
329.785
330.001
330.273
330.588
330.675
330.74
330.612
330.425
330.293
330.045
329.623
329.173
328.452
327.749
327.078
326.536
319.688
319.943
320.567
320.902
321.317
321.42
321.63
321.899
321.967
321.978
321.909
321.762
321.709
321.493
321.204
320.85
320.367
319.855
319.375
318.989
311.807
311.963
312.348
312.574
312.82
312.845
312.991
313.165
313.185
313.188
313.149
313.092
313.042
312.904
312.731
312.524
312.268
311.934
311.653
311.409
303.935
304
304.136
304.227
304.291
304.302
304.351
304.418
304.419
304.407
304.416
304.375
304.36
304.336
304.257
304.216
304.106
303.994
303.929
303.84
359.216
360.45
361.606
362.777
363.863
364.7
365.202
365.934
366.058
366.236
365.927
365.598
365.139
364.649
363.772
362.878
361.454
359.907
358.576
357.295
351.485
352.535
353.519
354.528
355.443
356.186
356.65
357.273
357.33
357.542
357.281
356.96
356.602
356.191
355.424
354.639
353.42
352.003
350.847
349.792
343.66
344.602
345.411
346.265
347.039
347.609
348.007
348.521
348.567
348.819
348.593
348.295
348.021
347.654
347.01
346.348
345.257
344.113
343.057
342.249
335.819
336.553
337.229
337.954
338.574
338.99
339.325
339.705
339.81
339.973
339.838
339.62
339.406
339.079
338.533
338.019
337.032
336.201
335.243
334.665
327.936
328.434
328.991
329.55
330.037
330.345
330.603
330.91
331.018
331.057
331.043
330.894
330.747
330.42
330.026
329.634
328.836
328.209
327.474
327.034
319.993
320.299
320.753
321.142
321.501
321.663
321.865
322.082
322.198
322.19
322.231
322.095
322.005
321.754
321.486
321.22
320.615
320.222
319.64
319.352
312.044
312.205
312.481
312.733
312.941
313.011
313.141
313.253
313.337
313.321
313.385
313.278
313.213
313.101
312.931
312.78
312.389
312.174
311.806
311.681
304.042
304.08
304.181
304.283
304.346
304.358
304.421
304.442
304.476
304.45
304.497
304.458
304.42
304.401
304.351
304.285
304.157
304.103
303.96
303.935
359.889
361.007
362.444
363.506
364.774
365.534
366.071
366.73
366.912
366.93
366.826
366.431
366.149
365.54
364.632
363.476
362.21
360.928
359.306
358.178
352.096
353.033
354.224
355.143
356.281
356.939
357.394
357.941
358.094
358.136
358.051
357.681
357.497
356.948
356.151
355.122
354.044
352.917
351.443
350.552
344.212
345.031
345.981
346.776
347.701
348.322
348.666
349.116
349.216
349.284
349.164
348.942
348.775
348.276
347.618
346.735
345.811
344.903
343.577
342.894
336.235
336.942
337.664
338.36
339.079
339.65
339.908
340.249
340.352
340.351
340.282
340.123
340.005
339.5
339.038
338.327
337.555
336.832
335.756
335.151
328.205
328.774
329.363
329.928
330.429
330.895
331.098
331.351
331.495
331.448
331.423
331.29
331.19
330.788
330.396
329.858
329.267
328.7
327.874
327.371
320.171
320.598
321.056
321.393
321.767
322.09
322.235
322.414
322.553
322.471
322.509
322.411
322.342
322.019
321.745
321.401
320.968
320.521
319.967
319.549
312.151
312.408
312.687
312.869
313.103
313.269
313.358
313.493
313.55
313.493
313.517
313.457
313.463
313.226
313.106
312.854
312.612
312.369
312.007
311.736
304.074
304.155
304.241
304.316
304.402
304.443
304.514
304.519
304.525
304.506
304.536
304.51
304.498
304.442
304.388
304.309
304.224
304.151
304.041
303.936
360.546
361.633
363.173
364.231
365.374
366.316
366.818
367.424
367.501
367.796
367.51
367.151
366.885
366.318
365.256
364.118
363.093
361.418
360.086
358.92
352.591
353.546
354.875
355.796
356.808
357.596
358.031
358.574
358.622
358.884
358.612
358.319
358.096
357.615
356.693
355.704
354.877
353.376
352.195
351.202
344.611
345.421
346.567
347.312
348.173
348.872
349.187
349.656
349.674
349.895
349.652
349.412
349.268
348.849
348.071
347.241
346.553
345.286
344.25
343.391
336.57
337.241
338.19
338.795
339.479
340.061
340.321
340.75
340.712
340.857
340.681
340.525
340.39
340.055
339.439
338.711
338.144
337.188
336.279
335.576
328.459
328.98
329.756
330.209
330.718
331.178
331.404
331.796
331.729
331.842
331.674
331.586
331.477
331.247
330.758
330.182
329.732
329.024
328.252
327.722
320.383
320.709
321.269
321.597
321.974
322.292
322.476
322.815
322.683
322.766
322.657
322.62
322.549
322.353
322.027
321.624
321.276
320.799
320.212
319.83
312.28
312.437
312.784
312.982
313.21
313.406
313.49
313.722
313.636
313.679
313.596
313.594
313.614
313.455
313.247
313.023
312.778
312.501
312.133
311.877
304.126
304.182
304.28
304.348
304.444
304.498
304.508
304.587
304.57
304.57
304.557
304.557
304.589
304.52
304.436
304.383
304.275
304.203
304.069
303.98
360.945
362.313
363.634
364.959
365.927
366.783
367.496
367.914
368.363
368.422
368.113
367.853
367.517
366.844
365.784
364.73
363.598
362.152
360.808
359.354
352.98
354.113
355.323
356.453
357.269
358.01
358.639
359.013
359.338
359.41
359.14
358.942
358.648
358.084
357.09
356.191
355.247
353.968
352.797
351.584
344.973
345.86
346.951
347.893
348.575
349.23
349.728
350.034
350.273
350.387
350.135
350.012
349.727
349.259
348.377
347.559
346.819
345.767
344.761
343.729
336.878
337.587
338.551
339.294
339.834
340.348
340.763
341.027
341.205
341.306
341.134
341.023
340.742
340.353
339.689
338.948
338.366
337.531
336.683
335.823
328.752
329.29
330.061
330.648
330.995
331.446
331.723
331.976
332.066
332.178
332.054
331.99
331.699
331.42
330.938
330.32
329.896
329.219
328.536
327.904
320.613
320.975
321.547
321.937
322.153
322.483
322.701
322.903
322.917
322.98
322.951
322.875
322.66
322.453
322.145
321.697
321.38
320.867
320.386
319.989
312.393
312.612
312.985
313.185
313.31
313.506
313.635
313.777
313.783
313.84
313.835
313.767
313.603
313.472
313.285
313.031
312.871
312.518
312.277
312.026
304.134
304.233
304.359
304.43
304.478
304.551
304.542
304.622
304.634
304.638
304.621
304.639
304.558
304.529
304.469
304.376
304.326
304.191
304.117
304.027
361.28
362.587
364.223
365.616
366.43
367.219
367.917
368.428
368.764
368.762
368.655
368.46
367.947
367.208
366.357
365.138
364.122
362.611
361.252
359.891
353.231
354.369
355.817
357.031
357.644
358.403
358.96
359.418
359.73
359.724
359.59
359.486
359.02
358.381
357.626
356.589
355.695
354.398
353.218
352.08
345.136
346.113
347.363
348.401
348.847
349.538
349.96
350.358
350.622
350.614
350.515
350.443
349.991
349.466
348.854
347.975
347.239
346.135
345.104
344.173
336.985
337.802
338.832
339.698
339.986
340.667
340.908
341.276
341.509
341.464
341.431
341.357
340.916
340.509
340.049
339.318
338.711
337.825
336.979
336.242
328.815
329.432
330.27
330.94
331.147
331.714
331.772
332.174
332.314
332.284
332.294
332.237
331.858
331.553
331.204
330.609
330.16
329.46
328.818
328.316
320.616
321.077
321.689
322.129
322.286
322.67
322.673
323.036
323.076
323.085
323.124
323.052
322.79
322.543
322.325
321.903
321.603
321.067
320.61
320.288
312.382
312.691
313.03
313.288
313.4
313.623
313.638
313.83
313.845
313.886
313.896
313.839
313.708
313.533
313.418
313.177
312.994
312.666
312.43
312.188
304.137
304.259
304.375
304.455
304.493
304.568
304.569
304.636
304.67
304.67
304.67
304.63
304.595
304.553
304.501
304.429
304.363
304.242
304.148
304.082
361.538
362.987
364.428
365.528
366.613
367.547
368.292
368.871
369.307
369.208
369.214
368.796
368.226
367.586
366.847
365.477
364.478
362.993
361.332
360.114
353.449
354.686
355.979
356.93
357.854
358.67
359.312
359.816
360.152
360.093
360.13
359.748
359.214
358.722
358.094
356.871
355.958
354.67
353.291
352.259
345.295
346.333
347.49
348.307
349.068
349.776
350.285
350.71
350.945
350.956
350.985
350.65
350.155
349.836
349.24
348.223
347.401
346.352
345.163
344.33
337.103
337.956
338.927
339.615
340.241
340.803
341.194
341.604
341.718
341.717
341.791
341.528
341.073
340.858
340.349
339.504
338.86
337.962
337.062
336.346
328.894
329.588
330.334
330.867
331.337
331.809
332.063
332.422
332.455
332.495
332.539
332.342
331.964
331.87
331.415
330.759
330.264
329.554
328.848
328.338
320.679
321.207
321.695
322.101
322.431
322.758
322.901
323.219
323.227
323.209
323.293
323.106
322.892
322.809
322.465
321.999
321.63
321.142
320.628
320.313
312.434
312.769
313.057
313.249
313.497
313.679
313.756
313.985
313.973
313.958
314.002
313.882
313.767
313.717
313.506
313.26
313.024
312.699
312.412
312.233
304.159
304.294
304.383
304.429
304.519
304.592
304.609
304.69
304.676
304.682
304.704
304.638
304.64
304.622
304.535
304.461
304.358
304.24
304.175
304.11
361.852
363.04
364.534
365.868
367.007
367.811
368.413
369.149
369.405
369.51
369.573
368.946
368.412
367.978
367.076
365.778
364.716
363.121
361.474
360.243
353.72
354.741
356.031
357.231
358.184
358.876
359.429
360.033
360.265
360.399
360.405
359.906
359.375
359
358.268
357.172
356.16
354.842
353.346
352.351
345.533
346.426
347.528
348.559
349.313
349.911
350.39
350.879
351.08
351.197
351.196
350.807
350.31
349.971
349.421
348.472
347.6
346.488
345.152
344.393
337.347
338.027
338.993
339.805
340.425
340.926
341.277
341.711
341.814
341.939
341.984
341.653
341.22
340.918
340.471
339.725
339
338.108
336.975
336.406
329.126
329.635
330.376
330.994
331.485
331.931
332.183
332.48
332.569
332.665
332.688
332.444
332.069
331.839
331.476
330.934
330.343
329.674
328.803
328.394
320.832
321.179
321.7
322.152
322.546
322.849
323.002
323.234
323.288
323.338
323.356
323.211
322.916
322.761
322.504
322.116
321.669
321.237
320.584
320.35
312.531
312.698
313.043
313.339
313.57
313.731
313.82
313.98
313.977
314.019
313.999
313.946
313.754
313.654
313.518
313.299
313.006
312.786
312.346
312.23
304.203
304.249
304.355
304.478
304.534
304.588
304.629
304.701
304.692
304.693
304.688
304.676
304.602
304.564
304.528
304.458
304.362
304.276
304.128
304.07
361.94
363.001
364.712
366.05
367.062
367.99
368.873
369.212
369.457
369.632
369.853
369.154
368.492
367.943
367.261
366.113
364.8
363.568
361.81
360.269
353.835
354.711
356.202
357.371
358.202
359.036
359.828
360.105
360.315
360.42
360.69
360.067
359.486
359.015
358.409
357.42
356.273
355.232
353.653
352.385
345.705
346.405
347.64
348.673
349.341
350.032
350.741
350.956
351.093
351.151
351.441
350.88
350.428
350.016
349.538
348.655
347.708
346.849
345.482
344.447
337.474
338.016
339.031
339.923
340.441
341.028
341.571
341.739
341.825
341.863
342.131
341.705
341.322
340.97
340.622
339.851
339.135
338.393
337.295
336.476
329.226
329.639
330.423
331.079
331.5
331.993
332.428
332.505
332.531
332.572
332.813
332.506
332.208
331.939
331.66
331.027
330.518
329.91
329.052
328.444
320.946
321.198
321.767
322.195
322.552
322.946
323.26
323.243
323.252
323.301
323.485
323.301
323.071
322.889
322.659
322.144
321.888
321.385
320.811
320.368
312.61
312.698
313.09
313.347
313.579
313.765
314.002
313.942
313.957
314.019
314.109
314.014
313.874
313.784
313.608
313.284
313.191
312.836
312.521
312.249
304.227
304.267
304.39
304.471
304.544
304.61
304.712
304.676
304.692
304.674
304.73
304.7
304.663
304.619
304.571
304.456
304.429
304.316
304.205
304.096
)
;

boundaryField
{
    hotSide
    {
        type            fixedGradient;
        gradient        nonuniform List<scalar> 
400
(
455.939
472.076
487.877
503.272
518.19
532.562
546.319
559.394
571.722
583.241
593.892
603.621
612.375
620.109
626.782
632.358
636.807
640.105
642.235
643.185
467.216
483.819
500.081
515.928
531.29
546.094
560.269
573.746
586.458
598.342
609.336
619.384
628.433
636.435
643.348
649.135
653.764
657.211
659.458
660.492
477.229
494.254
510.933
527.192
542.957
558.153
572.708
586.552
599.615
611.832
623.141
633.482
642.802
651.052
658.187
664.17
668.968
672.555
674.913
676.029
485.925
503.325
520.375
537
553.124
568.671
583.566
597.738
611.116
623.632
635.224
645.83
655.395
663.869
671.206
677.368
682.322
686.039
688.502
689.696
493.261
510.986
528.359
545.303
561.739
577.591
592.784
607.243
620.897
633.676
645.517
656.356
666.138
674.812
682.329
688.652
693.745
697.582
700.141
701.409
499.206
517.205
534.849
552.06
568.761
584.872
600.316
615.019
628.908
641.912
653.965
665.005
674.974
683.82
691.494
697.957
703.173
707.115
709.762
711.098
503.738
521.956
539.819
557.247
574.161
590.481
606.131
621.032
635.113
648.301
660.529
671.735
681.859
690.848
698.654
705.235
710.556
714.589
717.312
718.711
506.846
525.228
543.255
560.846
577.921
594.4
610.205
625.259
639.487
652.817
665.181
676.516
686.761
695.863
703.774
710.451
715.858
719.966
722.754
724.207
508.526
527.015
545.15
562.849
580.032
596.619
612.53
627.687
642.017
655.445
667.905
679.331
689.663
698.848
706.836
713.584
719.056
723.224
726.064
727.562
508.781
527.321
545.507
563.259
580.496
597.137
613.103
628.316
642.7
656.183
668.697
680.176
690.56
699.795
707.831
714.626
720.142
724.351
727.23
728.764
507.622
526.155
544.336
562.085
579.321
595.964
611.933
627.152
641.544
655.037
667.563
679.056
689.456
698.708
706.764
713.579
719.119
723.351
726.256
727.816
505.066
523.534
541.654
559.345
576.526
593.117
609.039
624.213
638.566
652.025
664.52
675.988
686.368
695.605
703.65
710.461
716.001
720.239
723.154
724.73
501.135
519.482
537.484
555.061
572.133
588.62
604.443
619.526
633.792
647.172
659.595
670.998
681.322
690.511
698.517
705.297
710.815
715.041
717.952
719.534
495.858
514.028
531.857
549.266
566.176
582.507
598.181
613.122
627.257
640.513
652.823
664.123
674.355
683.464
691.401
698.125
703.599
707.795
710.688
712.265
489.268
507.207
524.809
541.997
558.692
574.816
590.293
605.046
619.003
632.093
644.249
655.409
665.514
674.511
682.351
688.994
694.403
698.55
701.412
702.974
481.406
499.06
516.383
533.298
549.728
565.597
580.828
595.347
609.082
621.964
633.928
644.911
654.856
663.71
671.426
677.963
683.286
687.367
690.184
691.721
472.316
489.634
506.628
523.221
539.338
554.903
569.843
584.084
597.556
610.191
621.924
632.695
642.447
651.129
658.694
665.103
670.321
674.319
677.078
678.581
462.05
478.984
495.6
511.824
527.582
542.8
557.405
571.326
584.495
596.844
608.311
618.837
628.366
636.848
644.238
650.496
655.59
659.491
662.179
663.64
450.667
467.172
483.365
499.176
514.53
529.358
543.588
557.15
569.978
582.006
593.174
603.424
612.701
620.957
628.148
634.236
639.188
642.977
645.584
646.994
438.233
454.265
469.994
485.349
500.261
514.659
528.476
541.643
554.095
565.77
576.607
586.552
595.551
603.557
610.528
616.427
621.221
624.886
627.402
628.755
)
;
    }
    coldSide
    {
        type            mixed;
        refValue        uniform 300;
        refGradient     uniform 0;
        valueFraction   uniform 0.991591;
        source          uniform 0;
        value           nonuniform List<scalar> 
400
(
300.026
300.027
300.027
300.028
300.029
300.03
300.031
300.031
300.032
300.032
300.033
300.033
300.034
300.034
300.035
300.035
300.035
300.035
300.035
300.036
300.026
300.027
300.028
300.029
300.029
300.03
300.031
300.032
300.032
300.033
300.033
300.034
300.034
300.035
300.035
300.036
300.036
300.036
300.036
300.036
300.027
300.028
300.028
300.029