/*--------------------------------*- C++ -*----------------------------------*\
| =========                 |                                                 |
| \\      /  F ield         | OpenFOAM: The Open Source CFD Toolbox           |
|  \\    /   O peration     | Version:  2212                                  |
|   \\  /    A nd           | Website:  www.openfoam.com                      |
|    \\/     M anipulation  |                                                 |
\*---------------------------------------------------------------------------*/
FoamFile
{
    version     2.0;
    format      ascii;
    arch        "LSB;label=32;scalar=64";
    class       volScalarField;
    location    "0";
    object      stateMean;
}
// * * * * * * * * * * * * * * * * * * * * * * * * * * * * * * * * * * * * * //

dimensions      [0 0 0 1 0 0 0];

internalField   nonuniform List<scalar> 
3200
(
326.048
326.424
326.872
327.226
327.582
327.785
328.089
328.179
328.183
328.113
328.15
327.999
327.847
327.488
327.174
326.845
326.367
325.91
325.407
324.919
322.866
323.1
323.472
323.802
324.03
324.36
324.497
324.65
324.748
324.618
324.583
324.415
324.295
323.986
323.757
323.452
323.129
322.567
322.214
321.81
319.382
319.628
319.999
320.226
320.537
320.817
320.853
321.071
321.009
320.978
320.946
320.818
320.682
320.459
320.209
320.004
319.701
319.326
318.999
318.645
315.946
316.23
316.506
316.801
316.907
317.024
317.152
317.29
317.29
317.26
317.337
317.183
317.042
316.891
316.684
316.449
316.186
315.982
315.564
315.336
312.479
312.633
312.93
313.052
313.158
313.364
313.438
313.538
313.487
313.516
313.515
313.433
313.41
313.16
313.006
312.896
312.652
312.479
312.24
311.984
308.925
309.152
309.229
309.323
309.491
309.561
309.66
309.616
309.68
309.628
309.67
309.606
309.547
309.475
309.443
309.207
309.076
308.908
308.752
308.644
305.361
305.45
305.577
305.681
305.696
305.733
305.757
305.818
305.751
305.823
305.817
305.8
305.782
305.767
305.6
305.573
305.461
305.462
305.257
305.182
301.833
301.845
301.872
301.863
301.909
301.92
302.042
301.972
302.007
301.93
302.001
301.945
301.953
301.836
301.882
301.83
301.849
301.835
301.803
301.768
326.875
327.271
327.757
328.13
328.455
328.783
328.972
329.054
329.142
329.189
329.057
328.953
328.732
328.393
328.087
327.751
327.251
326.761
326.297
325.808
323.426
323.783
324.191
324.556
324.848
325.08
325.311
325.408
325.399
325.348
325.28
325.234
325.03
324.812
324.551
324.227
323.845
323.375
322.942
322.566
319.935
320.206
320.584
320.88
321.094
321.362
321.43
321.602
321.637
321.585
321.592
321.483
321.367
321.087
320.938
320.624
320.254
319.936
319.525
319.211
316.432
316.7
316.87
317.203
317.39
317.53
317.646
317.765
317.792
317.744
317.743
317.713
317.624
317.303
317.104
316.961
316.657
316.387
316.123
315.839
312.852
312.953
313.229
313.363
313.562
313.711
313.82
313.832
313.933
313.914
313.888
313.85
313.706
313.555
313.416
313.208
312.956
312.786
312.501
312.337
309.117
309.255
309.459
309.614
309.704
309.864
309.911
309.943
310.027
310.001
310.001
309.833
309.808
309.775
309.609
309.5
309.368
309.108
309.032
308.893
305.559
305.638
305.72
305.794
305.892
305.894
305.916
305.979
306.005
306.017
305.955
305.937
305.889
305.915
305.814
305.714
305.601
305.502
305.44
305.299
301.902
301.876
301.938
301.986
301.957
302.058
302.038
302.021
301.96
302.05
301.976
302.034
301.985
301.967
302.046
301.868
301.867
301.856
301.85
301.749
327.91
328.352
328.861
329.361
329.672
329.935
330.094
330.36
330.473
330.427
330.298
330.19
330.008
329.71
329.385
329.017
328.567
328.016
327.36
326.958
324.375
324.675
325.181
325.474
325.822
326.128
326.338
326.413
326.534
326.466
326.448
326.324
326.131
325.928
325.645
325.246
324.832
324.37
323.892
323.508
320.782
321.025
321.449
321.669
321.999
322.195
322.27
322.488
322.522
322.601
322.445
322.428
322.286
322.035
321.746
321.468
321.16
320.791
320.337
320.026
317.031
317.334
317.513
317.909
317.991
318.229
318.319
318.548
318.563
318.527
318.493
318.448
318.279
318.074
317.903
317.748
317.413
317.093
316.661
316.51
313.287
313.486
313.718
313.994
314.087
314.27
314.402
314.395
314.407
314.464
314.448
314.479
314.245
314.137
313.91
313.799
313.639
313.342
313.047
312.795
309.533
309.684
309.802
309.993
310.142
310.171
310.353
310.35
310.387
310.364
310.345
310.295
310.236
310.113
310.052
309.887
309.699
309.532
309.345
309.204
305.78
305.799
305.928
306.08
306.07
306.183
306.253
306.255
306.273
306.243
306.142
306.152
306.154
306.067
305.981
305.938
305.887
305.737
305.679
305.585
301.963
301.932
302.004
302.054
302.025
302.181
302.065
302.04
302.11
302.143
302.104
302.136
302.077
302.039
302.001
302.021
301.96
301.88
301.826
301.853
329.146
329.61
330.174
330.538
330.95
331.236
331.602
331.709
331.771
331.82
331.764
331.53
331.421
331.09
330.773
330.291
329.757
329.295
328.671
328.203
325.408
325.797
326.182
326.691
326.976
327.268
327.565
327.69
327.673
327.711
327.611
327.528
327.309
327.128
326.807
326.521
325.971
325.576
325.06
324.616
321.608
321.87
322.281
322.607
322.979
323.202
323.288
323.558
323.535
323.539
323.507
323.342
323.264
323.008
322.773
322.395
322.12
321.689
321.241
320.905
317.648
318.008
318.228
318.673
318.832
318.984
319.233
319.33
319.335
319.329
319.373
319.224
319.074
318.891
318.696
318.397
318.159
317.845
317.532
317.231
313.852
314.05
314.334
314.552
314.748
314.915
314.949
315.031
315.109
315.057
315.059
314.946
314.917
314.772
314.627
314.445
314.168
313.904
313.685
313.41
309.885
310.11
310.272
310.334
310.544
310.65
310.733
310.8
310.861
310.873
310.765
310.705
310.625
310.652
310.493
310.346
310.176
309.96
309.767
309.603
306.035
306.09
306.158
306.306
306.339
306.428
306.474
306.5
306.577
306.505
306.546
306.445
306.456
306.331
306.33
306.334
306.166
305.91
305.925
305.787
302.058
302.015
302.115
302.118
302.062
302.176
302.186
302.193
302.19
302.128
302.173
302.111
302.087
302.066
302.075
302.095
302.11
301.988
301.965
301.947
330.307
330.854
331.348
331.891
332.372
332.675
332.927
333.112
333.18
333.315
333.216
333.022
332.874
332.555
332.21
331.737
331.211
330.702
330.075
329.467
326.415
326.875
327.364
327.79
328.123
328.504
328.691
328.849
328.971
328.925
328.891
328.704
328.65
328.371
328.098
327.674
327.24
326.655
326.206
325.727
322.483
322.818
323.182
323.59
323.916
324.208
324.444
324.517
324.607
324.608
324.608
324.452
324.327
324.154
323.833
323.469
323.064
322.721
322.282
321.85
318.474
318.778
319.064
319.38
319.668
319.906
320.007
320.182
320.213
320.188
320.147
320.061
320.028
319.745
319.645
319.283
319.06
318.572
318.287
317.949
314.425
314.667
314.934
315.106
315.372
315.572
315.648
315.739
315.768
315.737
315.78
315.662
315.503
315.428
315.292
315.081
314.854
314.546
314.284
314.024
310.275
310.439
310.642
310.833
310.957
311.098
311.196
311.214
311.321
311.42
311.284
311.224
311.188
310.968
310.935
310.799
310.6
310.421
310.262
310.044
306.209
306.297
306.435
306.584
306.602
306.635
306.73
306.735
306.75
306.797
306.825
306.714
306.649
306.665
306.619
306.473
306.369
306.289
306.108
306.035
302.08
302.073
302.089
302.201
302.244
302.244
302.273
302.258
302.281
302.342
302.242
302.296
302.212
302.233
302.208
302.225
302.097
302.047
302.085
302.022
331.619
332.127
332.624
333.225
333.673
333.983
334.337
334.599
334.638
334.667
334.61
334.441
334.274
333.938
333.602
333.13
332.558
331.974
331.352
330.728
327.541
327.818
328.393
328.897
329.274
329.604
329.844
330.034
330.125
330.112
330.234
330.025
329.823
329.58
329.26
328.816
328.394
327.809
327.328
326.83
323.388
323.69
324.175
324.566
324.902
325.206
325.433
325.577
325.587
325.602
325.577
325.519
325.433
325.156
324.848
324.5
324.048
323.722
323.187
322.855
319.256
319.484
319.847
320.18
320.449
320.687
320.871
320.978
321.102
321.062
321.036
320.946
320.879
320.682
320.394
320.164
319.786
319.485
319.09
318.769
315.013
315.207
315.456
315.682
315.997
316.138
316.276
316.384
316.409
316.492
316.444
316.321
316.301
316.133
315.892
315.703
315.431
315.192
314.887
314.615
310.688
310.859
311.154
311.309
311.369
311.61
311.689
311.729
311.725
311.741
311.8
311.673
311.652
311.555
311.445
311.307
311.091
310.913
310.659
310.461
306.476
306.6
306.681
306.833
306.851
306.911
306.985
307.017
307.064
307.065
307.027
307.163
306.979
306.897
306.917
306.754
306.665
306.586
306.388
306.361
302.194
302.158
302.216
302.248
302.292
302.347
302.32
302.361
302.4
302.36
302.363
302.404
302.342
302.346
302.303
302.269
302.224
302.17
302.163
302.177
332.74
333.349
333.938
334.52
335.025
335.386
335.683
335.935
336.066
336.053
336.022
335.917
335.68
335.403
334.952
334.511
333.96
333.313
332.627
332.071
328.508
328.968
329.416
329.982
330.475
330.79
331.04
331.282
331.408
331.454
331.322
331.22
331.042
330.796
330.449
329.968
329.641
329.069
328.478
327.967
324.238
324.557
325.056
325.51
325.855
326.158
326.435
326.59
326.584
326.719
326.727
326.58
326.397
326.197
325.874
325.452
325.171
324.615
324.111
323.781
319.951
320.248
320.618
320.964
321.274
321.509
321.628
321.813
321.877
321.899
321.897
321.767
321.639
321.499
321.242
320.99
320.637
320.251
319.866
319.516
315.561
315.775
316.122
316.344
316.551
316.727
316.834
317.094
317.084
317.147
317.111
316.956
316.924
316.774
316.597
316.349
316.13
315.816
315.484
315.214
311.151
311.278
311.551
311.718
311.834
311.916
312.13
312.199
312.218
312.216
312.209
312.217
312.069
311.992
311.83
311.735
311.566
311.375
311.074
310.883
306.678
306.756
306.888
307.018
307.125
307.201
307.274
307.27
307.393
307.363
307.378
307.29
307.263
307.221
307.149
307.059
306.923
306.759
306.719
306.529
302.223
302.287
302.302
302.36
302.397
302.447
302.517
302.361
302.522
302.448
302.377
302.479
302.429
302.434
302.396
302.407
302.328
302.284
302.193
302.236
333.863
334.477
335.17
335.724
336.269
336.67
337.053
337.34
337.433
337.428
337.36
337.366
337.078
336.78
336.328
335.865
335.313
334.595
333.934
333.291
329.52
329.992
330.566
331.083
331.517
331.985
332.24
332.438
332.524
332.594
332.518
332.494
332.307
332.033
331.679
331.256
330.734
330.117
329.594
329.022
325.112
325.495
325.943
326.402
326.764
327.127
327.388
327.56
327.714
327.687
327.686
327.597
327.373
327.174
326.823
326.475
326.123
325.619
325.117
324.616
320.601
320.904
321.359
321.78
322.039
322.345
322.568
322.633
322.715
322.768
322.719
322.627
322.551
322.363
322.072
321.768
321.465
321.086
320.646
320.309
316.05
316.343
316.625
316.955
317.254
317.447
317.53
317.64
317.766
317.827
317.715
317.713
317.516
317.484
317.194
316.932
316.721
316.365
316.037
315.847
311.503
311.686
311.914
312.19
312.201
312.453
312.566
312.62
312.775
312.703
312.741
312.647
312.552
312.493
312.354
312.101
312.012
311.752
311.498
311.395
306.899
306.964
307.189
307.253
307.423
307.459
307.593
307.501
307.596
307.628
307.689
307.614
307.564
307.51
307.367
307.296
307.263
307.06
306.912
306.832
302.345
302.376
302.45
302.425
302.454
302.469
302.527
302.54
302.593
302.562
302.585
302.509
302.576
302.556
302.478
302.473
302.468
302.43
302.312
302.344
334.987
335.654
336.317
336.974
337.476
337.953
338.309
338.63
338.796
338.791
338.776
338.637
338.432
338.111
337.658
337.107
336.542
335.845
335.221
334.512
330.473
331.035
331.673
332.124
332.626
333.068
333.36
333.589
333.719
333.797
333.809
333.648
333.469
333.213
332.718
332.341
331.872
331.24
330.626
330.008
325.938
326.382
326.891
327.279
327.763
328.035
328.379
328.515
328.664
328.677
328.686
328.53
328.33
328.231
327.848
327.447
327.072
326.556
325.973
325.479
321.271
321.66
322.034
322.388
322.782
323.063
323.256
323.416
323.552
323.574
323.569
323.419
323.352
323.141
322.902
322.572
322.249
321.803
321.37
321.023
316.561
316.906
317.246
317.498
317.778
317.998
318.103
318.305
318.361
318.404
318.379
318.264
318.274
318.091
317.837
317.608
317.313
316.972
316.714
316.368
311.881
312.06
312.27
312.574
312.688
312.844
313.028
313.075
313.176
313.205
313.135
313.131
312.971
312.899
312.778
312.605
312.35
312.122
311.96
311.748
307.106
307.323
307.33
307.552
307.684
307.787
307.853
307.862
307.873
307.9
307.933
307.917
307.859
307.771
307.659
307.481
307.426
307.257
307.185
307.044
302.411
302.503
302.462
302.545
302.564
302.539
302.603
302.608
302.656
302.604
302.588
302.701
302.609
302.497
302.621
302.563
302.511
302.403
302.369
302.336
336.053
336.745
337.403
338.117
338.706
339.207
339.603
339.824
339.996
340.097
340.046
339.893
339.641
339.423
338.929
338.459
337.837
337.055
336.318
335.714
331.45
332.013
332.605
333.158
333.667
334.13
334.404
334.699
334.794
334.961
334.901
334.73
334.579
334.222
333.899
333.492
332.962
332.227
331.68
331.082
326.705
327.201
327.662
328.2
328.609
328.888
329.3
329.496
329.59
329.608
329.718
329.571
329.4
329.142
328.771
328.441
327.95
327.423
326.847
326.38
321.9
322.269
322.727
323.181
323.571
323.759
323.958
324.198
324.319
324.365
324.33
324.184
324.141
323.93
323.675
323.324
322.999
322.536
322.165
321.674
317.038
317.474
317.737
318.038
318.339
318.565
318.757
318.905
318.9
318.976
318.911
318.921
318.791
318.572
318.437
318.273
317.872
317.568
317.241
316.824
312.222
312.408
312.681
312.941
313.142
313.282
313.449
313.511
313.538
313.545
313.553
313.469
313.412
313.387
313.211
313.068
312.786
312.544
312.348
312.153
307.374
307.512
307.69
307.765
307.969
308
308.097
308.108
308.128
308.187
308.2
308.167
308.163
308.078
307.928
307.884
307.656
307.512
307.479
307.331
302.497
302.565
302.587
302.623
302.66
302.616
302.713
302.669
302.782
302.706
302.742
302.728
302.665
302.604
302.766
302.568
302.598
302.545
302.505
302.436
337.07
337.789
338.625
339.302
339.814
340.35
340.748
341.025
341.208
341.297
341.318
341.168
340.903
340.589
340.148
339.605
338.955
338.222
337.501
336.764
332.3
332.869
333.5
334.18
334.647
335.164
335.415
335.704
335.845
336.005
335.9
335.825
335.634
335.295
334.937
334.521
333.891
333.307
332.641
332.06
327.396
327.89
328.497
328.995
329.512
329.823
330.141
330.33
330.507
330.514
330.533
330.453
330.328
329.993
329.654
329.3
328.78
328.256
327.678
327.263
322.599
322.976
323.41
323.771
324.125
324.43
324.747
324.868
325.053
325.066
325.051
325.03
324.85
324.617
324.382
324.007
323.74
323.217
322.818
322.362
317.545
317.918
318.231
318.58
318.838
319.111
319.318
319.437
319.552
319.568
319.573
319.395
319.421
319.251
318.984
318.753
318.424
318.138
317.759
317.458
312.569
312.762
313.091
313.281
313.523
313.644
313.761
313.97
314.024
313.997
313.985
314.044
313.936
313.737
313.518
313.395
313.277
312.976
312.704
312.482
307.467
307.734
307.902
307.983
308.046
308.223
308.231
308.303
308.301
308.41
308.466
308.392
308.306
308.237
308.194
308.072
307.986
307.829
307.673
307.454
302.471
302.567
302.574
302.717
302.776
302.821
302.81
302.753
302.774
302.807
302.809
302.808
302.818
302.79
302.77
302.745
302.606
302.616
302.552
302.548
338.053
338.805
339.605
340.283
340.894
341.47
341.858
342.157
342.399
342.489
342.466
342.362
342.11
341.772
341.333
340.741
340.096
339.334
338.549
337.789
333.185
333.752
334.53
335.033
335.634
336.092
336.392
336.749
336.939
337.01
336.907
336.868
336.664
336.392
335.946
335.428
334.822
334.25
333.533
332.938
328.201
328.691
329.279
329.782
330.264
330.628
330.93
331.144
331.376
331.328
331.413
331.336
331.122
330.905
330.514
330.195
329.586
329.074
328.495
328.007
323.112
323.487
324.037
324.443
324.879
325.098
325.32
325.605
325.726
325.839
325.73
325.705
325.419
325.374
325.082
324.739
324.323
323.841
323.419
322.968
318.071
318.47
318.68
319.131
319.379
319.641
319.785
319.963
320.065
320.123
320.092
319.983
319.89
319.779
319.52
319.274
318.963
318.613
318.208
317.903
312.929
313.177
313.413
313.676
313.836
313.994
314.165
314.295
314.363
314.396
314.393
314.379
314.275
314.186
313.94
313.811
313.562
313.284
313.117
312.843
307.822
307.87
308.066
308.172
308.388
308.48
308.609
308.533
308.682
308.622
308.628
308.713
308.589
308.508
308.465
308.355
308.215
308.009
307.855
307.716
302.654
302.617
302.688
302.735
302.777
302.809
302.849
302.929
302.958
302.967
302.924
302.947
302.86
302.875
302.851
302.789
302.727
302.684
302.633
302.576
338.967
339.749
340.604
341.257
341.976
342.505
342.948
343.197
343.422
343.646
343.547
343.468
343.183
342.895
342.405
341.851
341.153
340.371
339.617
338.815
333.917
334.597
335.294
335.865
336.471
336.937
337.425
337.618
337.89
337.926
337.958
337.827
337.605
337.309
336.967
336.432
335.861
335.203
334.457
333.872
328.874
329.338
329.954
330.459
330.977
331.395
331.728
331.918
332.096
332.245
332.165
332.081
331.994
331.731
331.372
330.93
330.414
329.894
329.252
328.788
323.688
324.106
324.639
324.991
325.403
325.749
326.119
326.235
326.366
326.427
326.473
326.339
326.247
325.986
325.725
325.309
325.066
324.529
324.072
323.651
318.515
318.824
319.174
319.504
319.82
320.155
320.307
320.481
320.639
320.624
320.585
320.485
320.411
320.382
320.114
319.831
319.517
319.082
318.786
318.478
313.249
313.491
313.675
313.938
314.228
314.425
314.551
314.596
314.706
314.86
314.778
314.69
314.612
314.482
314.363
314.216
313.969
313.661
313.383
313.175
307.97
308.089
308.305
308.444
308.449
308.668
308.743
308.794
308.952
308.91
308.815
308.791
308.768
308.728
308.672
308.479
308.399
308.232
308.138
307.915
302.633
302.658
302.744
302.792
302.762
302.919
302.843
302.95
302.943
302.93
302.958
302.96
302.987
302.955
302.862
302.874
302.813
302.726
302.696
302.672
339.76
340.498
341.46
342.176
342.835
343.448
343.866
344.253
344.473
344.569
344.598
344.524
344.213
343.929
343.457
342.809
342.157
341.421
340.497
339.789
334.682
335.321
336.061
336.753
337.387
337.776
338.254
338.501
338.733
338.856
338.749
338.727
338.514
338.208
337.728
337.314
336.713
335.963
335.245
334.623
329.529
329.993
330.528
331.192
331.687
332.104
332.425
332.692
332.854
332.898
333.001
332.954
332.703
332.512
332.09
331.681
331.196
330.58
329.953
329.457
324.195
324.606
325.135
325.552
326.06
326.312
326.571
326.852
326.975
327.079
326.984
326.965
326.835
326.659
326.373
326.012
325.53
325.153
324.638
324.163
318.77
319.22
319.563
319.956
320.298
320.564
320.782
320.895
321.048
321.157
321.132
321.076
320.961
320.72
320.576
320.341
320.026
319.572
319.17
318.826
313.505
313.797
314.033
314.188
314.555
314.686
314.904
314.923
315.078
315.128
315.12
315.091
314.96
314.877
314.671
314.495
314.23
314.043
313.702
313.516
308.134
308.281
308.452
308.626
308.703
308.879
308.964
309.039
309.09
308.979
309.084
309.055
309.063
308.923
308.901
308.759
308.556
308.388
308.218
308.179
302.763
302.725
302.733
302.851
302.942
302.93
302.977
303.023
303.097
303.014
303.088
303.049
302.996
302.923
302.957
302.891
302.845
302.841
302.738
302.746
340.568
341.347
342.244
343.002
343.727
344.3
344.78
345.205
345.33
345.463
345.492
345.416
345.189
344.848
344.363
343.783
343.091
342.323
341.394
340.614
335.315
335.969
336.734
337.446
338.128
338.57
339.019
339.345
339.518
339.717
339.578
339.552
339.33
339.006
338.627
338.102
337.448
336.785
336.058
335.427
330.016
330.593
331.248
331.793
332.287
332.788
333.086
333.355
333.58
333.667
333.683
333.524
333.41
333.121
332.797
332.414
331.814
331.233
330.603
330.071
324.669
325.15
325.64
326.109
326.558
326.897
327.158
327.397
327.569
327.636
327.68
327.548
327.34
327.193
326.943
326.603
326.087
325.671
325.118
324.718
319.225
319.557
320.035
320.391
320.643
320.946
321.171
321.338
321.496
321.591
321.566
321.505
321.42
321.211
320.925
320.722
320.371
319.949
319.601
319.312
313.791
314.005
314.268
314.655
314.834
315.02
315.148
315.292
315.398
315.415
315.419
315.406
315.287
315.169
314.996
314.819
314.57
314.346
314.017
313.804
308.296
308.415
308.608
308.78
308.889
309.09
309.114
309.16
309.181
309.311
309.272
309.251
309.212
309.14
309.059
308.912
308.801
308.592
308.48
308.258
302.753
302.855
302.888
302.919
303.037
302.963
303.084
303.069
303.051
303.088
303.128
303.064
303.099
303.009
303.011
303.009
302.916
302.924
302.8
302.826
341.271
342.034
342.993
343.8
344.508
345.087
345.667
346.035
346.339
346.397
346.398
346.228
346.066
345.694
345.188
344.628
343.891
343.099
342.23
341.391
335.856
336.644
337.432
338.155
338.745
339.223
339.73
340.043
340.241
340.405
340.417
340.339
340.081
339.784
339.293
338.814
338.267
337.423
336.74
336.046
330.55
331.084
331.748
332.348
332.882
333.354
333.81
334.009
334.224
334.327
334.207
334.254
334.03
333.75
333.376
332.978
332.404
331.842
331.186
330.659
325.044
325.535
326.078
326.594
326.973
327.395
327.607
327.917
328.082
328.086
328.065
328.046
327.875
327.765
327.372
327.058
326.648
326.162
325.594
325.134
319.557
319.898
320.324
320.651
321.062
321.349
321.563
321.658
321.923
322.053
321.88
321.959
321.846
321.601
321.355
321.099
320.717
320.347
319.972
319.608
313.996
314.238
314.589
314.88
315.015
315.279
315.455
315.54
315.686
315.641
315.675
315.726
315.574
315.476
315.293
315.087
314.866
314.533
314.257
314.035
308.432
308.547
308.742
308.931
309.036
309.212
309.301
309.373
309.354
309.462
309.393
309.435
309.374
309.298
309.22
309.137
308.934
308.727
308.585
308.465
302.864
302.875
302.893
302.963
303.006
303.144
303.1
303.192
303.181
303.129
303.151
303.232
303.158
303.153
303.166
303.029
303.061
302.958
302.864
302.846
341.899
342.702
343.622
344.43
345.221
345.815
346.289
346.758
347.026
347.083
347.202
346.995
346.792
346.468
345.996
345.357
344.638
343.757
342.968
342.123
336.455
337.155
337.977
338.743
339.425
339.944
340.373
340.685
340.899
341.005
341.058
340.967
340.795
340.372
339.948
339.526
338.801
338.074
337.402
336.646
330.973
331.631
332.226
332.805
333.374
333.851
334.248
334.552
334.754
334.838
334.818
334.724
334.553
334.364
333.968
333.522
332.991
332.321
331.726
331.182
325.453
325.897
326.502
326.973
327.395
327.797
328.097
328.336
328.466
328.619
328.594
328.501
328.373
328.108
327.887
327.475
327.073
326.555
326.096
325.524
319.864
320.189
320.598
320.999
321.42
321.616
321.895
322.053
322.272
322.236
322.255
322.237
322.13
321.972
321.653
321.379
321.117
320.692
320.251
319.969
314.237
314.468
314.761
315.056
315.305
315.458
315.695
315.796
315.911
315.859
316.022
315.975
315.847
315.755
315.57
315.352
315.096
314.799
314.518
314.274
308.501
308.62
308.806
309.075
309.258
309.319
309.47
309.547
309.575
309.596
309.608
309.666
309.582
309.478
309.375
309.222
309.087
308.957
308.745
308.563
302.873
302.946
302.935
303.007
303.066
303.08
303.274
303.195
303.198
303.189
303.16
303.113
303.226
303.203
303.165
303.133
303.004
302.998
302.91
302.916
342.378
343.169
344.181
344.998
345.831
346.449
347
347.454
347.705
347.82
347.814
347.684
347.479
347.186
346.682
345.993
345.278
344.431
343.515
342.66
336.892
337.607
338.355
339.22
339.859
340.421
340.869
341.255
341.518
341.561
341.516
341.482
341.269
341.055
340.516
340.098
339.341
338.7
337.89
337.169
331.381
331.969
332.594
333.257
333.892
334.229
334.67
335.048
335.195
335.296
335.257
335.243
335.135
334.833
334.413
333.986
333.483
332.809
332.179
331.544
325.746
326.183
326.753
327.305
327.79
328.154
328.447
328.736
328.893
328.995
329.013
328.941
328.817
328.531
328.219
327.901
327.515
327.002
326.393
325.944
320.083
320.414
320.878
321.209
321.624
321.855
322.178
322.43
322.49
322.605
322.582
322.514
322.389
322.252
322.022
321.764
321.343
321.023
320.566
320.226
314.378
314.66
314.92
315.308
315.454
315.769
315.949
316.018
316.083
316.159
316.208
316.19
316.076
315.918
315.801
315.564
315.302
315.03
314.75
314.528
308.631
308.84
308.938
309.135
309.296
309.447
309.514
309.661
309.661
309.719
309.71
309.775
309.629
309.59
309.526
309.362
309.234
308.991
308.905
308.77
302.919
302.981
303.025
303.151
303.149
303.087
303.223
303.24
303.258
303.281
303.222
303.221
303.261
303.235
303.2
303.112
303.09
303.061
302.957
302.895
342.825
343.658
344.625
345.518
346.334
347.005
347.448
347.953
348.187
348.391
348.415
348.196
348
347.699
347.202
346.54
345.774
344.973
344.009
343.167
337.253
337.951
338.863
339.59
340.283
340.844
341.348
341.673
341.953
342.069
342.003
341.943
341.729
341.5
340.998
340.514
339.841
339.207
338.329
337.658
331.674
332.222
333.015
333.563
334.157
334.671
335.043
335.354
335.616
335.718
335.721
335.64
335.444
335.184
334.773
334.437
333.858
333.22
332.429
331.978
325.975
326.47
327.024
327.551
328.041
328.489
328.848
329.004
329.249
329.333
329.356
329.235
329.112
328.913
328.566
328.181
327.76
327.253
326.715
326.226
320.266
320.587
321.103
321.473
321.863
322.153
322.417
322.62
322.715
322.777
322.871
322.783
322.727
322.479
322.315
321.971
321.581
321.202
320.804
320.45
314.452
314.706
315.086
315.35
315.679
315.865
316.025
316.203
316.332
316.344
316.335
316.301
316.254
316.159
315.96
315.787
315.457
315.18
314.875
314.669
308.779
308.855
309.14
309.169
309.445
309.597
309.608
309.717
309.808
309.772
309.882
309.793
309.74
309.708
309.595
309.419
309.337
309.129
308.97
308.786
302.909
303.064
303.088
303.056
303.211
303.203
303.257
303.252
303.312
303.289
303.324
303.245
303.224
303.226
303.216
303.16
303.181
303.073
303.013
302.923
343.086
343.907
344.874
345.797
346.63
347.259
347.884
348.189
348.577
348.708
348.717
348.63
348.393
347.982
347.531
346.862
346.197
345.164
344.44
343.585
337.401
338.173
338.997
339.887
340.458
341.19
341.587
341.955
342.221
342.368
342.307
342.26
342.036
341.774
341.239
340.781
340.162
339.399
338.499
337.853
331.834
332.463
333.059
333.859
334.461
334.91
335.367
335.623
335.828
335.866
335.979
335.865
335.715
335.498
335.086
334.617
334.041
333.41
332.725
332.182
326.03
326.644
327.164
327.711
328.181
328.646
328.917
329.201
329.389
329.468
329.501
329.446
329.293
329.072
328.735
328.414
327.934
327.397
326.863
326.441
320.303
320.76
321.135
321.678
322.001
322.357
322.562
322.791
322.956
322.869
322.951
322.946
322.77
322.633
322.353
322.153
321.782
321.344
320.952
320.62
314.539
314.913
315.202
315.448
315.797
315.963
316.148
316.303
316.346
316.516
316.462
316.358
316.348
316.265
316.091
315.837
315.642
315.288
314.978
314.76
308.806
308.947
309.156
309.331
309.417
309.624
309.724
309.744
309.812
309.922
309.916
309.824
309.847
309.736
309.65
309.517
309.354
309.184
309.023
308.886
303.044
302.952
303.031
303.106
303.235
303.259
303.337
303.363
303.359
303.274
303.303
303.313
303.306
303.293
303.278
303.118
303.2
303.107
303.025
303.025
)
;

boundaryField
{
    hotSide
    {
        type            fixedGradient;
        gradient        nonuniform List<scalar> 
400
(
321.511
322.87
325.591
329.677
335.133
341.965
350.181
359.788
370.794
383.208
397.037
412.289
428.971
447.088
466.647
487.651
510.105
534.011
559.372
586.191
323.738
325.08
327.767
331.802
337.194
343.949
352.078
361.591
372.498
384.81
398.537
413.687
430.268
448.289
467.755
488.672
511.043
534.872
560.161
586.913
326.149
327.47
330.116
334.091
339.406
346.071
354.099
363.503
374.296
386.491
400.101
415.136
431.606
449.52
468.885
489.706
511.988
535.735
560.948
587.63
328.704
330
332.597
336.503
341.73
348.292
356.205
365.485
376.15
388.215
401.695
416.604
432.954
450.753
470.009
490.73
512.919
536.579
561.714
588.325
331.33
332.599
335.142
338.97
344.099
350.546
358.332
367.477
378.003
389.928
403.271
418.047
434.27
451.949
471.095
491.712
513.807
537.382
562.439
588.978
333.918
335.158
337.643
341.389
346.414
352.74
360.392
369.397
379.779
391.562
404.765
419.407
435.503
453.065
472.101
492.618
514.622
538.114
563.096
589.569
336.321
337.531
339.959
343.622
348.544
354.751
362.274
371.142
381.385
393.031
406.101
420.618
436.595
454.047
472.983
493.409
515.33
538.747
563.663
590.076
338.36
339.543
341.92
345.509
350.339
356.44
363.847
372.595
382.718
394.244
407.2
421.608
437.485
454.844
473.695
494.045
515.897
539.253
564.114
590.478
339.852
341.015
343.352
346.885
351.645
357.665
364.985
373.643
383.675
395.113
407.984
422.312
438.116
455.407
474.197
494.491
516.294
539.606
564.428
590.758
340.643
341.795
344.11
347.613
352.334
358.311
365.584
374.193
384.176
395.567
408.393
422.679
438.443
455.699
474.456
494.722
516.498
539.788
564.589
590.901
340.643
341.795
344.11
347.613
352.334
358.311
365.584
374.193
384.176
395.567
408.393
422.679
438.443
455.699
474.456
494.722
516.498
539.788
564.589
590.901
339.852
341.015
343.352
346.885
351.645
357.665
364.985
373.643
383.675
395.113
407.984
422.312
438.116
455.407
474.197
494.491
516.294
539.606
564.428
590.758
338.36
339.543
341.92
345.509
350.339
356.44
363.847
372.595
382.718
394.244
407.2
421.608
437.485
454.844
473.695
494.045
515.897
539.253
564.114
590.478
336.321
337.531
339.959
343.622
348.544
354.751
362.274
371.142
381.385
393.031
406.101
420.618
436.595
454.047
472.983
493.409
515.33
538.747
563.663
590.076
333.918
335.158
337.643
341.389
346.414
352.74
360.392
369.397
379.779
391.562
404.765
419.407
435.503
453.065
472.101
492.618
514.622
538.114
563.096
589.569
331.33
332.599
335.142
338.97
344.099
350.546
358.332
367.477
378.003
389.928
403.271
418.047
434.27
451.949
471.095
491.712
513.807
537.382
562.439
588.978
328.704
330
332.597
336.503
341.73
348.292
356.205
365.485
376.15
388.215
401.695
416.604
432.954
450.753
470.009
490.73
512.919
536.579
561.714
588.325
326.149
327.47
330.116
334.091
339.406
346.071
354.099
363.503
374.296
386.491
400.101
415.136
431.606
449.52
468.885
489.706
511.988
535.735
560.948
587.63
323.738
325.08
327.767
331.802
337.194
343.949
352.078
361.591
372.498
384.81
398.537
413.687
430.268
448.289
467.755
488.672
511.043
534.872
560.161
586.913
321.511
322.87
325.591
329.677
335.133
341.965
350.181
359.788
370.794
383.208
397.037
412.289
428.971
447.088
466.647
487.651
510.105
534.011
559.372
586.191
)
;
    }
    coldSide
    {
        type            mixed;
        refValue        uniform 300;
        refGradient     uniform 0;
        valueFraction   uniform 0.991591;
        source          uniform 0;
        value           nonuniform List<scalar> 
400
(
300.015
300.016
300.017
300.017
300.017
300.018
300.019
300.02
300.02
300.021
300.021
300.022
300.022
300.023
300.023
300.024
300.024
300.025
300.024
300.026
300.016
300.016
300.016
300.017
300.017
300.018
300.019
300.02
300.021
300.022
300.022
300.022
300.022
300.023
300.024
300.024
300.025
300.025
300.026
300.025
300.016