/*--------------------------------*- C++ -*----------------------------------*\
| =========                 |                                                 |
| \\      /  F ield         | OpenFOAM: The Open Source CFD Toolbox           |
|  \\    /   O peration     | Version:  2212                                  |
|   \\  /    A nd           | Website:  www.openfoam.com                      |
|    \\/     M anipulation  |                                                 |
\*---------------------------------------------------------------------------*/
FoamFile
{
    version     2.0;
    format      ascii;
    arch        "LSB;label=32;scalar=64";
    class       volScalarField;
    location    "0";
    object      T;
}
// * * * * * * * * * * * * * * * * * * * * * * * * * * * * * * * * * * * * * //

dimensions      [0 0 0 1 0 0 0];

internalField   nonuniform List<scalar> 
3200
(
348.17
349.302
350.513
351.248
352.171
352.985
353.567
354.024
354.14
354.164
354.122
353.639
353.263
352.778
351.988
351.216
350.159
349.257
348.033
346.625
341.88
342.753
343.881
344.488
345.253
345.987
346.524
346.945
346.967
346.995
347.002
346.54
346.249
345.78
345.115
344.456
343.549
342.768
341.698
340.509
335.533
336.219
337.174
337.656
338.314
338.948
339.444
339.786
339.815
339.783
339.786
339.393
339.18
338.72
338.218
337.67
336.922
336.23
335.292
334.356
329.113
329.652
330.454
330.816
331.387
331.89
332.341
332.575
332.631
332.561
332.547
332.221
332.083
331.679
331.324
330.864
330.248
329.68
328.907
328.148
322.672
323.101
323.752
324.011
324.439
324.837
325.23
325.374
325.42
325.309
325.287
325.103
324.959
324.627
324.369
324.034
323.564
323.125
322.497
321.923
316.237
316.535
317
317.152
317.492
317.768
318.039
318.134
318.179
318.063
318.096
317.986
317.847
317.626
317.395
317.188
316.857
316.589
316.024
315.706
309.778
309.934
310.203
310.326
310.492
310.689
310.845
310.904
310.905
310.864
310.884
310.814
310.724
310.612
310.436
310.355
310.107
309.994
309.622
309.446
303.276
303.335
303.413
303.456
303.507
303.589
303.635
303.668
303.644
303.664
303.651
303.647
303.609
303.573
303.495
303.476
303.375
303.36
303.209
303.153
349.223
350.369
351.524
352.401
353.152
354.232
354.718
355.093
355.415
355.21
355.354
354.989
354.466
353.909
353.114
352.349
351.399
350.237
348.969
347.951
342.779
343.665
344.722
345.432
346.086
347.058
347.416
347.778
348.08
347.862
347.973
347.647
347.221
346.728
346.007
345.324
344.531
343.555
342.416
341.584
336.274
336.937
337.817
338.42
339.032
339.845
340.114
340.445
340.701
340.528
340.594
340.312
339.954
339.492
338.921
338.361
337.666
336.903
335.922
335.204
329.73
330.229
330.951
331.41
331.944
332.634
332.854
333.103
333.332
333.183
333.227
332.994
332.713
332.268
331.854
331.371
330.777
330.252
329.403
328.803
323.203
323.54
324.094
324.422
324.85
325.385
325.589
325.743
325.919
325.86
325.861
325.64
325.435
325.102
324.774
324.402
323.952
323.536
322.869
322.375
316.575
316.81
317.227
317.431
317.767
318.159
318.316
318.422
318.487
318.516
318.516
318.336
318.174
317.943
317.692
317.41
317.14
316.823
316.328
315.971
309.924
310.107
310.29
310.458
310.676
310.905
311.025
311.098
311.105
311.119
311.143
311.035
310.914
310.764
310.64
310.478
310.322
310.093
309.808
309.575
303.326
303.388
303.438
303.508
303.581
303.665
303.695
303.724
303.705
303.73
303.74
303.708
303.661
303.585
303.56
303.506
303.463
303.399
303.263
303.202
350.623
351.618
352.743
353.895
354.667
355.589
356.188
356.697
356.904
356.512
356.746
356.467
355.888
355.356
354.567
353.551
352.736
351.578
350.362
349.172
343.916
344.748
345.704
346.715
347.371
348.211
348.719
349.138
349.321
348.986
349.178
348.909
348.438
347.936
347.254
346.392
345.715
344.71
343.664
342.61
337.202
337.926
338.696
339.538
340.146
340.803
341.231
341.546
341.703
341.48
341.593
341.371
340.986
340.537
339.973
339.25
338.686
337.896
336.942
336.067
330.501
331.091
331.675
332.343
332.905
333.323
333.78
333.98
334.079
333.962
333.975
333.854
333.494
333.169
332.696
332.089
331.643
331.06
330.266
329.508
323.756
324.221
324.626
325.09
325.613
325.873
326.285
326.449
326.5
326.417
326.384
326.314
326.009
325.803
325.43
324.94
324.613
324.133
323.556
322.962
316.997
317.301
317.569
317.897
318.283
318.463
318.768
318.881
318.923
318.895
318.851
318.814
318.582
318.43
318.169
317.828
317.601
317.274
316.854
316.405
310.196
310.39
310.518
310.746
310.97
311.084
311.265
311.328
311.327
311.36
311.316
311.31
311.14
311.081
310.909
310.689
310.56
310.383
310.099
309.869
303.42
303.493
303.518
303.608
303.673
303.697
303.774
303.809
303.791
303.807
303.808
303.787
303.713
303.727
303.654
303.577
303.542
303.481
303.369
303.313
352.051
353.096
354.256
355.377
356.223
357.1
357.662
358.062
358.313
358.362
358.286
358.013
357.501
356.863
356.032
355.167
354.225
352.894
351.505
350.551
345.161
346.042
347.022
347.999
348.697
349.502
349.96
350.298
350.507
350.528
350.475
350.267
349.733
349.234
348.527
347.799
346.996
345.787
344.571
343.766
338.28
339.045
339.808
340.588
341.234
341.91
342.262
342.565
342.73
342.734
342.679
342.54
342.037
341.597
341.024
340.425
339.796
338.728
337.687
336.989
331.378
331.989
332.569
333.129
333.746
334.292
334.585
334.837
334.961
334.95
334.912
334.781
334.402
334.01
333.568
333.083
332.572
331.69
330.805
330.196
324.435
324.879
325.299
325.776
326.256
326.644
326.938
327.102
327.185
327.184
327.132
327.05
326.747
326.463
326.154
325.705
325.339
324.688
323.928
323.438
317.496
317.791
318.07
318.444
318.772
319.075
319.254
319.369
319.392
319.439
319.383
319.339
319.079
318.884
318.695
318.357
318.129
317.642
317.103
316.737
310.516
310.695
310.841
311.088
311.283
311.482
311.572
311.664
311.613
311.697
311.64
311.642
311.453
311.319
311.208
311.026
310.927
310.591
310.253
310.059
303.526
303.613
303.632
303.728
303.784
303.851
303.882
303.906
303.891
303.932
303.916
303.898
303.843
303.784
303.751
303.679
303.673
303.537
303.448
303.368
353.363
354.612
355.854
356.944
357.81
358.46
359.178
359.846
360.085
360.023
360.107
359.635
359.11
358.663
357.64
356.836
355.689
354.454
353.072
351.899
346.266
347.337
348.412
349.394
350.115
350.661
351.249
351.873
352.06
352.001
352.055
351.629
351.171
350.84
349.917
349.199
348.228
347.16
345.944
344.991
339.159
340.041
340.994
341.842
342.354
342.861
343.353
343.871
344.051
343.972
344.041
343.693
343.272
343.022
342.235
341.627
340.784
339.894
338.851
338.079
332.075
332.746
333.541
334.261
334.587
335.118
335.5
335.92
336.049
336.009
336.019
335.758
335.4
335.17
334.545
334.025
333.353
332.61
331.758
331.149
324.995
325.457
326.1
326.679
326.838
327.334
327.638
327.994
328.054
327.997
327.991
327.795
327.516
327.335
326.902
326.45
325.938
325.342
324.671
324.246
317.883
318.218
318.636
319.088
319.17
319.584
319.766
320.041
320.033
319.96
319.963
319.872
319.659
319.507
319.255
318.926
318.541
318.09
317.62
317.341
310.753
310.945
311.199
311.471
311.559
311.78
311.883
312.04
312.065
311.979
311.994
311.934
311.801
311.719
311.587
311.376
311.145
310.844
310.597
310.444
303.603
303.68
303.759
303.851
303.897
303.958
303.99
304.057
304.035
304.011
304.039
304.006
303.958
303.931
303.879
303.823
303.754
303.647
303.566
303.524
354.725
355.914
357.249
358.473
359.167
359.944
360.563
361.167
361.582
361.546
361.59
361.258
360.675
360.291
359.378
358.342
357.085
355.882
354.693
353.303
347.474
348.489
349.591
350.697
351.246
351.918
352.49
352.958
353.358
353.337
353.351
353.037
352.531
352.242
351.41
350.47
349.428
348.408
347.334
346.198
340.222
341.033
341.938
342.892
343.345
343.909
344.407
344.792
345.143
345.142
345.103
344.826
344.437
344.195
343.41
342.641
341.749
340.929
339.966
339.109
332.953
333.542
334.301
335.135
335.491
335.904
336.323
336.636
336.923
336.922
336.866
336.682
336.356
336.143
335.476
334.86
334.127
333.465
332.668
331.994
325.691
326.093
326.687
327.336
327.606
327.92
328.238
328.495
328.722
328.672
328.627
328.531
328.29
328.129
327.568
327.102
326.486
326.061
325.372
324.914
318.385
318.634
319.043
319.532
319.746
319.979
320.188
320.375
320.52
320.454
320.421
320.381
320.246
320.11
319.709
319.406
318.868
318.618
318.107
317.798
311.046
311.174
311.464
311.717
311.85
312.013
312.118
312.27
312.312
312.286
312.256
312.227
312.18
312.115
311.876
311.624
311.301
311.151
310.888
310.704
303.696
303.748
303.844
303.942
303.961
304.04
304.066
304.118
304.157
304.128
304.102
304.11
304.075
304.074
303.985
303.894
303.782
303.737
303.638
303.572
356.041
357.344
358.541
359.867
360.989
361.421
362.184
362.749
362.883
363.046
363.046
362.622
362.042
361.696
360.638
359.702
358.662
357.259
355.723
354.464
348.593
349.763
350.78
351.878
352.862
353.205
353.882
354.407
354.48
354.637
354.594
354.271
353.719
353.423
352.553
351.693
350.802
349.596
348.235
347.171
341.11
342.119
342.973
343.92
344.702
344.987
345.605
346.035
346.124
346.225
346.184
345.943
345.418
345.176
344.478
343.731
342.964
341.927
340.761
339.913
333.633
334.454
335.209
335.939
336.561
336.765
337.281
337.66
337.808
337.818
337.782
337.598
337.12
336.94
336.365
335.799
335.133
334.246
333.328
332.647
326.177
326.762
327.4
327.971
328.403
328.557
328.978
329.297
329.476
329.428
329.429
329.219
328.867
328.7
328.288
327.82
327.286
326.59
325.964
325.423
318.705
319.113
319.584
319.989
320.293
320.402
320.707
320.96
321.082
321.033
321.087
320.875
320.629
320.51
320.237
319.863
319.48
319.015
318.587
318.174
311.231
311.49
311.817
312.002
312.191
312.294
312.462
312.6
312.645
312.616
312.686
312.552
312.389
312.325
312.181
311.925
311.723
311.432
311.189
310.912
303.756
303.856
303.969
304.009
304.075
304.132
304.193
304.214
304.23
304.221
304.251
304.206
304.158
304.141
304.069
303.996
303.939
303.826
303.758
303.649
357.46
358.83
359.963
361.325
362.236
362.731
363.662
364.048
364.226
364.232
364.299
364.135
363.482
362.952
361.842
360.961
359.85
358.427
356.944
355.675
349.873
351.013
351.952
353.211
353.937
354.368
355.114
355.499
355.661
355.674
355.676
355.576
354.921
354.507
353.522
352.802
351.812
350.59
349.259
348.231
342.257
343.163
343.95
345.045
345.623
346.01
346.617
346.948
347.098
347.084
347.114
347.004
346.448
346.077
345.233
344.666
343.787
342.812
341.612
340.815
334.631
335.309
336.007
336.887
337.331
337.627
338.145
338.404
338.547
338.525
338.575
338.457
337.986
337.635
336.972
336.581
335.823
335.025
334.019
333.404
326.922
327.46
328.014
328.697
329.04
329.285
329.703
329.858
329.969
329.985
330.037
329.88
329.586
329.269
328.733
328.429
327.843
327.303
326.457
326.004
319.256
319.632
320.027
320.483
320.716
320.911
321.202
321.345
321.372
321.41
321.485
321.347
321.182
320.899
320.515
320.32
319.882
319.513
318.864
318.587
311.552
311.823
312.044
312.273
312.444
312.558
312.768
312.82
312.83
312.857
312.929
312.8
312.711
312.557
312.309
312.185
311.931
311.732
311.355
311.157
303.88
303.973
304.039
304.113
304.177
304.212
304.273
304.31
304.3
304.314
304.342
304.292
304.273
304.197
304.124
304.055
304.005
303.933
303.82
303.739
358.704
359.936
360.917
362.201
363.524
364.212
364.985
365.515
365.456
365.485
365.64
365.454
364.75
364.058
363.166
362.241
360.942
359.525
358.273
356.938
350.933
351.943
352.787
353.92
355.054
355.619
356.33
356.749
356.617
356.715
356.799
356.682
356.091
355.461
354.672
353.856
352.737
351.585
350.456
349.313
343.144
343.978
344.669
345.604
346.58
347.016
347.696
347.972
347.803
347.949
347.984
347.934
347.446
346.851
346.23
345.537
344.589
343.632
342.667
341.703
335.37
336.038
336.567
337.26
338.104
338.428
339.044
339.232
339.09
339.225
339.24
339.178
338.845
338.335
337.845
337.255
336.467
335.69
334.876
334.132
327.521
328.08
328.5
328.978
329.63
329.896
330.39
330.507
330.437
330.519
330.531
330.453
330.227
329.864
329.403
328.964
328.359
327.787
327.11
326.52
319.701
320.098
320.378
320.708
321.149
321.355
321.708
321.805
321.786
321.825
321.818
321.746
321.646
321.381
320.985
320.681
320.299
319.873
319.354
318.944
311.824
312.066
312.268
312.416
312.664
312.848
313.023
313.081
313.098
313.103
313.123
313.059
313.028
312.879
312.58
312.441
312.222
311.966
311.618
311.351
303.964
304.019
304.128
304.134
304.244
304.29
304.357
304.393
304.391
304.379
304.394
304.377
304.358
304.313
304.2
304.193
304.098
304.024
303.89
303.789
359.78
360.902
362.116
363.557
364.453
365.37
366.054
366.43
366.779
366.773
366.799
366.568
365.935
365.237
364.277
363.486
362.33
360.744
359.369
357.971
351.85
352.81
353.787
355.076
355.847
356.635
357.186
357.519
357.838
357.84
357.856
357.654
357.075
356.495
355.631
354.988
353.919
352.557
351.406
350.189
343.905
344.662
345.517
346.591
347.271
347.899
348.36
348.655
348.936
348.944
348.902
348.791
348.256
347.764
347.019
346.504
345.533
344.406
343.449
342.43
335.931
336.503
337.197
338.073
338.685
339.208
339.539
339.764
340.035
340.053
339.96
339.924
339.46
339.071
338.438
338.037
337.156
336.293
335.499
334.654
327.99
328.36
328.934
329.603
330.066
330.511
330.719
330.902
331.147
331.186
331.076
331.062
330.671
330.376
329.858
329.568
328.844
328.226
327.533
326.895
319.972
320.267
320.683
321.159
321.439
321.812
321.925
322.071
322.235
322.316
322.21
322.192
321.881
321.734
321.334
321.137
320.576
320.159
319.665
319.166
311.994
312.179
312.41
312.696
312.849
313.092
313.161
313.263
313.34
313.428
313.308
313.306
313.112
313.081
312.815
312.68
312.399
312.111
311.813
311.499
304.014
304.083
304.157
304.248
304.29
304.381
304.412
304.437
304.451
304.502
304.457
304.462
304.397
304.385
304.317
304.26
304.18
304.063
303.982
303.856
360.504
361.874
363.12
364.538
365.508
366.523
366.942
367.735
367.802
367.903
368.016
367.687
367.094
366.492
365.487
364.631
363.438
361.824
360.422
358.963
352.48
353.691
354.67
355.946
356.758
357.586
358.026
358.616
358.695
358.791
358.923
358.644
358.136
357.602
356.7
355.965
354.878
353.549
352.286
351.073
344.427
345.453
346.246
347.337
348.001
348.71
349.098
349.52
349.609
349.736
349.839
349.616
349.193
348.731
347.933
347.352
346.348
345.23
344.159
343.231
336.373
337.195
337.804
338.734
339.283
339.858
340.176
340.452
340.591
340.676
340.774
340.573
340.223
339.833
339.206
338.719
337.862
336.959
336.098
335.382
328.294
328.903
329.394
330.106
330.605
330.999
331.233
331.47
331.521
331.669
331.735
331.557
331.265
330.965
330.514
330.065
329.431
328.692
328.057
327.529
320.247
320.654
320.991
321.497
321.904
322.167
322.313
322.498
322.452
322.609
322.703
322.546
322.286
322.113
321.83
321.451
321.01
320.446
320.032
319.713
312.142
312.402
312.61
312.904
313.175
313.305
313.353
313.535
313.442
313.56
313.648
313.534
313.343
313.325
313.137
312.853
312.62
312.272
311.992
311.842
304.079
304.149
304.216
304.319
304.444
304.446
304.465
304.531
304.515
304.547
304.606
304.537
304.475
304.467
304.415
304.313
304.235
304.126
304.008
303.979
361.368
362.703
364.11
365.278
366.628
367.373
368.212
368.729
368.945
368.94
368.929
368.64
368.002
367.373
366.583
365.551
364.142
362.851
361.26
359.931
353.201
354.415
355.572
356.578
357.724
358.354
359.103
359.508
359.738
359.701
359.702
359.456
358.914
358.35
357.656
356.746
355.533
354.386
353.019
351.879
344.986
346.041
346.995
347.88
348.853
349.339
349.972
350.326
350.537
350.507
350.492
350.33
349.87
349.359
348.736
347.944
346.92
345.92
344.786
343.851
336.829
337.689
338.41
339.212
339.965
340.368
340.841
341.15
341.342
341.308
341.295
341.19
340.84
340.429
339.836
339.206
338.334
337.533
336.603
335.852
328.67
329.33
329.855
330.538
331.063
331.388
331.732
331.979
332.128
332.143
332.134
332.028
331.778
331.475
330.975
330.504
329.787
329.177
328.444
327.884
320.517
320.948
321.333
321.806
322.197
322.415
322.668
322.831
322.906
322.962
323
322.882
322.688
322.538
322.148
321.8
321.25
320.787
320.297
319.958
312.323
312.586
312.817
313.109
313.314
313.444
313.593
313.736
313.733
313.755
313.847
313.704
313.62
313.555
313.301
313.129
312.749
312.458
312.197
312.006
304.142
304.211
304.272
304.39
304.479
304.52
304.555
304.595
304.616
304.585
304.649
304.582
304.553
304.546
304.473
304.406
304.241
304.169
304.088
304.031
361.869
363.347
364.893
366.126
367.39
368.112
368.944
369.659
369.838
369.877
369.862
369.576
369.129
368.49
367.212
366.371
365.008
363.717
362.159
360.52
353.631
354.884
356.18
357.275
358.362
358.966
359.738
360.338
360.477
360.54
360.476
360.241
359.877
359.278
358.188
357.49
356.278
355.164
353.843
352.401
345.395
346.451
347.507
348.453
349.328
349.84
350.504
351.027
351.118
351.21
351.157
350.919
350.667
350.114
349.229
348.602
347.586
346.651
345.547
344.335
337.172
337.994
338.812
339.686
340.33
340.775
341.303
341.733
341.778
341.914
341.89
341.651
341.44
340.979
340.23
339.722
338.922
338.142
337.26
336.263
328.921
329.528
330.142
330.878
331.384
331.754
332.074
332.442
332.45
332.595
332.567
332.416
332.224
331.85
331.247
330.852
330.236
329.652
328.984
328.182
320.613
321.082
321.531
322.089
322.435
322.699
322.866
323.148
323.191
323.27
323.248
323.182
323.017
322.738
322.306
322.018
321.584
321.164
320.773
320.12
312.331
312.662
312.939
313.268
313.467
313.652
313.702
313.865
313.879
313.93
313.963
313.931
313.822
313.666
313.377
313.189
312.942
312.706
312.49
312.045
304.12
304.227
304.335
304.445
304.539
304.588
304.585
304.65
304.656
304.649
304.672
304.671
304.625
304.579
304.484
304.427
304.346
304.258
304.2
304.02
362.714
364.192
365.683
366.932
368.065
368.785
369.588
370.379
370.656
370.677
370.516
370.393
370.006
369.238
368.069
367.102
365.691
364.481
362.786
361.424
354.376
355.629
356.913
358.04
358.961
359.589
360.219
360.913
361.229
361.217
361.1
360.932
360.665
360.005
358.93
358.075
356.857
355.808
354.388
353.204
346.038
347.055
348.155
349.11
349.865
350.411
350.923
351.498
351.757
351.727
351.651
351.537
351.333
350.745
349.802
349.089
348.053
347.207
346.019
344.989
337.69
338.492
339.391
340.181
340.798
341.265
341.68
342.099
342.264
342.299
342.237
342.159
342.008
341.492
340.721
340.163
339.307
338.602
337.588
336.789
329.303
329.928
330.611
331.273
331.702
332.126
332.399
332.713
332.838
332.868
332.86
332.787
332.716
332.241
331.663
331.216
330.566
330.028
329.199
328.632
320.947
321.332
321.836
322.341
322.667
322.987
323.126
323.369
323.456
323.493
323.487
323.433
323.414
323.007
322.615
322.272
321.811
321.496
320.856
320.43
312.61
312.804
313.116
313.438
313.639
313.811
313.845
314.01
314.056
314.121
314.133
314.074
314.09
313.862
313.588
313.373
313.078
312.946
312.519
312.268
304.24
304.279
304.395
304.506
304.575
304.639
304.638
304.698
304.699
304.724
304.735
304.717
304.728
304.638
304.562
304.476
304.373
304.354
304.194
304.093
363.554
364.793
366.011
367.613
368.677
369.497
370.159
370.973
371.385
371.259
371.119
371.114
370.624
369.759
368.66
367.668
366.565
365.152
363.527
362.052
355.106
356.182
357.18
358.568
359.461
360.185
360.747
361.494
361.841
361.732
361.537
361.588
361.125
360.407
359.462
358.575
357.588
356.424
355.044
353.771
346.669
347.532
348.337
349.551
350.308
350.919
351.372
352.011
352.297
352.235
352.054
352.051
351.677
351.044
350.213
349.558
348.656
347.692
346.55
345.461
338.157
338.891
339.549
340.549
341.154
341.698
342.04
342.564
342.779
342.756
342.576
342.542
342.27
341.731
341.046
340.552
339.763
339.013
338.048
337.198
329.703
330.239
330.784
331.516
331.998
332.414
332.711
333.099
333.264
333.261
333.105
333.083
332.84
332.444
331.916
331.527
330.92
330.32
329.561
328.914
321.215
321.6
322.019
322.472
322.901
323.163
323.377
323.682
323.771
323.775
323.653
323.656
323.477
323.183
322.826
322.547
322.086
321.668
321.13
320.662
312.738
312.977
313.216
313.496
313.81
313.926
314.024
314.216
314.285
314.272
314.245
314.221
314.099
313.945
313.732
313.548
313.254
313.033
312.687
312.44
304.275
304.35
304.436
304.534
304.633
304.663
304.701
304.746
304.785
304.774
304.79
304.776
304.732
304.694
304.612
304.546
304.436
304.386
304.255
304.156
363.981
365.181
366.585
368.055
369.2
370.098
370.839
371.512
372.046
371.956
371.897
371.642
371.201
370.309
369.183
368.265
367.099
365.715
363.849
362.612
355.485
356.497
357.725
358.95
359.926
360.725
361.344
361.958
362.42
362.342
362.254
362.036
361.604
360.881
359.885
359.158
358.105
356.922
355.277
354.22
346.966
347.799
348.814
349.849
350.682
351.336
351.845
352.41
352.823
352.715
352.662
352.459
352.027
351.425
350.607
350.036
349.148
348.139
346.682
345.839
338.394
339.075
339.961
340.769
341.459
342.013
342.339
342.846
343.233
343.155
343.062
342.885
342.504
342.02
341.392
340.934
340.204
339.353
338.118
337.516
329.837
330.414
331.095
331.701
332.226
332.654
332.905
333.291
333.622
333.612
333.459
333.322
332.99
332.664
332.194
331.839
331.278
330.598
329.643
329.184
321.322
321.75
322.194
322.662
323.021
323.306
323.465
323.809
324.014
324.062
323.897
323.764
323.531
323.285
323.038
322.728
322.368
321.883
321.152
320.847
312.831
313.064
313.336
313.596
313.809
313.965
314.072
314.293
314.431
314.474
314.342
314.267
314.138
313.991
313.864
313.63
313.443
313.174
312.687
312.532
304.271
304.388
304.463
304.56
304.625
304.68
304.722
304.794
304.85
304.847
304.804
304.771
304.734
304.714
304.642
304.562
304.51
304.418
304.262
304.191
364.361
365.603
366.846
368.372
369.492
370.517
371.357
371.967
372.453
372.475
372.405
371.919
371.593
370.699
369.71
368.721
367.475
365.861
364.321
362.908
355.855
356.837
357.922
359.214
360.19
361.058
361.846
362.341
362.748
362.772
362.723
362.235
362.03
361.219
360.308
359.488
358.4
356.995
355.693
354.48
347.331
348.102
349.025
350.088
350.901
351.67
352.304
352.743
353.056
353.098
353.041
352.57
352.414
351.721
350.967
350.305
349.361
348.183
347.076
346.081
338.76
339.354
340.161
340.998
341.659
342.258
342.779
343.148
343.432
343.435
343.389
342.95
342.839
342.258
341.714
341.142
340.355
339.429
338.491
337.742
330.202
330.623
331.25
331.925
332.381
332.857
333.286
333.563
333.821
333.788
333.732
333.361
333.261
332.835
332.431
331.999
331.369
330.668
329.909
329.397
321.617
321.876
322.371
322.877
323.107
323.524
323.808
324.021
324.214
324.196
324.103
323.813
323.749
323.458
323.166
322.875
322.417
321.884
321.354
321.02
313.012
313.122
313.458
313.74
313.869
314.149
314.303
314.447
314.581
314.567
314.475
314.279
314.226
314.087
313.873
313.759
313.484
313.149
312.836
312.634
304.358
304.393
304.52
304.604
304.651
304.74
304.77
304.857
304.875
304.883
304.87
304.78
304.781
304.734
304.64
304.614
304.522
304.399
304.304
304.252
364.601
365.809
367.382
368.512
369.983
370.841
371.611
372.255
372.655
372.703
372.769
372.116
371.754
370.877
370.02
369.014
367.838
366.093
364.466
363.191
356.039
357.053
358.351
359.353
360.623
361.35
362.029
362.609
362.907
362.969
362.988
362.411
362.122
361.352
360.605
359.731
358.748
357.205
355.828
354.753
347.467
348.316
349.326
350.23
351.287
351.896
352.507
352.966
353.192
353.23
353.195
352.72
352.483
351.882
351.248
350.477
349.688
348.331
347.218
346.32
338.862
339.632
340.368
341.122
341.965
342.448
342.998
343.359
343.52
343.459
343.478
343.096
342.898
342.448
341.893
341.276
340.638
339.516
338.593
337.886
330.272
330.891
331.384
331.994
332.674
333.022
333.469
333.685
333.838
333.743
333.78
333.495
333.348
333.007
332.596
332.117
331.571
330.706
329.997
329.465
321.667
322.082
322.446
322.887
323.349
323.589
323.929
324.046
324.195
324.06
324.109
323.956
323.807
323.582
323.294
322.929
322.531
321.957
321.43
321.011
313.017
313.266
313.484
313.747
314.043
314.124
314.379
314.428
314.566
314.435
314.478
314.397
314.309
314.152
313.975
313.769
313.516
313.191
312.868
312.617
304.367
304.432
304.51
304.622
304.724
304.74
304.827
304.83
304.878
304.832
304.859
304.835
304.796
304.741
304.677
304.621
304.529
304.412
304.31
304.252
364.612
366.06
367.608
368.759
370.228
371.03
371.904
372.408
372.833
372.803
372.82
372.477
371.864
371.164
370.191
369.204
367.992
366.351
364.747
363.264
356.029
357.278
358.612
359.583
360.844
361.54
362.27
362.686
363.101
363.056
363.023
362.725
362.22
361.645
360.815
359.907
358.88
357.419
356.057
354.833
347.422
348.484
349.637
350.453
351.453
352.1
352.675
353.005
353.327
353.326
353.237
352.952
352.61
352.162
351.405
350.646
349.827
348.499
347.381
346.405
338.825
339.666
340.638
341.293
342.101
342.658
343.086
343.34
343.618
343.641
343.49
343.26
343.023
342.653
342.042
341.415
340.775
339.695
338.746
337.947
330.21
330.873
331.647
332.087
332.795
333.15
333.513
333.699
333.923
333.957
333.796
333.605
333.47
333.14
332.676
332.191
331.686
330.869
330.126
329.541
321.594
322.092
322.651
322.942
323.457
323.688
323.95
324.065
324.242
324.277
324.118
324.022
323.919
323.619
323.341
323.025
322.624
322.026
321.486
321.119
312.979
313.288
313.587
313.818
314.102
314.23
314.326
314.438
314.557
314.559
314.492
314.459
314.374
314.139
314.042
313.816
313.55
313.212
312.891
312.706
304.352
304.443
304.557
304.639
304.706
304.785
304.791
304.82
304.883
304.886
304.874
304.849
304.837
304.747
304.729
304.619
304.561
304.412
304.321
304.239
364.667
366.238
367.887
369.035
370.045
371.196
371.978
372.497
372.828
372.838
372.771
372.56
372.059
371.332
370.153
369.172
367.848
366.367
364.713
363.17
356.08
357.481
358.87
359.832
360.694
361.674
362.379
362.779
363.105
363.1
362.988
362.804
362.371
361.786
360.742
359.852
358.737
357.446
356.054
354.742
347.487
348.697
349.815
350.623
351.313
352.189
352.777
353.141
353.42
353.333
353.231
353.065
352.659
352.25
351.349
350.59
349.625
348.573
347.464
346.324
338.903
339.887
340.766
341.403
342.007
342.738
343.147
343.493
343.749
343.625
343.491
343.362
342.971
342.744
342.059
341.36
340.555
339.698
338.858
337.902
330.279
331.053
331.706
332.209
332.727
333.301
333.542
333.855
334.045
333.915
333.81
333.719
333.395
333.216
332.716
332.153
331.513
330.869
330.262
329.489
321.681
322.234
322.651
323.003
323.428
323.817
323.944
324.181
324.346
324.206
324.154
324.074
323.835
323.717
323.374
322.969
322.498
322.05
321.647
321.056
313.036
313.351
313.61
313.778
314.065
314.339
314.35
314.51
314.59
314.521
314.494
314.453
314.277
314.239
314.069
313.758
313.512
313.216
312.989
312.643
304.382
304.468
304.574
304.617
304.706
304.805
304.782
304.889
304.895
304.875
304.868
304.837
304.781
304.768
304.713
304.594
304.534
304.443
304.347
304.236
)
;

boundaryField
{
    hotSide
    {
        type            fixedGradient;
        gradient        nonuniform List<scalar> 
400
(
502.556
519.139
535.309
550.993
566.12
580.618
594.42
607.456
619.663
630.98
641.347
650.713
659.027
666.246
672.332
677.25
680.976
683.488
684.772
684.822
515.957
533.034
549.688
565.846
581.434
596.378
610.607
624.052
636.646
648.325
659.031
668.707
677.304
684.775
691.08
696.186
700.066
702.697
704.065
704.163
527.984
545.51
562.606
579.196
595.204
610.554
625.174
638.992
651.941
663.953
674.969
684.931
693.788
701.491
708.001
713.282
717.305
720.049
721.498
721.644
538.563
556.49
573.981
590.957
607.341
623.056
638.027
652.181
665.447
677.76
689.056
699.277
708.369
716.284
722.98
728.421
732.577
735.426
736.952
737.146
547.631
565.908
583.744
601.058
617.771
633.806
649.084
663.533
677.081
689.658
701.201
711.651
720.952
729.055
735.918
741.503
745.779
748.724
750.322
750.563
555.136
573.71
591.838
609.44
626.433
642.74
658.281
672.982
686.769
699.574
711.33
721.976
731.458
739.725
746.733
752.444
756.827
759.858
761.521
761.806
561.04
579.855
598.221
616.056
633.278
649.807
665.564
680.472
694.457
707.449
719.381
730.191
739.824
748.228
755.358
761.176
765.65
768.757
770.478
770.805
565.313
584.312
602.86
620.874
638.271
654.972
670.895
685.963
700.101
713.239
725.309
736.249
746.001
754.514
761.742
767.647
772.197
775.366
777.138
777.502
567.938
587.061
605.733
623.87
641.389
658.208
674.247
689.427
703.674
716.915
729.084
740.116
749.955
758.549
765.85
771.821
776.429
779.648
781.461
781.859
568.906
588.095
606.832
625.035
642.619
659.503
675.606
690.85
705.159
718.46
730.687
741.776
751.668
760.311
767.66
773.675
778.323
781.579
783.425
783.851
568.219
587.413
606.156
624.367
641.961
658.856
674.971
690.229
704.553
717.871
730.115
741.222
751.133
759.797
767.167
773.203
777.873
781.151
783.02
783.469
565.887
585.025
603.716
621.877
639.425
656.276
672.352
687.574
701.865
715.155
727.376
738.463
748.36
757.013
764.377
770.412
775.086
778.372
780.253
780.719
561.929
580.952
599.532
617.586
635.03
651.785
667.769
682.905
697.118
710.336
722.492
733.522
743.369
751.982
759.313
765.324
769.983
773.262
775.146
775.623
556.373
575.222
593.632
611.522
628.81
645.414
661.255
676.257
690.344
703.447
715.497
726.433
736.198
744.739
752.011
757.976
762.6
765.859
767.735
768.217
549.256
567.873
586.057
603.728
620.804
637.205
652.854
667.673
681.59
694.534
706.44
717.245
726.893
735.333
742.52
748.416
752.988
756.212
758.07
758.552
540.622
558.951
576.854
594.252
611.064
627.212
642.619
657.209
670.912
683.656
695.378
706.017
715.517
723.827
730.904
736.71
741.212
744.388
746.218
746.694
530.526
548.513
566.082
583.155
599.652
615.498
630.617
644.934
658.379
670.885
682.386
692.824
702.145
710.298
717.241
722.935
727.351
730.465
732.258
732.722
519.032
536.625
553.809
570.507
586.643
602.14
616.926
630.927
644.075
656.303
667.549
677.754
686.866
694.836
701.621
707.186
711.499
714.538
716.286
716.733
506.211
523.362
540.114
556.391
572.119
587.224
601.634
615.28
628.092
640.008
650.965
660.907
669.783
677.544
684.151
689.567
693.763
696.716
698.411
698.837
492.146
508.81
525.084
540.897
556.175
570.848
584.844
598.096
610.538
622.108
632.745
642.397
651.01
658.542
664.95
670.201
674.266
677.123
678.757
679.159
)
;
    }
    coldSide
    {
        type            mixed;
        refValue        uniform 300;
        refGradient     uniform 0;
        valueFraction   uniform 0.991591;
        source          uniform 0;
        value           nonuniform List<scalar> 
400
(
300.028
300.028
300.029
300.03
300.03
300.031
300.032
300.033
300.033
300.034
300.034
300.035
300.035
300.036
300.036
300.036
300.037
300.037
300.037
300.037
300.028
300.028
300.029
300.03
300.031
300.032
300.032
300.033
300.034
300.034
300.035
300.035
300.036
300.036
300.037
300.037
300.037
300.037
300.037