/*--------------------------------*- C++ -*----------------------------------*\
| =========                 |                                                 |
| \\      /  F ield         | OpenFOAM: The Open Source CFD Toolbox           |
|  \\    /   O peration     | Version:  2212                                  |
|   \\  /    A nd           | Website:  www.openfoam.com                      |
|    \\/     M anipulation  |                                                 |
\*---------------------------------------------------------------------------*/
FoamFile
{
    version     2.0;
    format      ascii;
    arch        "LSB;label=32;scalar=64";
    class       volScalarField;
    location    "0";
    object      relativeErrorField;
}
// * * * * * * * * * * * * * * * * * * * * * * * * * * * * * * * * * * * * * //

dimensions      [0 0 0 1 0 0 0];

internalField   nonuniform List<scalar> 
3200
(
0.00327386
0.00269202
0.00717896
0.0130364
0.00782293
0.00712285
0.00560755
0.0118006
0.00851198
0.00840421
0.00487297
0.00340457
0.00741684
0.00385912
0.00541829
0.0113095
0.00849427
0.00843301
0.00117905
0.00492916
0.00126984
0.00756375
0.00655965
0.00758059
0.00507228
0.0121217
0.00714979
0.00436153
0.00627032
0.00634831
0.00593466
0.00484293
0.00313252
0.00824741
0.00751229
0.00654036
0.00919564
0.00598694
0.00440447
0.00251853
0.00580557
0.00135273
0.00322899
0.00589259
0.0039288
0.00367668
0.00839108
0.00423119
0.00491051
0.00505517
0.00831866
0.00110751
0.00339948
0.00301994
0.0017288
0.00264315
0.00766421
0.000864618
0.00350829
0.00240608
0.00141366
0.000252414
0.000967044
0.00244082
0.00763666
0.00738773
0.000246007
0.000653981
0.00604643
0.0058504
0.00274577
0.00136013
0.00124618
0.00183817
0.000695341
0.00564039
0.00175897
0.0015653
0.0063586
0.00273652
0.000624711
0.00403989
0.00819032
0.00735199
0.00418524
0.00237421
0.000953023
0.00246912
0.00396887
0.00140641
0.00423075
0.00390224
0.00105999
0.00082099
0.00139055
0.00615798
0.00032194
0.00275979
0.000220848
0.00256246
0.00176461
0.0011033
0.000384713
0.000441976
0.0023865
0.00267236
0.00246548
0.0023925
0.00335232
9.40123e-05
0.000636667
0.00297431
0.000354959
0.000618595
0.0033475
0.000570309
0.000529614
0.00105412
0.00219546
0.00130111
0.00240266
9.03433e-05
0.000170969
0.00405211
0.00625689
0.00459623
0.00116929
0.00284999
0.00354342
0.00303254
0.00696705
0.00366353
0.00184037
0.0061898
0.00105375
0.00567257
0.00302756
0.00217385
0.00453375
0.00231345
0.00175403
4.86548e-05
0.00196322
0.00130876
0.000914337
0.00166636
0.00286115
0.00261865
0.00369037
0.00120185
0.00157577
0.00382863
0.00405376
0.000512621
0.00195599
0.00102301
0.00417627
0.0011341
0.00250229
0.00268857
0.000856602
0.00728409
0.00712561
0.00964896
0.00478294
0.0082578
0.00973972
0.0058348
0.00661768
0.00517995
0.00776744
0.00504273
0.00846304
0.00314471
0.0110569
0.00728267
0.0064191
0.00807547
0.00994254
0.00365091
0.00401996
0.000826773
0.00790267
0.000460425
0.00696456
0.000561564
0.00682135
0.000632023
0.00652241
0.000178425
0.00120571
0.00857627
0.00143825
0.00599598
0.0020994
0.00431945
0.00033104
0.00140685
0.000992304
0.0023883
0.00274565
0.00938629
0.00663081
0.00332249
0.00684051
0.0101468
0.00748901
0.00475133
0.00591094
0.00442063
0.00106936
0.00337198
0.00404594
0.00131583
0.00435729
0.00395861
0.00719954
0.00364958
0.00404708
0.00184718
0.000572772
0.00542749
0.00724301
0.00552193
0.00221836
0.00551516
0.00321065
0.00477061
0.00426604
0.00565716
0.00590198
0.00212453
0.00184549
0.000576342
0.00367198
0.00383577
0.00443063
0.00130598
0.00189752
0.00181136
0.00391959
0.00526919
0.00159591
0.000670844
0.00368099
0.00202416
0.00366853
0.00519968
0.00394241
0.00498105
0.00268617
0.00324127
0.00470994
0.00194055
0.00614603
0.00467466
0.00257252
0.000634129
0.00145341
0.000524876
0.00138521
0.000114189
0.000247659
0.00346528
0.00263118
0.00264559
0.0061503
0.00190758
0.00702942
0.000344015
0.00332484
0.00159102
0.00026492
0.00490168
0.00151576
0.000604558
0.00741198
0.0028458
0.00219198
0.00140752
0.00109378
0.00389124
0.00166238
0.00341457
0.00128779
0.00347415
0.00202283
0.00601096
0.00408266
0.000312036
0.000963635
0.00342586
0.000231981
0.00324891
0.000691699
0.00449114
0.00318614
0.0049006
0.0038675
0.00283858
0.00180793
0.000107509
0.00481486
0.00557348
0.00107716
0.00118053
0.00145493
0.00340581
0.00404949
0.000444053
0.00552148
0.000481334
0.00134492
0.00140984
0.00103133
0.00445606
0.00104632
0.00121782
0.000991054
0.00234763
0.00251944
0.00318008
0.00433505
0.00686028
0.0133938
0.00354524
0.00898247
0.0105414
0.00602108
0.0012144
0.000695558
0.00307656
0.00271077
0.00403217
0.00719114
0.0070011
0.0104608
0.0110252
0.00430094
0.00161776
0.00441231
0.00203507
0.00908378
0.00749415
0.00779782
0.00815961
0.00319522
0.00161438
0.00919364
0.00416077
0.00340401
0.00199872
0.000517825
0.000928
0.00374651
0.00475218
0.0058077
0.00435141
6.13902e-06
0.000483832
0.00242898
0.00218817
0.00666527
0.00915144
0.00479265
0.0059459
0.00660914
0.0065528
0.00606155
0.00309638
0.000400821
7.81791e-05
0.00271326
0.00187151
0.000835561
0.00193659
0.00387002
0.00693104
0.00671905
0.00140874
0.00257857
0.000760227
0.00214647
0.00642726
0.00413251
0.0101336
0.00264003
0.00454698
0.00180146
0.00529231
0.00272058
0.00193929
0.0016974
0.000164337
0.00158135
0.00452658
0.00424959
0.00127968
0.000612076
0.00748347
0.00237257
0.00148039
0.00286536
0.00459541
0.0071044
7.86552e-05
0.000583154
0.00109656
0.00330897
0.00157667
0.00502968
0.000817975
0.00455919
0.00234378
0.00324373
0.000290651
0.00744074
0.00421532
0.000921438
0.00133677
0.000671579
0.00258873
0.00203064
0.00194862
0.00235624
0.000214588
0.00126095
0.0005562
0.000748535
0.00563949
0.000502745
0.00297311
0.00052293
0.00161295
0.00128167
0.00412402
8.94516e-05
0.00199401
0.00227398
0.000372783
0.00222728
0.00144523
0.00162189
7.72085e-06
0.00222015
0.0020042
0.00288572
0.00273216
0.00107673
0.00044418
0.00257514
0.00570489
0.00122869
0.00282293
0.00456963
0.00118519
0.00262881
0.000402555
0.00603709
0.00153713
0.0024372
0.00116934
0.00231441
0.000159502
0.00107389
0.00337068
0.00332361
0.00206957
0.00814552
0.00299668
0.00289759
0.0016775
0.00161197
0.00104707
0.00537566
0.00094059
0.00182439
0.00223088
0.00163159
0.00230073
0.00307805
0.00651377
0.00577423
0.00609533
0.00812419
0.00822949
0.00500343
0.00960315
0.00591589
0.00121715
0.00357548
0.000384508
0.00379244
0.00478712
0.00449397
0.00627204
0.00722065
0.000144525
0.00204756
0.00447497
0.00387484
0.000784972
0.00116025
0.000178989
0.0128919
0.00141072
0.00541948
0.000227065
0.000362388
0.000354385
0.000127612
0.00311091
0.000273464
0.00385304
0.00048154
0.00475969
0.000678505
0.000498067
9.58446e-05
0.000763447
0.00429257
0.00246523
0.0048507
0.00742067
0.00395718
0.00291605
0.00246082
0.00417178
0.000624065
0.0067422
0.00247733
0.0041625
0.00160044
0.000207538
0.00146605
0.00178056
0.00693039
0.00144214
0.00164784
0.000851461
0.00190188
0.00155185
0.00213895
0.00304057
0.00446668
0.00329107
0.00557059
0.00345536
0.000837967
0.000290091
0.00032562
0.00131704
0.0036144
0.00419339
0.00288105
0.000793985
0.000481573
0.00302805
0.00139385
0.000152994
0.00179045
0.00481753
0.00473466
0.000297761
0.00682001
0.00461511
0.000127245
0.00400693
0.00312286
0.00280318
0.000427057
0.00225391
0.00361606
0.00229704
0.00292822
0.000903758
0.00107131
0.00269113
0.000219348
0.00375814
0.00103679
0.00269702
0.00573218
0.000371806
0.00387173
0.00313263
0.000251631
0.00394025
0.00401481
0.000286123
0.00114686
0.00213305
0.00390092
0.00755162
0.00201803
0.00124115
0.00115452
0.000402031
0.00334577
0.000604894
0.00374805
0.00350218
0.00210955
0.0010199
0.00232313
0.00490764
0.000549619
0.00173387
0.000578134
0.000955261
0.00251766
0.00121013
2.68778e-05
0.0021674
0.00494042
0.00314304
0.00579359
0.00063766
0.0047503
0.00186461
0.00166654
0.00389849
0.00151542
0.001168
0.00268604
0.00420026
0.000571883
0.00570688
0.00310733
0.000755542
0.00359591
0.000450657
0.0032514
0.00112882
0.0066205
0.000348194
0.00779685
0.00256515
5.68585e-05
0.00234054
0.00116163
0.0043547
0.00379427
0.00244999
0.00493115
0.0054443
0.00440372
0.000194094
0.0055211
0.00344461
0.000629163
0.000248549
0.00156301
0.000523297
0.00306702
0.00219216
0.0040677
0.006723
0.00205275
0.00627651
0.00203197
0.00194004
0.00728891
0.00358646
0.00529927
0.00382078
0.000260961
0.000274143
0.00104916
0.00144945
0.00577975
0.000288526
0.000867438
0.000480921
0.00178116
0.0048447
0.00358944
0.000414313
0.0010529
0.00378924
0.000117076
0.00105029
0.00469494
0.00320423
0.0034277
0.00245753
0.00330787
0.00239103
0.0042099
0.00394732
0.00132309
0.000914762
0.000621048
0.00219351
0.00341621
0.00274453
0.00253223
0.00134694
0.000266172
0.00212124
0.00354066
0.0018797
0.000903477
0.00264381
0.00269042
0.000409695
0.000996435
0.00267056
0.00486978
0.00331418
0.00163098
0.00445072
0.00029584
0.00269417
0.00230663
0.00565544
0.00434755
0.00231638
0.00270134
0.00315982
0.00278587
0.00411189
0.000899603
0.000430305
0.00158791
0.00728986
0.00306014
0.00636518
0.00181058
0.000226727
0.0049952
0.00460548
0.00108531
0.000434313
0.00248094
0.001604
0.00135884
1.54205e-05
0.000306743
0.00068887
0.00243161
0.00125642
0.00154417
0.000329152
0.00211876
0.00756789
0.00125805
0.000552211
0.00131045
0.00240204
0.00148616
0.000190773
0.00171862
0.000667303
0.00225143
0.00324598
0.00444597
0.00353079
0.00126473
0.000139255
0.0024813
0.00159831
0.00279794
0.00328851
0.000212587
0.000971097
0.000977676
0.000448079
0.0026076
0.000589532
0.00590101
0.00406701
0.00242379
0.00373756
0.00268631
0.00120003
0.00476411
0.00488863
0.00282326
0.00341997
0.000852317
0.00533288
0.000480107
0.00294059
0.000309858
0.00360972
0.00117401
0.00341452
0.00367555
0.000566271
0.0042077
0.00330023
0.00361226
0.00231783
0.00348638
0.00186796
0.00254542
0.00177963
0.000476716
0.000605917
0.00124547
0.00422714
0.00692826
0.00130357
0.00478458
0.0034682
0.0048979
0.00548928
0.00174231
0.00194841
0.000479412
0.00189985
0.000224089
0.00256137
0.00261398
0.00265318
0.00097188
0.00146486
0.00022697
0.00318871
0.00262732
3.60243e-07
0.00612742
0.000313376
0.00425701
0.00132623
0.00134209
0.000481681
0.00330719
0.00119916
0.000142443
0.00565708
0.000806068
0.00375732
0.00112442
0.00428112
0.00138119
0.00243328
0.00119895
0.000398321
0.00234559
0.00246629
0.00314999
0.000144472
0.00308496
0.00202196
0.0017292
0.00394032
0.00407268
0.00630818
0.00706646
0.00540559
0.00293511
0.00227538
0.00353451
0.00247394
0.00183257
0.00256829
0.00226406
0.00656419
0.00259876
5.29702e-06
0.00512706
0.000896356
0.00238227
0.000787019
0.000239664
0.00320533
0.00222453
0.00370557
0.000169134
0.0030095
0.00107923
0.00538756
0.000789606
6.55393e-05
0.00416279
0.000837939
0.00137044
0.00051136
0.000684549
4.19403e-05
0.00411918
0.00416116
0.00153717
0.00375796
0.0017701
0.00180872
0.000950161
0.000264241
0.00140198
0.00312808
0.00389329
0.00218497
0.00607717
0.00249844
0.00202326
0.00318874
0.00262583
0.00118601
0.00172445
0.00386176
0.00323717
0.000427119
0.00106596
0.00377086
0.000671184
0.00158804
0.00330426
0.00488218
4.96526e-05
0.00366619
0.00189662
0.00318656
0.00166445
0.00149606
0.00306376
0.00357911
0.00106629
0.000874023
0.00199324
0.00219774
0.00137204
0.00304282
0.00248918
0.00213932
0.00332236
0.00187991
0.00180802
0.0041948
0.00525805
0.00252775
0.00483462
0.00570573
0.000190705
0.00218032
0.00104083
0.00110281
0.00384143
3.84764e-05
0.00154367
0.000339942
0.000959857
0.000700798
0.00116522
0.00117046
0.00586675
0.00138714
0.000106963
0.000300209
0.00257463
0.000425837
0.00166472
0.00377671
0.00499352
0.00154852
0.00328039
0.000662859
0.00124369
0.00402698
0.00478215
0.00461748
0.00349304
0.00368855
0.00161223
0.000928534
0.00215819
0.002428
0.00105546
0.00130455
0.00144479
0.00198334
0.00292183
0.00153928
0.000707318
0.00176691
0.00228425
0.0034648
0.00142792
0.00125747
0.00157618
0.00555336
0.00212092
0.00481984
0.00294679
5.48878e-05
0.00387548
0.000180541
0.00645068
0.00144235
0.00455657
0.00280472
0.00135318
0.00268929
0.00249699
0.00457803
0.00666366
0.00214565
0.00359759
0.00705914
0.000653037
0.00213599
0.00113562
0.00306299
0.00126344
0.00302182
0.000990684
0.00356721
0.00436364
0.000996215
0.00228766
0.00496201
0.00374046
0.000496396
0.00283309
0.002624
7.82176e-05
0.000598262
0.0019156
0.000239997
0.00806275
0.0022046
0.00198906
0.00341592
0.000854598
0.00243017
0.00538368
0.002673
0.00443353
0.0049024
0.00888837
0.00472712
0.00642988
0.00186254
0.00664941
0.00350425
0.00308434
0.000579873
0.00355683
0.0033275
0.00519074
0.00313892
0.000167392
0.000592553
0.00383119
0.00272779
0.00250584
0.00431639
0.00193962
0.00158452
0.00422858
0.00337594
0.00339299
0.000759781
0.000602647
0.00178631
0.00145922
0.000586542
0.000601054
0.000792328
0.00581106
0.00168842
0.00469577
0.000833583
0.00105871
0.000986419
0.000731277
0.000186489
0.00149949
0.00742841
0.00121145
4.8536e-05
0.00361014
0.00495345
0.000533542
0.00211443
4.32524e-06
0.00637801
0.000535238
0.00328086
0.00187251
3.74051e-06
4.84767e-06
0.000776882
0.00199653
0.00117172
0.00518624
0.00265114
0.00339883
0.00118662
0.000948683
0.0023374
0.00521485
0.00882605
0.000863758
0.000265964
0.000801383
0.00148449
0.00311451
0.00133391
0.000116248
0.000760826
0.00448532
0.000219946
0.00404672
0.000482111
0.00334318
0.000173999
0.00209048
0.00401231
0.00100963
0.00323209
0.00209835
0.000553737
0.00241889
0.00031845
0.00166321
0.00406791
0.00528544
0.000489733
0.00312441
0.00316466
0.00303228
0.000425513
0.000783473
0.00186431
0.00107512
0.00381743
0.00739473
0.0053426
0.0112678
0.00574689
0.00087575
0.00107593
0.0045464
0.000914604
0.000730268
0.000608864
0.00437505
0.000617079
0.0019548
0.00100273
0.000688349
0.00115937
0.000242442
3.03584e-05
0.000795169
0.000656071
0.00117902
0.000363021
0.000649329
0.00523544
2.34851e-05
0.00491277
0.000427566
0.00118647
0.00106067
0.00113836
0.000760681
0.000600075
0.00259023
0.00164206
0.00402218
0.00159152
0.0015168
0.00398887
5.642e-05
0.000780712
0.00409475
0.00235297
0.00620127
0.00256343
0.00605822
0.00392846
0.00229416
0.00336448
0.000368417
0.00413354
0.00220761
0.00342966
0.0064243
0.00252044
0.00266893
0.003391
0.00519939
0.000398353
0.000688536
0.0015673
0.0037013
0.00910862
0.0045735
0.00636281
0.00480713
0.0032245
0.0010749
0.00176631
0.00369609
0.00288107
0.000660433
0.002335
0.00205139
0.0011474
0.00412565
0.00623665
0.00224711
0.00199049
0.00525577
0.00219338
0.00320092
0.000159936
1.43898e-05
0.00598597
0.00165515
0.00400668
0.00287781
0.00028624
0.00615434
0.00107721
0.00368074
0.00457615
0.00104045
0.00188284
0.000652712
9.05731e-05
0.000774775
0.000573686
0.00156693
0.00125908
0.00476047
0.00449142
0.00202413
0.00562849
0.00161456
0.000981713
0.0015253
0.00221074
0.000475838
1.15627e-05
0.000614936
0.00471921
0.0020538
0.00172478
0.00170746
0.00113376
0.000744561
0.0027643
0.00343235
0.000400019
0.00507307
0.000393202
0.00531624
0.000712794
0.00269069
0.000247928
0.00204332
0.000600541
0.0067216
0.000460739
0.00313903
0.00143914
0.00367355
0.00139899
0.00168134
0.00126861
0.00131437
0.0020936
0.0030507
0.000561451
0.00162472
0.000182987
0.00316917
0.00236078
0.00375674
0.0011433
0.004494
0.00466103
0.00143342
0.0012417
0.00401494
0.00539497
0.00626377
0.00114807
0.000646294
0.000460689
0.00158902
0.00436639
0.0042257
0.00287686
0.00278922
0.00695042
0.00456567
0.00342956
0.00407559
0.00685241
0.00136296
0.00478296
0.00726042
0.00372762
0.00156836
0.00697089
0.0065264
0.00287696
0.000728623
0.00184391
0.00234698
0.000191404
0.0020499
0.00174575
0.0092662
0.0071473
0.00818739
0.00735801
0.00431416
0.00705577
0.00450656
0.00641946
0.00322018
0.00613444
0.00355291
0.00682936
0.00258823
0.00114876
0.000773935
0.00133011
0.00353298
0.00104883
0.000565354
0.00127977
0.00236003
0.00732128
0.00723901
0.000163693
0.0021825
0.000128945
0.00450235
0.000342253
0.00520737
0.00037355
0.00265941
0.00204338
0.00947858
0.00185169
0.00598591
0.00353787
0.00474149
0.000641353
2.80682e-05
0.00208525
0.00272272
0.000598315
0.00284163
0.00409938
0.00188714
0.00256634
0.00162647
0.00175159
0.00431624
0.0020639
0.00165613
0.00154093
0.000971411
0.00385556
0.0026572
0.00367564
0.0011521
0.000792576
0.00184015
0.00184297
0.00352268
0.00319479
0.00183293
0.00155749
0.00519553
0.00230103
0.00307696
0.00294838
0.00210287
0.00239801
0.00302314
0.00229117
0.00369607
0.00325625
0.00386346
0.00389624
0.00179103
0.000438719
0.000773083
0.00284181
0.00564779
0.000875216
0.00743499
0.00176991
0.00461948
0.00353419
0.00203583
0.00210807
0.00391404
0.0018827
0.000108387
0.00377128
0.00100394
0.00470978
0.00281117
0.00340972
0.0030908
0.000510005
0.00383845
0.0026119
0.0008096
0.00701176
0.00429565
0.00290966
0.000929229
0.00365667
3.57518e-05
0.000889491
0.00165783
0.00134039
0.00150321
0.00202204
0.00190847
0.000950447
0.00196151
0.0014418
0.00144126
0.00192468
0.00422932
0.00348336
0.000391643
0.00146471
0.000746965
0.000701429
0.00529849
0.000702571
0.00119943
0.00210293
0.00347082
0.00133098
0.00401964
0.00217765
0.0048403
0.0059782
0.00640934
0.00323258
0.000484845
0.00024172
0.0026052
0.00192578
0.00175538
0.00513788
0.00512306
0.00944967
0.000281549
0.00319322
0.00300726
0.0030942
0.00458732
0.00509529
0.00290712
0.00254279
0.00115612
0.000502285
0.00176148
0.000310984
0.000825813
0.00191993
0.00582039
0.000255639
0.00804627
0.000331245
7.41997e-05
0.00740481
0.00067169
0.000254995
0.00167084
0.00413207
0.000293535
0.00477278
0.000205318
0.00438152
0.00612435
0.00399019
0.00333252
0.00114912
0.000553025
0.00667117
0.0022074
0.00493622
0.00134403
0.00652887
0.00597719
0.0111986
0.00831853
0.00307334
0.00156495
0.00126915
0.00290909
0.00623127
0.00329414
0.00204148
0.00164974
0.00550133
0.00281685
0.00306636
0.0025281
0.00314886
0.00463334
0.00530277
0.0102618
0.0033358
0.00355408
0.00267367
0.0024171
0.000115679
0.00354695
0.00470275
0.00140258
0.000137474
0.00588463
0.00275363
0.00679406
0.00347963
0.00410231
0.00655525
0.000118252
0.00187765
0.00283701
0.00430677
0.00205726
0.00140195
0.00868891
0.00033583
0.00439199
0.00172504
0.00332687
0.00280518
0.00248885
0.00544769
0.00431982
0.00650922
0.00333122
0.00094024
0.00540502
0.0048314
0.00361686
0.00257452
0.00630628
0.000176075
0.00843078
0.00403993
0.00415485
0.00305436
0.000290069
0.000133155
0.000312127
0.00130932
0.00178076
0.00338513
0.00308628
0.0039672
0.00500875
0.00151313
0.00177743
0.00096162
0.00302492
0.00200864
0.00291776
0.0011205
0.00429377
0.00255088
0.00382525
0.00182078
0.00326916
0.000693387
0.00274888
0.00485058
0.000563554
0.000747839
0.00273938
0.00297109
0.00165746
0.000357017
0.00867694
0.00221176
0.00355747
0.00115904
0.00215772
0.000524042
0.000707545
0.00202189
0.00130321
0.00206183
0.00632498
0.00590007
0.0015387
0.00166836
0.00393333
0.000853778
0.00468797
5.98519e-05
0.00316048
0.0052823
0.0046798
0.00159811
0.000206527
0.000920597
0.000667007
0.00369082
0.00709246
0.00855682
0.00644132
0.00453027
0.00644796
0.00547487
0.00377258
0.00289527
0.00223796
0.000337985
0.00159757
0.00488412
0.00414451
0.000104956
0.00354374
0.000249335
0.000583216
0.000447251
0.00183329
0.000702658
0.00621363
0.000499098
0.000658465
0.00520408
0.000439873
0.00239964
0.000659204
0.00466267
0.00133142
0.00234299
0.000402916
0.00798097
0.00649114
0.00274764
9.76267e-05
0.000175385
0.0023138
0.00287321
0.00769722
0.00485125
0.00693907
0.00612485
0.00646593
0.00169393
0.00978044
0.00692004
0.00570957
0.00340801
0.000827196
0.00207577
0.00409658
0.00337472
0.00242733
0.000815098
0.0049831
0.00364045
0.00183591
0.00272193
0.00374986
0.00625057
0.00289285
0.00460991
0.00481645
0.00170829
0.00375827
0.00575411
0.00328154
0.00531316
0.00228142
5.33316e-05
0.00261801
0.00493134
0.00609807
0.0032504
0.00415807
0.00643309
0.00473574
0.00070946
0.00048839
0.00137305
0.00504376
0.00277044
0.00458293
0.00648663
0.00166661
0.00458303
0.00247405
0.00213088
0.00325221
0.000367463
0.00434222
0.00601815
0.00651117
0.00442627
0.00170869
0.00484415
0.00364646
0.00733953
0.00153667
0.0052699
1.1461e-05
0.00308768
0.00216939
0.00360569
0.00112674
8.23264e-05
0.00425803
0.00126416
0.00458237
0.000576089
0.000943296
0.00283951
0.00131618
0.00291825
0.000917263
0.00151063
0.00202046
0.00278879
0.00376794
0.000542305
7.40102e-05
0.00320325
0.00124003
0.00381016
0.00632952
0.00374964
0.00258554
0.00160357
0.000776912
0.00647217
0.00392724
0.0044938
0.000787875
0.00177031
0.00219439
0.000232056
0.0067649
0.00155426
0.00350229
0.000910837
0.00291322
0.00496993
0.000710866
0.00214788
0.00504396
2.7809e-05
0.00104281
0.00157961
0.000329254
0.00189156
0.0012953
0.000490065
0.00679035
0.00483492
0.00473818
0.00224514
0.00111721
0.0005159
0.000256342
0.00328736
0.00606689
0.00637968
0.00497197
0.006787
0.00662124
0.0108368
0.00125146
0.00291465
0.00887428
0.00207862
0.00664653
0.00428757
0.0035199
0.000763198
0.00154302
0.00316314
0.00193106
0.000800876
0.000839896
0.00571904
0.00743593
0.00130824
0.0104031
0.00553035
0.00736285
0.00503554
0.00348909
0.00235581
0.00291557
0.00441161
0.00107501
0.0027434
0.00329548
0.00406817
0.00259122
0.00187718
0.000461772
0.00326282
0.00957047
0.00743915
0.00327489
0.00817372
0.0107238
0.00473918
0.0108202
0.0061046
0.00316549
0.0037646
0.00462462
0.00147086
0.00528393
0.00207237
0.00471629
0.000394031
0.000642484
0.0013549
0.000381463
0.00107694
0.0011593
0.00126622
0.0061588
0.00501551
0.00306977
0.00872892
0.00381133
0.00452746
0.00192453
0.00273357
0.00207849
0.00454543
0.00354685
0.00249396
0.00612311
0.0017947
0.00396692
0.00861048
0.00119577
0.00714475
0.00385911
0.00451972
0.00340648
0.00715198
0.00803917
0.00361952
0.00501269
0.00105055
0.00149989
0.00382033
0.00434882
0.00855805
0.0075172
0.0016647
0.0011256
0.00238619
0.00503302
0.00229624
0.0060479
0.00344884
0.00235155
0.00182454
0.000955768
0.00197223
0.0024013
0.000567939
0.00138368
0.00547931
0.0028065
0.00108935
0.00222461
0.000430776
0.00332016
0.000817537
0.00104983
0.000711425
0.000895505
0.000695756
0.00282725
0.00644373
0.00287593
0.000147735
0.00369227
0.00188398
0.000544577
0.00741092
0.00179535
0.00386232
0.000234465
0.00110756
0.0017942
0.000561384
0.00407724
0.00228051
0.000984958
0.000975093
0.00411815
0.00146678
0.000604507
0.010372
0.00243731
0.00197842
0.00412668
0.00271634
0.00011153
0.00138625
0.000208799
0.00040463
0.000869993
0.00450665
0.00310501
0.00180089
0.00399491
0.00474585
0.00451301
0.00549571
0.00140334
0.00101984
0.00207367
0.00111116
0.000285363
0.00490934
0.000863422
0.00193984
0.00667914
0.00754753
0.00200252
0.00236597
0.00275877
0.00137009
0.00413715
0.0023135
0.002942
0.00551748
0.00536904
0.00192092
0.00635465
0.000809128
0.00215721
0.000347473
0.00446831
0.000242896
0.00556111
0.000183958
0.000882626
0.00537766
0.00047827
0.00289185
0.00179435
0.00192341
0.00103642
0.00237917
0.00254177
0.0082275
0.002627
0.00744548
0.00233243
0.00148721
0.00479562
0.0013157
0.0014233
0.000906559
0.00118411
0.00253591
0.00594159
0.00479502
0.0032979
0.00221733
0.00464023
0.00231949
0.00500711
0.000639261
0.000292699
0.00560707
0.00537762
0.00357365
0.00138876
0.00250806
0.000662175
0.00142576
2.66003e-05
0.00356434
0.000840319
0.00684994
0.00715819
0.00436068
0.0013224
0.0085919
0.00945095
0.00471571
0.0041019
0.000542572
0.00405772
0.00537653
0.000793208
0.000830723
0.00292244
0.000567697
0.000890043
0.00408469
0.00149895
0.0044993
0.00294203
0.0100743
0.0072261
0.000646575
0.00266218
0.00488939
0.000786016
0.00230421
0.000453621
0.00496295
0.00216538
0.0048707
0.000947245
0.00459925
0.000963094
0.00227037
0.000814904
0.000406907
0.0036815
0.00606463
0.00453713
0.000975889
0.00209413
0.00181819
0.00241396
0.00406714
0.00210254
9.95077e-05
0.00499885
0.00306495
0.00493038
0.000939615
0.00418965
0.00527496
0.00196969
0.00233808
0.00114276
0.000673391
0.00191074
0.000353582
0.0032684
0.00324945
0.0011404
0.00198932
0.000586994
0.00487437
4.53247e-05
0.00560072
0.000640861
0.00446783
0.000192628
0.00404332
0.00146854
0.000360117
0.00225891
0.00605614
0.00164872
0.00111489
0.00626548
0.00563537
0.000237645
0.00203342
0.000408361
0.00171617
0.00262947
0.00557693
0.000948412
0.000186812
0.00269894
0.0051279
0.00349224
0.000799484
0.00543247
0.000249898
0.0095332
0.00156597
0.00112764
0.00316609
0.00132991
0.00420941
0.00450269
0.00456327
0.00157839
0.00381184
0.00400853
0.00489686
0.00272089
0.00392255
0.000846708
0.0046245
0.00571204
0.00510367
0.00339513
0.00375041
0.00090616
0.00231067
0.00384395
0.00421927
0.003563
0.00145671
0.00290895
0.00152831
0.0040221
0.00298077
0.00108924
0.00635609
0.00118241
0.00146233
0.000864701
0.00430563
0.000575488
0.0102927
0.00606637
0.00494487
0.0059356
0.0044361
3.19051e-05
0.00207524
0.000980437
0.00290327
0.00534677
0.00406266
0.00570463
0.00400954
0.00172062
0.00109445
0.00530082
0.00815639
0.00234502
0.0035168
0.00442719
0.00484332
0.00727954
0.00134175
0.000167344
0.00030296
0.00353265
0.00675175
0.000682764
0.00129835
0.00712257
0.00558485
0.00429884
0.00443726
0.00441555
0.00325937
0.00293813
0.000791463
0.00351336
0.00182465
0.00261658
0.00501851
0.00268239
0.00428907
0.00422215
0.0031432
0.00309103
0.00228161
0.00280334
0.000313183
0.00598272
0.00244332
0.00185668
0.00181059
0.00493226
0.000223666
5.20042e-06
0.00191871
0.000282206
0.00026758
0.00396634
0.00403874
0.00641378
0.000830421
0.00606417
0.0041664
0.000168522
0.00233434
0.00173155
0.00297687
0.00375923
0.000867005
0.00298501
0.00134701
0.0021805
0.00339034
0.0037978
0.00404259
0.00212427
0.0011912
0.00155959
0.00839536
0.000987589
0.00144841
0.00155336
0.000747073
0.0011359
0.00157638
0.0019186
0.00353732
0.00614112
0.00460486
0.0014085
0.000162952
0.000413808
0.00363929
0.000534606
0.00165699
0.00446787
0.00069474
0.00213742
0.00177786
0.0039688
0.000517243
0.000555663
0.00170605
0.000524043
0.000924724
0.00117163
0.000872863
0.00125121
0.00416634
0.000333198
0.00333454
0.00867458
0.00278057
0.00440706
0.0024628
0.00250675
0.00248586
8.18916e-05
0.00129044
0.00514881
0.00268847
0.00356191
0.000551525
5.62458e-05
0.000491728
0.00476995
0.00062137
0.00453692
0.00281408
2.94669e-05
0.00449795
0.00110335
0.00245398
0.00117046
0.000360412
0.000733358
0.00100819
0.00263136
0.00696797
0.0031284
0.00136163
0.00242756
0.00038153
0.00433867
0.000289573
0.00377823
8.93555e-05
0.00513146
0.000102537
0.000711161
0.00294377
0.000158096
0.00150095
0.000527572
0.00024543
0.0003587
2.32578e-06
9.72317e-05
0.00197533
0.00479134
0.00735726
0.00863972
0.0025317
0.0035885
0.00610634
0.00108494
0.00254314
0.00577637
0.00535536
0.00240614
0.00397014
0.00144981
0.00198502
0.000738495
0.00123026
0.00220158
0.00227168
0.00408933
0.00294997
0.00602433
0.00449235
0.00343992
1.77701e-05
0.0030837
0.0038975
0.00123768
0.00507432
0.00279813
0.00247281
0.00244856
0.00191849
0.00313274
0.00600099
0.00236815
0.000458884
0.00339833
0.00436236
0.00168484
0.000153317
0.00137986
0.00224307
0.00104253
0.00176182
0.00324037
2.84874e-05
0.000256674
0.000571551
0.00192613
0.00336531
0.00228566
0.000149726
0.00193374
0.00581292
0.00100435
0.00424745
0.00122774
0.0034168
0.00115795
0.00190957
0.00582614
0.00518105
0.00163594
0.00191949
0.00353879
0.00476796
8.73996e-05
0.00190377
0.00167969
0.00388297
0.000652997
0.00245158
0.0037165
0.00154689
0.00108933
0.00111323
0.00134822
0.00243359
0.000128685
0.00455596
0.00418845
0.00100952
0.00240852
5.44788e-05
0.00320959
0.000875027
0.00196924
0.000435442
0.00513519
0.00127602
0.000910932
0.00294128
0.00242225
0.00434193
0.00456014
5.1087e-05
0.00133826
0.0060437
0.00137979
6.45885e-05
0.000318869
0.00423278
0.00116421
0.00151294
0.000921284
0.00170973
0.00238703
0.00251661
0.00198365
0.00106653
0.000538306
0.00234916
0.00129159
0.00255142
0.00341328
0.00413697
0.000566393
0.00427426
0.00104809
0.000681475
0.00548525
0.00296577
0.000629171
0.00141807
0.00165696
0.00137575
0.00421873
0.000388072
0.00221042
0.000266111
0.00215473
0.00333624
0.000109546
0.00227993
0.00212113
0.000524063
0.00511376
0.000109126
0.00180116
0.00453875
0.00327048
0.00331661
0.00379066
0.00229549
0.00234655
0.00158379
0.000580742
0.000645391
0.00162945
0.00266103
0.000513789
0.00173591
0.00274787
0.00413869
0.00152614
0.00102961
0.000673679
0.00358591
0.00062836
0.00523385
0.00180176
0.000686247
0.00244508
0.00351746
0.00211101
0.000287898
0.000782067
0.00473416
0.00170449
0.000689644
0.00287472
0.00238678
0.00110039
0.00399673
0.00227525
0.000432757
0.000237584
6.83428e-05
0.000864857
0.00446527
0.00220283
0.00377997
0.00148381
0.00369444
0.00662459
0.00466429
0.00270269
0.00138797
0.00516756
0.000336874
0.00203729
0.00356751
0.000596187
0.000696374
0.00119625
0.00215001
0.000100626
0.000311218
0.00528251
0.00573161
0.000427516
0.000661115
0.000586322
0.00230666
0.00414188
0.00512554
5.56027e-05
0.00287584
0.00134549
0.0017588
0.00212459
0.00426449
0.00153607
0.000706349
0.00142065
0.00143945
0.00129963
2.86128e-05
0.00194762
0.00356909
0.000533304
0.00151152
0.00416494
0.00380866
9.27949e-05
0.00160133
0.0026509
0.0023037
0.00191247
0.00393551
0.00254569
0.00340926
0.00217668
0.00646881
0.00216739
0.00148864
0.001411
0.00304813
0.00184864
0.00185726
0.000804835
0.00208912
0.00223411
0.000940614
0.00386447
0.00159424
0.00152494
0.00293387
0.000396627
0.00573058
0.00310949
0.000929817
0.00104728
0.00465755
0.000554705
0.00134188
1.47657e-05
0.00133661
0.00119602
0.000816044
0.00262264
0.000103802
0.00181113
0.00178556
0.00212808
0.00104279
0.00286763
0.000143255
0.000329318
0.00615754
0.000248545
0.00233498
0.00115816
0.000534013
0.00219961
0.00704506
0.000718623
0.000691854
0.000305259
0.0014279
0.00286248
0.00232442
0.00220078
0.00101162
0.00238304
0.00334123
0.00291943
0.000741048
0.00727147
0.00135974
0.00118675
0.00356631
0.000142129
0.00299275
0.00208694
0.0060598
0.000688714
0.00329219
0.000909597
0.00137055
0.0045095
0.0020046
0.00351386
0.000223755
0.00353496
0.000902499
0.00269526
1.20064e-05
0.00207558
0.000599348
0.00194652
0.00216402
0.0016671
0.000199775
0.000668288
0.00109138
0.00108589
0.00351305
0.00105291
0.00107
0.00162766
0.00145933
0.000183664
0.000938853
0.00218853
0.0024683
0.00568771
0.0021617
2.75369e-05
0.00108059
0.00210961
0.000114778
0.000891916
4.82442e-05
0.00258547
0.00230649
0.00402967