/*--------------------------------*- C++ -*----------------------------------*\
| =========                 |                                                 |
| \\      /  F ield         | OpenFOAM: The Open Source CFD Toolbox           |
|  \\    /   O peration     | Version:  2212                                  |
|   \\  /    A nd           | Website:  www.openfoam.com                      |
|    \\/     M anipulation  |                                                 |
\*---------------------------------------------------------------------------*/
FoamFile
{
    version     2.0;
    format      ascii;
    arch        "LSB;label=32;scalar=64";
    class       volScalarField;
    location    "./ITHACAoutput/true/13.5";
    object      error;
}
// * * * * * * * * * * * * * * * * * * * * * * * * * * * * * * * * * * * * * //

dimensions      [0 0 0 1 0 0 0];

internalField   nonuniform List<scalar> 
3200
(
5.81123
5.91114
6.04588
6.08736
6.46903
6.65841
6.86236
7.09868
7.30723
7.37784
7.38344
7.32402
7.14918
6.91183
6.62816
6.30614
6.20279
6.02831
5.89946
5.9048
5.03941
5.0359
5.09666
5.36852
5.44092
5.71467
5.95662
6.16648
6.29085
6.34783
6.3749
6.30767
6.19475
5.99583
5.72632
5.56374
5.32399
5.17784
5.11753
5.01881
4.30199
4.2205
4.30902
4.44375
4.62517
4.83972
5.02041
5.18906
5.3305
5.38875
5.40694
5.34467
5.14914
5.05487
4.90467
4.67432
4.50641
4.37635
4.2877
4.23244
3.53164
3.4741
3.54834
3.61071
3.74272
3.85469
4.06609
4.18431
4.29619
4.42851
4.40814
4.36073
4.24752
4.05342
3.89327
3.86711
3.71493
3.59959
3.52181
3.47738
2.69306
2.65588
2.7848
2.8168
2.94413
2.99324
3.16438
3.32064
3.41758
3.45148
3.38745
3.37129
3.34609
3.2263
3.11862
2.92332
2.79613
2.86723
2.73658
2.65029
1.86174
1.97922
1.92513
2.03636
2.08948
2.24464
2.23767
2.35983
2.37923
2.4448
2.4639
2.39838
2.38383
2.24437
2.23173
2.01857
2.07234
2.03445
1.95637
1.9197
1.18287
1.17451
1.1796
1.24703
1.25795
1.30982
1.40247
1.39009
1.47615
1.44903
1.48027
1.45694
1.39118
1.31561
1.31918
1.24332
1.22833
1.11514
1.18132
1.14879
0.335019
0.404867
0.372345
0.375077
0.467395
0.497709
0.413654
0.441105
0.467318
0.444216
0.537862
0.551752
0.474581
0.432427
0.477199
0.482402
0.299894
0.392297
0.413536
0.36207
5.31517
5.3335
5.37125
5.5309
5.68978
5.88696
6.1905
6.46987
6.61931
6.5812
6.68316
6.61353
6.47763
6.21814
5.92903
5.6619
5.57132
5.38086
5.34546
5.25391
4.68211
4.55249
4.65648
4.76221
4.98306
5.12668
5.409
5.6027
5.78979
5.78149
5.7935
5.77689
5.57323
5.3705
5.17113
5.02484
4.82795
4.68465
4.58452
4.61866
3.90085
3.95866
3.9601
4.08611
4.1718
4.4092
4.5322
4.76079
4.83436
4.86982
5.01632
4.85578
4.71811
4.63928
4.41893
4.22993
4.07204
3.93228
3.90239
3.83871
3.21255
3.17668
3.26922
3.35027
3.52687
3.64303
3.72043
3.91522
3.93872
4.09964
4.06551
4.0145
3.88309
3.76269
3.63989
3.45595
3.3369
3.32757
3.20819
3.13789
2.43445
2.50459
2.45792
2.56454
2.69399
2.83935
2.9398
3.04483
3.1638
3.11109
3.11568
3.14151
2.9923
2.87707
2.78341
2.66706
2.62547
2.48315
2.45077
2.52702
1.73332
1.71694
1.75715
1.90819
1.93203
1.99447
2.02931
2.1744
2.1891
2.26367
2.26635
2.21702
2.16971
2.07573
2.05074
1.97295
1.84675
1.77702
1.82471
1.80795
1.12066
1.10708
1.12259
1.17043
1.16545
1.22072
1.30862
1.28966
1.40827
1.39837
1.36688
1.27393
1.26493
1.3379
1.22481
1.18407
1.11917
1.03932
1.06159
1.05275
0.341774
0.345708
0.408252
0.372087
0.348218
0.381979
0.427752
0.442685
0.34785
0.506724
0.348483
0.491758
0.389671
0.444977
0.37576
0.411388
0.397397
0.329455
0.369441
0.36649
4.64157
4.58547
4.62394
4.84807
4.99743
5.13556
5.40407
5.61991
5.75454
5.83724
5.8007
5.78391
5.57663
5.34843
5.14688
4.9104
4.75827
4.54472
4.55176
4.55605
4.01346
3.9156
4.09139
4.24783
4.36765
4.55382
4.70583
4.85255
5.07802
5.00136
4.99555
4.97646
4.83369
4.63529
4.50368
4.28565
4.13359
4.0293
3.95293
3.9313
3.42345
3.44043
3.46701
3.52791
3.68173
3.85319
3.97929
4.08006
4.23788
4.30328
4.31456
4.20719
4.0807
3.97493
3.85323
3.65862
3.46183
3.39706
3.35614
3.35405
2.84499
2.73608
2.87684
2.93368
3.0477
3.18592
3.29013
3.35423
3.51294
3.53176
3.53666
3.46151
3.37759
3.253
3.09521
2.99658
2.84833
2.80421
2.73858
2.79869
2.19216
2.23962
2.22336
2.28407
2.33874
2.40463
2.54517
2.60421
2.71002
2.77031
2.75478
2.7066
2.61834
2.5445
2.44777
2.33806
2.22119
2.17969
2.10892
2.16795
1.6521
1.62128
1.64743
1.67736
1.71883
1.87772
1.84641
1.90689
1.97221
1.99952
1.97415
1.94498
1.8585
1.85351
1.75924
1.62944
1.59689
1.59287
1.53583
1.55685
0.952113
0.961329
0.990681
0.992904
0.993497
1.03446
1.08706
1.20043
1.20286
1.18934
1.18408
1.20747
1.16004
1.13157
1.04833
1.0418
0.976574
0.984429
0.998775
0.955794
0.342829
0.331157
0.307971
0.277959
0.279369
0.296493
0.37205
0.407143
0.438331
0.368446
0.426808
0.438732
0.3709
0.322865
0.31134
0.26698
0.307574
0.319935
0.378239
0.366118
3.95153
3.94892
3.98257
4.05435
4.15459
4.33064
4.53954
4.67818
4.84061
4.86367
4.83377
4.83161
4.66849
4.48043
4.26352
4.0617
3.84019
3.80685
3.8152
3.79125
3.53013
3.4713
3.45456
3.48813
3.59867
3.70352
3.97279
4.06063
4.23473
4.22063
4.20164
4.2062
4.08598
3.88067
3.76846
3.52442
3.3674
3.32493
3.36581
3.28948
2.9794
2.92252
2.93161
3.04014
3.08737
3.17475
3.32994
3.507
3.65873
3.64587
3.67725
3.63324
3.49431
3.33293
3.15693
3.01803
2.89225
2.8326
2.82258
2.86118
2.45175
2.37338
2.47241
2.47344
2.52967
2.7185
2.77537
2.8781
2.98756
2.97102
2.9671
2.95832
2.85597
2.72397
2.62358
2.44297
2.36398
2.29055
2.3252
2.32062
1.91659
1.9244
1.88136
1.94672
1.9777
2.15558
2.17974
2.21801
2.29428
2.34086
2.35208
2.31734
2.18525
2.13487
2.02087
1.94772
1.85045
1.85928
1.80388
1.79737
1.40681
1.40898
1.38772
1.42885
1.39314
1.50446
1.49648
1.63161
1.66858
1.69057
1.67127
1.675
1.61058
1.62178
1.52618
1.32697
1.32198
1.27747
1.2681
1.27047
0.933347
0.756181
0.800023
0.786183
0.871545
0.903571
0.939759
1.0137
1.00716
1.01329
1.02206
0.986652
0.92049
0.905947
0.897215
0.746775
0.744079
0.807215
0.794403
0.744262
0.286548
0.281769
0.252582
0.304247
0.278966
0.325629
0.303634
0.262398
0.307631
0.359748
0.350573
0.32547
0.33321
0.234946
0.323965
0.265227
0.276168
0.269897
0.221775
0.238883
3.41736
3.36242
3.28446
3.31927
3.37142
3.54357
3.67947
3.87367
3.97559
3.98109
3.94938
3.89798
3.69695
3.57404
3.43594
3.25413
3.08382
3.1255
3.00296
3.03585
3.04269
2.98493
2.85808
2.963
2.99526
3.10874
3.27734
3.34543
3.47401
3.46119
3.46216
3.41344
3.26227
3.11505
2.92536
2.85882
2.73687
2.66484
2.63757
2.73843
2.56407
2.51267
2.44967
2.50537
2.51394
2.6967
2.78208
2.89145
2.95153
2.97463
2.9475
2.92902
2.80994
2.71682
2.55065
2.45362
2.3821
2.28455
2.24232
2.34333
2.0615
2.10895
1.97335
2.07746
2.13263
2.25708
2.30638
2.38644
2.40589
2.43759
2.43694
2.42467
2.25958
2.19832
2.09582
2.03603
1.93293
1.84665
1.87962
1.83164
1.63374
1.63202
1.58504
1.62436
1.65675
1.71319
1.75777
1.83419
1.87653
1.93524
1.9419
1.88051
1.75417
1.73732
1.65122
1.5701
1.45179
1.45478
1.45403
1.47962
1.15144
1.14962
1.14154
1.16111
1.22022
1.26556
1.369
1.34536
1.37776
1.43968
1.37065
1.32992
1.35236
1.2385
1.09328
1.18036
1.07236
1.04365
1.05027
1.04384
0.680732
0.680871
0.679099
0.693317
0.664301
0.738852
0.720101
0.766266
0.844078
0.891038
0.784711
0.791284
0.73979
0.758612
0.736427
0.634483
0.650487
0.676403
0.66478
0.686505
0.2991
0.247001
0.180614
0.219567
0.221882
0.21649
0.140504
0.26182
0.263642
0.329897
0.321746
0.232421
0.222393
0.275697
0.278562
0.21629
0.206566
0.184051
0.22262
0.296296
2.85956
2.80581
2.71972
2.75401
2.79564
2.85386
2.9838
3.01661
3.11121
3.12931
3.10024
3.10987
2.93872
2.80488
2.65083
2.47391
2.38454
2.43157
2.39299
2.52724
2.50015
2.42346
2.35979
2.42653
2.35902
2.56228
2.60122
2.65301
2.77431
2.78837
2.69544
2.6833
2.55693
2.4229
2.28948
2.1758
2.11604
2.07716
2.09629
2.14931
2.20741
2.10952
2.10146
2.07059
2.07412
2.08965
2.20644
2.25727
2.36255
2.29966
2.33708
2.29711
2.21891
2.08908
1.87716
1.90249
1.72054
1.76519
1.79318
1.93168
1.74652
1.67141
1.60916
1.78128
1.70648
1.72574
1.81254
1.83718
1.96992
1.96061
1.97082
1.84766
1.8025
1.7217
1.62656
1.5969
1.49572
1.50476
1.50173
1.56103
1.38979
1.34795
1.33307
1.29307
1.3162
1.35277
1.45994
1.44982
1.52621
1.57796
1.54399
1.52521
1.43593
1.30198
1.34135
1.267
1.1107
1.12685
1.19451
1.16837
0.946463
1.01692
0.896468
0.961185
0.982518
1.00858
0.983772
1.1286
1.15194
1.11447
1.07413
1.04704
1.02315
1.04928
0.881695
0.823128
0.829842
0.901757
0.875616
0.838618
0.594027
0.592512
0.529497
0.58589
0.566774
0.587723
0.641968
0.654304
0.641491
0.664648
0.678521
0.689033
0.615934
0.579273
0.503178
0.534813
0.471009
0.47038
0.530553
0.508975
0.194967
0.228634
0.184056
0.230958
0.245849
0.235049
0.19491
0.254092
0.213369
0.244416
0.21526
0.223395
0.224328
0.25719
0.16363
0.115207
0.146638
0.132083
0.171878
0.243031
2.47729
2.43923
2.19879
2.12624
2.06242
2.20687
2.257
2.3311
2.39991
2.46391
2.31063
2.30108
2.1557
2.07022
1.90147
1.7834
1.72532
1.74288
1.84389
1.99892
2.19605
2.11731
1.96713
1.97197
1.84223
1.94832
2.03421
2.07392
2.12971
2.12837
2.11308
1.99186
1.89733
1.77289
1.70445
1.63225
1.55073
1.57798
1.75671
1.73811
1.90147
1.74622
1.66047
1.56697
1.55051
1.73279
1.77959
1.78632
1.71485
1.84077
1.82315
1.7545
1.62445
1.65885
1.3957
1.37922
1.41361
1.34829
1.42902
1.54942
1.57349
1.48246
1.38404
1.32864
1.35423
1.30255
1.53364
1.44447
1.50681
1.63157
1.51638
1.40834
1.28902
1.28634
1.22522
1.14472
1.10085
1.21008
1.14538
1.23382
1.19154
1.13185
1.10362
1.07607
1.0901
1.13424
1.16782
1.12419
1.13798
1.12069
1.18061
1.13236
1.10667
1.0345
0.929817
0.94832
0.925461
0.926127
0.912404
0.959672
0.87124
0.787306
0.781344
0.718863
0.779535
0.811385
0.847911
0.78871
0.817827
0.862609
0.866819
0.739986
0.789129
0.741489
0.647625
0.76321
0.571394
0.661029
0.624222
0.603543
0.522838
0.486584
0.48229
0.386361
0.502652
0.493852
0.518314
0.46773
0.57847
0.56467
0.551687
0.533589
0.519374
0.421948
0.397094
0.423244
0.430426
0.402092
0.392598
0.465946
0.144523
0.12091
0.18896
0.126111
0.140436
0.205153
0.13691
0.223909
0.210072
0.112363
0.165762
0.16536
0.118702
0.17777
0.0913142
0.157765
0.118253
0.149232
0.133872
0.140281
2.22201
1.98429
1.83209
1.71539
1.74568
1.61379
1.62238
1.66745
1.76546
1.72671
1.7174
1.6026
1.49239
1.46511
1.33235
1.2697
1.2345
1.3296
1.41284
1.52556
1.94809
1.76649
1.68962
1.52403
1.50594
1.44276
1.54731
1.47673
1.54221
1.53391
1.49415
1.44331
1.38066
1.24194
1.15769
1.09502
1.08242
1.1844
1.1959
1.38297
1.61644
1.46469
1.3889
1.28541
1.28621
1.21905
1.27056
1.36311
1.31715
1.30093
1.26662
1.2809
1.1643
1.11676
1.02608
0.865026
0.928546
0.980062
1.12234
1.16879
1.29027
1.19908
1.07845
1.05957
1.09858
1.1096
1.07027
1.14189
1.1747
1.10573
1.09678
0.975816
0.971821
0.917414
0.890715
0.813241
0.84041
0.825767
0.952
0.92914
1.05709
1.02818
0.867887
0.79737
0.915111
0.909808
0.826707
0.856652
0.913966
0.869618
0.863127
0.795342
0.774917
0.744545
0.679981
0.583786
0.638496
0.627187
0.698853
0.712089
0.707415
0.726689
0.65112
0.570789
0.596522
0.608835
0.629792
0.595894
0.560154
0.68209
0.607542
0.615574
0.506258
0.542071
0.441862
0.472874
0.426239
0.479833
0.526923
0.560006
0.430435
0.468539
0.420918
0.399984
0.359425
0.349298
0.360503
0.400395
0.40626
0.363814
0.455615
0.395526
0.318566
0.290985
0.283035
0.256857
0.288372
0.261683
0.256162
0.298912
0.233975
0.126467
0.120518
0.139056
0.0938391
0.188985
0.101066
0.220597
0.197536
0.130981
0.157252
0.101801
0.189394
0.120193
0.0886443
0.172147
0.152794
0.136664
0.164628
0.0839169
1.98192
1.76806
1.49699
1.38542
1.29983
1.31518
1.27675
1.22196
1.22705
1.13999
1.12684
1.07936
1.05
0.981494
0.847666
0.781356
0.876223
0.869113
1.04188
1.31737
1.78236
1.57179
1.36343
1.20705
1.18837
1.10822
1.06714
1.16353
1.06667
1.02675
0.972546
0.944197
0.917339
0.848709
0.724399
0.71877
0.734123
0.89654
0.973813
1.10281
1.46709
1.35038
1.17606
1.04841
0.936528
1.00342
0.95223
0.968711
0.942595
0.980995
0.87272
0.821271
0.756186
0.719093
0.707526
0.558159
0.669195
0.694278
0.896404
0.954969
1.20924
1.09113
0.994777
0.904565
0.816547
0.812927
0.782388
0.849474
0.794226
0.768308
0.791902
0.678459
0.692045
0.610546
0.583981
0.532563
0.546524
0.574233
0.735809
0.784576
0.941605
0.853095
0.821916
0.673292
0.67025
0.65544
0.614888
0.655314
0.625289
0.645154
0.592697
0.570552
0.514617
0.473905
0.461204
0.420766
0.44305
0.546186
0.556758
0.544485
0.69588
0.604328
0.590571
0.483495
0.476037
0.424546
0.376955
0.451787
0.436482
0.447052
0.470409
0.444798
0.363061
0.316379
0.299711
0.266839
0.335072
0.430756
0.384436
0.457904
0.453735
0.349455
0.352428
0.264516
0.274893
0.226872
0.301007
0.315267
0.245259
0.26105
0.285708
0.306805
0.226388
0.231541
0.202335
0.173833
0.155321
0.220244
0.23335
0.252175
0.169563
0.109224
0.0451184
0.134461
0.1515
0.0940137
0.0685894
0.0818414
0.022801
0.169922
0.046624
0.123431
0.0587131
0.107433
0.0589748
0.0586323
0.101882
0.0488674
0.067855
0.0581867
1.88564
1.65721
1.34823
1.21811
1.0792
0.915561
0.968497
0.795827
0.833061
0.811608
0.712388
0.602396
0.548121
0.547763
0.478118
0.476693
0.572975
0.649927
0.87432
1.09071
1.61732
1.47476
1.28009
1.00173
0.935779
0.879799
0.855232
0.785988
0.74226
0.666729
0.660297
0.550899
0.539925
0.4358
0.431208
0.40831
0.473547
0.630203
0.756644
0.943507
1.41144
1.26824
1.12794
0.954092
0.803655
0.766423
0.660253
0.630506
0.649539
0.498887
0.524898
0.604243
0.492521
0.410809
0.404654
0.43572
0.502282
0.586204
0.645382
0.854565
1.14137
1.07434
0.93371
0.757389
0.708641
0.636265
0.651027
0.544465
0.545788
0.490044
0.529159
0.462472
0.453077
0.340983
0.382899
0.435161
0.41183
0.49123
0.536071
0.714583
0.903651
0.752595
0.753735
0.609922
0.562439
0.457131
0.375452
0.438099
0.466128
0.441837
0.393752
0.37555
0.287013
0.242177
0.250888
0.293135
0.281773
0.287344
0.463829
0.477465
0.660376
0.577685
0.569272
0.415043
0.402504
0.32408
0.309602
0.304003
0.357732
0.297168
0.259778
0.190453
0.271119
0.212912
0.255991
0.149623
0.210102
0.231262
0.361564
0.379593
0.454372
0.334114
0.332349
0.249459
0.249148
0.204251
0.210709
0.157634
0.17408
0.187866
0.148017
0.155961
0.166176
0.0970615
0.114366
0.095488
0.120423
0.204083
0.204624
0.228581
0.124931
0.132548
0.0917963
0.0927578
0.0621174
0.118064
0.0668195
0.0653555
0.0222977
0.0431457
0.0387185
0.0309497
0.0556627
0.0454784
0.071998
0.115448
0.133637
0.0275673
0.142293
-0.00458253
1.92818
1.72708
1.38453
1.08911
0.909919
0.741885
0.66582
0.558551
0.476997
0.470296
0.413269
0.376046
0.269045
0.251626
0.253502
0.331332
0.370341
0.585259
0.800851
1.03249
1.78672
1.47127
1.22139
0.956114
0.869022
0.696723
0.535571
0.519846
0.565911
0.377102
0.341372
0.292139
0.248862
0.305925
0.31158
0.329266
0.300209
0.539691
0.704539
0.870067
1.50423
1.21871
1.03771
0.925383
0.754445
0.613456
0.504802
0.496187
0.429922
0.442489
0.296658
0.272064
0.303509
0.261222
0.206026
0.308401
0.30434
0.453359
0.579305
0.749421
1.24535
1.05477
0.877599
0.710604
0.598425
0.540902
0.453581
0.487953
0.315199
0.367774
0.264839
0.331171
0.175542
0.223317
0.205707
0.191341
0.289911
0.415522
0.544263
0.588505
0.913518
0.73683
0.71212
0.582422
0.40119
0.382119
0.383565
0.331124
0.303485
0.265863
0.251213
0.191303
0.250803
0.223539
0.138665
0.164222
0.23338
0.332582
0.404135
0.532697
0.706237
0.573174
0.487602
0.466892
0.351076
0.311758
0.199348
0.244287
0.265843
0.179222
0.200469
0.130755
0.0940894
0.140768
0.177143
0.12452
0.200373
0.24003
0.252952
0.339511
0.344536
0.337016
0.257895
0.259721
0.199637
0.176601
0.183056
0.109875
0.0987868
0.139768
0.0855398
0.10595
0.0361931
0.0788811
0.0872992
0.0477348
0.0776197
0.132167
0.208021
0.235844
0.183288
0.108661
0.0791121
0.0320232
0.0835592
0.0458161
-0.0316884
0.0672685
0.0436174
0.119836
0.018157
0.150921
-0.055863
0.0157771
0.00984995
0.062321
0.0277887
0.0114918
0.07023
0.0406746
2.2028
1.75991
1.51299
1.11761
0.855636
0.759689
0.597696
0.392878
0.420399
0.370974
0.208859
0.16763
0.10954
0.12239
0.122496
0.178742
0.389287
0.564809
0.870667
1.15997
1.8673
1.53151
1.27007
1.04808
0.780925
0.654256
0.495971
0.429913
0.322962
0.299107
0.228856
0.110772
0.159003
0.114804
0.204747
0.163547
0.355737
0.542597
0.708056
0.924577
1.60182
1.31225
1.05814
0.949095
0.715802
0.56774
0.544955
0.337336
0.373727
0.384779
0.160546
0.130128
0.151721
0.215633
0.219938
0.186612
0.241955
0.432212
0.616614
0.747253
1.30352
1.11192
0.875219
0.710377
0.595465
0.426492
0.360631
0.288538
0.371787
0.265156
0.185604
0.130869
0.136085
0.110129
0.15672
0.14123
0.269517
0.414543
0.518566
0.668792
1.03909
0.876385
0.709137
0.564145
0.449915
0.410368
0.329959
0.281417
0.253442
0.161279
0.193801
0.136999
0.0902488
0.0965876
0.100115
0.0904113
0.208051
0.309098
0.425925
0.506997
0.727879
0.592962
0.510758
0.423824
0.349203
0.33982
0.187543
0.193369
0.171815
0.178389
0.121956
0.0957151
0.0789031
0.113814
0.081874
0.112343
0.142878
0.194534
0.31056
0.418642
0.426969
0.42137
0.344915
0.211267
0.218817
0.219645
0.0686575
0.199384
0.0491579
0.112005
0.0908827
0.0544967
0.0796121
0.121353
0.0548214
0.0713082
0.104568
0.166846
0.183069
0.218415
0.150997
0.0575531
0.134931
0.0652022
0.0815908
0.0685901
0.0716103
0.107132
0.0140913
-0.0148649
0.043113
0.0137904
0.013789
0.0424683
0.0313947
0.0536257
-0.0333274
0.0441607
-0.0365068
0.0758921
2.48622
2.15797
1.7663
1.42983
1.06184
0.847786
0.687088
0.444739
0.405764
0.226034
0.201862
0.192908
0.117014
0.204035
0.230931
0.379941
0.472534
0.653406
1.03049
1.32407
2.15558
1.76707
1.52926
1.12879
0.918699
0.773579
0.593954
0.468651
0.436849
0.335149
0.221645
0.20145
0.100839
0.147894
0.270119
0.297978
0.433019
0.610055
0.9019
1.17813
1.88682
1.56359
1.26573
0.971572
0.786341
0.676975
0.54498
0.430617
0.287889
0.241109
0.237411
0.139624
0.119311
0.108624
0.189026
0.25043
0.375191
0.56342
0.714218
0.982634
1.50301
1.27103
1.02383
0.823176
0.705174
0.56501
0.422712
0.308862
0.390525
0.226705
0.208051
0.159784
0.12233
0.143372
0.213421
0.298946
0.237857
0.448496
0.625788
0.806214
1.20394
0.996451
0.80172
0.64561
0.511575
0.366872
0.345918
0.273553
0.232421
0.227613
0.200793
0.133286
0.104869
0.0741378
0.187982
0.170495
0.201534
0.425734
0.480313
0.641889
0.847693
0.672685
0.599803
0.459701
0.352755
0.305935
0.2704
0.142755
0.186671
0.167818
0.13343
0.0491762
0.0514684
0.0514583
0.107581
0.187956
0.129739
0.227675
0.385363
0.48011
0.476457
0.449482
0.339548
0.293496
0.168314
0.156893
0.0869012
0.122512
0.0976453
0.0998976
0.103006
0.0807284
0.0149964
0.0549133
0.0298572
0.094991
0.184688
0.154109
0.185372
0.261897
0.114882
0.105602
0.0842181
0.125354
0.107378
0.0664519
0.0479494
0.0698925
0.046034
0.055207
-0.000401444
0.0488557
0.0349828
-0.0103728
0.0555625
0.0995318
0.037902
0.00292913
0.0372052
0.163049
2.95222
2.51302
2.05877
1.69308
1.25818
1.08828
0.861804
0.675805
0.555458
0.502524
0.368173
0.329093
0.251302
0.375448
0.399371
0.561461
0.7285
0.974254
1.44009
1.64662
2.52049
2.17627
1.85825
1.51131
1.14819
0.949513
0.794742
0.65256
0.452111
0.378871
0.347847
0.247414
0.313643
0.346922
0.314652
0.493486
0.593142
0.854301
1.1807
1.50959
2.09809
1.82986
1.5286
1.20788
1.00144
0.792275
0.617804
0.477539
0.476402
0.38708
0.268547
0.2154
0.246303
0.302341
0.288567
0.394044
0.559029
0.77461
0.994385
1.22061
1.78572
1.5105
1.27837
1.03315
0.852113
0.694916
0.552966
0.416842
0.363307
0.300617
0.250748
0.173052
0.212936
0.227587
0.252473
0.312476
0.430658
0.585355
0.833957
0.96907
1.34858
1.19263
0.964813
0.812609
0.606102
0.533408
0.496049
0.414091
0.307226
0.277376
0.16994
0.151208
0.172043
0.149273
0.256629
0.239614
0.418366
0.533386
0.642482
0.797004
0.920433
0.880261
0.698053
0.518082
0.523916
0.409052
0.268045
0.1528
0.195494
0.172303
0.208237
0.118731
0.179464
0.065287
0.157083
0.221716
0.269034
0.278707
0.435995
0.546226
0.573496
0.489305
0.418094
0.384559
0.316861
0.200906
0.218914
0.189037
0.158328
0.134083
0.190391
0.107209
0.045247
0.101123
0.0469345
0.0857032
0.19959
0.238865
0.248155
0.344017
0.206837
0.198517
0.132048
0.0798271
0.0905406
0.111439
0.0783731
0.0165424
0.0496043
0.138225
-0.0142799
0.0143914
0.0240626
-0.0193817
-0.0129365
0.102448
0.095995
0.0990063
0.090935
0.0339406
3.59153
3.10008
2.62899
2.24011
1.79984
1.475
1.27518
1.03811
0.850557
0.767829
0.684807
0.566773
0.620263
0.674542
0.851663
0.91713
1.17177
1.43906
1.90035
2.19543
3.03295
2.66433
2.26653
1.86643
1.57381
1.31401
1.08053
0.920814
0.852368
0.602396
0.576995
0.558797
0.51034
0.536641
0.674766
0.764095
0.98678
1.28112
1.54624
1.87359
2.52596
2.22549
1.97926
1.6057
1.34213
0.988747
0.907894
0.732517
0.65907
0.603684
0.483979
0.45557
0.485166
0.45311
0.591091
0.651478
0.844396
1.04888
1.40504
1.57361
2.06408
1.89832
1.60557
1.29155
1.07833
0.959814
0.768917
0.650868
0.431434
0.50693
0.45478
0.370368
0.399876
0.416568
0.41867
0.484863
0.728871
0.826666
1.09896
1.25682
1.57845
1.45214
1.24578
1.04401
0.862781
0.708887
0.627693
0.565569
0.402667
0.437309
0.404845
0.325754
0.268351
0.274325
0.430021
0.448282
0.557142
0.739516
0.857654
0.953913
1.23377
1.0367
0.892386
0.776616
0.604985
0.575731
0.410144
0.337652
0.323223
0.221177
0.247413
0.276156
0.276874
0.248351
0.396883
0.304695
0.376995
0.476371
0.631311
0.674599
0.646304
0.666783
0.586239
0.377959
0.35264
0.298852
0.2557
0.28109
0.144741
0.205124
0.147498
0.163827
0.164461
0.14571
0.12996
0.187429
0.280203
0.304883
0.3127
0.414133
0.273346
0.247201
0.17895
0.139028
0.115837
0.11304
0.153049
0.0616165
0.0525977
0.0866201
0.0349529
0.074728
-0.0541638
0.0741313
0.0288578
0.01611
0.0554785
0.1433
0.103758
0.139864
4.33061
3.85969
3.28434
2.8849
2.37161
2.05755
1.73112
1.54381
1.38345
1.26315
1.11807
1.07861
1.13948
1.16154
1.21688
1.46898
1.74533
2.07148
2.39708
2.84041
3.67209
3.32398
2.87043
2.41313
2.07564
1.71735
1.56615
1.32665
1.1794
1.02843
1.01946
0.925599
0.982369
0.975121
1.09
1.2538
1.4815
1.78093
2.16379
2.46492
3.08468
2.76484
2.41171
2.0417
1.80007
1.56825
1.27674
1.1564
1.02849
0.877437
0.897551
0.830395
0.787613
0.879955
0.881162
1.17883
1.26709
1.43747
1.74607
2.04568
2.62457
2.2592
2.02078
1.71093
1.3839
1.32559
1.11244
0.906132
0.85727
0.732565
0.643522
0.648352
0.650111
0.697592
0.727842
0.942419
0.994235
1.25758
1.42626
1.60977
1.94519
1.82139
1.54503
1.20772
1.07597
0.97084
0.883881
0.735876
0.676761
0.639747
0.575753
0.518006
0.519223
0.583766
0.633514
0.663557
0.779828
0.926338
1.14188
1.28929
1.41431
1.26571
1.11211
0.929774
0.867442
0.672575
0.542017
0.582597
0.489949
0.448512
0.39156
0.365733
0.392548
0.376705
0.432369
0.329441
0.563622
0.688464
0.787581
0.967748
0.866172
0.733333
0.622547
0.545036
0.495541
0.422831
0.350624
0.331507
0.26757
0.254739
0.267322
0.221593
0.271563
0.202792
0.220991
0.288721
0.364299
0.403177
0.518558
0.538866
0.240146
0.252661
0.195471
0.17507
0.180189
0.0564756
0.139044
0.14973
0.0868937
0.0882576
0.129054
0.146889
0.136083
0.121925
0.104685
0.123262
0.0273621
0.202289
0.206942
0.146635
5.16145
4.66089
4.08258
3.61086
3.19358
2.73411
2.47785
2.17539
1.9845
1.88715
1.81286
1.69671
1.69615
1.80354
1.84404
2.14421
2.41917
2.81431
3.19375
3.60015
4.41556
4.00918
3.53472
3.12729
2.70728
2.41679
2.11005
1.97954
1.70501
1.5858
1.51801
1.48717
1.51283
1.57036
1.66924
1.85651
2.037
2.44625
2.76002
3.12566
3.64043
3.38618
2.96678
2.66671
2.3105
2.10384
1.75344
1.61418
1.42679
1.37269
1.30835
1.344
1.22819
1.29108
1.36187
1.58073
1.72258
2.02489
2.38107
2.55522
3.02101
2.78607
2.34768
2.10818
1.81089
1.67886
1.5002
1.2978
1.20951
1.0802
1.07363
1.00323
1.05811
1.08839
1.11242
1.23691
1.46878
1.65516
1.94456
2.08462
2.34024
2.10186
1.89464
1.68067
1.51496
1.29509
1.12775
1.08596
0.957109
0.944166
0.850662
0.791946
0.773679
0.878083
0.826552
0.966389
1.13312
1.26349
1.42669
1.69205
1.77122
1.53243
1.40139
1.21101
1.0493
0.867295
0.81962
0.702725
0.665984
0.603321
0.616405
0.574447
0.588587
0.61581
0.62123
0.767147
0.764769
0.964711
1.04031
1.11647
0.990306
0.856178
0.773526
0.797128
0.638282
0.562493
0.460163
0.495513
0.411908
0.393065
0.364213
0.335993
0.367243
0.360012
0.335927
0.432699
0.452954
0.537963
0.635478
0.740617
0.318276
0.280665
0.310931
0.243507
0.276467
0.15661
0.226629
0.122459
0.141287
0.109169
0.142131
0.125531
0.131126
0.0945613
0.171336
0.112341
0.171249
0.205424
0.221076
0.21813
6.14248
5.6239
5.03844
4.49863
3.99125
3.67986
3.23737
2.95003
2.80408
2.65716
2.48163
2.49521
2.48675
2.56754
2.69092
3.04083
3.25887
3.65894
4.1076
4.52778
5.27857
4.85991
4.27469
3.84836
3.52057
3.12609
2.8422
2.5968
2.47717
2.31045
2.18559
2.17582
2.16972
2.20031
2.35798
2.59809
2.79109
3.15832
3.52457
3.81492
4.50546
4.09094
3.64215
3.28426
2.89579
2.63936
2.35149
2.163
1.99106
1.88213
1.84248
1.81005
1.8236
1.84754
1.95172
2.03716
2.31366
2.58026
2.92092
3.17298
3.57166
3.26994
3.00617
2.59896
2.3842
2.12888
1.98225
1.74089
1.64263
1.55547
1.48624
1.47538
1.55315
1.5139
1.59101
1.7297
1.91843
2.08405
2.38409
2.63845
2.81932
2.56568
2.26504
2.03301
1.79516
1.69157
1.41922
1.38145
1.30875
1.20922
1.11451
1.12589
1.16056
1.20975
1.23031
1.32746
1.49157
1.60889
1.82714
2.026
1.92881
1.86696
1.63083
1.48861
1.29903
1.20367
1.09506
1.04157
0.909437
0.848446
0.833781
0.788568
0.762346
0.796789
0.878951
0.939991
1.04442
1.19525
1.33904
1.42123
1.15218
1.13004
0.963164
0.884416
0.806978
0.66827
0.686421
0.61787
0.546448
0.55591
0.476746
0.424468
0.44921
0.508439
0.536504
0.568748
0.627951
0.752013
0.796368
0.87942
0.378163
0.392856
0.361747
0.312801
0.239302
0.281661
0.220999
0.1736
0.155916
0.190945
0.163655
0.186379
0.210841
0.149374
0.213656
0.244104
0.132719
0.226385
0.296599
0.323964
7.16042
6.64781
6.00534
5.42984
4.97559
4.51972
4.14179
3.86343
3.64194
3.4383
3.36395
3.29168
3.32603
3.41998
3.56037
3.89134
4.21538
4.49751
4.97385
5.51986
6.14712
5.71548
5.15198
4.62158
4.26593
3.80002
3.52088
3.32226
3.04534
2.95691
2.87468
2.79122
2.83855
2.92185
2.99729
3.2431
3.54485
3.84876
4.26067
4.7196
5.09559
4.74309
4.36664
3.93045
3.56927
3.21602
2.94433
2.79063
2.57352
2.4413
2.37993
2.39124
2.3719
2.44957
2.4639
2.72162
2.94299
3.21806
3.57482
3.95445
4.24099
3.80987
3.46144
3.1706
2.8927
2.61937
2.41298
2.30954
2.1391
2.04989
1.93298
1.87417
1.97491
2.01243
2.04458
2.24808
2.39238
2.5642
2.97478
3.12754
3.18947
3.00853
2.69815
2.45652
2.31164
2.06995
1.84521
1.74346
1.67023
1.53603
1.43341
1.45305
1.52626
1.54131
1.61248
1.73327
1.8594
1.99589
2.24229
2.44865
2.25578
2.1506
2.03917
1.70556
1.60301
1.45172
1.30648
1.21498
1.16459
1.10218
1.05895
0.98459
1.08867
1.08829
1.13903
1.18948
1.30317
1.47624
1.63989
1.77
1.35255
1.27449
1.11445
1.00343
0.930311
0.891428
0.821013
0.793951
0.673333
0.655302
0.636916
0.599368
0.560987
0.630153
0.652371
0.81565
0.838918
0.871316
0.928083
1.022
0.462739
0.43977
0.37351
0.265235
0.339584
0.317057
0.230746
0.267406
0.267528
0.179638
0.216997
0.167951
0.253092
0.226442
0.19398
0.190794
0.284442
0.289993
0.312349
0.347614
8.01406
7.46766
6.83228
6.22068
5.77996
5.21799
4.86148
4.61878
4.27972
4.22427
4.08487
3.97597
4.09178
4.12965
4.33416
4.57377
4.85876
5.32574
5.84499
6.37964
6.85505
6.38613
5.82277
5.33883
4.84736
4.5274
4.07584
3.85304
3.71583
3.58844
3.36439
3.35683
3.45979
3.45127
3.65579
3.83109
4.20624
4.52117
4.95661
5.30225
5.66572
5.31428
4.87456
4.517
4.092
3.72975
3.42774
3.22715
3.06682
2.89099
2.84157
2.78005
2.79757
2.8781
2.98449
3.16292
3.49755
3.76431
4.13688
4.43192
4.59461
4.30507
3.94152
3.58232
3.35345
3.06362
2.79286
2.59325
2.42679
2.3526
2.3415
2.28975
2.32171
2.30965
2.42331
2.6369
2.777
3.03724
3.31837
3.56606
3.53709
3.2777
3.01348
2.79735
2.48402
2.30067
2.17017
1.95256
1.83619
1.85911
1.75306
1.66916
1.74239
1.75398
1.83428
1.99746
2.09421
2.35723
2.4872
2.65108
2.53507
2.30757
2.13939
1.97406
1.80702
1.7214
1.5404
1.39404
1.33659
1.24087
1.26083
1.26668
1.24051
1.33086
1.34173
1.41051
1.50543
1.63508
1.76772
1.91594
1.49908
1.4331
1.28955
1.20142
1.06326
0.999485
0.854678
0.827722
0.789622
0.875024
0.724298
0.740562
0.761103
0.771395
0.815847
0.788198
0.838434
0.948938
1.06855
1.12287
0.49669
0.493823
0.478339
0.362852
0.343424
0.330374
0.288048
0.265019
0.285076
0.285226
0.255214
0.191743
0.162662
0.242974
0.218251
0.29609
0.347961
0.285845
0.362132
0.365754
)
;

boundaryField
{
    hotSide
    {
        type            calculated;
        value           nonuniform List<scalar> 
400
(
5.43688
4.93798
4.25871
3.56019
3.01475
2.44294
2.04395
1.7693
1.50722
1.38638
1.40185
1.6469
1.89832
2.32992
2.93245
3.6324
4.42178
5.35905
6.33093
7.13622
5.54954
4.96896
4.21506
3.56974
2.9716
2.40054
2.01675
1.54189
1.30311
1.16712
1.20932
1.21201
1.5775
1.89759
2.44734
3.16732
3.92659
4.8454
5.82283
6.59396
5.69808
5.02038
4.26696
3.61648
2.90631
2.32659
1.78787
1.40064
1.04233
0.867756
0.875722
0.973381
1.19348
1.45038
1.98272
2.59789
3.35369
4.26488
5.18486
5.96268
5.75417
5.19451
4.5053
3.70206
2.95441
2.37359
1.72737
1.29527
0.941365
0.747497
0.589429
0.586404
0.864725
1.09174
1.60027
2.20431
2.88729
3.7299
4.61375
5.35505
6.15087
5.36826
4.66922
3.81643
3.02011
2.42812
1.67572
1.33697
0.866373
0.618388
0.41925
0.33269
0.504264
0.663697
1.16621
1.69664
2.4751
3.22711
4.16364
4.91808
6.35506
5.58009
4.82166
4.00632
3.20551
2.49889
1.83196
1.21606
0.891893
0.464102
0.259767
0.244519
0.297266
0.500175
0.847125
1.38777
2.02029
2.91991
3.71155
4.35949
6.57276
5.89721
5.10342
4.22799
3.3536
2.64035
1.89286
1.23464
0.86265
0.525443
0.191348
0.0894547
0.142817
0.279321
0.652351
1.06586
1.76808
2.48105
3.33685
4.00588
6.82075
6.18809
5.33048
4.37743
3.55807
2.68282
1.97596
1.28802
0.815486
0.359716
0.0903628
-0.109697
-0.0944361
0.0978845
0.419362
0.882185
1.46887
2.19659
3.06107
3.76548
7.03784
6.34594
5.47331
4.54773
3.66746
2.78443
2.05129
1.39203
0.82605
0.40192
0.0132965
-0.0781469
-0.129808
-0.0192429
0.234682
0.724381
1.28025
2.05267
2.84138
3.42801
7.11297
6.3123
5.56035
4.57496
3.67691
2.80622
2.11872
1.35642
0.741862
0.383068
0.00893425
-0.125474
-0.307665
-0.0705064
0.153433
0.605399
1.18407
1.90679
2.63867
3.37339
7.11857
6.41426
5.52381
4.54506
3.64519
2.77715
1.96543
1.34712
0.728718
0.283847
-0.0480925
-0.28759
-0.331837
-0.204857
0.0704105
0.460325
1.10979
1.73126
2.56431
3.23399
7.05462
6.34016
5.50269
4.53873
3.58985
2.78309
1.95246
1.22917
0.678356
0.171255
-0.0876543
-0.330916
-0.342664
-0.245608
-0.0491016
0.41954
0.992456
1.74379
2.49112