/*--------------------------------*- C++ -*----------------------------------*\
| =========                 |                                                 |
| \\      /  F ield         | OpenFOAM: The Open Source CFD Toolbox           |
|  \\    /   O peration     | Version:  2212                                  |
|   \\  /    A nd           | Website:  www.openfoam.com                      |
|    \\/     M anipulation  |                                                 |
\*---------------------------------------------------------------------------*/
FoamFile
{
    version     2.0;
    format      ascii;
    arch        "LSB;label=32;scalar=64";
    class       volScalarField;
    location    "0";
    object      relativeErrorField;
}
// * * * * * * * * * * * * * * * * * * * * * * * * * * * * * * * * * * * * * //

dimensions      [0 0 0 1 0 0 0];

internalField   nonuniform List<scalar> 
3200
(
0.00228448
0.00319972
0.00456489
0.00635251
0.00868703
0.0113917
0.0139765
0.0163392
0.01815
0.0191693
0.0191264
0.0182247
0.0166508
0.0142071
0.0118433
0.00941263
0.00715428
0.00520116
0.00377053
0.0033037
0.00205566
0.00248716
0.00388928
0.00545766
0.00759937
0.00962805
0.0121962
0.0140825
0.0156238
0.0166155
0.0165854
0.0157416
0.0143443
0.012264
0.00984415
0.00786886
0.005844
0.00421317
0.00301734
0.00250062
0.0015828
0.00217576
0.00316448
0.00450486
0.00629482
0.00821654
0.010288
0.0118557
0.0134268
0.014065
0.0140423
0.0136021
0.0119671
0.0104228
0.008442
0.00629583
0.00471024
0.00328465
0.0022546
0.00185673
0.00103834
0.00141902
0.00237163
0.00389958
0.00534771
0.00677026
0.00835517
0.00975507
0.0107809
0.0113519
0.0117307
0.0109473
0.00991611
0.0085406
0.00692294
0.00524144
0.00375214
0.0027958
0.00180144
0.00149973
0.000766548
0.00118299
0.00192499
0.00284095
0.00382763
0.00538244
0.00667406
0.00783255
0.00854658
0.00917783
0.00894169
0.00868928
0.00758142
0.00667779
0.00522547
0.0042703
0.00279799
0.00191524
0.00134918
0.000848666
0.000705677
0.000899018
0.00143156
0.00174107
0.00296296
0.00395063
0.00470439
0.00575235
0.00626313
0.00648431
0.00652707
0.00621302
0.00548995
0.0046719
0.00392434
0.00306784
0.0021953
0.00143511
0.00094731
0.000653565
0.000374071
0.000638187
0.000803496
0.000967163
0.00181543
0.00236904
0.00287214
0.0035176
0.00364552
0.00412131
0.00394842
0.00368017
0.00353998
0.00297165
0.00236283
0.00179438
0.00122873
0.0010103
0.000739848
0.000276786
0.000170877
3.1336e-05
0.000443115
0.000409515
0.000560225
0.00102696
0.00100057
0.00119038
0.00112572
0.00157283
0.00159117
0.00115903
0.00104474
0.000825716
0.000806889
0.000517796
0.000491578
0.000240542
0.000271345
0.000142588
0.000621803
0.00115321
0.00249548
0.00418438
0.00661097
0.00909657
0.0117619
0.0140735
0.0155559
0.0167164
0.0166551
0.0157971
0.0142071
0.0119711
0.00968627
0.00706982
0.00487847
0.00338316
0.00207427
0.00131518
0.000381544
0.00110107
0.00189821
0.00379027
0.00571108
0.00787324
0.0101127
0.0120999
0.0136632
0.0145295
0.0144541
0.0136868
0.0123152
0.010376
0.00810746
0.00614087
0.00404428
0.00248635
0.00151665
0.000847373
0.00024835
0.000712746
0.00161857
0.00289628
0.00472605
0.00668296
0.00861032
0.0103496
0.0116296
0.0124327
0.0123741
0.0117492
0.0105589
0.00879218
0.00685938
0.00487689
0.00354209
0.00201514
0.00121428
0.00060418
1.73378e-05
0.000615225
0.00144032
0.00250589
0.00390428
0.00550115
0.00716335
0.00874716
0.00955441
0.0103839
0.0102115
0.00967428
0.0085772
0.00706441
0.00563922
0.00411788
0.00262771
0.00160554
0.00075743
0.000471129
0.000239632
0.000523322
0.00114682
0.00179341
0.00298022
0.00435336
0.00573712
0.00676962
0.00773417
0.00828195
0.0081169
0.00755586
0.00682448
0.00540907
0.00434711
0.00322374
0.00217101
0.00114252
0.000553269
0.000317867
0.000336671
0.000201986
0.000779081
0.00121745
0.00211919
0.00302939
0.00401034
0.00488507
0.00556941
0.00569112
0.00593496
0.00545678
0.00500421
0.00436564
0.00336407
0.00245863
0.00150452
0.000856918
0.000566433
0.000173385
0.000182355
0.000142403
0.000488098
0.00103063
0.00122505
0.00198438
0.00267663
0.00313761
0.00332401
0.00337277
0.00360047
0.00364316
0.00273848
0.00236341
0.00200175
0.0015845
0.000955856
0.000598893
0.00020795
0.000178934
0.000107426
8.30188e-07
0.000174078
0.000189922
0.000491166
0.000651561
0.000688896
0.00114442
0.00105805
0.00126449
0.00110032
0.0011548
0.00102697
0.00101852
0.000759797
0.000586054
0.000522155
0.000103731
1.38321e-06
0.000235205
0.00185299
0.00108644
0.000140606
0.00174651
0.00375784
0.00637265
0.00861763
0.0106155
0.0125206
0.013178
0.0136835
0.0126113
0.0111779
0.00920214
0.00678347
0.00438385
0.00247155
0.000674104
0.000478374
0.000550212
0.00135994
0.00104662
0.000102766
0.00154655
0.00324609
0.00527371
0.00756889
0.00950434
0.0108441
0.0116405
0.0116589
0.0111751
0.00952964
0.00783411
0.00564684
0.00391435
0.00171992
0.000409849
0.000527592
0.00109301
0.00154139
0.000907792
6.64426e-05
0.000958889
0.00270255
0.00473438
0.00621942
0.00797349
0.0092804
0.00996833
0.0100465
0.00939887
0.0082744
0.00672459
0.00494734
0.00305925
0.00170069
0.000443917
0.000524906
0.00110259
0.00121394
0.000709306
0.000167651
0.000758117
0.00218962
0.00371959
0.00522505
0.00643933
0.00777659
0.0083839
0.00834343
0.00797682
0.00675759
0.00550348
0.00386586
0.00238711
0.00117339
0.000173002
0.000613766
0.00104142
0.00105522
0.000557147
1.18681e-05
0.00067422
0.00173595
0.00311543
0.00426879
0.00521237
0.00605314
0.00649326
0.00656459
0.00611155
0.00535653
0.0041647
0.00305551
0.00189874
0.000688485
0.000243305
0.000495462
0.00066177
0.000764324
0.000664017
8.74494e-05
0.000562166
0.00148312
0.00192725
0.00303343
0.0037014
0.00444853
0.00479305
0.00476891
0.00436643
0.00398496
0.00319946
0.00234189
0.0015121
0.000553746
0.00010201
0.000235916
0.00039277
0.000446277
0.000336105
8.48616e-05
0.000456679
0.000819597
0.00146759
0.0018102
0.00240729
0.00250231
0.0026046
0.00310114
0.00276019
0.0022553
0.00178912
0.0013282
0.000878645
0.000518172
2.30112e-05
0.000127413
0.000390916
0.000130026
0.000268321
2.90394e-05
4.48437e-05
0.000205793
0.00047264
0.000775006
0.000832606
0.000954586
0.00105622
0.000934099
0.00102813
0.00099705
0.000501336
0.000595872
0.000408324
3.38994e-05
9.63837e-05
1.98252e-05
0.000258116
0.00404641
0.00368385
0.00255947
0.000847455
0.00113512
0.00323066
0.00545861
0.00766591
0.00921305
0.00995141
0.010021
0.00918685
0.00791298
0.00591926
0.00384685
0.00166325
0.000190129
0.00150551
0.0025782
0.0029437
0.00346584
0.00320257
0.00237822
0.000903303
0.000787626
0.0027015
0.0047244
0.00650479
0.00806087
0.00857845
0.00872408
0.0079909
0.0065775
0.00513869
0.00320322
0.00118106
0.000300032
0.00161544
0.00236359
0.00290769
0.00297727
0.00258279
0.00212407
0.000810216
0.00054526
0.00226945
0.00403215
0.00569233
0.00699097
0.00732927
0.0073442
0.00679452
0.00564189
0.0041681
0.00252834
0.000925641
0.000531955
0.00165156
0.00242218
0.00248933
0.00255799
0.00231029
0.00143799
0.000723594
0.000485436
0.00196096
0.00328974
0.00467239
0.00559949
0.00603347
0.00611964
0.00561274
0.00462251
0.00345161
0.00215532
0.000697574
0.000271089
0.00146264
0.00191606
0.00203196
0.00186527
0.00184781
0.00146189
0.00053882
0.000326937
0.00140342
0.00257372
0.0036938
0.00431267
0.00470122
0.00465473
0.00444454
0.00363768
0.00247037
0.00149079
0.000341907
0.000643103
0.00110128
0.00157948
0.00182332
0.00143797
0.00124883
0.000999845
0.000428924
0.000309017
0.000860359
0.00195512
0.00281566
0.00319687
0.00364169
0.0035619
0.00294493
0.0025028
0.00167138
0.00117279
0.000238725
0.000129806
0.000885293
0.00136452
0.00163694
0.000759499
0.000691853
0.000488527
0.000564002
1.35638e-05
0.000556534
0.00103655
0.0016643
0.00203686
0.00220155
0.00227892
0.00202892
0.00161089
0.00123117
0.0007633
0.000364352
0.000157825
0.000660582
0.000855284
0.000838075
0.000197258
0.000242679
2.91803e-05
2.08002e-06
0.000109966
0.000149578
0.000335954
0.000385932
0.000664307
0.000965763
0.000733912
0.000618756
0.000574408
0.000168099
0.000364355
8.17016e-05
0.00010262
8.69452e-06
0.000171377
0.000317834
0.00574441
0.00536697
0.00473217
0.00354387
0.00163807
0.000403043
0.00235032
0.00437883
0.00573856
0.00661044
0.00672445
0.00586948
0.00465231
0.00290485
0.000879444
0.000840206
0.00268317
0.00396444
0.00448697
0.00462332
0.00519978
0.00476589
0.00414541
0.00317788
0.00140527
0.000351019
0.00213864
0.00366494
0.00516593
0.00554723
0.00556267
0.00498925
0.00371976
0.00245611
0.000622254
0.00102007
0.00244359
0.00364351
0.00391619
0.00440751
0.00462582
0.00415603
0.00368037
0.00271144
0.00136833
5.1963e-05
0.00171216
0.00323574
0.0042343
0.00460588
0.00485566
0.00433077
0.00333307
0.00192312
0.000442116
0.000991419
0.00218639
0.00334445
0.00381489
0.00383819
0.00379946
0.00358432
0.00296487
0.0020559
0.00121282
9.2255e-05
0.00123582
0.00262131
0.00354385
0.00388136
0.00388275
0.00349455
0.00259548
0.00139514
0.000164118
0.00110643
0.00191154
0.00308755
0.00336259
0.00321915
0.00301513
0.00278612
0.00251965
0.00178628
0.00090155
0.000101185
0.00105632
0.00191322
0.00282544
0.00318014
0.00304141
0.00273132
0.00221237
0.00105993
7.56287e-05
0.000715615
0.0016136
0.00218228
0.00244025
0.00270037
0.00205803
0.00217925
0.00165635
0.00124907
0.000786932
0.000177865
0.000803807
0.00151763
0.00221773
0.00236856
0.00218598
0.0018396
0.00137135
0.00071321
8.51594e-05
0.000680339
0.00135993
0.00168094
0.00193963
0.0018165
0.00138418
0.00112506
0.00116982
0.000770635
0.000429384
7.71905e-05
0.000400163
0.00112535
0.00134853
0.00134873
0.00135435
0.00136097
0.000932359
0.00068218
5.33734e-05
0.000216968
0.000760267
0.0012798
0.00139186
0.00135462
0.000398145
0.000214745
0.00056976
0.000105152
0.000228206
4.31153e-05
0.000261221
0.000392707
0.000648964
0.000614051
0.000405923
0.000501005
0.000220236
0.000378453
3.76982e-05
0.000162906
0.000266239
0.000470466
0.000221746
0.000467962
0.00744809
0.0071948
0.00650454
0.00555602
0.00399102
0.00230164
0.000292681
0.00145344
0.0025914
0.00325797
0.00352959
0.00280562
0.00150503
0.000193141
0.00155581
0.00336764
0.00462283
0.00577677
0.00594838
0.00603438
0.00631189
0.0062339
0.00573359
0.00479974
0.00351665
0.00214594
0.000257055
0.00107537
0.00208747
0.0028304
0.00280402
0.00217596
0.00108453
0.000187009
0.00166766
0.00294624
0.00442977
0.00515363
0.0056762
0.00583461
0.00552319
0.00531367
0.00506783
0.00420221
0.0030182
0.00185371
0.000473647
0.000892569
0.00189387
0.00219748
0.00237247
0.00188993
0.000886823
0.000142262
0.00147441
0.0027271
0.00381088
0.00459542
0.0050782
0.00517625
0.00462908
0.00462939
0.00432416
0.00345628
0.00273269
0.00175389
0.000343352
0.000618211
0.00151357
0.00173148
0.00165404
0.00142829
0.000726973
0.000240802
0.00143378
0.00215327
0.00317584
0.00407891
0.00410422
0.0045865
0.00389414
0.00353539
0.00315754
0.00274515
0.00223706
0.00131959
0.000351713
0.000374951
0.00100621
0.00133707
0.00151433
0.00108247
0.000531543
0.000313987
0.00133704
0.0016902
0.00257974
0.00326168
0.00365334
0.00347727
0.0028955
0.00277898
0.00216291
0.00206945
0.00153485
0.00084448
0.000285768
0.000425047
0.000758836
0.00119657
0.000960269
0.00104088
0.000571745
0.000331723
0.000925563
0.00133032
0.00191223
0.00230375
0.00249333
0.00286844
0.00136116
0.00162867
0.00149565
0.00130152
0.000948859
0.000485191
0.000196568
0.000199794
0.000481275
0.000564535
0.000688868
0.000539327
0.000253133
6.37002e-06
0.000540887
0.00097585
0.0013047
0.00130849
0.00147621
0.00164588
0.000622121
0.000437681
0.000528739
0.000484465
0.000646638
0.000368725
0.000112176
0.000164831
0.000294098
1.40692e-05
0.00016376
9.19469e-05
5.64525e-05
0.000175116
1.96964e-05
0.000301328
0.000455434
0.000473193
0.000699976
0.000454979
0.00831452
0.00840761
0.00795267
0.00705404
0.00594933
0.00450464
0.00285503
0.00131906
0.000309077
0.000470224
0.00055976
1.2731e-05
0.00110925
0.00242922
0.00377368
0.00515879
0.00638621
0.0070937
0.0073356
0.00704945
0.00731393
0.00748199
0.00707822
0.00626143
0.00532041
0.00396579
0.00246127
0.00130491
0.000171326
0.000216711
0.000419011
0.000198886
0.00109549
0.00216368
0.00355576
0.00484809
0.00578922
0.00648399
0.00671572
0.00674528
0.00621529
0.00641018
0.00600448
0.00559443
0.00472748
0.0033999
0.00239046
0.00138884
0.00036206
5.44888e-05
0.000144086
0.000245051
0.000904009
0.00210079
0.00308593
0.00404811
0.00530885
0.00582435
0.005944
0.00609127
0.00528147
0.00531034
0.00536295
0.00449202
0.00397345
0.00307038
0.00197747
0.00111165
0.000313037
1.83742e-05
3.51951e-05
0.000215611
0.000928754
0.00177308
0.0028139
0.00362017
0.00432018
0.00497864
0.00499018
0.0052091
0.0042199
0.00428159
0.00406945
0.00355731
0.00297979
0.00252976
0.00156193
0.00105447
0.000390681
4.89667e-05
1.18495e-06
0.000204033
0.000760824
0.00141864
0.00226189
0.00302082
0.00369136
0.00392349
0.00407392
0.00405888
0.00298002
0.00303901
0.00288469
0.00259827
0.00204353
0.00162886
0.00130261
0.000732005
0.000445319
8.54308e-05
0.000200434
0.000307728
0.000589322
0.00121025
0.0016801
0.00224144
0.00273611
0.00292883
0.00299793
0.00301407
0.00168842
0.00180049
0.00181055
0.00186978
0.00129267
0.00103292
0.000636603
0.000582664
0.000195489
0.00011069
6.41383e-05
0.00019713
0.000382842
0.000547993
0.00129732
0.00132795
0.00163219
0.00189083
0.00175755
0.00183044
0.000573228
0.000743541
0.000529113
0.000474432
0.000555385
0.000333021
0.000445118
9.12632e-05
0.000102973
8.05744e-05
0.00020934
6.29071e-05
7.71595e-05
0.000353582
0.000340825
0.00041164
0.000538488
0.000755483
0.000628207
0.000665281
0.0089592
0.0092331
0.00909947
0.00861201
0.00735217
0.00607696
0.00497866
0.0035525
0.0027571
0.0021646
0.00187714
0.00241536
0.00331069
0.00443638
0.00567499
0.00672822
0.00749784
0.00816389
0.00814687
0.00781322
0.00786555
0.00799766
0.00781178
0.00736048
0.00672439
0.00554275
0.00451427
0.00327203
0.00263425
0.00200784
0.00210072
0.00262442
0.00313007
0.00414882
0.00507882
0.00601644
0.00689808
0.0072982
0.00722209
0.00696711
0.006851
0.00700744
0.00722416
0.00649115
0.0056902
0.00492076
0.00403221
0.00297921
0.00224418
0.00186273
0.00179706
0.00205819
0.00267678
0.00371629
0.00451157
0.0056064
0.00620136
0.0063792
0.00650195
0.00633805
0.00550705
0.0056427
0.00572046
0.00538514
0.00471256
0.00419505
0.00329713
0.00270631
0.0019742
0.00178365
0.00156762
0.00193561
0.00246658
0.00327537
0.00412352
0.00469279
0.00509239
0.00549624
0.00549255
0.00541321
0.00454596
0.00463491
0.00456959
0.00435638
0.00400376
0.00349897
0.00272644
0.0019141
0.00165183
0.00130718
0.00116993
0.00151475
0.00205015
0.00261897
0.00326664
0.00388601
0.00419277
0.0043478
0.00453032
0.0043194
0.00321975
0.00336918
0.00324381
0.00293242
0.00282636
0.00232452
0.00187378
0.00165522
0.0011473
0.0010227
0.0010008
0.00105818
0.00151449
0.00203217
0.00231129
0.0028257
0.00301962
0.0032018
0.00331848
0.0032109
0.00211026
0.00210948
0.0020937
0.00209678
0.00163153
0.00139431
0.00133789
0.00116335
0.000963227
0.000667347
0.000432901
0.00064421
0.000965429
0.00117496
0.00144177
0.00169618
0.0020626
0.00207307
0.00198317
0.00221697
0.000651012
0.000691125
0.000705053
0.000682696
0.000451604
0.00065564
0.000449119
0.000329869
0.000311727
3.97928e-05
0.000141744
0.000249555
0.000352542
0.000252752
0.000500963
0.000619219
0.00075207
0.000597715
0.000645499
0.000564141
0.00887602
0.0093727
0.00958963
0.00914291
0.00858379
0.0075528
0.00653638
0.00543309
0.00459986
0.00429074
0.00397235
0.00448802
0.00506623
0.00609226
0.00700656
0.00774785
0.00824032
0.00847119
0.0083116
0.00773586
0.00799113
0.00827512
0.00847599
0.00827706
0.00765966
0.00683171
0.00576314
0.00490914
0.00414487
0.00397458
0.00378003
0.00401356
0.00456216
0.00541603
0.00632157
0.00711145
0.00747059
0.00776208
0.00752233
0.00710412
0.00688368
0.00717379
0.00726241
0.0071893
0.0065355
0.00572345
0.00487168
0.00430537
0.00364071
0.00368008
0.0033048
0.00352623
0.00440003
0.00490768
0.0057009
0.006117
0.00657548
0.00659375
0.00673579
0.00643865
0.00574539
0.00614063
0.00607446
0.00580022
0.00558861
0.00489392
0.00434543
0.00371239
0.0031956
0.00299528
0.00305076
0.0030037
0.00343373
0.0040952
0.00468084
0.00521048
0.0055892
0.0057845
0.00566679
0.00538167
0.00446257
0.00473645
0.00491977
0.00491689
0.00414199
0.00408205
0.00354146
0.00296496
0.00246327
0.00222669
0.00236853
0.00240529
0.00290607
0.00339067
0.00376259
0.00428927
0.00445324
0.00473614
0.0044631
0.00403853
0.00317022
0.00334835
0.00340592
0.00346877
0.00337506
0.00294461
0.0026624
0.00222837
0.00193779
0.00181306
0.00165696
0.001673
0.00221621
0.00262949
0.00284462
0.00315007
0.00325984
0.00320988
0.00321685
0.00327392
0.00194627
0.00191994
0.00200362
0.00227378
0.00184876
0.00186372
0.00167893
0.00120628
0.00140045
0.00103392
0.00101419
0.00104523
0.00156044
0.00154676
0.00195864
0.00183386
0.0021581
0.00228641
0.0021995
0.00188529
0.000842129
0.000521113
0.000810214
0.000584079
0.000599618
0.000822875
0.000496423
0.000285328
0.000317198
0.000380963
0.000550187
0.000306471
0.000500617
0.000629163
0.000656175
0.00060824
0.000720906
0.000522383
0.000472409
0.000676529
0.00844394
0.00917065
0.0094725
0.00945885
0.00909515
0.00847528
0.00764316
0.00681225
0.0060779
0.00574388
0.00567606
0.00591408
0.00662322
0.00710624
0.00782698
0.0083856
0.00840865
0.0084635
0.00790759
0.00725862
0.00753142
0.00808177
0.00831628
0.00839735
0.00792561
0.00747059
0.00684879
0.00607605
0.00551562
0.00530668
0.00522368
0.00516323
0.00582397
0.00646662
0.00702595
0.0075747
0.00755055
0.00774873
0.00731738
0.00667854
0.00651267
0.00683533
0.0073916
0.00738146
0.0069356
0.00641749
0.00586929
0.00535214
0.00485616
0.00472325
0.00467687
0.00476208
0.00503711
0.00559545
0.00614115
0.00665082
0.00692072
0.00670025
0.00636913
0.00594413
0.00523069
0.00583846
0.00620432
0.00605254
0.00597989
0.00556724
0.00503144
0.00461176
0.00416912
0.00401871
0.00386601
0.00401697
0.00440771
0.00513038
0.00536221
0.00555507
0.00564908
0.00566593
0.0054326
0.00482663
0.00424882
0.00459631
0.00465963
0.00473689
0.00477608
0.00441792
0.00389669
0.00358618
0.00352327
0.00316339
0.00324537
0.00315276
0.00351022
0.0039281
0.00397749
0.00435327
0.00474439
0.00468815
0.00433226
0.00409818
0.00314619
0.00343365
0.00345184
0.00343036
0.00356896
0.00308195
0.00297698
0.00264968
0.00226061
0.00212235
0.00242559
0.00250809
0.00266845
0.0028008
0.00314809
0.00333205
0.00349543
0.0033872
0.00322478
0.00287048
0.00192377
0.0021158
0.0021202
0.00212326
0.00215992
0.0019311
0.00193592
0.00182461
0.00168462
0.00140028
0.00159773
0.00137507
0.00165453
0.00182516
0.00190506
0.00202715
0.00215802
0.00201687
0.00224181
0.00190024
0.00084633
0.000857706
0.000950865
0.00052026
0.000606788
0.000675303
0.000609761
0.00041676
0.000458327
0.00037867
0.00041547
0.000572891
0.000570985
0.000514411
0.000759497
0.000464264
0.00060899
0.00067026
0.000896651
0.000668959
0.00747958
0.00846207
0.00889653
0.00905136
0.0089507
0.00836477
0.0081749
0.00735829
0.00712902
0.00683326
0.00640966
0.00676245
0.0070648
0.00749268
0.00796723
0.00809108
0.00819172
0.00786583
0.00710869
0.00607253
0.0065371
0.00736748
0.0077267
0.00816906
0.00797557
0.0076021
0.00718051
0.0068568
0.00633691
0.0060556
0.00598211
0.00598225
0.00632634
0.00692948
0.00710456
0.00736353
0.0075274
0.00701966
0.0065481
0.00552504
0.00558555
0.0063482
0.00683137
0.00699906
0.00709965
0.00670588
0.0062767
0.00589312
0.00545008
0.00531661
0.00524417
0.00546034
0.00568115
0.00580477
0.00643575
0.00645474
0.00661826
0.00619879
0.00580785
0.0052048
0.00485906
0.00519462
0.00571805
0.00588463
0.00583372
0.00575267
0.00523051
0.00508806
0.00460312
0.00440572
0.00434432
0.00450454
0.0047596
0.00510323
0.0053059
0.00560807
0.00575162
0.00550705
0.00480109
0.00421385
0.00357822
0.00410196
0.00456702
0.00469806
0.00473583
0.00468524
0.00424278
0.00377431
0.00392255
0.00363422
0.00334299
0.00367123
0.0038216
0.00403258
0.00439663
0.00440835
0.0043855
0.00446248
0.004057
0.00343882
0.00281719
0.00330164
0.00348377
0.00353888
0.0036511
0.00333253
0.00311642
0.00299062
0.00274373
0.00270514
0.00261253
0.00274722
0.00265633
0.00289242
0.00309193
0.0034888
0.00341575
0.00315423
0.00283955
0.00245583
0.00181693
0.00193073
0.00221416
0.00214611
0.00214253
0.00188427
0.00179302
0.00175894
0.00178042
0.00151943
0.00150672
0.00163585
0.00165198
0.00150273
0.0023401
0.00197677
0.00198874
0.00182541
0.00183757
0.00164065
0.00051024
0.000664562
0.000689971
0.000674497
0.00060638
0.000405241
0.000545936
0.000768192
0.000517808
0.000459219
0.00078496
0.000754368
0.000619892
0.000517899
0.000746806
0.000660169
0.000531618
0.000541858
0.000618587
0.000556651
0.0056837
0.00676745
0.00759892
0.0083556
0.00874543
0.00810636
0.00799334
0.00747122
0.00713965
0.00679064
0.00667781
0.00675742
0.00720932
0.00718364
0.00757117
0.00733322
0.00729523
0.00649758
0.00553359
0.0043963
0.00530539
0.00612631
0.0066481
0.0073612
0.00744572
0.00733048
0.00716999
0.00676972
0.00644816
0.00629507
0.00614596
0.00635749
0.00647632
0.00676431
0.00673173
0.00670937
0.00657279
0.00612303
0.00494665
0.00401584
0.00453182
0.00524811
0.00573267
0.00613496
0.00639808
0.00653302
0.00610445
0.00604774
0.00553688
0.00571592
0.00571567
0.00554706
0.00564454
0.00577784
0.0060964
0.00617673
0.00570713
0.00525618
0.00448091
0.00378269
0.00382241
0.00449062
0.00509012
0.00508252
0.00549536
0.00544021
0.00530475
0.00510782
0.00468473
0.0047134
0.00451733
0.00470862
0.00505601
0.00498612
0.00526775
0.00498721
0.00506073
0.00479268
0.00402665
0.00322379
0.0031823
0.00363119
0.00399206
0.00430109
0.00409235
0.00422862
0.00420085
0.00412448
0.00371522
0.00360175
0.00364787
0.00369909
0.00388384
0.00390555
0.0042032
0.00395915
0.00407981
0.00361083
0.00313403
0.00267993
0.00201943
0.00251985
0.00299126
0.00323115
0.00334056
0.00309422
0.0031401
0.00294357
0.00290013
0.00267294
0.00291096
0.0027727
0.00278943
0.00291959
0.00309606
0.00314165
0.00297455
0.00283137
0.00258429
0.00199007
0.00126841
0.00155672
0.00183551
0.00193581
0.00198221
0.00193358
0.00186739
0.00173479
0.00170323
0.00197192
0.00167035
0.00161558
0.00177676
0.00193674
0.00194379
0.00210505
0.00187466
0.00170537
0.0012795
0.0012465
0.000410671
0.000700142
0.000722744
0.000717753
0.000595759
0.000766328
0.000673673
0.000756818
0.000394119
0.00070987
0.000587778
0.000646633
0.000607761
0.00054848
0.000582307
0.000589656
0.000732789
0.000441056
0.000506485
0.000457655
0.00355639
0.00460802
0.00594832
0.00672259
0.0070748
0.00710158
0.00714171
0.00674968
0.00661638
0.00652649
0.00639254
0.00626342
0.00642234
0.0064111
0.00643242
0.00604583
0.00558568
0.00470322
0.00341744
0.00224028
0.00301992
0.00423684
0.00519032
0.00591414
0.00633481
0.00626038
0.00638007
0.00621167
0.00615122
0.00581013
0.00586144
0.00584584
0.00597203
0.00580146
0.00575797
0.00570495
0.00515952
0.00433255
0.00338509
0.00235054
0.00258788
0.0037937
0.00458156
0.00509928
0.00544388
0.00560771
0.0055454
0.00534455
0.0054527
0.00515527
0.0051096
0.00514632
0.00521503
0.00510943
0.00529748
0.0047916
0.00463705
0.00399769
0.00300456
0.0021695
0.00229838
0.00311843
0.00390674
0.00426583
0.00464423
0.00462437
0.00466651
0.00454884
0.00440996
0.00439151
0.00438277
0.00438775
0.00427772
0.00446044
0.00450525
0.00426292
0.00380235
0.00350654
0.00242612
0.00184586
0.00207323
0.0024245
0.00290184
0.00328224
0.00363856
0.00372218
0.00391739
0.00366006
0.00355198
0.00346619
0.00371239
0.00347402
0.00365772
0.00362035
0.00363843
0.0034735
0.0033103
0.00280416
0.00237045
0.0014105
0.00144726
0.00177526
0.00212164
0.00253811
0.00259392
0.00297995
0.00277926
0.00259096
0.00237205
0.00277144
0.00226922
0.00263713
0.00250319
0.00282602
0.00265076
0.0026779
0.00244106
0.00194736
0.00160359
0.00137581
0.000892377
0.00106036
0.00142121
0.00158419
0.00176872
0.00161155
0.00178145
0.00180164
0.00164745
0.0014794
0.00155262
0.00173596
0.00178648
0.00164688
0.0017606
0.00161882
0.0016389
0.00144325
0.000814316
0.000824162
0.000174111
0.000303643
0.000652955
0.000365772
0.000582711
0.000597965
0.00069896
0.00051138
0.000774211
0.000754716
0.000545988
0.000446767
0.000496867
0.000581701
0.000670393
0.000512299
0.000568449
0.000421082
0.00033934
0.000244147
0.000771918
0.00196457
0.00349971
0.00428082
0.00529479
0.00543701
0.0055528
0.00565468
0.00553689
0.00514215
0.00548737
0.00494794
0.00508583
0.00480327
0.00455117
0.00407899
0.00337388
0.00215329
0.00091054
0.000661044
0.00058722
0.00187853
0.00310609
0.00397732
0.00460611
0.00501219
0.00496095
0.0050552
0.00479765
0.00491982
0.00462545
0.00465106
0.00480519
0.00452568
0.00432468
0.0041367
0.00334055
0.00221249
0.00114305
0.000309343
0.00076448
0.00165426
0.00283582
0.00342481
0.00410499
0.004013
0.00437274
0.00457338
0.0045541
0.00426088
0.00425379
0.00430515
0.00414321
0.004142
0.00390544
0.00341982
0.00285186
0.00197232
0.00119772
0.000109224
0.00074931
0.00150233
0.00221259
0.00300017
0.00330598
0.00367004
0.00367297
0.00381566
0.00374066
0.00387096
0.00365292
0.00369907
0.00348117
0.00365726
0.00345331
0.00306764
0.00268508
0.00181889
0.00104873
0.000281191
0.000487445
0.00107599
0.00172648
0.00231544
0.00268368
0.00286996
0.00313225
0.00297199
0.00281152
0.00298817
0.00320053
0.00285139
0.00289656
0.00296769
0.00259254
0.00245188
0.00216237
0.00157456
0.000794775
0.000200962
0.00031349
0.000781249
0.00116888
0.00193739
0.00203271
0.00202979
0.00197387
0.00227329
0.00209971
0.00235126
0.00222134
0.00194498
0.00214567
0.0020362
0.00185119
0.00172581
0.00142636
0.00121399
0.000641608
9.43432e-05
0.000216126
0.000436144
0.000801214
0.00108346
0.0011983
0.00121907
0.00140934
0.00126885
0.00129766
0.00126292
0.00122923
0.00131011
0.00126725
0.00123185
0.00112954
0.00106234
0.00110853
0.000834586
0.000667015
8.7733e-05
9.26222e-06
4.85136e-05
1.26848e-05
0.000307018
0.00031683
0.000434336
0.000420388
0.000672551
0.000738981
0.000366689
0.000544445
0.000290423
0.000381063
0.000314876
0.000467999
0.000483809
0.000499363
0.0003349
1.61792e-05
0.000266839
0.00270508
0.00135688
0.000381197
0.00155093
0.00241683
0.00292929
0.00315249
0.00339648
0.00354618
0.00327759
0.00312442
0.00310876
0.00302891
0.00270276
0.00235175
0.0014212
0.000545319
0.00083817
0.0025552
0.00428795
0.00219453
0.000822407
0.000369513
0.00142017
0.00219394
0.00290027
0.00294552
0.00311717
0.00319295
0.00294886
0.00326614
0.00308088
0.00284555
0.00260144
0.00225697
0.00160464
0.000691417
0.000563175
0.00191467
0.00328664
0.00189368
0.000753781
0.000288545
0.00123211
0.00199557
0.00230423
0.0026993
0.00268761
0.00286196
0.00287691
0.00281119
0.00278233
0.00255139
0.00240362
0.00201272
0.00156681
0.000862573
3.54882e-05
0.00136092
0.00237296
0.00157198
0.000747506
0.00038443
0.00106201
0.0017338
0.00220772
0.00213936
0.00237834
0.00249085
0.00247498
0.00254294
0.00239367
0.00219653
0.00195542
0.00163692
0.00128537
0.000827319
2.59723e-05
0.00101139
0.00206829
0.00108469
0.000633904
0.000163483
0.000980649
0.00148791
0.00187024
0.00178603
0.00193441
0.00208365
0.00204427
0.00199435
0.001689
0.00181282
0.00176621
0.00165677
0.00114109
0.000687093
3.22136e-05
0.000728571
0.0014018
0.000742929
0.000417037
3.76253e-05
0.000620085
0.00109197
0.00106818
0.00123875
0.00153294
0.00135619
0.00128869
0.00134305
0.00136958
0.00135278
0.0011597
0.00117199
0.000913142
0.000600307
1.91401e-05
0.00067518
0.00114585
0.000430833
0.000377197
7.0098e-05
0.000469084
0.000576784
0.000784421
0.000906212
0.000884265
0.000817549
0.000816616
0.000904464
0.000983872
0.00089019
0.000905992
0.000905325
0.000479214
0.000623463
2.98347e-05
0.000446452
0.000617564
0.000178809
1.50913e-05
0.000139224
0.000131701
0.000380988
0.000253257
0.000343968
0.000186899
2.45879e-05
0.000318376
0.000390111
9.77619e-05
0.000213718
0.000273724
0.000313505
0.000213765
0.000208743
1.03948e-05
0.000109628
0.000221579
0.00671164
0.0050298
0.00342297
0.00196262
0.000757507
5.8311e-05
0.000422732
0.000726964
0.000878153
0.000703584
0.000710993
0.000499624
5.84387e-06
0.000365465
0.00086347
0.00187039
0.00307787
0.00464294
0.00636381
0.00796695
0.00592312
0.00435785
0.00281731
0.00166834
0.000704656
8.3897e-05
0.000509205
0.00062828
0.000921787
0.000632168
0.000759786
0.000597915
0.000438865
4.79629e-05
0.000525844
0.00119141
0.00251019
0.00382566
0.00528366
0.00665174
0.00479827
0.00372163
0.00267649
0.00117682
0.000444832
0.000164178
0.000424266
0.000572706
0.000863716
0.000737897
0.000778323
0.00075234
0.000296447
0.00035596
0.000368818
0.00118942
0.00202234
0.00296906
0.00447875
0.00574848
0.00380851
0.00317606
0.0020007
0.00110887
0.000304622
0.000132322
0.000437817
0.000532101
0.000757619
0.000845312
0.000774671
0.000666015
0.000508751
0.000122515
0.000204895
0.000698715
0.0017163
0.00239932
0.00360337
0.00466166
0.00312928
0.00241554
0.00146806
0.000777112
0.000278285
0.000151418
8.68174e-05
0.000697925
0.000579567
0.000707972
0.000396897
0.000361529
0.000353773
0.000286266
6.75392e-05
0.00049665
0.00124567
0.0018161
0.00262003
0.00336618
0.00236019
0.00164993
0.00100288
0.000539181
0.000419608
9.32099e-05
0.000355151
0.000398635
0.000358715
0.000638967
0.000525669
0.000438407
0.00024106
0.000115285
7.85517e-05
0.000186847
0.000874022
0.00119173
0.00184213
0.00242646
0.00125226
0.00118046
0.000524849
0.000310427
9.41517e-05
7.01055e-05
6.00235e-05
0.00034562
0.000333075
0.000290723
0.0002956
0.000259784
0.000418876
0.000101182
0.000126851
6.66213e-05
0.000437514
0.0010508
0.00108215
0.00163376
0.000565086
0.000370837
0.000188992
8.28497e-05
8.10109e-05
0.000208848
8.51551e-05
9.74128e-05
2.97089e-06
0.000231716
1.68312e-06
0.00010944
0.00020735
0.000158978
0.000145351
0.000252823
0.000256687
0.000277119
0.000471823
0.000326339
0.0110751
0.0093699
0.00738612
0.00591506
0.00474056
0.00376227
0.00335078
0.00282197
0.00236767
0.00258548
0.00277114
0.00280753
0.00326007
0.00392002
0.00456869
0.00563096
0.00703866
0.0088562
0.0108948
0.0126371
0.00991411
0.00809746
0.00652483
0.0051992
0.00405986
0.00315031
0.00273097
0.00227726
0.00204145
0.00207216
0.00202107
0.00220368
0.00274982
0.00304145
0.00372766
0.00477518
0.00610698
0.00760122
0.00900508
0.0108576
0.00863721
0.00698803
0.00552401
0.00449265
0.00356179
0.00260151
0.00212264
0.00181363
0.00165155
0.00144863
0.00164782
0.00174181
0.00196473
0.0025251