/*--------------------------------*- C++ -*----------------------------------*\
| =========                 |                                                 |
| \\      /  F ield         | OpenFOAM: The Open Source CFD Toolbox           |
|  \\    /   O peration     | Version:  2212                                  |
|   \\  /    A nd           | Website:  www.openfoam.com                      |
|    \\/     M anipulation  |                                                 |
\*---------------------------------------------------------------------------*/
FoamFile
{
    version     2.0;
    format      ascii;
    arch        "LSB;label=32;scalar=64";
    class       volScalarField;
    location    "0";
    object      T;
}
// * * * * * * * * * * * * * * * * * * * * * * * * * * * * * * * * * * * * * //

dimensions      [0 0 0 1 0 0 0];

internalField   nonuniform List<scalar> 
3200
(
344.707
344.06
344.109
344.635
345.402
346.545
347.777
348.992
350.09
350.732
351.068
350.811
350.314
349.649
348.7
347.526
346.542
346.013
346.02
346.59
338.961
338.418
338.49
338.986
339.651
340.629
341.707
342.79
343.789
344.321
344.618
344.408
343.953
343.395
342.565
341.525
340.675
340.195
340.195
340.635
333.137
332.661
332.781
333.198
333.799
334.611
335.55
336.479
337.318
337.761
338.038
337.861
337.462
336.991
336.295
335.397
334.652
334.252
334.255
334.584
327.251
326.816
326.96
327.328
327.833
328.458
329.261
330.03
330.715
331.087
331.321
331.191
330.857
330.477
329.911
329.144
328.54
328.208
328.194
328.442
321.275
320.932
321.075
321.359
321.779
322.247
322.864
323.479
324.008
324.317
324.481
324.407
324.124
323.831
323.426
322.802
322.3
322.066
322.035
322.222
315.243
315.008
315.116
315.318
315.645
315.958
316.39
316.84
317.219
317.45
317.572
317.518
317.299
317.106
316.84
316.368
316.002
315.835
315.798
315.935
309.152
309.04
309.092
309.215
309.441
309.63
309.857
310.145
310.369
310.519
310.577
310.551
310.4
310.302
310.16
309.85
309.651
309.519
309.516
309.6
303.067
303.033
303.042
303.091
303.172
303.23
303.307
303.419
303.485
303.543
303.551
303.543
303.491
303.466
303.402
303.304
303.24
303.206
303.183
303.222
344.619
344.122
344.068
344.729
345.642
346.711
347.983
349.451
350.555
351.198
351.706
351.417
350.819
350.19
349.035
347.723
346.717
346.078
346.162
346.727
338.888
338.472
338.469
339.086
339.854
340.785
341.887
343.167
344.176
344.713
345.139
344.912
344.378
343.868
342.852
341.708
340.828
340.251
340.312
340.77
333.069
332.729
332.785
333.287
333.945
334.749
335.664
336.762
337.625
338.091
338.439
338.26
337.819
337.399
336.525
335.569
334.792
334.312
334.321
334.693
327.161
326.908
326.998
327.404
327.933
328.602
329.343
330.243
330.972
331.334
331.619
331.479
331.128
330.803
330.1
329.288
328.639
328.235
328.253
328.507
321.193
321.027
321.093
321.427
321.849
322.325
322.933
323.63
324.2
324.49
324.705
324.603
324.33
324.091
323.557
322.91
322.405
322.055
322.101
322.263
315.181
315.063
315.113
315.371
315.672
316
316.43
316.944
317.352
317.58
317.717
317.657
317.457
317.307
316.915
316.463
316.057
315.811
315.856
315.949
309.126
309.057
309.096
309.236
309.455
309.643
309.885
310.196
310.452
310.602
310.656
310.652
310.508
310.422
310.197
309.923
309.66
309.517
309.542
309.596
303.055
303.036
303.049
303.104
303.17
303.232
303.315
303.419
303.503
303.56
303.573
303.579
303.52
303.503
303.418
303.33
303.249
303.203
303.195
303.216
344.645
344.171
344.197
344.9
345.952
347.081
348.601
350.051
351.362
352.005
352.47
352.194
351.634
350.905
349.504
348.249
347.237
346.484
346.451
346.974
338.909
338.526
338.576
339.197
340.124
341.081
342.436
343.718
344.864
345.411
345.832
345.578
345.075
344.467
343.244
342.162
341.259
340.619
340.578
340.993
333.101
332.802
332.85
333.396
334.203
334.98
336.151
337.246
338.226
338.66
339.052
338.843
338.413
337.89
336.862
335.906
335.148
334.614
334.574
334.907
327.195
326.985
327.045
327.473
328.155
328.761
329.735
330.656
331.45
331.806
332.131
331.965
331.614
331.193
330.357
329.542
328.922
328.491
328.463
328.701
321.226
321.101
321.147
321.484
322.007
322.486
323.249
323.964
324.562
324.848
325.102
324.98
324.699
324.382
323.745
323.099
322.583
322.277
322.247
322.437
315.207
315.134
315.174
315.409
315.797
316.146
316.676
317.208
317.604
317.824
317.995
317.9
317.726
317.498
317.022
316.565
316.206
315.992
315.961
316.097
309.162
309.114
309.133
309.273
309.511
309.719
310.05
310.361
310.6
310.745
310.832
310.768
310.66
310.55
310.24
309.986
309.772
309.642
309.599
309.677
303.086
303.068
303.06
303.109
303.186
303.265
303.367
303.481
303.563
303.617
303.628
303.619
303.572
303.556
303.436
303.358
303.292
303.233
303.229
303.246
344.8
344.402
344.509
345.207
346.311
347.587
349.347
350.76
352.058
352.852
353.347
353.243
352.51
351.69
350.325
349.022
347.825
347.048
346.895
347.293
339.043
338.732
338.832
339.464
340.438
341.526
343.079
344.316
345.466
346.133
346.573
346.463
345.861
345.157
343.969
342.831
341.793
341.101
340.948
341.255
333.192
332.981
333.074
333.607
334.469
335.344
336.673
337.747
338.747
339.28
339.658
339.568
339.062
338.465
337.47
336.506
335.635
335.038
334.88
335.129
327.268
327.146
327.218
327.64
328.391
329.084
330.165
331.07
331.902
332.306
332.616
332.572
332.156
331.658
330.824
330.058
329.37
328.843
328.693
328.9
321.28
321.234
321.268
321.597
322.214
322.739
323.564
324.285
324.939
325.255
325.483
325.451
325.138
324.725
324.09
323.517
322.961
322.561
322.418
322.581
315.23
315.232
315.25
315.462
315.955
316.304
316.886
317.422
317.893
318.112
318.251
318.254
318.017
317.735
317.28
316.88
316.461
316.19
316.07
316.194
309.182
309.164
309.186
309.286
309.624
309.824
310.144
310.498
310.763
310.9
310.99
310.974
310.843
310.676
310.414
310.161
309.924
309.745
309.676
309.761
303.092
303.075
303.078
303.102
303.227
303.29
303.399
303.524
303.601
303.658
303.686
303.679
303.63
303.582
303.501
303.414
303.331
303.273
303.247
303.283
345.044
344.932
345
345.703
346.962
348.246
349.956
351.585
352.95
353.889
354.492
354.395
353.678
352.6
351.072
349.846
348.594
347.87
347.516
347.866
339.26
339.199
339.265
339.887
340.975
342.105
343.622
345.032
346.233
347.042
347.564
347.499
346.869
345.925
344.59
343.54
342.448
341.802
341.475
341.751
333.408
333.363
333.417
333.955
334.898
335.864
337.153
338.357
339.353
340.028
340.5
340.442
339.924
339.109
337.973
337.096
336.156
335.612
335.307
335.54
327.467
327.43
327.488
327.936
328.724
329.516
330.565
331.548
332.376
332.909
333.315
333.256
332.852
332.165
331.239
330.527
329.785
329.306
329.041
329.23
321.454
321.431
321.489
321.814
322.425
323.037
323.898
324.656
325.311
325.707
326.032
325.98
325.662
325.131
324.431
323.869
323.289
322.898
322.668
322.845
315.377
315.364
315.428
315.607
316.057
316.515
317.141
317.67
318.139
318.453
318.651
318.603
318.395
318.045
317.535
317.112
316.706
316.402
316.239
316.388
309.248
309.245
309.304
309.367
309.658
309.945
310.323
310.64
310.92
311.106
311.212
311.193
311.065
310.873
310.565
310.308
310.048
309.872
309.778
309.859
303.095
303.092
303.123
303.151
303.238
303.339
303.463
303.572
303.672
303.732
303.77
303.757
303.708
303.652
303.557
303.459
303.366
303.318
303.28
303.309
345.567
345.51
345.655
346.375
347.575
349.024
350.688
352.393
353.835
355.035
355.617
355.602
354.885
353.61
352.11
350.807
349.421
348.64
348.301
348.738
339.703
339.706
339.82
340.483
341.531
342.793
344.252
345.72
346.987
348.005
348.527
348.535
347.9
346.801
345.503
344.363
343.161
342.456
342.139
342.494
333.744
333.813
333.886
334.472
335.391
336.435
337.699
338.932
340.013
340.868
341.318
341.331
340.766
339.872
338.745
337.805
336.748
336.157
335.857
336.158
327.729
327.835
327.873
328.354
329.122
329.961
331.038
332.023
332.936
333.629
333.992
333.998
333.534
332.798
331.872
331.117
330.235
329.75
329.508
329.731
321.662
321.755
321.782
322.167
322.759
323.415
324.264
325.04
325.748
326.3
326.555
326.563
326.215
325.621
324.905
324.335
323.621
323.253
323.064
323.221
315.525
315.619
315.615
315.883
316.308
316.785
317.408
317.953
318.459
318.882
319.015
319.053
318.782
318.364
317.855
317.459
316.941
316.665
316.551
316.644
309.347
309.404
309.401
309.552
309.812
310.109
310.47
310.789
311.101
311.38
311.439
311.462
311.309
311.052
310.728
310.516
310.201
310.032
309.977
310.003
303.127
303.154
303.148
303.212
303.291
303.391
303.507
303.619
303.727
303.812
303.837
303.844
303.795
303.71
303.586
303.521
303.414
303.364
303.348
303.353
346.343
346.156
346.342
347.056
348.289
349.774
351.551
353.257
354.807
356.016
356.679
356.688
356.065
354.705
353.171
351.783
350.434
349.64
349.145
349.464
340.382
340.254
340.428
341.055
342.146
343.433
344.987
346.473
347.813
348.879
349.447
349.481
348.947
347.745
346.419
345.196
344.037
343.33
342.887
343.105
334.33
334.257
334.432
334.917
335.884
337.002
338.302
339.57
340.71
341.625
342.08
342.133
341.693
340.69
339.54
338.47
337.497
336.885
336.552
336.664
328.209
328.185
328.327
328.713
329.534
330.44
331.501
332.557
333.476
334.236
334.596
334.663
334.306
333.497
332.519
331.656
330.864
330.323
330.078
330.121
322.021
322.027
322.123
322.422
323.063
323.788
324.61
325.461
326.158
326.725
327.024
327.08
326.8
326.194
325.401
324.734
324.121
323.677
323.495
323.525
315.79
315.795
315.883
316.07
316.549
317.057
317.63
318.27
318.748
319.138
319.379
319.427
319.217
318.795
318.202
317.726
317.302
316.961
316.847
316.873
309.514
309.502
309.566
309.664
309.959
310.285
310.612
311.004
311.281
311.514
311.673
311.715
311.561
311.306
310.95
310.672
310.426
310.21
310.133
310.162
303.193
303.187
303.208
303.24
303.341
303.457
303.572
303.68
303.778
303.863
303.917
303.931
303.875
303.797
303.663
303.584
303.494
303.424
303.396
303.415
347.094
346.908
347.117
347.873
349.111
350.595
352.493
354.262
355.682
356.919
357.663
357.723
356.933
355.74
354.176
352.778
351.426
350.563
350.191
350.468
341.03
340.906
341.107
341.76
342.868
344.149
345.82
347.345
348.556
349.647
350.281
350.36
349.675
348.631
347.29
346.079
344.876
344.126
343.79
343.975
334.866
334.807
334.993
335.54
336.486
337.574
339.019
340.295
341.326
342.249
342.74
342.868
342.315
341.4
340.274
339.25
338.23
337.572
337.282
337.382
328.647
328.639
328.794
329.229
330.002
330.903
332.114
333.119
333.982
334.756
335.125
335.257
334.815
334.052
333.132
332.303
331.441
330.923
330.658
330.71
322.371
322.385
322.501
322.833
323.437
324.144
325.111
325.873
326.553
327.165
327.418
327.535
327.194
326.582
325.885
325.235
324.563
324.168
323.952
323.961
316.031
316.04
316.127
316.38
316.792
317.296
318.017
318.558
319.05
319.49
319.654
319.728
319.488
319.069
318.565
318.094
317.608
317.338
317.182
317.158
309.649
309.636
309.708
309.862
310.093
310.414
310.838
311.171
311.484
311.73
311.824
311.869
311.719
311.494
311.199
310.892
310.603
310.458
310.349
310.328
303.242
303.228
303.245
303.313
303.385
303.487
303.637
303.746
303.856
303.938
303.964
303.978
303.937
303.872
303.754
303.649
303.554
303.522
303.471
303.46
347.921
347.668
347.924
348.689
350.006
351.436
353.218
355.012
356.613
357.949
358.609
358.632
358
356.683
355.118
353.709
352.418
351.618
351.235
351.409
341.724
341.571
341.784
342.484
343.631
344.878
346.445
347.994
349.376
350.539
351.11
351.141
350.601
349.457
348.11
346.869
345.748
345.035
344.694
344.812
335.459
335.389
335.546
336.16
337.144
338.207
339.526
340.843
342.003
342.997
343.476
343.538
343.07
342.087
340.971
339.884
338.939
338.337
338.023
338.105
329.128
329.111
329.232
329.738
330.548
331.42
332.494
333.608
334.508
335.369
335.725
335.818
335.408
334.608
333.712
332.798
332.024
331.523
331.26
331.312
322.742
322.763
322.835
323.235
323.88
324.534
325.381
326.254
326.934
327.63
327.901
327.986
327.639
327.026
326.34
325.629
325.016
324.626
324.418
324.455
316.306
316.317
316.359
316.665
317.133
317.578
318.201
318.83
319.298
319.793
320.007
320.052
319.804
319.381
318.887
318.367
317.92
317.653
317.493
317.536
309.822
309.823
309.844
310.036
310.31
310.581
310.95
311.331
311.615
311.901
312.05
312.057
311.933
311.684
311.402
311.04
310.809
310.635
310.522
310.558
303.292
303.298
303.304
303.379
303.462
303.542
303.679
303.809
303.898
303.985
304.047
304.045
304.013
303.934
303.839
303.705
303.636
303.575
303.537
303.546
348.636
348.468
348.766
349.519
350.692
352.257
353.897
355.725
357.341
358.782
359.507
359.486
358.785
357.574
356.067
354.521
353.376
352.479
352.316
352.363
342.385
342.251
342.523
343.199
344.238
345.6
347.017
348.599
350
351.25
351.873
351.86
351.251
350.216
348.89
347.557
346.553
345.763
345.625
345.65
336.056
335.943
336.185
336.796
337.677
338.822
340
341.351
342.543
343.622
344.128
344.142
343.617
342.735
341.586
340.483
339.618
338.951
338.819
338.812
329.644
329.536
329.748
330.272
331.001
331.946
332.885
334.032
334.968
335.869
336.292
336.297
335.854
335.159
334.208
333.281
332.58
332.029
331.895
331.879
323.167
323.074
323.247
323.641
324.225
324.991
325.689
326.603
327.322
328.02
328.342
328.335
328.009
327.476
326.717
325.998
325.427
325.023
324.884
324.872
316.637
316.551
316.671
316.924
317.384
317.926
318.4
319.066
319.584
320.08
320.307
320.305
320.08
319.686
319.145
318.628
318.22
317.914
317.829
317.817
310.018
309.963
310.044
310.181
310.476
310.821
311.078
311.464
311.794
312.09
312.224
312.219
312.101
311.85
311.519
311.204
310.964
310.754
310.726
310.72
303.35
303.352
303.367
303.41
303.515
303.639
303.715
303.845
303.965
304.054
304.098
304.092
304.07
303.986
303.867
303.755
303.682
303.603
303.597
303.6
349.487
349.337
349.602
350.223
351.42
352.964
354.74
356.397
357.89
359.312
360.173
359.981
359.414
358.316
356.853
355.383
354.23
353.497
353.32
353.195
343.137
343.028
343.266
343.795
344.857
346.207
347.777
349.194
350.496
351.724
352.46
352.3
351.822
350.882
349.571
348.297
347.27
346.647
346.487
346.363
336.716
336.618
336.821
337.28
338.156
339.321
340.66
341.872
342.968
344.023
344.623
344.499
344.079
343.291
342.168
341.09
340.205
339.694
339.541
339.443
330.2
330.111
330.277
330.644
331.36
332.354
333.436
334.438
335.345
336.216
336.662
336.582
336.228
335.607
334.65
333.761
333.058
332.646
332.487
332.44
323.623
323.517
323.669
323.941
324.481
325.3
326.107
326.887
327.601
328.314
328.627
328.569
328.28
327.809
327.037
326.338
325.824
325.491
325.365
325.346
316.947
316.858
316.958
317.164
317.55
318.15
318.71
319.24
319.781
320.303
320.521
320.487
320.285
319.934
319.366
318.873
318.503
318.258
318.185
318.181
310.194
310.141
310.207
310.336
310.553
310.927
311.248
311.586
311.915
312.233
312.362
312.32
312.237
312.004
311.647
311.356
311.129
311.001
310.935
310.949
303.412
303.397
303.432
303.469
303.539
303.669
303.767
303.89
303.999
304.107
304.144
304.122
304.109
304.025
303.903
303.812
303.742
303.686
303.666
303.672
350.301
350.237
350.329
350.998
352.223
353.712
355.331
357.013
358.58
359.831
360.525
360.505
359.823
358.862
357.5
356.228
355.176
354.447
354.269
354.221
343.815
343.776
343.901
344.438
345.566
346.849
348.261
349.717
351.064
352.17
352.754
352.745
352.165
351.331
350.11
349.028
348.108
347.467
347.294
347.238
337.276
337.219
337.357
337.782
338.778
339.868
341.058
342.298
343.46
344.396
344.871
344.9
344.363
343.657
342.612
341.717
340.904
340.376
340.205
340.186
330.629
330.59
330.716
331.046
331.866
332.787
333.752
334.786
335.742
336.501
336.89
336.928
336.45
335.869
335.02
334.268
333.599
333.179
333.024
333.028
323.917
323.902
323.981
324.263
324.884
325.609
326.352
327.142
327.917
328.496
328.812
328.843
328.452
327.964
327.337
326.736
326.238
325.91
325.771
325.794
317.152
317.121
317.189
317.412
317.835
318.366
318.888
319.448
320.006
320.43
320.654
320.692
320.384
320.011
319.591
319.158
318.806
318.552
318.481
318.483
310.314
310.283
310.364
310.501
310.734
311.063
311.364
311.695
312.038
312.291
312.432
312.451
312.27
312.03
311.799
311.541
311.321
311.164
311.128
311.128
303.464
303.442
303.485
303.525
303.598
303.715
303.816
303.912
304.045
304.122
304.173
304.168
304.121
304.022
303.955
303.87
303.8
303.751
303.724
303.728
350.959
350.949
351.283
351.772
352.967
354.286
355.913
357.493
358.976
360.139
360.812
360.874
360.27
359.359
358.055
356.931
355.946
355.22
355.023
355.108
344.389
344.391
344.697
345.133
346.172
347.317
348.753
350.163
351.429
352.41
352.998
353.079
352.545
351.734
350.608
349.636
348.75
348.126
347.934
347.985
337.748
337.742
338.048
338.382
339.277
340.24
341.454
342.706
343.769
344.581
345.063
345.153
344.67
343.998
343.046
342.229
341.424
340.937
340.742
340.787
331.032
331.011
331.284
331.559
332.314
333.094
334.062
335.122
335.986
336.659
337.025
337.114
336.689
336.166
335.396
334.73
334.035
333.632
333.45
333.509
324.227
324.223
324.437
324.632
325.252
325.842
326.596
327.433
328.103
328.637
328.919
328.974
328.623
328.238
327.636
327.128
326.554
326.267
326.092
326.173
317.349
317.362
317.519
317.639
318.096
318.506
319.042
319.668
320.111
320.526
320.719
320.766
320.487
320.234
319.804
319.474
319.011
318.82
318.689
318.756
310.437
310.458
310.549
310.621
310.891
311.152
311.452
311.852
312.099
312.353
312.463
312.503
312.329
312.182
311.911
311.729
311.435
311.322
311.249
311.283
303.505
303.523
303.542
303.559
303.65
303.752
303.845
303.983
304.054
304.153
304.179
304.186
304.137
304.087
303.988
303.94
303.834
303.811
303.777
303.778
351.824
351.779
351.985
352.572
353.51
354.93
356.44
357.8
359.234
360.411
361.041
361.237
360.692
359.761
358.672
357.679
356.835
356.119
355.961
356.077
345.117
345.125
345.293
345.828
346.654
347.892
349.209
350.384
351.648
352.673
353.202
353.377
352.915
352.085
351.144
350.255
349.542
348.899
348.739
348.81
338.327
338.359
338.484
338.982
339.691
340.726
341.87
342.868
343.927
344.805
345.231
345.407
345.023
344.287
343.5
342.755
342.126
341.567
341.434
341.479
331.475
331.52
331.638
332.014
332.622
333.488
334.41
335.247
336.126
336.832
337.144
337.333
337.007
336.385
335.733
335.142
334.606
334.137
334.04
334.087
324.552
324.621
324.751
324.99
325.464
326.153
326.861
327.531
328.211
328.762
328.959
329.155
328.91
328.395
327.875
327.43
327.006
326.634
326.573
326.607
317.561
317.638
317.754
317.907
318.246
318.751
319.248
319.741
320.216
320.591
320.727
320.906
320.713
320.347
319.961
319.65
319.348
319.056
319.063
319.078
310.566
310.609
310.702
310.777
310.963
311.294
311.575
311.901
312.17
312.391
312.483
312.575
312.458
312.242
312.003
311.821
311.622
311.459
311.464
311.486
303.546
303.567
303.597
303.626
303.683
303.786
303.882
303.996
304.078
304.16
304.194
304.221
304.185
304.106
304.023
303.971
303.902
303.842
303.838
303.857
352.734
352.502
352.697
353.434
354.285
355.515
356.817
358.319
359.581
360.653
361.29
361.339
360.879
360.139
359.202
358.33
357.588
356.966
356.863
357.023
345.915
345.741
345.924
346.587
347.306
348.403
349.533
350.833
351.912
352.864
353.425
353.455
353.045
352.394
351.62
350.817
350.205
349.622
349.529
349.643
339.006
338.897
339.042
339.648
340.227
341.168
342.145
343.218
344.126
344.945
345.439
345.438
345.105
344.553
343.893
343.221
342.684
342.196
342.096
342.172
332.019
331.97
332.07
332.601
333.062
333.829
334.646
335.5
336.256
336.924
337.343
337.328
337.073
336.594
336.072
335.515
335.078
334.671
334.573
334.615
324.977
324.975
325.035
325.463
325.815
326.404
327.059
327.709
328.301
328.823
329.148
329.145
328.953
328.56
328.142
327.704
327.398
327.091
326.971
327.008
317.873
317.914
317.943
318.257
318.494
318.912
319.406
319.858
320.299
320.641
320.894
320.891
320.772
320.456
320.165
319.836
319.623
319.436
319.325
319.357
310.745
310.789
310.811
310.988
311.142
311.377
311.689
311.949
312.229
312.414
312.566
312.57
312.523
312.318
312.153
311.928
311.816
311.705
311.625
311.645
303.601
303.628
303.627
303.691
303.738
303.815
303.927
304.006
304.102
304.161
304.216
304.224
304.197
304.13
304.084
303.997
303.962
303.929
303.901
303.904
353.602
353.358
353.497
354.202
355.06
356.152
357.466
358.816
359.856
360.875
361.354
361.586
361.07
360.449
359.757
358.935
358.42
357.743
357.767
357.994
346.659
346.478
346.603
347.21
347.996
348.94
350.082
351.256
352.158
353.069
353.474
353.674
353.205
352.658
352.074
351.364
350.893
350.286
350.307
350.495
339.634
339.506
339.612
340.151
340.817
341.632
342.614
343.594
344.352
345.144
345.464
345.646
345.24
344.756
344.269
343.682
343.256
342.751
342.763
342.91
332.564
332.456
332.559
332.998
333.547
334.212
335.031
335.817
336.442
337.105
337.364
337.495
337.182
336.774
336.357
335.898
335.53
335.125
335.139
335.239
325.411
325.34
325.421
325.772
326.19
326.689
327.357
327.939
328.446
328.967
329.159
329.255
329.041
328.71
328.397
328.012
327.722
327.413
327.436
327.504
318.2
318.143
318.22
318.487
318.777
319.113
319.602
320.005
320.388
320.755
320.918
320.94
320.836
320.578
320.343
320.08
319.859
319.661
319.669
319.718
310.933
310.917
310.965
311.113
311.324
311.513
311.773
312.031
312.287
312.495
312.6
312.6
312.54
312.399
312.243
312.073
311.931
311.821
311.844
311.853
303.674
303.662
303.681
303.721
303.799
303.857
303.947
304.038
304.127
304.191
304.237
304.227
304.203
304.168
304.106
304.049
303.999
303.971
303.96
303.975
354.487
354.116
354.395
355.033
355.746
356.822
358.007
359.156
360.166
361.063
361.565
361.724
361.479
360.862
360.239
359.572
359.129
358.586
358.652
358.85
347.412
347.126
347.377
347.935
348.571
349.519
350.543
351.572
352.418
353.218
353.654
353.786
353.551
353.013
352.47
351.913
351.509
351.009
351.078
351.249
340.274
340.051
340.288
340.74
341.288
342.096
342.967
343.859
344.572
345.251
345.628
345.75
345.511
345.061
344.589
344.133
343.768
343.348
343.411
343.562
333.071
332.897
333.118
333.483
333.943
334.592
335.303
336.031
336.621
337.17
337.495
337.599
337.383
337.011
336.641
336.266
335.927
335.6
335.651
335.795
325.801
325.676
325.872
326.15
326.509
327.014
327.546
328.114
328.575
329.016
329.267
329.365
329.149
328.885
328.598
328.323
328.019
327.792
327.83
327.953
318.47
318.39
318.552
318.761
319.003
319.36
319.72
320.145
320.452
320.797
320.975
321.04
320.881
320.689
320.482
320.297
320.058
319.942
319.944
320.052
311.103
311.065
311.184
311.302
311.431
311.638
311.867
312.125
312.299
312.506
312.62
312.667
312.568
312.448
312.337
312.212
312.067
312.022
311.995
312.07
303.723
303.717
303.758
303.793
303.837
303.9
303.972
304.067
304.132
304.187
304.231
304.252
304.215
304.164
304.142
304.105
304.062
304.04
304.019
304.05
355.506
355.201
355.406
355.8
356.458
357.499
358.646
359.565
360.68
361.415
361.889
362.068
361.791
361.335
360.781
360.273
359.876
359.417
359.361
359.664
348.296
348.048
348.257
348.618
349.172
350.086
351.104
351.876
352.872
353.495
353.938
354.084
353.826
353.404
352.917
352.483
352.136
351.704
351.636
351.906
341.012
340.816
340.994
341.33
341.822
342.571
343.449
344.091
344.943
345.465
345.869
345.977
345.767
345.387
344.97
344.611
344.309
343.891
343.846
344.091
333.668
333.512
333.672
333.952
334.347
334.994
335.691
336.218
336.896
337.352
337.712
337.776
337.59
337.255
336.926
336.654
336.398
336.02
336.014
336.208
326.271
326.125
326.285
326.51
326.797
327.312
327.862
328.279
328.772
329.162
329.425
329.469
329.332
329.088
328.804
328.605
328.389
328.088
328.114
328.269
318.805
318.694
318.848
318.986
319.194
319.569
319.963
320.264
320.612
320.91
321.085
321.107
321.017
320.848
320.628
320.499
320.308
320.121
320.132
320.25
311.312
311.25
311.338
311.433
311.546
311.766
312.017
312.192
312.399
312.581
312.676
312.701
312.648
312.544
312.401
312.335
312.198
312.103
312.103
312.191
303.795
303.77
303.808
303.831
303.869
303.96
304.039
304.096
304.156
304.219
304.255
304.268
304.237
304.211
304.164
304.144
304.097
304.056
304.056
304.094
356.419
356.128
356.205
356.522
357.287
358.177
359.24
360.146
360.971
361.688
362.19
362.295
362.18
361.768
361.273
360.804
360.543
360.147
360.241
360.525
349.06
348.853
348.901
349.204
349.87
350.674
351.585
352.394
353.114
353.733
354.152
354.255
354.113
353.769
353.36
352.931
352.71
352.328
352.396
352.622
341.631
341.501
341.524
341.832
342.371
343.069
343.843
344.531
345.156
345.669
346.006
346.104
345.971
345.685
345.336
344.974
344.761
344.451
344.482
344.661
334.155
334.08
334.086
334.362
334.791
335.375
336.007
336.578
337.106
337.521
337.795
337.866
337.746
337.531
337.239
336.934
336.743
336.492
336.504
336.64
326.633
326.584
326.595
326.823
327.15
327.621
328.095
328.552
328.985
329.296
329.469
329.547
329.46
329.28
329.081
328.815
328.666
328.445
328.464
328.573
319.06
319.021
319.062
319.223
319.454
319.802
320.13
320.457
320.772
320.992
321.099
321.146
321.089
320.98
320.838
320.629
320.514
320.359
320.371
320.439
311.453
311.443
311.471
311.568
311.704
311.892
312.12
312.306
312.502
312.632
312.688
312.722
312.678
312.614
312.535
312.429
312.331
312.246
312.25
312.301
303.85
303.85
303.847
303.893
303.927
303.981
304.074
304.119
304.191
304.243
304.264
304.275
304.256
304.225
304.211
304.17
304.133
304.108
304.108
304.123
357.056
356.786
356.788
357.068
357.853
358.631
359.512
360.51
361.399
362.121
362.608
362.575
362.347
362.063
361.551
361.268
360.943
360.738
360.82
361.067
349.559
349.365
349.4
349.639
350.345
351.04
351.779
352.668
353.456
354.085
354.509
354.456
354.248
354.013
353.553
353.309
353.029
352.805
352.878
353.048
342.029
341.906
341.943
342.148
342.765
343.373
343.965
344.744
345.414
345.946
346.322
346.254
346.079
345.875
345.495
345.264
345.025
344.816
344.861
344.998
334.461
334.365
334.424
334.615
335.132
335.628
336.098
336.748
337.298
337.745
338.041
337.969
337.827
337.674
337.368
337.172
336.973
336.779
336.8
336.921
326.874
326.778
326.837
326.996
327.434
327.823
328.169
328.673
329.11
329.449
329.669
329.61
329.514
329.399
329.154
328.999
328.84
328.689
328.689
328.778
319.254
319.155
319.202
319.319
319.658
319.931
320.171
320.524
320.854
321.077
321.252
321.182
321.167
321.043
320.885
320.768
320.635
320.545
320.548
320.612
311.566
311.519
311.553
311.606
311.837
311.97
312.131
312.337
312.549
312.68
312.772
312.741
312.745
312.64
312.573
312.479
312.417
312.377
312.365
312.399
303.884
303.87
303.874
303.895
303.969
304.008
304.077
304.13
304.209
304.241
304.291
304.274
304.279
304.227
304.206
304.184
304.162
304.159
304.147
304.174
)
;

boundaryField
{
    hotSide
    {
        type            fixedGradient;
        gradient        nonuniform List<scalar> 
400
(
454.087
452.112
452.31
454.605
458.749
464.395
471.175
478.759
486.883
495.35
504.032
512.858
521.813
530.932
540.298
550.033
560.291
571.228
582.965
595.555
443.887
442.299
443.032
445.993
450.878
457.272
464.749
472.938
481.55
490.377
499.288
508.214
517.148
526.136
535.28
544.727
554.663
565.282
576.736
589.095
440.663
439.76
441.136
444.682
450.09
456.942
464.806
473.305
482.142
491.105
500.057
508.934
517.734
526.512
535.38
544.497
554.059
564.264
575.276
587.173
443.911
443.98
446.12
450.214
455.986
463.066
471.063
479.621
488.451
497.34
506.153
514.828
523.366
531.833
540.344
549.06
558.165
567.845
578.248
589.458
451.867
453.103
456.154
460.889
467.065
474.364
482.443
490.978
499.694
508.386
516.922
525.247
533.373
541.376
549.378
557.537
566.029
575.018
584.643
594.987
462.494
465.011
469.126
474.689
481.466
489.166
497.472
506.076
514.712
523.18
531.358
539.202
546.749
554.095
561.38
568.774
576.449
584.567
593.259
602.618
474.025
477.879
483.19
489.784
497.417
505.79
514.575
523.452
532.14
540.433
548.215
555.47
562.272
568.761
575.117
581.536
588.211
595.309
602.967
611.281
484.999
490.175
496.752
504.534
513.248
522.564
532.107
541.505
550.426
558.634
566.016
572.596
578.512
583.978
589.239
594.542
600.108
606.121
612.723
620.015
494.162
500.536
508.333
517.337
527.25
537.689
548.212
558.352
567.686
575.916
582.925
588.793
593.756
598.131
602.254
606.43
610.915
615.908
621.553
627.949
500.439
507.738
516.53
526.592
537.605
549.142
560.684
571.654
581.511
589.868
596.595
601.842
605.961
609.389
612.551
615.807
619.439
623.651
628.587
634.336
503.023
510.813
520.175
530.884
542.611
554.904
567.189
578.811
589.135
597.701
604.364
609.325
613.022
615.971
618.655
621.465
624.692
628.544
633.159
638.623
501.534
509.276
518.647
529.42
541.26
553.708
566.182
578.023
588.592
597.424
604.369
609.616
613.589
616.798
619.719
622.741
626.159
630.182
634.951
640.554
496.145
503.31
512.144
522.421
533.804
545.844
557.993
569.654
580.265
589.424
596.978
603.049
607.96
612.126
615.962
619.825
624.002
628.705
634.085
640.239
487.611
493.783
501.692
511.119
521.731
533.1
544.727
556.091
566.725
576.29
584.631
591.792
597.976
603.48
608.627
613.726
619.042
624.786
631.117
638.143
477.199
482.123
488.924
497.396
507.214
517.959
529.16
540.35
551.121
561.169
570.334
578.601
586.078
592.963
599.5
605.944
612.535
619.479
626.939
635.026
466.631
470.204
475.882
483.477
492.654
502.975
513.965
525.167
536.192
546.755
556.685
565.929
574.538
582.643
590.43
598.115
605.918
614.042
622.65
631.855
458.098
460.351
464.989
471.844
480.55
490.621
501.544
512.846
524.143
535.154
545.705
555.723
565.224
574.3
583.099
591.813
600.649
609.813
619.472
629.734
454.154
455.253
458.973
465.159
473.414
483.206
493.986
505.273
516.685
527.948
538.889
549.427
559.557
569.344
578.912
588.43
598.097
608.117
618.659
629.825
457.043
457.289
460.204
465.653
473.25
482.475
492.794
503.74
514.949
526.157
537.195
547.974
558.474
568.74
578.87
589.01
599.338
610.039
621.269
633.114
467.511
467.239
469.455
474.051
480.714
489.006
498.468
508.688
519.334
530.156
540.989
551.737
562.367
572.902
583.415
594.017
604.852
616.065
627.778
640.059
)
;
    }
    coldSide
    {
        type            mixed;
        refValue        uniform 300;
        refGradient     uniform 0;
        valueFraction   uniform 0.991591;
        source          uniform 0;
        value           nonuniform List<scalar> 
400
(
300.026
300.026
300.026
300.026
300.026
300.026
300.027
300.027
300.028
300.028
300.029
300.029
300.029
300.03
300.03
300.031
300.031
300.032
300.032
300.033
300.026
300.026
300.026
300.026
300.026
300.027
300.027
300.027
300.028
300.028
300.029
300.029
300.03
300.03
300.031
300.031
300.031
300.032
300.032
300.033
300.026
300.026
300.026