/*--------------------------------*- C++ -*----------------------------------*\
| =========                 |                                                 |
| \\      /  F ield         | OpenFOAM: The Open Source CFD Toolbox           |
|  \\    /   O peration     | Version:  2212                                  |
|   \\  /    A nd           | Website:  www.openfoam.com                      |
|    \\/     M anipulation  |                                                 |
\*---------------------------------------------------------------------------*/
FoamFile
{
    version     2.0;
    format      ascii;
    arch        "LSB;label=32;scalar=64";
    class       volScalarField;
    location    "0";
    object      stateMean;
}
// * * * * * * * * * * * * * * * * * * * * * * * * * * * * * * * * * * * * * //

dimensions      [0 0 0 1 0 0 0];

internalField   nonuniform List<scalar> 
3200
(
328.539
329.097
329.731
330.466
330.968
331.432
331.799
332.213
332.403
332.545
332.616
332.623
332.439
332.257
331.977
331.663
331.127
330.637
330.076
329.555
324.707
325.141
325.718
326.303
326.733
327.211
327.552
327.806
328.02
328.087
328.289
328.164
328.091
327.944
327.649
327.343
327.032
326.503
325.97
325.499
320.858
321.309
321.722
322.223
322.584
322.909
323.255
323.551
323.679
323.697
323.802
323.81
323.674
323.528
323.356
323.123
322.761
322.406
321.964
321.562
317.069
317.35
317.742
318.061
318.551
318.715
318.909
319.139
319.345
319.373
319.433
319.418
319.32
319.185
319.072
318.851
318.548
318.314
317.905
317.602
313.238
313.491
313.809
314.082
314.352
314.584
314.766
314.923
314.967
315.013
315.104
314.969
315.06
314.893
314.812
314.612
314.396
314.184
313.961
313.682
309.469
309.608
309.841
310.065
310.233
310.408
310.524
310.609
310.736
310.678
310.782
310.724
310.708
310.683
310.536
310.437
310.31
310.118
309.961
309.793
305.695
305.758
305.891
306.049
306.134
306.229
306.351
306.391
306.362
306.478
306.454
306.484
306.45
306.413
306.332
306.304
306.18
306.108
306.025
305.906
301.939
302.007
301.988
302.037
302.05
302.097
302.096
302.173
302.113
302.139
302.229
302.175
302.201
302.209
302.112
302.068
302.025
302.044
302.014
301.97
329.211
329.921
330.564
331.215
331.84
332.321
332.751
333.073
333.329
333.445
333.557
333.473
333.397
333.233
332.934
332.588
332.025
331.604
330.948
330.353
325.29
325.821
326.483
326.982
327.521
327.882
328.243
328.609
328.761
328.951
329.012
328.975
328.871
328.648
328.435
328.047
327.692
327.237
326.704
326.24
321.388
321.77
322.268
322.758
323.216
323.592
323.784
324.096
324.333
324.377
324.415
324.43
324.351
324.184
324.035
323.693
323.357
322.901
322.486
322.116
317.447
317.781
318.191
318.629
318.905
319.205
319.386
319.695
319.84
319.932
319.884
319.866
319.839
319.764
319.516
319.326
318.968
318.723
318.345
318.092
313.531
313.833
314.095
314.349
314.687
314.927
315.119
315.284
315.365
315.457
315.505
315.473
315.349
315.345
315.181
314.978
314.738
314.542
314.185
313.939
309.628
309.866
310.093
310.237
310.469
310.696
310.744
310.867
311.011
311
311.078
311.082
311
311.005
310.807
310.703
310.577
310.311
310.153
309.987
305.79
305.885
306.005
306.179
306.328
306.402
306.476
306.493
306.55
306.582
306.64
306.623
306.605
306.539
306.549
306.416
306.325
306.167
306.113
306.065
301.915
301.955
302.021
302.079
302.03
302.124
302.121
302.188
302.251
302.199
302.237
302.257
302.262
302.194
302.177
302.152
302.09
302.06
302.014
302.002
330.268
331.015
331.669
332.392
333.016
333.56
333.945
334.301
334.483
334.73
334.868
334.726
334.698
334.476
334.215
333.832
333.304
332.682
332.112
331.52
326.187
326.733
327.345
327.874
328.458
328.86
329.298
329.584
329.777
329.949
330.057
330.011
329.913
329.717
329.452
329.127
328.713
328.214
327.736
327.182
322.144
322.558
323.021
323.53
324.027
324.395
324.758
325.007
325.074
325.26
325.221
325.262
325.25
325.069
324.839
324.5
324.192
323.901
323.302
322.908
318.067
318.369
318.77
319.142
319.555
319.931
320.153
320.357
320.555
320.578
320.563
320.617
320.55
320.44
320.266
320.039
319.782
319.425
319.004
318.64
313.936
314.279
314.603
314.977
315.203
315.425
315.643
315.788
315.944
315.982
315.971
316.051
315.983
315.85
315.716
315.464
315.289
315.109
314.805
314.555
310.02
310.135
310.394
310.536
310.93
310.982
311.166
311.27
311.292
311.306
311.382
311.355
311.403
311.328
311.257
311.031
310.927
310.718
310.521
310.253
306.03
306.05
306.271
306.337
306.415
306.599
306.71
306.749
306.76
306.832
306.824
306.864
306.866
306.757
306.702
306.63
306.525
306.371
306.326
306.223
302.046
302.015
302.068
302.174
302.206
302.187
302.279
302.252
302.3
302.315
302.278
302.327
302.266
302.234
302.249
302.202
302.151
302.182
302.153
302.119
331.463
332.102
332.888
333.6
334.211
334.802
335.181
335.56
335.869
336.104
336.141
336.178
336.015
335.854
335.506
335.077
334.608
333.987
333.351
332.759
327.13
327.782
328.342
328.936
329.562
329.992
330.402
330.686
330.96
331.182
331.192
331.174
331.132
330.928
330.646
330.236
329.867
329.335
328.716
328.275
322.944
323.382
323.891
324.396
324.892
325.274
325.62
325.845
326.093
326.225
326.296
326.225
326.189
326.012
325.781
325.527
325.146
324.748
324.254
323.833
318.733
319.122
319.491
319.964
320.31
320.691
320.869
321
321.267
321.38
321.402
321.399
321.303
321.26
321.006
320.716
320.503
320.048
319.782
319.407
314.567
314.767
315.13
315.476
315.705
316.057
316.219
316.379
316.567
316.532
316.622
316.65
316.597
316.498
316.296
316.048
315.868
315.664
315.321
315.024
310.312
310.64
310.798
311.029
311.254
311.437
311.564
311.694
311.731
311.772
311.788
311.815
311.813
311.763
311.655
311.488
311.257
311.163
310.925
310.684
306.186
306.274
306.431
306.658
306.785
306.898
306.957
306.989
306.976
307.15
307.11
307.106
307.12
306.981
306.996
306.92
306.802
306.66
306.616
306.498
302.146
302.126
302.122
302.229
302.28
302.325
302.314
302.434
302.372
302.449
302.432
302.372
302.385
302.453
302.346
302.309
302.266
302.201
302.169
302.183
332.521
333.273
334.077
334.862
335.519
336.075
336.56
336.973
337.296
337.399
337.517
337.523
337.477
337.218
336.883
336.437
335.921
335.275
334.568
334.031
328.086
328.666
329.397
330.032
330.677
331.112
331.531
331.902
332.119
332.275
332.341
332.338
332.222
332.115
331.782
331.403
330.953
330.425
329.93
329.336
323.739
324.195
324.86
325.34
325.831
326.241
326.621
326.904
327.043
327.155
327.288
327.248
327.203
327.056
326.821
326.545
326.06
325.629
325.174
324.739
319.433
319.793
320.264
320.731
321.089
321.401
321.666
321.919
322.053
322.211
322.25
322.231
322.18
321.964
321.82
321.547
321.284
320.944
320.55
320.179
315.053
315.334
315.654
315.982
316.321
316.557
316.778
316.945
317.067
317.149
317.234
317.294
317.124
317.075
316.906
316.791
316.496
316.228
315.813
315.557
310.697
310.927
311.219
311.442
311.656
311.831
311.994
312.104
312.185
312.26
312.269
312.326
312.301
312.134
312.081
311.919
311.764
311.53
311.283
311.135
306.466
306.554
306.721
306.894
307.023
307.085
307.173
307.269
307.289
307.29
307.381
307.412
307.329
307.336
307.202
307.18
307.017
306.883
306.803
306.679
302.187
302.195
302.249
302.257
302.329
302.337
302.368
302.381
302.41
302.435
302.425
302.41
302.464
302.462
302.427
302.468
302.345
302.337
302.217
302.273
333.705
334.393
335.294
336.092
336.703
337.398
337.884
338.237
338.605
338.77
338.913
338.963
338.669
338.565
338.267
337.796
337.218
336.617
335.951
335.226
329.142
329.692
330.42
331.115
331.699
332.264
332.643
333.003
333.249
333.416
333.548
333.534
333.453
333.28
332.981
332.6
332.158
331.596
330.941
330.46
324.634
325.051
325.632
326.194
326.661
327.23
327.495
327.778
328.062
328.166
328.294
328.257
328.172
328.018
327.679
327.415
327.055
326.489
326.078
325.663
320.009
320.411
320.932
321.409
321.764
322.165
322.5
322.751
322.897
322.983
323.021
323.002
323.012
322.756
322.581
322.361
322.068
321.652
321.267
320.879
315.523
315.843
316.23
316.54
316.932
317.075
317.417
317.557
317.666
317.811
317.88
317.849
317.852
317.71
317.52
317.372
317.095
316.869
316.464
316.269
311.135
311.24
311.555
311.826
312.066
312.254
312.434
312.593
312.614
312.756
312.764
312.753
312.685
312.61
312.479
312.384
312.179
311.926
311.73
311.526
306.693
306.815
306.942
307.12
307.197
307.38
307.501
307.528
307.605
307.614
307.592
307.645
307.624
307.552
307.454
307.433
307.279
307.146
307.071
306.907
302.25
302.338
302.366
302.443
302.454
302.478
302.488
302.486
302.56
302.563
302.538
302.533
302.5
302.552
302.516
302.494
302.424
302.385
302.381
302.403
334.797
335.551
336.45
337.274
337.943
338.607
339.157
339.556
339.888
340.103
340.246
340.185
340.017
339.851
339.468
339.076
338.539
337.853
337.15
336.42
330.07
330.708
331.449
332.138
332.757
333.309
333.772
334.078
334.412
334.583
334.76
334.695
334.571
334.394
334.12
333.759
333.199
332.65
332.019
331.465
325.335
325.907
326.522
327.08
327.62
328.044
328.442
328.864
328.993
329.138
329.246
329.267
329.177
328.905
328.704
328.4
327.929
327.52
326.953
326.428
320.682
321.093
321.576
322.073
322.518
322.841
323.201
323.442
323.638
323.704
323.861
323.818
323.716
323.566
323.412
323.143
322.817
322.438
321.928
321.66
316.102
316.35
316.786
317.083
317.502
317.763
317.968
318.12
318.347
318.5
318.397
318.443
318.398
318.285
318.128
317.897
317.664
317.408
317.052
316.754
311.439
311.721
311.988
312.256
312.438
312.643
312.831
312.994
313.047
313.157
313.171
313.221
313.138
313.048
313.019
312.834
312.62
312.451
312.157
312.056
306.884
306.985
307.181
307.334
307.482
307.634
307.696
307.78
307.799
307.905
307.871
307.864
307.85
307.878
307.768
307.693
307.579
307.467
307.371
307.172
302.312
302.351
302.376
302.411
302.469
302.558
302.563
302.587
302.66
302.602
302.679
302.647
302.618
302.659
302.647
302.58
302.565
302.563
302.481
302.496
335.851
336.628
337.501
338.417
339.2
339.798
340.387
340.768
341.221
341.363
341.505
341.493
341.415
341.095
340.801
340.349
339.797
339.115
338.333
337.605
330.887
331.635
332.361
333.144
333.714
334.347
334.801
335.203
335.593
335.758
335.791
335.792
335.711
335.475
335.246
334.788
334.263
333.703
333.084
332.506
326.06
326.69
327.362
327.98
328.523
328.91
329.37
329.631
329.939
330.046
330.108
330.174
330.079
329.942
329.631
329.272
328.962
328.412
327.853
327.423
321.381
321.752
322.263
322.782
323.209
323.593
323.916
324.231
324.344
324.558
324.544
324.547
324.512
324.352
324.216
323.896
323.538
323.203
322.742
322.275
316.532
316.829
317.311
317.637
318.074
318.285
318.61
318.796
318.942
318.997
319.008
319.111
319.028
318.877
318.704
318.538
318.239
317.99
317.658
317.321
311.739
311.949
312.32
312.571
312.861
313.083
313.242
313.399
313.529
313.536
313.615
313.628
313.572
313.483
313.352
313.185
313.048
312.85
312.518
312.388
307.096
307.244
307.345
307.573
307.733
307.847
307.94
308.042
308.084
308.128
308.153
308.128
308.215
308.08
308.017
307.87
307.803
307.675
307.486
307.432
302.372
302.435
302.362
302.523
302.626
302.593
302.723
302.713
302.762
302.755
302.776
302.753
302.647
302.715
302.738
302.606
302.655
302.532
302.468
302.542
336.864
337.748
338.567
339.504
340.298
341.051
341.538
342.021
342.371
342.599
342.708
342.845
342.648
342.381
342.025
341.544
341.021
340.266
339.464
338.813
331.795
332.559
333.288
333.993
334.722
335.325
335.866
336.255
336.598
336.799
336.882
336.925
336.782
336.509
336.277
335.881
335.359
334.716
334.038
333.412
326.892
327.435
328.191
328.71
329.344
329.774
330.229
330.561
330.79
331.037
330.997
331.045
330.968
330.792
330.557
330.109
329.746
329.301
328.703
328.141
321.904
322.332
322.872
323.41
323.866
324.281
324.678
324.925
325.138
325.261
325.311
325.333
325.308
325.105
324.928
324.694
324.339
323.809
323.468
322.915
316.972
317.411
317.833
318.213
318.557
318.862
319.11
319.375
319.489
319.585
319.696
319.676
319.584
319.482
319.322
319.086
318.777
318.461
318.083
317.777
312.107
312.347
312.682
312.907
313.265
313.397
313.6
313.762
313.892
314.013
313.943
314.042
314.038
313.871
313.72
313.636
313.409
313.27
312.877
312.672
307.317
307.468
307.649
307.782
307.937
308.002
308.078
308.263
308.305
308.38
308.423
308.393
308.413
308.338
308.33
308.11
308.046
307.816
307.75
307.628
302.478
302.532
302.53
302.547
302.654
302.72
302.694
302.742
302.818
302.822
302.794
302.846
302.784
302.786
302.772
302.758
302.728
302.686
302.619
302.541
337.771
338.686
339.633
340.565
341.331
342.046
342.707
343.18
343.539
343.789
343.9
343.927
343.771
343.564
343.221
342.701
342.068
341.412
340.553
339.839
332.688
333.306
334.227
335.004
335.713
336.332
336.891
337.27
337.627
337.831
337.852
337.894
337.886
337.465
337.333
336.833
336.286
335.671
335.044
334.351
327.52
328.211
328.803
329.477
330.023
330.686
331.069
331.458
331.708
331.795
331.935
331.925
331.823
331.689
331.397
331.02
330.731
329.982
329.451
328.943
322.49
322.957
323.467
323.983
324.571
324.983
325.282
325.584
325.887
325.917
326.047
326.021
325.994
325.772
325.595
325.271
324.972
324.504
324.055
323.723
317.527
317.864
318.27
318.651
319.091
319.421
319.588
319.929
320.017
320.122
320.22
320.171
320.077
320.027
319.915
319.663
319.285
318.977
318.658
318.395
312.478
312.734
313.022
313.346
313.583
313.824
314.048
314.161
314.305
314.427
314.43
314.41
314.349
314.259
314.193
314.029
313.801
313.566
313.312
313.063
307.511
307.598
307.84
307.989
308.169
308.314
308.368
308.457
308.584
308.679
308.608
308.658
308.665
308.563
308.437
308.368
308.278
308.124
307.93
307.806
302.574
302.514
302.628
302.628
302.701
302.788
302.776
302.837
302.897
302.917
302.908
302.897
302.881
302.917
302.782
302.791
302.761
302.739
302.72
302.597
338.723
339.612
340.651
341.605
342.306
343.116
343.739
344.291
344.614
344.936
345.023
345.032
344.962
344.613
344.322
343.806
343.231
342.425
341.617
340.841
333.368
334.148
335.087
335.842
336.541
337.252
337.711
338.207
338.534
338.767
338.863
338.855
338.722
338.477
338.224
337.784
337.32
336.621
335.879
335.184
328.192
328.851
329.558
330.246
330.834
331.363
331.808
332.212
332.438
332.597
332.679
332.696
332.651
332.457
332.183
331.816
331.436
330.851
330.21
329.709
323.019
323.588
324.116
324.628
325.195
325.61
325.975
326.205
326.502
326.653
326.643
326.694
326.612
326.51
326.243
325.978
325.573
325.165
324.701
324.258
317.92
318.227
318.653
319.091
319.528
319.923
320.181
320.359
320.522
320.641
320.721
320.65
320.648
320.597
320.387
320.188
319.847
319.534
319.162
318.812
312.752
313.001
313.349
313.761
313.869
314.12
314.362
314.542
314.642
314.785
314.809
314.84
314.755
314.655
314.526
314.319
314.146
313.898
313.583
313.393
307.675
307.852
308.014
308.209
308.329
308.449
308.586
308.708
308.854
308.808
308.875
308.891
308.832
308.746
308.759
308.593
308.506
308.293
308.196
308.008
302.606
302.585
302.703
302.772
302.8
302.818
302.927
302.96
302.92
302.924
302.978
303.005
302.931
302.944
302.988
302.867
302.902
302.799
302.744
302.665
339.506
340.513
341.526
342.45
343.362
344.101
344.733
345.279
345.654
345.927
346.086
346.109
345.962
345.746
345.327
344.884
344.11
343.468
342.537
341.84
334.176
334.925
335.829
336.663
337.406
338.03
338.614
339.092
339.433
339.645
339.716
339.771
339.655
339.463
339.137
338.664
338.145
337.471
336.777
336.139
328.799
329.445
330.272
330.982
331.493
332.046
332.499
332.927
333.265
333.399
333.487
333.529
333.402
333.202
332.973
332.63
332.094
331.595
330.938
330.427
323.543
324.104
324.615
325.223
325.758
326.177
326.509
326.837
327.116
327.252
327.356
327.298
327.212
327.175
326.876
326.6
326.213
325.744
325.246
324.807
318.277
318.704
319.132
319.559
319.955
320.308
320.537
320.827
321.021
321.131
321.158
321.168
321.085
321.021
320.777
320.629
320.318
319.943
319.531
319.236
313.038
313.293
313.64
313.963
314.194
314.48
314.753
314.822
314.957
315.056
315.108
315.161
315.028
314.883
314.891
314.711
314.492
314.239
313.86
313.718
307.876
307.991
308.208
308.323
308.538
308.656
308.808
308.94
308.996
309.108
309.048
309.124
309.05
308.919
308.929
308.825
308.736
308.548
308.332
308.216
302.644
302.728
302.649
302.775
302.873
302.9
302.996
302.914
303.017
303.032
303.087
303.117
302.999
303.029
302.965
302.946
302.9
302.902
302.798
302.746
340.374
341.293
342.279
343.324
344.224
344.979
345.716
346.246
346.666
346.927
346.943
347.058
346.858
346.658
346.273
345.806
345.113
344.35
343.458
342.635
334.871
335.689
336.554
337.414
338.175
338.793
339.401
339.82
340.165
340.476
340.6
340.595
340.481
340.304
339.939
339.486
338.943
338.248
337.505
336.839
329.406
330.005
330.808
331.465
332.151
332.727
333.277
333.586
333.929
334.082
334.218
334.206
334.106
333.897
333.668
333.278
332.812
332.265
331.623
331
323.96
324.53
325.142
325.668
326.216
326.791
327.092
327.414
327.66
327.802
327.891
327.887
327.751
327.688
327.47
327.141
326.748
326.324
325.823
325.34
318.679
319.105
319.524
319.899
320.34
320.734
321.063
321.326
321.412
321.556
321.673
321.617
321.552
321.499
321.313
321.044
320.796
320.359
319.979
319.676
313.255
313.515
313.938
314.175
314.519
314.798
314.94
315.179
315.28
315.348
315.408
315.451
315.359
315.274
315.194
315.024
314.763
314.449
314.25
314.007
307.992
308.183
308.343
308.546
308.675
308.828
308.985
309.039
309.194
309.2
309.232
309.229
309.201
309.166
309.136
308.987
308.89
308.716
308.561
308.421
302.713
302.728
302.776
302.842
302.93
302.985
302.993
303.098
303.027
303.08
303.068
303.077
303.083
303.058
302.998
303.004
302.958
303
302.905
302.801
341.048
342.013
343.044
344.139
345.046
345.829
346.542
346.995
347.47
347.769
347.872
347.989
347.838
347.544
347.103
346.626
345.953
345.21
344.293
343.466
335.464
336.244
337.158
338.066
338.804
339.553
340.142
340.547
341.032
341.189
341.421
341.386
341.264
341.01
340.717
340.211
339.727
338.986
338.218
337.533
329.964
330.63
331.382
332.09
332.829
333.386
333.821
334.266
334.567
334.758
334.879
334.832
334.777
334.591
334.28
333.911
333.453
332.851
332.166
331.643
324.483
324.955
325.597
326.256
326.629
327.181
327.59
327.911
328.168
328.263
328.4
328.418
328.405
328.094
327.982
327.686
327.251
326.737
326.23
325.816
318.948
319.368
319.926
320.298
320.717
321.114
321.412
321.586
321.918
321.957
322.101
322.042
322
321.887
321.691
321.414
321.102
320.772
320.358
319.974
313.533
313.757
314.192
314.477
314.812
315.007
315.297
315.383
315.558
315.72
315.699
315.758
315.702
315.569
315.494
315.232
315.058
314.808
314.518
314.244
308.132
308.3
308.447
308.702
308.863
309.016
309.225
309.261
309.347
309.377
309.423
309.437
309.389
309.325
309.317
309.195
309.083
308.909
308.725
308.624
302.674
302.701
302.819
302.935
302.97
303.064
303.071
303.045
303.158
303.115
303.181
303.152
303.128
303.131
303.085
303.074
303
303.044
302.95
302.927
341.691
342.649
343.77
344.803
345.727
346.598
347.26
347.849
348.234
348.541
348.79
348.7
348.635
348.347
347.961
347.476
346.749
345.906
345.088
344.241
336.029
336.867
337.757
338.677
339.519
340.207
340.839
341.28
341.634
341.951
342.043
342.129
341.924
341.769
341.423
340.981
340.266
339.67
338.888
338.161
330.393
331.117
331.789
332.646
333.28
333.919
334.472
334.796
335.118
335.306
335.446
335.468
335.369
335.152
334.852
334.489
333.998
333.383
332.762
332.165
324.79
325.315
325.943
326.606
327.255
327.706
328.034
328.358
328.648
328.934
328.878
328.91
328.804
328.695
328.386
328.099
327.729
327.266
326.725
326.226
319.275
319.682
320.197
320.68
321.107
321.461
321.776
322.018
322.219
322.435
322.435
322.455
322.352
322.28
322.134
321.794
321.526
321.128
320.704
320.346
313.773
314.037
314.449
314.673
314.996
315.274
315.471
315.755
315.786
315.92
316.059
316.012
315.932
315.868
315.747
315.524
315.285
315.036
314.796
314.567
308.21
308.365
308.648
308.886
308.946
309.186
309.309
309.427
309.54
309.48
309.583
309.568
309.564
309.523
309.431
309.267
309.173
309.025
308.814
308.704
302.775
302.814
302.899
302.953
302.997
303.119
303.099
303.127
303.165
303.178
303.221
303.237
303.21
303.205
303.102
303.125
303.061
303.035
302.89
302.93
342.228
343.265
344.386
345.431
346.418
347.289
347.895
348.427
348.977
349.243
349.396
349.389
349.323
349.1
348.693
348.175
347.459
346.62
345.737
344.854
336.524
337.386
338.35
339.218
340.089
340.763
341.419
341.872
342.252
342.519
342.62
342.66
342.672
342.403
341.993
341.516
340.905
340.267
339.437
338.734
330.789
331.541
332.33
333.082
333.728
334.348
334.9
335.291
335.552
335.825
336.025
335.963
335.911
335.684
335.37
335.061
334.485
333.888
333.269
332.697
325.169
325.721
326.328
326.996
327.533
328.102
328.489
328.87
329.072
329.249
329.357
329.376
329.286
329.112
328.931
328.492
328.139
327.648
327.154
326.618
319.502
319.968
320.497
320.881
321.347
321.847
322.152
322.343
322.562
322.707
322.667
322.715
322.686
322.583
322.428
322.097
321.824
321.431
321.029
320.7
313.872
314.218
314.557
314.946
315.184
315.52
315.74
315.902
316.078
316.173
316.229
316.195
316.226
316.079
315.919
315.795
315.61
315.266
314.961
314.81
308.385
308.469
308.742
308.955
309.19
309.294
309.467
309.558
309.558
309.686
309.745
309.746
309.655
309.638
309.602
309.475
309.431
309.119
308.994
308.85
302.784
302.818
302.889
303.021
303.024
303.118
303.228
303.228
303.233
303.192
303.288
303.247
303.25
303.202
303.271
303.182
303.123
303.046
303.011
302.989
342.75
343.71
344.915
345.958
347.005
347.744
348.524
349.139
349.527
349.91
350.031
350.071
349.998
349.779
349.327
348.747
348.066
347.164
346.223
345.41
336.963
337.793
338.792
339.698
340.496
341.247
341.836
342.393
342.79
343.069
343.157
343.172
343.101
342.962
342.521
341.999
341.49
340.749
339.921
339.201
331.163
331.888
332.694
333.443
334.192
334.753
335.407
335.732
336.075
336.332
336.377
336.468
336.314
336.142
335.84
335.484
334.945
334.407
333.685
333.081
325.474
326.042
326.718
327.328
327.912
328.397
328.831
329.105
329.374
329.561
329.658
329.725
329.582
329.515
329.231
328.879
328.395
328.025
327.437
327.014
319.757
320.245
320.611
321.179
321.634
322.025
322.281
322.614
322.827
322.927
323.02
323.129
322.975
322.821
322.68
322.422
322.026
321.729
321.252
320.94
314.047
314.378
314.803
315.103
315.442
315.706
316.005
316.13
316.264
316.413
316.421
316.431
316.42
316.308
316.178
315.967
315.719
315.462
315.215
314.932
308.406
308.645
308.803
309.066
309.201
309.466
309.548
309.679
309.785
309.818
309.855
309.922
309.919
309.726
309.719
309.563
309.414
309.282
309.14
308.996
302.822
302.929
302.867
302.988
303.128
303.165
303.255
303.248
303.274
303.373
303.354
303.296
303.301
303.248
303.177
303.215
303.147
303.077
303.035
302.998
343.179
344.14
345.314
346.426
347.477
348.251
349.054
349.589
350.057
350.368
350.611
350.62
350.435
350.212
349.774
349.242
348.561
347.746
346.738
345.937
337.289
338.144
339.159
340.064
340.905
341.583
342.302
342.739
343.183
343.489
343.616
343.732
343.589
343.341
343.042
342.52
341.917
341.154
340.335
339.614
331.461
332.146
333.043
333.829
334.509
335.145
335.678
336.103
336.411
336.636
336.761
336.833
336.726
336.516
336.208
335.85
335.267
334.697
334.046
333.377
325.766
326.194
326.932
327.587
328.131
328.71
329.098
329.406
329.685
329.925
330.01
330.002
329.925
329.747
329.599
329.177
328.793
328.337
327.747
327.271
319.925
320.419
320.884
321.38
321.824
322.272
322.543
322.822
322.986
323.294
323.227
323.266
323.23
323.055
322.906
322.631
322.42
321.871
321.506
321.134
314.26
314.556
314.884
315.267
315.505
315.811
316.084
316.356
316.411
316.48
316.667
316.605
316.584
316.451
316.353
316.153
315.971
315.617
315.353
315.087
308.546
308.703
308.942
309.169
309.309
309.493
309.59
309.833
309.832
309.897
310
309.963
309.919
309.885
309.807
309.655
309.552
309.391
309.286
309.027
302.818
302.909
302.999
303.142
303.08
303.137
303.173
303.246
303.311
303.206
303.396
303.286
303.308
303.331
303.239
303.236
303.172
303.182
303.107
303.001
343.453
344.521
345.608
346.765
347.772
348.582
349.332
349.947
350.461
350.731
351.023
351.034
350.89
350.664
350.199
349.572
348.971
348.049
347.117
346.305
337.462
338.453
339.343
340.301
341.183
341.891
342.606
343.099
343.537
343.839
343.96
343.898
343.847
343.652
343.263
342.835
342.223
341.485
340.652
339.94
331.67
332.431
333.206
333.998
334.729
335.413
335.93
336.434
336.704
336.908
337.055
337.075
336.976
336.876
336.471
336.114
335.58
334.969
334.254
333.69
325.779
326.466
327.107
327.816
328.381
328.871
329.294
329.667
329.924
330.12
330.26
330.244
330.118
330.077
329.78
329.442
329.016
328.514
327.953
327.494
320.105
320.541
321.128
321.541
321.967
322.402
322.688
323.001
323.237
323.419
323.442
323.463
323.407
323.306
323.108
322.915
322.496
322.179
321.65
321.289
314.29
314.663
315.079
315.436
315.701
315.93
316.235
316.387
316.581
316.725
316.689
316.712
316.798
316.551
316.515
316.216
316.058
315.781
315.508
315.179
308.559
308.867
308.993
309.243
309.412
309.589
309.746
309.829
310.001
309.99
310.078
310.016
310.007
309.935
309.898
309.744
309.674
309.448
309.293
309.108
302.89
302.971
303.013
303.023
303.146
303.166
303.268
303.283
303.336
303.366
303.334
303.326
303.348
303.383
303.28
303.262
303.218
303.133
303.092
303.046
343.582
344.677
345.831
346.959
347.938
348.855
349.521
350.259
350.666
351.103
351.211
351.2
351.128
350.808
350.498
349.897
349.193
348.321
347.381
346.477
337.624
338.613
339.563
340.54
341.402
342.16
342.795
343.378
343.759
344.021
344.236
344.215
344.091
343.941
343.573
343.067
342.321
341.741
340.869
340.096
331.815
332.516
333.327
334.082
334.874
335.556
336.15
336.598
336.825
337.103
337.238
337.218
337.164
336.981
336.69
336.219
335.768
335.179
334.423
333.801
325.914
326.516
327.254
327.9
328.523
328.995
329.42
329.73
330.089
330.315
330.393
330.411
330.294
330.134
329.957
329.557
329.088
328.634
328.065
327.584
320.105
320.594
321.129
321.558
322.149
322.511
322.809
323.102
323.348
323.457
323.587
323.611
323.485
323.43
323.201
322.904
322.589
322.291
321.784
321.379
314.342
314.69
315.139
315.378
315.81
316.066
316.318
316.485
316.673
316.739
316.798
316.812
316.761
316.67
316.559
316.305
316.141
315.81
315.601
315.243
308.67
308.829
309.085
309.171
309.45
309.618
309.737
309.836
309.988
310.063
310.064
310.051
310.067
309.99
309.89
309.808
309.604
309.521
309.31
309.091
302.858
302.97
303.042
303.123
303.224
303.249
303.305
303.364
303.352
303.422
303.388
303.37
303.413
303.366
303.369
303.285
303.21
303.154
303.15
303.131
)
;

boundaryField
{
    hotSide
    {
        type            fixedGradient;
        gradient        nonuniform List<scalar> 
400
(
321.511
322.87
325.591
329.677
335.133
341.965
350.181
359.788
370.794
383.208
397.037
412.289
428.971
447.088
466.647
487.651
510.105
534.011
559.372
586.191
323.738
325.08
327.767
331.802
337.194
343.949
352.078
361.591
372.498
384.81
398.537
413.687
430.268
448.289
467.755
488.672
511.043
534.872
560.161
586.913
326.149
327.47
330.116
334.091
339.406
346.071
354.099
363.503
374.296
386.491
400.101
415.136
431.606
449.52
468.885
489.706
511.988
535.735
560.948
587.63
328.704
330
332.597
336.503
341.73
348.292
356.205
365.485
376.15
388.215
401.695
416.604
432.954
450.753
470.009
490.73
512.919
536.579
561.714
588.325
331.33
332.599
335.142
338.97
344.099
350.546
358.332
367.477
378.003
389.928
403.271
418.047
434.27
451.949
471.095
491.712
513.807
537.382
562.439
588.978
333.918
335.158
337.643
341.389
346.414
352.74
360.392
369.397
379.779
391.562
404.765
419.407
435.503
453.065
472.101
492.618
514.622
538.114
563.096
589.569
336.321
337.531
339.959
343.622
348.544
354.751
362.274
371.142
381.385
393.031
406.101
420.618
436.595
454.047
472.983
493.409
515.33
538.747
563.663
590.076
338.36
339.543
341.92
345.509
350.339
356.44
363.847
372.595
382.718
394.244
407.2
421.608
437.485
454.844
473.695
494.045
515.897
539.253
564.114
590.478
339.852
341.015
343.352
346.885
351.645
357.665
364.985
373.643
383.675
395.113
407.984
422.312
438.116
455.407
474.197
494.491
516.294
539.606
564.428
590.758
340.643
341.795
344.11
347.613
352.334
358.311
365.584
374.193
384.176
395.567
408.393
422.679
438.443
455.699
474.456
494.722
516.498
539.788
564.589
590.901
340.643
341.795
344.11
347.613
352.334
358.311
365.584
374.193
384.176
395.567
408.393
422.679
438.443
455.699
474.456
494.722
516.498
539.788
564.589
590.901
339.852
341.015
343.352
346.885
351.645
357.665
364.985
373.643
383.675
395.113
407.984
422.312
438.116
455.407
474.197
494.491
516.294
539.606
564.428
590.758
338.36
339.543
341.92
345.509
350.339
356.44
363.847
372.595
382.718
394.244
407.2
421.608
437.485
454.844
473.695
494.045
515.897
539.253
564.114
590.478
336.321
337.531
339.959
343.622
348.544
354.751
362.274
371.142
381.385
393.031
406.101
420.618
436.595
454.047
472.983
493.409
515.33
538.747
563.663
590.076
333.918
335.158
337.643
341.389
346.414
352.74
360.392
369.397
379.779
391.562
404.765
419.407
435.503
453.065
472.101
492.618
514.622
538.114
563.096
589.569
331.33
332.599
335.142
338.97
344.099
350.546
358.332
367.477
378.003
389.928
403.271
418.047
434.27
451.949
471.095
491.712
513.807
537.382
562.439
588.978
328.704
330
332.597
336.503
341.73
348.292
356.205
365.485
376.15
388.215
401.695
416.604
432.954
450.753
470.009
490.73
512.919
536.579
561.714
588.325
326.149
327.47
330.116
334.091
339.406
346.071
354.099
363.503
374.296
386.491
400.101
415.136
431.606
449.52
468.885
489.706
511.988
535.735
560.948
587.63
323.738
325.08
327.767
331.802
337.194
343.949
352.078
361.591
372.498
384.81
398.537
413.687
430.268
448.289
467.755
488.672
511.043
534.872
560.161
586.913
321.511
322.87
325.591
329.677
335.133
341.965
350.181
359.788
370.794
383.208
397.037
412.289
428.971
447.088
466.647
487.651
510.105
534.011
559.372
586.191
)
;
    }
    coldSide
    {
        type            mixed;
        refValue        uniform 300;
        refGradient     uniform 0;
        valueFraction   uniform 0.991591;
        source          uniform 0;
        value           nonuniform List<scalar> 
400
(
300.016
300.016
300.017
300.018
300.018
300.019
300.019
300.02
300.021
300.022
300.022
300.022
300.023
300.022
300.023
300.023
300.024
300.024
300.024
300.024
300.017
300.016
300.017
300.018
300.018
300.02
300.02
300.02
300.021
300.021
300.022
300.023
300.023
300.023
300.024
300.024
300.025
300.024
300.025