/*--------------------------------*- C++ -*----------------------------------*\
| =========                 |                                                 |
| \\      /  F ield         | OpenFOAM: The Open Source CFD Toolbox           |
|  \\    /   O peration     | Version:  2212                                  |
|   \\  /    A nd           | Website:  www.openfoam.com                      |
|    \\/     M anipulation  |                                                 |
\*---------------------------------------------------------------------------*/
FoamFile
{
    version     2.0;
    format      ascii;
    arch        "LSB;label=32;scalar=64";
    class       volScalarField;
    location    "0";
    object      T;
}
// * * * * * * * * * * * * * * * * * * * * * * * * * * * * * * * * * * * * * //

dimensions      [0 0 0 1 0 0 0];

internalField   nonuniform List<scalar> 
3200
(
333.411
334.107
334.391
334.995
335.792
336.033
336.079
336.307
336.472
336.524
336.275
336.274
335.965
335.386
335.214
334.471
333.767
333.4
332.563
331.846
329.155
329.787
330.02
330.559
331.293
331.472
331.559
331.755
331.902
331.893
331.678
331.68
331.367
330.916
330.768
330.098
329.496
329.186
328.497
327.852
324.841
325.372
325.556
326.009
326.674
326.802
326.897
327.067
327.252
327.209
326.994
326.987
326.695
326.374
326.193
325.603
325.113
324.868
324.273
323.707
320.442
320.876
321.038
321.411
321.959
322.07
322.176
322.285
322.46
322.397
322.216
322.201
321.936
321.799
321.535
321.059
320.621
320.455
319.995
319.515
315.986
316.322
316.436
316.729
317.17
317.242
317.329
317.413
317.575
317.521
317.41
317.323
317.119
317.098
316.84
316.499
316.096
315.987
315.629
315.273
311.454
311.688
311.765
311.985
312.296
312.337
312.389
312.473
312.635
312.57
312.522
312.391
312.247
312.324
312.079
311.86
311.567
311.446
311.197
310.948
306.891
307.015
307.102
307.213
307.391
307.445
307.456
307.494
307.622
307.56
307.557
307.474
307.421
307.452
307.266
307.199
306.939
306.916
306.723
306.623
302.323
302.336
302.374
302.414
302.477
302.492
302.506
302.504
302.543
302.543
302.536
302.503
302.496
302.492
302.435
302.423
302.327
302.335
302.267
302.22
334.486
335.048
335.602
336.262
336.869
336.997
337.324
337.582
337.6
337.522
337.391
337.348
336.945
336.556
336.23
335.649
334.84
334.269
333.529
332.772
330.121
330.532
331.012
331.612
332.163
332.282
332.552
332.796
332.776
332.713
332.582
332.596
332.233
331.912
331.624
331.093
330.392
329.933
329.196
328.595
325.678
325.931
326.407
326.857
327.38
327.448
327.677
327.91
327.857
327.834
327.705
327.71
327.44
327.211
326.96
326.467
325.871
325.494
324.825
324.335
321.153
321.296
321.73
322.05
322.491
322.527
322.731
322.941
322.873
322.909
322.768
322.768
322.575
322.407
322.148
321.791
321.243
320.985
320.438
320.023
316.589
316.612
316.976
317.216
317.559
317.616
317.74
317.859
317.825
317.938
317.83
317.761
317.639
317.508
317.312
317.029
316.555
316.387
315.977
315.641
311.917
311.934
312.127
312.312
312.611
312.638
312.695
312.748
312.763
312.915
312.799
312.714
312.624
312.562
312.382
312.243
311.831
311.732
311.451
311.164
307.191
307.186
307.293
307.404
307.591
307.578
307.637
307.648
307.672
307.785
307.7
307.667
307.589
307.596
307.442
307.383
307.119
307.102
306.89
306.688
302.415
302.394
302.451
302.477
302.539
302.539
302.546
302.569
302.562
302.616
302.558
302.573
302.541
302.545
302.509
302.476
302.396
302.393
302.296
302.245
335.637
336.26
336.929
337.548
338.162
338.252
338.826
338.936
339.15
338.939
338.998
338.499
338.492
338.154
337.524
337.043
336.362
335.549
334.642
334.072
331.074
331.591
332.167
332.706
333.231
333.302
333.846
333.935
334.08
333.917
333.985
333.515
333.565
333.254
332.717
332.272
331.678
330.991
330.208
329.721
326.417
326.86
327.358
327.789
328.214
328.274
328.727
328.827
328.928
328.806
328.876
328.454
328.581
328.26
327.816
327.42
326.928
326.378
325.679
325.311
321.659
322.08
322.477
322.856
323.125
323.191
323.554
323.676
323.742
323.65
323.706
323.308
323.5
323.211
322.865
322.505
322.077
321.737
321.092
320.831
316.88
317.212
317.538
317.806
318.001
318.12
318.339
318.449
318.543
318.45
318.535
318.17
318.323
318.103
317.87
317.563
317.252
317.017
316.445
316.3
312.043
312.349
312.552
312.714
312.868
313.004
313.111
313.202
313.275
313.214
313.267
313.023
313.095
312.931
312.807
312.605
312.346
312.208
311.76
311.696
307.239
307.463
307.55
307.656
307.713
307.773
307.865
307.965
307.992
307.94
307.997
307.863
307.86
307.749
307.747
307.598
307.428
307.364
307.072
307.017
302.431
302.511
302.532
302.56
302.577
302.609
302.637
302.678
302.68
302.663
302.672
302.637
302.628
302.589
302.612
302.578
302.484
302.46
302.361
302.351
336.741
337.392
338.305
338.925
339.57
339.899
340.142
340.602
340.72
340.592
340.558
340.276
340.009
339.542
338.939
338.481
337.804
337.061
336.183
335.6
331.974
332.595
333.381
333.907
334.482
334.684
334.934
335.362
335.477
335.312
335.284
335.078
334.893
334.425
333.907
333.521
332.915
332.241
331.518
331.01
327.179
327.748
328.363
328.844
329.307
329.436
329.667
330.056
330.177
329.991
330.006
329.78
329.655
329.292
328.812
328.479
327.945
327.375
326.775
326.37
322.319
322.829
323.27
323.723
324.077
324.144
324.356
324.705
324.802
324.624
324.639
324.437
324.361
324.083
323.654
323.387
322.927
322.496
321.995
321.649
317.363
317.83
318.146
318.572
318.75
318.833
318.998
319.258
319.353
319.247
319.23
319.031
318.991
318.767
318.441
318.262
317.898
317.556
317.15
316.876
312.432
312.756
312.978
313.345
313.399
313.479
313.577
313.773
313.854
313.778
313.751
313.608
313.633
313.429
313.233
313.096
312.828
312.579
312.279
312.083
307.465
307.691
307.803
308.019
308.055
308.113
308.165
308.282
308.313
308.296
308.259
308.211
308.227
308.078
307.99
307.885
307.708
307.568
307.384
307.273
302.509
302.573
302.607
302.704
302.703
302.718
302.748
302.773
302.787
302.799
302.762
302.767
302.779
302.712
302.685
302.645
302.601
302.547
302.463
302.458
338.148
338.905
339.768
340.539
341.106
341.501
341.718
342
342.086
342.122
342.171
342.058
341.644
341.133
340.669
339.766
339.326
338.427
337.735
336.957
333.224
333.885
334.591
335.272
335.76
336.128
336.363
336.569
336.68
336.678
336.725
336.632
336.248
335.826
335.447
334.643
334.203
333.478
332.866
332.194
328.197
328.819
329.372
329.997
330.329
330.671
330.899
331.017
331.153
331.13
331.167
331.129
330.802
330.465
330.116
329.471
329.037
328.477
327.905
327.389
323.122
323.67
324.091
324.632
324.916
325.185
325.375
325.47
325.578
325.566
325.555
325.582
325.261
325.063
324.751
324.22
323.784
323.394
322.902
322.483
318.026
318.486
318.793
319.222
319.439
319.646
319.795
319.848
319.938
319.956
319.895
319.931
319.706
319.562
319.322
318.915
318.513
318.282
317.829
317.565
312.894
313.258
313.441
313.793
313.891
314.029
314.19
314.187
314.235
314.339
314.261
314.264
314.091
314.013
313.846
313.57
313.292
313.092
312.762
312.581
307.752
307.951
308.036
308.303
308.365
308.42
308.521
308.517
308.541
308.653
308.575
308.609
308.464
308.431
308.328
308.136
308.023
307.868
307.71
307.582
302.613
302.673
302.678
302.791
302.802
302.812
302.859
302.871
302.863
302.889
302.909
302.895
302.852
302.817
302.806
302.713
302.69
302.634
302.595
302.551
339.57
340.296
341.107
341.744
342.463
342.867
343.432
343.55
343.843
343.77
343.656
343.51
343.025
342.969
342.195
341.33
340.772
339.881
339.18
338.538
334.43
335.096
335.744
336.318
336.967
337.303
337.788
337.903
338.184
338.139
337.992
337.878
337.473
337.411
336.72
335.975
335.501
334.734
334.093
333.54
329.257
329.834
330.343
330.858
331.403
331.651
332.08
332.22
332.423
332.406
332.242
332.16
331.851
331.788
331.217
330.507
330.152
329.509
328.945
328.501
324.022
324.473
324.92
325.36
325.741
326.016
326.302
326.451
326.597
326.621
326.455
326.395
326.154
326.097
325.692
325.043
324.768
324.219
323.745
323.437
318.72
319.074
319.422
319.807
320.069
320.299
320.502
320.585
320.74
320.789
320.606
320.583
320.406
320.351
320.078
319.534
319.311
318.903
318.507
318.337
313.395
313.638
313.893
314.184
314.341
314.546
314.689
314.724
314.794
314.888
314.773
314.691
314.633
314.6
314.422
313.965
313.855
313.526
313.251
313.138
308.053
308.205
308.368
308.526
308.629
308.749
308.81
308.831
308.853
308.979
308.898
308.822
308.792
308.791
308.692
308.4
308.318
308.132
307.968
307.907
302.698
302.749
302.81
302.847
302.888
302.938
302.935
302.924
302.962
303.021
302.994
302.956
302.946
302.954
302.907
302.818
302.784
302.717
302.69
302.672
340.89
341.7
342.547
343.361
344.025
344.366
345.024
345.081
345.578
345.329
345.207
345.04
344.654
344.459
343.616
342.983
342.452
341.536
340.551
339.619
335.598
336.303
337.039
337.681
338.325
338.633
339.211
339.246
339.683
339.459
339.331
339.203
338.866
338.757
337.982
337.434
336.958
336.131
335.338
334.561
330.253
330.829
331.448
331.964
332.555
332.824
333.345
333.333
333.717
333.537
333.427
333.238
333.01
332.982
332.286
331.813
331.339
330.687
330.019
329.393
324.871
325.307
325.796
326.198
326.717
326.948
327.393
327.335
327.703
327.541
327.478
327.239
327.077
327.079
326.533
326.125
325.669
325.184
324.66
324.184
319.4
319.737
320.085
320.421
320.793
321.032
321.368
321.316
321.612
321.486
321.489
321.191
321.107
321.126
320.675
320.421
319.983
319.587
319.223
318.867
313.891
314.148
314.385
314.59
314.853
315.054
315.294
315.26
315.501
315.394
315.419
315.126
315.112
315.142
314.777
314.631
314.266
313.988
313.782
313.535
308.365
308.466
308.645
308.739
308.921
309.025
309.189
309.189
309.35
309.275
309.3
309.089
309.132
309.061
308.852
308.797
308.556
308.374
308.284
308.118
302.811
302.818
302.895
302.943
302.982
303.057
303.083
303.074
303.134
303.132
303.142
303.051
303.055
303.03
302.959
302.975
302.87
302.804
302.772
302.718
342.234
343.079
343.989
344.852
345.481
345.839
346.27
346.703
346.884
346.727
346.792
346.459
346.173
345.699
345.094
344.509
343.853
342.912
342.071
341.138
336.758
337.499
338.264
339.011
339.596
339.895
340.259
340.606
340.819
340.665
340.701
340.421
340.239
339.801
339.276
338.773
338.2
337.361
336.684
335.802
331.222
331.891
332.423
333.067
333.601
333.897
334.22
334.442
334.667
334.537
334.539
334.331
334.163
333.79
333.365
332.937
332.438
331.741
331.174
330.384
325.63
326.196
326.559
327.1
327.566
327.831
328.12
328.26
328.463
328.375
328.344
328.159
328.014
327.751
327.411
327.081
326.602
326.078
325.606
324.913
320.003
320.439
320.724
321.105
321.483
321.726
321.949
322.034
322.186
322.134
322.103
321.949
321.828
321.616
321.389
321.13
320.724
320.336
319.941
319.4
314.333
314.643
314.825
315.114
315.389
315.536
315.717
315.802
315.882
315.844
315.814
315.71
315.612
315.463
315.298
315.156
314.842
314.56
314.278
313.893
308.638
308.794
308.909
309.083
309.262
309.355
309.441
309.519
309.569
309.509
309.519
309.435
309.381
309.314
309.215
309.133
308.93
308.735
308.611
308.358
302.89
302.959
302.976
303.069
303.091
303.145
303.183
303.19
303.214
303.184
303.204
303.162
303.123
303.105
303.094
303.047
303.007
302.923
302.882
302.824
343.555
344.199
345.361
346.021
346.66
347.231
347.838
348.121
348.432
348.145
348.228
347.932
347.759
347.317
346.585
345.788
345.17
344.285
343.505
342.263
337.947
338.444
339.486
340.072
340.657
341.117
341.609
341.863
342.129
341.879
341.959
341.675
341.586
341.181
340.53
339.882
339.31
338.555
337.869
336.802
332.223
332.596
333.5
334.034
334.579
334.913
335.327
335.537
335.732
335.559
335.636
335.366
335.342
334.93
334.438
333.904
333.364
332.74
332.159
331.253
326.466
326.723
327.47
327.918
328.387
328.657
328.989
329.156
329.261
329.182
329.242
328.989
329.032
328.647
328.286
327.809
327.393
326.846
326.374
325.61
320.63
320.844
321.4
321.772
322.138
322.369
322.628
322.74
322.802
322.715
322.807
322.61
322.619
322.315
322.058
321.706
321.353
320.883
320.563
319.977
314.753
314.936
315.314
315.601
315.839
316.01
316.223
316.253
316.327
316.229
316.316
316.195
316.165
316
315.792
315.54
315.281
314.914
314.715
314.279
308.819
308.962
309.205
309.394
309.554
309.637
309.732
309.731
309.814
309.765
309.829
309.722
309.7
309.617
309.504
309.339
309.202
308.96
308.847
308.595
302.962
302.992
303.078
303.159
303.224
303.23
303.27
303.26
303.291
303.267
303.282
303.254
303.226
303.242
303.19
303.136
303.101
302.995
302.974
302.89
344.764
345.488
346.596
347.364
348.096
348.534
349.102
349.382
349.767
349.687
349.341
349.356
349.312
348.651
347.94
347.208
346.532
345.818
344.892
343.628
338.959
339.541
340.554
341.255
341.898
342.254
342.707
342.978
343.311
343.227
342.919
343.01
342.906
342.342
341.73
341.099
340.494
339.884
339.074
337.971
333.056
333.534
334.435
334.99
335.57
335.877
336.21
336.489
336.759
336.763
336.456
336.535
336.455
335.953
335.421
334.903
334.385
333.866
333.178
332.242
327.116
327.546
328.26
328.71
329.241
329.437
329.681
329.929
330.149
330.189
329.941
329.997
329.899
329.527
329.035
328.59
328.216
327.772
327.248
326.459
321.138
321.524
322.011
322.421
322.839
322.976
323.111
323.343
323.508
323.541
323.37
323.403
323.293
323.033
322.633
322.295
321.991
321.616
321.286
320.61
315.133
315.453
315.752
316.041
316.373
316.48
316.568
316.704
316.815
316.843
316.734
316.768
316.64
316.485
316.179
315.96
315.758
315.449
315.222
314.728
309.118
309.285
309.456
309.652
309.864
309.903
309.96
310.017
310.104
310.116
310.065
310.058
309.988
309.907
309.703
309.564
309.482
309.272
309.175
308.863
303.052
303.094
303.163
303.247
303.317
303.34
303.33
303.353
303.405
303.368
303.371
303.391
303.35
303.332
303.245
303.198
303.181
303.087
303.09
302.98
345.883
346.535
347.618
348.663
349.213
349.695
350.594
350.779
351.098
351.059
350.926
350.617
350.589
349.962
349.569
348.466
347.767
346.883
345.813
344.885
339.921
340.484
341.422
342.347
342.813
343.228
344.026
344.213
344.491
344.422
344.307
344.056
344.03
343.469
343.123
342.147
341.606
340.816
339.868
339.066
333.886
334.36
335.149
335.966
336.339
336.716
337.349
337.524
337.791
337.711
337.633
337.409
337.427
336.862
336.62
335.78
335.364
334.677
333.839
333.172
327.795
328.205
328.83
329.479
329.831
330.105
330.646
330.774
330.995
330.97
330.857
330.721
330.715
330.194
330.074
329.353
329.032
328.48
327.778
327.21
321.635
321.989
322.484
322.949
323.251
323.464
323.883
323.987
324.156
324.196
324.071
323.961
323.958
323.501
323.483
322.913
322.616
322.24
321.67
321.231
315.487
315.734
316.121
316.401
316.659
316.802
317.095
317.187
317.312
317.346
317.215
317.16
317.14
316.818
316.79
316.41
316.168
315.938
315.557
315.175
309.363
309.471
309.696
309.857
310.011
310.104
310.301
310.335
310.422
310.427
310.354
310.317
310.278
310.129
310.086
309.853
309.716
309.558
309.362
309.137
303.139
303.187
303.237
303.313
303.343
303.38
303.444
303.473
303.511
303.489
303.461
303.458
303.457
303.393
303.387
303.303
303.278
303.192
303.135
303.052
346.835
347.591
348.752
349.73
350.383
351.007
351.612
351.983
352.197
352.297
352.096
351.97
351.601
351.064
350.653
349.612
348.91
348.134
347.09
346.031
340.787
341.388
342.4
343.259
343.788
344.371
344.889
345.232
345.418
345.523
345.333
345.232
344.876
344.43
344.081
343.148
342.566
341.921
340.957
340.084
334.678
335.145
335.978
336.713
337.21
337.685
338.093
338.43
338.53
338.698
338.534
338.416
338.116
337.717
337.427
336.643
336.162
335.63
334.761
334.068
328.52
328.814
329.54
330.108
330.529
330.931
331.209
331.525
331.592
331.747
331.622
331.52
331.276
330.976
330.723
330.049
329.674
329.214
328.526
327.991
322.273
322.401
323.038
323.425
323.8
324.121
324.316
324.539
324.667
324.762
324.648
324.582
324.399
324.145
323.962
323.407
323.131
322.714
322.273
321.829
315.946
316.004
316.475
316.752
317.029
317.314
317.396
317.576
317.614
317.722
317.626
317.583
317.458
317.282
317.149
316.781
316.569
316.231
315.98
315.643
309.573
309.63
309.886
310.062
310.202
310.417
310.47
310.565
310.592
310.65
310.547
310.552
310.46
310.376
310.327
310.105
309.943
309.762
309.631
309.403
303.218
303.229
303.314
303.388
303.409
303.509
303.502
303.54
303.546
303.561
303.545
303.531
303.512
303.473
303.467
303.409
303.337
303.27
303.223
303.148
348.053
348.831
349.792
350.587
351.507
352.077
352.692
353.167
353.23
353.51
353.249
353.014
352.924
352.217
351.781
350.877
349.969
349.296
347.996
346.996
341.91
342.501
343.318
343.991
344.818
345.271
345.867
346.273
346.319
346.535
346.337
346.127
346.1
345.425
345.038
344.27
343.478
342.872
341.757
340.937
335.623
336.073
336.793
337.338
338.027
338.38
338.935
339.264
339.368
339.49
339.346
339.196
339.169
338.564
338.204
337.603
336.897
336.445
335.486
334.803
329.313
329.579
330.219
330.612
331.205
331.446
331.925
332.211
332.32
332.406
332.254
332.156
332.169
331.609
331.319
330.859
330.28
329.921
329.102
328.601
322.876
323.018
323.595
323.817
324.355
324.513
324.875
325.135
325.212
325.275
325.151
325.094
325.093
324.616
324.396
324.072
323.619
323.297
322.664
322.294
316.382
316.428
316.891
317.05
317.455
317.549
317.804
318.002
318.042
318.094
317.978
317.969
318.009
317.622
317.445
317.226
316.93
316.654
316.192
315.951
309.834
309.856
310.102
310.238
310.548
310.558
310.721
310.828
310.835
310.892
310.812
310.82
310.852
310.573
310.47
310.312
310.208
310.054
309.722
309.563
303.291
303.301
303.355
303.438
303.52
303.538
303.603
303.634
303.619
303.647
303.639
303.625
303.623
303.523
303.506
303.466
303.427
303.368
303.255
303.208
348.901
349.647
350.647
351.51
352.421
353.173
353.763
354.072
354.391
354.61
354.498
354.233
354.144
353.316
352.668
352.009
351.285
350.176
349.008
347.901
342.592
343.202
344.02
344.774
345.596
346.282
346.752
347.043
347.308
347.507
347.369
347.165
347.113
346.363
345.783
345.269
344.65
343.642
342.637
341.693
336.187
336.638
337.322
338.01
338.685
339.291
339.721
339.935
340.178
340.329
340.177
340.036
340.012
339.349
338.842
338.466
337.927
337.053
336.185
335.43
329.692
330.045
330.606
331.185
331.733
332.221
332.603
332.773
332.986
333.11
333.027
332.851
332.817
332.253
331.872
331.565
331.112
330.406
329.672
329.135
323.144
323.405
323.839
324.33
324.777
325.093
325.424
325.543
325.725
325.873
325.72
325.631
325.58
325.113
324.851
324.593
324.279
323.725
323.187
322.781
316.573
316.705
317.071
317.4
317.74
317.931
318.226
318.274
318.425
318.532
318.396
318.344
318.321
317.971
317.767
317.599
317.371
316.95
316.629
316.348
309.998
310.039
310.266
310.445
310.665
310.782
310.966
311.028
311.089
311.16
311.054
311.041
311.023
310.798
310.695
310.539
310.445
310.169
310.025
309.842
303.353
303.35
303.441
303.5
303.567
303.602
303.665
303.691
303.724
303.742
303.712
303.69
303.717
303.627
303.583
303.523
303.487
303.407
303.357
303.318
349.666
350.629
351.403
352.421
353.527
353.998
354.572
355.117
355.292
355.432
355.299
355.318
354.912
354.397
353.742
353.082
352.294
351.065
349.894
348.94
343.279
344.002
344.763
345.565
346.579
347.034
347.466
347.936
348.118
348.285
348.113
348.107
347.723
347.325
346.747
346.199
345.544
344.455
343.391
342.619
336.789
337.313
337.981
338.678
339.494
339.944
340.331
340.694
340.832
341.076
340.885
340.839
340.536
340.176
339.681
339.244
338.666
337.734
336.822
336.224
330.216
330.572
331.122
331.704
332.394
332.738
333.092
333.349
333.481
333.768
333.538
333.503
333.277
332.944
332.549
332.196
331.738
330.955
330.203
329.759
323.587
323.801
324.202
324.708
325.239
325.499
325.748
325.98
326.133
326.336
326.14
326.129
325.9
325.707
325.409
325.109
324.775
324.132
323.521
323.242
316.934
317.009
317.306
317.677
318.062
318.215
318.405
318.561
318.713
318.846
318.75
318.692
318.536
318.392
318.212
317.957
317.715
317.246
316.81
316.653
310.227
310.227
310.413
310.618
310.837
310.944
311.083
311.173
311.232
311.346
311.285
311.23
311.132
311.051
310.984
310.799
310.631
310.363
310.105
310.05
303.455
303.42
303.491
303.562
303.636
303.674
303.71
303.756
303.764
303.813
303.766
303.761
303.728
303.713
303.7
303.614
303.556
303.476
303.394
303.392
350.403
351.203
352.324
353.276
354.286
354.797
355.643
355.873
356.139
356.284
356.354
356.263
355.809
355.431
354.697
354.004
353.062
351.787
350.662
349.707
343.87
344.529
345.495
346.301
347.263
347.665
348.391
348.588
348.759
348.941
349.02
348.931
348.576
348.198
347.574
346.994
346.194
345.012
344.065
343.295
337.263
337.735
338.624
339.276
340.088
340.467
341.103
341.201
341.325
341.528
341.622
341.55
341.207
340.906
340.373
339.909
339.256
338.218
337.416
336.76
330.595
330.934
331.698
332.206
332.86
333.219
333.712
333.775
333.86
334.04
334.142
334.137
333.803
333.591
333.129
332.776
332.232
331.382
330.691
330.148
323.83
324.094
324.706
325.125
325.592
325.92
326.258
326.318
326.347
326.548
326.597
326.63
326.364
326.195
325.855
325.599
325.161
324.473
323.925
323.512
317.071
317.253
317.676
318.037
318.298
318.561
318.781
318.796
318.832
319.019
319.025
319.046
318.882
318.732
318.51
318.346
317.983
317.467
317.121
316.834
310.264
310.379
310.639
310.851
310.994
311.141
311.3
311.268
311.3
311.401
311.425
311.446
311.356
311.247
311.148
311.033
310.828
310.5
310.309
310.146
303.429
303.495
303.572
303.624
303.677
303.722
303.799
303.77
303.776
303.809
303.824
303.857
303.813
303.761
303.731
303.707
303.652
303.519
303.458
303.397
350.844
351.699
352.988
354.07
354.94
355.528
356.341
356.478
356.91
357.147
357.301
356.906
356.708
356.231
355.482
354.74
353.545
352.505
351.356
350.172
344.298
344.978
346.09
347.066
347.806
348.247
348.977
349.138
349.425
349.737
349.852
349.542
349.274
348.914
348.229
347.606
346.58
345.667
344.6
343.607
337.623
338.149
339.134
339.968
340.566
340.892
341.543
341.696
341.958
342.245
342.385
342.062
341.818
341.559
340.923
340.417
339.59
338.774
337.798
336.979
330.872
331.248
332.102
332.763
333.272
333.54
334.051
334.21
334.398
334.65
334.785
334.531
334.27
334.069
333.557
333.182
332.505
331.818
331.013
330.328
324.047
324.388
325.048
325.553
325.955
326.186
326.55
326.652
326.771
327.018
327.152
326.935
326.718
326.553
326.17
325.901
325.396
324.825
324.13
323.637
317.157
317.485
317.915
318.301
318.605
318.728
319.014
319.069
319.156
319.368
319.458
319.301
319.09
319.017
318.738
318.564
318.225
317.785
317.272
316.893
310.318
310.501
310.737
310.992
311.171
311.24
311.448
311.479
311.509
311.651
311.678
311.609
311.467
311.428
311.289
311.163
310.981
310.681
310.379
310.137
303.465
303.507
303.603
303.669
303.756
303.763
303.842
303.857
303.86
303.893
303.912
303.877
303.848
303.853
303.783
303.746
303.698
303.569
303.475
303.404
351.081
352.15
353.371
354.502
355.249
356.269
357.094
357.274
357.44
357.709
357.881
357.695
357.094
356.766
356.003
355.18
354.291
353.186
351.765
350.87
344.512
345.346
346.423
347.424
348.056
348.883
349.656
349.842
349.932
350.217
350.329
350.196
349.628
349.348
348.736
348.013
347.251
346.209
344.985
344.247
337.805
338.468
339.411
340.302
340.779
341.461
342.182
342.328
342.368
342.667
342.725
342.595
342.106
341.876
341.392
340.776
340.139
339.192
338.182
337.552
331.066
331.53
332.34
333.095
333.456
333.989
334.631
334.712
334.738
334.99
335.037
334.953
334.502
334.317
334.004
333.442
332.97
332.102
331.3
330.779
324.242
324.585
325.222
325.785
326.065
326.488
326.997
327.07
327.056
327.284
327.343
327.241
326.856
326.765
326.534
326.062
325.744
324.974
324.34
323.98
317.345
317.583
318.069
318.417
318.646
318.911
319.329
319.397
319.305
319.509
319.588
319.491
319.204
319.205
318.973
318.66
318.457
317.858
317.367
317.163
310.413
310.552
310.869
311.045
311.191
311.382
311.619
311.676
311.581
311.743
311.751
311.762
311.514
311.564
311.392
311.25
311.131
310.756
310.434
310.28
303.482
303.533
303.648
303.691
303.753
303.808
303.883
303.925
303.898
303.952
303.942
303.95
303.857
303.881
303.797
303.784
303.734
303.597
303.516
303.438
351.567
352.572
353.661
354.742
355.736
356.695
357.684
357.917
357.968
358.295
358.312
358.145
357.685
357.296
356.56
355.78
354.885
353.756
352.346
351.305
344.838
345.729
346.661
347.555
348.467
349.34
350.16
350.351
350.369
350.667
350.712
350.555
350.124
349.811
349.188
348.504
347.766
346.746
345.511
344.625
338.025
338.862
339.608
340.328
341.155
341.898
342.61
342.731
342.737
342.976
343.018
342.844
342.524
342.238
341.756
341.165
340.582
339.658
338.586
337.888
331.214
331.918
332.516
333.096
333.783
334.368
334.976
335.029
335.031
335.265
335.303
335.169
334.887
334.611
334.244
333.748
333.318
332.532
331.618
331.098
324.295
324.907
325.392
325.826
326.318
326.781
327.253
327.294
327.327
327.482
327.514
327.383
327.18
326.962
326.73
326.292
326
325.365
324.631
324.208
317.389
317.822
318.182
318.517
318.827
319.181
319.505
319.502
319.542
319.68
319.682
319.584
319.419
319.318
319.126
318.76
318.62
318.155
317.605
317.321
310.477
310.716
310.943
311.126
311.292
311.548
311.725
311.702
311.739
311.821
311.788
311.765
311.622
311.623
311.514
311.277
311.208
310.916
310.582
310.425
303.508
303.571
303.663
303.729
303.769
303.868
303.915
303.936
303.92
303.951
303.951
303.945
303.903
303.914
303.864
303.784
303.779
303.657
303.543
303.498
351.832
352.915
354.16
354.994
356.037
356.866
357.994
358.131
358.441
358.427
358.584
358.097
357.873
357.476
356.702
356.247
355.15
354.013
352.731
351.504
345.105
345.949
347.113
347.813
348.706
349.434
350.405
350.526
350.809
350.759
350.93
350.474
350.287
349.966
349.303
348.902
347.95
346.973
345.838
344.81
338.276
338.968
340.01
340.579
341.328
341.888
342.743
342.887
343.13
343.027
343.157
342.837
342.688
342.4
341.791
341.484
340.671
339.897
338.89
338.037
331.421
331.968
332.839
333.287
333.937
334.349
335.019
335.204
335.379
335.266
335.39
335.152
334.997
334.759
334.261
334.058
333.405
332.753
331.93
331.178
324.483
324.923
325.597
325.979
326.492
326.76
327.255
327.426
327.508
327.429
327.561
327.435
327.274
327.055
326.7
326.562
326.087
325.521
324.899
324.278
317.484
317.804
318.33
318.606
318.971
319.179
319.53
319.589
319.605
319.605
319.721
319.68
319.514
319.344
319.112
319.009
318.692
318.279
317.836
317.318
310.486
310.652
311.006
311.215
311.417
311.58
311.76
311.785
311.726
311.816
311.857
311.838
311.752
311.614
311.457
311.39
311.211
310.997
310.726
310.408
303.518
303.569
303.681
303.764
303.834
303.918
303.952
303.957
303.909
303.959
303.97
303.934
303.957
303.901
303.832
303.811
303.757
303.692
303.61
303.478
)
;

boundaryField
{
    hotSide
    {
        type            fixedGradient;
        gradient        nonuniform List<scalar> 
400
(
328.506
343.678
358.724
373.577
388.169
402.432
416.297
429.696
442.564
454.833
466.443
477.332
487.445
496.727
505.13
512.61
519.127
524.649
529.146
532.597
335.63
351.271
366.788
382.112
397.174
411.902
426.226
440.076
453.383
466.079
478.101
489.384
499.871
509.507
518.24
526.026
532.822
538.595
543.314
546.956
341.85
357.921
373.871
389.63
405.124
420.282
435.031
449.298
463.013
476.107
488.511
500.163
511
520.967
530.011
538.085
545.145
551.156
556.087
559.914
347.145
363.606
379.948
396.1
411.988
427.537
442.673
457.321
471.409
484.866
497.623
509.612
520.773
531.047
540.378
548.72
556.027
562.261
567.392
571.395
351.506
368.311
385.002
401.504
417.742
433.641
449.123
464.113
478.536
492.32
505.394
517.69
529.143
539.695
549.289
557.876
565.409
571.85
577.167
581.334
354.927
372.031
389.023
405.83
422.373
438.576
454.361
469.65
484.368
498.44
511.793
524.36
536.074
546.873
556.702
565.508
573.245
579.874
585.361
589.678
357.412
374.764
392.01
409.072
425.873
442.333
458.375
473.918
488.887
503.205
516.799
529.598
541.537
552.551
562.584
571.582
579.499
586.293
591.931
596.384
358.966
376.517
393.966
411.233
428.241
444.91
461.159
476.91
492.084
506.605
520.396
533.389
545.514
556.708
566.912
576.073
584.143
591.079
596.848
601.42
359.601
377.299
394.897
412.318
429.481
446.308
462.715
478.625
493.956
508.633
522.579
535.722
547.994
559.331
569.673
578.965
587.159
594.212
600.09
604.763
359.33
377.121
394.816
412.336
429.603
446.534
463.048
479.065
494.506
509.291
523.345
536.596
548.974
560.415
570.858
580.248
588.536
595.681
601.644
606.398
358.169
375.999
393.736
411.302
428.616
445.599
462.167
478.241
493.74
508.585
522.701
536.015
548.456
559.961
570.468
579.922
588.274
595.481
601.506
606.319
356.135
373.948
391.673
409.229
426.538
443.517
460.087
476.164
491.67
506.526
520.656
533.987
546.449
557.977
568.51
577.993
586.376
593.617
599.678
604.531
353.245
370.988
388.644
406.136
423.384
440.306
456.822
472.851
488.313
503.13
517.226
530.528
542.966
554.476
564.997
574.473
582.856
590.101
596.173
601.042
349.519
367.136
384.67
402.042
419.174
435.984
452.394
468.322
483.689
498.417
512.43
525.657
538.028
549.479
559.948
569.382
577.732
584.953
591.009
595.872
344.976
362.413
379.769
396.968
413.929
430.575
446.825
462.6
477.82
492.41
506.294
519.401
531.661
543.011
553.392
562.748
571.031
578.198
584.214
589.048
339.636
356.841
373.967
390.938
407.676
424.104
440.143
455.713
470.738
485.141
498.848
511.789
523.897
535.106
545.36
554.604
562.789
569.874
575.823
580.606
333.522
350.443
367.286
383.978
400.442
416.601
432.377
447.694
462.474
476.643
490.129
502.861
514.774
525.804
535.895
544.992
553.049
560.024
565.882
570.593
326.659
343.245
359.756
376.119
392.259
408.099
423.565
438.579
453.069
466.959
480.179
492.661
504.34
515.153
525.045
533.964
541.863
548.701
554.444
559.064
319.072
335.278
351.409
367.395
383.163
398.638
413.747
428.414
442.568
456.137
469.05
481.242
492.648
503.209
512.87
521.579
529.292
535.968
541.575
546.084
310.795
326.574
342.281
357.846
373.197
388.262
402.97
417.248
431.025
444.231
456.799
468.663
479.762
490.038
499.436
507.908
515.408
521.9
527.349
531.729
)
;
    }
    coldSide
    {
        type            mixed;
        refValue        uniform 300;
        refGradient     uniform 0;
        valueFraction   uniform 0.991591;
        source          uniform 0;
        value           nonuniform List<scalar> 
400
(
300.02
300.02
300.02
300.021
300.022
300.023
300.024
300.024
300.025
300.026
300.026
300.027
300.028
300.028
300.029
300.029
300.029
300.029
300.029
300.03
300.02
300.02
300.021
300.022
300.022
300.023
300.024
300.025
300.025
300.026
300.027
300.027
300.028
300.028
300.029
300.029
300.029
300.03
300.03
300.03