/*--------------------------------*- C++ -*----------------------------------*\
| =========                 |                                                 |
| \\      /  F ield         | OpenFOAM: The Open Source CFD Toolbox           |
|  \\    /   O peration     | Version:  2212                                  |
|   \\  /    A nd           | Website:  www.openfoam.com                      |
|    \\/     M anipulation  |                                                 |
\*---------------------------------------------------------------------------*/
FoamFile
{
    version     2.0;
    format      ascii;
    arch        "LSB;label=32;scalar=64";
    class       volScalarField;
    location    "0";
    object      T;
}
// * * * * * * * * * * * * * * * * * * * * * * * * * * * * * * * * * * * * * //

dimensions      [0 0 0 1 0 0 0];

internalField   nonuniform List<scalar> 
3200
(
352.204
351.027
350.094
349.796
349.892
350.486
351.01
351.565
352.36
352.601
352.662
352.389
352.119
351.459
350.657
350.043
349.823
349.986
350.566
351.931
345.188
344.211
343.438
343.174
343.255
343.799
344.235
344.677
345.395
345.593
345.648
345.413
345.155
344.589
343.914
343.359
343.183
343.304
343.795
344.952
338.193
337.403
336.758
336.543
336.625
337.059
337.43
337.777
338.412
338.561
338.633
338.445
338.212
337.723
337.145
336.671
336.556
336.616
337.034
337.974
331.221
330.595
330.079
329.916
329.986
330.338
330.629
330.888
331.414
331.53
331.634
331.469
331.258
330.856
330.394
329.989
329.891
329.942
330.284
331.021
324.256
323.773
323.409
323.279
323.311
323.619
323.836
324.007
324.421
324.505
324.614
324.485
324.292
323.998
323.668
323.32
323.236
323.251
323.581
324.111
317.307
316.969
316.72
316.644
316.64
316.883
317.059
317.149
317.455
317.491
317.602
317.505
317.355
317.156
316.947
316.665
316.583
316.598
316.858
317.22
310.371
310.19
310.043
309.999
309.986
310.146
310.241
310.305
310.482
310.507
310.558
310.523
310.416
310.302
310.177
310.02
309.95
309.975
310.146
310.341
303.482
303.412
303.373
303.359
303.352
303.398
303.442
303.462
303.528
303.522
303.538
303.522
303.489
303.451
303.415
303.355
303.333
303.337
303.413
303.455
352.104
350.939
350.206
349.84
350.04
350.708
351.291
351.945
352.753
353.011
353.157
352.894
352.568
351.76
350.942
350.186
349.864
349.896
350.682
351.872
345.112
344.161
343.556
343.208
343.381
343.951
344.448
345.013
345.708
345.964
346.092
345.807
345.555
344.873
344.128
343.494
343.231
343.227
343.913
344.905
338.138
337.398
336.871
336.574
336.705
337.194
337.591
338.079
338.677
338.898
339.009
338.737
338.548
337.961
337.338
336.8
336.599
336.548
337.135
337.962
331.18
330.618
330.185
329.936
330.024
330.434
330.729
331.145
331.624
331.838
331.937
331.678
331.519
331.064
330.568
330.109
329.961
329.861
330.383
331.016
324.231
323.826
323.511
323.289
323.341
323.664
323.89
324.236
324.59
324.774
324.858
324.631
324.508
324.16
323.792
323.409
323.317
323.224
323.627
324.078
317.322
317.029
316.822
316.649
316.676
316.918
317.063
317.329
317.554
317.706
317.769
317.599
317.5
317.254
317.018
316.742
316.676
316.586
316.859
317.169
310.393
310.233
310.101
309.992
310.012
310.151
310.245
310.408
310.527
310.632
310.669
310.566
310.51
310.369
310.23
310.058
310.021
309.951
310.111
310.287
303.485
303.433
303.393
303.343
303.357
303.405
303.43
303.483
303.517
303.56
303.575
303.548
303.525
303.476
303.437
303.364
303.363
303.329
303.385
303.448
352.366
351.166
350.451
350.164
350.326
350.964
351.62
352.567
353.144
353.607
353.847
353.532
353.101
352.329
351.459
350.705
350.207
350.115
350.777
351.907
345.362
344.353
343.774
343.509
343.654
344.185
344.754
345.571
346.052
346.484
346.666
346.391
346.044
345.352
344.595
343.943
343.52
343.434
343.993
344.912
338.372
337.524
337.069
336.847
336.938
337.396
337.889
338.553
338.977
339.362
339.491
339.235
338.965
338.354
337.742
337.185
336.825
336.731
337.2
337.944
331.382
330.717
330.352
330.172
330.22
330.582
331.026
331.53
331.895
332.224
332.314
332.099
331.875
331.38
330.912
330.422
330.117
330.031
330.389
331.007
324.387
323.909
323.623
323.469
323.498
323.788
324.149
324.543
324.834
325.072
325.143
324.972
324.809
324.41
324.068
323.648
323.413
323.331
323.613
324.086
317.408
317.101
316.883
316.788
316.784
316.991
317.253
317.535
317.743
317.901
317.963
317.844
317.742
317.443
317.215
316.898
316.723
316.663
316.856
317.202
310.454
310.286
310.151
310.109
310.091
310.218
310.366
310.529
310.649
310.758
310.783
310.722
310.669
310.482
310.347
310.156
310.035
309.993
310.103
310.334
303.503
303.446
303.408
303.395
303.38
303.434
303.466
303.538
303.57
303.606
303.617
303.598
303.583
303.514
303.475
303.402
303.36
303.343
303.382
303.471
352.753
351.569
350.874
350.693
350.766
351.534
352.402
353.198
353.951
354.357
354.54
354.398
353.918
353.022
352.216
351.384
350.773
350.763
351.279
352.282
345.688
344.702
344.147
343.953
344.027
344.675
345.445
346.136
346.747
347.087
347.272
347.126
346.723
345.953
345.238
344.514
344.005
344.012
344.432
345.242
338.646
337.831
337.398
337.193
337.272
337.805
338.488
339.06
339.548
339.818
340.002
339.864
339.514
338.884
338.251
337.625
337.235
337.251
337.587
338.219
331.604
330.945
330.6
330.434
330.514
330.957
331.5
331.973
332.35
332.58
332.73
332.613
332.311
331.825
331.296
330.766
330.455
330.491
330.748
331.253
324.576
324.073
323.798
323.665
323.733
324.103
324.514
324.892
325.159
325.346
325.442
325.376
325.131
324.749
324.35
323.915
323.688
323.718
323.928
324.298
317.548
317.183
316.999
316.917
316.96
317.223
317.515
317.807
317.99
318.123
318.161
318.129
317.95
317.675
317.402
317.075
316.92
316.956
317.094
317.366
310.553
310.306
310.202
310.175
310.193
310.363
310.518
310.714
310.813
310.883
310.888
310.877
310.783
310.608
310.452
310.233
310.165
310.197
310.247
310.416
303.546
303.449
303.428
303.404
303.423
303.474
303.529
303.592
303.628
303.651
303.651
303.636
303.615
303.547
303.509
303.411
303.412
303.421
303.434
303.49
353.394
352.19
351.594
351.356
351.57
352.097
353.047
353.987
354.804
355.377
355.387
355.3
354.767
353.999
353.054
352.091
351.601
351.484
351.955
353.004
346.24
345.255
344.758
344.545
344.705
345.174
345.984
346.8
347.488
347.974
347.976
347.911
347.466
346.793
345.984
345.149
344.72
344.65
345
345.856
339.105
338.309
337.885
337.714
337.826
338.249
338.918
339.63
340.182
340.605
340.567
340.54
340.173
339.564
338.905
338.189
337.834
337.781
338.061
338.738
331.978
331.359
331.016
330.886
330.956
331.319
331.869
332.44
332.87
333.232
333.166
333.158
332.867
332.364
331.833
331.223
330.926
330.911
331.151
331.641
324.861
324.397
324.108
324.042
324.084
324.363
324.796
325.238
325.567
325.849
325.768
325.789
325.57
325.185
324.768
324.272
324.032
324.041
324.235
324.588
317.773
317.42
317.22
317.192
317.228
317.411
317.722
318.037
318.246
318.456
318.367
318.427
318.283
317.981
317.69
317.352
317.168
317.183
317.33
317.547
310.683
310.457
310.351
310.328
310.36
310.46
310.658
310.837
310.953
311.077
311.012
311.066
310.981
310.806
310.623
310.442
310.318
310.307
310.41
310.52
303.575
303.506
303.48
303.463
303.477
303.501
303.583
303.625
303.667
303.706
303.689
303.702
303.685
303.627
303.561
303.509
303.46
303.459
303.501
303.523
354.112
353.029
352.339
352.157
352.529
353.099
353.955
354.968
355.9
356.478
356.652
356.476
355.986
355.006
354.058
353.12
352.452
352.395
352.842
353.825
346.876
345.981
345.409
345.248
345.562
346.056
346.804
347.649
348.462
348.942
349.075
348.922
348.494
347.665
346.836
346.02
345.465
345.418
345.785
346.593
339.633
338.926
338.451
338.305
338.588
339.006
339.625
340.335
341.007
341.408
341.514
341.36
341.017
340.32
339.631
338.937
338.472
338.429
338.724
339.384
332.395
331.835
331.469
331.356
331.597
331.93
332.439
333.03
333.547
333.885
333.968
333.83
333.549
332.954
332.434
331.838
331.469
331.443
331.689
332.186
325.175
324.758
324.475
324.402
324.6
324.865
325.237
325.725
326.078
326.361
326.435
326.317
326.091
325.596
325.22
324.738
324.473
324.444
324.645
325.014
317.965
317.674
317.496
317.439
317.577
317.785
318.046
318.403
318.632
318.853
318.901
318.796
318.641
318.27
318.031
317.671
317.468
317.454
317.596
317.852
310.779
310.604
310.501
310.496
310.562
310.698
310.848
311.057
311.181
311.325
311.349
311.304
311.21
310.976
310.841
310.619
310.482
310.47
310.558
310.697
303.615
303.553
303.526
303.521
303.543
303.589
303.64
303.709
303.738
303.785
303.796
303.788
303.765
303.687
303.638
303.569
303.504
303.516
303.547
303.586
355.073
353.992
353.278
353.106
353.497
354.065
354.949
355.995
356.942
357.645
357.865
357.78
357.133
356.213
355.078
354.319
353.564
353.482
354.007
354.837
347.71
346.8
346.216
346.054
346.398
346.887
347.632
348.545
349.337
349.957
350.149
350.05
349.508
348.74
347.7
347.078
346.439
346.343
346.789
347.48
340.341
339.606
339.134
339
339.303
339.717
340.314
341.084
341.749
342.245
342.43
342.338
341.876
341.261
340.356
339.832
339.3
339.224
339.567
340.152
332.994
332.404
332.043
331.928
332.176
332.523
332.983
333.627
334.179
334.54
334.704
334.624
334.248
333.741
333.023
332.573
332.132
332.087
332.366
332.838
325.635
325.204
324.942
324.862
325.029
325.321
325.677
326.164
326.608
326.859
326.999
326.92
326.626
326.242
325.693
325.33
324.979
324.967
325.153
325.549
318.301
318.027
317.834
317.779
317.895
318.127
318.349
318.702
319.007
319.184
319.296
319.221
319.004
318.767
318.361
318.083
317.832
317.827
317.941
318.238
310.979
310.818
310.709
310.69
310.75
310.907
311.029
311.229
311.408
311.506
311.581
311.549
311.408
311.273
311.04
310.872
310.701
310.692
310.759
310.965
303.675
303.626
303.591
303.591
303.613
303.668
303.697
303.761
303.828
303.865
303.869
303.878
303.82
303.782
303.71
303.638
303.582
303.576
303.616
303.683
356.202
355.082
354.399
354.246
354.524
355.165
355.926
357.032
357.989
358.711
359.105
358.952
358.245
357.358
356.238
355.352
354.848
354.696
355.188
355.949
348.686
347.757
347.2
347.038
347.278
347.821
348.49
349.444
350.263
350.855
351.186
351.066
350.484
349.687
348.73
347.971
347.533
347.4
347.839
348.42
341.185
340.418
339.983
339.834
340.028
340.478
341.054
341.852
342.548
343.024
343.284
343.194
342.716
342.026
341.245
340.588
340.212
340.111
340.499
340.932
333.673
333.063
332.739
332.65
332.771
333.133
333.613
334.261
334.812
335.206
335.389
335.313
334.933
334.396
333.735
333.201
332.897
332.833
333.144
333.453
326.186
325.712
325.456
325.431
325.503
325.779
326.144
326.666
327.079
327.413
327.513
327.463
327.152
326.757
326.216
325.804
325.555
325.556
325.765
326.031
318.709
318.366
318.177
318.199
318.214
318.412
318.673
319.064
319.338
319.593
319.652
319.639
319.372
319.138
318.733
318.432
318.254
318.284
318.393
318.617
311.218
311.029
310.907
310.934
310.936
311.069
311.224
311.463
311.606
311.764
311.791
311.805
311.623
311.516
311.253
311.08
310.958
310.99
311.043
311.196
303.756
303.696
303.649
303.662
303.664
303.716
303.766
303.85
303.902
303.947
303.939
303.962
303.886
303.865
303.774
303.712
303.674
303.682
303.71
303.751
357.368
356.339
355.592
355.491
355.779
356.293
357.104
358.063
359.099
359.853
360.234
359.967
359.402
358.495
357.409
356.452
355.979
355.874
356.432
357.112
349.689
348.833
348.224
348.12
348.375
348.795
349.481
350.332
351.245
351.867
352.205
351.948
351.477
350.676
349.719
348.93
348.522
348.424
348.901
349.461
342.012
341.334
340.807
340.742
340.943
341.293
341.855
342.596
343.364
343.867
344.172
343.925
343.551
342.868
342.011
341.41
341.083
340.981
341.368
341.81
334.347
333.829
333.408
333.367
333.521
333.792
334.239
334.841
335.485
335.883
336.125
335.927
335.631
335.05
334.342
333.9
333.596
333.532
333.855
334.184
326.685
326.315
325.994
325.974
326.074
326.288
326.641
327.086
327.606
327.922
328.079
327.954
327.72
327.249
326.68
326.377
326.126
326.073
326.315
326.581
319.049
318.81
318.569
318.559
318.647
318.78
319.043
319.352
319.714
319.973
320.055
319.971
319.813
319.478
319.036
318.843
318.67
318.639
318.798
319.02
311.431
311.309
311.145
311.138
311.209
311.266
311.436
311.612
311.823
312.007
312.039
312.003
311.898
311.7
311.424
311.331
311.224
311.199
311.296
311.427
303.832
303.794
303.732
303.741
303.765
303.78
303.844
303.885
303.966
304.03
304.035
304.026
303.982
303.926
303.831
303.802
303.764
303.748
303.795
303.834
358.612
357.487
356.876
356.617
356.879
357.467
358.343
359.212
360.184
360.854
361.176
360.97
360.473
359.713
358.565
357.755
357.348
357.234
357.645
358.43
350.79
349.855
349.317
349.089
349.309
349.815
350.569
351.341
352.167
352.731
352.993
352.825
352.382
351.735
350.761
350.067
349.712
349.618
349.943
350.614
342.954
342.207
341.739
341.534
341.729
342.151
342.803
343.457
344.163
344.591
344.831
344.703
344.321
343.758
342.934
342.351
342.051
341.99
342.258
342.811
335.13
334.541
334.149
333.985
334.164
334.508
335.04
335.559
336.152
336.484
336.684
336.565
336.25
335.793
335.108
334.655
334.396
334.36
334.574
335.021
327.314
326.876
326.553
326.412
326.583
326.844
327.261
327.664
328.11
328.382
328.555
328.45
328.206
327.841
327.295
326.951
326.768
326.738
326.898
327.231
319.495
319.216
318.972
318.861
319.006
319.196
319.499
319.764
320.076
320.294
320.402
320.345
320.153
319.883
319.498
319.249
319.127
319.116
319.234
319.438
311.692
311.543
311.387
311.326
311.42
311.525
311.721
311.872
312.048
312.198
312.254
312.211
312.109
311.945
311.723
311.559
311.486
311.487
311.547
311.664
303.918
303.862
303.803
303.8
303.831
303.864
303.934
303.977
304.039
304.099
304.102
304.092
304.054
304.001
303.935
303.876
303.846
303.845
303.88
303.916
359.758
358.766
358.225
357.978
358.099
358.671
359.414
360.258
361.228
361.899
362.228
362.05
361.699
360.729
359.834
358.94
358.515
358.631
359.022
359.77
351.784
350.93
350.498
350.287
350.413
350.846
351.499
352.252
353.065
353.627
353.915
353.763
353.459
352.635
351.868
351.122
350.712
350.838
351.18
351.783
343.812
343.104
342.759
342.572
342.695
343.034
343.603
344.215
344.888
345.364
345.62
345.498
345.207
344.532
343.892
343.261
342.913
343.047
343.343
343.819
335.818
335.286
334.992
334.842
334.965
335.215
335.718
336.164
336.721
337.12
337.325
337.228
336.969
336.435
335.925
335.412
335.123
335.237
335.484
335.858
327.853
327.476
327.206
327.106
327.212
327.411
327.8
328.112
328.562
328.87
329.01
328.973
328.725
328.336
327.943
327.555
327.33
327.427
327.612
327.895
319.89
319.626
319.42
319.373
319.462
319.59
319.872
320.083
320.412
320.637
320.714
320.684
320.503
320.246
319.954
319.701
319.54
319.599
319.738
319.951
311.962
311.774
311.657
311.629
311.686
311.766
311.946
312.06
312.253
312.405
312.449
312.393
312.311
312.146
311.986
311.828
311.731
311.796
311.857
311.993
304.023
303.957
303.903
303.905
303.916
303.957
304.009
304.048
304.106
304.161
304.167
304.147
304.126
304.071
304.021
303.967
303.933
303.959
303.977
304.016
361.023
360.239
359.528
359.289
359.442
359.805
360.432
361.351
362.175
362.811
363.133
363.051
362.649
361.793
360.937
360.225
359.845
359.934
360.341
361.064
352.869
352.235
351.607
351.437
351.563
351.87
352.376
353.18
353.924
354.426
354.707
354.644
354.289
353.533
352.818
352.202
351.9
351.943
352.298
352.92
344.713
344.193
343.675
343.571
343.654
343.915
344.322
345.002
345.666
346.052
346.274
346.243
345.905
345.289
344.696
344.192
343.938
343.956
344.241
344.768
336.561
336.142
335.736
335.68
335.765
335.939
336.28
336.819
337.383
337.706
337.86
337.811
337.523
337.037
336.563
336.162
335.99
335.948
336.183
336.628
328.411
328.095
327.805
327.77
327.851
327.972
328.248
328.639
329.103
329.346
329.459
329.4
329.167
328.792
328.419
328.127
328.035
327.967
328.152
328.49
320.279
320.054
319.86
319.864
319.911
320.001
320.187
320.456
320.82
320.973
321.06
321.014
320.829
320.578
320.293
320.091
320.062
319.965
320.125
320.361
312.174
312.021
311.928
311.923
311.963
312.019
312.122
312.292
312.515
312.59
312.646
312.617
312.514
312.357
312.189
312.071
312.047
311.972
312.081
312.213
304.083
304.018
303.999
303.995
303.999
304.027
304.062
304.119
304.186
304.224
304.248
304.228
304.195
304.148
304.08
304.049
304.046
304.017
304.048
304.092
362.453
361.623
360.817
360.682
360.541
361.063
361.733
362.421
363.271
363.672
364.064
364.046
363.685
362.893
362.044
361.486
361.145
361.155
361.623
362.293
354.108
353.416
352.76
352.638
352.519
352.958
353.527
354.091
354.852
355.19
355.506
355.512
355.175
354.525
353.763
353.282
353.024
352.994
353.409
353.961
345.771
345.192
344.692
344.606
344.471
344.836
345.311
345.78
346.436
346.724
346.958
346.967
346.686
346.127
345.494
345.079
344.875
344.86
345.215
345.623
337.442
336.976
336.614
336.525
336.401
336.707
337.093
337.481
338.028
338.247
338.402
338.424
338.193
337.735
337.211
336.904
336.726
336.712
337.001
337.316
329.119
328.773
328.508
328.434
328.335
328.55
328.892
329.148
329.62
329.748
329.892
329.915
329.712
329.361
328.944
328.706
328.582
328.571
328.779
329.01
320.815
320.568
320.378
320.332
320.266
320.408
320.673
320.835
321.174
321.25
321.356
321.395
321.235
320.979
320.661
320.515
320.432
320.419
320.576
320.712
312.507
312.346
312.242
312.212
312.184
312.265
312.423
312.54
312.739
312.755
312.827
312.862
312.757
312.599
312.405
312.316
312.279
312.274
312.36
312.455
304.192
304.133
304.114
304.076
304.078
304.119
304.165
304.211
304.274
304.268
304.309
304.317
304.275
304.22
304.155
304.12
304.115
304.103
304.136
304.174
363.84
362.976
362.27
362.015
361.968
362.386
362.844
363.453
364.125
364.614
364.843
364.854
364.659
363.871
363.219
362.749
362.407
362.49
362.882
363.602
355.333
354.615
353.998
353.816
353.721
354.101
354.511
354.987
355.606
356.033
356.218
356.217
356.055
355.365
354.793
354.386
354.101
354.182
354.513
355.104
346.791
346.224
345.722
345.593
345.483
345.788
346.177
346.529
347.092
347.434
347.594
347.592
347.457
346.858
346.375
346.013
345.795
345.84
346.13
346.599
338.279
337.812
337.433
337.342
337.237
337.487
337.814
338.069
338.553
338.813
338.982
338.953
338.837
338.384
337.949
337.66
337.488
337.5
337.749
338.121
329.789
329.416
329.146
329.073
328.987
329.152
329.42
329.617
330.012
330.208
330.36
330.314
330.205
329.875
329.538
329.286
329.196
329.157
329.38
329.639
321.288
321.03
320.821
320.778
320.721
320.867
321.029
321.156
321.445
321.594
321.71
321.655
321.573
321.366
321.128
320.943
320.884
320.838
321.001
321.168
312.797
312.645
312.505
312.487
312.458
312.55
312.644
312.711
312.898
312.969
313.051
313.014
312.953
312.838
312.687
312.601
312.571
312.539
312.62
312.713
304.288
304.231
304.19
304.184
304.174
304.207
304.245
304.259
304.327
304.344
304.375
304.362
304.343
304.301
304.248
304.229
304.23
304.197
304.234
304.246
365.298
364.432
363.666
363.327
363.382
363.639
364.053
364.501
365.138
365.603
365.756
365.662
365.544
364.933
364.385
363.906
363.678
363.848
364.342
364.934
356.589
355.861
355.233
354.95
354.959
355.213
355.549
355.924
356.475
356.87
356.998
356.908
356.838
356.28
355.822
355.391
355.217
355.353
355.764
356.23
347.873
347.27
346.789
346.559
346.55
346.752
347.031
347.35
347.794
348.148
348.229
348.15
348.114
347.638
347.255
346.88
346.761
346.857
347.189
347.545
339.129
338.675
338.307
338.128
338.12
338.267
338.503
338.761
339.11
339.399
339.462
339.402
339.388
338.979
338.686
338.38
338.285
338.342
338.609
338.868
330.413
330.057
329.822
329.678
329.695
329.771
329.962
330.178
330.407
330.67
330.705
330.638
330.656
330.331
330.097
329.86
329.796
329.826
330.032
330.216
321.711
321.467
321.343
321.222
321.232
321.282
321.417
321.575
321.722
321.931
321.953
321.894
321.93
321.677
321.515
321.351
321.303
321.288
321.474
321.58
313.046
312.894
312.819
312.748
312.764
312.781
312.863
312.97
313.042
313.181
313.201
313.151
313.184
313.024
312.929
312.831
312.786
312.781
312.9
312.965
304.373
304.329
304.295
304.278
304.279
304.281
304.318
304.351
304.366
304.419
304.426
304.413
304.423
304.363
304.338
304.298
304.288
304.285
304.326
304.351
366.67
365.781
365.091
364.781
364.63
364.874
365.269
365.679
366.091
366.605
366.72
366.646
366.571
365.997
365.414
365.055
364.983
365.102
365.603
366.295
357.798
357.059
356.47
356.201
356.051
356.246
356.579
356.963
357.319
357.747
357.828
357.775
357.738
357.226
356.715
356.389
356.36
356.433
356.854
357.406
348.913
348.297
347.808
347.591
347.459
347.615
347.873
348.227
348.532
348.891
348.939
348.902
348.881
348.44
347.997
347.74
347.71
347.749
348.074
348.541
340.039
339.514
339.137
338.98
338.852
338.998
339.17
339.49
339.721
340.004
340.071
340.022
340.018
339.624
339.287
339.091
339.04
339.09
339.3
339.716
331.14
330.737
330.426
330.342
330.257
330.355
330.457
330.733
330.902
331.119
331.18
331.14
331.15
330.808
330.571
330.422
330.368
330.425
330.55
330.892
322.254
321.951
321.71
321.676
321.633
321.711
321.768
321.96
322.089
322.231
322.285
322.251
322.256
322.01
321.845
321.765
321.705
321.757
321.819
322.079
313.359
313.163
313.036
313.02
312.988
313.051
313.063
313.18
313.25
313.356
313.389
313.358
313.379
313.233
313.132
313.061
313.043
313.059
313.112
313.245
304.471
304.395
304.378
304.368
304.351
304.375
304.369
304.42
304.438
304.481
304.485
304.48
304.487
304.435
304.41
304.38
304.376
304.379
304.4
304.439
368.36
367.31
366.53
366.169
365.914
366.097
366.463
366.755
367.236
367.584
367.592
367.529
367.416
367.059
366.596
366.311
366.239
366.458
367.036
367.818
359.249
358.366
357.697
357.382
357.169
357.317
357.647
357.884
358.295
358.603
358.614
358.512
358.459
358.139
357.727
357.518
357.419
357.615
358.094
358.746
350.124
349.422
348.831
348.576
348.406
348.522
348.796
349.008
349.328
349.6
349.624
349.511
349.488
349.188
348.867
348.692
348.616
348.787
349.159
349.702
341.001
340.447
339.956
339.742
339.603
339.733
339.943
340.122
340.353
340.608
340.619
340.515
340.504
340.236
339.995
339.866
339.795
339.948
340.224
340.665
331.885
331.475
331.088
330.936
330.786
330.929
331.083
331.218
331.393
331.613
331.627
331.535
331.54
331.291
331.113
331.035
330.964
331.097
331.293
331.639
322.781
322.485
322.197
322.13
321.978
322.117
322.229
322.298
322.423
322.599
322.612
322.537
322.537
322.351
322.231
322.207
322.123
322.224
322.348
322.629
313.698
313.479
313.317
313.309
313.183
313.299
313.361
313.387
313.466
313.586
313.583
313.544
313.547
313.426
313.362
313.34
313.314
313.341
313.406
313.612
304.589
304.514
304.459
304.464
304.414
304.462
304.477
304.491
304.517
304.548
304.553
304.543
304.54
304.503
304.479
304.476
304.467
304.466
304.492
304.564
369.854
368.775
367.934
367.504
367.252
367.415
367.735
367.868
368.301
368.567
368.661
368.5
368.316
368.074
367.738
367.544
367.558
367.777
368.485
369.274
360.545
359.622
358.904
358.559
358.317
358.46
358.732
358.846
359.215
359.447
359.534
359.394
359.208
359.011
358.74
358.543
358.595
358.754
359.355
360.016
351.234
350.486
349.875
349.605
349.358
349.48
349.713
349.811
350.114
350.318
350.365
350.283
350.106
349.944
349.718
349.541
349.6
349.731
350.226
350.76
341.919
341.327
340.848
340.623
340.4
340.496
340.675
340.77
341.023
341.184
341.213
341.17
341.02
340.894
340.685
340.537
340.598
340.703
341.085
341.533
332.581
332.133
331.81
331.623
331.445
331.507
331.635
331.741
331.907
332.063
332.07
332.029
331.926
331.816
331.658
331.53
331.583
331.683
331.94
332.325
323.247
322.938
322.745
322.604
322.489
322.507
322.583
322.682
322.802
322.906
322.927
322.89
322.8
322.729
322.634
322.514
322.574
322.638
322.808
323.095
313.942
313.753
313.65
313.583
313.498
313.506
313.55
313.619
313.696
313.755
313.773
313.757
313.713
313.656
313.608
313.519
313.569
313.578
313.698
313.878
304.681
304.603
304.577
304.561
304.526
304.538
304.536
304.556
304.59
304.607
304.615
304.621
304.594
304.587
304.546
304.537
304.542
304.548
304.592
304.642
371.135
370.077
369.304
368.805
368.464
368.656
368.882
369.133
369.294
369.343
369.489
369.433
369.303
369.124
368.723
368.699
368.78
369.128
369.77
370.662
361.62
360.736
360.083
359.65
359.372
359.541
359.728
359.936
360.062
360.116
360.214
360.171
360.035
359.916
359.561
359.521
359.615
359.918
360.464
361.202
352.119
351.412
350.838
350.487
350.264
350.395
350.543
350.72
350.811
350.887
350.946
350.917
350.762
350.704
350.403
350.366
350.436
350.699
351.161
351.744
342.623
342.08
341.611
341.326
341.141
341.215
341.357
341.512
341.585
341.647
341.681
341.657
341.506
341.494
341.255
341.221
341.255
341.472
341.845
342.286
333.133
332.728
332.389
332.175
332.006
332.062
332.162
332.285
332.353
332.408
332.422
332.398
332.265
332.274
332.093
332.066
332.083
332.249
332.55
332.873
323.652
323.385
323.156
323.001
322.875
322.893
322.957
323.07
323.126
323.162
323.169
323.144
323.038
323.055
322.922
322.897
322.929
323.045
323.246
323.483
314.187
314.04
313.91
313.811
313.744
313.758
313.781
313.852
313.883
313.913
313.915
313.886
313.846
313.859
313.764
313.736
313.771
313.843
313.966
314.106
304.748
304.707
304.661
304.623
304.617
304.609
304.619
304.642
304.655
304.671
304.656
304.653
304.646
304.655
304.617
304.599
304.621
304.646
304.685
304.725
372.06
371.022
370.406
369.803
369.427
369.396
369.686
369.908
370.095
370.21
370.238
370.141
370.04
369.861
369.602
369.74
369.7
370.096
370.654
371.707
362.392
361.496
360.982
360.466
360.132
360.115
360.375
360.564
360.734
360.843
360.836
360.751
360.686
360.515
360.282
360.403
360.372
360.718
361.164
362.069
352.705
351.995
351.55
351.153
350.874
350.848
351.066
351.208
351.374
351.465
351.442
351.371
351.31
351.182
350.964
351.109
351.057
351.348
351.708
352.446
343.069
342.51
342.135
341.869
341.618
341.576
341.781
341.885
342.024
342.112
342.077
342.021
341.957
341.849
341.668
341.82
341.745
341.985
342.283
342.861
333.464
333.059
332.745
332.574
332.385
332.319
332.493
332.588
332.682
332.733
332.716
332.688
332.634
332.557
332.408
332.542
332.451
332.634
332.862
333.304
323.91
323.611
323.397
323.311
323.128
323.1
323.22
323.279
323.338
323.388
323.379
323.361
323.318
323.263
323.163
323.239
323.193
323.314
323.464
323.78
314.379
314.176
314.05
314.014
313.882
313.895
313.945
313.975
314.02
314.055
314.037
314.026
314.009
313.978
313.916
313.954
313.924
314.004
314.086
314.288
304.82
304.748
304.708
304.694
304.648
304.657
304.672
304.676
304.705
304.719
304.717
304.71
304.705
304.691
304.679
304.677
304.663
304.69
304.709
304.795
)
;

boundaryField
{
    hotSide
    {
        type            fixedGradient;
        gradient        nonuniform List<scalar> 
400
(
563.125
561.007
561.742
565.256
571.271
579.383
589.161
600.214
612.223
624.945
638.205
651.89
665.937
680.331
695.096
710.291
725.997
742.304
759.28
776.953
543.567
541.68
542.842
546.96
553.693
562.563
573.075
584.793
597.373
610.559
624.175
638.109
652.307
666.763
681.516
696.644
712.251
728.453
745.342
762.959
532.165
530.806
532.455
537.012
544.133
553.344
564.147
576.106
588.87
602.18
615.855
629.786
643.922
658.264
672.857
687.788
703.171
719.126
735.753
753.098
528.413
527.86
530.074
534.949
542.191
551.39
562.104
573.928
586.526
599.641
613.092
626.769
640.624
654.661
668.931
683.519
698.534
714.088
730.272
747.135
530.345
530.767
533.649
538.878
546.209
555.303
565.788
577.306
589.545
602.26
615.275
628.486
641.85
655.38
669.13
683.186
697.65
712.623
728.188
744.398
535.714
537.19
540.856
546.587
554.161
563.288
573.639
584.893
596.758
609.004
621.467
634.056
646.745
659.565
672.586
685.903
699.619
713.835
728.631
744.061
542.651
545.202
549.755
556.165
564.212
573.616
584.061
595.23
606.835
618.65
630.523
642.388
654.255
666.188
678.293
690.689
703.495
716.818
730.742
745.326
549.7
553.294
558.787
566.018
574.752
584.692
595.497
606.819
618.344
629.827
641.127
652.215
663.155
674.076
685.136
696.496
708.303
720.674
733.701
747.444
555.696
560.214
566.61
574.707
584.251
594.913
606.302
618.006
629.64
640.92
651.706
662.019
672.004
681.879
691.874
702.203
713.04
724.516
736.724
749.721
559.693
564.901
572.018
580.864
591.169
602.572
614.624
626.829
638.712
649.921
660.31
669.96
679.113
688.086
697.184
706.667
716.729
727.511
739.102
751.555
561.017
566.552
574.049
583.328
594.112
606.017
618.556
631.168
643.305
654.559
664.773
674.072
682.77
691.249
699.865
708.902
718.568
729.005
740.301
752.502
559.373
564.79
572.219
581.478
592.284
604.247
616.871
629.591
641.854
653.247
663.612
673.061
681.902
690.513
699.246
708.388
718.152
728.682
740.071
752.368
554.953
559.814
566.74
575.547
585.947
597.556
609.898
622.453
634.729
646.358
657.178
667.248
676.796
686.124
695.541
705.309
715.638
726.679
738.533
751.26
548.46
552.423
558.539
566.629
576.406
587.493
599.443
611.791
624.111
636.082
647.537
658.473
669.02
679.389
689.818
700.536
711.74
723.583
736.178
749.594
541.077
543.926
549.094
556.409
565.583
576.231
587.916
600.202
612.698
625.108
637.254
649.085
660.658
672.108
683.613
695.364
707.545
720.312
733.785
748.038
534.45
536.097
540.314
546.943
555.673
566.086
577.718
590.123
602.916
615.805
628.604
641.231
653.697
666.088
678.543
691.228
704.319
717.977
732.329
747.454
530.742
531.213
534.558
540.629
549.072
559.403
571.104
583.699
596.795
610.098
623.418
636.659
649.806
662.92
676.112
689.537
703.371
717.786
732.918
748.847
532.534
531.992
534.569
540.128
548.271
558.454
570.114
582.751
595.969
609.48
623.093
636.706
650.293
663.894
677.605
691.57
705.964
720.963
736.716
753.296
542.109
540.854
542.758
547.699
555.287
564.982
576.228
588.538
601.528
614.919
628.523
642.234
656.015
669.89
683.938
698.285
713.088
728.516
744.703
761.717
560.169
558.534
559.851
564.022
570.728
579.514
589.901
601.454
613.821
626.737
640.019
653.556
667.298
681.252
695.476
710.065
725.145
740.849
757.28
774.488
)
;
    }
    coldSide
    {
        type            mixed;
        refValue        uniform 300;
        refGradient     uniform 0;
        valueFraction   uniform 0.991591;
        source          uniform 0;
        value           nonuniform List<scalar> 
400
(
300.029
300.029
300.029
300.03
300.03
300.03
300.031
300.032
300.032
300.033
300.034
300.034
300.035
300.036
300.037
300.038
300.039
300.039
300.04
300.041
300.029
300.029
300.029
300.029
300.029
300.03
300.03
300.031
300.032
300.032
300.033
300.034
300.035
300.036
300.036
300.037