/*--------------------------------*- C++ -*----------------------------------*\
| =========                 |                                                 |
| \\      /  F ield         | OpenFOAM: The Open Source CFD Toolbox           |
|  \\    /   O peration     | Version:  2212                                  |
|   \\  /    A nd           | Website:  www.openfoam.com                      |
|    \\/     M anipulation  |                                                 |
\*---------------------------------------------------------------------------*/
FoamFile
{
    version     2.0;
    format      ascii;
    arch        "LSB;label=32;scalar=64";
    class       volScalarField;
    location    "0";
    object      T;
}
// * * * * * * * * * * * * * * * * * * * * * * * * * * * * * * * * * * * * * //

dimensions      [0 0 0 1 0 0 0];

internalField   nonuniform List<scalar> 
3200
(
319.044
319.229
319.584
319.633
319.964
319.973
320.312
320.412
320.361
320.34
320.034
319.998
320.248
320.054
319.784
319.681
319.28
319.051
318.613
318.34
316.631
316.837
317.12
317.173
317.457
317.462
317.766
317.849
317.833
317.816
317.522
317.425
317.696
317.511
317.304
317.199
316.862
316.625
316.291
316.071
314.193
314.361
314.555
314.633
314.889
314.906
315.145
315.203
315.232
315.21
314.885
314.849
315.082
314.904
314.735
314.706
314.373
314.15
313.897
313.721
311.638
311.86
311.964
312.004
312.243
312.225
312.471
312.542
312.53
312.559
312.244
312.206
312.394
312.311
312.118
312.084
311.839
311.645
311.424
311.319
309.087
309.343
309.293
309.318
309.547
309.514
309.724
309.805
309.756
309.812
309.556
309.529
309.69
309.609
309.449
309.424
309.288
309.089
308.946
308.837
306.522
306.739
306.663
306.652
306.857
306.791
306.976
307.043
306.987
307.069
306.843
306.828
306.934
306.9
306.756
306.762
306.693
306.509
306.429
306.323
303.962
304.085
304.015
303.982
304.141
304.109
304.191
304.256
304.191
304.263
304.136
304.085
304.212
304.148
304.044
304.065
304.025
303.93
303.881
303.826
301.354
301.375
301.355
301.319
301.393
301.364
301.409
301.457
301.404
301.432
301.377
301.374
301.423
301.386
301.35
301.333
301.362
301.313
301.313
301.284
319.8
319.931
320.349
320.43
320.887
320.819
321.1
321.282
321.214
321.204
320.9
320.851
320.813
320.798
320.369
320.284
320.086
319.803
319.463
319.093
317.265
317.423
317.772
317.847
318.222
318.161
318.461
318.577
318.52
318.495
318.185
318.159
318.161
318.115
317.789
317.683
317.534
317.25
316.982
316.719
314.664
314.828
315.143
315.204
315.446
315.4
315.756
315.839
315.712
315.733
315.472
315.424
315.476
315.404
315.123
315.022
314.91
314.642
314.464
314.208
312.053
312.155
312.432
312.472
312.686
312.609
312.984
312.996
312.901
312.932
312.759
312.673
312.727
312.635
312.451
312.392
312.294
312.038
311.901
311.703
309.393
309.476
309.674
309.741
309.875
309.852
310.114
310.075
310.038
310.104
310.018
309.898
309.922
309.847
309.762
309.722
309.594
309.405
309.292
309.127
306.757
306.78
306.922
306.957
307.079
307.068
307.219
307.181
307.171
307.223
307.179
307.104
307.079
307.047
307.021
306.995
306.881
306.725
306.679
306.547
304.062
304.074
304.158
304.184
304.27
304.26
304.337
304.302
304.342
304.353
304.343
304.27
304.278
304.245
304.266
304.213
304.18
304.046
304.021
303.924
301.36
301.364
301.383
301.392
301.443
301.415
301.455
301.437
301.454
301.473
301.449
301.434
301.437
301.426
301.443
301.418
301.424
301.37
301.356
301.313
320.637
320.833
321.423
321.468
321.774
321.78
322.102
322.155
322.256
322.438
322.004
321.867
322.042
321.768
321.57
321.487
320.928
320.718
320.411
320.224
317.979
318.138
318.652
318.689
318.981
318.995
319.316
319.331
319.407
319.59
319.165
319.081
319.276
318.994
318.825
318.708
318.217
318.049
317.838
317.687
315.291
315.429
315.816
315.868
316.15
316.194
316.445
316.441
316.483
316.636
316.296
316.235
316.434
316.18
316.049
315.861
315.48
315.363
315.168
315.061
312.565
312.67
312.963
313.049
313.25
313.317
313.491
313.523
313.533
313.674
313.384
313.371
313.531
313.296
313.211
312.972
312.708
312.649
312.47
312.353
309.816
309.899
310.122
310.225
310.343
310.388
310.522
310.53
310.563
310.678
310.477
310.445
310.53
310.368
310.329
310.145
309.921
309.873
309.75
309.637
307.079
307.102
307.231
307.329
307.393
307.441
307.521
307.538
307.546
307.632
307.48
307.49
307.547
307.448
307.391
307.3
307.094
307.09
306.986
306.889
304.258
304.275
304.357
304.385
304.446
304.47
304.504
304.537
304.539
304.59
304.511
304.522
304.53
304.499
304.432
304.373
304.292
304.247
304.199
304.164
301.432
301.441
301.456
301.453
301.481
301.491
301.513
301.539
301.518
301.535
301.504
301.507
301.531
301.507
301.48
301.47
301.457
301.435
301.399
301.398
321.676
322.108
322.241
322.518
322.977
322.964
323.194
323.431
323.482
323.48
323.333
323.156
323.173
323.031
322.554
322.547
322.17
321.906
321.579
321.258
318.885
319.287
319.39
319.631
320.062
319.968
320.221
320.347
320.488
320.467
320.274
320.134
320.215
320.037
319.652
319.657
319.321
319.098
318.792
318.573
316.023
316.371
316.474
316.666
317.08
316.928
317.174
317.254
317.383
317.382
317.17
317.098
317.207
316.978
316.702
316.728
316.435
316.242
315.963
315.837
313.146
313.415
313.525
313.681
314.074
313.897
314.129
314.165
314.213
314.258
314.031
314.042
314.11
313.91
313.762
313.733
313.527
313.36
313.098
313.021
310.209
310.407
310.55
310.663
310.995
310.842
311.027
311.049
311.053
311.12
310.904
310.911
311.001
310.862
310.764
310.746
310.561
310.434
310.237
310.143
307.294
307.424
307.588
307.617
307.88
307.719
307.903
307.914
307.911
307.968
307.778
307.773
307.894
307.785
307.685
307.718
307.563
307.46
307.311
307.233
304.387
304.426
304.56
304.556
304.729
304.618
304.75
304.748
304.734
304.785
304.688
304.651
304.779
304.715
304.613
304.637
304.532
304.511
304.41
304.34
301.476
301.49
301.529
301.51
301.591
301.526
301.605
301.588
301.578
301.597
301.577
301.558
301.585
301.592
301.557
301.563
301.52
301.513
301.482
301.467
322.759
323.081
323.423
323.752
324.062
324.207
324.513
324.459
324.667
324.667
324.541
324.508
324.412
324.255
324.112
323.851
323.442
323.22
322.692
322.24
319.804
320.064
320.351
320.684
320.94
321.03
321.383
321.31
321.466
321.515
321.348
321.337
321.259
321.105
320.978
320.835
320.417
320.286
319.8
319.42
316.802
317.07
317.311
317.562
317.808
317.837
318.208
318.121
318.241
318.323
318.094
318.126
318.034
317.911
317.809
317.716
317.371
317.24
316.825
316.565
313.799
314.015
314.206
314.398
314.605
314.624
314.954
314.874
314.934
315.049
314.784
314.881
314.765
314.744
314.62
314.563
314.3
314.147
313.809
313.614
310.744
310.956
311.086
311.204
311.393
311.386
311.648
311.595
311.611
311.737
311.511
311.602
311.515
311.546
311.421
311.42
311.184
310.972
310.766
310.636
307.702
307.838
307.893
307.993
308.183
308.177
308.355
308.31
308.314
308.401
308.272
308.284
308.242
308.293
308.18
308.184
307.989
307.839
307.692
307.651
304.616
304.721
304.759
304.817
304.935
304.913
305.004
304.988
305.016
305.021
304.99
304.965
304.983
305.002
304.917
304.921
304.806
304.681
304.58
304.624
301.54
301.585
301.598
301.631
301.643
301.648
301.661
301.671
301.714
301.68
301.684
301.655
301.669
301.672
301.651
301.655
301.604
301.561
301.514
301.561
323.722
323.997
324.341
324.764
325.194
325.385
325.632
325.853
325.947
325.988
325.816
325.896
325.697
325.539
325.321
324.966
324.694
324.285
323.887
323.443
320.635
320.91
321.185
321.549
321.899
322.109
322.366
322.488
322.58
322.651
322.503
322.535
322.384
322.269
322.102
321.759
321.492
321.195
320.806
320.474
317.582
317.765
318.03
318.311
318.583
318.739
319.03
319.113
319.158
319.221
319.102
319.172
319.027
318.919
318.811
318.467
318.259
318
317.716
317.472
314.445
314.605
314.846
315.007
315.223
315.397
315.635
315.703
315.676
315.788
315.676
315.737
315.596
315.529
315.443
315.129
314.983
314.757
314.557
314.417
311.256
311.42
311.563
311.701
311.862
312.04
312.188
312.282
312.215
312.311
312.241
312.264
312.165
312.079
312.048
311.779
311.671
311.485
311.322
311.295
307.999
308.187
308.309
308.419
308.488
308.661
308.757
308.823
308.766
308.816
308.772
308.773
308.703
308.678
308.63
308.401
308.347
308.21
308.053
308.117
304.804
304.917
305.043
305.102
305.135
305.207
305.284
305.32
305.275
305.303
305.273
305.263
305.209
305.241
305.252
305.051
304.976
304.934
304.815
304.911
301.609
301.646
301.7
301.726
301.727
301.755
301.774
301.771
301.783
301.769
301.759
301.764
301.741
301.762
301.791
301.68
301.668
301.65
301.604
301.665
324.692
325.039
325.649
325.89
326.208
326.391
326.893
327.06
327.319
327.178
327.002
326.95
326.93
326.766
326.658
326.285
325.889
325.446
325.188
324.67
321.474
321.815
322.316
322.554
322.836
322.96
323.441
323.559
323.779
323.616
323.506
323.465
323.446
323.344
323.236
322.887
322.572
322.196
321.959
321.486
318.24
318.577
319
319.191
319.43
319.46
319.92
320.003
320.197
320.009
319.948
319.912
319.937
319.865
319.749
319.434
319.217
318.856
318.661
318.281
314.987
315.289
315.659
315.782
315.973
315.95
316.395
316.426
316.564
316.369
316.391
316.39
316.378
316.322
316.179
315.906
315.761
315.525
315.301
315.009
311.683
311.96
312.248
312.376
312.47
312.48
312.811
312.848
312.926
312.751
312.785
312.801
312.797
312.732
312.606
312.367
312.309
312.153
311.95
311.754
308.344
308.605
308.761
308.898
308.916
308.958
309.163
309.182
309.265
309.145
309.155
309.183
309.184
309.129
308.997
308.853
308.822
308.746
308.536
308.443
304.967
305.146
305.285
305.357
305.337
305.352
305.502
305.518
305.588
305.542
305.473
305.563
305.525
305.485
305.38
305.347
305.325
305.314
305.089
305.082
301.621
301.703
301.774
301.803
301.792
301.784
301.828
301.84
301.893
301.862
301.85
301.864
301.848
301.832
301.809
301.804
301.792
301.779
301.691
301.714
325.718
326.341
326.636
327.108
327.365
327.693
327.908
328.184
328.58
328.277
328.279
328.159
328.121
328.065
327.993
327.434
327.09
326.616
326.302
325.71
322.351
322.914
323.192
323.641
323.812
324.117
324.305
324.559
324.875
324.62
324.643
324.51
324.443
324.45
324.36
323.866
323.603
323.214
322.922
322.41
318.983
319.447
319.745
320.093
320.189
320.466
320.63
320.89
321.108
320.897
320.952
320.801
320.764
320.793
320.696
320.282
320.071
319.745
319.524
319.065
315.546
315.965
316.243
316.474
316.593
316.826
316.942
317.164
317.28
317.133
317.172
317.081
317.043
317.061
317.009
316.657
316.539
316.216
316.059
315.671
312.093
312.459
312.691
312.857
312.956
313.152
313.237
313.359
313.43
313.364
313.326
313.347
313.296
313.301
313.264
313
312.907
312.651
312.546
312.296
308.658
308.968
309.118
309.186
309.288
309.422
309.452
309.543
309.578
309.561
309.529
309.569
309.526
309.537
309.49
309.318
309.284
309.049
309.01
308.849
305.189
305.411
305.488
305.525
305.567
305.672
305.649
305.708
305.736
305.734
305.747
305.742
305.734
305.738
305.704
305.626
305.61
305.422
305.447
305.336
301.722
301.821
301.85
301.854
301.883
301.886
301.884
301.916
301.92
301.889
301.916
301.912
301.935
301.919
301.915
301.895
301.888
301.832
301.826
301.81
326.874
327.364
327.867
328.242
328.542
328.867
329.135
329.313
329.618
329.568
329.678
329.485
329.187
329.334
329.079
328.619
328.183
327.719
327.456
327.056
323.391
323.84
324.281
324.603
324.836
325.101
325.394
325.491
325.803
325.751
325.852
325.65
325.39
325.529
325.322
324.966
324.524
324.121
323.911
323.568
319.824
320.275
320.632
320.889
321.111
321.276
321.564
321.646
321.933
321.874
321.954
321.819
321.555
321.662
321.5
321.233
320.848
320.471
320.307
320.029
316.251
316.68
316.965
317.127
317.323
317.424
317.653
317.804
318.052
317.965
318.017
317.907
317.732
317.783
317.632
317.463
317.124
316.804
316.666
316.395
312.686
313.023
313.228
313.345
313.534
313.522
313.742
313.879
314.087
313.981
314.028
313.981
313.843
313.86
313.758
313.637
313.386
313.09
312.992
312.784
309.067
309.31
309.469
309.528
309.688
309.669
309.832
309.964
310.097
310.002
310.075
310.019
309.926
309.912
309.836
309.78
309.602
309.344
309.286
309.148
305.475
305.624
305.692
305.717
305.824
305.823
305.913
306.003
306.058
306.022
306.099
306.036
305.966
305.926
305.885
305.913
305.808
305.605
305.571
305.479
301.826
301.907
301.907
301.935
301.955
301.965
302
302.021
302.031
302.007
302.055
302.032
302.003
301.981
301.966
301.989
301.946
301.882
301.857
301.822
327.738
328.472
328.968
329.269
329.653
330.066
330.393
330.398
330.747
330.634
330.777
330.694
330.561
330.423
330.026
329.824
329.492
329.007
328.349
327.913
324.135
324.793
325.214
325.501
325.81
326.145
326.457
326.52
326.781
326.661
326.793
326.762
326.607
326.508
326.076
325.99
325.642
325.217
324.661
324.3
320.498
321.079
321.391
321.669
321.941
322.182
322.469
322.546
322.727
322.627
322.734
322.752
322.599
322.496
322.136
322.052
321.721
321.382
320.929
320.66
316.878
317.269
317.546
317.758
318.029
318.14
318.402
318.487
318.639
318.584
318.627
318.685
318.523
318.421
318.136
318.078
317.781
317.494
317.167
316.971
313.126
313.446
313.644
313.83
314.027
314.111
314.319
314.405
314.525
314.51
314.527
314.557
314.431
314.347
314.128
314.09
313.856
313.646
313.385
313.235
309.366
309.603
309.756
309.852
309.994
310.062
310.212
310.286
310.416
310.373
310.39
310.414
310.332
310.257
310.078
310.102
309.955
309.773
309.574
309.461
305.61
305.759
305.86
305.901
306.003
306.067
306.123
306.165
306.258
306.208
306.256
306.263
306.203
306.156
306.037
306.1
305.995
305.883
305.751
305.693
301.868
301.934
301.966
301.972
302.008
302.03
302.058
302.067
302.104
302.068
302.112
302.118
302.08
302.073
302.04
302.032
302.012
301.974
301.936
301.919
328.768
329.33
329.862
330.463
330.786
331.313
331.473
331.648
331.615
331.91
331.837
331.836
331.723
331.717
331.119
330.943
330.456
329.976
329.453
329.061
325.072
325.521
325.971
326.46
326.768
327.278
327.423
327.554
327.526
327.782
327.682
327.681
327.602
327.62
327.072
326.962
326.544
326.117
325.655
325.32
321.274
321.708
322.047
322.405
322.712
323.201
323.295
323.394
323.387
323.543
323.491
323.5
323.417
323.443
322.961
322.872
322.574
322.247
321.764
321.551
317.443
317.788
318.082
318.375
318.669
319.075
319.108
319.211
319.172
319.303
319.269
319.262
319.198
319.183
318.86
318.781
318.529
318.287
317.888
317.731
313.585
313.862
314.085
314.314
314.587
314.91
314.877
314.983
314.957
315.062
315.01
315.019
314.95
314.936
314.681
314.645
314.437
314.251
313.971
313.889
309.701
309.93
310.062
310.187
310.417
310.695
310.646
310.735
310.751
310.784
310.744
310.762
310.685
310.695
310.454
310.471
310.326
310.204
310.008
309.931
305.808
305.993
306.062
306.113
306.262
306.45
306.42
306.44
306.484
306.48
306.462
306.494
306.417
306.386
306.266
306.296
306.197
306.129
306.041
305.976
301.94
302.028
302.04
302.045
302.072
302.178
302.146
302.176
302.175
302.175
302.168
302.201
302.153
302.132
302.109
302.109
302.073
302.077
302.018
302.019
329.672
330.211
331.01
331.45
331.641
332.089
332.434
332.861
332.824
332.878
332.913
332.886
332.841
332.578
332.303
332.045
331.441
331.071
330.434
330
325.822
326.328
327.019
327.353
327.555
327.961
328.216
328.586
328.589
328.583
328.674
328.616
328.604
328.408
328.167
327.88
327.373
327.056
326.442
326.112
321.932
322.379
322.944
323.203
323.456
323.778
323.929
324.25
324.266
324.254
324.36
324.252
324.279
324.173
323.947
323.66
323.227
322.988
322.471
322.212
318.036
318.382
318.814
319.007
319.259
319.531
319.62
319.851
319.947
319.935
320.023
319.92
319.927
319.872
319.675
319.39
319.029
318.885
318.44
318.234
314.068
314.349
314.656
314.78
315.062
315.237
315.266
315.464
315.586
315.555
315.644
315.526
315.504
315.495
315.321
315.094
314.821
314.736
314.38
314.212
310.062
310.273
310.437
310.551
310.796
310.948
310.917
311.045
311.162
311.141
311.242
311.114
311.078
311.08
310.988
310.759
310.587
310.532
310.292
310.163
306.049
306.18
306.264
306.344
306.499
306.612
306.572
306.626
306.729
306.704
306.779
306.693
306.644
306.64
306.61
306.471
306.344
306.314
306.158
306.102
302.053
302.074
302.1
302.122
302.18
302.228
302.212
302.211
302.25
302.248
302.268
302.241
302.208
302.232
302.23
302.166
302.119
302.116
302.04
302.036
330.5
331.018
331.804
332.353
332.698
332.991
333.453
333.647
333.898
333.754
334.059
334.068
333.834
333.608
333.482
333.158
332.529
331.961
331.319
330.768
326.528
327.008
327.647
328.139
328.411
328.756
329.143
329.289
329.527
329.367
329.68
329.61
329.411
329.228
329.142
328.843
328.323
327.815
327.256
326.769
322.537
322.925
323.424
323.926
324.127
324.431
324.773
324.891
325.086
324.944
325.196
325.119
324.933
324.816
324.761
324.476
324.029
323.622
323.127
322.748
318.485
318.8
319.207
319.642
319.822
320.053
320.363
320.438
320.603
320.51
320.68
320.63
320.439
320.384
320.32
320.079
319.694
319.419
318.966
318.637
314.445
314.67
314.973
315.266
315.457
315.668
315.869
315.95
316.048
316.004
316.171
316.089
315.931
315.893
315.849
315.644
315.364
315.189
314.781
314.483
310.318
310.449
310.737
310.93
311.07
311.262
311.354
311.456
311.464
311.461
311.593
311.533
311.4
311.354
311.364
311.179
310.993
310.881
310.572
310.35
306.222
306.275
306.447
306.58
306.653
306.774
306.84
306.923
306.877
306.854
306.975
306.921
306.841
306.826
306.814
306.724
306.605
306.509
306.368
306.227
302.087
302.106
302.16
302.206
302.236
302.276
302.292
302.327
302.297
302.301
302.362
302.311
302.292
302.278
302.284
302.277
302.211
302.16
302.117
302.094
331.193
331.698
332.419
332.958
333.635
333.98
334.502
334.446
334.794
334.765
335.135
334.906
334.712
334.484
334.335
333.832
333.219
332.815
332.251
331.503
327.151
327.575
328.181
328.671
329.266
329.542
330.017
329.978
330.308
330.216
330.546
330.361
330.172
330.003
329.881
329.471
328.868
328.51
328.015
327.429
323.046
323.378
323.863
324.329
324.882
325.074
325.494
325.452
325.735
325.604
325.9
325.792
325.609
325.459
325.379
325.067
324.499
324.192
323.768
323.298
318.883
319.111
319.543
319.945
320.438
320.596
320.921
320.894
321.137
320.989
321.233
321.173
321.015
320.888
320.823
320.541
320.085
319.805
319.523
319.137
314.69
314.878
315.204
315.536
315.919
316.019
316.295
316.302
316.467
316.352
316.584
316.52
316.38
316.264
316.209
316.042
315.655
315.448
315.281
314.945
310.509
310.672
310.858
311.132
311.387
311.436
311.643
311.643
311.757
311.677
311.897
311.815
311.734
311.635
311.596
311.496
311.225
311.09
310.95
310.728
306.309
306.417
306.519
306.703
306.868
306.87
306.987
306.985
307.064
307.02
307.204
307.109
307.035
307.014
306.965
306.907
306.758
306.703
306.599
306.46
302.105
302.157
302.169
302.254
302.303
302.282
302.334
302.351
302.386
302.355
302.43
302.376
302.388
302.344
302.346
302.305
302.294
302.248
302.204
302.162
331.88
332.51
333.197
334.017
334.651
334.993
335.14
335.396
335.58
336.036
335.815
335.783
335.685
335.334
335.083
334.736
334.226
333.526
333.141
332.332
327.727
328.274
328.882
329.631
330.106
330.408
330.538
330.804
330.932
331.354
331.201
331.16
331.07
330.72
330.55
330.233
329.77
329.194
328.813
328.165
323.529
324.022
324.503
325.118
325.532
325.766
325.908
326.161
326.244
326.613
326.513
326.444
326.392
326.086
325.95
325.689
325.232
324.763
324.468
323.892
319.264
319.694
320.038
320.584
320.903
321.124
321.216
321.446
321.567
321.796
321.793
321.669
321.634
321.473
321.276
321.075
320.715
320.304
320.117
319.569
315
315.329
315.604
316.015
316.301
316.461
316.539
316.711
316.856
316.956
317.02
316.857
316.866
316.781
316.562
316.401
316.171
315.813
315.733
315.261
310.745
310.957
311.124
311.451
311.664
311.764
311.838
311.902
312.083
312.149
312.175
312.053
312.078
312.026
311.844
311.712
311.578
311.276
311.252
310.917
306.483
306.579
306.671
306.83
307.017
307.054
307.096
307.151
307.248
307.279
307.35
307.243
307.273
307.218
307.133
307.062
306.967
306.751
306.763
306.558
302.193
302.205
302.221
302.283
302.342
302.349
302.39
302.396
302.437
302.434
302.483
302.434
302.454
302.421
302.401
302.367
302.329
302.264
302.247
302.197
332.609
333.313
333.995
334.626
335.261
335.598
335.993
336.352
336.647
336.9
336.749
336.571
336.393
336.273
336.094
335.571
334.94
334.315
333.919
332.957
328.362
329.016
329.566
330.131
330.659
330.995
331.322
331.619
331.883
332.044
331.988
331.778
331.659
331.553
331.357
330.944
330.414
329.865
329.524
328.616
324.108
324.638
325.049
325.53
325.986
326.349
326.583
326.857
327.086
327.179
327.159
326.938
326.853
326.796
326.601
326.248
325.808
325.348
325.08
324.241
319.788
320.235
320.5
320.902
321.315
321.62
321.79
322.044
322.236
322.267
322.286
322.103
322.017
322.025
321.819
321.518
321.21
320.813
320.61
319.836
315.434
315.795
315.99
316.288
316.592
316.88
316.999
317.196
317.304
317.332
317.371
317.241
317.173
317.189
317.009
316.777
316.561
316.171
316.037
315.476
311.042
311.276
311.46
311.626
311.882
312.123
312.194
312.31
312.382
312.408
312.444
312.351
312.273
312.304
312.124
312.015
311.906
311.521
311.471
311.091
306.621
306.746
306.889
306.952
307.12
307.303
307.368
307.411
307.45
307.47
307.487
307.451
307.336
307.418
307.282
307.224
307.168
306.908
306.901
306.698
302.235
302.245
302.313
302.324
302.393
302.469
302.479
302.483
302.498
302.519
302.531
302.488
302.444
302.484
302.448
302.416
302.385
302.327
302.308
302.258
333.423
333.988
334.593
335.332
335.683
336.33
336.699
336.993
337.271
337.473
337.339
337.345
336.984
336.826
336.716
336.228
335.845
335.119
334.506
333.674
329.12
329.562
330.081
330.765
330.999
331.6
331.908
332.174
332.388
332.615
332.488
332.466
332.149
332.018
331.901
331.498
331.172
330.531
330.05
329.28
324.741
325.087
325.534
326.144
326.312
326.865
327.091
327.334
327.494
327.677
327.621
327.551
327.299
327.197
327.078
326.725
326.48
325.919
325.518
324.877
320.253
320.589
320.961
321.454
321.548
322.064
322.285
322.433
322.532
322.741
322.7
322.622
322.393
322.345
322.228
321.916
321.735
321.26
320.906
320.437
315.777
316.048
316.337
316.694
316.788
317.187
317.418
317.502
317.574
317.773
317.693
317.658
317.455
317.403
317.346
317.059
316.937
316.583
316.339
315.895
311.208
311.506
311.691
311.961
312.013
312.308
312.47
312.515
312.582
312.753
312.643
312.663
312.519
312.411
312.406
312.175
312.129
311.878
311.712
311.339
306.73
306.948
306.984
307.189
307.246
307.384
307.49
307.522
307.565
307.684
307.608
307.621
307.518
307.423
307.453
307.308
307.322
307.16
307.071
306.853
302.262
302.348
302.33
302.42
302.442
302.469
302.519
302.502
302.551
302.571
302.551
302.563
302.528
302.484
302.509
302.438
302.474
302.4
302.354
302.3
333.831
334.593
335.134
335.724
336.272
336.904
337.417
337.751
337.729
337.917
338.054
338.031
337.775
337.541
337.346
336.864
336.596
335.704
335.25
334.4
329.458
330.12
330.605
331.128
331.537
332.088
332.511
332.832
332.839
332.945
333.111
333.087
332.836
332.623
332.462
332.089
331.79
331.039
330.721
329.899
325.024
325.521
325.972
326.448
326.805
327.221
327.566
327.873
327.888
328.038
328.147
328.122
327.861
327.693
327.528
327.235
326.961
326.355
326.1
325.361
320.545
320.883
321.321
321.687
322
322.327
322.596
322.852
322.866
323.053
323.099
323.058
322.836
322.72
322.605
322.337
322.121
321.652
321.408
320.791
316.026
316.234
316.653
316.93
317.154
317.441
317.628
317.794
317.778
317.977
317.998
317.991
317.829
317.728
317.656
317.386
317.231
316.921
316.713
316.23
311.447
311.598
311.927
312.112
312.265
312.489
312.594
312.756
312.697
312.895
312.864
312.883
312.767
312.664
312.681
312.458
312.329
312.138
311.994
311.639
306.883
306.979
307.19
307.239
307.388
307.513
307.575
307.655
307.629
307.768
307.752
307.731
307.684
307.627
307.64
307.491
307.413
307.31
307.232
306.985
302.288
302.339
302.412
302.424
302.479
302.507
302.547
302.557
302.559
302.596
302.602
302.579
302.599
302.538
302.556
302.529
302.488
302.462
302.42
302.312
334.253
334.904
335.492
336.262
336.874
337.484
337.677
338.346
338.391
338.651
338.546
338.596
338.354
338.225
337.856
337.421
337.094
336.263
335.753
334.923
329.871
330.404
330.907
331.495
332.092
332.594
332.736
333.366
333.39
333.604
333.468
333.588
333.39
333.214
332.93
332.518
332.268
331.525
331.087
330.406
325.414
325.827
326.276
326.684
327.273
327.647
327.77
328.325
328.355
328.524
328.366
328.545
328.348
328.163
327.954
327.604
327.378
326.772
326.397
325.825
320.862
321.216
321.535
321.844
322.376
322.706
322.762
323.264
323.282
323.358
323.241
323.417
323.245
323.08
322.938
322.648
322.462
322.022
321.658
321.185
316.263
316.562
316.749
317.011
317.415
317.738
317.743
318.146
318.207
318.2
318.113
318.235
318.124
317.949
317.89
317.684
317.523
317.164
316.946
316.503
311.625
311.851
311.977
312.167
312.426
312.718
312.685
312.995
313.048
313.045
312.976
313.035
312.942
312.799
312.791
312.646
312.555
312.265
312.142
311.815
306.973
307.13
307.17
307.311
307.47
307.631
307.641
307.825
307.842
307.848
307.788
307.81
307.751
307.696
307.679
307.635
307.566
307.343
307.3
307.129
302.344
302.39
302.409
302.447
302.505
302.55
302.56
302.607
302.62
302.64
302.61
302.618
302.589
302.597
302.567
302.56
302.532
302.459
302.446
302.393
334.583
335.059
335.824
336.538
337.125
337.634
338.154
338.467
338.455
338.592
338.898
338.987
338.981
338.696
338.057
337.466
337.318
336.517
335.941
335.319
330.1
330.501
331.126
331.821
332.233
332.744
333.166
333.471
333.438
333.539
333.767
333.906
333.859
333.612
333.098
332.513
332.431
331.736
331.224
330.73
325.564
325.887
326.391
327.051
327.314
327.764
328.158
328.415
328.343
328.456
328.577
328.759
328.707
328.508
328.095
327.575
327.49
326.928
326.488
326.068
320.969
321.218
321.586
322.174
322.341
322.751
323.134
323.273
323.232
323.36
323.354
323.568
323.518
323.398
322.99
322.575
322.52
322.104
321.716
321.37
316.372
316.566
316.76
317.266
317.381
317.721
318.057
318.163
318.101
318.228
318.186
318.36
318.291
318.24
317.899
317.543
317.536
317.233
316.926
316.653
311.718
311.927
311.931
312.381
312.364
312.676
312.924
313.019
312.989
313.081
312.983
313.085
313.075
313.011
312.82
312.522
312.553
312.369
312.102
311.928
307.036
307.181
307.125
307.445
307.406
307.636
307.763
307.801
307.811
307.873
307.814
307.807
307.836
307.816
307.694
307.534
307.572
307.459
307.282
307.155
302.366
302.416
302.395
302.488
302.46
302.575
302.583
302.61
302.62
302.654
302.615
302.595
302.633
302.612
302.572
302.52
302.562
302.493
302.437
302.401
)
;

boundaryField
{
    hotSide
    {
        type            fixedGradient;
        gradient        nonuniform List<scalar> 
400
(
184.459
195.69
206.948
218.181
229.338
240.369
251.218
261.835
272.164
282.156
291.757
300.919
309.594
317.736
325.302
332.253
338.554
344.17
349.075
353.244
187.408
198.998
210.62
222.223
233.754
245.16
256.385
267.375
278.075
288.431
298.389
307.899
316.911
325.377
333.253
340.498
347.074
352.948
358.089
362.473
189.892
201.814
213.774
225.721
237.599
249.355
260.93
272.269
283.316
294.013
304.307
314.144
323.473
332.245
340.414
347.937
354.775
360.893
366.26
370.85
191.924
204.148
216.418
228.68
240.878
252.955
264.853
276.514
287.88
298.894
309.498
319.638
329.262
338.318
346.759
354.542
361.625
367.972
373.552
378.337
193.52
206.017
218.566
231.113
243.599
255.967
268.157
280.11
291.767
303.067
313.954
324.371
334.264
343.58
352.272
360.293
367.602
374.161
379.938
384.903
194.701
207.438
220.233
233.031
245.772
258.398
270.848
283.061
294.976
306.533
317.673
328.337
338.471
348.022
356.938
365.174
372.687
379.438
385.394
390.525
195.487
208.43
221.437
234.451
247.412
260.261
272.936
285.374
297.513
309.293
320.653
331.534
341.879
351.634
360.748
369.174
376.867
383.788
389.902
395.18
195.898
209.011
222.194
235.387
248.532
261.567
274.429
287.056
299.384
311.352
322.897
333.96
344.484
354.413
363.695
372.282
380.13
387.197
393.448
398.853
195.954
209.201
222.521
235.856
249.145
262.327
275.339
288.116
300.595
312.712
324.407
335.617
346.285
356.355
365.774
374.493
382.467
389.654
396.018
401.529
195.671
209.013
222.431
235.869
249.263
262.552
275.673
288.56
301.15
313.379
325.185
336.505
347.282
357.459
366.981
375.801
383.871
391.151
397.604
403.198
195.063
208.46
221.938
235.437
248.895
262.25
275.439
288.395
301.056
313.356
325.233
336.626
347.474
357.721
367.313
376.201
384.338
391.682
398.196
403.849
194.139
207.552
221.048
234.567
248.047
261.427
274.641
287.625
300.314
312.645
324.554
335.978
346.859
357.14
366.767
375.69
383.861
391.24
397.789
403.477
192.905
206.294
219.766
233.263
246.724
260.085
273.282
286.251
298.927
311.246
323.145
334.562
345.438
355.716
365.341
374.264
382.439
389.823
396.379
402.075
191.362
204.686
218.094
231.528
244.925
258.225
271.362
284.273
296.894
309.159
321.008
332.377
343.208
353.445
363.033
371.923
380.068
387.427
393.962
399.643
189.509
202.728
216.03
229.358
242.65
255.845
268.88
281.69
294.213
306.383
318.14
329.422
340.17
350.328
359.843
368.665
376.749
384.053
390.54
396.179
187.341
200.414
213.569
226.75
239.895
252.944
265.833
278.501
290.883
302.917
314.542
325.697
336.323
346.366
355.773
364.494
372.485
379.705
386.116
391.689
184.85
197.738
210.706
223.698
236.655
249.516
262.219
274.702
286.904
298.761
310.214
321.203
331.671
341.563
350.827
359.415
367.283
374.389
380.699
386.182
182.029
194.692
207.434
220.198
232.926
245.559
258.035
270.294
282.275
293.917
305.16
315.946
326.22
335.926
345.014
353.438
361.153
368.119
374.303
379.673
178.867
191.27
203.747
216.245
228.706
241.071
253.282
265.278
277.001
288.39
299.387
309.935
319.979
329.467
338.349
346.578
354.112
360.913
366.946
372.183
175.358
187.464
199.642
211.836
223.993
236.054
247.963
259.66
271.088
282.189
292.905
303.182
312.965
322.204
330.849
338.857
346.185
352.797
358.658
363.741
)
;
    }
    coldSide
    {
        type            mixed;
        refValue        uniform 300;
        refGradient     uniform 0;
        valueFraction   uniform 0.991591;
        source          uniform 0;
        value           nonuniform List<scalar> 
400
(
300.011
300.011
300.012
300.012
300.013
300.014
300.014
300.014
300.015
300.016
300.016
300.017
300.018
300.018
300.018
300.019
300.019
300.019
300.02
300.02
300.012
300.011
300.012
300.013
300.013
300.014
300.014
300.015
300.016
300.016
300.017
300.017
300.018
300.018
300.019
300.019
300.02
300.02
300.02
300.02
300.011