/*--------------------------------*- C++ -*----------------------------------*\
| =========                 |                                                 |
| \\      /  F ield         | OpenFOAM: The Open Source CFD Toolbox           |
|  \\    /   O peration     | Version:  2212                                  |
|   \\  /    A nd           | Website:  www.openfoam.com                      |
|    \\/     M anipulation  |                                                 |
\*---------------------------------------------------------------------------*/
FoamFile
{
    version     2.0;
    format      ascii;
    arch        "LSB;label=32;scalar=64";
    class       volScalarField;
    location    "0";
    object      stateMean;
}
// * * * * * * * * * * * * * * * * * * * * * * * * * * * * * * * * * * * * * //

dimensions      [0 0 0 1 0 0 0];

internalField   nonuniform List<scalar> 
3200
(
340.734
346.893
343.545
351.192
349.969
352.031
351.379
349.995
352.958
351.378
349.723
348.044
350.312
349.829
350.399
350.118
345.629
344.981
345.384
340.401
337.163
340.127
342.196
340.927
343.919
345.198
347.593
345.374
343.169
343.514
339.626
344.261
342.708
344.266
341.348
341.966
340.348
342.105
336.078
338.105
334.425
335.762
337.931
335.189
337.155
339.378
335.852
339.501
334.852
339.156
339.683
337.168
333.775
336.099
334.639
334.736
332.326
335.446
332.968
327.627
324.671
326.424
326.539
330.834
328.885
331.819
328.329
328.936
327.869
331.964
328.075
327.969
330.431
332.551
328.977
330.947
328.9
323.451
329.967
325.327
323.504
323.813
323.996
321.538
323.62
326.171
322.564
323.952
323.24
324.049
323.027
324.973
321.88
324.526
323.619
320.355
321.961
323.129
323.034
318.193
318.062
314.973
315.895
317.674
315.81
314.388
313.239
315.376
318.509
317.495
314.348
315.56
318.212
316.623
318.32
316.833
315.854
315.085
313.838
313.771
307.538
312.37
310.036
307.233
308.072
310.367
307.466
310.48
308.727
310.474
311.838
310.429
310.688
310.76
310.814
308.784
307.702
308.042
308.449
313.117
301.886
301.244
301.174
304.542
306.52
302.297
308.104
304.744
303.944
302.727
306.022
303.952
302.417
302.54
304.033
302.024
303.478
299.963
300.585
302.762
349.814
346.45
347.025
349.772
351.158
351.274
351.747
354.436
352.093
350.934
349.297
351.4
350.409
351.843
349.749
345.447
347.599
346.332
344.443
344.932
336.563
342.914
339.744
346.411
344.281
344.878
342.045
346.607
344.153
347.545
347.35
343.339
345.659
344.347
343.766
340.679
342.711
344.049
340.226
338.802
332.067
336.721
334.667
338.488
338.961
339.326
336.091
336.123
340.696
337.22
338.441
336.46
338.697
335.152
335.585
336.754
334.263
331.71
333.36
334.323
331.678
329.686
330.836
329.591
330.838
330.129
330.054
330.714
331.135
332.146
332.163
330.868
330.754
329.806
329.163
327.294
325.955
324.543
326.704
328.374
321.496
318.994
321.038
321.214
323.456
322.723
324.041
324.118
323.969
325.316
323.998
325.544
320.741
321.901
326.184
323.948
323.586
320.169
322.571
319.772
311.951
317.382
316.405
318.032
315.108
318.324
319.012
316.595
318.174
317.131
319.44
320.023
317.917
317.572
318.77
313.96
316.974
317.912
315.33
312.295
308.832
310.115
309.386
309.437
311.501
309.148
308.246
310.373
308.04
309.742
310.964
313.703
312.892
309.592
309.254
310.111
309.589
309.057
310.602
307.66
306.459
303.123
300.844
304.956
303.85
306.369
299.323
302.566
306.306
303.069
305.777
305.51
303.108
301.988
309.8
303.142
302.676
305.079
300.551
302.189
346.722
345.553
349.629
351.535
350.182
351.341
355.998
352.459
349.838
356.394
353.459
349.62
351.607
353.063
351.595
351.955
351.636
347.734
345.706
343.88
340.411
341.036
338.777
342.964
348.245
348.371
344.841
347.291
346.604
345.365
345.254
343.109
345.091
347.388
343.212
344.413
344.207
343.771
342.208
343.224
334.955
334.348
337.391
334.992
340.675
340.551
337.698
338.526
338.049
338.192
338.564
337.933
336.965
336.365
334.559
335.274
337.337
335.075
332.78
333.529
326.998
330.306
330.376
326.633
330.332
330.228
331.298
331.409
329.26
335.934
332.623
327.953
328.362
331.624
330.355
329.495
330.675
326.008
327.935
325.908
321.994
321.932
323.251
326.661
327.376
321.773
325.264
327.928
328.177
325.826
321.166
326.876
326.736
326.189
327.626
323.344
324.682
316.273
318.005
320.488
311.482
315.558
316.004
315.413
315.98
320.093
320.083
315.627
318.905
317.641
319.585
319.535
316.559
321.99
315.668
320.107
315.822
315.095
314.78
311.903
308.523
310.965
311.731
312.814
308.439
309.327
312.917
309.314
312.806
311.607
313.105
309.142
312.332
310.528
309.988
314.089
307.084
311.188
307.222
310.691
303.664
303.943
302.786
301.954
304.511
302.691
303.494
305.389
302.726
303.641
303.315
305.836
305.872
299.407
304.778
306.654
306.16
301.377
303.277
303.89
347.19
346.655
348.821
351.925
354.208
351.39
352.572
353.824
356.043
353.602
350.555
355.824
353.939
351.87
351.182
348.817
351.907
349.333
349.62
345.185
341.766
343.858
342.944
344.336
344.625
344.705
345.575
346.04
347.788
347.697
347.978
348.212
346.13
344.228
345.014
342.822
343.823
342.67
340.953
342.311
334.201
335.131
337.348
338.075
342.447
337.052
340.715
341.367
339.261
340.429
340.369
339.589
341.435
337.293
339.184
337.698
335.897
335.534
336.795
336.792
331.571
329.979
330.79
329.847
330.236
335.169
331.907
334.449
333.163
332.35
333.979
332.161
332.483
333.52
326.955
335.164
329.747
329.114
331.925
325.518
323.158
323.735
321.287
328.605
330.303
325.217
322.735
325.931
323.808
326.785
324.039
323.961
322.225
324.111
323.438
324.434
324.553
323.902
324.321
322.965
313.142
314.88
317.688
318.963
317.141
316.82
317.753
320.723
320.839
317.375
318.866
318.781
317.621
317.972
316.089
317.784
320.286
316.826
315.888
318.041
314.432
310.826
312.073
309.514
309.085
309.735
312.679
312.505
310.797
306.773
309.618
311.606
310.327
311.74
310.971
310.986
310.141
306.595
308.321
310.107
300.527
305.249
301.998
304.95
307.099
306.205
303.483
303.087
304.565
304.74
301.846
303.259
302.016
299.724
304.631
303.826
304.12
302.516
298.425
304.354
347.523
349.376
351.304
354.627
356.064
355.179
356.183
355.993
356.299
357.822
355.565
354.86
351.015
352.732
350.485
352.057
352.749
350.824
350.053
349.768
344.638
343.755
343.484
350.564
346.532
348.186
345.104
348.626
348.197
349.951
347.724
346.563
347.79
347.871
345.816
343.968
346.812
345.18
342.841
343.739
336.059
339.851
336.244
339.625
340.335
341.495
340.816
339.932
343.007
342.83
339.262
343.701
340.487
342.22
341.012
342.029
338.881
337.84
336.806
330.328
328.302
332.335
333.481
332.358
333.168
332.938
335.658
334.375
335.929
334.138
330.579
333.548
331.697
331.184
331.412
331.348
332.07
331.325
330.021
329.507
323.95
324.261
326.779
324.945
324.384
324.935
323.949
323.481
327.734
322.194
323.493
326.644
328.636
325.447
324.848
322.466
323.027
323.626
325.113
323.87
314.368
315.433
319.309
319.215
317.704
316.323
319.74
317.609
318.908
319.801
320.191
318.899
316.643
317.419
317.585
315.659
317.492
315.707
316.736
314.367
309.878
307.943
309.721
310
310.335
307.493
311.605
309.611
313.48
309.786
309.086
311.309
312.509
313.354
312.027
310.022
308.467
307.706
314.646
306.632
302.743
301.638
303.872
306.416
301.27
306.155
303.353
309.385
301.228
300.105
301.445
303.659
307.235
304.824
304.618
302.894
305.227
302.649
306.744
303.426
347.273
351.931
351.515
353.492
357.11
355.553
355.537
358.294
355.23
357.38
357.438
354.516
359.752
353.771
354.625
355.257
352.297
350.893
351.668
348.954
341.067
343.037
344.395
341.802
345.537
344.899
353.115
347.846
350.148
347.878
347.941
345.903
346.438
343.396
346.188
346.321
344.73
346.288
342.706
344.881
336.27
338.478
339.607
339.277
340.765
341.427
342.233
342.451
343.764
338.005
339.738
342.811
341.636
340.058
338.907
338.738
340.195
338.009
338.058
339.908
328.56
329.488
335.041
331.592
330.148
330.196
330.54
335.063
335.421
333.5
331.725
334.201
336.224
335.716
331.086
330.278
334.535
332.275
328.268
332.835
322.744
325.098
321.395
323.583
326.661
329.274
325.422
322.425
327.122
329.506
327.188
325.442
325.661
323.173
326.927
326.813
324.649
325.81
319.784
325.821
318.406
312.856
316.82
319.06
319.32
319.464
319.699
320.67
318.188
320.106
319.594
319.354
315.429
316.786
317.002
317.639
321.318
317.838
318.661
314.737
309.095
311.761
309.63
314.335
312.557
310.47
312.472
311.198
311.832
310.09
310.22
310.165
310.2
311.521
311.791
311.512
310.947
311.465
309.321
312.503
302.199
304.897
302.619
299.562
304.988
303.337
301.161
302.901
304.649
298.144
302.965
302.302
304.379
304.769
299.644
301.908
306.45
303.985
304.373
302.543
351.489
358.172
356.369
356.66
353.067
358.053
356.79
358.997
359.064
357.264
355.962
356.936
355.836
356.759
354.94
353.387
353.667
353.832
349.647
350.959
345.139
347.06
342.379
346.885
344.884
348.407
350.139
348.816
350.478
348.206
349.37
352.519
350.035
351.836
348.902
345.553
346.401
344.933
343.296
342.547
339.802
338.833
338.687
342.24
340.391
344.347
340.912
342.552
343.071
338.221
338.25
343.354
341.418
343.469
342.953
338.917
340.139
338.796
338.347
340.532
333.236
329.864
334.758
330.11
332.954
333.148
334.06
334.768
333.218
334.48
337.934
331.4
333.974
333.432
332.942
336.242
330.84
335.553
333.706
332.657
324.178
324.575
321.576
325.214
327.489
326.865
329.346
325.288
328.641
325.588
330.361
323.124
324.253
323.166
323.896
326.225
324.851
324.76
324.56
323.254
316.365
318.342
317.567
316.608
315.721
321.84
321.692
319.38
318.164
320.791
317.026
317.681
318.232
321.658
316.765
319.521
322.027
319.696
318.527
314.157
316.234
312.514
308.94
309.7
308.006
311.557
313.201
309.593
309.821
311.686
310.794
312.485
310.956
311.21
313.995
307.766
309.703
309.88
310.345
311.103
304.93
301.762
304.801
301.967
301.651
304.465
305.085
299.98
301.82
305.612
307.039
302.082
304.306
305.129
304.203
304.494
300.794
302.276
300.187
300.93
352.72
353.259
352.662
356.395
358.98
353.749
358.409
358.849
361.873
360.721
362.455
358.022
357.983
354.68
358.509
357.351
357.798
355.206
355.689
353.621
345.175
343.387
345.661
344.92
346.471
346.157
348.794
347.784
353.702
348.974
348.527
352.757
347.494
347.497
347.122
349.802
344.769
347.776
344.117
347.773
339.315
336.645
340.158
341.864
339.018
343.183
343.765
343.804
343.921
343.535
342.447
344.382
340.932
342.898
339.631
342.882
340.25
338.94
337.431
338.811
328.344
331.764
332.978
331.357
334.44
334.022
334.733
332.88
335.459
333.981
333.75
334.018
335.697
334.221
336.266
335.738
331.661
334.619
329.897
332.083
322.787
323.905
328.535
329.263
327.115
327.786
324.37
330.028
325.766
330.589
328.38
327.287
328.659
325.121
321.796
324.441
324.099
322.725
326.569
327.389
319.673
319.069
319.368
318.88
318.745
319.934
323.559
319.614
321.37
318.003
319.657
319.622
321.039
319.394
318.272
318.609
318.241
317.66
318.864
314.544
312.632
312.028
309.568
313.375
306.139
307.209
312.487
311.976
312.987
310.365
312.516
310.938
312.326
310.175
312.083
311.379
311.493
309.573
310.345
309.922
302.182
302.746
301.452
304.52
300.774
302.949
303.884
304.527
305.815
303.935
306.902
301.307
304.807
303.365
302.699
301.843
303.907
301.611
306.127
303.79
352.024
353.71
354.611
355.493
357.312
357.056
361.723
359.053
361.177
357.282
358.47
361.629
363.321
361.627
354.325
356.762
359.17
356.335
355.352
352.983
342.91
346.884
347.575
351.546
352.295
351.342
350.7
353.521
350.421
353.719
353.733
353.071
351.639
348.92
347.487
349.354
350.434
348.318
344.21
348.504
341.762
337.876
341.249
340.797
348.898
340.741
344.341
345.176
341.675
340.562
347.434
343.421
342.663
346.999
342.749
340.185
340.563
343.514
338.122
337.018
333.226
331.43
333.819
336.917
334.743
335.35
335.205
337.031
336.228
336.666
338.279
336.85
338.301
334.99
337.804
332.514
332.276
333.499
331.479
329.154
326.056
329.408
324.247
326.382
326.817
328.493
329.531
330.561
326.75
326.99
331.724
325.422
325.294
326.512
328.686
322.609
327.531
329.211
324.94
324.848
317.912
318.217
320.132
321.556
317.091
317.689
319.254
318.499
322.188
318.774
317.597
320.342
320.232
323.311
317.891
317.986
320.113
320.861
316.951
319.123
311.096
310.435
310.507
313.726
311.751
310.461
310.919
315.022
311.858
312.918
313.551
313.427
309.208
311.05
308.945
311.687
312.774
310.358
312.323
308.709
304.731
305.234
305.184
307.17
305.352
302.637
302.943
303.338
306.351
299.506
307.799
305.412
302.114
301.202
301.864
302.034
303.686
304.672
304.148
303.894
356.002
354.76
358.215
354.485
358.013
361.618
358.568
361.904
359.795
359.204
362.076
360.981
361.66
363.181
362.264
357.795
356.176
356.89
356.536
353.852
347.884
346.6
352.99
347.779
352.898
348.212
348.99
349.737
348.666
350.37
350.972
352.75
350.849
352.194
349.044
349.852
348.065
349.227
345.983
348.338
335.479
340.518
343.658
342.92
342.724
343.267
344.141
347.385
347.37
343.288
346.999
344.744
345.946
345.488
341.527
336.92
342.818
336.567
339.528
337.492
333.636
331.924
337.213
334.506
338.488
336.755
335.802
336.312
334.861
337.843
336.941
341.587
340.089
335.974
337.873
331.478
335.042
334.898
333.258
330.33
327.062
326.829
325.698
327.781
328.367
326.076
328.425
326.396
329.704
328.352
334.552
329.911
330.695
329.038
326.005
326.951
324.77
327.029
325.117
321.027
319.336
317.933
319.799
319.65
318.659
320.861
318.525
322.195
320.972
317.523
320.727
320.937
324.255
320.545
318.739
320.566
320.285
317.159
318.521
315.431
312.899
309.141
308.117
310.646
312.434
313.778
311.496
311.058
312.864
312.28
311.731
310.834
310.722
312.719
311.713
312.804
310.726
311.935
314.497
312.946
308.67
303.506
307.525
302.346
304.328
302.078
303.198
303.23
301.541
302.451
304.438
305.149
304.614
303.346
301.589
302.143
307.032
302.544
302.373
303.42
353.888
355.766
355.044
360.357
358.82
357.094
363.037
362.254
364.644
368.794
362.627
366.432
362.738
358.684
357.474
362.524
357.577
357.479
354.454
357.427
347.063
346.486
351.557
347.391
349.068
350.066
354.369
351.39
352.174
351.803
351.323
356.2
350.718
354.843
349.113
353.544
348.86
348.164
346.658
347.697
341.313
343.078
341.408
345.611
343.256
347.734
348.449
348.004
345.822
340.282
346.168
346.915
344.187
346.067
344.395
341.551
340.655
340.51
340.314
339.702
333.286
337.343
333.312
339.736
333.743
337.584
338.574
337.068
337.583
333.95
340.338
334.548
336.571
335.978
338.77
334.814
333.759
333.577
333.887
331.58
325.923
327.01
327.347
328.611
323.348
327.178
329.088
328.269
330.083
329.909
330.129
330.023
329.296
330.619
325.911
326.769
328.625
327.53
323.441
325.253
319.553
318.371
320.734
315.618
321.086
321.253
318.93
323.643
320.658
320.048
317.612
322.656
321.459
320.68
317.977
319.747
318.301
319.476
321.043
318.432
313.919
312.851
309.727
312.569
315.349
313.648
313.008
315.201
314.34
316.36
311.51
312.188
312.785
311.42
309.942
313.691
311.872
309.893
312.867
308.712
303.566
305.087
305.679
307.448
306.243
303.284
304.585
306.509
304.129
301.639
304.222
303.182
303.079
301.535
305.445
304.514
301.545
305.563
304.568
302.202
356.698
356.129
357.368
359.143
361.247
361.633
363.758
365.463
366.511
362.284
362.405
363.202
363.25
363.59
361.397
360.351
362.354
354.034
355.145
353.054
348.007
346.302
351.075
351.36
350.143
351.143
354.372
352.237
355.769
356.927
359.903
354.947
355.413
354.823
354.853
353.848
352.289
349.58
348.093
347.259
341.188
342.037
345.911
346.447
346.475
342.87
346.002
346.242
348.95
349.779
350.643
348.211
349.226
346.801
344.737
345.814
346.121
345.902
341.655
339.792
332.595
336.918
334.216
336.194
337.719
336.78
336.259
340.23
338.818
338.025
336.542
339.252
340.717
336.357
336.496
335.641
336.267
332.678
334.576
331.637
326.067
329.123
325.134
326.648
327.849
328.061
329
327.206
333.347
328.898
327.645
325.958
330.63
328.075
323.846
327.793
329.109
325.49
324.983
325.131
321.214
318.722
320.896
321.557
320.849
318.994
324.134
321.549
323.174
320.385
322.604
322.329
320.032
321.02
321.576
317.775
315.246
319.12
321.668
317.328
308.636
312.111
309.921
310.406
311.018
312.457
313.239
313.055
310.788
314.05
315.474
310.82
309.953
313.6
310.248
309.323
310.694
311.645
311.254
314.273
304.598
304.017
303.178
304.982
302.706
302.121
303.608
303.697
303.845
305.388
300.559
304.53
304.557
299.52
304.461
305.304
303.204
305.525
304.553
307.79
357.933
357.755
360.847
362.452
362.517
358.029
361.962
364.755
361.635
363.39
360.477
361.816
365.985
366.293
361.679
363.376
358.204
357.415
355.972
355.133
351.27
351.45
350.872
350.692
351.968
352.525
356.083
353.535
353.679
353.182
352.871
357.71
353.582
357.153
352.573
352.733
351.375
350.273
349.948
347.499
342.687
343.84
344.009
343.198
349.207
349.924
347.064
345.401
345.289
346.098
345.342
348.613
349.162
347.604
346.415
347.238
342.711
341.55
341.397
340.057
333.507
333.535
334.506
339.086
337.233
336.001
338.107
341.605
334.501
339.291
341.509
339.339
336.656
336.185
337.642
335.271
337.576
332.721
335.45
335.991
323.53
330.086
331.97
329.088
329.093
333.464
328.261
328.494
331.276
329.683
330.771
330.655
329.65
328.172
330.245
329.804
324.94
326.056
328.082
328.185
321.753
319.63
319.409
319.236
321.811
319.796
320.247
321.259
322.871
320.807
323.03
321.351
321.712
320.749
320.418
321.261
324.182
319.545
320.531
320.27
316.409
312.369
314.803
313.798
310.273
313.821
312.841
312.667
315.259
312.832
316.043
314.66
311.042
312.618
314.219
311.2
310.922
314.041
312.818
310.911
305.535
304.224
302.809
306.104
303.705
307.835
305.966
304.508
304.854
304.764
303.129
304.651
305.291
303.177
302.794
305.295
304.251
308.321
305.689
302.356
357.156
359.235
359.055
361.745
364.662
362.436
364.981
362.47
364.172
367.065
363.706
365.174
365.285
364.668
362.048
361.065
360.571
359.577
359.67
357.004
350.777
350.786
350
353.348
352.689
359.994
354.953
355.316
353.275
353.777
355.923
355.806
351.685
349.892
357.188
355.684
350.506
348.296
350.703
347.133
342.544
345.241
344.469
345.572
345.377
343.266
346.855
349.999
347.452
344.43
347.546
346.97
345.216
346.557
346.197
343.665
339.931
339.244
338.223
337.173
337.249
334.784
336.849
339.104
336.801
335.744
338.027
337.743
334.057
339.894
339.172
340.583
336.54
339.241
337.571
341.31
337.032
334.662
333.487
334.468
328.217
325.64
325.485
328.478
330.474
331.102
333.556
327.676
330.142
329.943
332.383
331.206
329.216
328.539
328.825
328.17
329.075
327.526
328.065
329.682
322.699
318.23
322.153
323.196
323.353
323.279
320.012
320.689
319.943
320.203
319.571
324.486
323.09
318.661
320.673
322.64
317.625
321.496
319.311
316.838
310.713
312.696
311.841
314.065
312.135
314.09
315.155
312.591
310.626
311.882
313.177
311.844
311.998
311.247
308.586
315.812
314.04
312.217
313.205
310.852
303.902
302.063
303.739
303.168
306.93
305.227
303.597
305.964
303.402
304.569
303.962
305.01
303.074
305.512
302.46
305.464
305.72
301.282
305.918
302.749
361.98
358.499
358.311
360.988
365.286
363.458
362.957
364.231
367.286
363.963
363.267
364.7
361.784
364.774
361.177
362.651
364.391
362.797
360.599
356.82
346.927
352.368
348.487
355.966
351.903
355.103
356.646
356.269
356.999
355.923
354.929
356.001
356.13
357.839
355.469
353.666
354.162
349.497
352.622
347.347
344.748
343.524
341.708
344.078
346.089
344.328
346.782
347.725
347.506
351.699
347.011
346.967
348.409
343.345
346.787
347.28
343.932
346.087
344.124
341.484
336.964
335.672
333.24
340.072
332.477
335.907
338.927
340.003
338.394
339.647
340.437
339.131
340.208
335.318
337.421
339.582
337.141
335.148
332.061
333.538
324.983
325.742
327.582
328.157
329.724
331.621
329.077
329.612
333.875
331.075
335.955
328.839
328.993
330.968
333.595
327.474
333.64
325.822
326.739
330.138
318.75
319.728
318.388
319.401
318.852
316.06
320.529
321.531
321.799
321.994
324.038
322.256
320.307
322.448
321.027
320.222
323.436
321.961
320.712
322.791
313.239
314.436
310.396
311.815
313.154
314.748
310.954
314.487
315.481
313.04
310.198
317.216
313.724
314.504
312.507
313.175
311.811
313.057
315.102
309.603
303.978
301.951
303.799
304.549
302.612
306.655
304.065
304.095
303.196
306.113
304.591
302.274
302.62
303.662
306.252
303.347
305.387
305.021
303.289
304.86
358.547
359.457
362.19
364.305
361.735
363.041
365.214
368.229
366.231
367.524
364.436
366.419
365.671
364.877
363.459
359.513
358.141
363.141
356.756
357.675
349.14
354.533
351.704
354.997
353.418
354.535
359.047
354.82
357.097
354.607
358.156
356.775
359.112
356.217
356.195
353.373
353.287
352.172
350.163
352.634
341.729
343.087
343.003
349.236
348.873
346.163
342.355
348.822
349.456
348.015
351.919
346.062
345.257
346.483
344.625
344.594
344.604
341.904
339.158
342.378
336.367
336.309
337.751
337.418
341.12
338.64
338.471
340.487
342.063
337.851
337.942
340.084
344.64
339.808
336.95
333.489
336.659
337.958
336.113
334.385
325.403
327.061
325.653
329.478
331.24
335.437
330.392
332.186
327.932
332.981
332.12
331.531
330.847
329.977
329.925
331.256
326.482
325.74
328.179
325.887
322.344
318.72
320.117
320.982
322.796
321.568
320.434
319.922
320.678
318.94
322.539
321.109
323.31
319.986
322.344
319.646
322.586
321.153
315.911
318.652
312.04
312.192
311.566
311.799
315.539
310.062
312.951
313.446
313.353
312.287
314.379
311.99
314.174
313.325
315.859
314.002
312.695
313.484
312.026
313.407
305.31
304.925
302.974
302.061
306.931
303.672
304.765
303.219
302.961
305.759
306.638
305.858
309.295
299.616
301.874
303.256
304.046
300.361
306.72
300.67
361.547
359.659
360.901
360.839
363.61
363.071
366.44
367.291
367.884
365.766
367.604
363.545
364.294
363.772
366.355
363.168
359.2
362.789
357.735
359.124
352.165
357.359
352.101
357.29
354.089
357.807
357.632
358.827
356.832
360.054
358.6
356.713
358.129
358.896
359.16
352.654
357.915
353.314
357.182
349.412
341.891
340.91
350.184
345.475
347.097
346.333
346.687
349.067
350.567
347.219
349.318
351.04
346.411
346.042
343.937
345.013
347.663
345.176
342.622
342.805
336.244
332.875
335.689
337.713
338.049
337.848
336.384
337.783
337.997
343.014
341.876
340.734
337.12
337.57
339.643
339.405
338.679
335.622
335.588
333.391
332.791
329.375
331.066
328.087
329.946
329.598
332.258
328.469
328.694
330.388
332.448
333.339
329.812
328.919
330.696
333.382
332.338
328.562
328.568
325.913
319.764
319.51
319.566
322.117
321.274
323.097
322.718
320.249
323.379
321.285
322.384
322.358
318.908
323.984
320.038
323.757
317.984
317.812
320.491
321.506
311.894
312.535
316.948
311.971
315.038
315.552
316.815
314.897
316.931
311.183
313.55
316.5
313.452
311.03
312.439
312.958
312.961
311.793
314.142
314.223
306.538
307.107
301.433
303.437
302.515
303.352
303.73
304.286
306.349
298.961
300.249
305.579
304.089
305.311
304.899
304.781
307.169
303.107
305.796
301.871
355.923
361.084
360.131
361.842
364.003
360.508
366.343
366.118
363.465
365.911
366.707
363.372
363.651
365.329
364.131
358.83
364.422
360.892
359.444
360.196
350.448
352.053
354.224
353.676
353.337
356.365
357.944
353.984
361.2
357.66
358.654
360.502
356.636
358.998
355.893
353.691
350.803
348.186
355.577
346.946
345.04
346.893
346.639
348.412
345.541
348.513
348.44
348.511
349.712
347.514
351.569
348.68
346.315
348.859
345.908
349.308
343.792
341.397
345.414
344.48
332.668
338.125
339.552
340.483
335.897
340.144
341.011
337.725
338.643
340.485
336.755
339.237
338.907
338.276
336.013
336.32
337.707
339.789
333.427
337.97
326.57
328.76
325.506
329.558
332.155
330.133
330.942
331.852
334.095
332.962
334.004
330.059
331.84
333.15
333.743
331.041
326.29
329.976
328.071
327.557
319.802
320.26
320.211
318.164
323.008
322.602
320.116
321.491
325.107
323.64
319.716
324.014
318.952
322.524
318.532
319.315
317.798
322.432
320.27
316.246
310.664
308.763
314.399
315.91
313.274
312.879
309.898
314.822
316.243
313.362
314.854
313.912
313.756
312.578
313.612
310.447
312.946
314.862
312.021
312.595
301.959
305.043
304.805
304.646
305.429
306.773
304.138
304.904
303.595
302.083
306.853
305.97
308.63
306.565
304.242
305.534
303.694
305.051
304.874
303.017
360.015
363.326
362.79
360.04
362.846
363.225
364.586
364.865
365.87
367.235
369.789
363.183
365.945
366.484
363.905
362.225
360.138
363.576
358.992
361.331
347.834
362.488
355.984
362.352
353.071
361.997
356.091
363.864
355.564
362.92
362.917
356.195
362.694
359.331
362.57
356.946
362.499
349.817
361.119
348.931
341.064
345.693
345.596
347.594
347.257
347.403
348.166
349.504
345.021
347.848
349.243
345.515
353.354
351.14
346.108
345.557
345.693
345.727
341.585
342.669
334.569
335.928
341.437
341.485
340.523
338.568
338.817
339.443
341.455
341.869
338.763
338.008
337.689
342.018
337.707
337.584
336.382
335.483
336.773
335.521
327.414
330.572
327.035
330.197
332.476
329.222
332.077
329.031
330.55
331.003
330.941
330.758
328.579
333.192
327.524
328.805
330.229
329.003
325.075
328.903
320.232
321.125
320.914
323.266
321.312
321.115
322.137
323.197
318.731
324.453
321.941
321.803
324.316
324.916
322.76
318.342
319.088
319.295
320.682
319.463
311.409
312.85
311.029
311.611
311.072
312.794
309.587
316.186
316.517
311.521
310.775
312.638
315.736
316.282
311.683
312.998
313.616
309.265
311.907
309.62
301.572
303.272
304.509
302.227
305.934
304
305.853
306.195
303.793
303.812
307.102
302.802
304.255
302.789
302.354
300.999
304.27
304.035
302.37
301.488
358.281
360.612
362.691
360.406
362.705
364.572
364.6
364.35
365.524
367.077
364.867
365.033
363.312
366.075
361.885
364.502
360.502
361.182
361.022
358.126
350.269
353.681
354.492
357.343
354.907
357.426
357.062
356.802
359.998
355.83
358.004
358.254
358.816
355.887
354.301
352.661
350.805
355.317
350.393
348.702
339.891
342.464
343.149
345.784
343.491
346.144
350.726
344.121
348.7
349.052
350.671
350.299
348.96
347.739
347.525
346.247
345.162
346.601
341.732
342.417
339.028
335.819
336.877
337.354
336.147
336.629
339.422
341.488
340.432
341.593
341.532
341.442
341.737
339.852
336.242
337.425
335.661
337.45
336.465
336.478
326.048
326.99
325.813
332.085
333.504
329.465
329.538
331.569
330.074
328.891
328.573
332.406
328.514
331.525
329.09
331.465
328.264
328.767
325.953
324.986
321.346
318.73
321.7
321.749
322.296
320.608
319.647
321.102
318.811
323.897
320.699
323.21
322.947
321.986
322.405
322.98
322.162
319.415
322.536
319.663
311.892
314.93
313.416
318.603
313.714
318.578
314.62
311.095
313.555
312.898
312.134
314.779
313.484
312.889
309.995
313.171
313.847
309.48
313.933
308.579
302.656
305.227
302.076
303.739
306.528
306.702
307.717
306.733
305.583
301.507
303.258
305.208
302.881
305.621
304.196
300.74
304.022
304.549
302.793
300.196
)
;

boundaryField
{
    hotSide
    {
        type            fixedGradient;
        gradient        nonuniform List<scalar> 
400
(
321.511
322.87
325.591
329.677
335.133
341.965
350.181
359.788
370.794
383.208
397.037
412.289
428.971
447.088
466.647
487.651
510.105
534.011
559.372
586.191
323.738
325.08
327.767
331.802
337.194
343.949
352.078
361.591
372.498
384.81
398.537
413.687
430.268
448.289
467.755
488.672
511.043
534.872
560.161
586.913
326.149
327.47
330.116
334.091
339.406
346.071
354.099
363.503
374.296
386.491
400.101
415.136
431.606
449.52
468.885
489.706
511.988
535.735
560.948
587.63
328.704
330
332.597
336.503
341.73
348.292
356.205
365.485
376.15
388.215
401.695
416.604
432.954
450.753
470.009
490.73
512.919
536.579
561.714
588.325
331.33
332.599
335.142
338.97
344.099
350.546
358.332
367.477
378.003
389.928
403.271
418.047
434.27
451.949
471.095
491.712
513.807
537.382
562.439
588.978
333.918
335.158
337.643
341.389
346.414
352.74
360.392
369.397
379.779
391.562
404.765
419.407
435.503
453.065
472.101
492.618
514.622
538.114
563.096
589.569
336.321
337.531
339.959
343.622
348.544
354.751
362.274
371.142
381.385
393.031
406.101
420.618
436.595
454.047
472.983
493.409
515.33
538.747
563.663
590.076
338.36
339.543
341.92
345.509
350.339
356.44
363.847
372.595
382.718
394.244
407.2
421.608
437.485
454.844
473.695
494.045
515.897
539.253
564.114
590.478
339.852
341.015
343.352
346.885
351.645
357.665
364.985
373.643
383.675
395.113
407.984
422.312
438.116
455.407
474.197
494.491
516.294
539.606
564.428
590.758
340.643
341.795
344.11
347.613
352.334
358.311
365.584
374.193
384.176
395.567
408.393
422.679
438.443
455.699
474.456
494.722
516.498
539.788
564.589
590.901
340.643
341.795
344.11
347.613
352.334
358.311
365.584
374.193
384.176
395.567
408.393
422.679
438.443
455.699
474.456
494.722
516.498
539.788
564.589
590.901
339.852
341.015
343.352
346.885
351.645
357.665
364.985
373.643
383.675
395.113
407.984
422.312
438.116
455.407
474.197
494.491
516.294
539.606
564.428
590.758
338.36
339.543
341.92
345.509
350.339
356.44
363.847
372.595
382.718
394.244
407.2
421.608
437.485
454.844
473.695
494.045
515.897
539.253
564.114
590.478
336.321
337.531
339.959
343.622
348.544
354.751
362.274
371.142
381.385
393.031
406.101
420.618
436.595
454.047
472.983
493.409
515.33
538.747
563.663
590.076
333.918
335.158
337.643
341.389
346.414
352.74
360.392
369.397
379.779
391.562
404.765
419.407
435.503
453.065
472.101
492.618
514.622
538.114
563.096
589.569
331.33
332.599
335.142
338.97
344.099
350.546
358.332
367.477
378.003
389.928
403.271
418.047
434.27
451.949
471.095
491.712
513.807
537.382
562.439
588.978
328.704
330
332.597
336.503
341.73
348.292
356.205
365.485
376.15
388.215
401.695
416.604
432.954
450.753
470.009
490.73
512.919
536.579
561.714
588.325
326.149
327.47
330.116
334.091
339.406
346.071
354.099
363.503
374.296
386.491
400.101
415.136
431.606
449.52
468.885
489.706
511.988
535.735
560.948
587.63
323.738
325.08
327.767
331.802
337.194
343.949
352.078
361.591
372.498
384.81
398.537
413.687
430.268
448.289
467.755
488.672
511.043
534.872
560.161
586.913
321.511
322.87
325.591
329.677
335.133
341.965
350.181
359.788
370.794
383.208
397.037
412.289
428.971
447.088
466.647
487.651
510.105
534.011
559.372
586.191
)
;
    }
    coldSide
    {
        type            mixed;
        refValue        uniform 300;
        refGradient     uniform 0;
        valueFraction   uniform 0.991591;
        source          uniform 0;
        value           nonuniform List<scalar> 
400
(
300.016
300.054
300.031
300.004
300.023
300.018
300.041
300.018
300.04
300.073
300.03
300.039
300.047
300.033
300.033
300.045
300.055
300.016
300.013
300.022
300.01
300.026
300.033
300.044
300.014
300.041
300.015
300.023
300.044
300.029
300.043
300.034
300.036
300.017
300.016
300.041
300.06
300.042