/*--------------------------------*- C++ -*----------------------------------*\
| =========                 |                                                 |
| \\      /  F ield         | OpenFOAM: The Open Source CFD Toolbox           |
|  \\    /   O peration     | Version:  2212                                  |
|   \\  /    A nd           | Website:  www.openfoam.com                      |
|    \\/     M anipulation  |                                                 |
\*---------------------------------------------------------------------------*/
FoamFile
{
    version     2.0;
    format      ascii;
    arch        "LSB;label=32;scalar=64";
    class       volScalarField;
    location    "0";
    object      T;
}
// * * * * * * * * * * * * * * * * * * * * * * * * * * * * * * * * * * * * * //

dimensions      [0 0 0 1 0 0 0];

internalField   nonuniform List<scalar> 
3200
(
337.028
335.987
335.129
334.812
334.968
335.593
336.149
336.767
337.219
337.645
337.721
337.741
337.314
336.855
336.398
335.931
335.629
335.78
336.579
337.329
332.275
331.387
330.652
330.352
330.464
330.999
331.478
332.036
332.395
332.757
332.787
332.789
332.387
331.982
331.569
331.153
330.859
330.969
331.643
332.255
327.44
326.697
326.059
325.837
325.89
326.329
326.752
327.225
327.501
327.809
327.836
327.813
327.442
327.087
326.739
326.389
326.085
326.19
326.724
327.212
322.562
321.944
321.417
321.226
321.266
321.619
321.953
322.345
322.575
322.797
322.849
322.81
322.498
322.185
321.914
321.604
321.327
321.447
321.824
322.219
317.629
317.131
316.697
316.55
316.605
316.871
317.106
317.427
317.606
317.75
317.802
317.765
317.528
317.259
317.064
316.821
316.581
316.675
316.958
317.254
312.641
312.273
311.958
311.838
311.885
312.077
312.252
312.481
312.619
312.698
312.736
312.699
312.533
312.33
312.211
312.008
311.832
311.937
312.11
312.313
307.613
307.388
307.186
307.091
307.137
307.269
307.373
307.519
307.588
307.634
307.641
307.636
307.522
307.404
307.347
307.209
307.103
307.178
307.269
307.384
302.559
302.475
302.408
302.37
302.396
302.43
302.471
302.528
302.537
302.561
302.559
302.56
302.517
302.478
302.453
302.421
302.373
302.404
302.427
302.477
337.102
336.037
335.347
335.08
335.272
335.859
336.544
337.309
337.677
338.122
338.26
338.129
337.756
337.261
336.74
336.257
335.903
336.014
336.731
337.621
332.323
331.406
330.848
330.578
330.741
331.237
331.833
332.496
332.785
333.151
333.277
333.105
332.779
332.307
331.869
331.458
331.071
331.172
331.767
332.485
327.49
326.702
326.265
326.027
326.138
326.552
327.044
327.602
327.834
328.129
328.221
328.075
327.764
327.337
326.986
326.614
326.262
326.345
326.823
327.403
322.583
321.951
321.615
321.424
321.474
321.809
322.181
322.639
322.825
323.078
323.128
323.034
322.73
322.378
322.097
321.78
321.48
321.562
321.916
322.347
317.604
317.161
316.879
316.756
316.767
317.008
317.298
317.642
317.803
317.985
318.032
317.946
317.706
317.41
317.217
316.948
316.72
316.774
317.025
317.363
312.598
312.308
312.1
312.025
312.01
312.156
312.381
312.623
312.755
312.877
312.914
312.831
312.668
312.453
312.312
312.098
311.943
311.99
312.156
312.408
307.583
307.415
307.285
307.255
307.23
307.319
307.433
307.579
307.674
307.733
307.759
307.707
307.607
307.492
307.395
307.261
307.17
307.203
307.282
307.435
302.544
302.491
302.449
302.433
302.42
302.466
302.495
302.543
302.584
302.589
302.605
302.594
302.555
302.519
302.478
302.433
302.401
302.409
302.438
302.492
337.427
336.44
335.628
335.51
335.871
336.322
337.076
337.793
338.31
338.795
338.921
338.76
338.508
337.904
337.43
336.854
336.382
336.471
337.258
337.914
332.612
331.761
331.078
330.973
331.286
331.63
332.288
332.894
333.313
333.725
333.827
333.668
333.433
332.876
332.444
331.952
331.479
331.572
332.215
332.734
327.708
327.006
326.444
326.339
326.59
326.873
327.431
327.939
328.264
328.627
328.662
328.55
328.332
327.837
327.447
327.026
326.607
326.668
327.185
327.631
322.743
322.174
321.739
321.63
321.83
322.079
322.508
322.951
323.158
323.475
323.475
323.386
323.194
322.791
322.452
322.117
321.75
321.79
322.217
322.576
317.749
317.315
316.966
316.894
317.03
317.229
317.542
317.898
318.029
318.29
318.294
318.225
318.042
317.721
317.442
317.203
316.909
316.93
317.259
317.54
312.704
312.404
312.125
312.098
312.192
312.346
312.552
312.818
312.9
313.083
313.076
313.028
312.886
312.668
312.474
312.29
312.08
312.094
312.331
312.534
307.637
307.47
307.29
307.268
307.34
307.441
307.542
307.707
307.751
307.886
307.861
307.808
307.745
307.611
307.473
307.382
307.248
307.276
307.391
307.544
302.561
302.507
302.441
302.44
302.465
302.506
302.532
302.591
302.613
302.651
302.637
302.618
302.59
302.554
302.503
302.48
302.428
302.442
302.472
302.518
338.01
337.032
336.263
336.168
336.529
336.906
337.637
338.507
339.018
339.629
339.813
339.625
339.382
338.735
338.063
337.511
337.059
337.236
337.777
338.549
333.103
332.31
331.61
331.536
331.842
332.147
332.767
333.511
333.922
334.472
334.595
334.407
334.176
333.605
332.97
332.507
332.109
332.23
332.663
333.322
328.128
327.496
326.879
326.815
327.079
327.328
327.845
328.448
328.765
329.253
329.333
329.157
328.942
328.47
327.885
327.494
327.168
327.231
327.603
328.144
323.082
322.588
322.072
322.01
322.253
322.443
322.865
323.326
323.565
323.973
324.045
323.897
323.715
323.312
322.805
322.497
322.236
322.247
322.551
322.994
318.002
317.624
317.225
317.186
317.373
317.505
317.843
318.179
318.357
318.662
318.728
318.618
318.471
318.132
317.72
317.509
317.32
317.282
317.518
317.857
312.907
312.628
312.343
312.341
312.458
312.535
312.79
312.998
313.133
313.34
313.393
313.315
313.208
312.95
312.655
312.521
312.392
312.329
312.504
312.754
307.782
307.598
307.429
307.429
307.491
307.531
307.702
307.827
307.875
308.011
308.05
308
307.94
307.767
307.595
307.513
307.432
307.384
307.503
307.658
302.609
302.546
302.504
302.483
302.509
302.523
302.583
302.624
302.638
302.685
302.696
302.683
302.663
302.604
302.542
302.513
302.497
302.472
302.521
302.571
338.857
337.843
337.174
337.07
337.419
337.883
338.485
339.422
339.986
340.593
340.693
340.787
340.457
339.609
339.035
338.479
338.074
338.043
338.587
339.416
333.87
332.997
332.411
332.317
332.614
333.015
333.498
334.299
334.778
335.312
335.353
335.415
335.126
334.361
333.841
333.354
332.966
332.95
333.402
334.054
328.797
328.062
327.538
327.47
327.741
328.047
328.441
329.099
329.504
329.965
329.965
330.025
329.772
329.099
328.65
328.23
327.886
327.868
328.218
328.753
323.642
323.055
322.606
322.558
322.773
323.02
323.364
323.866
324.184
324.569
324.545
324.621
324.4
323.825
323.446
323.11
322.812
322.789
323.063
323.471
318.431
318.002
317.618
317.595
317.752
317.938
318.214
318.604
318.838
319.145
319.115
319.165
319.022
318.541
318.234
317.988
317.743
317.717
317.915
318.203
313.192
312.897
312.612
312.602
312.694
312.844
313.047
313.301
313.459
313.697
313.688
313.713
313.618
313.257
313.051
312.858
312.672
312.671
312.792
312.978
307.939
307.76
307.597
307.589
307.653
307.718
307.849
307.998
308.081
308.233
308.233
308.246
308.19
307.956
307.842
307.74
307.599
307.62
307.678
307.776
302.662
302.598
302.555
302.539
302.571
302.589
302.627
302.669
302.703
302.755
302.772
302.76
302.747
302.674
302.629
302.585
302.544
302.556
302.575
302.602
339.701
338.85
338.217
338.145
338.424
339.015
339.638
340.418
341.135
341.654
341.881
341.944
341.626
340.864
340.105
339.58
339.188
339.16
339.598
340.47
334.599
333.869
333.316
333.273
333.5
333.994
334.517
335.178
335.79
336.22
336.368
336.462
336.143
335.457
334.796
334.304
333.954
333.899
334.26
334.974
329.408
328.794
328.317
328.297
328.487
328.886
329.31
329.876
330.379
330.737
330.862
330.928
330.63
330.021
329.473
329.034
328.697
328.682
328.941
329.524
324.131
323.643
323.245
323.243
323.404
323.728
324.084
324.519
324.924
325.202
325.333
325.353
325.083
324.576
324.151
323.761
323.463
323.438
323.662
324.093
318.816
318.446
318.122
318.124
318.253
318.526
318.775
319.111
319.406
319.609
319.754
319.741
319.541
319.111
318.822
318.492
318.229
318.23
318.388
318.706
313.459
313.221
312.97
312.989
313.068
313.278
313.428
313.652
313.866
314.023
314.143
314.115
313.96
313.652
313.464
313.244
313.008
313.021
313.138
313.358
308.098
307.957
307.799
307.804
307.851
307.991
308.078
308.187
308.318
308.412
308.497
308.482
308.403
308.191
308.09
307.985
307.8
307.841
307.911
308.03
302.714
302.669
302.623
302.618
302.628
302.682
302.708
302.738
302.787
302.814
302.847
302.841
302.821
302.753
302.711
302.681
302.611
302.643
302.656
302.689
340.723
339.972
339.397
339.311
339.532
340.039
340.796
341.559
342.304
342.919
343.028
343.189
342.861
342.128
341.322
340.66
340.417
340.336
340.796
341.523
335.477
334.833
334.361
334.288
334.475
334.875
335.523
336.168
336.799
337.307
337.397
337.513
337.211
336.538
335.826
335.249
335.017
334.956
335.298
335.875
330.143
329.617
329.229
329.162
329.304
329.628
330.183
330.716
331.238
331.666
331.74
331.807
331.528
330.94
330.305
329.836
329.626
329.553
329.83
330.267
324.744
324.319
324.019
323.957
324.085
324.315
324.759
325.191
325.606
325.958
326.037
326.078
325.827
325.356
324.809
324.417
324.24
324.135
324.395
324.691
319.325
318.971
318.733
318.69
318.778
318.982
319.312
319.634
319.938
320.216
320.292
320.323
320.107
319.735
319.309
318.984
318.833
318.734
318.951
319.17
313.858
313.58
313.422
313.374
313.45
313.611
313.829
314.055
314.266
314.476
314.53
314.54
314.38
314.103
313.823
313.566
313.439
313.365
313.518
313.697
308.341
308.162
308.093
308.04
308.082
308.187
308.305
308.447
308.579
308.712
308.736
308.735
308.633
308.482
308.315
308.156
308.07
308.015
308.112
308.23
302.79
302.736
302.717
302.681
302.718
302.747
302.777
302.834
302.883
302.913
302.927
302.927
302.892
302.834
302.786
302.736
302.714
302.683
302.725
302.756
341.806
341.185
340.642
340.483
340.729
341.222
341.907
342.809
343.498
344.17
344.474
344.474
344.023
343.366
342.601
341.925
341.568
341.756
342.067
342.774
336.425
335.91
335.416
335.269
335.475
335.893
336.464
337.242
337.83
338.382
338.646
338.614
338.228
337.62
336.966
336.343
336.023
336.163
336.403
336.977
330.947
330.547
330.129
329.975
330.162
330.49
330.971
331.617
332.089
332.544
332.772
332.728
332.399
331.852
331.301
330.736
330.494
330.581
330.755
331.231
325.423
325.092
324.777
324.599
324.782
325.024
325.407
325.935
326.302
326.679
326.86
326.798
326.52
326.096
325.618
325.142
324.94
325.017
325.142
325.542
319.836
319.602
319.348
319.186
319.342
319.52
319.816
320.207
320.51
320.794
320.943
320.882
320.643
320.312
319.929
319.556
319.384
319.46
319.545
319.874
314.21
314.047
313.865
313.741
313.864
313.974
314.191
314.471
314.688
314.885
314.961
314.965
314.753
314.515
314.232
313.992
313.841
313.909
313.953
314.214
308.542
308.442
308.335
308.272
308.365
308.395
308.543
308.693
308.835
308.951
308.991
309.004
308.866
308.718
308.55
308.411
308.314
308.356
308.369
308.541
302.857
302.833
302.799
302.781
302.811
302.811
302.872
302.919
302.963
303.003
303.017
303.028
302.971
302.923
302.872
302.813
302.805
302.793
302.805
302.877
343.191
342.491
342.007
341.84
341.942
342.483
343.047
343.987
344.77
345.333
345.745
345.715
345.35
344.628
343.985
343.276
343.003
343.095
343.563
344.103
337.596
337.074
336.609
336.449
336.562
336.999
337.489
338.271
338.94
339.43
339.741
339.704
339.392
338.712
338.153
337.5
337.258
337.326
337.714
338.146
331.953
331.54
331.111
330.991
331.097
331.432
331.842
332.475
333.031
333.494
333.694
333.652
333.39
332.796
332.303
331.721
331.547
331.589
331.904
332.252
326.25
325.926
325.566
325.46
325.533
325.791
326.145
326.627
327.088
327.487
327.612
327.558
327.378
326.861
326.427
325.977
325.845
325.847
326.107
326.377
320.489
320.249
319.954
319.885
319.92
320.1
320.408
320.751
321.119
321.427
321.516
321.455
321.309
320.912
320.561
320.214
320.131
320.125
320.293
320.529
314.684
314.516
314.29
314.235
314.261
314.384
314.634
314.845
315.101
315.341
315.418
315.342
315.233
314.966
314.706
314.461
314.394
314.39
314.505
314.683
308.823
308.74
308.597
308.566
308.57
308.651
308.811
308.937
309.076
309.234
309.278
309.214
309.143
308.982
308.828
308.699
308.641
308.638
308.708
308.83
302.954
302.932
302.883
302.875
302.878
302.906
302.953
302.997
303.039
303.11
303.113
303.094
303.061
303.019
302.965
302.923
302.909
302.895
302.921
302.952
344.619
343.984
343.314
343.072
343.328
343.72
344.331
345.333
346.033
346.63
346.781
346.765
346.451
346.035
345.343
344.627
344.42
344.551
344.963
345.486
338.87
338.352
337.762
337.535
337.743
338.066
338.589
339.46
340.046
340.553
340.664
340.64
340.335
339.957
339.339
338.67
338.517
338.601
338.946
339.358
333.02
332.619
332.118
331.923
332.081
332.345
332.779
333.514
333.989
334.419
334.492
334.454
334.181
333.822
333.327
332.734
332.606
332.654
332.933
333.255
327.108
326.795
326.383
326.241
326.336
326.558
326.928
327.5
327.883
328.256
328.294
328.221
328.022
327.67
327.273
326.797
326.686
326.712
326.927
327.165
321.112
320.9
320.575
320.511
320.549
320.735
321.005
321.442
321.722
322.039
322.067
321.977
321.852
321.539
321.21
320.871
320.745
320.78
320.945
321.108
315.1
314.97
314.734
314.694
314.709
314.856
315.027
315.352
315.548
315.775
315.791
315.709
315.646
315.383
315.159
314.935
314.817
314.856
314.96
315.058
309.081
309.005
308.864
308.824
308.845
308.937
309.031
309.235
309.358
309.492
309.505
309.453
309.42
309.231
309.109
308.996
308.894
308.922
308.988
309.033
303.048
303.022
302.968
302.963
302.958
303.001
303.032
303.102
303.137
303.187
303.177
303.171
303.152
303.101
303.059
303.003
302.988
302.992
303.016
303.026
345.945
345.331
344.642
344.533
344.701
345.088
345.676
346.493
347.142
347.731
347.984
347.957
347.596
347.141
346.624
345.98
345.837
345.81
346.412
346.88
339.993
339.505
338.89
338.808
338.941
339.261
339.773
340.461
341.001
341.509
341.687
341.661
341.331
340.931
340.464
339.878
339.746
339.688
340.19
340.565
333.963
333.553
333.057
333.005
333.067
333.325
333.774
334.372
334.802
335.219
335.339
335.334
335.043
334.685
334.27
333.774
333.656
333.584
333.999
334.291
327.856
327.559
327.16
327.106
327.147
327.354
327.727
328.213
328.546
328.884
328.964
328.968
328.713
328.408
328.036
327.668
327.565
327.48
327.815
328.018
321.725
321.5
321.19
321.138
321.149
321.344
321.634
322.008
322.247
322.495
322.573
322.565
322.356
322.11
321.811
321.541
321.447
321.372
321.635
321.774
315.533
315.369
315.165
315.135
315.152
315.293
315.495
315.757
315.914
316.096
316.152
316.143
315.995
315.789
315.593
315.377
315.327
315.286
315.462
315.548
309.341
309.242
309.103
309.086
309.114
309.207
309.327
309.471
309.563
309.673
309.708
309.698
309.622
309.47
309.363
309.222
309.203
309.184
309.289
309.329
303.136
303.092
303.045
303.043
303.065
303.089
303.133
303.164
303.21
303.246
303.257
303.249
303.227
303.18
303.134
303.088
303.076
303.077
303.114
303.129
347.419
346.703
346.148
345.92
346.068
346.458
346.991
347.606
348.296
348.756
349.116
349.058
348.693
348.354
347.888
347.377
347.202
347.2
347.77
348.292
341.285
340.706
340.216
339.989
340.132
340.435
340.9
341.423
342.011
342.384
342.668
342.588
342.287
341.999
341.551
341.091
340.91
340.897
341.394
341.794
335.062
334.594
334.2
333.988
334.088
334.319
334.735
335.172
335.661
335.945
336.173
336.08
335.86
335.612
335.187
334.781
334.623
334.609
335.01
335.325
328.767
328.385
328.076
327.887
327.967
328.144
328.528
328.85
329.271
329.465
329.641
329.554
329.395
329.175
328.802
328.477
328.325
328.322
328.629
328.872
322.42
322.147
321.892
321.752
321.791
321.937
322.245
322.495
322.818
322.953
323.08
323.017
322.894
322.705
322.415
322.173
322.029
322.03
322.26
322.457
316.032
315.848
315.65
315.572
315.582
315.707
315.935
316.117
316.33
316.418
316.508
316.464
316.386
316.242
316.014
315.837
315.729
315.744
315.893
316.052
309.646
309.524
309.404
309.371
309.369
309.44
309.58
309.686
309.81
309.871
309.918
309.89
309.855
309.762
309.607
309.494
309.451
309.477
309.552
309.637
303.235
303.191
303.154
303.143
303.147
303.171
303.215
303.254
303.298
303.311
303.33
303.319
303.301
303.272
303.213
303.188
303.172
303.183
303.203
303.232
348.822
348.192
347.658
347.334
347.343
347.739
348.216
348.829
349.415
349.767
350.133
350.116
349.867
349.412
349.199
348.735
348.557
348.715
349.144
349.744
342.509
341.986
341.52
341.224
341.244
341.595
341.984
342.5
342.957
343.258
343.574
343.519
343.301
342.898
342.688
342.272
342.086
342.199
342.591
343.038
336.126
335.681
335.292
335.029
335.05
335.351
335.659
336.105
336.462
336.704
336.967
336.891
336.676
336.36
336.145
335.799
335.602
335.694
336.036
336.356
329.653
329.279
328.959
328.752
328.81
329.03
329.266
329.622
329.899
330.098
330.303
330.229
330.027
329.785
329.584
329.32
329.103
329.198
329.499
329.725
323.139
322.839
322.573
322.425
322.487
322.65
322.816
323.087
323.3
323.446
323.616
323.531
323.372
323.197
323.022
322.809
322.63
322.715
322.963
323.13
316.572
316.366
316.145
316.058
316.109
316.208
316.318
316.537
316.684
316.749
316.894
316.811
316.714
316.596
316.452
316.295
316.181
316.235
316.422
316.539
309.958
309.829
309.71
309.674
309.691
309.764
309.817
309.955
310.033
310.062
310.17
310.086
310.046
309.964
309.905
309.781
309.723
309.755
309.871
309.939
303.341
303.289
303.26
303.238
303.255
303.278
303.298
303.338
303.375
303.374
303.4
303.375
303.374
303.347
303.325
303.28
303.267
303.273
303.319
303.332
350.23
349.676
349.183
348.857
348.785
349.079
349.5
350.035
350.619
350.953
351.342
351.233
351.063
350.603
350.276
350.078
349.885
350.091
350.553
351.2
343.727
343.297
342.857
342.562
342.471
342.741
343.095
343.571
344.036
344.282
344.611
344.517
344.321
343.945
343.637
343.448
343.23
343.408
343.78
344.322
337.158
336.807
336.42
336.162
336.077
336.308
336.615
336.988
337.375
337.577
337.816
337.734
337.544
337.248
336.931
336.79
336.566
336.708
337.012
337.456
330.503
330.228
329.897
329.696
329.607
329.798
330.068
330.329
330.629
330.829
330.975
330.919
330.758
330.517
330.24
330.122
329.912
330.019
330.279
330.618
323.788
323.597
323.336
323.151
323.103
323.242
323.458
323.619
323.859
324.045
324.127
324.088
323.956
323.748
323.553
323.448
323.273
323.34
323.561
323.823
317.03
316.908
316.724
316.582
316.557
316.645
316.808
316.888
317.047
317.211
317.258
317.219
317.147
316.986
316.813
316.765
316.652
316.66
316.853
317.026
310.25
310.177
310.053
309.959
309.972
310.018
310.116
310.158
310.232
310.355
310.37
310.345
310.32
310.223
310.101
310.078
310.005
309.996
310.137
310.215
303.444
303.408
303.367
303.341
303.352
303.367
303.385
303.408
303.429
303.469
303.48
303.469
303.469
303.434
303.386
303.38
303.351
303.352
303.399
303.426
351.811
351.206
350.636
350.377
350.342
350.455
350.899
351.271
351.819
352.052
352.332
352.285
352.241
351.876
351.574
351.304
351.331
351.54
352.047
352.695
345.122
344.625
344.117
343.905
343.842
343.927
344.311
344.603
345.095
345.256
345.489
345.446
345.375
345.044
344.746
344.475
344.516
344.67
345.076
345.655
338.345
337.925
337.491
337.313
337.267
337.308
337.637
337.874
338.294
338.39
338.566
338.558
338.46
338.158
337.888
337.655
337.701
337.775
338.122
338.623
331.494
331.147
330.759
330.625
330.575
330.614
330.905
331.065
331.418
331.493
331.617
331.596
331.516
331.239
331.03
330.853
330.897
330.917
331.192
331.613
324.548
324.317
323.996
323.897
323.845
323.876
324.12
324.194
324.492
324.559
324.633
324.614
324.522
324.324
324.16
324.021
324.055
324.054
324.25
324.588
317.557
317.411
317.176
317.12
317.064
317.11
317.273
317.282
317.506
317.596
317.626
317.601
317.518
317.388
317.265
317.183
317.202
317.188
317.316
317.559
310.565
310.489
310.336
310.292
310.265
310.298
310.375
310.375
310.533
310.585
310.594
310.573
310.532
310.44
310.371
310.329
310.336
310.332
310.399
310.567
303.549
303.519
303.457
303.452
303.434
303.444
303.477
303.476
303.535
303.549
303.552
303.545
303.529
303.503
303.49
303.455
303.464
303.466
303.494
303.534
353.316
352.656
352.174
351.787
351.717
351.772
352.124
352.31
352.83
353.111
353.288
353.323
353.366
353.051
352.881
352.713
352.808
353.025
353.48
354.131
346.429
345.845
345.426
345.096
345.053
345.059
345.381
345.497
345.953
346.186
346.314
346.329
346.348
346.066
345.895
345.735
345.799
345.964
346.323
346.877
339.425
338.943
338.586
338.315
338.254
338.257
338.552
338.602
339.001
339.206
339.262
339.293
339.281
339.035
338.865
338.736
338.799
338.898
339.198
339.656
332.352
331.941
331.695
331.439
331.384
331.411
331.656
331.641
331.984
332.192
332.161
332.203
332.205
331.973
331.816
331.719
331.783
331.831
332.06
332.431
325.235
324.905
324.731
324.513
324.463
324.481
324.674
324.641
324.904
325.11
325.069
325.081
325.092
324.877
324.753
324.694
324.744
324.77
324.934
325.211
318.055
317.834
317.73
317.552
317.511
317.524
317.661
317.624
317.828
317.988
317.94
317.937
317.952
317.774
317.684
317.66
317.694
317.722
317.812
317.991
310.858
310.733
310.685
310.555
310.521
310.548
310.619
310.597
310.742
310.823
310.796
310.764
310.786
310.677
310.61
310.613
310.633
310.659
310.699
310.8
303.635
303.598
303.579
303.547
303.525
303.532
303.55
303.569
303.609
303.628
303.622
303.613
303.61
303.586
303.547
303.561
303.567
303.574
303.591
303.619
354.717
354.001
353.535
353.159
353.063
353.123
353.305
353.63
354.009
354.261
354.424
354.346
354.417
354.18
354.153
354.039
354.025
354.391
354.855
355.375
347.633
347.019
346.617
346.286
346.203
346.226
346.384
346.668
346.967
347.187
347.313
347.22
347.282
347.05
347.008
346.889
346.83
347.155
347.541
347.933
340.459
339.955
339.613
339.313
339.255
339.272
339.379
339.612
339.866
340.043
340.132
340.033
340.063
339.864
339.786
339.736
339.639
339.934
340.245
340.508
333.203
332.794
332.516
332.267
332.204
332.212
332.312
332.49
332.701
332.843
332.918
332.791
332.83
332.651
332.542
332.56
332.439
332.679
332.95
333.125
325.892
325.576
325.321
325.155
325.088
325.124
325.192
325.326
325.489
325.59
325.643
325.531
325.584
325.428
325.312
325.34
325.223
325.424
325.633
325.739
318.541
318.328
318.122
318.025
317.947
317.985
318.036
318.115
318.235
318.323
318.345
318.273
318.294
318.179
318.09
318.107
318.023
318.165
318.324
318.362
311.15
311.04
310.907
310.856
310.778
310.823
310.839
310.874
310.944
311.022
311.031
310.996
311.01
310.925
310.848
310.865
310.833
310.896
311.001
311.013
303.738
303.711
303.654
303.635
303.618
303.633
303.633
303.649
303.665
303.699
303.697
303.688
303.691
303.664
303.633
303.645
303.632
303.65
303.691
303.687
356.306
355.538
355.03
354.63
354.398
354.409
354.48
354.88
355.039
355.297
355.396
355.456
355.387
355.318
355.224
355.294
355.256
355.713
356.169
356.745
349.011
348.363
347.913
347.595
347.372
347.36
347.385
347.735
347.878
348.093
348.162
348.168
348.102
348.023
347.914
347.949
347.916
348.295
348.665
349.127
341.607
341.077
340.687
340.415
340.247
340.241
340.245
340.499
340.646
340.807
340.856
340.819
340.785
340.685
340.598
340.595
340.552
340.868
341.175
341.53
334.127
333.73
333.385
333.165
333.041
333.036
333.037
333.223
333.361
333.454
333.494
333.45
333.43
333.325
333.251
333.254
333.19
333.457
333.702
333.958
326.62
326.299
326.051
325.851
325.766
325.775
325.771
325.89
325.999
326.069
326.081
326.054
326.007
325.931
325.876
325.878
325.837
326.03
326.229
326.382
319.066
318.811
318.68
318.507
318.459
318.449
318.448
318.516
318.61
318.645
318.647
318.627
318.575
318.536
318.478
318.501
318.455
318.6
318.747
318.838
311.479
311.304
311.248
311.137
311.095
311.097
311.117
311.123
311.187
311.183
311.203
311.184
311.143
311.151
311.104
311.106
311.072
311.17
311.261
311.309
303.855
303.788
303.771
303.736
303.715
303.721
303.733
303.735
303.758
303.742
303.759
303.744
303.727
303.743
303.723
303.726
303.706
303.748
303.77
303.796
357.571
356.827
356.365
355.898
355.694
355.65
355.701
355.888
356.113
356.219
356.431
356.464
356.364
356.4
356.363
356.384
356.621
357.13
357.586
358.179
350.091
349.457
349.034
348.642
348.457
348.413
348.438
348.574
348.77
348.853
349.033
349.038
348.914
348.924
348.912
348.898
349.097
349.493
349.888
350.344
342.532
342.013
341.612
341.3
341.139
341.097
341.089
341.175
341.346
341.436
341.574
341.558
341.443
341.421
341.435
341.39
341.554
341.876
342.186
342.542
334.894
334.498
334.137
333.899
333.761
333.69
333.682
333.726
333.883
333.966
334.073
334.045
333.924
333.909
333.918
333.85
333.994
334.265
334.488
334.753
327.202
326.877
326.605
326.444
326.324
326.242
326.231
326.259
326.406
326.487
326.537
326.498
326.417
326.392
326.407
326.319
326.417
326.652
326.802
327.008
319.454
319.221
319.041
318.928
318.847
318.779
318.758
318.773
318.897
318.954
318.974
318.965
318.893
318.868
318.874
318.797
318.864
319.013
319.147
319.289
311.684
311.547
311.439
311.379
311.331
311.295
311.264
311.278
311.361
311.414
311.407
311.39
311.361
311.327
311.344
311.282
311.326
311.413
311.499
311.57
303.917
303.871
303.838
303.807
303.794
303.789
303.775
303.79
303.8
303.83
303.822
303.826
303.811
303.793
303.808
303.778
303.792
303.822
303.857
303.877
358.468
357.812
357.224
356.829
356.64
356.448
356.598
356.739
356.899
356.941
357.121
357.265
357.145
357.048
357.118
357.255
357.628
358.14
358.619
359.058
350.798
350.271
349.759
349.417
349.23
349.045
349.165
349.295
349.438
349.453
349.576
349.697
349.554
349.443
349.518
349.613
349.934
350.34
350.746
351.085
343.077
342.633
342.204
341.909
341.781
341.601
341.686
341.802
341.926
341.923
342.008
342.112
341.98
341.853
341.916
341.988
342.233
342.573
342.925
343.155
335.32
334.944
334.592
334.372
334.292
334.118
334.153
334.241
334.363
334.366
334.42
334.518
334.383
334.23
334.327
334.37
334.572
334.82
335.105
335.25
327.544
327.2
326.939
326.794
326.758
326.602
326.598
326.668
326.759
326.768
326.822
326.884
326.761
326.614
326.73
326.729
326.905
327.076
327.309
327.395
319.722
319.454
319.264
319.166
319.154
319.033
319.018
319.085
319.129
319.146
319.198
319.23
319.14
319.023
319.123
319.083
319.216
319.334
319.519
319.554
311.849
311.687
311.572
311.521
311.514
311.427
311.43
311.477
311.486
311.511
311.554
311.554
311.504
311.433
311.496
311.46
311.545
311.606
311.723
311.731
303.981
303.923
303.874
303.863
303.858
303.825
303.826
303.85
303.846
303.872
303.876
303.869
303.862
303.827
303.852
303.834
303.864
303.889
303.926
303.936
)
;

boundaryField
{
    hotSide
    {
        type            fixedGradient;
        gradient        nonuniform List<scalar> 
400
(
374.895
375.34
378.346
383.852
391.611
401.263
412.425
424.745
437.932
451.759
466.055
480.7
495.609
510.733
526.049
541.553
557.259
573.189
589.36
605.778
359.577
360.202
363.568
369.597
377.99
388.324
400.159
413.104
426.848
441.155
455.851
470.818
485.977
501.286
516.73
532.316
548.072
564.031
580.222
596.66
351.263
352.305
356.055
362.429
371.13
381.738
393.815
406.97
420.888
435.329
450.118
465.134
480.302
495.582
510.965
526.464
542.112
557.946
574.002
590.299
349.533
351.211
355.382
361.961
370.695
381.227
393.169
406.161
419.903
434.155
448.742
463.542
478.478
493.514
508.641
523.876
539.251
554.803
570.568
586.566
352.682
355.12
359.774
366.556
375.259
385.596
397.242
409.884
423.244
437.095
451.266
465.635
480.132
494.722
509.403
524.194
539.128
554.241
569.567
585.13
358.776
362.02
367.233
374.318
383.096
393.325
404.728
417.027
429.969
443.341
456.981
470.78
484.678
498.655
512.72
526.902
541.241
555.775
570.541
585.564
366.239
370.292
376.133
383.654
392.682
402.991
414.324
426.417
439.026
451.946
465.029
478.186
491.38
504.619
517.936
531.382
545.009
558.864
572.988
587.409
373.883
378.712
385.22
393.288
402.735
413.331
424.809
436.89
449.317
461.879
474.439
486.934
499.369
511.797
524.291
536.931
549.79
562.927
576.386
590.196
380.793
386.307
393.459
402.119
412.096
423.139
434.951
447.215
459.628
471.957
484.067
495.933
507.619
519.238
530.916
542.771
554.896
567.359
580.206
593.464
386.252
392.282
399.956
409.141
419.636
431.169
443.407
455.975
468.513
480.741
492.522
503.875
514.931
525.872
536.879
548.098
559.64
571.578
583.956
596.797
389.753
396.044
404.009
413.514
424.354
436.243
448.819
461.667
474.374
486.625
498.274
509.37
520.094
530.676
541.326
552.212
563.451
575.116
587.252
599.877
391.076
397.315
405.264
414.789
425.679
437.644
450.317
463.275
476.105
488.485
500.269
511.496
522.341
533.03
543.771
554.73
566.026
577.735
589.903
602.551
390.352
396.23
403.865
413.121
423.785
435.568
448.115
461.032
473.945
486.561
498.73
510.452
521.845
533.081
544.334
555.752
567.449
579.504
591.966
604.865
388.086
393.356
400.464
409.279
419.584
431.093
443.466
456.344
469.395
482.354
495.065
507.485
519.661
531.698
543.719
555.844
568.174
580.788
593.739
607.064
385.146
389.647
396.13
404.469
414.442
425.753
438.063
451.024
464.325
477.716
491.031
504.191
517.19
530.078
542.932
555.842
568.893
582.158
595.694
609.54
382.772
386.428
392.277
400.201
409.96
421.222
433.621
446.797
460.436
474.289
488.182
502.014
515.748
529.397
543.007
556.642
570.375
584.273
598.392
612.772
382.63
385.445
390.703
398.293
407.935
419.243
431.799
445.217
459.172
473.413
487.765
502.116
516.413
530.65
544.852
559.068
573.36
587.791
602.417
617.275
386.748
388.828
393.55
400.81
410.288
421.547
434.13
447.628
461.713
476.137
490.726
505.367
519.999
534.604
549.193
563.804
578.491
593.311
608.316
623.542
396.927
398.488
402.717
409.523
418.59
429.48
441.74
454.97
468.851
483.141
497.669
512.32
527.028
541.762
556.523
571.337
586.243
601.292
616.526
631.973
413.703
414.984
418.758
424.949
433.297
443.433
454.964
467.529
480.834
494.648
508.803
523.181
537.705
552.336
567.06
581.887
596.842
611.956
627.261
642.773
)
;
    }
    coldSide
    {
        type            mixed;
        refValue        uniform 300;
        refGradient     uniform 0;
        valueFraction   uniform 0.991591;
        source          uniform 0;
        value           nonuniform List<scalar> 
400
(
300.022
300.021
300.022
300.022
300.022
300.023
300.023
300.024
300.025
300.026
300.026
300.027
300.028
300.029
300.03
300.031
300.031
300.032
300.033
300.033
300.021
300.021
300.021
300.021
300.022
300.022
300.023
300.024
300.025
300.025
300.026
300.027
300.028
300.029
300.03
300.03
300.031