/*--------------------------------*- C++ -*----------------------------------*\
| =========                 |                                                 |
| \\      /  F ield         | OpenFOAM: The Open Source CFD Toolbox           |
|  \\    /   O peration     | Version:  2212                                  |
|   \\  /    A nd           | Website:  www.openfoam.com                      |
|    \\/     M anipulation  |                                                 |
\*---------------------------------------------------------------------------*/
FoamFile
{
    version     2.0;
    format      ascii;
    arch        "LSB;label=32;scalar=64";
    class       volScalarField;
    location    "./ITHACAoutput/true/7";
    object      error;
}
// * * * * * * * * * * * * * * * * * * * * * * * * * * * * * * * * * * * * * //

dimensions      [0 0 0 1 0 0 0];

internalField   nonuniform List<scalar> 
3200
(
3.38764
3.07747
2.83402
2.72929
2.82804
2.99753
3.25722
3.50481
3.76318
3.92244
4.0389
3.85955
3.67394
3.49024
3.22505
3.09901
3.082
3.11763
3.417
3.87847
3.02007
2.81966
2.56094
2.63088
2.53485
2.77948
3.00025
3.24421
3.38971
3.52549
3.60972
3.48276
3.34202
3.13815
3.01962
2.82835
2.79823
2.8997
3.05721
3.39482
2.6712
2.51256
2.2419
2.18589
2.30742
2.4681
2.68437
2.80188
3.00512
3.07319
3.16244
3.04546
2.95467
2.78902
2.60331
2.5241
2.49807
2.59024
2.73218
2.96017
2.19314
2.09527
1.97929
1.88955
1.90878
2.06965
2.21319
2.36738
2.54164
2.57373
2.62632
2.55517
2.42977
2.38954
2.18993
2.15129
2.14524
2.18626
2.30167
2.53337
1.73448
1.65297
1.56032
1.53563
1.57118
1.6526
1.79758
1.92626
2.02856
2.09306
2.14338
2.07504
1.99284
1.81771
1.74883
1.69098
1.67141
1.74908
1.83043
1.99581
1.24662
1.19182
1.17244
1.08895
1.14444
1.14067
1.22948
1.31912
1.44475
1.50167
1.48657
1.49767
1.38967
1.41381
1.26443
1.23024
1.29439
1.2632
1.29445
1.38567
0.742697
0.75589
0.664064
0.711351
0.721911
0.713926
0.823007
0.80475
0.881965
0.888095
0.970736
0.896194
0.839796
0.78268
0.812234
0.769551
0.687952
0.797338
0.881044
0.824216
0.271233
0.2327
0.251946
0.295573
0.254811
0.251712
0.22415
0.271329
0.336785
0.265543
0.285292
0.243142
0.337587
0.253338
0.287099
0.262217
0.256766
0.209063
0.271968
0.26034
2.53229
2.15374
1.91403
1.80581
1.82061
1.97909
2.18799
2.43169
2.70205
2.80273
2.90786
2.80634
2.66162
2.42362
2.22943
2.05034
2.05421
2.21264
2.49179
2.86085
2.38279
2.09667
1.84598
1.70692
1.75889
1.92228
2.17873
2.31663
2.46655
2.68609
2.63423
2.61859
2.40761
2.28517
2.08703
1.98095
1.99469
2.08952
2.42709
2.62436
2.07574
1.87306
1.62893
1.55283
1.60127
1.74327
1.91186
2.12775
2.26551
2.36182
2.39785
2.35984
2.23602
2.07403
1.89434
1.83258
1.85666
1.95147
2.19038
2.35759
1.76895
1.56447
1.525
1.39269
1.42666
1.45858
1.69062
1.79108
1.98957
2.0198
2.06551
1.96067
1.88193
1.81106
1.71039
1.5486
1.55033
1.72463
1.88568
2.02996
1.44307
1.35207
1.2151
1.19756
1.14584
1.22048
1.36482
1.54869
1.54096
1.59839
1.67241
1.56363
1.49818
1.46624
1.39512
1.2425
1.35463
1.31393
1.46476
1.56647
0.993037
0.915145
0.842501
0.82867
0.900684
0.903192
1.02784
1.054
1.12565
1.18569
1.15247
1.15072
1.14489
1.08212
1.04012
0.90035
0.975045
0.940836
1.12423
1.22677
0.624298
0.491166
0.553731
0.518916
0.516725
0.550957
0.558343
0.663094
0.706455
0.733723
0.727922
0.761787
0.703906
0.645098
0.610442
0.626122
0.648347
0.601909
0.607903
0.775207
0.242501
0.193364
0.113709
0.174507
0.17395
0.223953
0.224568
0.211078
0.264936
0.210247
0.264562
0.291615
0.201259
0.169185
0.164075
0.209732
0.203384
0.132335
0.247923
0.275611
1.42272
1.09215
0.742947
0.547929
0.6755
0.647219
0.805512
1.1013
1.28327
1.42979
1.47252
1.35158
1.12837
1.06077
0.949808
0.86646
0.889468
1.15196
1.40927
1.6963
1.40873
1.12903
0.889712
0.771796
0.751745
0.817237
0.987869
1.12711
1.44765
1.44136
1.51056
1.46796
1.34255
1.19651
0.98719
0.973118
0.993078
1.12415
1.40311
1.72964
1.42433
1.12496
0.876732
0.791855
0.801885
0.915477
1.00842
1.19095
1.29001
1.40012
1.46079
1.41762
1.24972
1.09744
1.08901
0.942195
1.05477
1.12873
1.39534
1.6463
1.19961
0.992708
0.82315
0.76742
0.704567
0.783315
0.97685
1.05389
1.21394
1.1915
1.33918
1.20248
1.09509
1.08304
0.941499
0.891955
0.908079
1.0354
1.25564
1.47725
0.970258
0.892012
0.766034
0.593525
0.63666
0.72477
0.802633
0.916081
1.01256
1.08485
1.08397
1.02145
0.982958
0.902581
0.793607
0.777133
0.769823
0.849833
0.974949
1.21924
0.770163
0.703965
0.538093
0.46547
0.450713
0.573266
0.57768
0.564554
0.752972
0.811978
0.787871
0.811774
0.706527
0.615382
0.672025
0.55212
0.574217
0.638725
0.739786
0.952231
0.431527
0.400567
0.310338
0.293447
0.304852
0.364637
0.403261
0.409656
0.427179
0.569617
0.50953
0.466837
0.436848
0.408637
0.344357
0.315269
0.468367
0.406376
0.480508
0.546536
0.131167
0.102031
0.0941234
0.179167
0.147417
0.123323
0.133402
0.140291
0.168939
0.170587
0.124072
0.134036
0.137501
0.117919
0.155005
0.0930361
0.100025
0.151923
0.186368
0.189917
0.564086
0.137616
-0.303827
-0.550928
-0.556445
-0.515822
-0.420376
-0.212143
-0.0523299
0.0363102
0.112081
-0.020149
-0.132678
-0.28873
-0.310232
-0.391488
-0.317665
0.0305803
0.347325
0.817015
0.652101
0.282408
-0.00783587
-0.179877
-0.311311
-0.219968
-0.0173022
0.17273
0.184353
0.300988
0.244831
0.249135
0.209319
0.0528222
-0.036957
0.013612
-0.0428406
0.212561
0.622134
0.874816
0.698451
0.415425
0.177649
-0.063093
-0.0249731
-0.00285749
0.161334
0.235192
0.31023
0.370356
0.474112
0.368828
0.3571
0.195091
0.127326
0.158151
0.157644
0.318298
0.563444
0.97152
0.721741
0.493235
0.270654
0.0811814
0.0176364
0.152797
0.219198
0.33554
0.421739
0.45714
0.473269
0.422155
0.368166
0.33267
0.277786
0.208947
0.310797
0.335227
0.589173
0.903194
0.582093
0.460669
0.230746
0.139402
0.122746
0.174115
0.210806
0.341001
0.415035
0.446463
0.467863
0.423584
0.309848
0.269168
0.219613
0.302414
0.234652
0.426277
0.534457
0.693223
0.45834
0.311264
0.191733
0.142256
0.129501
0.162424
0.167206
0.309149
0.345668
0.351495
0.371669
0.328462
0.317562
0.227352
0.178182
0.152613
0.234061
0.322132
0.438561
0.55684
0.287335
0.190654
0.11586
0.095424
0.136775
0.158043
0.18923
0.114524
0.187905
0.28031
0.215581
0.177988
0.176183
0.138548
0.200824
0.0945345
0.114155
0.15961
0.27312
0.32945
0.0845256
0.0302
0.054366
0.0604154
0.0670891
0.000853043
0.0795441
0.0613849
0.0981668
0.109689
0.103907
0.125023
0.0447486
0.033903
0.0503443
0.0393952
0.00745129
0.0734464
0.133607
0.0499135
-0.292054
-0.809882
-1.21535
-1.51774
-1.58018
-1.64846
-1.57358
-1.46628
-1.26903
-1.23026
-1.21933
-1.26212
-1.39636
-1.44282
-1.45269
-1.42608
-1.32772
-0.982907
-0.512628
-0.0550593
0.074391
-0.378639
-0.795195
-0.964752
-1.18254
-1.08277
-1.0979
-0.963555
-0.822782
-0.835491
-0.747382
-0.803529
-0.906869
-0.892315
-1.05182
-0.967888
-0.902622
-0.542022
-0.288882
0.260661
0.112456
-0.205387
-0.448433
-0.661403
-0.807717
-0.780373
-0.723417
-0.61234
-0.543221
-0.446795
-0.443825
-0.426206
-0.60688
-0.626487
-0.673787
-0.647274
-0.575549
-0.322105
0.00525597
0.347892
0.160304
-0.0523217
-0.328928
-0.470399
-0.5588
-0.534422
-0.486949
-0.367189
-0.332478
-0.269929
-0.320453
-0.239426
-0.291682
-0.411366
-0.438491
-0.368966
-0.281158
-0.170663
0.128368
0.360133
0.249024
0.066779
-0.145975
-0.279028
-0.361078
-0.329425
-0.307022
-0.252668
-0.158037
-0.11005
-0.151067
-0.171064
-0.161728
-0.270087
-0.235949
-0.184861
-0.162177
-0.0148407
0.161322
0.347912
0.205595
0.097351
-0.100455
-0.190927
-0.235108
-0.209926
-0.10023
-0.0367013
-0.119593
-0.0067048
-0.0456149
-0.0973978
-0.0744602
-0.0696318
-0.189651
-0.179945
-0.122114
0.0281952
0.234978
0.280055
0.0924148
0.0126029
0.0229978
-0.0684721
-0.106245
-0.108005
-0.0901396
-0.0325513
-0.0526328
0.0216878
-0.00545132
-0.0204429
0.00592427
-0.0460747
-0.0317306
-0.0530511
-0.0724124
-0.0215921
0.102958
0.145604
0.0627828
0.00579305
-0.0445889
0.0295951
-0.0239222
-0.0372068
0.0117592
0.0327485
-0.00232575
0.0155655
-0.0216826
0.000257054
-0.0214593
0.0208165
-0.053393
-0.0826701
-0.00751197
0.0247571
0.0761806
0.0454983
-0.806033
-1.38814
-1.81813
-2.23051
-2.44149
-2.53943
-2.54375
-2.42659
-2.34205
-2.36669
-2.28792
-2.32432
-2.41121
-2.41093
-2.43326
-2.3455
-2.08108
-1.67326
-1.18207
-0.630659
-0.52096
-0.973842
-1.37718
-1.69041
-1.84969
-1.85633
-1.85474
-1.82266
-1.7546
-1.72683
-1.61734
-1.76584
-1.77672
-1.81793
-1.82626
-1.7158
-1.53412
-1.20249
-0.743491
-0.329541
-0.275132
-0.599906
-0.999557
-1.22557
-1.46832
-1.47781
-1.43964
-1.31284
-1.29853
-1.27533
-1.25097
-1.2289
-1.2978
-1.32497
-1.39196
-1.20586
-1.11416
-0.80587
-0.543248
-0.0941911
-0.0943657
-0.422112
-0.667513
-0.887109
-0.987382
-1.0859
-1.01389
-1.0013
-0.895168
-0.898187
-0.923688
-0.88071
-0.922836
-0.965186
-1.00626
-0.824023
-0.798663
-0.580862
-0.285915
0.0544461
-0.0142594
-0.246112
-0.434117
-0.635701
-0.684122
-0.780496
-0.778574
-0.762925
-0.584117
-0.555627
-0.564707
-0.634367
-0.721917
-0.715164
-0.661118
-0.662444
-0.56925
-0.388435
-0.120279
0.0641034
-0.0324541
-0.12789
-0.280213
-0.439984
-0.489114
-0.484578
-0.531191
-0.380509
-0.388359
-0.440069
-0.342875
-0.403703
-0.451407
-0.464478
-0.463381
-0.382376
-0.339779
-0.232672
-0.0470077
0.0624944
0.0634652
-0.0601584
-0.138802
-0.234668
-0.213422
-0.332954
-0.311837
-0.199272
-0.234218
-0.287575
-0.228212
-0.176351
-0.158173
-0.287746
-0.201361
-0.271898
-0.244966
-0.175305
-0.0198751
0.0786675
-0.0403953
-0.0885215
-0.0680844
-0.043351
-0.213791
-0.135279
-0.0762432
-0.129435
-0.0554672
-0.0907784
-0.0649638
-0.111333
-0.0579694
-0.0380461
-0.0534378
-0.0895959
-0.0666291
-0.0459976
-0.00787983
0.0551655
-1.18467
-1.83663
-2.28639
-2.8606
-3.09545
-3.23612
-3.35601
-3.25365
-3.2406
-3.14412
-3.13707
-3.15447
-3.19316
-3.1765
-3.11441
-2.94601
-2.67776
-2.13711
-1.69368
-0.990068
-0.764146
-1.29945
-1.8069
-2.20013
-2.42958
-2.50369
-2.59196
-2.5423
-2.46309
-2.44027
-2.42784
-2.47017
-2.51892
-2.49455
-2.3976
-2.26211
-2.06181
-1.68072
-1.21341
-0.642532
-0.451996
-0.926228
-1.37963
-1.69998
-1.73876
-1.94416
-2.00239
-1.98179
-1.90577
-1.84174
-1.91825
-1.96405
-1.94545
-1.88202
-1.87452
-1.76516
-1.47257
-1.21102
-0.880939
-0.335759
-0.33325
-0.628869
-0.941373
-1.22983
-1.42765
-1.42856
-1.47152
-1.45496
-1.40055
-1.45113
-1.40185
-1.39676
-1.39213
-1.38145
-1.3189
-1.28242
-1.12184
-0.858901
-0.493503
-0.222795
-0.181645
-0.394167
-0.660472
-0.930792
-0.96704
-1.09887
-1.10453
-1.08795
-1.05263
-1.00946
-1.01382
-1.02573
-0.94673
-1.00312
-0.942442
-0.97792
-0.75621
-0.63052
-0.318065
-0.178147
-0.136874
-0.22692
-0.463094
-0.601035
-0.656012
-0.696846
-0.729234
-0.730656
-0.739543
-0.676226
-0.654441
-0.754375
-0.697301
-0.750645
-0.6544
-0.603404
-0.514012
-0.424893
-0.158487
0.0327135
-0.103329
-0.168196
-0.271992
-0.382127
-0.420025
-0.419352
-0.424607
-0.410271
-0.351947
-0.42026
-0.386689
-0.392238
-0.427909
-0.340491
-0.399817
-0.42193
-0.300568
-0.244549
-0.13831
-0.0320832
-0.0750574
0.00782051
-0.0801661
-0.07476
-0.144711
-0.157528
-0.216888
-0.210942
-0.178044
-0.0914462
-0.146746
-0.188273
-0.191361
-0.102933
-0.119078
-0.136799
-0.0651405
-0.00585007
-0.00667882
0.0401716
-1.27338
-1.90138
-2.5557
-3.09617
-3.45497
-3.67043
-3.79447
-3.83775
-3.78378
-3.80579
-3.77066
-3.75866
-3.79945
-3.7671
-3.54375
-3.43547
-3.01726
-2.48043
-1.85055
-1.16871
-0.873741
-1.41949
-1.90089
-2.43131
-2.66911
-2.97754
-2.97227
-3.04161
-3.00536
-2.98166
-2.99536
-3.00676
-3.00194
-2.89093
-2.8666
-2.62599
-2.32176
-1.88192
-1.33727
-0.740411
-0.534577
-1.03461
-1.45641
-1.81064
-2.13446
-2.23798
-2.35126
-2.34681
-2.34706
-2.37608
-2.36076
-2.35134
-2.33164
-2.19299
-2.22229
-2.04053
-1.75696
-1.3787
-0.93737
-0.481504
-0.369253
-0.755547
-1.10888
-1.44285
-1.65607
-1.73338
-1.79016
-1.83346
-1.77975
-1.76149
-1.81965
-1.7554
-1.76972
-1.74072
-1.65476
-1.53562
-1.2311
-1.05051
-0.669504
-0.266769
-0.197384
-0.467203
-0.83193
-0.990241
-1.1189
-1.25994
-1.29666
-1.24112
-1.26122
-1.2778
-1.31952
-1.23093
-1.26448
-1.24088
-1.25191
-1.12264
-0.883886
-0.733018
-0.41058
-0.0801575
-0.114293
-0.297595
-0.550294
-0.681078
-0.771919
-0.891027
-0.910962
-0.828118
-0.870847
-0.880824
-0.937256
-0.908189
-0.859441
-0.937096
-0.841533
-0.805984
-0.599994
-0.496003
-0.2285
-0.154852
-0.0993233
-0.17468
-0.266939
-0.377808
-0.403423
-0.486811
-0.610119
-0.583738
-0.522633
-0.518813
-0.510799
-0.510193
-0.481971
-0.515992
-0.493285
-0.368198
-0.322259
-0.295305
-0.127878
-0.0581888
0.000819424
-0.0736154
-0.170344
-0.135602
-0.0860227
-0.147043
-0.189497
-0.218098
-0.175134
-0.1935
-0.151196
-0.0933819
-0.241564
-0.174149
-0.152327
-0.188085
-0.177587
-0.112184
-0.0607293
-0.0334055
-1.14011
-1.82962
-2.59108
-3.14044
-3.59646
-3.89945
-4.09065
-4.11461
-4.19227
-4.15195
-4.24579
-4.16461
-4.13583
-4.00731
-3.91946
-3.53295
-3.10966
-2.53028
-1.80417
-1.10522
-0.764353
-1.28016
-1.89471
-2.44529
-2.78335
-3.06409
-3.23742
-3.31355
-3.26141
-3.3125
-3.32029
-3.31726
-3.20783
-3.22695
-3.02069
-2.77759
-2.43676
-1.90933
-1.2443
-0.664117
-0.462398
-0.999252
-1.47609
-1.88703
-2.16632
-2.39599
-2.48179
-2.56827
-2.63092
-2.58101
-2.68386
-2.6188
-2.51962
-2.4363
-2.34066
-2.12306
-1.77167
-1.42577
-0.936432
-0.431786
-0.295234
-0.65642
-1.08516
-1.47277
-1.62653
-1.82573
-1.94066
-1.94346
-2.00184
-2.03226
-2.02247
-1.98463
-1.91889
-1.8629
-1.79953
-1.66925
-1.35081
-1.008
-0.622483
-0.215234
-0.160442
-0.33459
-0.709897
-1.00859
-1.23312
-1.29754
-1.45816
-1.45558
-1.45295
-1.45934
-1.43466
-1.35558
-1.40209
-1.33884
-1.25467
-1.15685
-1.03512
-0.692526
-0.380762
-0.069772
-0.0824001
-0.318928
-0.475571
-0.630362
-0.785199
-0.852066
-0.94548
-0.960173
-0.985776
-1.00962
-1.01387
-1.01849
-0.978758
-0.87927
-0.874981
-0.759023
-0.700678
-0.43014
-0.232824
-0.0284624
-0.0364445
-0.127243
-0.308684
-0.436563
-0.478836
-0.471636
-0.576927
-0.573753
-0.618927
-0.679295
-0.517211
-0.547171
-0.617302
-0.507076
-0.466676
-0.456838
-0.307327
-0.229751
-0.1384
0.0377724
-0.067506
-0.0323234
-0.0959327
-0.111074
-0.184667
-0.260278
-0.163384
-0.246884
-0.205822
-0.25302
-0.183627
-0.171837
-0.194031
-0.193294
-0.157144
-0.160641
-0.0545294
-0.10679
-0.0322325
-0.0130373
-0.700623
-1.47458
-2.22475
-2.89836
-3.43719
-3.7803
-3.96954
-4.27986
-4.23817
-4.22495
-4.20767
-4.26963
-4.15774
-4.0818
-3.76131
-3.41167
-2.89161
-2.27963
-1.46056
-0.610113
-0.326262
-1.00085
-1.68857
-2.20282
-2.65529
-2.97071
-3.12741
-3.35149
-3.41237
-3.41513
-3.40447
-3.36233
-3.30637
-3.14815
-2.96014
-2.67161
-2.17393
-1.66774
-0.973493
-0.281598
-0.0880796
-0.621544
-1.26024
-1.67139
-2.0134
-2.2683
-2.43904
-2.58633
-2.65676
-2.63379
-2.70145
-2.63456
-2.55981
-2.46673
-2.29087
-2.01925
-1.69745
-1.13365
-0.607798
-0.0611067
0.0117541
-0.367677
-0.825011
-1.22619
-1.53909
-1.74104
-1.90262
-1.958
-2.03802
-2.06592
-1.99219
-2.0043
-1.94127
-1.88134
-1.79302
-1.52763
-1.23072
-0.81398
-0.381488
-0.0261853
0.116424
-0.271488
-0.517766
-0.972341
-1.13854
-1.29957
-1.38621
-1.47555
-1.45361
-1.51712
-1.47071
-1.48713
-1.39847
-1.358
-1.29059
-1.12435
-0.865885
-0.574678
-0.167826
0.100333
0.0939741
-0.179591
-0.361493
-0.565384
-0.762063
-0.861536
-0.967754
-1.02093
-1.05921
-1.02179
-1.03417
-0.998622
-0.905777
-1.01334
-0.848717
-0.731678
-0.538759
-0.414348
-0.0481505
0.136629
0.0745571
-0.0178137
-0.214691
-0.36707
-0.468385
-0.485774
-0.582692
-0.610658
-0.590078
-0.683019
-0.675449
-0.557129
-0.493603
-0.623122
-0.519535
-0.438016
-0.305533
-0.219638
-0.0362056
0.146218
0.0570978
-0.0772606
-0.0717251
-0.17905
-0.162519
-0.169318
-0.151426
-0.200482
-0.237963
-0.181338
-0.218103
-0.223992
-0.164494
-0.215427
-0.177617
-0.0871743
-0.079878
-0.0561098
-0.0434058
-0.0161198
0.0291442
-0.78918
-1.69476
-2.36688
-3.03217
-3.44376
-3.7185
-3.97241
-3.98962
-4.12456
-4.08815
-4.10353
-3.99365
-3.76265
-3.46223
-2.98858
-2.45101
-1.68227
-0.860444
-0.00601626
0.267007
-0.361783
-1.16861
-1.77767
-2.2607
-2.62381
-2.89136
-3.07557
-3.17837
-3.2943
-3.24317
-3.24956
-3.05525
-2.98328
-2.65136
-2.29395
-1.81167
-1.15792
-0.452125
0.214633
0.437916
-0.195224
-0.784855
-1.2792
-1.74781
-2.02458
-2.31783
-2.48714
-2.46552
-2.5032
-2.55939
-2.41713
-2.37172
-2.25396
-2.02013
-1.74042
-1.39579
-0.800528
-0.150739
0.393108
0.476247
-0.0295463
-0.530035
-0.932419
-1.27084
-1.52994
-1.71042
-1.84218
-1.85075
-1.8869
-1.93196
-1.92345
-1.80784
-1.63952
-1.5298
-1.28645
-0.908696
-0.487554
-0.0146368
0.444686
0.432982
0.0956332
-0.291148
-0.668183
-0.887883
-1.09501
-1.28789
-1.34326
-1.32859
-1.37185
-1.3612
-1.4297
-1.3217
-1.1613
-1.05823
-0.9387
-0.602045
-0.364422
0.0463721
0.374324
0.331708
0.0806488
-0.16285
-0.418702
-0.611503
-0.766796
-0.849574
-0.946415
-1.0043
-0.979941
-0.936587
-0.952127
-0.873585
-0.797091
-0.738132
-0.614435
-0.452587
-0.142941
0.0824146
0.319576
0.243202
0.0547522
-0.0472293
-0.20857
-0.316853
-0.412145
-0.490568
-0.563526
-0.569369
-0.583848
-0.539015
-0.474094
-0.517756
-0.443547
-0.443558
-0.404548
-0.209458
-0.0495824
0.114153
0.306531
0.132009
-0.000726846
0.0577133
-0.116048
-0.0608033
-0.124669
-0.0891337
-0.149144
-0.104473
-0.161881
-0.151579
-0.204179
-0.183722
-0.182098
-0.110578
-0.0817979
-0.115869
-0.0479056
0.00917064
0.113641
1.0801
0.1887
-0.743027
-1.62919
-2.31616
-2.73358
-3.01537
-3.38289
-3.5419
-3.59784
-3.68977
-3.53138
-3.37286
-3.15554
-2.72001
-2.33723
-1.63985
-0.875167
0.0140035
0.951293
1.24975
0.477064
-0.433461
-1.1267
-1.59746
-2.02243
-2.34304
-2.59132
-2.79308
-2.78449
-2.81443
-2.70371
-2.56987
-2.39345
-2.05839
-1.69542
-1.14905
-0.419373
0.43589
1.04926
1.14584
0.536904
-0.127387
-0.70031
-1.22078
-1.48158
-1.81585
-2.00282
-2.10025
-2.14002
-2.12643
-2.09411
-1.90536
-1.76213
-1.56021
-1.16819
-0.709698
-0.118988
0.453177
1.11092
1.06838
0.594773
0.0121842
-0.40259
-0.818953
-1.05741
-1.31346
-1.47445
-1.54257
-1.64503
-1.59327
-1.56452
-1.51408
-1.37038
-1.02241
-0.77512
-0.432909
0.0859525
0.567149
0.979301
0.87386
0.496332
0.111042
-0.219846
-0.548285
-0.766088
-0.980943
-1.05558
-1.1756
-1.16538
-1.12951
-1.13016
-1.05818
-0.9596
-0.831842
-0.6119
-0.25857
0.0455291
0.502189
0.89539
0.648256
0.437062
0.129387
-0.158983
-0.358044
-0.492904
-0.646481
-0.779637
-0.8003
-0.864804
-0.826954
-0.70649
-0.708111
-0.626429
-0.551911
-0.31263
-0.169041
0.133797
0.446281
0.72627
0.407223
0.229153
0.116047
-0.0615498
-0.195419
-0.28023
-0.339188
-0.435551
-0.464889
-0.508243
-0.426017
-0.447278
-0.395234
-0.309705
-0.241308
-0.226633
-0.134444
0.0889579
0.345574
0.369155
0.115089
0.0901071
0.0532451
0.00331044
-0.0445426
-0.106056
-0.133995
-0.2004
-0.0924823
-0.13161
-0.167263
-0.139223
-0.108216
-0.162967
-0.0888928
-0.100054
-0.061656
0.0411407
0.0852196
0.228961
2.36906
1.42642
0.399144
-0.400439
-1.22988
-1.7585
-2.13386
-2.48601
-2.70508
-2.75714
-2.75141
-2.66051
-2.48566
-2.22352
-1.82705
-1.29164
-0.540021
0.261942
1.23718
2.25488
2.28916
1.53479
0.665514
-0.0611627
-0.767735
-1.17055
-1.54693
-1.85163
-2.00486
-2.09032
-2.05592
-2.01308
-1.80973
-1.51889
-1.22669
-0.781683
-0.198344
0.567739
1.39175
2.18018
2.11332
1.415
0.770117
0.137096
-0.43728
-0.820485
-1.06034
-1.34134
-1.43074
-1.45574
-1.48507
-1.46342
-1.31188
-1.15288
-0.814747
-0.424945
0.0330246
0.722462
1.36472
2.05915
1.79196
1.32484
0.743591
0.289853
-0.201343
-0.575012
-0.740401
-0.911845
-1.10111
-1.02641
-1.07827
-1.07695
-0.913281
-0.797282
-0.518241
-0.217541
0.230329
0.671886
1.25741
1.76203
1.46886
1.10726
0.67969
0.210292
-0.0928105
-0.311084
-0.539065
-0.61184
-0.736404
-0.744363
-0.823805
-0.754391
-0.606037
-0.45715
-0.262954
-0.077665
0.292104
0.651921
1.08689
1.46251
1.12773
0.789753
0.532008
0.222655
-0.086431
-0.137388
-0.33975
-0.411359
-0.467168
-0.523549
-0.518083
-0.42246
-0.422902
-0.281339
-0.17934
-0.0106745
0.153685
0.553471
0.833022
1.1079
0.694187
0.505787
0.30806
0.150963
0.023734
-0.0853845
-0.200997
-0.255484
-0.249347
-0.32697
-0.258052
-0.317567
-0.297411
-0.191403
-0.0391943
-0.00128114
0.190608
0.345401
0.496144
0.619185
0.26257
0.227804
0.132241
-0.020016
-0.0134267
0.00841378
-0.0782483
-0.118105
-0.0445674
-0.15591
-0.116078
-0.0466991
-0.0145346
-0.063991
-0.051529
0.0261942
0.105006
0.151703
0.205857
0.275496
3.95267
2.99035
1.94286
1.04816
0.17229
-0.408725
-0.929271
-1.25661
-1.51992
-1.58962
-1.63009
-1.49659
-1.31094
-0.979485
-0.551964
0.0310553
0.830784
1.73716
2.79372
3.75817
3.70008
2.85676
1.93815
1.17892
0.433964
0.0230204
-0.498305
-0.739868
-0.902879
-1.0882
-1.06494
-0.98592
-0.818066
-0.498163
-0.103442
0.384675
1.07282
1.83248
2.73892
3.4872
3.31791
2.51855
1.91537
1.17854
0.647496
0.0970766
-0.222939
-0.40875
-0.621916
-0.650833
-0.677911
-0.631928
-0.463706
-0.221925
0.0882636
0.515775
1.10178
1.69241
2.45552
3.19611
2.79087
2.21742
1.67605
1.16417
0.661597
0.283582
0.0246787
-0.188424
-0.343369
-0.362608
-0.435716
-0.368179
-0.194407
0.04044
0.253294
0.582784
0.999641
1.58639
2.13201
2.68329
2.26714
1.79667
1.32113
0.996235
0.627012
0.304834
0.0606986
-0.121628
-0.179198
-0.253521
-0.158111
-0.196886
-0.0406543
0.113063
0.244843
0.554616
0.889991
1.32499
1.7387
2.14494
1.61335
1.28758
1.02827
0.686705
0.44737
0.285306
0.14902
-7.82699e-05
-0.113466
-0.149657
-0.0705939
-0.0793277
-0.00542821
0.150768
0.213973
0.469937
0.701781
0.994281
1.30608
1.52483
1.01833
0.875795
0.610759
0.477797
0.313368
0.118183
0.091338
0.0232379
-0.00696036
0.0111367
-0.0465604
0.00864403
-0.0351764
0.127633
0.239157
0.258943
0.435104
0.609915
0.800406
0.973516
0.314058
0.264244
0.263669
0.138469
0.133945
0.0529918
-0.0324622
-0.0522402
0.0163904
0.0399059
0.0594907
-0.0881646
-0.0102408
0.0296057
0.0418675
0.126875
0.112148
0.208315
0.268359
0.386987
5.88222
4.81364
3.67468
2.68217
1.86073
1.24004
0.681914
0.250679
0.0103959
-0.11768
-0.179896
0.0190509
0.124289
0.578232
1.06546
1.71664
2.54107
3.42155
4.64211
5.60055
5.33413
4.49453
3.52608
2.65916
1.94872
1.43947
0.935213
0.562224
0.361582
0.219307
0.215113
0.272657
0.443572
0.834401
1.24634
1.85831
2.55543
3.36266
4.34553
5.20288
4.68497
3.95842
3.26152
2.47729
1.89722
1.38966
1.00266
0.681006
0.557705
0.490429
0.427215
0.433547
0.710645
0.967885
1.30965
1.80755
2.34247
3.05107
3.81922
4.54956
4.03435
3.36051
2.71579
2.14661
1.65584
1.32613
0.980524
0.732893
0.52323
0.544607
0.486371
0.537777
0.694107
0.936534
1.14675
1.64404
2.11553
2.69273
3.35974
3.7887
3.11841
2.64855
2.20532
1.80621
1.42087
1.05897
0.847917
0.63114
0.521234
0.502041
0.495209
0.524767
0.656832
0.811817
1.04253
1.33071
1.71002
2.10569
2.60237
2.98578
2.20368
1.9719
1.59704
1.33015
1.04944
0.806369
0.63562
0.467269
0.396341
0.352433
0.432857
0.486449
0.479989
0.576406
0.768617
0.928834
1.2113
1.54006
1.90169
2.18371
1.39084
1.18894
0.957204
0.794254
0.576843
0.476317
0.370941
0.339865
0.26427
0.23807
0.260207
0.210752
0.303073
0.415971
0.507828
0.625247
0.769138
0.951224
1.18653
1.30346
0.472286
0.346803
0.333691
0.224632
0.211102
0.129428
0.109048
0.108861
0.101806
0.114742
0.0872462
0.0634408
0.149653
0.120037
0.21945
0.204169
0.215446
0.3656
0.345647
0.456354
8.05458
6.94583
5.83323
4.71109
3.82422
3.19964
2.61891
2.16925
1.86336
1.67974
1.68721
1.76698
2.07133
2.41394
2.95139
3.7224
4.54797
5.46424
6.68508
7.75549
7.25874
6.38455
5.34579
4.41935
3.69141
3.07394
2.52716
2.19599
1.92277
1.7567
1.809
1.90834
2.15212
2.4822
2.89877
3.49671
4.25793
5.09105
6.05485
7.05052
6.25389
5.47216
4.66284
3.95248
3.28301
2.77287
2.31643
2.09465
1.89632
1.85349
1.74531
1.85271
2.0362
2.29614
2.64494
3.15801
3.80192
4.57314
5.40413
6.05436
5.26834
4.62688
3.96676
3.33206
2.87489
2.41314
2.09379
1.80098
1.61966
1.54859
1.65428
1.71359
1.83662
2.02699
2.41386
2.81807
3.2904
3.81846
4.57176
5.11341
4.16017
3.72605
3.17857
2.68319
2.29245
2.00684
1.76813
1.53013
1.41015
1.27677
1.36682
1.36883
1.50497
1.6767
1.99469
2.21573
2.68125
3.08478
3.63616
4.08282
2.98193
2.69664
2.29859
1.89511
1.68238
1.39095
1.26793
1.13486
1.06095
1.01247
0.960736
1.08886
1.08631
1.29255
1.39983
1.62979
1.96447
2.25382
2.59038
2.88851
1.80777
1.6058
1.43082
1.22301
1.03877
0.878384
0.787954
0.725433
0.621234
0.654934
0.666454
0.631074
0.721054
0.78811
0.907856
0.984586
1.15728
1.36198
1.57168
1.82219
0.62044
0.582358
0.511822
0.417582
0.32346
0.303987
0.253856
0.230534
0.250121
0.169485
0.220645
0.288955
0.194835
0.293673
0.29447
0.341876
0.405348
0.462368
0.540843
0.586017
10.5617
9.35703
8.15937
7.08172
6.17624
5.36504
4.72209
4.34013
3.9644
3.93115
3.83944
3.93889
4.24727
4.64097
5.21676
5.92473
6.80322
7.86427
9.10137
10.164
9.40241
8.47165
7.4532
6.42972
5.65624
5.02178
4.4777
4.02486
3.76303
3.64343
3.64115
3.75934
3.92007
4.3846
4.80864
5.4145
6.22318
7.13278
8.19916
9.13054
8.07577
7.36401
6.45533
5.65915
4.95186
4.34458
3.97602
3.62915
3.44208
3.2619
3.30434
3.44976
3.60476
3.90027
4.29044
4.83944
5.52856
6.25832
7.06323
7.84247
6.75066
6.14429
5.45445
4.77332
4.21274
3.81406
3.40613
3.15335
2.95515
2.81271
2.86346
2.83731
3.13014
3.33625
3.61555
4.07645
4.67003
5.27284
5.9927
6.50199
5.30595
4.7781
4.31557
3.77551
3.34413
3.00819
2.67556
2.54221
2.35596
2.37782
2.31867
2.41248
2.44286
2.7
2.879
3.26186
3.7008
4.19594
4.7462
5.16111
3.78144
3.49326
3.07194
2.78628
2.46264
2.19402
2.02273
1.86691
1.78616
1.68002
1.70446
1.74603
1.80125
2.01794
2.17603
2.4218
2.71314
3.04455
3.48029
3.75911
2.3178
2.08717
1.85506
1.62278
1.56344
1.36671
1.1887
1.08851
1.06583
1.02845
1.06886
1.08584
1.09971
1.20892
1.30408
1.42234
1.62521
1.87668
2.05743
2.22445
0.760259
0.710538
0.649973
0.605519
0.517001
0.491182
0.46567
0.31392
0.363207
0.3038
0.304404
0.418726
0.358024
0.452809
0.467966
0.534363
0.508715
0.66506
0.686191
0.765801
13.2109
11.9524
10.7573
9.65681
8.72397
7.81551
7.20506
6.65083
6.34132
6.232
6.16798
6.30807
6.5987
7.0225
7.61015
8.309
9.35235
10.4837
11.6823
12.762
11.6689
10.6244
9.66442
8.63681
7.74645
7.09742
6.44673
6.18424
5.91365
5.68776
5.65522
5.75312
5.98665
6.36758
6.94377
7.57036
8.42233
9.38177
10.3506
11.3427
10.0123
9.24205
8.336
7.48798
6.81894
6.21747
5.74414
5.39666
5.15853
5.08593
5.02547
5.10181
5.33437
5.6422
6.10628
6.5977
7.34381
8.14845
8.98074
9.76371
8.26455
7.61389
6.96846
6.24493
5.67739
5.20914
4.79387
4.48464
4.34998
4.21358
4.30847
4.30396
4.54765
4.76078
5.06507
5.53727
6.12218
6.7941
7.55166
8.11605
6.44924
6.04347
5.51559
4.92375
4.54856
4.21257
3.78682
3.65404
3.46632
3.39725
3.36572
3.48406
3.59322
3.75923
4.05766
4.47426
4.84133
5.30662
5.84847
6.42113
4.69001
4.35092
3.91378
3.52659
3.26054
2.98923
2.80327
2.62563
2.53767
2.44965
2.47451
2.54408
2.67815
2.75078
2.93639
3.14894
3.44844
3.88199
4.23728
4.60486
2.8161
2.5523
2.40753
2.22906
1.97069
1.89555
1.70699
1.68598
1.5258
1.51542
1.44179
1.50918
1.5397
1.73555
1.80866
1.87885
2.10278
2.26725
2.53403
2.74348
0.943152
0.862815
0.817334
0.726025
0.695433
0.568126
0.591927
0.576593
0.583064
0.512534
0.496165
0.500395
0.506499
0.493607
0.622475
0.633547
0.717915
0.782792
0.919711
0.95111
15.8511
14.6491
13.3759
12.264
11.2038
10.2908
9.67695
9.1802
8.81237
8.66908
8.53904
8.74719
8.99708
9.50114
10.0437
10.894
11.8886
13.0434
14.3061
15.4339
13.8983
12.9673
11.7867
10.7595
9.9518
9.1485
8.64427
8.19362
7.88933
7.78477
7.72662
7.77745
8.13805
8.55578
9.01436
9.7376
10.551
11.5286
12.5928
13.5874
11.9041
11.0682
10.202
9.32936
8.51578
7.92103
7.46813
7.09747
6.87684
6.73744
6.77858
6.77517
6.97722
7.31724
7.79497
8.38488
9.06532
9.98241
10.8177
11.6003
9.80118
9.12384
8.3977
7.6878
7.1095
6.66722
6.18033
5.93909
5.72332
5.55801
5.62315
5.70178
5.94787
6.14356
6.4698
6.94157
7.53718
8.20837
8.99711
9.56321
7.63753
7.13752
6.64017
6.09723
5.6413
5.23937
4.87029
4.65077
4.52611
4.44057
4.42803
4.57502
4.62131
4.8602
5.15137
5.55541
5.88502
6.4685
6.9504
7.52865
5.5146
5.13709
4.68831
4.38357
4.03277
3.76245
3.51307
3.34953
3.26945
3.21888
3.17236
3.23819
3.3386
3.52246
3.7484
3.93988
4.27637
4.58999
5.01187
5.36333
3.3345
3.02861
2.80201
2.57412
2.4815
2.2548
2.22055
2.08512
1.97269
1.92225
1.96052
1.94077
1.98215
2.05998
2.24471
2.39897
2.59267
2.81889
3.0395
3.28077
1.08135
1.0545
0.95263
0.915726
0.853261
0.707964
0.683295
0.66747
0.600584
0.640792
0.705459
0.645207
0.634233
0.739756
0.802614
0.811116
0.859565
1.01327
1.07141
1.05752
18.054
16.8218
15.4767
14.3099
13.2936
12.4017
11.6978
11.1708
10.8352
10.6694
10.5601
10.7389
10.9549
11.5411
12.1073
12.9822
13.9354
15.0884
16.3853
17.5671
15.6568
14.6837
13.4894
12.5708
11.5722
10.9096
10.3303
9.8433
9.46224
9.35926
9.28543
9.43372
9.80441
10.1305
10.6416
11.3638
12.223
13.1543
14.3666
15.3214
13.2911
12.3808
11.4672
10.6406
9.91673
9.3157
8.78283
8.39615
8.10635
7.96432
8.01751
8.13276
8.33615
8.72949
9.12302
9.76225
10.4287
11.2823
12.2087
13.0233
10.9594
10.2283
9.49815
8.76822
8.24064
7.66019
7.2997
6.95015
6.74917
6.63613
6.65942
6.67275
6.92983
7.18631
7.58541
7.97892
8.59422
9.26357
10.0318
10.6621
8.4387
7.9786
7.41894
6.89519
6.41796
6.05863
5.73348
5.43109
5.31588
5.21119
5.11587
5.24602
5.41606
5.6653
5.91867
6.28342
6.68487
7.2386
7.80106
8.35776
6.04046
5.68665
5.32193
4.93585
4.59888
4.34509
4.11984
3.94594
3.78349
3.7578
3.71232
3.7759
3.88784
3.99664
4.32807
4.46897
4.79483
5.21418
5.59351
5.90607
3.61653
3.36429
3.14709
2.96763
2.76351
2.53782
2.40516
2.40995
2.28783
2.3025
2.19166
2.345
2.3102
2.48217
2.58363
2.7434
2.92815
3.1235
3.44265
3.55843
1.30082
1.14129
1.01234
0.993634
0.944531
0.790154
0.767186
0.772076
0.767102
0.803633
0.709401
0.700707
0.790701
0.75002
0.786474
0.882379
0.935049
1.06129
1.18006
1.20477
)
;

boundaryField
{
    hotSide
    {
        type            calculated;
        value           nonuniform List<scalar> 
400
(
4.6811
3.8289
2.72568
1.87664
1.03341
0.535784
0.177055
0.111935
0.272617
0.743472
1.50869
2.59932
3.93228
5.5643
7.54679
9.77668
12.3459
15.062
17.7739
20.0533
4.4081
3.48723
2.43141
1.48562
0.549964
-0.0132185
-0.443249
-0.485971
-0.388451
-0.00374691
0.715391
1.73123
3.01127
4.62201
6.4967
8.68495
11.157
13.8179
16.5851
18.8331
4.20487
3.28739
2.12139
1.08236
0.181406
-0.407808
-0.859289
-1.1084
-1.11993
-0.725868
-0.16409
0.823686
2.00632
3.59506
5.37659
7.58961
9.97506
12.6372
15.325
17.4999
4.14276
3.22138
1.96777
0.875507
-0.0822076
-0.783142
-1.39837
-1.61581
-1.63836