/*--------------------------------*- C++ -*----------------------------------*\
| =========                 |                                                 |
| \\      /  F ield         | OpenFOAM: The Open Source CFD Toolbox           |
|  \\    /   O peration     | Version:  2212                                  |
|   \\  /    A nd           | Website:  www.openfoam.com                      |
|    \\/     M anipulation  |                                                 |
\*---------------------------------------------------------------------------*/
FoamFile
{
    version     2.0;
    format      ascii;
    arch        "LSB;label=32;scalar=64";
    class       volScalarField;
    location    "0";
    object      T;
}
// * * * * * * * * * * * * * * * * * * * * * * * * * * * * * * * * * * * * * //

dimensions      [0 0 0 1 0 0 0];

internalField   nonuniform List<scalar> 
3200
(
317.874
318.02
318.31
318.511
318.895
318.856
319.031
319.268
319.165
318.912
318.826
318.773
318.977
318.578
318.341
318.304
318.009
317.687
317.695
317.1
315.608
315.722
315.931
316.136
316.472
316.477
316.586
316.79
316.699
316.497
316.397
316.383
316.507
316.174
316.008
315.983
315.648
315.384
315.447
314.902
313.301
313.393
313.518
313.698
313.994
314.079
314.095
314.254
314.158
314.005
313.947
313.916
314.054
313.74
313.579
313.623
313.243
313.111
313.146
312.661
310.945
310.998
311.036
311.217
311.478
311.6
311.615
311.659
311.605
311.509
311.455
311.416
311.579
311.253
311.111
311.188
310.881
310.786
310.796
310.411
308.521
308.591
308.591
308.715
308.929
309.095
309.061
309.016
309.055
308.992
308.855
308.911
309.062
308.765
308.659
308.692
308.507
308.431
308.407
308.093
306.071
306.176
306.114
306.24
306.377
306.537
306.513
306.44
306.483
306.408
306.296
306.355
306.453
306.263
306.216
306.159
306.065
306.063
306.058
305.768
303.625
303.73
303.653
303.752
303.809
303.952
303.925
303.853
303.89
303.852
303.758
303.799
303.857
303.749
303.736
303.658
303.599
303.647
303.645
303.458
301.191
301.252
301.198
301.252
301.27
301.323
301.328
301.295
301.286
301.294
301.247
301.28
301.287
301.255
301.256
301.245
301.192
301.235
301.211
301.156
318.787
318.875
318.89
319.329
319.797
319.71
319.758
319.835
319.906
319.827
319.52
319.489
319.635
319.391
319.31
319.022
318.814
318.438
318.397
317.921
316.356
316.405
316.409
316.769
317.226
317.192
317.176
317.285
317.314
317.239
316.955
316.941
317.056
316.876
316.736
316.497
316.364
316.013
316.035
315.589
313.853
313.897
313.905
314.202
314.672
314.629
314.569
314.674
314.675
314.625
314.371
314.389
314.447
314.327
314.143
314.009
313.838
313.542
313.621
313.226
311.346
311.371
311.436
311.613
311.997
312.052
311.957
312.016
312.034
311.944
311.786
311.821
311.844
311.783
311.549
311.491
311.301
311.074
311.181
310.833
308.861
308.906
308.91
309.075
309.364
309.449
309.298
309.363
309.395
309.292
309.186
309.228
309.259
309.201
308.959
308.921
308.733
308.609
308.712
308.449
306.36
306.407
306.353
306.517
306.711
306.798
306.614
306.669
306.745
306.629
306.586
306.61
306.644
306.59
306.376
306.371
306.215
306.147
306.254
306.057
303.81
303.85
303.786
303.942
304.051
304.063
303.949
304.005
304.066
304.011
303.973
303.934
303.986
303.97
303.829
303.803
303.733
303.689
303.763
303.69
301.28
301.293
301.262
301.313
301.357
301.355
301.314
301.337
301.347
301.338
301.346
301.318
301.345
301.33
301.283
301.268
301.261
301.217
301.26
301.235
319.485
319.73
320.08
320.374
320.705
320.603
320.946
320.976
320.848
320.94
320.777
320.717
320.722
320.478
320.308
320.227
319.943
319.517
319.38
319.08
316.89
317.138
317.437
317.694
317.94
317.872
318.167
318.207
318.094
318.165
318.098
317.964
318.015
317.825
317.58
317.522
317.288
316.913
316.805
316.596
314.242
314.516
314.782
314.95
315.206
315.148
315.373
315.454
315.333
315.411
315.385
315.163
315.255
315.105
314.842
314.79
314.606
314.342
314.219
314.087
311.594
311.909
312.094
312.21
312.436
312.428
312.598
312.682
312.577
312.659
312.639
312.42
312.484
312.38
312.178
312.089
311.942
311.754
311.672
311.587
309.031
309.261
309.393
309.494
309.647
309.725
309.84
309.893
309.786
309.883
309.855
309.648
309.692
309.638
309.496
309.407
309.27
309.149
309.113
309.041
306.47
306.608
306.676
306.774
306.877
306.955
307.068
307.075
307.011
307.077
307.081
306.906
306.931
306.885
306.799
306.747
306.625
306.547
306.492
306.459
303.908
303.979
304.01
304.047
304.167
304.206
304.279
304.277
304.214
304.255
304.282
304.138
304.2
304.129
304.091
304.078
304.007
303.908
303.925
303.892
301.318
301.319
301.344
301.355
301.392
301.41
301.447
301.445
301.411
301.413
301.435
301.411
301.422
301.383
301.36
301.372
301.353
301.308
301.328
301.295
320.481
320.679
321.244
321.311
321.794
321.782
321.978
322.092
322.192
322.052
322.141
322.139
321.936
321.742
321.413
321.41
321.021
320.749
320.367
319.989
317.832
317.985
318.431
318.49
318.901
318.9
319.092
319.178
319.272
319.148
319.212
319.174
319.011
318.831
318.57
318.574
318.182
317.997
317.65
317.369
315.079
315.298
315.593
315.701
316.008
316.013
316.204
316.246
316.301
316.24
316.265
316.227
316.106
315.935
315.762
315.738
315.369
315.264
314.943
314.735
312.322
312.614
312.768
312.852
313.086
313.13
313.312
313.348
313.308
313.352
313.335
313.29
313.214
313.037
312.899
312.857
312.561
312.508
312.218
312.114
309.591
309.825
309.891
310.018
310.186
310.213
310.404
310.452
310.378
310.408
310.392
310.356
310.352
310.117
310.028
310.038
309.771
309.752
309.518
309.459
306.841
307.002
307.041
307.145
307.241
307.28
307.457
307.49
307.454
307.413
307.434
307.416
307.425
307.205
307.182
307.201
306.981
306.975
306.815
306.785
304.106
304.239
304.21
304.296
304.358
304.349
304.478
304.525
304.483
304.449
304.467
304.497
304.483
304.34
304.293
304.317
304.197
304.209
304.084
304.078
301.388
301.419
301.396
301.434
301.451
301.42
301.524
301.514
301.481
301.481
301.487
301.535
301.488
301.465
301.434
301.433
301.404
301.414
301.375
301.365
321.41
321.836
322.379
322.314
322.622
322.976
322.971
323.088
323.333
323.375
323.406
323.257
323.112
322.862
322.706
322.461
322.071
321.928
321.619
321.245
318.546
318.953
319.462
319.376
319.64
319.955
319.906
320.046
320.262
320.319
320.33
320.172
320.005
319.803
319.713
319.482
319.146
318.989
318.724
318.428
315.69
316.064
316.509
316.417
316.614
316.91
316.884
316.982
317.189
317.18
317.255
317.087
316.904
316.72
316.715
316.5
316.198
316.049
315.814
315.61
312.827
313.15
313.54
313.43
313.599
313.833
313.836
313.957
314.125
314.003
314.152
313.984
313.856
313.679
313.649
313.569
313.242
313.173
312.931
312.798
309.967
310.272
310.582
310.447
310.538
310.769
310.826
310.9
311.028
310.834
311.04
310.903
310.821
310.608
310.597
310.612
310.342
310.263
310.078
309.949
307.115
307.363
307.607
307.471
307.505
307.705
307.739
307.813
307.913
307.735
307.897
307.794
307.767
307.577
307.544
307.63
307.4
307.326
307.237
307.119
304.254
304.452
304.597
304.513
304.525
304.626
304.666
304.672
304.752
304.58
304.717
304.704
304.654
304.559
304.498
304.596
304.436
304.407
304.328
304.268
301.439
301.513
301.558
301.498
301.524
301.535
301.574
301.555
301.609
301.536
301.577
301.589
301.566
301.52
301.516
301.537
301.496
301.468
301.446
301.409
322.447
322.934
323.582
323.653
324.06
324.168
324.153
324.102
324.488
324.489
324.586
324.356
324.196
324.177
323.911
323.763
323.281
323.018
322.902
322.488
319.507
319.887
320.498
320.563
320.899
320.933
320.936
320.849
321.2
321.251
321.355
321.109
320.987
320.939
320.694
320.616
320.148
319.98
319.853
319.483
316.55
316.812
317.359
317.481
317.734
317.705
317.724
317.643
317.941
317.97
318.055
317.867
317.774
317.713
317.474
317.44
317.077
316.987
316.79
316.518
313.588
313.777
314.196
314.347
314.477
314.488
314.486
314.476
314.72
314.706
314.741
314.582
314.586
314.5
314.279
314.251
313.986
313.97
313.717
313.558
310.589
310.735
311.033
311.169
311.282
311.274
311.276
311.311
311.517
311.451
311.48
311.341
311.376
311.286
311.106
311.151
310.904
310.889
310.682
310.53
307.555
307.661
307.884
307.993
308.097
308.049
308.099
308.112
308.255
308.179
308.198
308.114
308.155
308.04
307.906
307.997
307.799
307.777
307.658
307.532
304.521
304.579
304.752
304.786
304.875
304.844
304.891
304.868
304.96
304.89
304.934
304.889
304.901
304.838
304.729
304.777
304.712
304.663
304.587
304.547
301.52
301.553
301.612
301.606
301.639
301.626
301.639
301.632
301.667
301.636
301.646
301.62
301.66
301.629
301.592
301.609
301.581
301.574
301.539
301.525
323.685
324.057
324.459
324.798
325.141
325.208
325.606
325.37
325.672
325.754
325.885
325.747
325.59
325.437
325.139
325.029
324.67
324.166
323.95
323.376
320.521
320.885
321.226
321.526
321.812
321.838
322.244
322.003
322.264
322.277
322.425
322.327
322.186
322.08
321.746
321.697
321.426
320.989
320.737
320.286
317.37
317.691
317.989
318.217
318.476
318.478
318.825
318.618
318.875
318.828
318.979
318.879
318.755
318.693
318.412
318.349
318.178
317.792
317.578
317.167
314.214
314.489
314.734
314.911
315.163
315.135
315.368
315.238
315.464
315.418
315.509
315.46
315.346
315.317
315.056
315.003
314.952
314.615
314.408
313.989
311.07
311.265
311.451
311.646
311.834
311.809
311.931
311.87
312.068
312.006
312.021
312.032
311.924
311.929
311.673
311.653
311.614
311.387
311.201
310.829
307.928
308.041
308.193
308.371
308.473
308.464
308.511
308.473
308.656
308.571
308.548
308.608
308.544
308.551
308.323
308.33
308.297
308.166
307.987
307.712
304.764
304.826
304.925
305.053
305.08
305.1
305.142
305.1
305.253
305.13
305.132
305.181
305.146
305.154
304.996
304.993
304.985
304.941
304.768
304.628
301.595
301.627
301.663
301.698
301.682
301.698
301.712
301.706
301.776
301.717
301.724
301.743
301.727
301.755
301.663
301.67
301.671
301.673
301.597
301.547
324.692
325.211
325.683
325.892
326.295
326.538
326.825
326.76
327.162
327.167
327.19
326.96
326.873
326.513
326.246
326.161
325.824
325.486
324.904
324.395
321.433
321.896
322.325
322.471
322.818
323.072
323.328
323.223
323.569
323.531
323.606
323.382
323.318
322.955
322.718
322.667
322.412
322.132
321.571
321.142
318.159
318.569
318.962
319.001
319.377
319.561
319.767
319.68
319.96
319.922
319.992
319.836
319.726
319.401
319.237
319.166
319.019
318.76
318.242
317.931
314.893
315.195
315.545
315.545
315.876
316.033
316.168
316.132
316.359
316.315
316.348
316.223
316.106
315.858
315.742
315.669
315.611
315.378
314.908
314.694
311.594
311.775
312.092
312.092
312.348
312.499
312.579
312.555
312.719
312.709
312.715
312.647
312.506
312.288
312.225
312.188
312.197
311.992
311.605
311.413
308.33
308.396
308.659
308.65
308.838
308.948
309.006
308.972
309.111
309.085
309.077
309.076
308.966
308.762
308.719
308.745
308.716
308.546
308.321
308.152
305.05
305.065
305.196
305.178
305.303
305.378
305.398
305.416
305.505
305.445
305.457
305.463
305.414
305.277
305.215
305.242
305.212
305.131
305.001
304.886
301.693
301.713
301.757
301.752
301.786
301.803
301.807
301.814
301.843
301.846
301.85
301.837
301.836
301.775
301.747
301.783
301.745
301.719
301.695
301.622
325.703
326.109
326.595
326.893
327.282
327.469
327.832
328.067
328.235
328.193
328.422
328.185
327.966
327.833
327.538
327.463
327.217
326.697
326.059
325.608
322.286
322.643
323.047
323.289
323.695
323.857
324.137
324.391
324.492
324.458
324.629
324.468
324.197
324.071
323.88
323.77
323.599
323.136
322.543
322.213
318.873
319.173
319.554
319.714
320.089
320.218
320.472
320.68
320.784
320.781
320.867
320.713
320.432
320.347
320.204
320.103
319.972
319.584
319.072
318.806
315.449
315.731
316.063
316.151
316.461
316.584
316.787
316.999
317.018
317.014
317.039
316.987
316.737
316.673
316.536
316.462
316.367
316.032
315.597
315.414
312.04
312.281
312.529
312.586
312.831
312.942
313.102
313.266
313.313
313.251
313.211
313.259
313.042
312.978
312.847
312.796
312.757
312.499
312.155
312.007
308.605
308.777
308.957
309.012
309.153
309.292
309.393
309.497
309.525
309.48
309.425
309.479
309.348
309.251
309.162
309.14
309.141
308.923
308.67
308.614
305.186
305.268
305.382
305.45
305.508
305.583
305.649
305.691
305.755
305.695
305.659
305.662
305.664
305.556
305.507
305.515
305.489
305.325
305.202
305.178
301.732
301.733
301.795
301.821
301.858
301.89
301.875
301.919
301.928
301.925
301.906
301.897
301.903
301.881
301.829
301.845
301.846
301.792
301.725
301.733
326.638
327.016
327.706
328.029
328.314
328.627
329.04
329.291
329.199
329.278
329.332
329.171
328.986
328.874
328.749
328.45
328.203
327.687
327.208
326.705
323.152
323.373
324.031
324.363
324.546
324.881
325.197
325.42
325.345
325.373
325.422
325.26
325.145
325.05
324.89
324.656
324.467
324.003
323.576
323.153
319.644
319.769
320.353
320.659
320.744
321.062
321.334
321.529
321.468
321.504
321.505
321.376
321.324
321.238
321.058
320.898
320.696
320.288
319.935
319.609
316.111
316.207
316.663
316.952
316.987
317.284
317.475
317.669
317.568
317.631
317.575
317.55
317.523
317.403
317.199
317.128
316.943
316.612
316.331
316.065
312.527
312.637
312.935
313.234
313.204
313.467
313.58
313.755
313.689
313.768
313.669
313.668
313.658
313.558
313.344
313.359
313.192
312.93
312.731
312.502
308.951
309.023
309.216
309.501
309.416
309.6
309.661
309.806
309.857
309.857
309.766
309.804
309.749
309.685
309.506
309.547
309.441
309.226
309.095
308.902
305.374
305.431
305.509
305.721
305.636
305.779
305.777
305.875
305.948
305.918
305.876
305.893
305.861
305.854
305.705
305.713
305.677
305.557
305.474
305.34
301.829
301.816
301.868
301.912
301.847
301.946
301.939
301.962
301.994
301.992
301.97
301.975
301.943
301.979
301.924
301.893
301.915
301.851
301.833
301.776
327.459
327.896
328.479
328.993
329.312
329.649
330.038
330.403
330.5
330.488
330.617
330.452
330.206
330.023
329.922
329.617
329.21
328.71
328.147
327.876
323.894
324.22
324.699
325.144
325.418
325.731
326.016
326.319
326.446
326.443
326.554
326.361
326.212
326.03
325.924
325.684
325.287
324.873
324.417
324.199
320.315
320.49
320.928
321.305
321.535
321.76
322.024
322.286
322.425
322.408
322.461
322.303
322.219
322.023
321.945
321.733
321.38
321.043
320.667
320.446
316.641
316.799
317.181
317.435
317.649
317.793
318
318.275
318.401
318.339
318.342
318.308
318.162
318.029
317.95
317.797
317.494
317.248
316.906
316.722
312.975
313.07
313.365
313.551
313.713
313.828
313.976
314.245
314.365
314.271
314.243
314.308
314.115
314.039
313.961
313.847
313.612
313.462
313.141
312.991
309.324
309.329
309.528
309.684
309.79
309.867
310.006
310.203
310.258
310.192
310.147
310.269
310.088
310.039
309.962
309.908
309.755
309.637
309.36
309.275
305.608
305.588
305.722
305.812
305.868
305.908
306.007
306.101
306.17
306.102
306.072
306.183
306.043
306.041
305.979
305.951
305.898
305.783
305.657
305.536
301.906
301.866
301.914
301.947
301.98
301.971
302.019
302.038
302.077
302.053
302.011
302.087
302.004
302.025
301.997
302.02
301.999
301.925
301.918
301.875
328.403
328.819
329.176
329.954
330.397
330.891
331.114
331.5
331.386
331.571
331.506
331.382
331.169
331.047
331.069
330.727
330.371
329.654
329.013
328.853
324.66
325.008
325.292
326.014
326.384
326.782
326.971
327.277
327.188
327.415
327.32
327.147
327.041
326.909
326.906
326.636
326.369
325.65
325.123
325.01
320.918
321.141
321.412
322.017
322.369
322.671
322.796
323.055
323.036
323.256
323.11
323.015
322.872
322.775
322.752
322.539
322.349
321.685
321.27
321.191
317.173
317.285
317.572
318.05
318.323
318.564
318.628
318.83
318.902
319.059
318.879
318.834
318.738
318.659
318.585
318.378
318.32
317.726
317.395
317.391
313.377
313.441
313.703
314.083
314.265
314.443
314.469
314.568
314.717
314.809
314.677
314.645
314.567
314.511
314.428
314.312
314.267
313.746
313.551
313.538
309.551
309.583
309.834
310.075
310.201
310.297
310.299
310.414
310.514
310.558
310.485
310.469
310.405
310.344
310.343
310.229
310.191
309.829
309.654
309.694
305.734
305.748
305.93
306.045
306.108
306.178
306.167
306.237
306.291
306.325
306.276
306.308
306.208
306.185
306.225
306.18
306.158
305.89
305.77
305.833
301.909
301.923
301.982
302.031
302.048
302.077
302.062
302.068
302.112
302.114
302.105
302.122
302.091
302.079
302.078
302.066
302.067
301.96
301.937
301.955
329.293
329.679
330.292
330.797
331.242
331.86
332.085
332.356
332.273
332.549
332.569
332.521
332.319
332.214
332.032
331.673
331.193
330.41
329.967
329.702
325.451
325.73
326.252
326.722
327.082
327.621
327.81
328.017
327.977
328.236
328.221
328.18
328.043
327.93
327.757
327.444
327.048
326.296
325.964
325.745
321.578
321.782
322.207
322.651
322.924
323.349
323.504
323.725
323.707
323.932
323.919
323.866
323.729
323.618
323.475
323.23
322.906
322.19
321.952
321.793
317.701
317.832
318.163
318.613
318.811
319.117
319.182
319.42
319.381
319.626
319.599
319.527
319.397
319.317
319.23
319.026
318.747
318.181
317.961
317.847
313.813
313.872
314.117
314.521
314.661
314.873
314.957
315.128
315.082
315.27
315.282
315.2
315.092
315.035
314.965
314.838
314.603
314.149
313.996
313.936
309.88
309.91
310.114
310.403
310.465
310.663
310.702
310.835
310.755
310.899
310.949
310.858
310.737
310.747
310.746
310.642
310.434
310.116
309.952
309.992
305.938
305.945
306.059
306.273
306.265
306.419
306.468
306.533
306.441
306.583
306.594
306.514
306.482
306.455
306.453
306.414
306.292
306.088
305.931
305.995
302.004
301.979
302.039
302.106
302.084
302.154
302.164
302.206
302.167
302.207
302.208
302.187
302.187
302.18
302.174
302.138
302.123
302.044
301.979
302.003
330.216
330.425
331.039
331.704
332.317
332.647
332.99
333.292
333.488
333.528
333.378
333.494
333.449
333.164
332.806
332.573
332.052
331.468
330.918
330.42
326.233
326.405
326.872
327.499
328.003
328.321
328.593
328.89
329.048
329.103
328.943
329.071
329.009
328.726
328.436
328.205
327.794
327.261
326.746
326.38
322.224
322.381
322.715
323.304
323.65
323.993
324.142
324.478
324.569
324.639
324.491
324.613
324.555
324.252
324.087
323.848
323.549
323.049
322.59
322.342
318.235
318.374
318.64
319.128
319.342
319.615
319.743
320.041
320.085
320.155
320.025
320.16
320.096
319.838
319.733
319.507
319.255
318.83
318.468
318.316
314.269
314.321
314.532
314.893
315.037
315.2
315.381
315.616
315.626
315.72
315.578
315.733
315.682
315.443
315.391
315.175
314.958
314.629
314.378
314.26
310.254
310.264
310.399
310.664
310.76
310.838
311.011
311.159
311.131
311.232
311.152
311.275
311.232
311.066
311.014
310.819
310.693
310.424
310.28
310.19
306.158
306.152
306.26
306.39
306.496
306.513
306.609
306.681
306.656
306.769
306.693
306.786
306.744
306.658
306.63
306.498
306.428
306.27
306.182
306.101
302.049
302.073
302.104
302.119
302.185
302.188
302.211
302.249
302.237
302.277
302.236
302.275
302.271
302.239
302.233
302.181
302.142
302.095
302.084
302.04
330.654
331.158
331.795
332.544
333.221
333.592
333.843
334.302
334.345
334.486
334.32
334.35
334.325
333.884
333.768
333.607
333.039
332.334
331.847
331.117
326.583
327.029
327.557
328.238
328.785
329.119
329.321
329.728
329.769
329.907
329.766
329.775
329.771
329.397
329.253
329.116
328.624
328
327.575
326.983
322.517
322.926
323.351
323.929
324.35
324.669
324.789
325.14
325.189
325.338
325.187
325.191
325.197
324.952
324.795
324.686
324.229
323.712
323.313
322.859
318.432
318.804
319.127
319.638
319.917
320.185
320.265
320.555
320.604
320.778
320.569
320.615
320.622
320.444
320.331
320.252
319.842
319.404
319.064
318.712
314.326
314.668
314.883
315.345
315.499
315.718
315.753
315.988
315.996
316.211
316.026
316.055
316.015
315.901
315.858
315.753
315.467
315.102
314.804
314.497
310.223
310.501
310.636
310.965
311.12
311.204
311.244
311.413
311.406
311.624
311.43
311.521
311.434
311.361
311.356
311.264
311.063
310.78
310.57
310.339
306.14
306.326
306.368
306.577
306.715
306.738
306.718
306.835
306.824
306.989
306.884
306.936
306.859
306.83
306.829
306.777
306.625
306.488
306.32
306.244
302.034
302.133
302.12
302.212
302.267
302.257
302.258
302.284
302.287
302.327
302.321
302.335
302.317
302.281
302.287
302.29
302.203
302.176
302.12
302.107
331.23
331.872
332.493
333.209
334.141
334.174
334.386
334.782
335.191
335.265
335.206
335.405
335.082
334.872
334.671
334.499
333.917
333.307
332.563
332.287
327.138
327.655
328.188
328.832
329.6
329.667
329.818
330.184
330.505
330.556
330.507
330.688
330.418
330.223
330.041
329.9
329.406
328.835
328.241
327.937
323.027
323.4
323.896
324.435
325.016
325.115
325.222
325.55
325.868
325.852
325.857
325.99
325.737
325.551
325.431
325.295
324.882
324.424
323.917
323.592
318.901
319.155
319.562
319.997
320.475
320.591
320.611
320.951
321.165
321.171
321.17
321.293
321.038
320.897
320.83
320.702
320.355
319.998
319.608
319.303
314.747
314.928
315.227
315.54
315.923
316.052
316.003
316.299
316.451
316.515
316.496
316.572
316.4
316.262
316.213
316.144
315.873
315.561
315.26
315.009
310.524
310.686
310.878
311.121
311.389
311.499
311.405
311.66
311.73
311.839
311.787
311.843
311.712
311.628
311.556
311.541
311.397
311.127
310.897
310.714
306.316
306.395
306.525
306.712
306.86
306.906
306.819
306.994
307.04
307.154
307.083
307.114
307.026
307.013
306.893
306.952
306.868
306.702
306.563
306.442
302.112
302.131
302.184
302.245
302.291
302.286
302.28
302.358
302.379
302.4
302.383
302.373
302.362
302.339
302.311
302.346
302.309
302.244
302.21
302.159
332.107
332.578
333.199
334.043
334.782
334.99
335.13
335.591
335.891
336.037
336.093
336.246
335.887
335.628
335.443
335.1
334.592
334.013
333.422
332.864
327.865
328.243
328.784
329.502
330.192
330.359
330.444
330.856
331.127
331.277
331.305
331.423
331.098
330.883
330.723
330.453
330.003
329.469
328.973
328.49
323.597
323.919
324.353
324.948
325.571
325.691
325.774
326.088
326.314
326.46
326.512
326.577
326.358
326.143
326.007
325.807
325.411
324.953
324.519
324.15
319.331
319.627
319.931
320.399
320.884
321.021
321.101
321.347
321.499
321.65
321.676
321.787
321.605
321.406
321.299
321.134
320.801
320.431
320.079
319.79
315.058
315.286
315.476
315.884
316.222
316.345
316.384
316.618
316.7
316.865
316.846
316.908
316.833
316.667
316.579
316.458
316.227
315.889
315.623
315.389
310.76
310.905
311.041
311.353
311.567
311.674
311.708
311.864
311.905
312.072
312.045
312.066
312.034
311.933
311.864
311.723
311.647
311.338
311.146
311.005
306.459
306.568
306.639
306.814
306.952
306.966
307.005
307.124
307.163
307.254
307.214
307.242
307.246
307.214
307.129
307.042
307.001
306.812
306.702
306.615
302.161
302.211
302.231
302.289
302.32
302.345
302.353
302.396
302.417
302.433
302.425
302.436
302.421
302.425
302.396
302.352
302.342
302.286
302.265
302.228
332.383
333.107
333.853
334.391
335.257
335.7
335.783
336.193
336.512
336.849
336.816
336.773
336.706
336.34
336.122
335.657
335.215
334.508
333.986
333.427
328.159
328.741
329.344
329.82
330.601
330.966
331.023
331.394
331.636
332.006
331.943
331.913
331.815
331.498
331.313
330.885
330.489
329.867
329.443
328.985
323.905
324.343
324.773
325.262
325.911
326.186
326.259
326.607
326.775
327.076
327.053
327.031
327.014
326.653
326.518
326.196
325.788
325.228
324.895
324.541
319.605
319.919
320.219
320.689
321.217
321.451
321.513
321.791
321.909
322.166
322.166
322.131
322.167
321.784
321.707
321.46
321.074
320.628
320.369
320.105
315.25
315.469
315.742
316.088
316.526
316.643
316.723
316.954
317.02
317.243
317.253
317.225
317.297
316.987
316.906
316.656
316.408
316.031
315.833
315.627
310.919
311.042
311.249
311.49
311.814
311.851
311.973
312.095
312.167
312.344
312.338
312.31
312.406
312.166
312.061
311.905
311.73
311.494
311.28
311.124
306.588
306.627
306.736
306.844
307.086
307.123
307.18
307.265
307.303
307.415
307.392
307.412
307.482
307.338
307.254
307.137
307.07
306.923
306.771
306.688
302.216
302.228
302.277
302.27
302.38
302.396
302.395
302.443
302.456
302.479
302.455
302.475
302.529
302.466
302.445
302.396
302.375
302.297
302.262
302.262
332.886
333.487
334.124
334.815
335.791
336.207
336.43
336.724
337.055
337.311
337.299
337.313
337.126
336.927
336.489
336.165
335.562
335.124
334.514
333.75
328.546
329.021
329.604
330.174
331.016
331.402
331.59
331.827
332.071
332.321
332.3
332.336
332.201
332.002
331.589
331.312
330.81
330.382
329.898
329.224
324.2
324.576
325.097
325.528
326.242
326.544
326.762
326.952
327.09
327.335
327.331
327.34
327.3
327.069
326.703
326.484
326.105
325.651
325.315
324.742
319.828
320.119
320.54
320.877
321.464
321.768
321.915
322.093
322.168
322.37
322.339
322.349
322.377
322.121
321.812
321.682
321.379
320.961
320.717
320.228
315.411
315.654
315.994
316.274
316.654
316.988
317.071
317.232
317.268
317.384
317.408
317.35
317.385
317.171
316.938
316.87
316.651
316.268
316.153
315.752
310.992
311.187
311.426
311.639
311.909
312.147
312.227
312.324
312.35
312.413
312.511
312.385
312.397
312.261
312.101
312.07
311.916
311.587
311.543
311.223
306.607
306.734
306.852
307.011
307.15
307.279
307.336
307.422
307.448
307.441
307.493
307.423
307.438
307.335
307.276
307.252
307.178
306.978
306.938
306.725
302.215
302.262
302.297
302.33
302.389
302.443
302.471
302.489
302.518
302.503
302.512
302.489
302.495
302.472
302.431
302.423
302.407
302.323
302.332
302.265
333.051
333.608
334.572
335.2
335.995
336.486
336.649
337.002
337.372
337.711
337.626
337.684
337.592
337.224
336.938
336.43
335.829
335.411
334.971
334.072
328.697
329.12
329.957
330.524
331.211
331.622
331.774
332.031
332.379
332.721
332.602
332.587
332.548
332.252
331.955
331.543
330.986
330.648
330.288
329.503
324.304
324.637
325.37
325.836
326.379
326.754
326.904
327.108
327.404
327.693
327.615
327.511
327.512
327.28
327.012
326.657
326.202
325.909
325.607
324.938
319.877
320.136
320.802
321.119
321.586
321.931
322.037
322.207
322.432
322.68
322.65
322.495
322.468
322.342
322.021
321.812
321.439
321.209
320.957
320.408
315.421
315.638
316.216
316.467
316.798
317.075
317.111
317.298
317.415
317.65
317.661
317.53
317.442
317.365
317.097
316.95
316.627
316.474
316.3
315.891
310.973
311.181
311.606
311.782
312.013
312.179
312.227
312.374
312.43
312.607
312.642
312.56
312.444
312.403
312.204
312.093
311.882
311.768
311.62
311.355
306.549
306.731
306.975
307.09
307.217
307.3
307.378
307.446
307.488
307.554
307.586
307.578
307.453
307.439
307.321
307.258
307.142
307.066
306.952
306.772
302.195
302.244
302.348
302.377
302.428
302.46
302.469
302.498
302.518
302.542
302.515
302.55
302.506
302.495
302.462
302.441
302.395
302.371
302.309
302.269
)
;

boundaryField
{
    hotSide
    {
        type            fixedGradient;
        gradient        nonuniform List<scalar> 
400
(
179.666
190.9
202.168
213.42
224.607
235.675
246.571
257.243
267.636
277.699
287.379
296.628
305.395
313.636
321.307
328.369
334.784
340.519
345.547
349.841
182.694
194.296
205.939
217.573
229.144
240.598
251.881
262.938
273.712
284.15
294.199
303.805
312.92
321.494
329.484
336.848
343.547
349.547
354.818
359.333
185.29
197.235
209.229
221.218
233.149
244.965
256.61
268.028
279.16
289.951
300.346
310.29
319.732
328.622
336.914
344.564
351.533
357.785
363.288
368.016
187.469
199.73
212.046
224.363
236.625
248.776
260.756
272.507
283.971
295.09
305.806
316.064
325.811
334.996
343.57
351.488
358.71
365.199
370.921
375.849
189.246
201.792
214.4
227.015
239.579
252.034
264.319
276.375
288.142
299.56
310.57
321.117
331.143
340.598
349.431
357.597
365.053
371.76
377.686
382.8
190.638
203.438
216.307
229.187
242.02
254.746
267.304
279.633
291.671
303.357
314.632
325.437
335.716
345.414
354.482
362.871
370.538
377.445
383.555
388.839
191.665
204.685
217.779
230.89
243.957
256.92
269.716
282.283
294.558
306.48
317.987
329.019
339.519
349.433
358.707
367.294
375.148
382.231
388.506
393.942
192.343
205.548
218.832
232.137
245.401
258.564
271.561
284.33
296.807
308.928
320.632
331.858
342.547
352.644
362.095
370.851
378.867
386.101
392.518
398.086
192.689
206.042
219.478
232.938
246.361
259.685
272.845
285.777
298.417
310.701
322.565
333.949
344.792
355.039
364.635
373.531
381.679
389.04
395.574
401.251
192.715
206.177
219.726
233.303
246.845
260.289
273.572
286.627
299.39
311.797
323.783
335.287
346.249
356.61
366.318
375.321
383.573
391.031
397.657
403.421
192.43
205.963
219.585
233.237
246.856
260.38
273.743
286.88
299.725
312.214
324.282
335.868
346.909
357.35
367.134
376.212
384.535
392.062
398.754
404.578
191.841
205.403
219.056
232.742
246.396
259.957
273.358
286.533
299.419
311.948
324.058
335.684
346.767
357.249
367.074
376.192
384.555
392.12
398.85
404.711
190.947
204.498
218.142
231.818
245.464
259.018
272.413
285.585
298.467
310.994
323.103
334.73
345.815
356.3
366.13
375.253
383.623
391.196
397.935
403.806
189.747
203.245
216.836
230.46
244.056
257.559
270.904
284.028
296.863
309.346
321.412
332.999
344.046
354.495
364.293
373.386
381.73
389.28
395.999
401.855
188.234
201.638
215.134
228.663
242.164
255.572
268.824
281.856
294.602
306.997
318.978
330.483
341.452
351.828
361.556
370.586
378.87
386.367
393.038
398.852
186.399
199.668
213.027
226.418
239.78
253.05
266.166
279.062
291.675
303.94
315.795
327.178
338.03
348.294
357.917
366.848
375.04
382.453
389.049
394.795
184.231
197.323
210.503
223.714
236.895
249.985
262.921
275.639
288.077
300.171
311.858
323.08
333.776
343.892
353.374
362.172
370.242
377.542
384.035
389.69
181.717
194.593
207.554
220.544
233.502
246.37
259.084
271.583
283.804
295.686
307.167
318.189
328.692
338.624
347.931
356.565
364.482
371.64
378.005
383.545
178.846
191.466
204.169
216.897
229.594
242.199
254.651
266.891
278.857
290.488
301.725
312.509
322.785
332.498
341.598
350.037
357.772
364.763
370.975
376.378
175.606
187.935
200.341
212.771
225.166
237.47
249.623
261.566
273.239
284.583
295.539
306.052
316.066
325.529
334.392
342.608
350.134
356.933
362.97
368.215
)
;
    }
    coldSide
    {
        type            mixed;
        refValue        uniform 300;
        refGradient     uniform 0;
        valueFraction   uniform 0.991591;
        source          uniform 0;
        value           nonuniform List<scalar> 
400
(
300.01
300.011
300.011
300.012
300.012
300.013
300.013
300.014
300.015
300.015
300.016
300.016
300.017
300.017
300.017
300.018
300.018
300.019
300.019
300.018
300.011
300.011
300.011
300.012
300.013
300.013
300.014
300.014
300.015
300.015
300.016
300.016
300.017
300.017
300.018
300.018
300.019