/*--------------------------------*- C++ -*----------------------------------*\
| =========                 |                                                 |
| \\      /  F ield         | OpenFOAM: The Open Source CFD Toolbox           |
|  \\    /   O peration     | Version:  2212                                  |
|   \\  /    A nd           | Website:  www.openfoam.com                      |
|    \\/     M anipulation  |                                                 |
\*---------------------------------------------------------------------------*/
FoamFile
{
    version     2.0;
    format      ascii;
    arch        "LSB;label=32;scalar=64";
    class       volScalarField;
    location    "./ITHACAoutput/true/7.7";
    object      error;
}
// * * * * * * * * * * * * * * * * * * * * * * * * * * * * * * * * * * * * * //

dimensions      [0 0 0 1 0 0 0];

internalField   nonuniform List<scalar> 
3200
(
2.04758
3.25979
-0.716139
1.44092
-1.99081
1.31063
1.70832
-0.96772
2.89223
4.23905
1.96925
0.875797
4.52677
1.686
6.50211
4.60293
6.2911
6.90203
6.87748
6.55526
-2.5312
0.297457
-1.15526
-3.76016
2.21363
1.34248
1.94256
8.78184
1.69643
1.85701
3.34837
2.65975
7.16508
3.92911
5.08181
1.77135
0.506854
2.37402
0.1464
0.911951
-0.0243163
-1.62643
0.929979
-0.992097
2.17455
2.66787
-3.11863
-4.26101
2.56682
3.40469
0.890345
1.30926
1.98952
2.03092
6.14305
0.405243
-0.3892
6.66807
7.75525
5.50297
1.89177
1.05003
1.85203
1.88842
-2.09015
0.823316
-2.05554
0.936908
-0.404634
0.956494
4.32091
3.70902
-0.539185
4.79306
4.78933
3.22381
0.984422
1.81929
0.984563
5.5079
-0.336622
0.978885
0.575947
-0.811535
-0.630421
3.81746
2.51594
3.86932
3.56001
-0.542467
-1.09497
1.6167
3.46149
1.28517
3.32248
3.50756
3.12837
2.29159
-3.00286
1.71783
0.00680985
2.54785
2.85692
1.45327
-0.12361
1.31329
0.671817
1.17451
2.00873
4.06267
-3.18812
1.30506
2.00323
3.91829
2.71683
2.27707
4.16526
4.28409
1.43856
4.52388
2.50529
-2.91878
1.44922
0.172942
3.36831
-3.49125
-1.64127
1.01406
-2.78719
-0.18394
-0.458825
-0.0089342
2.3965
0.278501
1.99915
0.845378
3.09626
-2.60657
0.391505
4.92637
-2.98865
-2.6084
-0.0186718
-4.28686
2.23108
-3.86131
0.137005
4.96302
1.0132
1.51578
-1.84896
-0.189207
-2.05217
3.79651
3.69212
2.28946
3.4754
1.47293
0.5538
1.72636
-1.18414
-0.449533
-4.31691
0.635698
1.92932
1.32455
3.14282
2.25984
2.50403
4.82556
1.3386
1.54689
1.14786
3.16897
-2.68234
2.32178
0.515124
2.26844
4.80518
7.07532
-0.711524
-1.51502
1.97348
1.00711
-1.77719
0.12928
2.84393
1.32817
-1.60298
-0.148453
0.734479
3.72033
-0.680509
2.78054
0.915011
1.73825
0.647091
-0.685764
0.187921
2.3477
3.51944
-0.00495749
4.08859
2.39116
-1.38534
1.12944
-1.29486
-0.873042
1.86276
1.38391
1.35728
2.26424
3.87897
4.26821
0.593232
1.08311
1.18295
3.9084
0.512759
2.28211
-0.270187
2.8695
2.38285
2.74491
0.411926
0.373236
-1.25606
-3.41529
3.06977
4.08818
-1.33578
2.0434
1.66362
-2.43076
-0.0658699
2.65597
2.03285
5.33632
0.0355334
0.996014
-1.95015
0.580655
1.01673
-0.347952
1.36595
-2.97916
-2.88369
2.06261
-0.899081
2.94549
5.90188
1.81751
-0.444483
3.51828
-0.375869
-1.39166
1.50928
4.19167
0.117771
-0.823605
-2.39521
-0.851267
3.54074
-0.572124
-0.539463
0.994422
-0.13486
-1.32803
-2.02517
1.07078
3.47279
0.967162
3.37609
1.725
0.156571
-0.918812
2.06121
0.132708
3.74897
0.201592
2.22335
1.37311
0.92705
0.996001
1.05298
1.43293
1.4312
0.884814
0.569934
-0.702973
1.09252
3.58175
1.38908
3.35395
2.2045
-0.0281999
1.20821
1.73972
0.215471
1.34068
1.39571
-2.43331
-0.859695
1.50796
0.00290675
-0.274182
-1.74279
-1.40348
0.577031
-1.01621
0.0320201
-0.898573
2.11415
3.65678
-3.25805
3.28206
-0.699839
-1.77139
0.810382
1.87527
-2.13579
3.4301
-0.335305
0.766647
-3.33976
-4.15325
-2.58574
1.91887
2.61466
0.0913888
3.0721
0.832611
1.65678
1.41035
0.196299
-1.82409
-0.730167
2.51404
4.71307
3.9649
3.39819
-0.310015
0.628552
0.270074
-3.49986
-4.20213
2.83622
0.977788
1.17359
-0.224752
-0.87654
0.103814
-1.2773
-2.00535
-2.22546
1.71523
0.136281
-0.556568
-1.35042
-2.35516
0.811788
0.615252
2.824
0.192296
-0.0659306
0.732205
4.53684
0.138831
1.4674
1.62726
0.161636
-0.387803
1.15313
2.89162
1.28553
-2.93546
2.55657
-0.311096
1.52165
-2.88697
1.56556
-2.97076
-0.220745
1.00265
-0.990535
-2.89213
0.459713
-4.20452
-1.72404
0.778055
1.64328
4.19832
1.84277
0.216296
-1.15905
2.50742
2.59132
-0.585213
1.16204
2.28945
-1.60838
2.67795
-1.34954
-0.879723
0.527179
1.4331
0.2879
1.95067
-3.2874
1.56753
-0.0990464
2.46254
-1.08442
-2.24988
-2.03863
0.593123
-0.200883
2.47944
-0.746765
1.1265
2.47452
0.0908023
2.52004
0.0205257
-0.861238
0.428256
-0.563284
3.00822
-3.29715
2.5279
0.752044
-1.45407
5.69901
2.12942
2.51351
0.880284
2.14847
0.538942
2.33723
0.350535
1.55593
2.50942
1.50507
-1.58907
-0.42921
3.60987
0.547352
-0.749981
0.773913
-2.24338
3.38084
0.421596
3.30116
0.802047
2.11855
0.583652
-2.24331
1.18421
-0.806985
2.60412
0.540796
2.26894
-2.76861
-1.71829
-2.16258
3.65272
3.83926
-3.52286
-1.16816
-0.0943852
0.802578
1.74655
1.03991
4.18904
-2.52253
3.31718
0.238674
-2.85055
0.8623
-0.710757
1.10036
-0.474415
-0.396685
-1.45895
-2.61094
-2.07154
-0.923432
-0.819341
0.526371
-4.89205
1.6158
-0.282868
-4.0679
-1.60814
-1.4466
1.741
0.833166
-0.822836
1.55155
1.46828
1.81084
-3.56944
-3.21286
-1.64613
-0.27708
0.458708
-2.10511
-0.418271
4.04588
-0.804439
-0.297991
1.39555
-1.18251
3.86303
-1.32528
2.76676
-0.388455
0.999437
0.169369
1.66735
1.30662
-1.84345
2.10421
-2.75457
0.906901
-1.3488
-3.03759
-1.16715
0.205329
0.262726
-0.447826
0.521502
-2.46743
1.60541
-2.17326
0.770966
1.03512
-4.90935
-1.04042
0.91316
-1.08039
-3.79423
-3.15851
-0.398912
-0.573198
0.890371
-2.71604
-0.637925
-2.24065
0.212295
-0.161595
-2.25665
3.51721
0.320846
0.829761
1.26947
-2.60825
1.20963
2.754
-0.0254201
0.0319239
-1.60194
1.63791
-1.76424
-3.42845
0.255349
-0.681162
-3.63128
-2.56883
0.111021
-2.12255
0.123435
-1.27608
2.00839
0.122378
-0.655933
2.5408
-6.27196
1.8238
-3.65303
1.40157
1.59711
-3.11465
-2.56861
2.21227
-3.47458
-0.174097
-1.30281
-3.1873
2.03777
-2.3852
0.893246
2.68309
0.604789
0.450631
0.841458
0.71961
0.631899
1.26671
0.70351
-1.27801
-3.20238
-2.26372
-1.0537
2.62831
0.783347
-1.76816
1.44429
2.6099
-0.338933
-1.49089
-2.42689
1.17309
-1.25201
-1.79111
-0.0334309
0.181042
-0.521409
-1.95737
-1.91725
4.19671
1.1939
1.93138
1.22283
-0.282981
0.186816
3.07438
1.25119
2.08681
-2.29787
-2.85275
0.723483
-2.42298
0.667446
-3.26462
1.22538
0.970616
-2.76841
5.15845
-1.43754
-0.44218
-2.05904
-1.5455
-3.33169
-1.87038
-5.10118
-4.82143
-5.4305
-4.95026
-1.02631
-3.34785
2.46237
-3.67621
-2.6156
-1.86941
-1.87147
0.927091
-4.3511
2.28957
-4.08534
-4.67269
-0.313058
-4.63802
-3.02973
-0.779511
0.137925
-4.20674
-2.04719
-2.23628
-4.08765
-2.44691
-2.87644
-1.05582
-2.12809
-3.98435
-1.4997
-0.215192
-0.159283
0.396755
2.57004
0.762491
1.6549
1.03028
0.731249
-0.157404
0.387125
-1.2573
-1.0006
-3.13621
-2.39894
-2.18726
-3.49356
-1.27779
-3.34063
-1.09089
-1.53418
0.0995291
-0.347346
-2.60833
2.95109
-0.31059
-0.459913
1.09036
-0.717934
0.650294
-2.93296
0.70325
-4.43781
-4.12782
1.12401
-2.32605
-0.553701
-0.445949
-0.0175156
-3.48958
-1.02932
-2.64081
-3.42354
0.752432
1.97677
-1.54323
-0.787344
-4.76528
-2.78863
-4.78028
-5.33477
0.535442
-1.7003
1.04905
-1.30796
-2.54667
-6.1257
-0.250299
-3.67621
-2.24326
-1.53705
-4.94819
-2.84784
1.99022
4.27135
-1.95414
1.10726
-2.32773
-0.352354
-0.666964
-2.94423
0.732985
-1.25658
-1.10899
-2.51647
-2.41498
-1.93356
-3.33936
-1.99325
-2.77924
1.82052
-2.11751
0.727047
-1.08296
-0.642538
-2.3331
-0.952714
-0.169961
-1.41155
1.22985
-3.01472
0.962551
-1.77437
0.713787
-3.89639
-0.220408
-1.90803
-0.198671
0.189974
0.328793
-0.980141
-2.77638
1.26138
1.81926
-0.34874
1.83518
1.06869
1.16164
-2.50778
-2.1437
3.26074
0.46509
2.03105
-2.3567
-1.66833
-1.33078
-0.754029
-0.967032
0.0880784
-2.46629
0.367868
-0.543016
1.02826
1.27433
-1.19394
-1.71958
-1.82762
-1.83598
-3.20043
-1.77477
-3.48945
-6.75104
-0.836527
-1.7771
-3.02586
-3.00384
-0.0113234
-6.0017
-4.60003
-2.88356
-6.24338
-4.03359
-1.74934
0.761501
-0.85115
-0.989345
1.60141
-1.93158
-5.82131
-1.87119
-0.143574
-2.69704
-0.578283
-3.33912
0.429504
-0.174198
-2.68979
-1.94025
-5.97715
-0.921479
-1.06016
-0.026605
-4.52702
0.348178
0.0235633
1.52736
-1.41802
-2.14524
-4.44052
-2.08102
1.3736
-3.01575
-3.14141
-2.33708
-3.32208
-1.26558
-7.06677
-2.71471
-5.05608
-2.99493
0.0295732
-3.6188
1.27968
0.249217
-0.444407
-1.29552
-2.03103
-1.85597
-3.81781
-3.4205
-4.85975
-0.486008
-2.12575
-1.45251
-1.32025
2.76516
1.15599
-1.10003
-1.19732
-0.234295
0.0524892
2.03245
0.487866
-0.385601
-1.55062
-3.5891
-2.12329
-1.91794
-1.89585
-1.93307
0.522036
-0.189249
-0.642681
-1.33747
-2.61897
-0.264305
1.25239
-0.23745
-0.40081
1.45608
-3.82848
-0.76037
-1.45707
-1.1308
-2.6473
0.270264
1.08232
-2.0714
-1.30323
2.24983
4.67562
-0.016441
-1.53233
0.720779
1.62655
-3.46554
-3.37131
-1.55984
-1.67027
2.41903
2.03072
-2.73626
0.207607
-0.214784
2.57801
0.514137
3.81522
2.63712
3.52346
-0.36301
-0.97283
-1.38138
-0.21941
1.7606
1.66236
-1.72484
0.603512
-3.16832
-1.93745
-0.343287
1.14562
-2.61807
3.49431
0.0441499
0.992158
2.64022
0.161739
-1.15164
-2.19095
-0.10061
-0.136159
2.55409
-2.69933
1.21823
0.428746
0.531521
-2.69231
-1.67329
-1.75715
0.73882
-1.12868
1.5725
-3.06748
-3.22153
1.09982
0.207593
-4.42683
-7.06472
-4.93591
-3.77915
-2.78274
-2.89097
-5.73164
-3.80293
-3.85801
-2.0222
-5.82374
-0.53838
-5.70498
-3.09915
-9.60626
-3.14578
-3.07151
-3.58768
0.913132
-1.51109
-1.63912
-0.987687
-4.66942
-0.0820648
-4.25561
-2.41168
-6.763
-0.792797
-4.74978
-3.6421
-4.69066
-2.26218
-3.84544
-3.57721
-0.778637
-0.0935161
-2.32158
-2.41127
-0.300085
0.785312
-5.72875
-1.92628
-4.04607
-4.88478
-0.93287
-1.27706
-4.45389
-3.86745
-3.91055
-3.94729
-4.48047
-0.236201
-1.64564
-1.84321
-1.81818
0.758076
-3.31625
-3.08484
1.17311
-3.97647
1.1285
-3.79862
-1.12458
-0.0212423
-3.65414
-1.31591
-2.38878
-5.01472
-2.64335
-1.455
-2.89451
-0.0686727
-1.86894
-0.0112858
0.427642
-0.821685
-4.01567
0.487057
-3.30016
0.0304723
1.53732
-1.51025
-8.63079
-3.14237
-2.96739
-4.85797
-6.23069
-4.58128
-6.32469
0.0630298
-4.34878
-0.102405
1.6174
-1.95037
1.18824
-2.62741
1.48811
1.00023
-2.33629
2.53611
2.27362
-2.46681
0.548752
-1.08234
-2.25842
-2.81302
-3.37833
-4.066
1.444
-2.63728
-5.06442
-0.28582
2.13374
-2.18768
-0.254248
0.855203
0.870305
-2.47201
-0.324363
-0.988239
-2.06452
-0.374211
-1.1127
1.1811
-1.47862
1.18189
-0.967813
1.03506
1.03262
0.687475
-1.27217
-0.304441
4.18176
-0.883729
-2.02883
2.00466
1.68056
-0.0435428
-0.329811
-1.55577
-3.23398
-1.86107
-3.05536
-0.733786
0.927948
3.0027
-1.93337
1.74234
-1.17922
1.83762
0.783937
-0.700183
-2.33986
-1.51717
0.0729522
2.14981
1.34524
-2.06468
2.04024
-2.17261
-2.57599
-6.48827
-6.98918
-7.34351
-2.24584
-7.57477
-3.07493
-4.74768
-6.2584
-7.40909
-5.25028
-4.81292
-4.12992
-2.17285
-4.11405
-5.77022
-0.331918
-1.42636
-3.94514
-2.59933
-1.71795
-3.26431
-3.37793
-5.65467
0.481837
0.222271
-0.392769
-6.68023
-0.671072
0.288229
-2.92467
0.230995
-5.51194
-0.284651
-4.83354
-0.567389
-3.40092
0.570139
-1.02874
-2.39874
-0.630184
-4.95539
-2.35812
-2.31904
-2.27317
-6.11104
-2.64816
-8.2865
-4.45633
-6.17101
-6.95954
-4.19849
-1.93572
-2.2652
-0.160032
-1.32708
-4.51568
2.59999
-2.43962
0.508329
-3.28345
-3.45961
-5.10203
-1.82395
-1.18003
-3.32877
-2.44683
-3.24302
-6.39101
-2.14623
-1.63256
-2.3518
-1.75357
-3.64338
-4.86742
-2.35273
0.496245
-3.10482
-4.49671
0.299402
-3.99969
-2.77717
-3.84812
-3.12646
-1.11122
-1.28848
-5.1599
-1.08972
-2.39396
0.313725
-0.0313589
-1.59662
-2.02952
-0.913581
-3.78427
3.08488
-5.14474
-0.280845
-0.631001
-2.38718
-2.84537
-1.39065
-4.66041
-2.48928
-3.19198
-2.93784
-0.0816839
-3.8942
-3.78791
-3.90183
4.21406
0.467167
-3.39515
-4.26554
0.508076
0.526107
-2.04265
-1.39013
-0.981196
5.30953
-1.29645
0.633502
-5.17861
-1.60133
-1.22362
1.57123
-0.226212
-1.07032
-1.74771
-0.34805
-1.75973
0.119495
-0.555362
-2.24679
-1.51462
-2.67138
0.33032
-0.0249943
-1.53354
0.239553
-2.25171
0.793905
-3.36652
-1.34071
-1.32811
-0.503413
-0.818997
2.60019
-0.852689
-2.47538
-2.85893
0.701071
-2.72329
3.22904
3.08502
0.545867
2.30911
-1.23352
2.51804
-5.23986
0.871416
-1.07198
-5.61861
-3.67193
-9.36895
-4.91967
-8.57757
-5.22838
-3.67012
-1.50113
-6.52489
-3.1249
-2.74009
-4.36482
-4.54546
-3.17688
-5.51422
-1.00076
-1.05328
2.70952
-0.93377
-3.04562
-2.51896
-4.06675
-6.48227
-5.30384
-2.83348
-4.59795
-3.92182
-3.79115
-5.44139
-6.76155
-6.67911
-4.17445
-6.62574
-0.773967
-3.01263
-0.763091
-2.52159
-1.06468
-2.25822
-0.551509
-1.2464
-7.05597
-2.88322
-6.21581
-6.61215
-3.33061
-4.89906
-5.38758
-3.24417
-3.02343
-5.46294
-3.8298
-3.86506
-5.7669
-1.54605
1.87589
-0.45794
1.60153
1.16905
0.203066
-3.17661
1.99118
-1.63926
-0.87202
-0.43902
-0.812271
-1.46813
-1.7842
-2.8483
-4.39868
-0.447535
-4.17362
-0.342323
-2.94867
-0.274597
-4.94371
-2.02393
0.404576
-2.13736
-0.906941
-2.13047
-0.67051
-4.219
-3.65548
1.68196
-1.59961
-3.08077
-4.99578
-4.60236
-2.76503
-5.3831
-0.217458
2.20125
0.0808497
-2.15773
-1.67118
3.27068
-0.866991
-3.30385
-3.66799
0.0711073
-0.39246
-2.00161
-2.92014
-3.71964
-2.30402
-0.828288
-0.283705
-1.27515
-4.53602
0.81207
0.901343
1.76478
1.52018
-2.89673
-0.802145
1.53059
-0.20885
0.36754
1.95791
-1.39932
1.2023
-0.682952
-0.8966
-3.10205
0.842042
-0.184486
-2.11303
-2.88325
-4.21241
-2.73185
1.65969
3.8277
-0.590486
0.418818
-0.593978
0.272194
-2.78346
3.26114
-1.82188
-0.935702
1.65116
1.53405
-3.24322
-0.0610537
-2.77237
-0.75821
-1.22064
-1.02128
0.431752
0.254289
2.8103
-4.04556
-1.26493
1.10337
-2.49568
0.911496
-2.37281
-5.31119
-3.90206
-3.81354
-4.72472
-3.16874
-3.9338
-7.68631
-6.19011
-8.71058
-5.21555
-4.51538
-5.38192
-1.98025
-8.23137
-0.597377
-2.21195
-1.53321
-2.99244
-5.06686
0.828326
-3.05465
-5.99787
-5.54928
-5.45218
-0.33729
-4.66497
-0.729222
-6.24545
0.348537
-0.640256
-1.28939
0.138714
-2.31203
-0.370692
-4.44504
-0.890481
-1.72535
-1.19846
-0.0612295
-1.45034
-1.6826
-0.962459
-1.98959
-5.90629
-5.2586
-4.60814
-4.18716
-6.597
-3.06066
-2.51809
-4.31137
-3.68187
-7.05731
-4.79071
-3.05565
-3.37663
1.17297
0.622746
-0.0677878
-4.27964
-0.0523097
-0.871851
-4.92638
-2.63542
-3.68659
-4.31868
-3.83608
-2.57762
-2.42242
-2.90214
-3.17513
-4.46063
-2.33426
1.80124
-0.730552
0.25976
0.420551
0.0421056
-0.306546
-1.26443
-0.769378
-1.78919
-3.84052
-3.15197
-2.34079
-3.41257
-0.404068
-4.11605
-2.30875
-1.2771
-5.66057
-3.55872
-7.04784
-2.43831
-4.09565
-3.50508
3.29388
1.90846
0.44792
1.20913
-2.85228
-4.3991
-2.49831
-1.25522
-2.07358
0.168224
0.127875
2.97031
-1.05739
-3.34537
-5.08245
2.28599
-1.0003
-2.47582
-1.31547
-3.28141
-1.48726
0.303495
-1.93786
1.77855
-2.31719
-0.486313
-1.9956
-0.424076
-2.85171
0.253213
-0.0539568
-3.13845
-3.1291
-4.14762
0.504433
-1.34695
2.32977
-0.384557
1.7851
-1.08661
-1.19552
-1.6021
0.318566
-1.04862
-2.01369
-0.672845
0.542964
-0.316833
1.09965
0.686121
4.00087
1.4599
0.350699
0.152935
0.53928
0.0434811
-1.85472
-0.121174
1.71709
-1.67654
1.39414
-0.481628
-0.890636
-0.0745234
-1.7823
-2.95116
-6.67494
-5.24742
-5.27614
-4.03341
-5.80142
-6.49728
-3.99404
-7.37782
-6.22217
-5.872
-5.20213
-2.96389
0.0217261
-2.2798
-1.02078
-1.26778
-4.16296
3.87293
-0.779844
-5.14821
-1.12071
-6.78186
-0.644858
-3.81066
-1.31411
-2.62964
-0.432264
-0.097794
-6.11801
-0.526941
0.495981
-0.414189
-3.56497
-0.709148
2.798
0.844173
-1.48251
0.762009
-2.55103
-3.51751
-3.07567
-1.76255
-6.83719
-0.708249
-3.15947
-4.48977
-1.48962
-4.97019
-3.33865
-2.76453
-3.76412
-1.41811
-1.62899
-1.67107
-1.5279
0.282825
0.578083
-0.044467
-2.31815
-5.68715
-2.84685
-0.361944
-5.66525
-1.30098
-0.816866
-0.582165
-0.918926
-0.917271
-0.106517
-0.318934
-3.99594
-0.139899
0.291294
0.293502
-2.76519
-1.32009
0.220533
-3.99067
-0.746021
-3.75427
-5.13213
-1.8642
-1.92582
-2.05718
-1.20138
-5.3945
1.2066
-3.37255
-3.21339
-1.28994
-4.27179
-0.436276
-1.11033
-3.89979
1.57084
2.58615
-0.827691
-2.87072
-3.1574
1.62338
-1.22197
0.453806
-0.32637
-0.875673
0.203937
-1.47886
0.831457
2.68117
-2.14825
-6.50242
-2.49883
1.2447
-3.45257
2.50596
-0.576644
-0.960834
-2.62739
4.53966
-1.41453
-0.584391
-1.22273
-0.0728316
-0.0808026
2.3417
0.598504
-1.19347
-1.12148
2.58028
-2.31154
-2.13706
-0.397373
0.569105
-1.39911
-1.52591
4.79778
-1.65199
3.86357
0.611349
0.799562
1.03555
-1.01995
-0.189367
-4.32292
0.372273
-1.39346
-4.85646
-3.15407
-4.46327
-0.817779
0.612147
-2.19194
1.41462
1.60631
0.791614
-1.9908
-0.701624
-0.698416
2.90947
1.16123
-3.77574
-3.53224
-8.44968
-1.03623
-3.31846
-4.37871
-5.57808
-3.98974
-6.3844
-6.37148
-7.45685
-5.79054
-4.84998
-4.88668
0.116532
-0.0257313
-1.31312
2.53195
3.4201
-0.167543
-4.59541
-5.8826
0.130983
-6.18147
-5.18737
0.456472
-0.549499
-2.97739
-5.87972
-0.863777
-0.33636
-3.85011
-3.32837
-0.861938
-2.51194
1.87515
-0.136936
2.20406
-1.7407
0.973538
-4.33228
-0.817557
-3.2913
-2.36839
-2.91711
-1.43285
-4.2714
-5.37402
-2.49052
-1.99942
-0.252534
-5.81499
-0.714556
-1.54618
-1.31577
1.51626
-0.612042
-0.183214
-1.59544
-1.62549
-1.14801
-3.2882
-1.04787
-1.31006
-2.84563
2.35933
-0.626111
-4.82294
-0.769467
-1.84321
-3.02892
0.509311
-2.75919
-0.034363
0.9619
-1.31717
0.958268
1.83445
1.18358
3.64939
0.430749
-0.73273
-1.73919
-1.47062
-1.38218
0.449882
-6.08883
-1.98943
1.93221
-3.14207
-1.31208
3.04761
-2.61682
0.0154647
1.60357
-3.08113
-1.83397
1.65248
-0.884962
1.4622
0.576985
0.794107
-5.43438
-4.02769
0.362524
2.33788
-4.30613
-5.56822
-2.17297
-2.33721
-2.72764
0.748641
2.30292
-1.26017
1.34114
2.588
-0.820062
-3.1491
3.82265
0.334187
0.921968
-0.566944
3.14542
-4.38253
-1.24652
-1.14286
-0.911842
-1.80681
-2.05988
-1.6018
1.51569
0.986964
-5.18066
3.68626
-1.01542
-2.50103
-2.0606
0.747199
5.80112
-1.49719
2.40982
-2.32061
0.642978
-3.55519
-1.98151
2.15418
0.224426
0.218019
-1.11232
1.98754
-3.12814
0.387211
0.313473
2.0206
1.21117
0.328916
-1.47922
1.29164
0.572892
-2.78387
-0.0549723
-4.47025
-0.509966
-3.43506
-3.47577
-2.36687
-2.6149
-4.60151
-4.00383
-5.91083
-2.80744
-2.59722
-3.02182
-1.15896
2.04124
-1.07789
6.65581
3.2415
-0.900521
-1.2895
0.554954
0.282291
-3.54666
0.965767
-7.53283
-0.431513
-7.34303
0.00872172
-0.150642
-5.43218
0.643479
-3.79304
0.188674
-4.13928
-1.3499
0.439865
-0.135422
1.79025
-1.96782
-4.04342
-0.110569
1.59017
-2.11692
-5.55056
-1.43332
0.115853
-4.60591
-2.39842
-1.8324
-5.03373
-4.27256
-6.28556
-0.616319
2.668
0.107681
-3.21633
1.96346
1.55446
-0.0191463
-3.08822
-3.6834
-4.27056
-0.458225
-1.63427
0.0423612
-1.88448
-5.20861
-0.883936
-1.67548
-2.47307
-2.62561
1.43284
-4.29885
-1.71785
-0.0497221
0.207666
1.17955
-0.533725
-2.59077
3.96885
1.41489
1.29962
-0.279303
-1.10875
-0.690777
-3.98381
-0.509283
-2.29403
0.756843
-4.1218
-2.75985
-2.33199
-2.93585
-2.42013
-0.159613
0.023421
1.53538
-4.98387
-0.0276029
-0.550804
-5.09292
1.36139
-0.151479
-2.52263
-0.149995
-0.92291
-4.95306
-1.52972
1.54497
0.256109
-1.22528
-4.61005
-3.15133
1.2404
1.70568
3.82029
-2.84749
-0.678066
4.52391
-3.21406
-2.1131
-0.564697
0.0436035
-2.13299
-2.17307
-3.80105
1.82765
3.00691
1.5049
-3.83355
0.161963
1.00561
-1.71566
-2.54067
-1.70114
-1.10792
1.26259
2.24325
4.12394
-1.14257
0.224418
-3.34198
1.18369
-0.741219
3.21546
0.402148
-2.57116
-2.6598
-1.7641
2.08485
0.672618
-4.47666
0.707388
-1.81572
-2.30303
-5.88103
0.204769
-3.71565
2.07966
-1.93999
0.19201
-2.64844
-2.4456
-2.4748
-4.96127
-6.53438
-3.94791
-7.72461
-4.54386
-4.57996
-3.75345
-3.36939
-3.46441
1.69167
-0.48902
3.05186
2.71047
6.98359
5.71656
-0.820467
0.608407
5.29338
2.43693
-1.46364
-1.8958
-4.85702
0.00978056
-1.17083
0.00729593
-1.30111
0.399909
-1.77204
-0.020102
-3.17669
-2.45841
-1.81796
3.68607
2.2289
0.343858
0.237123
3.15721
-2.84573
-1.13557
-2.06817
0.869284
-2.87044
-0.574192
0.688685
-1.43786
1.00916
0.704565
-2.34638
-2.37919
-1.74812
-0.197082
0.93393
3.11433
3.09456
2.00806
2.92589
0.658522
0.0650814
3.24235
-0.423761
-2.98084
2.35443
-1.86614
-0.309487
-0.601061
-1.03307
-1.89565
-1.4441
-1.25585
-0.794544
0.79438
1.53637
2.47888
1.12333
1.79049
0.113046
-0.474609
0.860568
-1.97544
-0.700685
-0.651758
-0.492176
0.935809
-0.431838
-3.27959
0.479828
-2.09305
2.898
-5.39423
-0.773462
3.8811
-2.0956
2.63088
-0.983621
3.97262
-0.479268
-1.37735
-1.12233
0.549816
2.67796
-1.37997
-1.31201
-2.2802
-2.63048
-0.296054
0.208206
0.24043
2.2763
-3.91204
1.04254
1.22468
1.56066
-0.0988258
3.49979
1.49779
-0.0830835
1.45485
-2.08531
1.06288
-1.07263
-1.05958
-2.09788
0.995393
-2.51395
-0.594279
-1.73304
-4.34753
1.63402
-3.93198
4.4421
1.84907
-0.503297
1.63576
-3.88013
-2.94503
-0.620459
-0.206622
-1.93814
-1.86959
0.769416
-2.94307
-4.13652
1.92062
-2.67939
-1.14046
-0.905686
3.79411
-0.400003
2.09747
-1.86599
-1.6499
1.51774
-3.75188
2.42292
2.3679
-0.225012
-1.35639
-0.346741
1.786
-2.24792
0.0665439
-2.20228
-2.40892
-5.98102
-4.67261
-3.22525
1.57353
0.448692
0.533852
1.10502
0.246787
5.98189
3.7876
1.68245
2.7332
0.513936
1.37464
1.05971
2.59085
-0.120999
-0.80871
0.726749
-4.43574
-0.485979
0.181949
-1.93919
-0.445236
1.70735
-0.471231
1.23973
-0.230211
2.8617
0.457155
3.22014
-0.0547935
3.82286
3.32456
-0.606227
-4.20348
0.241527
-1.10725
-0.781296
2.50231
-1.01283
0.127881
-1.42166
-1.61079
-2.72791
-4.1578
1.83996
1.09986
1.71625
2.27681
4.8313
0.864162
3.85175
-0.0626804
0.606351
3.9136
-0.15495
-1.5411
-2.96453
-0.444856
-3.47178
0.117752
0.173709
-0.564289
0.761075
0.89047
-3.45652
1.99904
1.80112
4.688
4.39281
4.72348
1.511
-0.321572
-0.381191
0.689035
-0.405737
0.345519
0.147449
-2.37927
-2.24625
-1.24454
-0.606019
0.45635
3.67929
-0.835537
0.624343
2.3496
-0.570996
2.49037
5.1984
3.00869
1.63646
-1.08827
-1.05382
-2.75826
-1.68015
-2.3468
-0.925921
1.41703
-1.75162
-1.48005
-0.0119607
-3.8322
-0.880967
-2.28991
0.369628
-0.0747617
-2.00378
3.8504
0.11662
0.164428
-0.462943
1.7614
0.867958
-2.53862
-2.9316
-3.66046
-3.39461
-0.839445
-1.42879
-3.63429
-0.558592
4.69471
-1.16861
-0.962435
3.42696
-0.110372
2.26127
2.44637
0.548645
-1.66162
-0.73121
-0.235863
1.03688
0.248937
-1.10578
-0.380837
-0.489058
-0.169282
-1.57425
3.69684
1.75097
-1.08152
-1.18092
0.428047
2.02178
-1.2161
1.93001
1.64901
-1.08502
8.79908
6.79326
4.89583
1.92286
3.82773
4.85286
0.353683
1.52653
-1.6704
-0.29713
0.480926
1.31844
-0.790398
0.908681
2.90241
2.49741
3.08004
7.45913
8.97455
9.52723
4.09601
8.86881
1.86589
-0.0281046
-2.1888
-0.311154
2.56644
2.00846
-0.470782
-0.443501
2.44132
-0.149027
-0.791749
-2.61345
7.49091
5.81554
3.75951
4.94257
4.01843
6.55117
3.67458
4.99215
3.29097
-0.150761
-3.00767
2.39485
3.53531
1.33421
-1.27668
-3.09539
1.24069
1.952
-0.875696
0.184982
5.395
-3.22736
0.832001
3.65082
1.89566
3.97129
3.27356
0.245025
0.280204
0.789305
1.73864
0.669273
1.47224
2.30688
0.624453
-2.72901
-1.93074
-1.02968
3.97252
2.13631
3.96861
3.17306
1.34038
-0.80128
2.30036
1.64815
2.76617
2.37996
0.706237
2.13114
2.98267
2.98961
1.19727
-0.104686
-1.67277
-2.33697
0.256009
2.20914
1.36704
4.18858
2.59615
0.00772337
0.58222
0.407218
3.36058
3.2897
1.27418
-0.123458
1.62296
0.580299
-1.4184
-5.68901
-0.640695
-1.71038
0.187892
-1.49259
2.0812
-0.0123933
1.01303
-2.35582
4.69215
-2.84503
1.82509
-0.00269629
2.71054
2.8374
2.136
4.19118
0.0645364
0.167016
2.31421
0.346171
0.110111
1.77409
-0.867499
0.494217
-4.09168
0.083358
-1.97495
-1.62495
1.83513
1.56438
1.86884
-0.232885
0.688945
0.108983
-0.214269
0.160354
-1.2245
2.16876
0.0742204
0.710946
0.121937
1.25464
0.718724
1.85815
0.0433641
0.873843
-2.66941
1.27812
-2.89833
2.16822
1.26468
-3.56108
0.0661126
0.452387
8.02878
3.51556
3.8341
3.86154
-0.144746
6.5701
4.21335
2.31096
1.05229
1.46084
3.92274
1.91922
6.18313
3.36512
2.75225
1.96969
6.22766
8.14767
12.6638
5.78844
7.6105
2.45461
0.718184
0.033246
2.6422
0.414086
1.94022
0.647165
2.75891
-0.379061
-0.138883
1.84846
-0.506233
7.24002
0.202549
6.60607
1.01995
6.25705
0.832101
11.5217
4.52855
0.886696
4.28429
4.20389
2.60424
4.42935
0.821635
-0.0501389
2.34578
3.80306
-1.31147
0.081897
1.66366
5.09187
3.83699
4.13709
9.88593
4.1849
3.52786
9.04293
5.78397
4.80114
4.85516
6.55755
2.8898
3.17764
1.95589
1.56249
1.57045
3.49567
0.900257
0.860083
4.04123
3.86557
3.46675
2.7712
4.05927
3.01479
3.82762
10.3944
6.8032
1.68445
2.14944
3.5331
6.43112
-0.707498
3.92329
1.7762
2.7979
-0.680515
5.66659
-1.18317
3.64784
4.31008
2.08096
1.62006
3.43981
1.33658
1.29916
0.220473
-0.109113
1.19877
3.53811
3.78885
-0.171308
3.05987
-0.762947
-1.10652
3.46767
-0.597671
1.11857
2.8097
2.59289
-0.380279
-0.224279
-0.125568
2.67156
4.78508
1.34499
2.115
2.86405
2.452
2.45298
0.831353
1.75834
0.526487
4.44493
-0.879847
0.0642087
-6.51955
0.160609
-0.0955387
1.30625
1.64371
-2.38787
0.948708
-0.0214689
0.424994
-1.42409
2.51176
1.70102
-1.3929
3.13209
0.0198643
-0.970878
-1.46056
2.42513
-2.07411
1.39665
-1.74819
-1.3287
1.42805
-0.43073
-0.936429
-3.00437
-0.352423
3.22168
-1.76657
2.13482
2.03042
10.7813
10.1245
8.54179
9.32281
4.27909
4.763
4.39741
2.79172
4.66443
2.52386
4.08608
4.34432
5.73918
8.88732
5.62628
7.61859
6.95645
9.87192
6.06803
10.0855
12.2508
8.84406
4.1762
7.22143
7.51422
1.18628
7.24904
3.71863
1.01306
1.70403
5.30398
8.58802
7.12101
3.07347
4.09124
5.76115
4.03392
7.61971
8.64131
8.22894
7.91988
5.55032
3.65562
3.27668
3.9578
5.96675
4.31433
3.34693
4.40269
3.25687
6.12405
5.26604
5.78736
4.06153
4.67978
5.48572
6.73852
6.66427
9.23604
5.95602
4.26526
4.23266
7.31511
4.02681
6.42148
3.9516
2.50216
3.10848
4.0066
4.84355
1.39592
2.85289
2.22271
4.89639
3.99074
2.67697
4.84304
6.31045
2.39876
6.92543
2.81042
5.4648
2.41546
2.69861
4.89207
7.9429
-0.255658
4.20894
1.69021
2.45401
2.51186
3.5363
4.04098
4.74471
3.28387
5.44649
3.57754
4.4833
5.48415
6.69458
6.40082
3.67196
0.503329
4.11754
1.70468
0.902687
3.7413
3.10134
2.73381
2.59516
2.17918
2.63013
2.65873
0.813394
5.54319
1.4269
3.25291
1.57766
5.64931
1.3586
1.15441
1.63501
2.36377
-0.0459617
1.83068
-0.458791
3.28241
3.79109
3.79314
3.91045
1.29881
0.86104
4.58784
-0.105683
1.43671
1.14761
1.84194
4.41025
0.18469
4.0238
1.57134
1.95932
1.20755
-1.47194
0.920279
0.807596
2.98507
3.33264
-0.961778
4.27925
4.13011
0.457111
-2.26123
1.70399
2.76732
2.90349
0.213911
4.46543
4.26146
3.89606
12.9042
11.8876
10.0057
11.3534
6.7266
8.57899
5.16309
5.13845
7.3494
3.61408
4.65031
6.56193
5.16307
6.11406
9.84741
8.91476
11.1268
11.4192
12.5715
20.8492
13.5231
2.17283
8.85827
1.36887
8.7042
0.597819
4.53056
0.544233
4.69765
1.04635
0.673561
4.80442
0.183071
6.5766
0.543734
8.60784
1.60755
6.86401
1.58115
12.7837
11.5352
9.17566
6.88158
6.86819
3.63767
8.22572
9.11988
4.03734
5.3057
2.15383
5.74531
4.55035
7.93366
4.07112
10.9379
7.85329
8.60269
7.82684
9.64926
11.7925
10.328
6.8531
5.66681
6.96056
5.72973
5.60081
5.4241
5.07592
1.59355
5.51622
1.22724
8.87643
5.99115
2.49991
9.07186
8.33916
1.57456
7.3678
4.11922
11.5332
5.09094
5.07334
1.10629
8.15957
4.97306
1.69776
7.92345
5.96373
7.08641
0.609219
2.99645
4.94948
6.68435
1.53105
6.46813
6.15173
5.79148
3.99921
6.24306
5.34135
2.7515
2.35329
3.84248
2.44492
1.39844
3.02946
6.20376
4.29575
0.0604703
2.14503
-0.191132
2.35045
2.74971
4.46348
2.1792
3.85524
-0.393405
3.22864
7.84404
6.14325
6.29802
2.90752
1.74716
5.85513
3.79618
6.36494
1.61442
1.39668
4.17554
2.64823
6.99171
2.46098
0.0843533
1.64382
1.12574
0.765739
5.50363
0.710165
-0.640346
1.37453
0.526345
1.2605
3.60803
0.538394
-0.820627
2.37866
5.21816
3.65799
-2.77136
-2.50527
1.36936
0.982766
-2.33288
0.00360423
-0.932366
1.75302
-0.420024
2.21748
1.32151
3.02398
15.2184
12.9738
12.3805
10.3874
9.13157
10.7975
10.6399
11.0195
7.49018
8.27722
2.91693
11.8255
9.50766
10.1906
9.74436
15.3035
10.8418
12.9677
14.3337
16.4396
10.9849
12.8898
11.2891
13.5576
10.4753
8.09622
9.99305
9.40065
4.69634
3.87608
5.2365
6.26641
8.26605
7.08923
7.88383
11.2861
8.08909
9.80653
14.6079
12.3095
9.24382
11.1704
8.87954
13.8149
8.09737
8.50976
4.97621
8.0274
5.44692
8.34233
5.98147
7.7882
7.82069
9.40986
8.28807
6.7432
9.50403
7.52871
10.3766
13.1169
6.72798
6.97196
6.02456
6.599
1.56126
5.83106
5.7116
4.33123
5.86022
6.69386
7.06913
4.25248
4.72933
6.77899
5.28891
10.3039
7.87332
7.39941
9.27093
7.72993
10.3383
6.45062
6.18825
6.41601
5.71213
7.78838
6.33311
2.05043
6.88603
2.64131
0.604619
5.49481
1.88333
0.0900546
7.02487
5.37745
5.87585
6.83021
3.47358
10.2694
8.27719
4.5921
2.01111
0.200773
3.30044
1.51352
-0.27682
-0.286222
4.46284
2.59982
4.19348
2.33213
3.43874
3.31674
7.26435
3.73358
1.54354
4.55372
6.89038
4.11273
4.85828
1.09239
2.301
2.45321
1.53328
-1.21571
2.55518
3.24012
0.524143
1.68528
5.62962
-0.56657
5.71167
5.75979
2.92436
1.62162
0.276382
1.68582
3.02501
5.1372
-1.55921
3.6581
0.852778
-0.359887
0.904208
2.94752
-2.47114
2.83996
-0.391521
2.584
3.72506
-0.882379
-0.868023
-0.536544
5.07184
0.0234493
0.875696
-2.14286
1.61546
0.131251
)
;

boundaryField
{
    hotSide
    {
        type            calculated;
        value           nonuniform List<scalar> 
400
(
3.26876
0.0401319
-0.905298
2.34024
0.810332
-0.451079
1.49553
-0.86167
-3.90222
-1.00465
1.3281
4.35061
2.05669
3.61036
3.94984
10.4366
9.72644
12.5435
14.7356
17.1235
4.51469
0.80819
4.69352
0.79762
-0.775345
-0.529099
-3.11018
-1.23776
2.23485
-3.91877
-0.356979
2.62352
-1.28043
-0.391106
1.3737
8.44627
5.22741
11.8998
13.7309
14.8898
0.575239
-3.02302
0.963648
0.90999
-0.228329
-0.505346
-5.71749
-5.1211
0.318658
-2.4842
-1.50217
-2.29152
1.46871
1.75952
0.259418
6.5645
5.56025
10.3301
11.8609
14.3074
2.77095
1.96787
2.10316
-0.115775
-1.97934
-1.83619
-3.55682
-5.59203
-4.19992
-2.3696
-5.20182
-2.0258
-2.92618
-1.06229
1.28608
3.60701
5.60177
11.1239
13.2202
12.3247
-0.621044
3.30082
-1.96474
-1.23043
-0.482186
-0.376425
-2.36788
-5.91621
-2.2252
-3.25486
-3.75046
-6.9214
1.05402
-0.841339
3.43525
5.52676
1.60894
6.09234
8.60436
11.0788
2.71957
2.73476
-2.74038
-0.654429
-3.67796
-2.0579
-1.34028
-0.789482
-7.89534
-1.67417
-3.75657
0.512623
-1.85241
-0.853658
-0.583447
6.5656
8.33611
6.58733
10.4667
12.7537
3.15362
4.58894
-1.13783
0.527478
-3.36597
-5.28906
-1.42005
-6.09201
-3.42175
-2.41698
-2.49361
-1.75129