/*--------------------------------*- C++ -*----------------------------------*\
| =========                 |                                                 |
| \\      /  F ield         | OpenFOAM: The Open Source CFD Toolbox           |
|  \\    /   O peration     | Version:  2212                                  |
|   \\  /    A nd           | Website:  www.openfoam.com                      |
|    \\/     M anipulation  |                                                 |
\*---------------------------------------------------------------------------*/
FoamFile
{
    version     2.0;
    format      ascii;
    arch        "LSB;label=32;scalar=64";
    class       volScalarField;
    location    "0";
    object      stateMean;
}
// * * * * * * * * * * * * * * * * * * * * * * * * * * * * * * * * * * * * * //

dimensions      [0 0 0 1 0 0 0];

internalField   nonuniform List<scalar> 
3200
(
331.329
332.014
332.753
333.366
333.873
334.283
334.68
334.958
335.16
335.255
335.238
335.11
334.871
334.646
334.206
333.697
333.156
332.444
331.706
331.122
327.193
327.714
328.311
328.856
329.367
329.691
330.027
330.299
330.475
330.514
330.567
330.439
330.251
329.946
329.585
329.157
328.688
328.143
327.554
327.022
322.936
323.437
324.019
324.421
324.849
325.182
325.45
325.715
325.785
325.728
325.775
325.709
325.531
325.409
325.067
324.744
324.295
323.934
323.384
322.883
318.789
319.125
319.568
319.953
320.312
320.577
320.881
320.961
321.082
321.08
321.094
321.099
320.969
320.792
320.501
320.238
319.849
319.562
319.076
318.76
314.595
314.86
315.206
315.527
315.782
315.968
316.143
316.354
316.363
316.41
316.394
316.38
316.283
316.148
315.95
315.745
315.529
315.182
314.875
314.626
310.4
310.593
310.873
311.047
311.252
311.469
311.534
311.641
311.703
311.688
311.753
311.699
311.636
311.547
311.376
311.311
311.042
310.772
310.653
310.459
306.24
306.379
306.534
306.689
306.786
306.817
306.96
307.07
307.077
307.105
307.052
306.998
306.908
306.929
306.836
306.751
306.694
306.559
306.455
306.242
302.067
302.163
302.199
302.179
302.243
302.33
302.341
302.339
302.382
302.345
302.392
302.336
302.306
302.268
302.294
302.31
302.256
302.156
302.104
302.033
332.225
332.93
333.524
334.226
334.743
335.213
335.704
335.967
336.118
336.176
336.25
336.094
335.862
335.565
335.16
334.627
334.031
333.359
332.642
331.973
327.959
328.451
329.065
329.591
330.068
330.551
330.895
331.122
331.287
331.335
331.283
331.272
331.012
330.813
330.417
330
329.5
328.975
328.293
327.686
323.616
324.006
324.51
325.003
325.425
325.746
326.152
326.256
326.451
326.4
326.52
326.352
326.275
325.97
325.785
325.431
324.928
324.445
323.977
323.463
319.205
319.609
320.099
320.466
320.807
321.075
321.324
321.471
321.616
321.66
321.64
321.564
321.421
321.306
321.063
320.713
320.386
319.99
319.536
319.18
314.93
315.271
315.595
315.882
316.211
316.361
316.548
316.67
316.732
316.82
316.768
316.746
316.707
316.475
316.392
316.085
315.819
315.575
315.248
314.953
310.7
310.769
311.118
311.339
311.589
311.697
311.831
311.951
311.954
312.016
311.955
311.924
311.93
311.883
311.743
311.558
311.303
311.117
310.83
310.733
306.422
306.534
306.592
306.769
306.875
306.966
307.145
307.168
307.206
307.228
307.193
307.239
307.151
307.115
306.986
306.845
306.745
306.624
306.531
306.468
302.121
302.101
302.207
302.314
302.29
302.361
302.405
302.413
302.53
302.442
302.394
302.4
302.384
302.434
302.32
302.31
302.262
302.227
302.172
302.184
333.335
333.984
334.846
335.439
335.984
336.529
336.959
337.27
337.393
337.498
337.466
337.324
337.153
336.889
336.42
335.929
335.336
334.665
333.827
333.157
328.804
329.42
329.978
330.634
331.168
331.62
331.987
332.215
332.347
332.438
332.429
332.289
332.169
331.895
331.526
331.074
330.559
329.89
329.357
328.683
324.307
324.807
325.338
325.788
326.275
326.642
326.898
327.189
327.36
327.434
327.379
327.285
327.189
326.967
326.64
326.259
325.779
325.331
324.731
324.246
319.87
320.269
320.647
321.15
321.432
321.701
322.067
322.193
322.34
322.368
322.392
322.288
322.225
322.046
321.795
321.487
321.135
320.683
320.231
319.85
315.4
315.736
316.067
316.326
316.709
316.973
317.048
317.236
317.332
317.406
317.474
317.36
317.255
317.133
316.916
316.646
316.441
316.13
315.729
315.379
310.982
311.257
311.526
311.69
311.831
312.072
312.195
312.296
312.351
312.436
312.379
312.347
312.273
312.18
312.068
311.911
311.704
311.524
311.203
311.024
306.609
306.705
306.871
307.017
307.203
307.175
307.336
307.41
307.463
307.45
307.431
307.393
307.308
307.27
307.305
307.185
307.057
306.835
306.745
306.538
302.193
302.215
302.35
302.242
302.355
302.401
302.438
302.465
302.476
302.498
302.49
302.537
302.524
302.447
302.484
302.393
302.301
302.269
302.27
302.252
334.514
335.277
336.024
336.667
337.409
337.877
338.297
338.61
338.86
338.922
338.87
338.871
338.588
338.268
337.85
337.288
336.612
335.918
335.119
334.42
329.835
330.427
331.105
331.746
332.244
332.719
333.075
333.402
333.588
333.724
333.587
333.518
333.379
333.103
332.687
332.289
331.641
331.027
330.417
329.876
325.146
325.622
326.278
326.743
327.232
327.632
327.94
328.177
328.359
328.434
328.4
328.346
328.147
327.909
327.605
327.237
326.81
326.341
325.73
325.243
320.59
320.958
321.501
321.859
322.265
322.553
322.773
322.957
323.164
323.262
323.158
323.188
323.016
322.832
322.642
322.279
321.836
321.504
321.017
320.569
315.988
316.277
316.631
316.947
317.27
317.525
317.759
317.844
317.978
317.99
318.073
318.009
317.843
317.794
317.56
317.313
316.979
316.674
316.401
316.045
311.395
311.638
311.915
312.087
312.338
312.503
312.621
312.739
312.796
312.901
312.899
312.897
312.683
312.751
312.479
312.386
312.181
311.929
311.621
311.478
306.848
307.005
307.173
307.26
307.42
307.52
307.546
307.754
307.771
307.761
307.709
307.759
307.628
307.672
307.526
307.481
307.28
307.18
307.01
306.86
302.302
302.397
302.404
302.389
302.534
302.507
302.504
302.538
302.586
302.602
302.564
302.592
302.504
302.525
302.515
302.473
302.45
302.339
302.366
302.354
335.715
336.441
337.273
338.004
338.736
339.274
339.737
340.045
340.272
340.372
340.377
340.236
339.957
339.723
339.305
338.725
338.028
337.291
336.44
335.725
330.943
331.537
332.256
332.847
333.495
333.928
334.255
334.652
334.844
334.903
334.935
334.769
334.582
334.397
334.012
333.511
332.866
332.231
331.609
330.93
326.063
326.557
327.168
327.705
328.18
328.678
328.998
329.207
329.42
329.418
329.371
329.362
329.304
328.979
328.642
328.248
327.757
327.201
326.615
326.172
321.322
321.677
322.144
322.617
323.057
323.326
323.676
323.894
324.019
324.021
324.103
324.031
323.799
323.762
323.428
323.18
322.73
322.223
321.849
321.4
316.454
316.877
317.153
317.6
317.865
318.213
318.329
318.444
318.619
318.681
318.608
318.609
318.558
318.435
318.163
317.922
317.643
317.309
317
316.726
311.748
312.019
312.305
312.554
312.811
312.963
313.171
313.205
313.327
313.325
313.346
313.262
313.265
313.193
312.962
312.791
312.622
312.36
312.084
311.856
307.094
307.21
307.39
307.519
307.709
307.708
307.77
307.968
307.96
307.985
307.986
307.991
307.905
307.901
307.768
307.659
307.629
307.422
307.274
307.166
302.375
302.342
302.498
302.563
302.6
302.554
302.626
302.603
302.701
302.674
302.706
302.716
302.668
302.669
302.629
302.539
302.577
302.434
302.395
302.385
336.899
337.643
338.585
339.317
340.002
340.581
341.091
341.472
341.685
341.78
341.814
341.646
341.459
341.127
340.686
340.116
339.429
338.655
337.784
337.003
331.932
332.528
333.32
333.919
334.527
335.04
335.485
335.841
336.051
336.133
336.153
336.097
335.896
335.573
335.176
334.656
334.068
333.431
332.785
332.054
326.874
327.39
328.095
328.674
329.229
329.604
329.972
330.274
330.367
330.517
330.48
330.413
330.282
330.002
329.688
329.239
328.723
328.233
327.618
327.151
321.993
322.386
322.943
323.414
323.859
324.171
324.482
324.652
324.829
324.911
324.911
324.88
324.735
324.512
324.162
323.831
323.605
323.111
322.6
322.148
317.106
317.366
317.739
318.085
318.515
318.812
318.953
319.185
319.277
319.315
319.282
319.306
319.209
319.035
318.873
318.504
318.257
317.94
317.564
317.26
312.15
312.391
312.726
312.979
313.205
313.43
313.512
313.63
313.753
313.772
313.79
313.749
313.743
313.577
313.404
313.217
313.097
312.724
312.559
312.282
307.349
307.442
307.578
307.829
307.871
307.973
308.077
308.196
308.291
308.267
308.318
308.258
308.269
308.143
308.102
307.979
307.825
307.697
307.506
307.356
302.538
302.449
302.637
302.634
302.642
302.681
302.757
302.71
302.751
302.805
302.735
302.792
302.682
302.707
302.681
302.655
302.611
302.581
302.5
302.439
338.081
338.878
339.779
340.552
341.355
341.919
342.472
342.725
343
343.172
343.217
343.091
342.831
342.537
342.022
341.412
340.732
339.983
339.001
338.274
332.881
333.477
334.329
334.994
335.665
336.22
336.703
337.008
337.151
337.249
337.326
337.292
337.052
336.7
336.375
335.836
335.23
334.554
333.771
333.165
327.861
328.303
329.001
329.592
330.131
330.536
330.983
331.197
331.455
331.483
331.507
331.415
331.285
330.958
330.655
330.272
329.808
329.211
328.477
327.981
322.744
323.185
323.61
324.097
324.626
324.982
325.288
325.535
325.659
325.8
325.746
325.689
325.586
325.349
325.09
324.752
324.313
323.888
323.391
322.917
317.676
317.993
318.444
318.805
319.021
319.389
319.617
319.762
319.895
319.981
319.981
319.947
319.809
319.709
319.519
319.163
318.922
318.52
318.167
317.863
312.624
312.904
313.11
313.421
313.559
313.906
314.001
314.121
314.249
314.177
314.254
314.238
314.154
314.086
313.92
313.731
313.507
313.199
313.003
312.743
307.564
307.722
307.886
308.022
308.212
308.311
308.343
308.464
308.615
308.561
308.584
308.618
308.496
308.439
308.37
308.209
308.114
307.943
307.766
307.595
302.633
302.607
302.694
302.652
302.751
302.778
302.784
302.834
302.822
302.846
302.84
302.823
302.85
302.794
302.753
302.741
302.692
302.663
302.665
302.546
339.203
340.092
340.962
341.862
342.557
343.252
343.738
344.105
344.349
344.51
344.473
344.45
344.247
343.786
343.31
342.777
342.037
341.185
340.355
339.437
333.885
334.617
335.384
336.183
336.822
337.258
337.855
338.148
338.354
338.462
338.554
338.385
338.179
337.839
337.467
336.901
336.313
335.579
334.889
334.215
328.643
329.243
329.824
330.474
331.005
331.568
331.945
332.189
332.327
332.536
332.653
332.352
332.228
332.044
331.631
331.197
330.692
330.171
329.412
328.947
323.456
323.864
324.357
324.898
325.275
325.731
325.977
326.227
326.438
326.474
326.547
326.516
326.341
326.141
325.857
325.464
325.151
324.588
324.087
323.664
318.151
318.538
318.962
319.362
319.571
319.985
320.177
320.413
320.482
320.633
320.599
320.663
320.488
320.269
320.088
319.789
319.528
319.04
318.771
318.37
313.018
313.225
313.579
313.817
314.035
314.273
314.4
314.549
314.607
314.666
314.713
314.67
314.643
314.466
314.356
314.249
313.918
313.653
313.333
313.146
307.725
307.814
308.103
308.309
308.417
308.581
308.637
308.737
308.817
308.808
308.78
308.841
308.75
308.708
308.665
308.53
308.435
308.151
308.027
307.812
302.599
302.643
302.777
302.856
302.845
302.901
302.876
302.925
302.947
302.944
302.895
302.913
302.969
302.92
302.869
302.866
302.801
302.712
302.695
302.651
340.293
341.186
342.089
342.989
343.778
344.427
345.014
345.385
345.653
345.818
345.827
345.667
345.509
345.12
344.556
343.882
343.26
342.386
341.471
340.71
334.799
335.506
336.336
337.079
337.861
338.352
338.803
339.142
339.517
339.552
339.7
339.503
339.353
338.992
338.572
338.044
337.438
336.686
335.895
335.253
329.447
330.024
330.652
331.353
331.934
332.406
332.867
333.074
333.281
333.428
333.482
333.458
333.25
332.947
332.601
332.115
331.494
331.028
330.293
329.711
324.027
324.575
325.019
325.622
326.057
326.443
326.761
327.059
327.143
327.32
327.33
327.272
327.18
326.939
326.543
326.26
325.812
325.36
324.824
324.373
318.626
319.024
319.458
319.845
320.207
320.424
320.824
321.009
321.121
321.125
321.213
321.155
321.057
320.872
320.76
320.38
320.052
319.689
319.251
318.891
313.275
313.595
313.877
314.153
314.469
314.625
314.861
314.953
315.066
315.084
315.134
315.168
315.105
314.935
314.793
314.633
314.319
314.047
313.755
313.521
308.013
308.17
308.301
308.508
308.57
308.789
308.865
309.007
309.127
309.073
309.082
309.073
309.027
308.992
308.837
308.81
308.628
308.39
308.258
308.107
302.69
302.767
302.745
302.808
302.924
302.981
302.992
302.981
303.057
303.058
303.022
303.031
302.974
302.998
302.98
302.881
302.914
302.837
302.78
302.643
341.278
342.237
343.188
344.077
344.868
345.563
346.184
346.595
346.804
347.031
347.049
346.938
346.712
346.32
345.739
345.162
344.421
343.519
342.587
341.684
335.708
336.464
337.242
338.121
338.801
339.351
339.866
340.268
340.466
340.638
340.616
340.596
340.284
340.054
339.662
339.098
338.359
337.648
336.895
336.092
330.162
330.823
331.451
332.203
332.781
333.237
333.723
333.971
334.164
334.249
334.386
334.267
334.031
333.88
333.469
333.025
332.454
331.851
331.191
330.546
324.743
325.232
325.77
326.275
326.753
327.237
327.495
327.715
327.948
328.061
328.036
327.962
327.852
327.624
327.328
326.952
326.502
325.987
325.448
325.049
319.121
319.51
319.952
320.347
320.721
321.11
321.38
321.506
321.665
321.781
321.729
321.7
321.598
321.496
321.17
320.962
320.615
320.188
319.848
319.402
313.727
313.907
314.21
314.521
314.808
315.025
315.245
315.363
315.457
315.523
315.536
315.552
315.472
315.364
315.153
314.942
314.717
314.438
314.113
313.868
308.179
308.384
308.579
308.74
308.902
309.052
309.137
309.227
309.228
309.335
309.273
309.305
309.185
309.218
309.082
308.957
308.802
308.734
308.562
308.367
302.742
302.737
302.876
302.935
302.948
303.063
303.123
303.128
303.113
303.148
303.091
303.064
303.157
303.104
303.015
303.068
302.906
302.874
302.867
302.801
342.202
343.153
344.151
345.127
345.985
346.699
347.311
347.698
347.951
348.182
348.202
348.049
347.879
347.415
346.883
346.316
345.544
344.616
343.618
342.81
336.515
337.358
338.211
338.996
339.695
340.321
340.805
341.213
341.526
341.632
341.62
341.566
341.378
341.025
340.627
340.038
339.372
338.639
337.868
337.043
330.841
331.488
332.162
332.875
333.507
334.02
334.468
334.728
335.058
335.151
335.122
335.132
334.984
334.622
334.313
333.853
333.296
332.651
331.946
331.329
325.261
325.62
326.309
326.843
327.41
327.76
328.147
328.396
328.564
328.709
328.724
328.7
328.542
328.401
328.019
327.674
327.221
326.658
326.143
325.627
319.573
319.977
320.377
320.846
321.192
321.622
321.863
322.082
322.286
322.399
322.336
322.245
322.154
322.017
321.835
321.493
321.14
320.672
320.224
319.902
313.996
314.242
314.543
314.963
315.144
315.438
315.585
315.738
315.829
315.922
315.953
315.881
315.86
315.632
315.566
315.357
315.041
314.765
314.498
314.258
308.375
308.583
308.715
308.951
309.111
309.286
309.316
309.488
309.435
309.558
309.572
309.567
309.475
309.419
309.39
309.195
309.072
308.818
308.744
308.512
302.866
302.868
302.958
302.956
303.055
303.093
303.155
303.173
303.153
303.198
303.161
303.233
303.187
303.143
303.082
303.044
303.065
302.928
302.934
302.903
343.213
344.066
345.098
346.132
346.883
347.627
348.316
348.75
349.133
349.243
349.272
349.154
348.945
348.592
348.039
347.399
346.575
345.62
344.691
343.749
337.366
338.088
339.032
339.811
340.543
341.158
341.713
342.128
342.393
342.546
342.603
342.504
342.354
342.017
341.597
341.013
340.234
339.487
338.655
337.91
331.439
332.09
332.906
333.649
334.215
334.808
335.223
335.528
335.823
335.881
335.966
335.965
335.727
335.462
335.129
334.564
334.06
333.37
332.66
332.087
325.718
326.245
326.849
327.407
327.923
328.377
328.763
328.966
329.235
329.399
329.414
329.294
329.235
328.918
328.653
328.338
327.836
327.239
326.697
326.205
319.947
320.316
320.846
321.299
321.651
322.089
322.289
322.601
322.706
322.802
322.82
322.779
322.7
322.446
322.245
322.004
321.534
321.287
320.753
320.37
314.269
314.504
314.817
315.238
315.466
315.734
315.922
316.029
316.178
316.248
316.3
316.231
316.121
316.12
315.887
315.667
315.422
315.104
314.875
314.619
308.59
308.737
308.901
309.14
309.306
309.366
309.584
309.674
309.755
309.812
309.739
309.745
309.691
309.644
309.574
309.452
309.257
309.086
308.813
308.617
302.859
302.948
303.029
303.097
303.081
303.181
303.192
303.182
303.256
303.355
303.262
303.255
303.289
303.239
303.218
303.114
303.17
303.031
302.984
302.911
343.962
344.953
345.982
346.963
347.837
348.671
349.189
349.653
350.101
350.24
350.32
350.157
349.914
349.495
349.041
348.323
347.526
346.58
345.484
344.66
338.048
338.846
339.799
340.68
341.356
342.022
342.608
342.964
343.277
343.428
343.491
343.399
343.112
342.867
342.42
341.81
341.139
340.32
339.496
338.657
332.071
332.77
333.546
334.278
334.844
335.415
335.92
336.228
336.579
336.662
336.723
336.592
336.427
336.138
335.792
335.362
334.684
334.089
333.336
332.688
326.206
326.748
327.381
327.961
328.529
328.957
329.327
329.591
329.785
329.992
329.958
329.897
329.844
329.574
329.278
328.81
328.367
327.81
327.294
326.691
320.387
320.777
321.287
321.704
322.152
322.466
322.796
322.956
323.238
323.314
323.293
323.273
323.077
322.988
322.716
322.391
322.029
321.631
321.189
320.798
314.507
314.851
315.155
315.464
315.783
316.016
316.227
316.433
316.575
316.629
316.617
316.591
316.49
316.438
316.263
315.982
315.738
315.397
315.107
314.816
308.718
308.883
309.015
309.29
309.476
309.672
309.74
309.894
309.922
309.985
309.913
309.901
309.831
309.844
309.705
309.588
309.415
309.23
309.14
308.931
302.898
303.028
303.082
303.098
303.204
303.237
303.264
303.303
303.337
303.295
303.3
303.405
303.304
303.316
303.205
303.214
303.15
303.144
303.033
302.999
344.724
345.724
346.741
347.747
348.616
349.516
350.091
350.63
350.974
351.149
351.181
351.125
350.789
350.487
349.812
349.216
348.382
347.535
346.442
345.501
338.669
339.423
340.423
341.287
342.099
342.666
343.363
343.725
344.057
344.255
344.266
344.231
343.963
343.622
343.148
342.594
341.903
341.063
340.209
339.393
332.595
333.302
334.198
334.821
335.528
336.127
336.519
336.814
337.237
337.315
337.356
337.387
337.16
336.901
336.42
336.03
335.399
334.741
333.848
333.312
326.664
327.185
327.909
328.403
329.035
329.51
329.886
330.207
330.366
330.566
330.532
330.48
330.392
330.105
329.681
329.369
328.965
328.346
327.724
327.271
320.656
321.161
321.588
322.105
322.502
322.856
323.285
323.395
323.585
323.716
323.708
323.64
323.544
323.349
323.207
322.865
322.397
321.987
321.642
321.197
314.747
315.076
315.449
315.77
316.016
316.383
316.593
316.706
316.789
316.841
316.906
316.843
316.812
316.67
316.539
316.328
316.103
315.753
315.341
315.187
308.935
309.073
309.234
309.446
309.652
309.807
309.925
309.966
310.14
310.135
310.126
310.176
310.103
310.022
309.952
309.785
309.625
309.416
309.25
309.084
302.918
302.939
303.147
303.183
303.197
303.294
303.317
303.427
303.388
303.382
303.376
303.44
303.387
303.345
303.32
303.265
303.158
303.147
303.078
303.027
345.411
346.377
347.476
348.526
349.485
350.205
350.893
351.407
351.8
352.013
352.002
351.901
351.717
351.312
350.747
350.062
349.172
348.3
347.229
346.246
339.224
340.094
341.068
341.886
342.657
343.467
343.992
344.453
344.78
344.892
344.946
344.977
344.712
344.349
343.895
343.272
342.691
341.743
340.918
340.084
333.077
333.828
334.622
335.327
336.067
336.675
337.142
337.554
337.782
337.932
337.925
337.923
337.745
337.458
336.985
336.542
336.061
335.296
334.588
333.935
327.03
327.643
328.326
328.804
329.444
329.949
330.353
330.621
330.859
330.968
330.995
331
330.799
330.633
330.22
329.878
329.395
328.835
328.242
327.661
320.993
321.451
321.951
322.42
322.839
323.196
323.524
323.763
323.892
324.092
324.028
324.134
323.954
323.827
323.488
323.28
322.893
322.374
321.956
321.539
315.049
315.343
315.675
316.044
316.35
316.607
316.773
316.94
317.097
317.164
317.188
317.152
317.108
316.973
316.773
316.564
316.367
316.006
315.715
315.306
309
309.17
309.387
309.616
309.835
309.923
310.09
310.118
310.307
310.353
310.357
310.296
310.238
310.21
310.08
309.929
309.704
309.623
309.398
309.228
303.024
303.071
303.126
303.196
303.308
303.358
303.402
303.354
303.409
303.432
303.454
303.422
303.407
303.437
303.405
303.328
303.316
303.169
303.128
303.112
345.983
346.943
348.052
349.219
350.152
350.931
351.609
352.103
352.484
352.69
352.735
352.688
352.414
351.965
351.434
350.736
349.939
348.948
347.922
346.913
339.724
340.594
341.557
342.506
343.269
344.061
344.632
345.059
345.362
345.579
345.608
345.52
345.341
344.962
344.521
343.916
343.173
342.364
341.341
340.64
333.5
334.306
335.081
335.857
336.565
337.19
337.616
338.04
338.327
338.462
338.483
338.438
338.286
338.014
337.589
337.103
336.541
335.765
335.038
334.332
327.38
327.967
328.647
329.247
329.895
330.353
330.715
331.021
331.272
331.394
331.392
331.4
331.233
330.982
330.76
330.322
329.8
329.225
328.621
328.071
321.313
321.71
322.304
322.739
323.151
323.606
323.857
324.095
324.271
324.347
324.419
324.384
324.302
324.106
323.922
323.474
323.184
322.667
322.289
321.821
315.206
315.5
315.821
316.217
316.572
316.755
316.98
317.227
317.349
317.406
317.448
317.437
317.331
317.229
317.063
316.822
316.499
316.283
315.862
315.602
309.13
309.29
309.53
309.709
309.989
310.109
310.242
310.327
310.499
310.476
310.436
310.423
310.387
310.366
310.261
310.098
309.924
309.798
309.514
309.409
303.071
303.104
303.231
303.286
303.372
303.374
303.453
303.469
303.537
303.505
303.52
303.522
303.472
303.392
303.436
303.378
303.347
303.236
303.267
303.101
346.454
347.492
348.619
349.776
350.619
351.493
352.152
352.693
353.071
353.315
353.351
353.286
353.06
352.676
352.052
351.416
350.563
349.597
348.45
347.443
340.198
341.04
342.05
342.978
343.772
344.559
345.099
345.583
345.9
346.1
346.189
346.1
345.93
345.52
345.067
344.389
343.624
342.866
341.913
341.121
333.889
334.598
335.477
336.229
337.002
337.561
338.108
338.399
338.751
338.902
338.998
338.899
338.762
338.378
338.029
337.546
336.963
336.248
335.451
334.732
327.76
328.239
328.975
329.621
330.187
330.599
331.045
331.393
331.695
331.75
331.837
331.789
331.644
331.389
331.144
330.6
330.224
329.599
328.984
328.431
321.544
321.962
322.549
322.962
323.404
323.743
324.098
324.366
324.549
324.677
324.709
324.718
324.573
324.474
324.094
323.835
323.489
323.003
322.482
322.107
315.389
315.645
316.046
316.368
316.68
317.023
317.226
317.412
317.612
317.609
317.681
317.662
317.607
317.378
317.229
317.068
316.686
316.453
316.095
315.811
309.281
309.427
309.67
309.853
310.04
310.195
310.335
310.488
310.561
310.567
310.659
310.597
310.531
310.401
310.274
310.204
309.989
309.881
309.673
309.509
303.034
303.115
303.247
303.303
303.341
303.475
303.428
303.437
303.482
303.53
303.562
303.579
303.484
303.471
303.4
303.457
303.344
303.336
303.314
303.243
346.891
347.89
349.101
350.232
351.163
351.901
352.679
353.258
353.538
353.8
353.798
353.858
353.529
353.146
352.602
351.889
350.99
349.991
348.998
347.917
340.512
341.377
342.401
343.326
344.17
344.897
345.517
345.936
346.388
346.511
346.586
346.515
346.273
345.979
345.542
344.883
344.11
343.294
342.331
341.472
334.261
334.892
335.792
336.555
337.312
337.877
338.474
338.825
339.154
339.246
339.379
339.277
339.191
338.875
338.459
337.854
337.31
336.586
335.808
335.111
327.923
328.52
329.175
329.849
330.488
330.93
331.302
331.703
331.979
332.085
332.143
332.125
331.99
331.697
331.411
330.958
330.483
329.872
329.286
328.739
321.752
322.132
322.706
323.271
323.615
324.09
324.364
324.644
324.88
324.885
324.944
324.958
324.796
324.692
324.416
324.066
323.689
323.222
322.702
322.305
315.439
315.766
316.215
316.544
316.909
317.173
317.359
317.579
317.709
317.79
317.842
317.768
317.725
317.546
317.393
317.184
316.904
316.643
316.287
315.953
309.276
309.487
309.741
309.95
310.101
310.319
310.397
310.544
310.659
310.665
310.674
310.656
310.674
310.62
310.481
310.332
310.13
309.952
309.787
309.54
303.157
303.174
303.222
303.421
303.423
303.442
303.543
303.534
303.577
303.617
303.601
303.523
303.593
303.472
303.558
303.451
303.448
303.356
303.244
303.226
347.139
348.16
349.399
350.503
351.59
352.294
353.077
353.55
353.971
354.208
354.236
354.235
354.04
353.572
352.989
352.222
351.448
350.397
349.326
348.36
340.707
341.724
342.591
343.62
344.457
345.262
345.892
346.329
346.623
346.83
346.952
346.887
346.726
346.346
345.886
345.19
344.41
343.579
342.75
341.819
334.424
335.205
336.048
336.798
337.595
338.185
338.667
339.108
339.363
339.582
339.578
339.627
339.418
339.108
338.735
338.234
337.58
336.902
336.094
335.387
328.161
328.752
329.396
330.051
330.636
331.24
331.591
331.919
332.14
332.341
332.332
332.315
332.196
331.952
331.616
331.233
330.703
330.156
329.442
328.945
321.943
322.302
322.855
323.349
323.844
324.156
324.57
324.781
324.98
325.075
325.104
325.051
325.017
324.804
324.608
324.266
323.892
323.422
322.933
322.535
315.577
315.957
316.313
316.605
317.015
317.253
317.53
317.744
317.795
317.974
317.973
317.858
317.83
317.687
317.564
317.251
317.053
316.68
316.391
316.081
309.328
309.609
309.741
310.003
310.204
310.393
310.505
310.58
310.775
310.727
310.731
310.799
310.697
310.657
310.535
310.418
310.209
310.09
309.856
309.632
303.15
303.206
303.297
303.397
303.417
303.473
303.48
303.534
303.581
303.635
303.602
303.612
303.551
303.509
303.553
303.487
303.431
303.355
303.272
303.226
347.235
348.356
349.576
350.695
351.717
352.621
353.245
353.835
354.229
354.475
354.52
354.463
354.163
353.813
353.218
352.561
351.661
350.652
349.57
348.572
340.854
341.714
342.859
343.842
344.718
345.442
346.014
346.451
346.789
347.096
347.183
347.139
346.88
346.551
346.098
345.425
344.658
343.812
342.888
342.028
334.629
335.201
336.178
336.991
337.668
338.371
338.941
339.317
339.536
339.712
339.843
339.742
339.598
339.325
338.891
338.413
337.765
337.026
336.286
335.527
328.221
328.818
329.507
330.204
330.77
331.292
331.668
332.018
332.351
332.454
332.572
332.448
332.323
332.137
331.78
331.343
330.811
330.204
329.588
329.037
321.92
322.368
322.928
323.416
323.912
324.252
324.688
324.877
325.087
325.23
325.274
325.206
325.104
324.92
324.677
324.334
323.928
323.51
323.04
322.63
315.606
315.957
316.354
316.756
317.015
317.409
317.587
317.786
317.9
317.997
318.002
318.001
317.899
317.776
317.65
317.394
317.1
316.767
316.448
316.114
309.424
309.587
309.795
310.033
310.206
310.411
310.52
310.675
310.828
310.744
310.826
310.769
310.764
310.696
310.59
310.511
310.314
310.108
309.827
309.691
303.13
303.276
303.287
303.385
303.441
303.474
303.521
303.5
303.619
303.576
303.583
303.654
303.646
303.539
303.514
303.501
303.422
303.37
303.365
303.334
)
;

boundaryField
{
    hotSide
    {
        type            fixedGradient;
        gradient        nonuniform List<scalar> 
400
(
321.511
322.87
325.591
329.677
335.133
341.965
350.181
359.788
370.794
383.208
397.037
412.289
428.971
447.088
466.647
487.651
510.105
534.011
559.372
586.191
323.738
325.08
327.767
331.802
337.194
343.949
352.078
361.591
372.498
384.81
398.537
413.687
430.268
448.289
467.755
488.672
511.043
534.872
560.161
586.913
326.149
327.47
330.116
334.091
339.406
346.071
354.099
363.503
374.296
386.491
400.101
415.136
431.606
449.52
468.885
489.706
511.988
535.735
560.948
587.63
328.704
330
332.597
336.503
341.73
348.292
356.205
365.485
376.15
388.215
401.695
416.604
432.954
450.753
470.009
490.73
512.919
536.579
561.714
588.325
331.33
332.599
335.142
338.97
344.099
350.546
358.332
367.477
378.003
389.928
403.271
418.047
434.27
451.949
471.095
491.712
513.807
537.382
562.439
588.978
333.918
335.158
337.643
341.389
346.414
352.74
360.392
369.397
379.779
391.562
404.765
419.407
435.503
453.065
472.101
492.618
514.622
538.114
563.096
589.569
336.321
337.531
339.959
343.622
348.544
354.751
362.274
371.142
381.385
393.031
406.101
420.618
436.595
454.047
472.983
493.409
515.33
538.747
563.663
590.076
338.36
339.543
341.92
345.509
350.339
356.44
363.847
372.595
382.718
394.244
407.2
421.608
437.485
454.844
473.695
494.045
515.897
539.253
564.114
590.478
339.852
341.015
343.352
346.885
351.645
357.665
364.985
373.643
383.675
395.113
407.984
422.312
438.116
455.407
474.197
494.491
516.294
539.606
564.428
590.758
340.643
341.795
344.11
347.613
352.334
358.311
365.584
374.193
384.176
395.567
408.393
422.679
438.443
455.699
474.456
494.722
516.498
539.788
564.589
590.901
340.643
341.795
344.11
347.613
352.334
358.311
365.584
374.193
384.176
395.567
408.393
422.679
438.443
455.699
474.456
494.722
516.498
539.788
564.589
590.901
339.852
341.015
343.352
346.885
351.645
357.665
364.985
373.643
383.675
395.113
407.984
422.312
438.116
455.407
474.197
494.491
516.294
539.606
564.428
590.758
338.36
339.543
341.92
345.509
350.339
356.44
363.847
372.595
382.718
394.244
407.2
421.608
437.485
454.844
473.695
494.045
515.897
539.253
564.114
590.478
336.321
337.531
339.959
343.622
348.544
354.751
362.274
371.142
381.385
393.031
406.101
420.618
436.595
454.047
472.983
493.409
515.33
538.747
563.663
590.076
333.918
335.158
337.643
341.389
346.414
352.74
360.392
369.397
379.779
391.562
404.765
419.407
435.503
453.065
472.101
492.618
514.622
538.114
563.096
589.569
331.33
332.599
335.142
338.97
344.099
350.546
358.332
367.477
378.003
389.928
403.271
418.047
434.27
451.949
471.095
491.712
513.807
537.382
562.439
588.978
328.704
330
332.597
336.503
341.73
348.292
356.205
365.485
376.15
388.215
401.695
416.604
432.954
450.753
470.009
490.73
512.919
536.579
561.714
588.325
326.149
327.47
330.116
334.091
339.406
346.071
354.099
363.503
374.296
386.491
400.101
415.136
431.606
449.52
468.885
489.706
511.988
535.735
560.948
587.63
323.738
325.08
327.767
331.802
337.194
343.949
352.078
361.591
372.498
384.81
398.537
413.687
430.268
448.289
467.755
488.672
511.043
534.872
560.161
586.913
321.511
322.87
325.591
329.677
335.133
341.965
350.181
359.788
370.794
383.208
397.037
412.289
428.971
447.088
466.647
487.651
510.105
534.011
559.372
586.191
)
;
    }
    coldSide
    {
        type            mixed;
        refValue        uniform 300;
        refGradient     uniform 0;
        valueFraction   uniform 0.991591;
        source          uniform 0;
        value           nonuniform List<scalar> 
400
(
300.017
300.018
300.018
300.019
300.02
300.021
300.022
300.022
300.023
300.023
300.024
300.024
300.024
300.025
300.025
300.026
300.026
300.027
300.026
300.026
300.018
300.018
300.019
300.02
300.02
300.021
300.022
300.022
300.023
300.023
300.024
300.025
300.025
300.025
300.026
300.026
300.026
300.027
300.027
300.028
300.018