/*--------------------------------*- C++ -*----------------------------------*\
| =========                 |                                                 |
| \\      /  F ield         | OpenFOAM: The Open Source CFD Toolbox           |
|  \\    /   O peration     | Version:  2212                                  |
|   \\  /    A nd           | Website:  www.openfoam.com                      |
|    \\/     M anipulation  |                                                 |
\*---------------------------------------------------------------------------*/
FoamFile
{
    version     2.0;
    format      ascii;
    arch        "LSB;label=32;scalar=64";
    class       volScalarField;
    location    "0";
    object      T;
}
// * * * * * * * * * * * * * * * * * * * * * * * * * * * * * * * * * * * * * //

dimensions      [0 0 0 1 0 0 0];

internalField   nonuniform List<scalar> 
3200
(
343.022
343.752
344.551
345.215
346.038
347.13
347.255
347.489
347.921
348.124
348.068
347.785
347.618
346.823
346.339
345.583
344.365
343.724
342.731
341.728
337.328
337.88
338.589
339.123
339.822
340.778
340.853
341.11
341.42
341.689
341.568
341.363
341.279
340.566
340.071
339.428
338.36
337.823
336.96
336.139
331.605
332.045
332.593
333.048
333.647
334.465
334.499
334.726
334.947
335.276
335.146
334.918
334.958
334.328
333.853
333.257
332.403
331.984
331.235
330.592
325.82
326.213
326.65
327.048
327.54
328.178
328.177
328.383
328.547
328.881
328.758
328.529
328.636
328.152
327.65
327.138
326.51
326.158
325.535
325.06
320.053
320.401
320.713
321.058
321.442
321.842
321.937
322.074
322.155
322.483
322.405
322.091
322.336
321.969
321.506
321.043
320.543
320.361
319.868
319.516
314.333
314.594
314.799
315.05
315.325
315.601
315.686
315.777
315.812
316.078
316.016
315.745
316.006
315.741
315.394
314.994
314.609
314.559
314.207
313.951
308.6
308.772
308.904
309.025
309.191
309.362
309.446
309.476
309.481
309.656
309.654
309.457
309.602
309.46
309.257
308.989
308.757
308.756
308.545
308.356
302.873
302.951
303.007
303.002
303.07
303.113
303.169
303.17
303.174
303.259
303.247
303.179
303.208
303.173
303.11
303.011
302.915
302.938
302.893
302.782
343.734
344.552
345.283
346.018
346.953
347.764
348.119
348.488
348.875
348.938
348.989
348.603
348.384
347.826
346.979
346.416
345.332
344.5
343.569
342.583
337.873
338.499
339.126
339.731
340.548
341.293
341.596
341.876
342.222
342.318
342.353
342.01
341.861
341.375
340.648
340.089
339.182
338.457
337.636
336.879
332.031
332.565
333.067
333.516
334.198
334.898
335.109
335.355
335.601
335.714
335.724
335.493
335.389
334.975
334.34
333.837
333.056
332.473
331.764
331.207
326.204
326.647
327.078
327.33
327.971
328.551
328.708
328.868
329.06
329.164
329.155
328.976
328.938
328.609
328.035
327.624
326.987
326.546
325.96
325.543
320.344
320.728
321.073
321.205
321.77
322.224
322.322
322.413
322.581
322.664
322.556
322.541
322.476
322.272
321.78
321.449
320.926
320.647
320.218
319.841
314.496
314.774
315.052
315.123
315.545
315.843
315.961
316.019
316.125
316.174
316.059
316.093
316.06
315.908
315.54
315.284
314.908
314.777
314.478
314.184
308.684
308.895
309.043
309.068
309.326
309.527
309.614
309.583
309.693
309.715
309.64
309.637
309.633
309.51
309.291
309.154
308.922
308.868
308.698
308.518
302.906
303.003
303.011
303.023
303.119
303.19
303.239
303.205
303.253
303.256
303.231
303.207
303.218
303.193
303.102
303.064
302.984
302.963
302.916
302.864
344.899
345.503
346.281
347.221
348.232
348.961
349.331
349.626
350.203
350.112
350.046
349.81
349.375
348.813
348.353
347.737
346.798
345.702
344.647
343.801
338.868
339.334
339.942
340.746
341.7
342.309
342.622
342.836
343.402
343.338
343.252
343.005
342.677
342.17
341.813
341.239
340.439
339.538
338.539
337.913
332.856
333.192
333.72
334.378
335.253
335.705
335.995
336.163
336.665
336.629
336.528
336.297
336.043
335.609
335.296
334.832
334.139
333.358
332.499
332.064
326.854
327.091
327.522
328.078
328.811
329.116
329.399
329.536
329.976
329.901
329.837
329.65
329.457
329.101
328.816
328.475
327.866
327.284
326.515
326.232
320.866
321.015
321.401
321.799
322.379
322.599
322.826
322.936
323.284
323.2
323.174
323.033
322.885
322.627
322.381
322.136
321.636
321.204
320.573
320.442
314.908
314.995
315.295
315.56
315.958
316.079
316.275
316.343
316.652
316.554
316.512
316.416
316.323
316.162
315.956
315.819
315.466
315.159
314.67
314.607
308.961
309.014
309.176
309.36
309.602
309.626
309.753
309.818
310.01
309.896
309.866
309.831
309.813
309.692
309.537
309.532
309.282
309.106
308.819
308.771
302.995
303.021
303.068
303.144
303.203
303.228
303.263
303.297
303.372
303.323
303.275
303.294
303.28
303.241
303.195
303.192
303.107
303.058
302.941
302.936
345.993
346.53
347.705
348.541
349.43
350.381
350.757
350.812
351.263
351.323
351.179
350.999
350.588
350.182
349.624
348.821
347.917
346.756
345.754
344.756
339.817
340.197
341.196
341.919
342.683
343.541
343.866
343.897
344.294
344.313
344.238
344.078
343.707
343.373
342.873
342.134
341.43
340.422
339.557
338.688
333.62
333.921
334.761
335.413
336
336.729
337.041
337.053
337.389
337.392
337.392
337.191
336.892
336.639
336.173
335.536
335.03
334.126
333.4
332.675
327.443
327.686
328.373
328.938
329.365
329.993
330.25
330.264
330.564
330.51
330.527
330.443
330.141
329.906
329.529
329.009
328.617
327.902
327.219
326.695
321.316
321.505
322.059
322.529
322.777
323.283
323.516
323.452
323.753
323.629
323.684
323.646
323.429
323.254
322.911
322.519
322.257
321.712
321.11
320.729
315.176
315.397
315.765
316.08
316.207
316.614
316.821
316.713
316.969
316.874
316.885
316.865
316.718
316.61
316.388
316.066
315.948
315.507
315.084
314.851
309.078
309.242
309.47
309.664
309.712
309.982
310.112
310.046
310.2
310.106
310.142
310.127
310.036
309.968
309.852
309.641
309.594
309.322
309.091
308.923
303.034
303.091
303.182
303.246
303.263
303.341
303.402
303.372
303.422
303.388
303.405
303.393
303.346
303.36
303.317
303.218
303.207
303.135
303.047
302.982
346.93
347.785
348.812
349.742
350.574
351.559
352.027
352.042
352.496
352.53
352.516
352.088
351.848
351.407
350.599
349.779
348.776
347.884
346.917
345.781
340.586
341.282
342.149
342.991
343.685
344.532
344.93
344.943
345.338
345.394
345.398
344.993
344.779
344.425
343.69
342.98
342.144
341.369
340.516
339.555
334.265
334.825
335.565
336.292
336.877
337.597
337.91
337.901
338.277
338.38
338.342
337.941
337.781
337.51
336.879
336.27
335.584
334.935
334.164
333.439
327.998
328.383
329.065
329.67
330.111
330.667
330.952
330.94
331.275
331.375
331.32
330.98
330.839
330.65
330.115
329.59
329.06
328.555
327.902
327.339
321.755
322.048
322.559
323.066
323.347
323.818
324.028
323.999
324.321
324.377
324.313
324.097
323.913
323.801
323.411
322.929
322.587
322.198
321.684
321.279
315.493
315.765
316.092
316.494
316.636
316.99
317.168
317.1
317.319
317.391
317.311
317.208
317.052
316.977
316.692
316.356
316.145
315.859
315.512
315.187
309.283
309.476
309.666
309.915
309.939
310.203
310.272
310.224
310.375
310.421
310.375
310.339
310.225
310.199
309.99
309.8
309.702
309.503
309.361
309.101
303.1
303.169
303.238
303.316
303.329
303.425
303.417
303.427
303.486
303.498
303.466
303.451
303.418
303.428
303.319
303.283
303.276
303.178
303.141
303.055
347.979
348.814
349.965
350.883
351.763
352.582
353.002
353.496
353.59
353.819
353.678
353.428
353.024
352.526
351.82
350.839
350.049
349.041
347.915
346.923
341.524
342.191
343.167
343.968
344.689
345.444
345.785
346.192
346.299
346.522
346.357
346.154
345.814
345.381
344.746
343.962
343.212
342.38
341.386
340.634
335.11
335.61
336.448
337.141
337.674
338.39
338.622
338.982
339.072
339.273
339.124
338.991
338.658
338.319
337.732
337.121
336.465
335.826
334.93
334.334
328.733
329.051
329.771
330.389
330.739
331.372
331.549
331.841
331.924
332.087
331.928
331.888
331.597
331.281
330.779
330.314
329.73
329.27
328.495
328.079
322.338
322.537
323.109
323.613
323.871
324.38
324.511
324.738
324.811
324.907
324.788
324.763
324.52
324.296
323.905
323.536
323.086
322.71
322.093
321.821
315.951
316.083
316.5
316.879
317.045
317.418
317.502
317.667
317.705
317.728
317.667
317.667
317.476
317.309
317.044
316.752
316.495
316.194
315.774
315.588
309.576
309.657
309.925
310.143
310.235
310.47
310.497
310.59
310.61
310.632
310.579
310.601
310.474
310.388
310.254
310.004
309.907
309.718
309.501
309.359
303.201
303.232
303.335
303.414
303.423
303.506
303.491
303.544
303.546
303.56
303.557
303.545
303.51
303.484
303.427
303.353
303.329
303.258
303.192
303.137
348.994
349.954
351.091
352.257
353.01
353.715
353.977
354.56
354.859
354.866
354.807
354.684
354.049
353.675
352.897
352.097
351.07
349.86
348.882
347.938
342.37
343.106
344.122
345.179
345.856
346.376
346.654
347.112
347.371
347.413
347.298
347.257
346.706
346.321
345.68
345.005
344.076
343.041
342.2
341.46
335.829
336.302
337.228
338.166
338.723
339.136
339.343
339.746
339.988
340.063
339.918
339.887
339.399
339.062
338.541
337.943
337.218
336.296
335.667
334.991
329.3
329.585
330.386
331.159
331.645
331.966
332.088
332.47
332.613
332.691
332.611
332.546
332.146
331.882
331.482
330.966
330.425
329.62
329.151
328.587
322.785
322.979
323.579
324.213
324.57
324.807
324.918
325.264
325.339
325.367
325.311
325.257
324.981
324.743
324.485
324.081
323.62
323.034
322.659
322.198
316.325
316.421
316.827
317.301
317.55
317.691
317.801
318.069
318.075
318.095
318.049
318.011
317.826
317.647
317.489
317.208
316.869
316.461
316.198
315.821
309.822
309.883
310.087
310.401
310.539
310.609
310.69
310.872
310.824
310.829
310.829
310.782
310.659
310.59
310.47
310.306
310.155
309.905
309.717
309.46
303.314
303.334
303.377
303.518
303.538
303.566
303.584
303.654
303.634
303.644
303.613
303.612
303.564
303.545
303.518
303.435
303.411
303.326
303.253
303.142
349.809
350.868
351.979
353.405
354.106
354.607
355.271
355.595
355.977
355.92
355.88
355.703
355.148
354.804
354.008
353.254
352.186
350.955
350.026
348.896
343.132
343.885
344.91
346.149
346.752
347.185
347.747
348.024
348.346
348.356
348.264
348.133
347.619
347.357
346.687
345.996
345.068
343.995
343.288
342.263
336.475
337.008
337.924
338.916
339.446
339.862
340.247
340.513
340.793
340.844
340.731
340.61
340.179
339.957
339.424
338.805
338.071
337.13
336.578
335.705
329.815
330.211
330.938
331.743
332.217
332.579
332.843
333.097
333.323
333.367
333.257
333.112
332.757
332.597
332.156
331.67
331.1
330.299
329.9
329.166
323.156
323.481
323.997
324.655
325.007
325.281
325.47
325.714
325.893
325.894
325.874
325.724
325.39
325.273
324.963
324.597
324.135
323.543
323.25
322.66
316.576
316.745
317.14
317.594
317.844
318.058
318.171
318.389
318.471
318.499
318.472
318.345
318.112
317.993
317.776
317.567
317.196
316.767
316.633
316.203
309.957
310.041
310.247
310.563
310.694
310.853
310.906
311.019
311.136
311.089
311.108
311.029
310.892
310.801
310.634
310.56
310.302
310.03
309.994
309.739
303.361
303.355
303.42
303.556
303.581
303.639
303.641
303.707
303.733
303.695
303.707
303.699
303.635
303.614
303.574
303.543
303.449
303.364
303.347
303.281
350.758
351.882
353.047
354.176
354.894
355.68
356.355
356.9
356.769
356.852
357.047
356.654
356.141
355.848
354.988
354.046
353.015
352.042
350.912
349.727
343.889
344.833
345.819
346.864
347.436
348.076
348.683
349.175
349.058
349.056
349.298
348.917
348.466
348.269
347.469
346.664
345.803
344.958
343.978
342.974
337.047
337.872
338.666
339.608
340.054
340.563
341.057
341.498
341.441
341.361
341.644
341.288
340.875
340.746
340.058
339.391
338.656
337.96
337.119
336.309
330.309
330.932
331.571
332.405
332.722
333.093
333.564
333.891
333.839
333.738
334.02
333.747
333.363
333.215
332.71
332.233
331.591
331.019
330.327
329.657
323.569
324.035
324.513
325.182
325.469
325.676
326.071
326.318
326.315
326.198
326.41
326.181
325.891
325.75
325.426
325.076
324.535
324.079
323.546
323.046
316.909
317.173
317.476
317.979
318.223
318.338
318.613
318.807
318.766
318.688
318.845
318.69
318.444
318.387
318.156
317.908
317.537
317.208
316.792
316.446
310.153
310.316
310.461
310.796
310.956
311.023
311.188
311.3
311.264
311.205
311.35
311.218
311.066
310.997
310.888
310.787
310.545
310.329
310.089
309.87
303.417
303.461
303.497
303.611
303.67
303.695
303.754
303.773
303.769
303.741
303.817
303.754
303.701
303.693
303.624
303.616
303.542
303.473
303.381
303.305
351.567
352.653
353.958
354.991
355.77
356.634
357.15
357.699
357.983
357.872
357.913
357.753
357.182
356.784
356.052
355.066
354.047
352.887
351.696
350.677
344.585
345.459
346.627
347.568
348.187
348.896
349.38
349.837
350.037
350.001
350.037
349.852
349.414
349.082
348.415
347.594
346.675
345.671
344.68
343.795
337.686
338.314
339.366
340.191
340.704
341.249
341.662
342.073
342.235
342.181
342.224
342.079
341.722
341.474
340.838
340.182
339.395
338.55
337.76
336.963
330.802
331.268
332.145
332.848
333.296
333.663
334.043
334.378
334.47
334.38
334.499
334.368
334.064
333.822
333.355
332.824
332.148
331.517
330.894
330.196
323.93
324.268
324.968
325.539
325.856
326.119
326.475
326.745
326.784
326.666
326.79
326.671
326.436
326.268
325.925
325.505
324.986
324.486
324.05
323.456
317.102
317.29
317.845
318.247
318.482
318.655
318.888
319.083
319.133
319.006
319.11
319.005
318.887
318.775
318.489
318.22
317.802
317.464
317.188
316.741
310.262
310.333
310.699
310.934
311.109
311.161
311.327
311.487
311.494
311.398
311.496
311.395
311.357
311.269
311.08
310.955
310.676
310.478
310.289
310.066
303.444
303.445
303.592
303.654
303.704
303.751
303.787
303.843
303.882
303.813
303.855
303.817
303.811
303.77
303.726
303.666
303.584
303.509
303.439
303.377
352.39
353.306
354.643
355.935
356.571
357.324
357.826
358.304
358.763
358.483
358.813
358.262
357.671
357.432
356.652
355.939
354.862
353.543
352.135
351.309
345.349
346.046
347.247
348.346
348.868
349.524
349.942
350.357
350.778
350.551
350.798
350.313
349.778
349.624
348.905
348.34
347.361
346.262
345.042
344.364
338.355
338.839
339.906
340.758
341.269
341.811
342.172
342.511
342.9
342.652
342.867
342.434
341.986
341.85
341.23
340.809
339.964
339.075
338.066
337.435
331.328
331.743
332.631
333.247
333.752
334.158
334.421
334.704
335.027
334.839
334.998
334.648
334.264
334.147
333.641
333.314
332.633
331.897
331.119
330.594
324.297
324.684
325.382
325.832
326.264
326.538
326.725
326.949
327.219
327.063
327.175
326.907
326.623
326.516
326.1
325.875
325.345
324.77
324.243
323.787
317.331
317.661
318.102
318.434
318.744
318.94
319.078
319.224
319.424
319.318
319.43
319.173
319.037
318.95
318.627
318.46
318.062
317.689
317.372
316.972
310.395
310.623
310.866
311.057
311.235
311.384
311.446
311.523
311.644
311.577
311.701
311.502
311.433
311.377
311.186
311.059
310.813
310.638
310.439
310.183
303.486
303.563
303.663
303.706
303.772
303.812
303.842
303.868
303.901
303.885
303.93
303.85
303.822
303.805
303.763
303.696
303.623
303.578
303.513
303.414
353.315
353.939
355.158
356.467
357.351
358.04
358.554
359.107
359.55
359.515
359.447
359.139
358.694
358.185
357.403
356.644
355.435
354.205
352.935
351.984
346.141
346.632
347.681
348.764
349.538
350.114
350.599
351.057
351.435
351.415
351.344
351.071
350.711
350.239
349.533
348.932
347.874
346.837
345.753
344.961
338.972
339.416
340.282
341.129
341.778
342.291
342.721
343.082
343.428
343.36
343.289
343.067
342.809
342.349
341.802
341.334
340.431
339.531
338.671
337.951
331.854
332.232
332.915
333.529
334.105
334.545
334.875
335.139
335.475
335.381
335.324
335.122
335
334.569
334.125
333.778
333.02
332.274
331.61
331.016
324.796
325.087
325.576
326.035
326.469
326.851
327.076
327.267
327.578
327.452
327.437
327.243
327.198
326.845
326.486
326.209
325.637
325.03
324.59
324.106
317.71
317.964
318.245
318.598
318.886
319.183
319.278
319.444
319.704
319.566
319.614
319.432
319.416
319.151
318.889
318.679
318.292
317.761
317.565
317.225
310.636
310.823
310.947
311.158
311.361
311.501
311.524
311.65
311.822
311.74
311.81
311.671
311.672
311.485
311.323
311.201
310.992
310.613
310.549
310.323
303.572
303.636
303.654
303.742
303.822
303.86
303.826
303.928
303.957
303.958
303.968
303.92
303.914
303.848
303.8
303.764
303.677
303.547
303.542
303.445
353.627
354.62
355.828
356.978
357.871
358.754
359.426
359.607
360.222
360.142
360.157
359.809
359.243
358.683
358.317
357.028
356.179
354.819
353.515
352.335
346.431
347.198
348.267
349.262
350.005
350.796
351.336
351.484
352.054
351.952
352.02
351.666
351.196
350.705
350.328
349.251
348.481
347.333
346.242
345.246
339.191
339.866
340.762
341.59
342.242
342.902
343.309
343.42
343.996
343.844
343.915
343.517
343.215
342.752
342.424
341.583
340.865
339.926
339.059
338.235
332.024
332.555
333.257
333.984
334.491
335.038
335.349
335.402
335.954
335.772
335.851
335.492
335.269
334.862
334.526
333.972
333.327
332.579
331.929
331.28
324.926
325.302
325.835
326.426
326.772
327.207
327.446
327.456
327.954
327.793
327.829
327.526
327.383
327.087
326.769
326.411
325.914
325.255
324.824
324.323
317.836
318.082
318.422
318.872
319.113
319.409
319.576
319.577
319.924
319.806
319.843
319.623
319.52
319.371
319.063
318.822
318.521
317.973
317.738
317.409
310.774
310.868
311.048
311.31
311.472
311.657
311.769
311.717
311.912
311.877
311.868
311.781
311.681
311.625
311.406
311.259
311.097
310.773
310.663
310.426
303.599
303.653
303.718
303.777
303.834
303.906
303.94
303.925
304.001
303.984
303.967
303.957
303.93
303.883
303.815
303.76
303.702
303.599
303.571
303.491
353.943
355.012
356.452
357.47
358.237
359.441
359.688
360.257
360.457
360.65
360.754
360.394
359.843
359.39
358.852
357.569
356.627
355.236
353.919
352.805
346.667
347.547
348.841
349.651
350.305
351.375
351.549
352.063
352.241
352.382
352.498
352.157
351.685
351.318
350.839
349.755
348.924
347.683
346.538
345.665
339.437
340.137
341.284
341.955
342.486
343.346
343.53
343.907
344.134
344.186
344.333
344.014
343.588
343.318
342.949
341.998
341.304
340.218
339.303
338.6
332.246
332.782
333.716
334.302
334.739
335.375
335.547
335.861
336.086
336.087
336.205
335.961
335.577
335.358
335.059
334.286
333.746
332.819
332.085
331.527
325.102
325.432
326.241
326.649
327.003
327.456
327.588
327.869
328.003
328.021
328.1
327.912
327.647
327.47
327.198
326.643
326.226
325.472
324.906
324.482
317.962
318.155
318.736
319.028
319.274
319.599
319.639
319.909
319.969
320.018
320.06
319.935
319.749
319.618
319.406
319.018
318.745
318.161
317.791
317.488
310.798
310.894
311.24
311.399
311.581
311.778
311.776
311.969
311.995
312.049
312.046
312.006
311.858
311.78
311.661
311.451
311.279
310.874
310.696
310.497
303.618
303.655
303.775
303.818
303.867
303.943
303.942
304.002
304.013
304.05
304.018
304.04
303.969
303.948
303.895
303.832
303.787
303.612
303.602
303.509
354.466
355.509
356.746
357.814
358.754
359.638
360.215
360.623
360.944
361.065
361.3
360.841
360.393
359.705
359.162
358.062
356.938
355.646
354.503
353.152
347.071
347.95
349.058
349.981
350.747
351.54
352.043
352.395
352.655
352.735
352.913
352.569
352.196
351.597
351.125
350.15
349.157
348.041
347.053
345.985
339.739
340.47
341.411
342.223
342.821
343.48
343.935
344.201
344.46
344.547
344.619
344.351
344.103
343.599
343.207
342.406
341.499
340.532
339.667
338.888
332.466
333.039
333.825
334.483
334.926
335.478
335.872
336.124
336.323
336.454
336.409
336.216
336.06
335.689
335.309
334.693
333.924
333.098
332.357
331.789
325.216
325.657
326.285
326.788
327.086
327.553
327.88
328.056
328.196
328.328
328.287
328.11
328.049
327.743
327.413
326.982
326.361
325.687
325.111
324.722
318.023
318.281
318.765
319.131
319.31
319.675
319.926
320.043
320.154
320.226
320.191
320.028
320.041
319.766
319.551
319.319
318.807
318.335
317.934
317.652
310.829
310.95
311.305
311.472
311.594
311.814
311.97
312.035
312.11
312.166
312.127
312.022
312.035
311.854
311.722
311.625
311.292
311.015
310.753
310.598
303.646
303.698
303.793
303.854
303.881
303.957
304.007
304.024
304.061
304.071
304.073
304.016
304.037
303.972
303.926
303.885
303.786
303.674
303.593
303.544
354.643
355.795
357.066
358.141
359.127
359.921
360.733
360.93
361.282
361.474
361.481
361.185
360.914
360.138
359.558
358.65
357.424
356.075
354.9
353.527
347.27
348.231
349.306
350.214
351.066
351.782
352.454
352.606
352.955
353.073
353.115
352.847
352.646
351.956
351.495
350.695
349.592
348.475
347.418
346.262
339.942
340.753
341.669
342.371
343.085
343.728
344.251
344.402
344.738
344.787
344.811
344.621
344.439
343.848
343.466
342.814
341.854
340.894
340.011
339.087
332.635
333.297
334.021
334.621
335.134
335.697
336.124
336.261
336.546
336.568
336.601
336.482
336.296
335.822
335.521
334.992
334.15
333.371
332.682
331.921
325.347
325.853
326.412
326.891
327.211
327.709
328.058
328.17
328.421
328.435
328.412
328.323
328.193
327.875
327.643
327.191
326.473
325.901
325.378
324.799
318.112
318.419
318.86
319.208
319.401
319.73
320.038
320.087
320.304
320.308
320.27
320.215
320.127
319.912
319.809
319.413
318.873
318.47
318.117
317.692
310.878
311.043
311.32
311.534
311.648
311.826
312.007
312.067
312.207
312.182
312.144
312.104
312.097
311.942
311.936
311.667
311.303
311.106
310.872
310.623
303.659
303.702
303.808
303.869
303.903
303.956
304.029
304.046
304.112
304.065
304.069
304.051
304.053
303.998
304.012
303.899
303.777
303.724
303.646
303.58
354.75
356.178
357.38
358.372
359.384
360.192
361.05
361.355
361.725
361.722
361.823
361.414
361.094
360.474
359.773
358.946
357.362
356.339
355.079
353.821
347.347
348.517
349.575
350.415
351.321
352.008
352.733
353.005
353.344
353.341
353.427
353.051
352.802
352.216
351.619
350.912
349.535
348.663
347.6
346.5
339.991
340.963
341.855
342.551
343.308
343.897
344.469
344.759
345.082
345.027
345.102
344.814
344.577
344.061
343.563
342.902
341.83
341.053
340.188
339.245
332.69
333.435
334.249
334.757
335.387
335.806
336.268
336.561
336.825
336.76
336.828
336.658
336.378
335.968
335.569
334.987
334.148
333.524
332.845
332.017
325.424
325.943
326.66
326.996
327.456
327.772
328.182
328.385
328.577
328.517
328.628
328.492
328.223
327.989
327.669
327.173
326.529
326.046
325.539
324.844
318.199
318.501
319.065
319.304
319.59
319.821
320.115
320.242
320.399
320.362
320.458
320.336
320.112
320.041
319.783
319.389
318.94
318.606
318.233
317.683
310.958
311.072
311.448
311.604
311.775
311.893
312.08
312.144
312.244
312.227
312.281
312.206
312.047
312.057
311.924
311.646
311.363
311.178
310.949
310.577
303.671
303.72
303.839
303.9
303.946
303.996
304.051
304.065
304.099
304.112
304.118
304.087
304.042
304.039
303.988
303.909
303.815
303.738
303.652
303.534
354.813
356.302
357.614
358.603
359.329
360.359
361.168
361.462
361.732
361.914
361.691
361.545
361.05
360.684
359.796
358.942
357.767
356.434
354.968
354.037
347.372
348.656
349.805
350.68
351.272
352.151
352.874
353.094
353.315
353.438
353.291
353.139
352.722
352.392
351.648
350.937
349.878
348.817
347.488
346.678
340.025
341.05
342.053
342.833
343.309
343.986
344.634
344.777
344.996
345.095
344.988
344.859
344.496
344.208
343.531
342.982
342.095
341.26
340.088
339.354
332.719
333.52
334.351
335.021
335.381
335.908
336.437
336.561
336.775
336.771
336.754
336.634
336.334
336.15
335.547
335.055
334.399
333.701
332.756
332.092
325.436
326.053
326.667
327.197
327.496
327.901
328.294
328.386
328.596
328.52
328.54
328.455
328.25
328.121
327.634
327.186
326.733
326.194
325.431
324.888
318.186
318.586
319.004
319.429
319.641
319.928
320.197
320.204
320.433
320.33
320.359
320.328
320.177
320.139
319.729
319.361
319.066
318.711
318.189
317.735
310.937
311.14
311.397
311.647
311.764
311.997
312.109
312.114
312.268
312.194
312.192
312.224
312.108
312.074
311.827
311.612
311.428
311.202
310.957
310.642
303.658
303.731
303.81
303.892
303.938
304.026
304.059
304.075
304.122
304.096
304.075
304.081
304.073
304.04
303.954
303.888
303.832
303.756
303.671
303.562
354.771
356.174
357.477
358.511
359.47
360.279
361.137
361.311
361.868
362.188
361.945
361.659
361.172
360.636
359.99
358.9
357.863
356.651
355.27
354.038
347.351
348.559
349.702
350.566
351.376
352.116
352.819
353
353.468
353.751
353.498
353.218
352.858
352.399
351.789
350.948
349.954
349.027
347.716
346.709
340.045
341.053
341.941
342.674
343.414
344.031
344.583
344.741
345.191
345.377
345.134
344.897
344.621
344.25
343.72
343.05
342.167
341.407
340.279
339.416
332.764
333.577
334.231
334.849
335.484
336.032
336.399
336.56
336.926
337.048
336.864
336.67
336.424
336.187
335.749
335.131
334.435
333.785
332.897
332.166
325.481
326.111
326.573
327.07
327.563
328.018
328.298
328.404
328.713
328.805
328.639
328.487
328.293
328.156
327.786
327.279
326.773
326.249
325.554
324.948
318.194
318.624
318.907
319.294
319.722
320.001
320.207
320.265
320.529
320.564
320.468
320.344
320.178
320.123
319.863
319.457
319.103
318.731
318.273
317.76
310.905
311.18
311.317
311.57
311.891
312.006
312.149
312.143
312.335
312.376
312.266
312.273
312.093
312.095
311.899
311.662
311.451
311.244
311.01
310.645
303.645
303.741
303.8
303.878
303.992
304.015
304.071
304.053
304.147
304.156
304.116
304.1
304.07
304.06
303.981
303.906
303.848
303.762
303.69
303.545
354.891
356.166
357.208
358.445
359.558
360.152
361.003
361.514
361.997
362.245
361.876
361.715
361.373
360.785
360.035
358.893
357.755
356.796
355.278
353.709
347.508
348.601
349.487
350.462
351.478
351.96
352.721
353.139
353.579
353.822
353.447
353.327
353.053
352.505
351.844
350.871
349.949
349.092
347.783
346.378
340.158
341.082
341.815
342.559
343.478
343.862
344.488
344.844
345.2
345.494
345.104
344.986
344.767
344.31
343.761
342.907
342.233
341.439
340.383
339.143
332.85
333.584
334.193
334.671
335.492
335.81
336.349
336.616
336.901
337.212
336.783
336.731
336.527
336.182
335.693
335.026
334.556
333.831
332.994
331.956
325.557
326.131
326.605
326.886
327.585
327.822
328.233
328.407
328.64
328.918
328.56
328.558
328.345
328.136
327.723
327.235
326.857
326.261
325.616
324.802
318.253
318.685
318.991
319.176
319.723
319.833
320.177
320.285
320.416
320.694
320.348
320.406
320.253
320.104
319.764
319.407
319.164
318.716
318.28
317.689
310.971
311.225
311.39
311.514
311.846
311.876
312.122
312.167
312.26
312.435
312.191
312.284
312.173
312.074
311.846
311.646
311.509
311.2
310.994
310.627
303.664
303.771
303.826
303.864
303.947
303.978
304.075
304.073
304.115
304.168
304.074
304.119
304.091
304.023
303.977
303.903
303.872
303.749
303.697
303.572
)
;

boundaryField
{
    hotSide
    {
        type            fixedGradient;
        gradient        nonuniform List<scalar> 
400
(
461.141
474.738
487.91
500.597
512.742
524.289
535.183
545.37
554.8
563.427
571.206
578.097
584.063
589.074
593.101
596.123
598.122
599.087
599.011
597.893
473.226
487.221
500.781
513.846
526.356
538.253
549.481
559.984
569.712
578.616
586.649
593.771
599.943
605.134
609.315
612.463
614.56
615.594
615.557
614.45
484.045
498.401
512.315
525.723
538.565
550.782
562.314
573.107
583.107
592.264
600.531
607.865
614.228
619.586
623.911
627.177
629.366
630.467
630.471
629.377
493.535
508.213
522.441
536.155
549.295
561.797
573.603
584.656
594.9
604.285
612.763
620.29
626.826
632.337
636.792
640.167
642.444
643.608
643.652
642.575
501.64
516.598
531.1
545.082
558.481
571.234
583.279
594.56
605.02
614.606
623.27
630.968
637.658
643.305
647.878
651.352
653.708
654.932
655.015
653.957
508.317
523.511
538.246
552.455
566.073
579.038
591.288
602.763
613.407
623.166
631.991
639.835
646.658
652.424
657.101
660.663
663.09
664.369
664.49
663.452
513.533
528.919
543.841
558.234
572.032
585.17
597.587
609.221
620.016
629.918
638.875
646.842
653.777
659.643
664.407
668.045
670.535
671.862
672.019
671.003
517.266
532.796
547.862
562.394
576.329
589.6
602.145
613.902
624.815
634.827
643.889
651.952
658.976
664.922
669.758
673.457
676
677.37
677.559
676.566
519.502
535.129
550.291
564.919
578.946
592.309
604.942
616.786
627.78
637.871
647.007
655.141
662.229
668.235
673.125
676.873
679.457
680.863
681.082
680.11
520.236
535.912
551.123
565.8
579.877
593.288
605.97
617.861
628.903
639.039
648.22
656.396
663.524
669.568
674.495
678.276
680.892
682.326
682.57
681.62
519.472
535.149
550.361
565.041
579.123
592.54
605.23
617.131
628.183
638.331
647.525
655.715
662.86
668.921
673.865
677.665
680.3
681.754
682.019
681.091
517.221
532.849
548.015
562.653
576.695
590.076
602.733
614.604
625.631
635.758
644.934
653.111
660.246
666.302
671.245
675.049
677.691
679.158
679.438
678.53
513.502
529.033
544.107
558.656
572.614
585.916
598.5
610.303
621.268
631.34
640.468
648.603
655.704
661.733
666.657
670.448
673.087
674.556
674.848
673.959
508.341
523.728
538.663
553.078
566.909
580.09
592.56
604.258
615.126
625.11
634.158
642.224
649.266
655.246
660.132
663.896
666.519
667.983
668.282
667.41
501.773
516.969
531.719
545.956
559.616
572.636
584.953
596.509
607.244
617.107
626.047
634.017
640.975
646.885
651.715
655.437
658.032
659.483
659.783
658.928
493.837
508.798
523.318
537.335
550.784
563.602
575.729
587.105
597.675
607.386
616.187
624.034
630.886
636.705
641.461
645.127
647.682
649.113
649.409
648.569
484.584
499.265
513.515
527.269
540.466
553.045
564.944
576.107
586.478
596.006
604.642
612.341
619.063
624.772
629.437
633.033
635.539
636.94
637.229
636.402
474.07
488.43
502.368
515.821
528.729
541.03
552.668
563.584
573.726
583.043
591.487
599.014
605.584
611.164
615.723
619.235
621.681
623.046
623.323
622.509
462.361
476.36
489.948
503.062
515.644
527.635
538.978
549.617
559.5
568.578
576.805
584.137
590.537
595.97
600.407
603.823
606.2
607.523
607.785
606.982
449.528
463.131
476.333
489.074
501.297
512.945
523.962
534.295
543.893
552.707
560.694
567.811
574.021
579.291
583.592
586.902
589.201
590.476
590.719
589.928
)
;
    }
    coldSide
    {
        type            mixed;
        refValue        uniform 300;
        refGradient     uniform 0;
        valueFraction   uniform 0.991591;
        source          uniform 0;
        value           nonuniform List<scalar> 
400
(
300.024
300.024
300.025
300.026
300.026
300.027
300.028
300.028
300.029
300.029
300.029
300.03
300.03
300.03
300.031
300.031
300.031
300.031
300.031
300.031
300.025
300.025
300.025
300.026
300.027
300.027
300.028
300.028
300.029
300.029
300.03
300.031
300.031
300.031
300.031
300.031
300.031