/*--------------------------------*- C++ -*----------------------------------*\
| =========                 |                                                 |
| \\      /  F ield         | OpenFOAM: The Open Source CFD Toolbox           |
|  \\    /   O peration     | Version:  2212                                  |
|   \\  /    A nd           | Website:  www.openfoam.com                      |
|    \\/     M anipulation  |                                                 |
\*---------------------------------------------------------------------------*/
FoamFile
{
    version     2.0;
    format      ascii;
    arch        "LSB;label=32;scalar=64";
    class       volScalarField;
    location    "0";
    object      stateMean;
}
// * * * * * * * * * * * * * * * * * * * * * * * * * * * * * * * * * * * * * //

dimensions      [0 0 0 1 0 0 0];

internalField   nonuniform List<scalar> 
3200
(
347.578
348.454
349.411
350.262
351.089
351.643
352.179
352.47
352.648
352.76
352.624
352.345
351.942
351.408
350.82
350.017
349.105
348.007
346.998
345.984
341.266
342.1
342.871
343.654
344.441
344.897
345.347
345.636
345.777
345.804
345.786
345.527
345.186
344.765
344.182
343.566
342.753
341.731
340.878
340.009
335.056
335.768
336.404
337.046
337.675
338.11
338.427
338.732
338.848
338.943
338.85
338.629
338.368
337.941
337.567
336.898
336.211
335.541
334.707
333.983
328.796
329.317
329.836
330.332
330.909
331.265
331.573
331.744
331.882
331.887
331.884
331.727
331.543
331.197
330.807
330.34
329.813
329.106
328.45
327.968
322.475
322.794
323.32
323.732
324.08
324.414
324.605
324.739
324.815
324.959
324.789
324.773
324.542
324.303
323.963
323.584
323.141
322.722
322.258
321.739
316.121
316.27
316.68
316.992
317.194
317.48
317.6
317.639
317.761
317.787
317.772
317.679
317.608
317.446
317.237
316.877
316.643
316.264
315.916
315.593
309.701
309.818
310.007
310.218
310.284
310.492
310.627
310.614
310.687
310.765
310.748
310.684
310.583
310.492
310.345
310.143
309.936
309.758
309.517
309.358
303.22
303.273
303.368
303.429
303.501
303.525
303.566
303.49
303.609
303.526
303.561
303.632
303.555
303.508
303.41
303.418
303.399
303.231
303.208
303.137
348.549
349.577
350.512
351.506
352.221
352.898
353.445
353.725
353.883
353.943
353.928
353.603
353.203
352.7
352.05
351.185
350.271
349.184
348.12
347.089
342.187
343.052
343.894
344.629
345.39
345.899
346.332
346.648
346.843
346.895
346.747
346.633
346.217
345.752
345.209
344.432
343.617
342.744
341.836
340.919
335.783
336.412
337.095
337.854
338.431
338.921
339.253
339.524
339.718
339.74
339.68
339.477
339.147
338.789
338.298
337.764
337.078
336.28
335.454
334.771
329.337
329.847
330.502
331.007
331.516
331.91
332.224
332.427
332.56
332.601
332.568
332.363
332.155
331.837
331.408
330.954
330.371
329.664
329.098
328.524
322.875
323.281
323.717
324.12
324.492
324.778
325.051
325.234
325.379
325.399
325.306
325.251
325.062
324.845
324.495
324.129
323.657
323.138
322.685
322.257
316.333
316.598
316.964
317.333
317.546
317.759
317.964
318.094
318.081
318.184
318.126
318.072
317.896
317.724
317.52
317.32
317.012
316.562
316.195
315.866
309.87
309.986
310.181
310.382
310.544
310.727
310.786
310.848
310.988
310.924
310.927
310.815
310.786
310.677
310.548
310.332
310.177
309.963
309.77
309.637
303.294
303.319
303.419
303.473
303.56
303.554
303.63
303.642
303.612
303.7
303.683
303.588
303.636
303.596
303.588
303.496
303.461
303.326
303.294
303.254
350.028
350.94
352.017
353.009
353.811
354.562
354.967
355.399
355.615
355.643
355.523
355.319
354.889
354.305
353.644
352.787
351.815
350.812
349.547
348.6
343.504
344.22
345.152
345.918
346.704
347.277
347.7
348.013
348.248
348.314
348.206
347.924
347.659
347.162
346.544
345.853
345.03
344.037
343.097
342.223
336.84
337.528
338.304
338.886
339.509
340.032
340.404
340.712
340.913
340.923
340.861
340.631
340.372
340.027
339.402
338.862
338.138
337.316
336.512
335.856
330.22
330.67
331.33
331.9
332.406
332.812
333.127
333.369
333.565
333.409
333.471
333.336
333.143
332.781
332.342
331.853
331.334
330.633
329.914
329.371
323.512
323.927
324.364
324.837
325.237
325.477
325.8
325.982
326.098
326.09
326.073
325.944
325.732
325.465
325.199
324.771
324.322
323.89
323.321
322.858
316.859
317.102
317.467
317.767
318.042
318.324
318.434
318.506
318.688
318.67
318.71
318.537
318.449
318.254
318.019
317.727
317.39
317.049
316.663
316.403
310.082
310.238
310.46
310.625
310.824
310.96
311.105
311.199
311.242
311.23
311.27
311.136
311.07
311.063
310.869
310.758
310.488
310.282
310.014
309.879
303.355
303.429
303.486
303.601
303.592
303.722
303.681
303.758
303.697
303.831
303.717
303.748
303.706
303.675
303.694
303.599
303.496
303.391
303.354
303.296
351.607
352.576
353.609
354.714
355.521
356.199
356.781
357.157
357.34
357.397
357.283
356.996
356.661
356.138
355.421
354.467
353.534
352.393
351.195
350.11
344.854
345.66
346.517
347.447
348.232
348.734
349.274
349.651
349.796
349.806
349.725
349.61
349.117
348.696
348.057
347.35
346.438
345.472
344.487
343.525
337.965
338.625
339.461
340.179
340.836
341.362
341.706
341.999
342.17
342.208
342.185
341.926
341.652
341.294
340.688
340.126
339.358
338.579
337.699
336.941
331.05
331.632
332.278
332.877
333.44
333.792
334.118
334.4
334.545
334.609
334.519
334.462
334.168
333.798
333.345
332.851
332.283
331.531
330.852
330.309
324.245
324.614
325.106
325.555
326.013
326.306
326.622
326.811
326.961
326.933
326.85
326.727
326.542
326.275
325.993
325.559
325.083
324.557
324.067
323.654
317.316
317.616
317.946
318.278
318.611
318.767
318.949
319.199
319.174
319.241
319.207
319.203
319.065
318.869
318.511
318.3
317.955
317.6
317.146
316.882
310.377
310.609
310.843
310.952
311.142
311.33
311.46
311.554
311.535
311.547
311.518
311.528
311.459
311.286
311.24
311.01
310.83
310.531
310.415
310.143
303.478
303.558
303.579
303.717
303.774
303.773
303.841
303.869
303.907
303.845
303.85
303.847
303.826
303.789
303.794
303.696
303.586
303.515
303.451
303.384
353.051
354.154
355.305
356.367
357.273
357.919
358.473
358.916
359.191
359.162
359.083
358.874
358.439
357.836
357.13
356.274
355.197
354.061
352.771
351.753
346.13
346.986
347.995
348.829
349.588
350.304
350.801
351.113
351.261
351.383
351.283
351.055
350.727
350.188
349.573
348.843
347.907
346.939
345.848
344.91
339.104
339.808
340.618
341.359
341.984
342.573
342.961
343.215
343.442
343.493
343.425
343.264
342.973
342.563
342.029
341.376
340.57
339.787
338.849
338.124
332.037
332.628
333.224
333.91
334.432
334.775
335.192
335.453
335.571
335.626
335.606
335.42
335.198
334.849
334.445
333.912
333.305
332.586
331.935
331.271
324.944
325.36
325.87
326.39
326.838
327.174
327.317
327.623
327.67
327.736
327.749
327.596
327.416
327.108
326.768
326.342
325.904
325.423
324.816
324.359
317.809
318.175
318.515
318.878
319.176
319.476
319.545
319.725
319.83
319.845
319.792
319.778
319.606
319.412
319.136
318.817
318.552
318.17
317.795
317.409
310.69
310.874
311.092
311.275
311.522
311.6
311.823
311.788
311.891
311.924
311.981
311.905
311.773
311.608
311.465
311.264
311.12
310.91
310.682
310.52
303.57
303.681
303.692
303.791
303.826
303.894
303.95
304.008
303.919
304.047
303.956
303.926
303.953
303.909
303.845
303.778
303.715
303.732
303.543
303.461
354.653
355.685
356.865
357.909
358.824
359.686
360.234
360.689
360.912
360.949
360.885
360.738
360.223
359.556
358.837
357.903
356.858
355.694
354.417
353.335
347.423
348.319
349.299
350.161
351.044
351.704
352.25
352.636
352.894
352.857
352.874
352.562
352.266
351.763
351.114
350.32
349.353
348.401
347.321
346.286
340.21
340.944
341.775
342.538
343.217
343.816
344.303
344.626
344.749
344.817
344.766
344.574
344.223
343.808
343.307
342.61
341.808
340.973
340.053
339.271
332.892
333.518
334.257
334.802
335.359
335.882
336.192
336.44
336.624
336.767
336.643
336.42
336.232
335.843
335.43
334.949
334.3
333.573
332.803
332.153
325.694
326.079
326.613
327.061
327.569
327.934
328.173
328.422
328.51
328.555
328.483
328.354
328.239
327.923
327.63
327.168
326.709
326.11
325.562
325.094
318.338
318.602
319.08
319.402
319.726
320.02
320.174
320.296
320.428
320.475
320.406
320.276
320.138
319.943
319.697
319.433
319.044
318.726
318.308
317.904
311.024
311.185
311.462
311.659
311.83
312.008
312.138
312.204
312.287
312.277
312.235
312.232
312.105
312.021
311.853
311.668
311.457
311.269
311.055
310.75
303.688
303.759
303.845
303.952
303.993
303.993
304.045
304.167
304.085
304.114
304.202
304.134
304.027
304.049
304.019
303.98
303.911
303.736
303.648
303.643
356.107
357.187
358.372
359.559
360.511
361.29
361.89
362.355
362.673
362.707
362.602
362.294
361.896
361.29
360.522
359.614
358.49
357.277
355.961
354.765
348.676
349.608
350.703
351.585
352.488
353.168
353.7
354.045
354.346
354.401
354.403
354.132
353.741
353.17
352.542
351.697
350.789
349.76
348.592
347.557
341.234
342.025
342.9
343.717
344.437
345.061
345.517
345.774
346.059
346.064
346.006
345.834
345.541
345.07
344.551
343.827
343.042
342.092
341.169
340.48
333.841
334.458
335.166
335.84
336.295
336.836
337.187
337.452
337.697
337.804
337.678
337.553
337.308
336.958
336.471
335.899
335.221
334.434
333.705
333.058
326.325
326.777
327.348
327.867
328.343
328.758
329.016
329.175
329.381
329.365
329.281
329.261
328.961
328.687
328.29
327.937
327.487
326.915
326.308
325.809
318.86
319.165
319.596
319.973
320.235
320.482
320.785
320.846
321.066
321.03
320.954
320.898
320.769
320.478
320.286
319.955
319.576
319.243
318.774
318.4
311.336
311.476
311.762
311.973
312.158
312.259
312.497
312.598
312.625
312.595
312.616
312.561
312.47
312.3
312.191
311.959
311.8
311.524
311.347
311.082
303.829
303.852
304.011
303.992
304.099
304.098
304.238
304.196
304.256
304.229
304.227
304.211
304.201
304.11
304.135
304.036
303.967
303.912
303.76
303.622
357.608
358.66
359.899
361.028
362.063
362.887
363.513
363.986
364.273
364.422
364.285
363.978
363.589
362.958
362.089
361.158
360.009
358.85
357.441
356.18
349.938
350.941
351.95
352.927
353.773
354.531
355.06
355.546
355.65
355.799
355.776
355.557
355.169
354.584
353.916
353.137
352.079
351.049
349.914
348.867
342.253
343.119
343.999
344.83
345.646
346.182
346.68
347.029
347.172
347.274
347.181
347.116
346.676
346.206
345.74
344.946
344.128
343.273
342.245
341.432
334.675
335.244
336.01
336.743
337.356
337.909
338.21
338.483
338.637
338.717
338.678
338.552
338.246
337.909
337.372
336.843
336.11
335.419
334.555
333.999
326.923
327.528
328.01
328.66
329.106
329.478
329.764
329.975
330.083
330.1
330.083
329.977
329.777
329.478
329.171
328.623
328.145
327.604
326.942
326.377
319.298
319.662
319.996
320.371
320.774
321.076
321.298
321.447
321.596
321.583
321.571
321.458
321.32
321.151
320.852
320.485
320.158
319.714
319.293
318.887
311.543
311.775
312.011
312.278
312.475
312.658
312.829
312.864
312.916
312.963
312.934
312.872
312.804
312.727
312.457
312.312
312.145
311.819
311.539
311.372
303.916
303.927
304.025
304.029
304.159
304.271
304.187
304.397
304.331
304.356
304.324
304.311
304.224
304.254
304.246
304.125
304.079
303.946
303.903
303.848
358.888
360.033
361.321
362.454
363.546
364.386
365.019
365.511
365.814
365.855
365.848
365.568
365.154
364.414
363.656
362.715
361.552
360.23
358.885
357.632
351.186
352.122
353.156
354.226
355.039
355.784
356.4
356.837
357.116
357.162
357.066
356.845
356.537
355.943
355.23
354.458
353.384
352.251
351.124
350.071
343.28
344.078
344.948
345.925
346.586
347.208
347.864
348.125
348.404
348.424
348.39
348.096
347.805
347.318
346.841
346.076
345.199
344.297
343.298
342.472
335.464
336.105
336.853
337.588
338.161
338.723
339.098
339.371
339.569
339.685
339.671
339.43
339.199
338.794
338.32
337.777
337.144
336.261
335.459
334.725
327.556
328.118
328.658
329.291
329.711
330.149
330.439
330.69
330.819
330.916
330.854
330.758
330.484
330.246
329.794
329.433
328.851
328.251
327.691
327.13
319.766
320.082
320.532
320.915
321.254
321.489
321.816
321.905
322.12
322.066
322.021
321.982
321.885
321.583
321.331
320.991
320.598
320.142
319.725
319.337
311.821
311.998
312.282
312.589
312.737
312.975
313.112
313.235
313.284
313.242
313.288
313.226
313.141
313.033
312.873
312.665
312.375
312.069
311.774
311.615
304.019
304.033
304.057
304.241
304.178
304.312
304.406
304.394
304.421
304.5
304.502
304.371
304.361
304.318
304.231
304.266
304.128
304.014
303.968
303.892
360.142
361.332
362.709
363.865
364.914
365.753
366.475
366.901
367.262
367.429
367.223
367.035
366.561
365.949
365.037
364.091
362.911
361.643
360.208
358.933
352.196
353.216
354.302
355.378
356.322
357.04
357.666
358.081
358.427
358.478
358.415
358.148
357.799
357.232
356.482
355.619
354.653
353.483
352.228
351.16
344.244
344.978
346.031
346.974
347.685
348.216
348.82
349.179
349.464
349.483
349.461
349.259
348.938
348.471
347.881
347.13
346.257
345.324
344.307
343.353
336.11
336.918
337.667
338.384
339.049
339.525
339.988
340.287
340.424
340.524
340.467
340.345
340.124
339.632
339.148
338.594
337.973
337.133
336.217
335.603
328.213
328.665
329.29
329.85
330.391
330.721
331.098
331.353
331.515
331.559
331.55
331.441
331.162
330.931
330.481
330.014
329.499
328.876
328.225
327.752
320.162
320.466
320.963
321.355
321.741
321.975
322.296
322.367
322.526
322.611
322.542
322.438
322.353
322.128
321.819
321.473
321.053
320.602
320.153
319.909
312.128
312.338
312.635
312.819
313.038
313.292
313.371
313.512
313.536
313.566
313.575
313.488
313.436
313.272
313.108
312.9
312.673
312.419
312.066
311.861
304.065
304.183
304.187
304.276
304.379
304.439
304.514
304.568
304.508
304.544
304.519
304.575
304.469
304.51
304.341
304.335
304.199
304.193
304.092
304.026
361.266
362.461
363.872
365.121
366.19
367.103
367.791
368.267
368.646
368.729
368.644
368.392
367.922
367.271
366.422
365.446
364.254
362.881
361.413
360.132
353.177
354.243
355.376
356.439
357.396
358.218
358.784
359.242
359.524
359.59
359.597
359.313
358.95
358.368
357.642
356.687
355.745
354.55
353.32
352.208
345.027
345.889
346.907
347.842
348.571
349.228
349.763
350.193
350.345
350.473
350.454
350.211
349.869
349.459
348.885
348.125
347.222
346.225
345.228
344.279
336.799
337.558
338.333
339.164
339.789
340.337
340.733
341.089
341.137
341.27
341.3
341.11
340.85
340.517
340.003
339.423
338.773
337.83
337.012
336.317
328.771
329.247
329.872
330.483
330.953
331.353
331.643
331.954
332.09
332.201
332.16
332.064
331.777
331.545
331.082
330.662
330.199
329.426
328.818
328.248
320.551
320.965
321.317
321.859
322.098
322.385
322.727
322.757
322.869
323.065
322.977
322.902
322.737
322.602
322.275
321.939
321.519
321.05
320.62
320.25
312.383
312.587
312.875
313.017
313.355
313.509
313.642
313.728
313.789
313.768
313.808
313.777
313.678
313.604
313.33
313.114
312.925
312.663
312.336
312.163
304.131
304.188
304.299
304.381
304.443
304.508
304.562
304.578
304.587
304.594
304.631
304.591
304.595
304.506
304.428
304.427
304.296
304.303
304.113
304.091
362.379
363.696
365.011
366.295
367.444
368.275
369.038
369.548
369.961
370.082
369.865
369.682
369.252
368.525
367.749
366.686
365.485
364.092
362.592
361.336
354.095
355.132
356.381
357.441
358.424
359.216
359.825
360.35
360.513
360.764
360.685
360.398
360.031
359.464
358.757
357.846
356.763
355.717
354.317
353.194
345.804
346.758
347.776
348.659
349.442
350.192
350.636
351.074
351.309
351.471
351.379
351.205
350.859
350.365
349.726
348.997
348.114
347.073
346.056
345.1
337.502
338.256
339.02
339.74
340.429
341.089
341.42
341.803
342.097
342.079
342.072
341.964
341.671
341.213
340.724
340.16
339.42
338.541
337.637
336.997
329.21
329.746
330.361
331.039
331.572
331.993
332.316
332.539
332.72
332.768
332.725
332.659
332.428
332.152
331.676
331.221
330.728
330.023
329.403
328.869
320.961
321.24
321.725
322.119
322.51
322.822
323.091
323.29
323.338
323.411
323.373
323.331
323.199
322.911
322.626
322.348
322.025
321.429
320.926
320.609
312.539
312.797
313.025
313.288
313.509
313.748
313.906
313.967
314.091
314.009
314.047
314.013
313.951
313.819
313.576
313.392
313.129
312.922
312.641
312.403
304.234
304.263
304.333
304.476
304.555
304.519
304.645
304.704
304.707
304.737
304.639
304.704
304.688
304.62
304.605
304.549
304.473
304.269
304.253
304.158
363.293
364.598
366.01
367.312
368.456
369.403
370.137
370.661
370.999
371.204
371.103
370.853
370.394
369.709
368.786
367.754
366.483
365.09
363.643
362.231
354.966
356.042
357.241
358.346
359.335
360.215
360.825
361.301
361.611
361.731
361.696
361.456
361.058
360.516
359.67
358.791
357.737
356.45
355.269
354.099
346.556
347.508
348.449
349.478
350.201
350.95
351.506
351.892
352.125
352.313
352.199
352.107
351.708
351.222
350.528
349.76
348.948
347.91
346.776
345.831
338.101
338.829
339.657
340.45
341.183
341.686
342.15
342.502
342.629
342.807
342.821
342.623
342.369
341.944
341.359
340.77
340
339.141
338.304
337.613
329.637
330.262
330.901
331.513
331.969
332.431
332.788
333.059
333.278
333.353
333.257
333.177
332.973
332.695
332.224
331.72
331.19
330.483
329.832
329.305
321.224
321.614
322.098
322.495
322.858
323.209
323.428
323.552
323.789
323.819
323.84
323.748
323.541
323.241
323.051
322.705
322.284
321.791
321.355
320.937
312.783
312.904
313.21
313.548
313.71
313.955
314.125
314.176
314.284
314.364
314.271
314.257
314.166
314.04
313.842
313.653
313.271
313.11
312.847
312.578
304.267
304.407
304.456
304.543
304.654
304.64
304.726
304.813
304.804
304.846
304.792
304.794
304.808
304.697
304.619
304.626
304.487
304.388
304.281
304.252
364.17
365.501
366.961
368.257
369.432
370.368
371.134
371.705
372.142
372.246
372.123
371.895
371.327
370.684
369.865
368.839
367.527
366.069
364.511
363.185
355.657
356.77
358.014
359.171
360.176
361.002
361.659
362.203
362.459
362.664
362.562
362.311
362.006
361.372
360.577
359.626
358.534
357.36
356.017
354.924
347.147
348.116
349.041
350.131
350.924
351.661
352.259
352.581
352.853
352.998
352.961
352.778
352.46
351.96
351.308
350.481
349.62
348.583
347.484
346.562
338.637
339.3
340.189
340.952
341.682
342.306
342.784
343.101
343.37
343.433
343.352
343.245
342.935
342.529
341.975
341.376
340.606
339.756
338.88
338.184
330.065
330.673
331.323
331.886
332.46
332.957
333.275
333.56
333.669
333.771
333.763
333.63
333.374
333.172
332.769
332.243
331.633
330.969
330.227
329.685
321.496
321.892
322.342
322.814
323.217
323.551
323.793
324.013
324.062
324.16
324.101
324.085
323.917
323.677
323.347
322.983
322.633
322.13
321.682
321.337
312.908
313.145
313.457
313.717
313.957
314.138
314.249
314.393
314.435
314.505
314.548
314.457
314.353
314.242
314.028
313.824
313.592
313.269
313.026
312.798
304.374
304.444
304.513
304.617
304.663
304.764
304.819
304.871
304.847
304.858
304.894
304.833
304.774
304.805
304.721
304.584
304.527
304.414
304.335
304.312
364.977
366.23
367.748
369.035
370.23
371.224
372.074
372.55
372.911
373.072
373.054
372.746
372.271
371.584
370.785
369.689
368.388
366.986
365.441
364.038
356.286
357.487
358.791
359.911
360.953
361.761
362.447
362.939
363.267
363.396
363.339
363.145
362.74
362.123
361.413
360.494
359.288
358.116
356.737
355.542
347.716
348.643
349.701
350.602
351.607
352.27
352.831
353.296
353.517
353.73
353.602
353.502
353.068
352.611
351.993
351.164
350.266
349.192
348.105
347.201
339.044
339.809
340.697
341.484
342.142
342.861
343.235
343.68
343.839
343.947
343.956
343.755
343.476
343.087
342.545
341.952
341.085
340.298
339.416
338.605
330.4
330.995
331.623
332.28
332.868
333.265
333.68
333.947
334.083
334.219
334.166
334.073
333.888
333.534
333.202
332.578
332.021
331.338
330.684
330.123
321.746
322.153
322.644
323.088
323.443
323.801
324.092
324.25
324.362
324.497
324.397
324.328
324.188
323.965
323.719
323.336
322.906
322.398
321.907
321.513
313.086
313.289
313.63
313.847
314.154
314.256
314.406
314.556
314.7
314.73
314.644
314.687
314.492
314.49
314.183
314.015
313.851
313.476
313.132
312.905
304.392
304.536
304.579
304.649
304.753
304.826
304.819
304.875
304.994
304.98
304.92
304.825
304.859
304.795
304.788
304.666
304.569
304.516
304.426
304.378
365.616
366.95
368.379
369.789
370.99
371.995
372.77
373.431
373.731
373.886
373.787
373.559
373.111
372.416
371.491
370.462
369.137
367.646
366.117
364.75
356.902
357.993
359.301
360.531
361.572
362.425
363.097
363.641
363.896
364.159
364.067
363.856
363.428
362.799
362.079
361.043
359.975
358.76
357.383
356.256
348.188
349.063
350.216
351.232
352.107
352.819
353.483
353.806
354.185
354.285
354.211
354.012
353.6
353.224
352.507
351.719
350.751
349.732
348.634
347.638
339.424
340.164
341.108
342.003
342.626
343.215
343.686
344.085
344.307
344.4
344.428
344.249
343.922
343.572
342.968
342.418
341.64
340.697
339.819
339.017
330.711
331.255
331.975
332.661
333.16
333.619
334.049
334.329
334.485
334.547
334.537
334.428
334.208
333.932
333.421
332.959
332.405
331.694
331.043
330.42
321.942
322.295
322.849
323.248
323.698
324.063
324.394
324.554
324.604
324.722
324.707
324.605
324.464
324.195
323.892
323.561
323.153
322.72
322.144
321.726
313.26
313.358
313.721
314.053
314.255
314.425
314.592
314.711
314.784
314.828
314.849
314.735
314.732
314.565
314.414
314.183
313.907
313.613
313.26
313.046
304.405
304.533
304.547
304.688
304.761
304.766
304.865
304.915
304.986
304.997
305.006
304.978
304.925
304.873
304.861
304.776
304.682
304.592
304.524
304.415
366.168
367.511
368.97
370.341
371.583
372.625
373.422
374.066
374.387
374.501
374.493
374.224
373.726
373.065
372.213
371.068
369.788
368.286
366.756
365.4
357.359
358.488
359.821
361.006
362.097
362.97
363.62
364.229
364.523
364.69
364.697
364.371
363.861
363.365
362.627
361.598
360.49
359.216
357.879
356.662
348.508
349.613
350.539
351.693
352.479
353.317
353.849
354.372
354.652
354.718
354.695
354.587
354.181
353.694
353.016
352.12
351.254
350.231
349.063
348.081
339.791
340.533
341.429
342.29
342.939
343.627
344.074
344.469
344.743
344.855
344.795
344.645
344.362
343.917
343.393
342.727
341.945
341.096
340.185
339.376
330.956
331.576
332.249
332.87
333.458
333.946
334.325
334.648
334.751
334.837
334.908
334.685
334.515
334.126
333.71
333.267
332.672
331.959
331.273
330.651
322.044
322.545
323.066
323.47
323.874
324.28
324.491
324.674
324.875
324.962
324.918
324.821
324.702
324.386
324.126
323.822
323.32
322.829
322.505
321.952
313.315
313.547
313.822
314.14
314.387
314.602
314.798
314.839
314.928
314.998
314.927
314.886
314.929
314.702
314.46
314.253
313.972
313.756
313.392
313.187
304.41
304.5
304.68
304.714
304.81
304.834
304.981
305.043
304.987
305.062
305.057
304.987
304.951
304.955
304.836
304.789
304.676
304.565
304.51
304.418
366.505
367.939
369.4
370.852
372.043
373.076
373.885
374.56
374.911
375.013
374.973
374.716
374.258
373.557
372.652
371.509
370.221
368.741
367.188
365.769
357.732
358.839
360.204
361.451
362.467
363.349
364.085
364.569
364.934
365.074
365.018
364.874
364.335
363.779
363.115
361.997
360.969
359.692
358.265
357.106
348.896
349.738
350.986
351.98
352.892
353.557
354.212
354.68
354.961
355.093
355.11
354.967
354.54
354.032
353.394
352.475
351.612
350.489
349.384
348.428
339.966
340.78
341.661
342.568
343.273
343.922
344.487
344.688
345.023
345.138
345.094
344.96
344.685
344.198
343.73
343.057
342.191
341.36
340.445
339.652
331.183
331.701
332.462
333.091
333.634
334.131
334.607
334.86
334.988
335.079
335.076
334.97
334.699
334.414
334.079
333.528
332.941
332.236
331.531
330.932
322.238
322.696
323.205
323.634
323.993
324.474
324.672
324.886
325.05
325.12
325.054
324.974
324.844
324.598
324.277
323.964
323.507
323.052
322.483
322.041
313.375
313.572
313.851
314.228
314.484
314.604
314.851
314.992
315.107
315.044
315.102
315
314.921
314.741
314.606
314.397
314.206
313.844
313.559
313.251
304.441
304.575
304.653
304.768
304.896
304.934
304.976
305.056
305.021
305.11
305.043
305.039
304.981
305.039
304.874
304.806
304.749
304.658
304.588
304.463
366.733
368.162
369.625
371.171
372.411
373.392
374.249
374.815
375.236
375.444
375.382
375.16
374.634
373.902
373.114
371.905
370.645
369.115
367.534
366.113
357.999
359.088
360.429
361.689
362.73
363.631
364.3
364.941
365.231
365.405
365.338
365.175
364.786
364.13
363.38
362.387
361.207
359.907
358.565
357.381
349.088
350.04
351.097
352.19
353.074
353.886
354.457
354.99
355.363
355.407
355.353
355.214
354.779
354.282
353.671
352.89
351.917
350.789
349.676
348.641
340.21
341
341.812
342.728
343.452
344.07
344.579
344.988
345.208
345.319
345.291
345.178
344.821
344.43
343.893
343.225
342.448
341.631
340.68
339.929
331.205
331.876
332.588
333.268
333.809
334.397
334.729
334.942
335.189
335.271
335.23
335.153
334.873
334.57
334.189
333.641
333.057
332.385
331.603
331.056
322.395
322.793
323.301
323.814
324.179
324.558
324.865
324.993
325.166
325.228
325.175
325.138
324.984
324.751
324.464
324.04
323.617
323.062
322.649
322.232
313.406
313.682
314.033
314.223
314.495
314.716
314.961
314.997
315.095
315.156
315.197
315.127
315.008
314.8
314.709
314.452
314.157
313.929
313.583
313.328
304.418
304.631
304.693
304.759
304.883
304.957
305.039
305.036
305.054
305.064
305.102
305.05
305.06
304.989
304.917
304.849
304.731
304.71
304.558
304.585
366.872
368.378
369.879
371.329
372.511
373.532
374.327
374.973
375.427
375.611
375.544
375.32
374.842
374.107
373.267
372.098
370.839
369.316
367.72
366.247
358.069
359.22
360.582
361.871
362.89
363.847
364.561
365.115
365.414
365.613
365.607
365.291
364.83
364.283
363.536
362.474
361.434
360.124
358.763
357.655
349.199
350.124
351.271
352.336
353.202
354.022
354.617
355.067
355.415
355.467
355.504
355.278
354.949
354.415
353.823
352.879
351.964
351.016
349.781
348.823
340.259
341.116
341.942
342.793
343.52
344.146
344.721
345.074
345.354
345.466
345.447
345.267
344.928
344.531
343.986
343.339
342.555
341.654
340.704
340.007
331.357
331.96
332.737
333.262
333.92
334.348
334.801
335.089
335.296
335.346
335.307
335.184
335.001
334.697
334.222
333.746
333.12
332.418
331.784
331.171
322.401
322.833
323.327
323.869
324.191
324.604
324.832
325.127
325.154
325.276
325.24
325.223
325.077
324.732
324.476
324.106
323.732
323.231
322.671
322.212
313.478
313.683
314.061
314.277
314.613
314.795
315.003
315.063
315.132
315.152
315.172
315.146
314.995
314.868
314.725
314.475
314.281
313.922
313.594
313.373
304.553
304.693
304.712
304.786
304.86
304.988
305.027
305.002
305.08
305.069
305.085
305.04
305.03
305.017
304.943
304.826
304.763
304.657
304.54
304.489
)
;

boundaryField
{
    hotSide
    {
        type            fixedGradient;
        gradient        nonuniform List<scalar> 
400
(
321.511
322.87
325.591
329.677
335.133
341.965
350.181
359.788
370.794
383.208
397.037
412.289
428.971
447.088
466.647
487.651
510.105
534.011
559.372
586.191
323.738
325.08
327.767
331.802
337.194
343.949
352.078
361.591
372.498
384.81
398.537
413.687
430.268
448.289
467.755
488.672
511.043
534.872
560.161
586.913
326.149
327.47
330.116
334.091
339.406
346.071
354.099
363.503
374.296
386.491
400.101
415.136
431.606
449.52
468.885
489.706
511.988
535.735
560.948
587.63
328.704
330
332.597
336.503
341.73
348.292
356.205
365.485
376.15
388.215
401.695
416.604
432.954
450.753
470.009
490.73
512.919
536.579
561.714
588.325
331.33
332.599
335.142
338.97
344.099
350.546
358.332
367.477
378.003
389.928
403.271
418.047
434.27
451.949
471.095
491.712
513.807
537.382
562.439
588.978
333.918
335.158
337.643
341.389
346.414
352.74
360.392
369.397
379.779
391.562
404.765
419.407
435.503
453.065
472.101
492.618
514.622
538.114
563.096
589.569
336.321
337.531
339.959
343.622
348.544
354.751
362.274
371.142
381.385
393.031
406.101
420.618
436.595
454.047
472.983
493.409
515.33
538.747
563.663
590.076
338.36
339.543
341.92
345.509
350.339
356.44
363.847
372.595
382.718
394.244
407.2
421.608
437.485
454.844
473.695
494.045
515.897
539.253
564.114
590.478
339.852
341.015
343.352
346.885
351.645
357.665
364.985
373.643
383.675
395.113
407.984
422.312
438.116
455.407
474.197
494.491
516.294
539.606
564.428
590.758
340.643
341.795
344.11
347.613
352.334
358.311
365.584
374.193
384.176
395.567
408.393
422.679
438.443
455.699
474.456
494.722
516.498
539.788
564.589
590.901
340.643
341.795
344.11
347.613
352.334
358.311
365.584
374.193
384.176
395.567
408.393
422.679
438.443
455.699
474.456
494.722
516.498
539.788
564.589
590.901
339.852
341.015
343.352
346.885
351.645
357.665
364.985
373.643
383.675
395.113
407.984
422.312
438.116
455.407
474.197
494.491
516.294
539.606
564.428
590.758
338.36
339.543
341.92
345.509
350.339
356.44
363.847
372.595
382.718
394.244
407.2
421.608
437.485
454.844
473.695
494.045
515.897
539.253
564.114
590.478
336.321
337.531
339.959
343.622
348.544
354.751
362.274
371.142
381.385
393.031
406.101
420.618
436.595
454.047
472.983
493.409
515.33
538.747
563.663
590.076
333.918
335.158
337.643
341.389
346.414
352.74
360.392
369.397
379.779
391.562
404.765
419.407
435.503
453.065
472.101
492.618
514.622
538.114
563.096
589.569
331.33
332.599
335.142
338.97
344.099
350.546
358.332
367.477
378.003
389.928
403.271
418.047
434.27
451.949
471.095
491.712
513.807
537.382
562.439
588.978
328.704
330
332.597
336.503
341.73
348.292
356.205
365.485
376.15
388.215
401.695
416.604
432.954
450.753
470.009
490.73
512.919
536.579
561.714
588.325
326.149
327.47
330.116
334.091
339.406
346.071
354.099
363.503
374.296
386.491
400.101
415.136
431.606
449.52
468.885
489.706
511.988
535.735
560.948
587.63
323.738
325.08
327.767
331.802
337.194
343.949
352.078
361.591
372.498
384.81
398.537
413.687
430.268
448.289
467.755
488.672
511.043
534.872
560.161
586.913
321.511
322.87
325.591
329.677
335.133
341.965
350.181
359.788
370.794
383.208
397.037
412.289
428.971
447.088
466.647
487.651
510.105
534.011
559.372
586.191
)
;
    }
    coldSide
    {
        type            mixed;
        refValue        uniform 300;
        refGradient     uniform 0;
        valueFraction   uniform 0.991591;
        source          uniform 0;
        value           nonuniform List<scalar> 
400
(
300.027
300.028
300.028
300.029
300.03
300.031
300.032
300.033
300.034
300.034
300.035
300.036
300.036
300.037
300.037
300.037
300.037
300.037
300.037
300.038
300.028
300.028
300.029
300.03
300.031
300.032
300.032
300.033
300.034
300.035
300.035
300.036
300.037
300.037
300.038
300.038
300.038
300.038
300.039
300.039