/*--------------------------------*- C++ -*----------------------------------*\
| =========                 |                                                 |
| \\      /  F ield         | OpenFOAM: The Open Source CFD Toolbox           |
|  \\    /   O peration     | Version:  2212                                  |
|   \\  /    A nd           | Website:  www.openfoam.com                      |
|    \\/     M anipulation  |                                                 |
\*---------------------------------------------------------------------------*/
FoamFile
{
    version     2.0;
    format      ascii;
    arch        "LSB;label=32;scalar=64";
    class       volScalarField;
    location    "./ITHACAoutput/true/8";
    object      error;
}
// * * * * * * * * * * * * * * * * * * * * * * * * * * * * * * * * * * * * * //

dimensions      [0 0 0 1 0 0 0];

internalField   nonuniform List<scalar> 
3200
(
-5.63519
-3.64984
-1.62936
-0.396335
0.470615
0.939467
1.23391
1.35006
1.35941
1.43962
1.57261
1.79758
2.09465
2.4797
2.82307
3.05244
2.77391
2.1165
0.641921
-1.13751
-4.93225
-3.17511
-1.52107
-0.352885
0.345074
0.742588
0.946125
1.06157
1.07868
1.13125
1.2673
1.47421
1.69601
2.02719
2.32095
2.44472
2.2641
1.61285
0.423689
-1.04164
-4.21841
-2.75735
-1.3035
-0.3369
0.297096
0.611911
0.654567
0.766377
0.930652
0.8057
0.954697
1.18842
1.37615
1.67807
1.81335
1.98097
1.93246
1.27232
0.257391
-0.871488
-3.36963
-2.23322
-1.09101
-0.318949
0.206859
0.471974
0.611025
0.705138
0.666518
0.721725
0.753785
0.888766
1.02107
1.30806
1.46067
1.56627
1.49704
0.987375
0.122129
-0.863739
-2.77532
-1.68864
-0.911137
-0.285468
0.0664643
0.316637
0.423406
0.481175
0.436794
0.510805
0.563556
0.608514
0.749987
1.00298
1.09773
1.14718
1.0825
0.736184
0.0915334
-0.633431
-1.87621
-1.20237
-0.600882
-0.265095
0.0860774
0.256961
0.26682
0.320587
0.401205
0.295266
0.406103
0.460939
0.598497
0.676304
0.753996
0.877447
0.789392
0.460043
0.000698252
-0.462058
-1.06557
-0.734245
-0.402129
-0.139059
-0.0384257
0.265069
0.206716
0.222359
0.150364
0.170478
0.215859
0.194506
0.38688
0.398622
0.429133
0.570276
0.455308
0.284235
0.0381214
-0.246092
-0.401453
-0.298345
-0.114347
0.0148181
0.00508571
0.0807593
0.0891599
0.0191255
0.0660576
0.0844161
0.00131324
0.0706013
0.0230399
0.119024
0.132438
0.202921
0.185475
0.0893709
-0.0656956
-0.0837951
-5.78042
-3.57438
-1.79558
-0.452547
0.277494
0.594442
0.820246
0.853634
0.854907
0.957586
1.07234
1.33289
1.63498
2.083
2.38425
2.71467
2.56767
1.93355
0.577207
-1.20895
-4.9491
-3.26177
-1.58816
-0.462724
0.130162
0.534064
0.714987
0.759418
0.682069
0.703221
0.841962
0.976047
1.3603
1.6797
1.97322
2.20122
2.16769
1.55062
0.331066
-1.07676
-4.26175
-2.82041
-1.42419
-0.386746
0.180852
0.3824
0.482392
0.555899
0.50245
0.557342
0.674362
0.726329
1.03627
1.27367
1.71576
1.82689
1.63746
1.17768
0.19929
-1.02316
-3.49252
-2.30345
-1.14852
-0.425093
0.0523536
0.235738
0.37623
0.364754
0.424523
0.433815
0.513455
0.621245
0.811547
0.993698
1.37996
1.42166
1.30139
0.905766
0.0085016
-0.786761
-2.66511
-1.84698
-0.878401
-0.267921
0.0313217
0.232873
0.274057
0.311465
0.26867
0.294901
0.303983
0.450872
0.582361
0.801747
0.941818
1.13531
1.00683
0.611657
0.0257793
-0.661893
-1.94708
-1.34746
-0.698921
-0.255045
-0.00759658
0.152488
0.204569
0.25193
0.203807
0.213771
0.176106
0.340862
0.403331
0.551282
0.734021
0.792127
0.678993
0.532517
-0.0164564
-0.515924
-1.1702
-0.78932
-0.364616
-0.139161
-0.106424
0.0708669
0.188878
0.137399
0.169736
0.179129
0.143056
0.128028
0.233085
0.347906
0.461362
0.467178
0.456984
0.323563
0.0151885
-0.260763
-0.341747
-0.276538
-0.183157
-0.00188402
0.00105134
-0.0245328
0.046822
0.013528
-0.000469748
0.0635545
0.0363465
0.0587587
0.112943
0.0646502
0.170515
0.104645
0.16353
0.0733552
0.0196928
-0.108523
-5.88636
-3.80213
-2.00067
-0.798971
-0.134559
0.273484
0.341709
0.235022
0.258744
0.238762
0.273918
0.534852
0.952739
1.43958
1.90609
2.19273
2.25595
1.60384
0.295524
-1.36577
-5.0773
-3.37171
-1.79403
-0.705413
-0.132634
0.180382
0.167278
0.263864
0.121829
0.0406095
0.205469
0.445564
0.74598
1.09903
1.59142
1.86672
1.85548
1.29493
0.14723
-1.33834
-4.39384
-2.87495
-1.53673
-0.629979
-0.163619
0.0359162
0.150805
0.135974
0.0484367
-0.00917756
0.0674384
0.280751
0.513234
0.872307
1.2569
1.41583
1.41353
0.969006
-0.0240688
-1.1567
-3.47214
-2.40236
-1.26687
-0.567227
-0.0741954
0.0379246
0.108411
0.0194355
-0.0236533
-0.0182738
0.0335712
0.176806
0.331158
0.641393
0.956472
1.13291
1.19785
0.747312
-0.160678
-0.886528
-2.7511
-1.86365
-1.05476
-0.379276
-0.127054
0.0642633
-0.0271005
-0.0339354
-0.0336603
-0.0435858
0.0158025
0.14695
0.310895
0.458175
0.680256
0.863478
0.850298
0.555528
-0.110489
-0.757856
-1.94222
-1.35913
-0.734807
-0.334723
-0.139118
-0.0444833
0.0629169
0.0106393
-0.0629245
-0.0210719
0.0730196
0.0708106
0.138138
0.302563
0.542827
0.584065
0.630211
0.363414
-0.0754722
-0.550324
-1.20286
-0.766352
-0.442143
-0.171095
-0.105118
-0.0312522
0.00429843
0.0336861
-0.056519
0.020247
0.0133493
0.0111555
0.0744647
0.157658
0.315778
0.36408
0.342003
0.245357
-0.0164247
-0.247238
-0.417552
-0.325233
-0.141863
-0.119577
-0.0117861
-0.00620441
0.0390317
-0.0526804
-0.0129072
-0.0259967
0.017598
0.060874
0.0369331
-0.0237434
0.0542465
0.152554
0.131523
0.0184707
0.0109048
-0.0550002
-6.15219
-4.13615
-2.28598
-1.12629
-0.533184
-0.245805
-0.305
-0.438157
-0.544023
-0.731379
-0.590997
-0.302129
0.131054
0.650535
1.19205
1.71564
1.68553
1.10688
-0.07691
-1.66551
-5.33267
-3.6847
-2.08908
-1.04596
-0.52172
-0.415599
-0.3468
-0.394074
-0.560118
-0.666107
-0.657028
-0.294448
-0.00305801
0.545512
0.912356
1.25571
1.33021
0.914533
-0.327377
-1.55815
-4.47036
-3.1116
-1.79723
-1.00388
-0.468039
-0.321585
-0.234941
-0.36876
-0.519523
-0.557595
-0.547712
-0.383442
0.00204751
0.367064
0.738764
1.06196
1.11069
0.617142
-0.282838
-1.40973
-3.64457
-2.55481
-1.49174
-0.830837
-0.444549
-0.249364
-0.280362
-0.357466
-0.475867
-0.493915
-0.579539
-0.383384
-0.115568
0.274471
0.550177
0.816708
0.793931
0.500342
-0.301068
-1.1286
-2.9247
-2.08549
-1.20169
-0.670059
-0.319014
-0.301121
-0.215776
-0.270338
-0.359825
-0.407857
-0.365633
-0.338542
-0.0609913
0.117206
0.438119
0.601814
0.556541
0.34636
-0.192342
-0.948216
-2.01027
-1.45522
-0.891863
-0.387778
-0.198031
-0.180326
-0.209517
-0.228134
-0.267723
-0.259596
-0.273342
-0.218086
-0.100932
0.137457
0.220447
0.419951
0.402663
0.210099
-0.180257
-0.714314
-1.24848
-0.883708
-0.422758
-0.289099
-0.12311
-0.144385
-0.0834081
-0.124488
-0.160714
-0.180954
-0.19501
-0.190489
-0.0907926
-0.000787189
0.157963
0.229975
0.176826
0.067955
-0.0938715
-0.476195
-0.39003
-0.261149
-0.223861
-0.099579
-0.099332
0.0526272
-0.0396359
0.00649118
-0.0518513
-0.0836885
-0.0950234
-0.000882829
-0.0848213
0.000191882
0.0660963
0.0641353
0.0922366
0.0271348
-0.0413917
-0.0666134
-6.47572
-4.54645
-2.85375
-1.68015
-1.09572
-0.886368
-0.942062
-1.20227
-1.42202
-1.66558
-1.54895
-1.26978
-0.788025
-0.191576
0.474715
0.963624
1.08407
0.522854
-0.589721
-2.11613
-5.65364
-4.01182
-2.48837
-1.48208
-1.03302
-0.832749
-0.989269
-1.12482
-1.26865
-1.42414
-1.48241
-1.19919
-0.750905
-0.251611
0.267554
0.735733
0.822973
0.323127
-0.674839
-1.97017
-4.79372
-3.41906
-2.13193
-1.26715
-0.861531
-0.721329
-0.758325
-0.916377
-1.22071
-1.23403
-1.34022
-1.08148
-0.685283
-0.256736
0.182607
0.49571
0.563285
0.168137
-0.640243
-1.63868
-3.83067
-2.75109
-1.78883
-1.05926
-0.79202
-0.589659
-0.650459
-0.798305
-0.989192
-1.04679
-1.10597
-0.856582
-0.655624
-0.236246
0.183347
0.440658
0.403989
0.145253
-0.620614
-1.38805
-2.96499
-2.25321
-1.35712
-0.852502
-0.626958
-0.508472
-0.575145
-0.544835
-0.704007
-0.825811
-0.786493
-0.749055
-0.440823
-0.213075
-0.00841126
0.265412
0.300189
0.0711431
-0.502875
-1.10518
-2.07903
-1.59824
-1.03847
-0.583633
-0.498962
-0.311452
-0.388689
-0.41003
-0.517201
-0.60979
-0.601676
-0.477872
-0.316079
-0.17381
0.0490374
0.204897
0.136877
0.0134882
-0.359322
-0.862888
-1.27749
-0.864888
-0.615124
-0.386202
-0.34699
-0.258652
-0.274719
-0.265547
-0.394515
-0.310935
-0.334986
-0.411283
-0.286649
-0.0973948
-0.0764384
0.0817761
0.158647
0.00274222
-0.264235
-0.449931
-0.436605
-0.352502
-0.242729
-0.201625
-0.100052
-0.0566232
-0.0977799
-0.123015
-0.131948
-0.0528053
-0.0361114
-0.11658
-0.127892
0.00987924
-0.0359574
0.120186
0.0436596
0.0129141
-0.151294
-0.137811
-6.86602
-4.94272
-3.27156
-2.17641
-1.63521
-1.53934
-1.65336
-1.97592
-2.20468
-2.4929
-2.52311
-2.27942
-1.7225
-1.00994
-0.289182
0.172281
0.38227
-0.133913
-1.16477
-2.57894
-5.9507
-4.31131
-2.90207
-1.9272
-1.53292
-1.37789
-1.55705
-1.71478
-1.98594
-2.17683
-2.29116
-2.00501
-1.60817
-0.980321
-0.338041
0.158159
0.213099
-0.197352
-1.13151
-2.35014
-5.02828
-3.69926
-2.55585
-1.66231
-1.3564
-1.15955
-1.27448
-1.48124
-1.70253
-1.8882
-1.99216
-1.74311
-1.33758
-0.891344
-0.362589
-0.00194666
0.104649
-0.335215
-1.10978
-2.04033
-4.05466
-3.11005
-2.04464
-1.40566
-1.11226
-1.08799
-1.05858
-1.29344
-1.43003
-1.54853
-1.65272
-1.50195
-1.18575
-0.83127
-0.360776
-0.0963206
-0.00821866
-0.272922
-0.971351
-1.71204
-3.15919
-2.42471
-1.56011
-1.1973
-0.838172
-0.765977
-0.851906
-1.01027
-1.16216
-1.20508
-1.36649
-1.17918
-0.908031
-0.685386
-0.272893
-0.0810287
-0.0863314
-0.253216
-0.742381
-1.3253
-2.26222
-1.70393
-1.24844
-0.81261
-0.623952
-0.550512
-0.609468
-0.698578
-0.817398
-0.894276
-0.880689
-0.8194
-0.712987
-0.465586
-0.171818
-0.0578864
-0.0308316
-0.18217
-0.583237
-0.984878
-1.29512
-1.01612
-0.699016
-0.44447
-0.429512
-0.428288
-0.421123
-0.402901
-0.478188
-0.575654
-0.580928
-0.430258
-0.348085
-0.365928
-0.182298
-0.0253742
-0.0828707
-0.0917665
-0.306062
-0.578347
-0.460335
-0.368266
-0.202726
-0.0802335
-0.106378
-0.109389
-0.194591
-0.137997
-0.156106
-0.175247
-0.172005
-0.192639
-0.212159
-0.0433872
-0.0199419
-0.0141838
0.0256179
0.00668578
-0.0955279
-0.203356
-7.25605
-5.49919
-3.87112
-2.82128
-2.22061
-2.1483
-2.28524
-2.59031
-2.96468
-3.39514
-3.45531
-3.14034
-2.59612
-1.87897
-1.06029
-0.467328
-0.360545
-0.839185
-1.76662
-3.15946
-6.26176
-4.77311
-3.3481
-2.40633
-1.98483
-1.86037
-2.10901
-2.31279
-2.67843
-2.96572
-3.0325
-2.7868
-2.3068
-1.60965
-0.937935
-0.484496
-0.398166
-0.803878
-1.68165
-2.79973
-5.29521
-4.08635
-2.89724
-2.08362
-1.72153
-1.58711
-1.77455
-1.98497
-2.32025
-2.51371
-2.60043
-2.43556
-2.09325
-1.46932
-0.914484
-0.472973
-0.436302
-0.744399
-1.49297
-2.44437
-4.35223
-3.34768
-2.38063
-1.77906
-1.44198
-1.31802
-1.49769
-1.6631
-1.92287
-2.15759
-2.16724
-1.99491
-1.66217
-1.24842
-0.805295
-0.546293
-0.430095
-0.721044
-1.26805
-2.03766
-3.31139
-2.5955
-1.89707
-1.34586
-1.10649
-1.01255
-1.18407
-1.22908
-1.47043
-1.6738
-1.70173
-1.61512
-1.30958
-1.02769
-0.647802
-0.491684
-0.373227
-0.555256
-1.12156
-1.64436
-2.40543
-1.8884
-1.34734
-1.05163
-0.782503
-0.746694
-0.826064
-0.936029
-1.12026
-1.21297
-1.17355
-1.09265
-0.944365
-0.686654
-0.417959
-0.358772
-0.291825
-0.42272
-0.783004
-1.23641
-1.46071
-1.12882
-0.829017
-0.584784
-0.513837
-0.435195
-0.512771
-0.503141
-0.712439
-0.777433
-0.773983
-0.651237
-0.554576
-0.499497
-0.316983
-0.188219
-0.16563
-0.262158
-0.538572
-0.67599
-0.483853
-0.409301
-0.334886
-0.24091
-0.147974
-0.112414
-0.1863
-0.248977
-0.208922
-0.220667
-0.203811
-0.267068
-0.193442
-0.146078
-0.0647969
-0.0186686
-0.104863
-0.073408
-0.141697
-0.27198
-7.6572
-5.89289
-4.39292
-3.31494
-2.77988
-2.61842
-2.86726
-3.29905
-3.7012
-4.15758
-4.18489
-3.92239
-3.32326
-2.47192
-1.70226
-1.15051
-1.02502
-1.42499
-2.32322
-3.62305
-6.52876
-5.13399
-3.83736
-2.93065
-2.44788
-2.39061
-2.5301
-2.7763
-3.27992
-3.55478
-3.61681
-3.43218
-2.96053
-2.24852
-1.58226
-1.11262
-0.999627
-1.32398
-2.20196
-3.23278
-5.59618
-4.35791
-3.29009
-2.5322
-2.16776
-2.04455
-2.23124
-2.39758
-2.83079
-3.04651
-3.19643
-2.97971
-2.52782
-1.96116
-1.46941
-1.07283
-0.979157
-1.16349
-1.88702
-2.8186
-4.4967
-3.53603
-2.70702
-2.03255
-1.74401
-1.74184
-1.83792
-2.01418
-2.25132
-2.43217
-2.58544
-2.51884
-2.11518
-1.62372
-1.1998
-0.891295
-0.923002
-1.04956
-1.68479
-2.31977
-3.54049
-2.79593
-2.04438
-1.58966
-1.44848
-1.29322
-1.45478
-1.6708
-1.77434
-2.01652
-2.11371
-1.89744
-1.62588
-1.31631
-0.951893
-0.691793
-0.660354
-0.885537
-1.28975
-1.81191
-2.533
-2.07642
-1.48675
-1.17684
-0.958626
-0.929118
-1.09399
-1.2167
-1.35998
-1.35562
-1.40835
-1.36291
-1.21287
-0.946116
-0.747185
-0.580436
-0.570433
-0.633562
-1.03635
-1.36245
-1.4648
-1.24787
-0.967473
-0.725462
-0.635908
-0.610211
-0.566634
-0.735513
-0.760527
-0.886318
-0.848234
-0.853358
-0.709148
-0.627726
-0.385843
-0.258478
-0.334662
-0.43501
-0.547537
-0.743431
-0.536903
-0.381633
-0.3547
-0.241666
-0.197869
-0.21599
-0.178724
-0.265238
-0.353084
-0.281856
-0.277534
-0.229003
-0.244885
-0.187967
-0.15043
-0.137562
-0.0684772
-0.0671809
-0.188901
-0.270715
-7.87098
-6.21294
-4.74418
-3.72617
-3.22021
-3.1039
-3.3078
-3.72149
-4.26478
-4.58545
-4.78255
-4.39347
-3.85344
-3.11983
-2.34699
-1.75233
-1.45771
-1.74743
-2.75794
-3.92651
-6.76648
-5.45709
-4.08212
-3.25996
-2.83182
-2.76855
-2.93047
-3.23116
-3.69207
-4.07027
-4.17
-3.93939
-3.40726
-2.70781
-2.02974
-1.63859
-1.48856
-1.75259
-2.51371
-3.55624
-5.79253
-4.66898
-3.58025
-2.84191
-2.39921
-2.35079
-2.53336
-2.90298
-3.17585
-3.47703
-3.52801
-3.38639
-2.88417
-2.43457
-1.84435
-1.3714
-1.38372
-1.608
-2.21618
-3.0578
-4.69795
-3.7407
-2.92114
-2.34276
-1.96425
-1.92044
-2.06665
-2.2796
-2.6216
-2.821
-2.89894
-2.72701
-2.50514
-2.10551
-1.59571
-1.23259
-1.24339
-1.35304
-1.94487
-2.56067
-3.67222
-2.9579
-2.22435
-1.86658
-1.60413
-1.57432
-1.62604
-1.81057
-2.09728
-2.21425
-2.31132
-2.18308
-1.95183
-1.63748
-1.19747
-0.930019
-0.896171
-1.18969
-1.48186
-1.99077
-2.66622
-2.04295
-1.66786
-1.33688
-1.10641
-1.13008
-1.08721
-1.28426
-1.4922
-1.62919
-1.61858
-1.56838
-1.39723
-1.19176
-0.895754
-0.686783
-0.676334
-0.723676
-1.08599
-1.38693
-1.63227
-1.15916
-1.04692
-0.834638
-0.651394
-0.648876
-0.750769
-0.76439
-0.909474
-0.945426
-1.04431
-1.03153
-0.800114
-0.635211
-0.504363
-0.402097
-0.468089
-0.461944
-0.637657
-0.887749
-0.52925
-0.486969
-0.311769
-0.246386
-0.175783
-0.170539
-0.234577
-0.225959
-0.326434
-0.232179
-0.291862
-0.390179
-0.367249
-0.307106
-0.167281
-0.1649
-0.0935073
-0.126033
-0.271784
-0.299915
-8.02734
-6.50773
-5.11846
-4.0692
-3.64366
-3.38158
-3.60405
-3.96692
-4.51527
-4.88297
-5.04877
-4.79461
-4.15154
-3.39813
-2.6688
-2.1033
-1.89084
-2.3079
-3.11487
-4.31921
-6.93813
-5.6396
-4.52935
-3.4907
-3.10853
-2.91645
-3.19925
-3.49446
-3.99711
-4.25381
-4.42656
-4.22622
-3.68034
-3.09572
-2.42278
-1.94284
-1.89904
-2.1467
-2.85504
-3.75837
-5.78617
-4.7555
-3.71714
-3.01496
-2.70445
-2.62626
-2.71247
-3.05266
-3.42493
-3.68709
-3.81399
-3.67223
-3.19965
-2.72567
-2.13869
-1.75287
-1.61696
-1.88744
-2.51573
-3.27686
-4.77216
-4.00032
-3.08987
-2.49468
-2.19793
-2.09663
-2.29096
-2.55813
-2.83193
-3.0692
-3.1272
-2.96662
-2.68138
-2.28338
-1.82255
-1.50959
-1.37909
-1.57268
-2.10545
-2.75709
-3.65434
-3.08732
-2.45788
-2.008
-1.74927
-1.64761
-1.81361
-2.00559
-2.18481
-2.38932
-2.51091
-2.30791
-2.05158
-1.79006
-1.45578
-1.11196
-1.2099
-1.29015
-1.70819
-2.15175
-2.67513
-2.17139
-1.75912
-1.34784
-1.24543
-1.26812
-1.28341
-1.45936
-1.55004
-1.71719
-1.78835
-1.73846
-1.51314
-1.185
-1.05377
-0.753483
-0.80119
-0.998289
-1.24374
-1.47421
-1.5779
-1.31897
-1.03533
-0.893697
-0.786673
-0.735223
-0.778668
-0.819895
-1.00668
-1.02109
-1.08117
-0.981215
-0.852993
-0.784909
-0.587348
-0.497118
-0.568603
-0.593829
-0.709707
-0.899964
-0.547966
-0.509103
-0.314134
-0.245887
-0.209296
-0.278413
-0.275624
-0.277137
-0.317426
-0.367786
-0.363853
-0.412431
-0.259226
-0.218367
-0.175029
-0.230556
-0.255546
-0.222799
-0.132645
-0.280061
-8.1117
-6.57413
-5.16938
-4.18732
-3.70338
-3.55306
-3.7071
-4.0803
-4.52873
-4.93642
-5.1053
-4.8795
-4.26399
-3.59699
-2.87838
-2.31518
-2.22172
-2.56107
-3.36015
-4.342
-6.98647
-5.67546
-4.48648
-3.70679
-3.18946
-3.20637
-3.27975
-3.60128
-4.01532
-4.29133
-4.39759
-4.2941
-3.81636
-3.14011
-2.55468
-2.05433
-1.99528
-2.33283
-3.00656
-3.90884
-5.84915
-4.87275
-3.89289
-3.20452
-2.86789
-2.69006
-2.81616
-3.13023
-3.44223
-3.69784
-3.86959
-3.64869
-3.2851
-2.74395
-2.29896
-1.88616
-1.78082
-1.98207
-2.56985
-3.43138
-4.87692
-4.02136
-3.20034
-2.56215
-2.26469
-2.22104
-2.37313
-2.60292
-2.85652
-3.06275
-3.12901
-3.07125
-2.72327
-2.32198
-1.89972
-1.64429
-1.52367
-1.71339
-2.21148
-2.80336
-3.77711
-3.16421
-2.42867
-2.08074
-1.76421
-1.81118
-1.86456
-1.99108
-2.29317
-2.36076
-2.44153
-2.40869
-2.16882
-1.82421
-1.55375
-1.20554
-1.26157
-1.49034
-1.76753
-2.27142
-2.72083
-2.20306
-1.84438
-1.53138
-1.31268
-1.19414
-1.30649
-1.44983
-1.61644
-1.74352
-1.76129
-1.69687
-1.58858
-1.33295
-1.01055
-0.918079
-0.963563
-1.12176
-1.30313
-1.64737
-1.56549
-1.35966
-1.05901
-0.870967
-0.689509
-0.724031
-0.761391
-0.877219
-0.898012
-1.07671
-1.05607
-1.06209
-1.0051
-0.7593
-0.69689
-0.535549
-0.603852
-0.598603
-0.746929
-0.915304
-0.553076
-0.487807
-0.354425
-0.358462
-0.32394
-0.297055
-0.283716
-0.354692
-0.306508
-0.344657
-0.362619
-0.314682
-0.276988
-0.245835
-0.224981
-0.152278
-0.138975
-0.215607
-0.314107
-0.272456
-7.94069
-6.53824
-5.2312
-4.28396
-3.73019
-3.51194
-3.64243
-4.02257
-4.42498
-4.73336
-4.93168
-4.62149
-4.12291
-3.39414
-2.84851
-2.33232
-2.16387
-2.50767
-3.31153
-4.33747
-6.95991
-5.67967
-4.55404
-3.75276
-3.26936
-3.08195
-3.22715
-3.56469
-3.88973
-4.16319
-4.33242
-4.09509
-3.67823
-3.07906
-2.47342
-2.20179
-2.14669
-2.30502
-3.0519
-3.80848
-5.85587
-4.82876
-3.87659
-3.16762
-2.80096
-2.70775
-2.73696
-3.04174
-3.31742
-3.55477
-3.68202
-3.54284
-3.1647
-2.71409
-2.31715
-1.82718
-1.82385
-2.09874
-2.69953
-3.43226
-4.74929
-3.96949
-3.24242
-2.65685
-2.3427
-2.16193
-2.33886
-2.45102
-2.72514
-2.91041
-2.98361
-2.99368
-2.56554
-2.21515
-1.85379
-1.65376
-1.61308
-1.71459
-2.13824
-2.82478
-3.72857
-3.11247
-2.48977
-2.03437
-1.7961
-1.68853
-1.7301
-1.97945
-2.1799
-2.33425
-2.43645
-2.27701
-2.0876
-1.79042
-1.53014
-1.28119
-1.25921
-1.39984
-1.80082
-2.21226
-2.68135
-2.2817
-1.8022
-1.44678
-1.37111
-1.21179
-1.27238
-1.26719
-1.57252
-1.58793
-1.69724
-1.62361
-1.50941
-1.23498
-1.01625
-0.873203
-0.855164
-1.05004
-1.30471
-1.64806
-1.60899
-1.29158
-1.06443
-0.847857
-0.807877
-0.702032
-0.736146
-0.811866
-0.939301
-1.02418
-1.04941
-0.9811
-0.905445
-0.747506
-0.650285
-0.638021
-0.559537
-0.619808
-0.741919
-0.988312
-0.535254
-0.517178
-0.336087
-0.275253
-0.31924
-0.264452
-0.30694
-0.238607
-0.334689
-0.342576
-0.355061
-0.411509
-0.377258
-0.282511
-0.201275
-0.194754
-0.15978
-0.140508
-0.2879
-0.297435
-7.70161
-6.36852
-5.01528
-4.09684
-3.39287
-3.28926
-3.34947
-3.60911
-4.00629
-4.32284
-4.33889
-4.22617
-3.67136
-3.04036
-2.49764
-2.11262
-2.09305
-2.34761
-3.20758
-4.18325
-6.60229
-5.55566
-4.29805
-3.52588
-3.06587
-2.88297
-2.9722
-3.2448
-3.53932
-3.77648
-3.88942
-3.75259
-3.30082
-2.74694
-2.23247
-1.94342
-1.83825
-2.22135
-2.88096
-3.69456
-5.62988
-4.64907
-3.74928
-3.03401
-2.60784
-2.5175
-2.58342
-2.77445
-3.04418
-3.23215
-3.39893
-3.18129
-2.81541
-2.43578
-2.01299
-1.73604
-1.6845
-1.9995
-2.55037
-3.18439
-4.64901
-3.90405
-3.03808
-2.54678
-2.14509
-2.12101
-2.14067
-2.21575
-2.56287
-2.73009
-2.70717
-2.60895
-2.39668
-2.08545
-1.58159
-1.52182
-1.45683
-1.70611
-2.18628
-2.66622
-3.54591
-2.93174
-2.48044
-1.92627
-1.68984
-1.62484
-1.61179
-1.8084
-2.01902
-2.23546
-2.1181
-2.06299
-1.80483
-1.60583
-1.34033
-1.13867
-1.24344
-1.30251
-1.72741
-2.13916
-2.61067
-2.16677
-1.63299
-1.42333
-1.18971
-1.21617
-1.20612
-1.25717
-1.41508
-1.47341
-1.59748
-1.52615
-1.3842
-1.12919
-1.03422
-0.870474
-0.859134
-1.05323
-1.22785
-1.47603
-1.64183
-1.32909
-1.05418
-0.861595
-0.695696
-0.759663
-0.72847
-0.723912
-0.851836
-0.906767
-0.879606
-0.957595
-0.834106
-0.670679
-0.581088
-0.540031
-0.528155
-0.518108
-0.718078
-0.965595
-0.484209
-0.476418
-0.389206
-0.210229
-0.233949
-0.246106
-0.172036
-0.332618
-0.32582
-0.357155
-0.374554
-0.297921
-0.252124
-0.193435
-0.160737
-0.288425
-0.127451
-0.120809
-0.220121
-0.341733
-7.22706
-5.90429
-4.62577
-3.7048
-3.12085
-2.86265
-2.89278
-3.05704
-3.44927
-3.57094
-3.71464
-3.44351
-3.09846
-2.54565
-1.99882
-1.69078
-1.61946
-2.02272
-2.719
-3.73125
-6.29451
-5.19744
-4.05212
-3.23944
-2.69796
-2.59142
-2.52571
-2.78717
-3.04466
-3.25334
-3.22354
-3.13911
-2.75134
-2.29512
-1.85179
-1.56222
-1.50374
-1.91043
-2.54153
-3.36475
-5.32476
-4.38245
-3.50772
-2.79105
-2.33349
-2.09469
-2.18927
-2.37314
-2.57478
-2.78128
-2.80867
-2.67656
-2.35061
-1.99102
-1.65344
-1.48327
-1.49036
-1.70923
-2.21699
-2.98701
-4.38261
-3.61755
-2.79502
-2.34129
-1.95151
-1.8133
-1.84196
-1.88794
-2.28042
-2.26069
-2.35596
-2.27376
-2.08397
-1.63569
-1.34489
-1.21669
-1.23827
-1.53809
-1.91101
-2.40521
-3.36839
-2.79188
-2.25094
-1.85216
-1.5545
-1.43521
-1.38993
-1.61495
-1.67014
-1.81238
-1.79452
-1.69223
-1.58981
-1.28711
-1.20445
-1.0035
-0.982351
-1.19092
-1.52746
-1.90914
-2.44279
-2.07277
-1.60303
-1.25415
-1.08281
-1.0968
-1.02438
-1.14338
-1.16629
-1.32472
-1.3885
-1.25029
-1.1563
-0.923527
-0.817773
-0.741991
-0.74823
-0.827506
-1.11687
-1.44565
-1.45527
-1.20427
-0.988492
-0.827869
-0.614319
-0.714038
-0.63806
-0.749224
-0.716577
-0.799872
-0.829305
-0.77717
-0.753481
-0.52378
-0.496966
-0.457356
-0.436304
-0.57981
-0.756546
-0.857195
-0.497656
-0.408029
-0.339175
-0.184585
-0.225006
-0.185701
-0.170366
-0.231476
-0.227171
-0.243948
-0.221826
-0.268554
-0.288003
-0.250435
-0.177034
-0.103445
-0.131983
-0.164175
-0.214656
-0.339457
-6.73123
-5.32928
-4.0077
-3.12105
-2.49732
-2.26779
-2.26095
-2.4109
-2.59843
-2.73616
-2.78559
-2.50669
-2.20538
-1.71468
-1.27027
-0.992762
-1.00907
-1.36778
-2.23931
-3.12538
-5.77851
-4.6813
-3.5697
-2.73278
-2.31716
-1.93299
-1.98616
-2.09091
-2.32138
-2.4198
-2.39144
-2.34052
-1.97974
-1.57984
-1.24261
-1.03221
-1.17381
-1.39659
-2.14653
-2.89693
-4.87361
-4.02923
-3.02748
-2.42157
-1.95453
-1.74913
-1.74959
-1.87203
-2.006
-2.11324
-2.12745
-2.10543
-1.82935
-1.45343
-1.18637
-0.951116
-1.03106
-1.30705
-1.83495
-2.47487
-4.08183
-3.29913
-2.58058
-2.049
-1.6358
-1.46427
-1.48724
-1.54094
-1.70808
-1.77762
-1.78708
-1.65539
-1.55332
-1.23642
-1.10793
-0.893627
-0.896307
-1.14651
-1.62807
-2.1249
-3.08396
-2.59542
-1.90802
-1.51765
-1.21558
-1.07308
-1.12436
-1.19661
-1.34963
-1.33721
-1.38998
-1.38697
-1.21117
-0.982544
-0.762934
-0.692012
-0.769801
-1.03364
-1.34352
-1.68557
-2.29065
-1.79716
-1.43297
-1.11784
-0.956821
-0.843368
-0.726084
-0.887383
-1.00263
-1.03977
-1.01378
-0.948932
-0.847681
-0.687404
-0.632545
-0.47766
-0.601824
-0.724576
-0.974665
-1.22125
-1.31612
-1.12227
-0.879999
-0.696898
-0.545194
-0.539771
-0.51407
-0.4654
-0.563652
-0.602795
-0.673551
-0.625741
-0.506767
-0.497818
-0.364744
-0.255437
-0.258196
-0.335273
-0.569924
-0.732639
-0.500015
-0.433535
-0.286545
-0.174387
-0.19043
-0.187385
-0.275097
-0.256758
-0.281679
-0.20303
-0.200362
-0.211276
-0.210103
-0.157982
-0.12475
-0.0658591
-0.130773
-0.16031
-0.189055
-0.235506
-5.83539
-4.62101
-3.35639
-2.41377
-1.76085
-1.40225
-1.38416
-1.42399
-1.50428
-1.63017
-1.64909
-1.38833
-1.11564
-0.716719
-0.452595
-0.201023
-0.20035
-0.701506
-1.49803
-2.40084
-5.11963
-4.05659
-2.87828
-2.15105
-1.57241
-1.30813
-1.28361
-1.26343
-1.38915
-1.5099
-1.47397
-1.29801
-0.975608
-0.679325
-0.53181
-0.363483
-0.410363
-0.685342
-1.35659
-2.18907
-4.34736
-3.48689
-2.61911
-1.8224
-1.40021
-1.1852
-1.16239
-1.12136
-1.29795
-1.29168
-1.32988
-1.25129
-0.916296
-0.738186
-0.551369
-0.410225
-0.464264
-0.749442
-1.39704
-1.9662
-3.60085
-2.84011
-2.04893
-1.54417
-1.18318
-0.969011
-0.953596
-0.955283
-1.05233
-1.11679
-1.06476
-0.999007
-0.871436
-0.730214
-0.47129
-0.292408
-0.489463
-0.662712
-1.18649
-1.66243
-2.76558
-2.22295
-1.6349
-1.21602
-0.870747
-0.726329
-0.759301
-0.811672
-0.844363
-0.893768
-0.895555
-0.773246
-0.707461
-0.615887
-0.43278
-0.262032
-0.400407
-0.544584
-0.992273
-1.36263
-1.91757
-1.6099
-1.18793
-0.778868
-0.673561
-0.51664
-0.599504
-0.572338
-0.561612
-0.613844
-0.522543
-0.63356
-0.469007
-0.415153
-0.28207
-0.320791
-0.261765
-0.41332
-0.706277
-1.00101
-1.14323
-1.03537
-0.68601
-0.484285
-0.306532
-0.340534
-0.226217
-0.344109
-0.418313
-0.366667
-0.412918
-0.294486
-0.364993
-0.233954
-0.159754
-0.11566
-0.199709
-0.305492
-0.500661
-0.531886
-0.465761
-0.293086
-0.193463
-0.164945
-0.145621
-0.0875033
-0.124537
-0.15715
-0.106269
-0.0933777
-0.137653
-0.104385
-0.0872693
-0.0528318
-0.105477
-0.0409776
-0.029527
-0.0849982
-0.204237
-0.218325
-4.95175
-3.64781
-2.43194
-1.40218
-0.810938
-0.423919
-0.252059
-0.269659
-0.373472
-0.421298
-0.26952
-0.217359
0.110843
0.403604
0.671793
0.806114
0.769785
0.231343
-0.583468
-1.4234
-4.30774
-3.23409
-2.11682
-1.28685
-0.787064
-0.419968
-0.337239
-0.373768
-0.41606
-0.370292
-0.327811
-0.226334
-0.0270623
0.128493
0.507955
0.507885
0.464784
0.0634871
-0.641809
-1.3636
-3.65483
-2.76823
-1.86751
-1.14268
-0.678386
-0.501906
-0.317593
-0.346699
-0.39046
-0.394937
-0.363309
-0.376798
-0.117439
0.150848
0.259676
0.381855
0.200124
-0.0724587
-0.647016
-1.33844
-3.00794
-2.29889
-1.57853
-0.981549
-0.616482
-0.383991
-0.370225
-0.298135
-0.358454
-0.375751
-0.432909
-0.293273
-0.209784
-0.0363526
0.179618
0.202944
0.165005
-0.179439
-0.609056
-1.19191
-2.26084
-1.80478
-1.19159
-0.780602
-0.447075
-0.312934
-0.253751
-0.36321
-0.330741
-0.337256
-0.350895
-0.288502
-0.206066
0.0207752
0.0485621
0.0700105
-0.0225094
-0.206418
-0.630093
-1.00335
-1.71538
-1.27464
-0.909427
-0.5264
-0.441074
-0.191675
-0.169083
-0.223281
-0.269847
-0.296868
-0.192181
-0.197606
-0.189722
0.00368078
0.0367217
0.00316008
-0.017226
-0.16673
-0.396884
-0.724915
-0.980555
-0.800102
-0.621193
-0.316775
-0.290019
-0.107669
-0.162718
-0.158815
-0.165574
-0.168588
-0.0869469
-0.103815
-0.0805924
-0.0318269
0.0624266
0.0344145
-0.0247837
-0.133889
-0.243179
-0.490221
-0.284446
-0.253478
-0.151377
-0.16636
-0.0445108
0.0327863
-0.0351368
-0.0524722
0.0484897
-0.0776376
-0.0231539
-0.0413968
-0.0232368
-0.0391837
-0.0354445
-0.0275594
0.00971014
-0.0595149
-0.0891457
-0.137186
-3.90204
-2.68806
-1.41085
-0.38087
0.242145
0.653472
0.821813
0.975116
0.953688
0.927589
1.06737
1.19959
1.49947
1.62467
1.8477
1.92278
1.78537
1.32268
0.483813
-0.385744
-3.3734
-2.31287
-1.24914
-0.463941
0.195474
0.456505
0.632111
0.668244
0.755932
0.764978
0.759252
0.885529
1.15884
1.25786
1.48857
1.45679
1.31475
0.903803
0.233789
-0.480816
-2.92935
-2.07256
-1.12462
-0.475273
0.0159231
0.342363
0.544514
0.528126
0.505084
0.537942
0.612214
0.671018
0.859771
1.01329
1.12154
1.14041
0.963306
0.617248
0.0913621
-0.613508
-2.41299
-1.64356
-0.999285
-0.426915
-0.0878267
0.216591
0.334541
0.43352
0.413071
0.386541
0.413782
0.556746
0.668968
0.761255
0.893813
0.888098
0.754051
0.466317
-0.0867413
-0.483607
-1.78619
-1.33324
-0.815712
-0.371004
0.00665706
0.0952172
0.283611
0.246511
0.260451
0.250827
0.258442
0.411211
0.408855
0.54783
0.639554
0.612223
0.551254
0.290444
-0.0488107
-0.434492
-1.21401
-0.8808
-0.560233
-0.240485
0.0128834
0.120095
0.248669
0.242049
0.181574
0.175605
0.220153
0.143862
0.276919
0.375436
0.393441
0.462465
0.389111
0.179192
-0.0655803
-0.339957
-0.800351
-0.592225
-0.337801
-0.157666
-0.0399038
0.00785683
0.0964626
0.0777524
0.116334
0.0893137
0.140796
0.0929231
0.0843116
0.221469
0.219884
0.175634
0.198081
0.105843
-0.0466315
-0.27473
-0.257034
-0.145829
-0.0680882
-0.032966
0.0385782
0.0401022
0.0365277
0.0656962
0.0526711
0.00287014
0.0050282
0.0477433
0.08157
0.0639792
0.0753041
0.0901307
0.0257909
-0.000645928
0.00717109
-0.0911045
-2.80034
-1.52671
-0.327948
0.647398
1.30871
1.83982
2.07475
2.23839
2.24385
2.29969
2.42007
2.49684
2.75107
2.99096
3.10757
3.09015
2.86157
2.36423
1.53037
0.6839
-2.48691
-1.47358
-0.344431
0.442535
1.15037
1.45956
1.71049
1.75183
1.8603
1.90994
1.85304
2.05683
2.20274
2.38569
2.4648
2.50032
2.27804
1.80473
1.19885
0.412057
-2.13008
-1.26744
-0.445833
0.334227
0.846633
1.13391
1.36351
1.41592
1.4132
1.51274
1.5356
1.57388
1.79424
1.9316
1.90941
1.98377
1.86329
1.42525
0.772153
0.135614
-1.73629
-1.06778
-0.38222
0.273272
0.649908
0.89082
1.01337
1.13595
1.15176
1.15889
1.17388
1.2032
1.31273
1.43998
1.49649
1.49588
1.45202
1.03077
0.559963
0.074075
-1.38654
-0.830988
-0.27285
0.171449
0.471252
0.696595
0.787038
0.875543
0.849639
0.911526
0.815605
0.928588
1.00812
1.07941
1.17843
1.12327
1.00965
0.763787
0.418943
-0.00288007
-0.991064
-0.583142
-0.227807
0.0698808
0.367794
0.486163
0.58798
0.592853
0.538752
0.56594
0.6436
0.627625
0.666512
0.835134
0.812585
0.716878
0.655619
0.482938
0.208587
-0.0535666
-0.663357
-0.319773
-0.176396
0.0502517
0.150082
0.30791
0.314715
0.302982
0.393868
0.310719
0.300489
0.416718
0.430474
0.507567
0.418217
0.458345
0.39429
0.344117
0.188475
-0.0578343
-0.250116
-0.124504
-0.0390235
0.0175245
0.0964205
0.0684065
0.145153
0.0708112
0.140747
0.130359
0.131761
0.189477
0.167674
0.0578172
0.187254
0.141712
0.0758892
0.0902077
-0.0446007
0.011907
-1.95289
-0.613841
0.544552
1.59
2.29905
2.81216
3.11625
3.24083
3.3288
3.4474
3.5205
3.56379
3.90016
4.04981
4.05607
4.11424
3.77186
3.31472
2.43027
1.56699
-1.73453
-0.705542
0.290517
1.19228
1.81486
2.30002
2.56234
2.63832
2.69593
2.72519
2.87855
2.95554
3.08193
3.27048
3.33376
3.26132
2.96209
2.51066
1.87272
1.02972
-1.57602
-0.653481
0.223564
0.868095
1.42854
1.78327
1.93427
2.08267
2.22618
2.18662
2.30152
2.38757
2.40858
2.58155
2.64692
2.59486
2.40712
1.95115
1.4134
0.766295
-1.28194
-0.615456
0.0748195
0.654053
1.10372
1.36291
1.5514
1.64967
1.69674
1.72174
1.82362
1.83077
1.98844
1.96127
2.11429
2.02224
1.84136
1.54385
1.01419
0.542256
-1.07088
-0.588614
0.0661631
0.455563
0.715752
0.930051
1.10765
1.18851
1.19342
1.32229
1.23711
1.37069
1.44477
1.52733
1.58601
1.40782
1.29036
1.10593
0.630185
0.257275
-0.695497
-0.424223
0.0483773
0.317583
0.524449