/*--------------------------------*- C++ -*----------------------------------*\
| =========                 |                                                 |
| \\      /  F ield         | OpenFOAM: The Open Source CFD Toolbox           |
|  \\    /   O peration     | Version:  2212                                  |
|   \\  /    A nd           | Website:  www.openfoam.com                      |
|    \\/     M anipulation  |                                                 |
\*---------------------------------------------------------------------------*/
FoamFile
{
    version     2.0;
    format      ascii;
    arch        "LSB;label=32;scalar=64";
    class       volScalarField;
    location    "0";
    object      relativeErrorField;
}
// * * * * * * * * * * * * * * * * * * * * * * * * * * * * * * * * * * * * * //

dimensions      [0 0 0 1 0 0 0];

internalField   nonuniform List<scalar> 
3200
(
0.0161816
0.0104637
0.00466164
0.00113139
0.00134035
0.00266966
0.0034991
0.00382181
0.00384339
0.00406744
0.00444319
0.00508222
0.00592962
0.00703191
0.00802225
0.00869358
0.00791848
0.00605535
0.00184033
0.0032664
0.0144268
0.00927433
0.00443492
0.00102687
0.00100211
0.00215223
0.00273713
0.00306639
0.00311233
0.00326208
0.00365439
0.00425357
0.00489898
0.00586463
0.00672678
0.00709956
0.00658836
0.00470254
0.00123757
0.0030468
0.012574
0.0082093
0.00387483
0.00099978
0.00088012
0.00180963
0.00193273
0.00225988
0.00274165
0.00237234
0.00281105
0.00350103
0.00405797
0.00495483
0.00536271
0.00586845
0.00573475
0.00378214
0.000766316
0.00259769
0.0102399
0.00677994
0.00330797
0.000965692
0.000625403
0.0014249
0.00184227
0.00212369
0.00200576
0.00217097
0.00226741
0.00267457
0.00307519
0.00394389
0.00440979
0.00473536
0.00453264
0.00299375
0.000370776
0.0026248
0.00860207
0.00522994
0.00281904
0.000882241
0.000205171
0.000976332
0.00130419
0.00148083
0.00134339
0.00157049
0.00173267
0.00187153
0.00230811
0.00308941
0.00338479
0.00354126
0.00334547
0.00227774
0.000283491
0.00196331
0.00593391
0.00380067
0.00189796
0.000836651
0.000271435
0.000809626
0.000840053
0.00100869
0.00126176
0.000928357
0.00127685
0.00144961
0.0018831
0.00212927
0.00237567
0.00276693
0.00249136
0.0014531
2.20716e-06
0.00146135
0.00344037
0.00236984
0.00129732
0.000448395
0.00012384
0.00085384
0.000665563
0.000715645
0.000483797
0.000548434
0.000694425
0.000625826
0.00124515
0.00128344
0.00138232
0.0018379
0.00146814
0.000916975
0.00012304
0.000794547
0.00132379
0.000983679
0.000376955
4.8841e-05
1.67597e-05
0.000266092
0.000293724
6.29976e-05
0.000217566
0.000278017
4.32505e-06
0.000232531
7.58913e-05
0.000392108
0.000436368
0.000668714
0.000611333
0.00029462
0.000216606
0.000276313
0.0165905
0.0102425
0.00513481
0.00129129
0.000789998
0.00168856
0.00232521
0.00241569
0.00241626
0.00270468
0.00302881
0.00376719
0.0046268
0.00590484
0.00677265
0.00772841
0.00732652
0.00552938
0.00165401
0.00346983
0.0144699
0.00952342
0.00462866
0.00134597
0.000377856
0.00154733
0.00206779
0.00219295
0.00196741
0.00202724
0.00242721
0.00281539
0.00392809
0.00485778
0.00571699
0.00639009
0.00630538
0.00451925
0.000966615
0.00314816
0.0126985
0.00839401
0.0042321
0.00114732
0.000535587
0.00113056
0.00142396
0.0016388
0.00147982
0.00164067
0.00198514
0.00213919
0.00305494
0.00375972
0.00507259
0.00541028
0.0048577
0.00349958
0.000593121
0.00304865
0.01061
0.00699103
0.00348132
0.00128671
0.000158241
0.000711521
0.00113409
0.0010983
0.00127725
0.00130466
0.00154417
0.00186913
0.00244363
0.00299536
0.00416507
0.00429703
0.00393917
0.0027455
2.58025e-05
0.00239012
0.00825843
0.00571899
0.00271713
0.000827827
9.66679e-05
0.000717909
0.000844002
0.000958376
0.000826175
0.000906537
0.000934457
0.00138646
0.00179192
0.00246911
0.00290347
0.00350388
0.00311093
0.00189202
7.98228e-05
0.00205102
0.00615692
0.00425854
0.00220726
0.000804803
2.39513e-05
0.000480387
0.000643976
0.000792564
0.000640876
0.000672047
0.000553636
0.00107185
0.00126887
0.00173541
0.0023124
0.0024975
0.00214258
0.00168174
5.2009e-05
0.00163142
0.00377776
0.00254732
0.00117617
0.000448679
0.000342954
0.000228256
0.000608081
0.000442173
0.000546086
0.000576219
0.000460182
0.0004119
0.00075011
0.00112006
0.00148601
0.00150549
0.0014734
0.00104374
4.90169e-05
0.00084182
0.00112686
0.000911743
0.000603773
6.20957e-06
3.46454e-06
8.08301e-05
0.000154244
4.45589e-05
1.54712e-06
0.000209306
0.000119701
0.000193522
0.000372013
0.000212974
0.000561808
0.000344843
0.000538983
0.000241814
6.49269e-05
0.00035784
0.016878
0.0108847
0.00571606
0.00227777
0.000382757
0.000776246
0.000967959
0.000664628
0.000730821
0.000673946
0.000773181
0.00151069
0.00269429
0.00407789
0.00541016
0.00623731
0.00643144
0.00458229
0.000846024
0.00391608
0.0148318
0.00983608
0.00522442
0.00205032
0.000384751
0.000522256
0.000483464
0.000761485
0.000351211
0.000117003
0.000591991
0.00128448
0.00215283
0.00317639
0.0046076
0.00541507
0.00539304
0.00377099
0.000429505
0.00390956
0.0130822
0.00855009
0.00456332
0.00186764
0.000484246
0.000106122
0.000444908
0.00040064
0.000142584
2.7003e-05
0.000198423
0.000826453
0.00151222
0.00257349
0.00371378
0.0041903
0.00419057
0.00287746
7.15805e-05
0.00344397
0.0105415
0.00728676
0.00383783
0.00171597
0.000224139
0.00011441
0.000326636
5.84957e-05
7.11351e-05
5.49345e-05
0.000100921
0.000531727
0.000996698
0.00193248
0.00288545
0.00342243
0.00362372
0.00226388
0.000487364
0.00269152
0.00852066
0.00576781
0.00326114
0.00117138
0.000391961
0.000198034
8.34293e-05
0.000104382
0.000103473
0.000133941
4.85616e-05
0.000451729
0.000956285
0.0014105
0.00209628
0.00266382
0.0026261
0.00171759
0.000341952
0.00234722
0.00613934
0.00429388
0.0023198
0.00105589
0.000438489
0.000140096
0.000198006
3.34624e-05
0.000197819
6.62293e-05
0.000229502
0.000222611
0.000434466
0.000952194
0.00170958
0.00184093
0.001988
0.0011473
0.000238439
0.00173957
0.00388234
0.00247266
0.00142596
0.00055153
0.000338683
0.000100642
1.38361e-05
0.000108391
0.000181809
6.51206e-05
4.29356e-05
3.58847e-05
0.000239603
0.000507483
0.00101691
0.00117304
0.00110246
0.000791303
5.29948e-05
0.000797983
0.00137671
0.00107221
0.000467618
0.00039409
3.88367e-05
2.04409e-05
0.000128573
0.000173511
4.25078e-05
8.56115e-05
5.79532e-05
0.000200478
0.000121645
7.82123e-05
0.000178719
0.000502687
0.000433461
6.08841e-05
3.59503e-05
0.000181342
0.0176141
0.0118239
0.00652216
0.00320667
0.00151476
0.000696857
0.000863012
0.00123778
0.00153505
0.00206243
0.00166656
0.000852505
0.000370225
0.00184072
0.00337946
0.00487409
0.00479889
0.00315806
0.000219861
0.00476848
0.0155575
0.0107355
0.00607619
0.00303656
0.00151175
0.00120202
0.00100133
0.0011362
0.00161327
0.0019175
0.00189137
0.000848078
8.8169e-06
0.00157508
0.00263877
0.00363858
0.00386178
0.00265996
0.000953823
0.00454575
0.0132951
0.0092437
0.00533125
0.00297312
0.00138387
0.000949327
0.000692538
0.00108566
0.00152815
0.00163937
0.00161031
0.00112788
6.02802e-06
0.001082
0.00218085
0.00313995
0.00328943
0.00183067
0.000840234
0.00419263
0.0110546
0.00774208
0.00451503
0.00251133
0.00134187
0.000751702
0.000844111
0.00107515
0.0014302
0.00148386
0.0017411
0.00115225
0.000347595
0.000826375
0.00165849
0.00246523
0.00239977
0.00151438
0.000912353
0.00342326
0.00905157
0.00644966
0.00371281
0.00206805
0.000983527
0.000927379
0.000663892
0.000831089
0.00110554
0.00125273
0.00112304
0.00104015
0.000187503
0.000360616
0.0013493
0.00185541
0.00171769
0.00107013
0.000594844
0.00293461
0.006351
0.00459505
0.00281419
0.00122265
0.000623889
0.00056767
0.000659097
0.000717237
0.000841338
0.00081561
0.000858799
0.00068535
0.000317322
0.000432412
0.000693973
0.00132304
0.00126958
0.000662945
0.000569183
0.00225671
0.00402821
0.00285039
0.00136301
0.00093164
0.000396536
0.000464843
0.000268412
0.000400464
0.000516861
0.000581872
0.000627071
0.00061262
0.000292069
2.53322e-06
0.000508554
0.000740749
0.000569832
0.000219093
0.000302781
0.00153645
0.00128583
0.000860848
0.000737822
0.000328148
0.00032728
0.000173368
0.000130552
2.13778e-05
0.00017075
0.000275578
0.000312903
2.90722e-06
0.000279347
6.32016e-07
0.000217739
0.000211313
0.000303953
8.94335e-05
0.000136443
0.000219607
0.0185038
0.0129718
0.00812697
0.00477507
0.00310764
0.00250884
0.00266158
0.00339152
0.00400693
0.0046905
0.00436205
0.00357798
0.00222296
0.000541256
0.00134367
0.002733
0.00308099
0.001489
0.00168258
0.00604668
0.0164652
0.0116687
0.00722567
0.00429592
0.00298883
0.00240511
0.00285253
0.00323897
0.00364955
0.00409476
0.00426229
0.00344974
0.00216227
0.000725513
0.000772738
0.00212869
0.00238546
0.00093829
0.00196283
0.00573774
0.0142354
0.0101422
0.0063151
0.00374772
0.00254404
0.00212677
0.00223273
0.00269492
0.00358686
0.00362439
0.00393626
0.00317775
0.00201531
0.000755905
0.0005384
0.0014638
0.00166597
0.000498048
0.0018992
0.00486619
0.0116045
0.00832666
0.00540782
0.00319812
0.00238813
0.00177569
0.0019565
0.00239885
0.00297035
0.00314214
0.00331979
0.00257215
0.0019701
0.000710598
0.000552128
0.00132869
0.00121972
0.000439116
0.0018784
0.00420492
0.0091671
0.00696161
0.0041891
0.00262876
0.00193126
0.00156469
0.00176822
0.00167373
0.00216149
0.00253472
0.00241404
0.0022998
0.00135421
0.000655075
2.58834e-05
0.000817565
0.000925659
0.000219601
0.0015537
0.00341698
0.00656343
0.00504306
0.00327454
0.00183896
0.00157097
0.000979874
0.00122204
0.00128841
0.0016245
0.0019149
0.00188942
0.00150097
0.000993193
0.000546461
0.000154279
0.000645114
0.000431284
4.25315e-05
0.0011338
0.00272411
0.00411998
0.00278847
0.00198238
0.00124406
0.00111722
0.000832414
0.000883756
0.000853954
0.00126837
0.000999529
0.00107684
0.00132228
0.000921814
0.000313314
0.000246
0.000263299
0.000511044
8.83742e-06
0.000851913
0.00145106
0.00143915
0.00116181
0.000799893
0.000664336
0.000329609
0.000186509
0.000322027
0.000405089
0.000434466
0.000173865
0.000118899
0.000383865
0.000421148
3.25361e-05
0.000118438
0.000395938
0.000143854
4.25573e-05
0.000498647
0.000454258
0.0195706
0.0140685
0.0092951
0.00617163
0.00462783
0.0043482
0.00466219
0.00556366
0.0062013
0.00700813
0.00709307
0.00641154
0.00485009
0.00284785
0.000816859
0.000487574
0.001084
0.00038047
0.00331529
0.0073509
0.0172924
0.0125131
0.00840957
0.00557508
0.00442678
0.0039724
0.00448203
0.00492972
0.00570402
0.00624926
0.00657749
0.00575878
0.00462326
0.00282189
0.000974557
0.000456733
0.000616463
0.000571883
0.00328408
0.00682937
0.0149038
0.0109532
0.00755735
0.00490801
0.00399881
0.0034135
0.00374687
0.00434993
0.0049958
0.00553829
0.00584323
0.00511488
0.00392803
0.00262048
0.0010674
5.73895e-06
0.00030898
0.000991193
0.00328597
0.00604752
0.0122637
0.00939863
0.00617194
0.00423791
0.00334915
0.00327209
0.00318012
0.0038821
0.0042892
0.00464299
0.0049554
0.0045049
0.00355888
0.00249725
0.00108502
0.000290032
2.47783e-05
0.000823841
0.00293544
0.00517824
0.0097553
0.00748228
0.00480997
0.00368778
0.00257906
0.00235465
0.0026165
0.00310063
0.0035649
0.00369552
0.00419051
0.00361711
0.00278684
0.00210506
0.000838886
0.000249326
0.000265907
0.000780689
0.00229088
0.00409241
0.00713523
0.00537175
0.00393321
0.0025583
0.00196293
0.00173067
0.00191479
0.00219358
0.00256569
0.00280643
0.00276379
0.00257197
0.00223882
0.00146275
0.000540154
0.000182109
9.70657e-05
0.000573927
0.00183869
0.00310639
0.00417452
0.00327424
0.00225154
0.00143102
0.00138224
0.00137771
0.00135413
0.00129511
0.00153675
0.00184975
0.00186669
0.00138272
0.0011189
0.00117665
0.000586413
8.16587e-05
0.000266811
0.000295581
0.000986226
0.00186416
0.00151708
0.00121353
0.000667946
0.000264315
0.000350391
0.000360253
0.000640766
0.000454356
0.00051394
0.000576931
0.00056626
0.000634214
0.000698536
0.000142869
6.56751e-05
4.67188e-05
8.43934e-05
2.20284e-05
0.000314789
0.000670181
0.0206209
0.0156069
0.0109676
0.00797856
0.00626824
0.0060533
0.0064287
0.00727704
0.00832066
0.00952394
0.00969272
0.00881369
0.00729336
0.00528579
0.00298759
0.00131915
0.00101962
0.00237756
0.00501372
0.00897883
0.0181485
0.0138178
0.0096779
0.0069444
0.00571863
0.00535156
0.00605809
0.00663551
0.00767796
0.00849766
0.008689
0.00798862
0.00661833
0.00462368
0.00269808
0.00139591
0.00114906
0.00232366
0.00486824
0.0081145
0.0156594
0.0120724
0.00854834
0.00613918
0.00506512
0.00466326
0.00520754
0.00581903
0.00679687
0.00736072
0.00761466
0.00713467
0.00613646
0.00431183
0.00268695
0.00139159
0.00128552
0.00219636
0.00441071
0.00722867
0.0131388
0.010098
0.00717321
0.00535434
0.00433473
0.00395757
0.00449241
0.00498428
0.00575924
0.00646014
0.00648903
0.00597501
0.00498146
0.00374472
0.00241804
0.00164221
0.00129443
0.00217262
0.00382497
0.00615144
0.0102099
0.00799753
0.00584045
0.00413962
0.00340018
0.00310869
0.00363227
0.00376777
0.00450543
0.00512722
0.00521276
0.00494877
0.00401454
0.00315256
0.00198885
0.00151091
0.00114798
0.00170945
0.00345588
0.00507001
0.00757858
0.00594687
0.00424036
0.00330745
0.00245934
0.00234525
0.00259297
0.00293668
0.00351341
0.00380347
0.00367987
0.00342682
0.00296283
0.00215537
0.00131274
0.00112759
0.000917812
0.00133039
0.0024658
0.00389547
0.00470505
0.00363501
0.00266856
0.00188161
0.00165263
0.00139913
0.00164792
0.00161648
0.00228839
0.00249687
0.00248579
0.00209181
0.00178173
0.00160526
0.00101908
0.000605358
0.000532933
0.000843873
0.0017343
0.00217742
0.00159422
0.00134845
0.00110315
0.000793468
0.000487298
0.000370145
0.000613348
0.000819614
0.000687704
0.000726332
0.000670849
0.000879102
0.000636794
0.000480928
0.000213356
6.14784e-05
0.00034538
0.000241813
0.000466823
0.000896129
0.0216853
0.0166673
0.0124048
0.00934468
0.00782278
0.00735614
0.00804313
0.00924279
0.0103602
0.0116322
0.0117086
0.0109793
0.00931062
0.00693413
0.00478229
0.00323761
0.00288948
0.00402389
0.00657094
0.0102605
0.0188642
0.0148177
0.0110596
0.00843361
0.0070335
0.00685883
0.0072494
0.00794608
0.00938003
0.0101619
0.0103392
0.00981549
0.00847336
0.0064426
0.00453962
0.00319691
0.00287665
0.00381585
0.00635528
0.00934081
0.0165054
0.0128412
0.00968284
0.0074426
0.00636299
0.0059937
0.00653346
0.00701386
0.0082755
0.00890295
0.00934106
0.00871088
0.00739488
0.00574264
0.00430764
0.00314907
0.00287792
0.00342419
0.00556036
0.00831321
0.0135448
0.0106429
0.00813941
0.00610474
0.0052323
0.00522026
0.00550291
0.00602582
0.00673142
0.00726999
0.00772813
0.00753132
0.006328
0.00486156
0.00359576
0.00267403
0.00277222
0.00315579
0.00507096
0.00698754
0.010897
0.0086002
0.00628335
0.00488153
0.00444408
0.00396438
0.00445623
0.00511469
0.00542918
0.00616876
0.00646606
0.00580584
0.00497719
0.00403206
0.00291804
0.00212249
0.00202781
0.00272168
0.00396722
0.00557675
0.00797021
0.00653071
0.00467336
0.00369683
0.00300942
0.00291498
0.00343034
0.00381333
0.00426096
0.00424658
0.00441176
0.00427017
0.00380131
0.00296665
0.00234419
0.00182216
0.00179192
0.00199149
0.00325949
0.00428702
0.0047145
0.00401524
0.00311188
0.00233254
0.00204379
0.00196046
0.00181983
0.00236154
0.00244135
0.00284485
0.00272261
0.00273935
0.00227689
0.00201604
0.00123962
0.000830743
0.00107602
0.00139922
0.00176179
0.00239276
0.00176853
0.00125696
0.00116811
0.000795755
0.000651454
0.000711018
0.000588274
0.000872951
0.00116199
0.000927546
0.000913324
0.000753642
0.000805966
0.000618696
0.000495202
0.000452903
0.000225481
0.000221242
0.000622173
0.000891717
0.0222019
0.0175039
0.0133457
0.0104651
0.00902957
0.00869006
0.0092481
0.0103928
0.0119003
0.0127896
0.0133393
0.0122594
0.0107613
0.00872256
0.00657094
0.0049136
0.00409405
0.00491562
0.00777
0.0110756
0.0194822
0.0156958
0.0117254
0.0093506
0.00811099
0.00791898
0.00837187
0.00922153
0.0105293
0.0116035
0.0118878
0.0112346
0.00972412
0.00773575
0.00580573
0.00469329
0.00426965
0.00503412
0.00722997
0.0102392
0.0170325
0.0137166
0.0105061
0.00832924
0.0070231
0.00687327
0.00739924
0.00847137
0.00926184
0.0101369
0.0102855
0.00987586
0.00841647
0.0071107
0.00539254
0.00401444
0.00405549
0.00471861
0.00651073
0.00899127
0.014115
0.0112307
0.00876181
0.00701978
0.00587956
0.00574276
0.00617453
0.00680576
0.00782271
0.00841543
0.00864794
0.00813726
0.00747911
0.00629063
0.00477171
0.00368949
0.00372566
0.00405838
0.00583909
0.00769353
0.0112796
0.00908027
0.00682322
0.00572108
0.00491265
0.00481757
0.00497235
0.0055334
0.00640697
0.00676286
0.00705931
0.0066691
0.00596514
0.00500735
0.00366439
0.00284819
0.00274678
0.00364939
0.00454906
0.00611484
0.00837698
0.00641609
0.00523516
0.0041938
0.00346873
0.0035409
0.00340481
0.0040202
0.00466971
0.0050976
0.0050644
0.00490812
0.00437386
0.00373223
0.00280669
0.00215315
0.00212166
0.00227152
0.00341066
0.00435759
0.00524873
0.00372646
0.00336447
0.00268129
0.00209184
0.00208303
0.00240936
0.00245243
0.00291737
0.00303239
0.00334955
0.00330888
0.00256704
0.00203851
0.00161911
0.00129127
0.00150375
0.00148455
0.00204994
0.00285465
0.00174277
0.00160341
0.00102642
0.000811061
0.000578573
0.000561245
0.000771913
0.000743486
0.00107401
0.000763879
0.000960236
0.00128375
0.00120838
0.00101058
0.000550524
0.000542752
0.000307811
0.00041493
0.000894884
0.000987591
0.0225414
0.0182535
0.0143366
0.0113807
0.0101754
0.00943018
0.0100379
0.011037
0.0125534
0.0135704
0.0140311
0.01333
0.0115507
0.00946435
0.00744247
0.00587374
0.00528829
0.00646432
0.0087369
0.0121287
0.0198971
0.0161574
0.0129604
0.00997525
0.00887144
0.00831287
0.00910875
0.00994008
0.0113624
0.012088
0.0125789
0.0120137
0.0104688
0.00881398
0.00690575
0.00554467
0.00542681
0.00614261
0.00817963
0.0107782
0.0169554
0.0139236
0.0108718
0.00880803
0.00789191
0.00765545
0.00789909
0.00888271
0.00996028
0.0107195
0.0110884
0.0106795
0.00931043
0.00793755
0.0062342
0.00511509
0.00472384
0.00552033
0.00736581
0.00960228
0.0142967
0.0119762
0.00924224
0.00745486
0.00656184
0.00625373
0.00682786
0.00761902
0.00843048
0.00913454
0.00930717
0.00883142
0.0079861
0.00680524
0.00543622
0.00450681
0.00412115
0.00470412
0.00630332
0.00825986
0.011199
0.00945624
0.00752298
0.00614136
0.00534598
0.00503166
0.00553504
0.00611773
0.00666189
0.00728403
0.0076547
0.00703723
0.00625802
0.00546319
0.00444583
0.00339829
0.00370042
0.00394884
0.00523206
0.0065942
0.00839095
0.00680822
0.00551274
0.00422153
0.00389859
0.00396755
0.00401348
0.00456195
0.00484407
0.00536566
0.005588
0.00543289
0.00473006
0.00370575
0.00329691
0.00235865
0.00250938
0.00312844
0.00389965
0.00462407
0.00506868
0.00423593
0.00332393
0.00286825
0.0025239
0.00235806
0.00249668
0.00262824
0.00322644
0.00327232
0.00346489
0.00314483
0.00273434
0.00251669
0.00188379
0.00159492
0.00182488
0.00190649
0.00227925
0.00289095
0.00180377
0.0016757
0.00103385
0.000809149
0.000688657
0.000915974
0.000906707
0.000911611
0.00104408
0.00120968
0.00119674
0.00135656
0.000852695
0.000718353
0.000575844
0.00075861
0.000840936
0.000733259
0.000436597
0.000921889
0.0226645
0.0183491
0.0144095
0.011656
0.0102949
0.00986429
0.0102801
0.0113044
0.0125384
0.0136623
0.0141297
0.0135095
0.0118133
0.00997479
0.00799119
0.00643588
0.00618448
0.00713892
0.00937857
0.0121318
0.019947
0.0161892
0.012783
0.0105486
0.00906548
0.00910315
0.009302
0.0102054
0.011372
0.01215
0.0124508
0.0121616
0.0108149
0.00890596
0.00725297
0.00583908
0.00567808
0.00664676
0.0085762
0.0111601
0.0170743
0.0142131
0.0113437
0.00932806
0.00833944
0.0078146
0.00817373
0.00907873
0.00997853
0.0107166
0.0112144
0.010577
0.00952792
0.00796416
0.00667847
0.0054847
0.00518378
0.00577568
0.00749587
0.0100166
0.0145638
0.0120012
0.00954304
0.00763334
0.00674124
0.00660582
0.00705296
0.00773123
0.00848083
0.00909108
0.00928777
0.00911835
0.0080887
0.00690093
0.00565015
0.0048945
0.00453942
0.00510914
0.00659986
0.00837157
0.0115457
0.00966734
0.00741525
0.00634849
0.00537898
0.00551857
0.00567786
0.00606021
0.00697728
0.00718164
0.00742737
0.00732876
0.00660119
0.005555
0.00473419
0.00367564
0.00384912
0.00455032
0.00540019
0.00694314
0.00851832
0.00689478
0.0057695
0.00478792
0.00410207
0.00372981
0.00407899
0.0045249
0.00504363
0.00543943
0.00549489
0.00529461
0.00495795
0.00416159
0.00315638
0.00286895
0.00301262
0.00350902
0.00407834
0.00515755
0.00502303
0.00436163
0.00339617
0.00279226
0.00220982
0.00231977
0.00243882
0.00280922
0.00287537
0.00344727
0.0033812
0.00340072
0.00321874
0.00243213
0.00223281
0.00171639
0.00193591
0.00191968
0.00239606
0.00293684
0.00181987
0.00160498
0.00116601
0.00117916
0.00106549
0.000976959
0.000933003
0.00116632
0.00100783
0.00113323
0.00119229
0.0010347
0.000910809
0.000808432
0.000739919
0.000500864
0.000457158
0.000709316
0.00103347
0.000896503
0.0220647
0.01815
0.0145042
0.011863
0.0103167
0.00970167
0.0100517
0.0110914
0.0121936
0.0130393
0.0135856
0.0127351
0.011368
0.00936652
0.00786898
0.00645053
0.00599208
0.00695288
0.00919274
0.0120525
0.0197744
0.0161234
0.0129142
0.0106301
0.00925064
0.00871133
0.00911335
0.010059
0.0109704
0.0117384
0.0122155
0.0115496
0.0103794
0.00869516
0.0069913
0.00622995
0.00608073
0.00653654
0.0086637
0.0108206
0.0170218
0.0140261
0.0112501
0.00918372
0.00811295
0.00783592
0.00791414
0.0087897
0.00958191
0.010265
0.0106324
0.010233
0.00914502
0.007848
0.00670558
0.00529239
0.0052878
0.00609064
0.00784134
0.00997687
0.0141324
0.011805
0.0096354
0.0078889
0.00695055
0.00640939
0.0069293
0.00725763
0.00806619
0.00861288
0.00882949
0.00886106
0.00759675
0.00656278
0.00549586
0.00490654
0.00478968
0.0050952
0.00635899
0.00840567
0.0113652
0.00948283
0.007581
0.0061904
0.00546188
0.00513168
0.00525522
0.00601002
0.00661656
0.00708395
0.0073941
0.00691133
0.00633838
0.00543844
0.00465031
0.00389604
0.00383165
0.00426231
0.00548658
0.00674325
0.00837739
0.00712636
0.00562624
0.00451454
0.00427641
0.00377786
0.00396521
0.00394776
0.00489787
0.00494527
0.0052857
0.005057
0.00470236
0.00384863
0.00316825
0.00272347
0.00266846
0.00327811
0.00407494
0.00514906
0.00515603
0.00413803
0.00340934
0.00271488
0.00258612
0.00224668
0.00235529
0.00259704
0.00300427
0.00327553
0.00335621
0.00313796
0.00289638
0.00239164
0.00208108
0.00204239
0.00179166
0.00198523
0.002377
0.00316706
0.00176046
0.00170088
0.00110521
0.000905069
0.0010496
0.000869386
0.00100898
0.000784302
0.00110007
0.00112597
0.001167
0.00135257
0.00124005
0.000928676
0.000661693
0.000640315
0.000525379
0.000462056
0.000946836
0.000978266
0.0212721
0.0175742
0.0138246
0.0112799
0.00933114
0.00903665
0.00919348
0.00989861
0.010982
0.0118465
0.0118905
0.0115848
0.0100693
0.00834504
0.00686182
0.00581017
0.00576286
0.00647117
0.00885146
0.0115542
0.0186585
0.0156885
0.0121253
0.0099368
0.00863173
0.00810916
0.00835324
0.00911321
0.00993568
0.0105988
0.0109158
0.0105344
0.00927056
0.00772015
0.00627944
0.00547157
0.00518063
0.00626669
0.00813546
0.0104411
0.0162894
0.0134427
0.0108318
0.00875765
0.00752098
0.00725453
0.00743917
0.00798457
0.00875722
0.00929596
0.00977563
0.00915166
0.00810246
0.00701403
0.00580071
0.00500672
0.00486229
0.00577663
0.00737434
0.00921365
0.0137806
0.0115661
0.00899422
0.00753415
0.00634123
0.00626575
0.00632002
0.00653848
0.0075602
0.00805205
0.00798445
0.00769612
0.0070724
0.00615701
0.00467225
0.00449875
0.00430976
0.00505093
0.00647706
0.0079032
0.0107751
0.00890496
0.00752995
0.0058442
0.00512389
0.00492411
0.00488223
0.00547565
0.00611168
0.00676589
0.00641068
0.00624478
0.00546482
0.00486418
0.00406191
0.00345266
0.00377254
0.00395407
0.00524687
0.00650034
0.00813812
0.00675226
0.00508679
0.00443178
0.00370278
0.00378363
0.00375104
0.00390867
0.00439874
0.00457957
0.00496521
0.00474399
0.00430362
0.00351177
0.00321756
0.00270921
0.00267505
0.00328082
0.00382633
0.00460115
0.00525393
0.00425234
0.00337192
0.00275519
0.0022241
0.002428
0.00232779
0.00231282
0.00272118
0.00289647
0.00280971
0.00305903
0.00266488
0.00214312
0.00185725
0.00172645
0.00168892
0.00165724
0.00229744
0.00308995
0.0015918
0.00156609
0.00127929
0.000690942
0.000768834
0.000808716
0.000565274
0.00109285
0.00107047
0.00117339
0.00123055
0.00097881
0.00082838
0.000635588
0.000528189
0.000947858
0.000418883
0.000397091
0.000723586
0.00112342
0.0198318
0.0161886
0.0126703
0.0101371
0.00853057
0.00781738
0.00789304
0.00833558
0.00940059
0.00972975
0.0101213
0.00938489
0.00844853
0.00694586
0.0054584
0.00462159
0.00443117
0.00554035
0.00745504
0.0102389
0.0176863
0.0145933
0.0113673
0.00907909
0.00755468
0.0072502
0.00706111
0.0077874
0.0085032
0.00908401
0.00900079
0.008767
0.00768727
0.00641644
0.00518088
0.00437444
0.00421449
0.00535927
0.00713607
0.00945425
0.0153297
0.0126092
0.0100846
0.00801773
0.00669805
0.00600819
0.00627542
0.00679894
0.00737391
0.00796378
0.0080422
0.0076654
0.0067344
0.00570716
0.00474254
0.00425757
0.0042813
0.004914
0.0063787
0.00859944
0.0129365
0.0106728
0.00824083
0.00689841
0.00574614
0.00533591
0.00541731
0.0055501
0.00670182
0.0066428
0.00692274
0.00668226
0.00612639
0.00481067
0.00395754
0.00358249
0.00364844
0.00453489
0.00563803
0.00709963
0.0102014
0.00845207
0.00681093
0.00560129
0.00469863
0.00433592
0.00419731
0.00487513
0.0050405
0.00546907
0.00541517
0.00510715
0.00479922
0.00388682
0.00363878
0.00303319
0.00297082
0.00360352
0.00462418
0.00578195
0.00759611
0.00644365
0.00498149
0.0038958
0.00336225
0.00340446
0.00317867
0.00354701
0.00361743
0.00410844
0.00430623
0.00387796
0.00358708
0.00286571
0.00253836
0.00230397
0.00232424
0.00257152
0.00347201
0.00449539
0.00464988
0.00384721
0.00315714
0.00264349
0.00196113
0.00227896
0.00203606
0.00239041
0.002286
0.00255156
0.00264545
0.00247929
0.00240399
0.00167139
0.00158614
0.00146005
0.00139317
0.00185185
0.00241689
0.00273891
0.00163515
0.00134058
0.00111427
0.000606359
0.000739078
0.000609924
0.00055952
0.000760178
0.000746011
0.000801091
0.000728444
0.00088191
0.000945817
0.000822485
0.000581459
0.000339785
0.00043356
0.000539355
0.000705255
0.00111536
0.0183426
0.0145113
0.0109027
0.00848258
0.00678111
0.00615259
0.00612947
0.00653203
0.00703715
0.00740852
0.00754236
0.00678869
0.0059752
0.00464852
0.00344628
0.0026957
0.00274251
0.00372096
0.00609752
0.00851668
0.0161361
0.0130636
0.00995348
0.00761348
0.00645028
0.00537677
0.00552101
0.00580907
0.00644693
0.00671896
0.00664022
0.0065001
0.00550021
0.00439153
0.00345643
0.00287336
0.0032702
0.00389415
0.00599012
0.00808948
0.0139556
0.0115313
0.00865827
0.00692039
0.0055817
0.00499182
0.00499026
0.00533701
0.00571706
0.00602168
0.00606217
0.00600045
0.00521533
0.00414555
0.00338577
0.00271617
0.00294657
0.00373801
0.00525146
0.00708682
0.0119944
0.00969
0.00757506
0.00601097
0.00479593
0.00429066
0.00435583
0.00451136
0.0049993
0.00520211
0.00522979
0.00484509
0.00454759
0.00362122
0.00324649
0.00261999
0.00262941
0.00336546
0.00478188
0.00624399
0.00930642
0.00782929
0.00575301
0.00457373
0.00366164
0.00323095
0.00338404
0.00360037
0.00405989
0.00402206
0.00418081
0.00417221
0.00364417
0.00295721
0.00229713
0.00208451
0.00231994
0.00311661
0.00405283
0.00508651
0.00710419
0.00557223
0.00444151
0.0034635
0.00296357
0.00261132
0.00224753
0.00274619
0.00310235
0.003217
0.00313657
0.00293619
0.00262332
0.0021278
0.00195855
0.00147946
0.00186469
0.00224583
0.00302202
0.00378757
0.00419842
0.00357946
0.00280614
0.00222177
0.00173775
0.00172012
0.00163793
0.00148264
0.00179547
0.00192005
0.00214543
0.00199325
0.00161443
0.00158614
0.00116235
0.000814177
0.000823152
0.00106912
0.00181776
0.00233711
0.00164198
0.00142359
0.000940851
0.000572547
0.000625169
0.00061513
0.000903008
0.00084277
0.000924537
0.000666381
0.000657625
0.000693457
0.00068963
0.000518576
0.00040952
0.000216212
0.000429352
0.000526368
0.000620794
0.000773369
0.015784
0.0124906
0.0090647
0.00651336
0.00474757
0.00377782
0.0037266
0.00383179
0.00404631
0.00438408
0.00443496
0.00373442
0.00300206
0.00192964
0.00121934
0.000541992
0.000540627
0.00189458
0.00404916
0.00649396
0.0142024
0.0112467
0.00797393
0.0059547
0.00434965
0.00361612
0.00354624
0.00348882
0.00383471
0.00416731
0.00406814
0.00358311
0.00269403
0.00187677
0.00147011
0.00100548
0.001136
0.00189866
0.00376106
0.00607271
0.0123778
0.00992279
0.00744855
0.00517932
0.0039769
0.00336421
0.00329777
0.00318005
0.00367977
0.00366147
0.00376973
0.00354748
0.00259851
0.00209428
0.00156508
0.00116513
0.00131945
0.00213136
0.00397562
0.00559816
0.0105304
0.00830222
0.00598621
0.00450898
0.00345303
0.00282658
0.00278041
0.00278436
0.00306647
0.00325389
0.00310231
0.00291109
0.00253997
0.00212909
0.00137474
0.000853373
0.00142924
0.0019362
0.00346834
0.00486166
0.00831374
0.00668029
0.00491102
0.00365111
0.00261331
0.00217901
0.00227713
0.00243351
0.00253103
0.00267885
0.00268421
0.00231785
0.00212107
0.00184704
0.00129835
0.000786417
0.00120223
0.00163586
0.00298193
0.00409628
0.00593044
0.00497771
0.00367186
0.00240666
0.00208061
0.00159542
0.00185084
0.0017666
0.00173324
0.0018943
0.00161255
0.00195529
0.00144766
0.00128169
0.000871048
0.000990913
0.000808839
0.00127756
0.00218376
0.00309579
0.00364057
0.00329659
0.00218381
0.00154134
0.000975413
0.00108341
0.000719597
0.00109447
0.00133037
0.00116607
0.00131315
0.00093656
0.0011609
0.000744208
0.000508261
0.000368042
0.000635617
0.000972489
0.00159409
0.00169376
0.00152858
0.000961827
0.000634851
0.000541228
0.000477791
0.000287084
0.000408565
0.000515533
0.000348606
0.000306313
0.000451552
0.000342427
0.000286289
0.000173324
0.000346053
0.00013445
9.68861e-05
0.000278922
0.000670248
0.000716521
0.0132902
0.00978435
0.00651811
0.00375524
0.00217018
0.00113369
0.000673682
0.000720378
0.000997375
0.0011249
0.000719644
0.000580468
0.00029611
0.00107872
0.00179658
0.00215727
0.00206159
0.000620047
0.00156501
0.00382034
0.0118681
0.00890527
0.00582487
0.00353858
0.00216283
0.00115336
0.000925669
0.0010255
0.0011412
0.00101551
0.000899003
0.000620805
7.42504e-05
0.000352692
0.001395
0.00139566
0.00127806
0.000174698
0.00176726
0.00375682
0.0103441
0.00783116
0.00527998
0.00322874
0.00191573
0.00141661
0.000895977
0.00097773
0.00110086
0.00111333
0.00102417
0.00106234
0.00033119
0.000425564
0.000732924
0.00107834
0.00056547
0.000204862
0.00183037
0.00378812
0.00875262
0.00668679
0.00458924
0.0028522
0.00179051
0.00111477
0.00107438
0.00086491
0.00103967
0.00108972
0.00125549
0.000850622
0.000608599
0.000105494
0.000521449
0.00058943
0.000479475
0.000521682
0.00177157
0.00346827
0.00676931
0.00540214
0.00356533