/*--------------------------------*- C++ -*----------------------------------*\
| =========                 |                                                 |
| \\      /  F ield         | OpenFOAM: The Open Source CFD Toolbox           |
|  \\    /   O peration     | Version:  2212                                  |
|   \\  /    A nd           | Website:  www.openfoam.com                      |
|    \\/     M anipulation  |                                                 |
\*---------------------------------------------------------------------------*/
FoamFile
{
    version     2.0;
    format      ascii;
    arch        "LSB;label=32;scalar=64";
    class       volScalarField;
    location    "0";
    object      relativeErrorField;
}
// * * * * * * * * * * * * * * * * * * * * * * * * * * * * * * * * * * * * * //

dimensions      [0 0 0 1 0 0 0];

internalField   nonuniform List<scalar> 
3200
(
0.00597089
0.00657646
0.00781739
0.00943773
0.0117475
0.0138081
0.0162388
0.0185185
0.0199911
0.0209258
0.0210861
0.0203512
0.0188631
0.0171609
0.0148016
0.0128712
0.0108926
0.00928763
0.00816079
0.00788071
0.00527552
0.00566579
0.00666596
0.00792363
0.00985911
0.0120408
0.0141753
0.0160263
0.0172712
0.0183463
0.0184393
0.0177937
0.0163764
0.014673
0.0128373
0.0108398
0.00936052
0.00786317
0.00703576
0.00653926
0.00443037
0.00479002
0.00559944
0.00684052
0.00851242
0.0102343
0.0122545
0.0138249
0.0149767
0.0156859
0.0155674
0.0152271
0.0141361
0.0128176
0.0107259
0.00923516
0.00790516
0.00683341
0.00591674
0.00566522
0.00351457
0.00388887
0.00451899
0.0056535
0.00702815
0.00842532
0.0100087
0.0114839
0.012307
0.0126243
0.0129679
0.0127147
0.0116903
0.0103382
0.00927352
0.0076941
0.00647835
0.0055301
0.00489934
0.00444326
0.00254788
0.00301646
0.00368593
0.00471405
0.00537584
0.00630969
0.00787461
0.00915848
0.00964156
0.0103378
0.0100573
0.00989805
0.00918762
0.00812163
0.00718785
0.00608657
0.00502249
0.00420904
0.00381585
0.00357949
0.00184905
0.00224437
0.00266495
0.00354734
0.00388399
0.00477861
0.00554044
0.00661537
0.00714321
0.00720184
0.007539
0.00694627
0.00672167
0.0059649
0.00512297
0.00422424
0.00395247
0.00290014
0.0025381
0.0026829
0.00126134
0.00133902
0.00157436
0.00191701
0.00216274
0.00281436
0.00336609
0.00386798
0.0042968
0.00451475
0.0045406
0.00417228
0.00409196
0.00362752
0.0034146
0.00269151
0.00232748
0.00196635
0.00174137
0.00147592
0.000405654
0.000340423
0.000645771
0.000708459
0.000659708
0.00119637
0.00100727
0.00135415
0.00137965
0.00151542
0.00154726
0.00153482
0.00142015
0.00123503
0.00126412
0.000818954
0.000429192
0.000527428
0.000673914
0.000442502
0.00426611
0.00471254
0.00581591
0.00756253
0.00951324
0.0117475
0.0140264
0.0158838
0.0178155
0.0184822
0.0186591
0.0180441
0.0163765
0.014733
0.0125827
0.0104844
0.00883674
0.00722966
0.00636822
0.00604058
0.00358601
0.0041478
0.00490373
0.00641011
0.00820755
0.0102972
0.0121499
0.0140955
0.0153231
0.0163031
0.0162946
0.0157831
0.0144962
0.0130085
0.0110395
0.00917195
0.00749078
0.00614416
0.00541345
0.00511896
0.00312451
0.00339641
0.00453384
0.00545341
0.00698858
0.00868827
0.0103902
0.0121212
0.0132283
0.0138739
0.0142191
0.0134584
0.0125878
0.0112519
0.00947857
0.00795457
0.00634368
0.00536423
0.00455005
0.00443614
0.00263405
0.00267007
0.00335919
0.00466559
0.00567844
0.00721645
0.00895005
0.00970807
0.0110065
0.0114814
0.0117319
0.0113481
0.0103446
0.0090856
0.00772875
0.00646481
0.00538061
0.0043403
0.00379813
0.00350299
0.00188988
0.002063
0.00248822
0.00372971
0.00458293
0.00588164
0.0066981
0.00766119
0.00896509
0.00925473
0.00937457
0.00879175
0.0081144
0.00704997
0.005994
0.00505509
0.0044075
0.00339733
0.00275195
0.00265712
0.00161212
0.00170506
0.00221402
0.00262094
0.00306837
0.00432371
0.00506036
0.00583438
0.00631671
0.00677735
0.00669961
0.00640249
0.00589154
0.00522827
0.00433538
0.00365903
0.00288946
0.0024871
0.00206853
0.00209715
0.000991658
0.000897729
0.00130515
0.00145901
0.00200142
0.00256308
0.0030518
0.00348872
0.00397274
0.00411945
0.00400884
0.00410213
0.0035557
0.00317742
0.0027506
0.00235623
0.00181732
0.00148869
0.00140611
0.00133953
0.000255727
0.000122392
0.000313772
0.000519977
0.000695992
0.000970199
0.000945866
0.00108467
0.00111403
0.00136416
0.00138735
0.00146892
0.00120911
0.00112329
0.000862418
0.000712742
0.000611984
0.000247201
0.000415084
0.000351922
0.00203667
0.00250106
0.00318008
0.00468653
0.00656349
0.00864459
0.0109019
0.0132253
0.014493
0.01543
0.0156626
0.0151412
0.0137008
0.0117953
0.00960436
0.00789619
0.00630735
0.00464735
0.00414199
0.00379988
0.00158677
0.00195695
0.0029715
0.00429138
0.0059126
0.0076101
0.00956375
0.0114263
0.0127523
0.013618
0.0136801
0.0130919
0.0120651
0.0105043
0.00848745
0.00681998
0.00535317
0.00415631
0.00356455
0.00337574
0.00128149
0.00204172
0.00228781
0.0035717
0.00476411
0.00677433
0.00805676
0.00975877
0.010919
0.011409
0.0116384
0.0112315
0.0102074
0.00905437
0.00722412
0.00594985
0.00464236
0.003527
0.00296779
0.00274069
0.00119011
0.00146709
0.00188099
0.00303994
0.00416358
0.00557492
0.00676709
0.00827235
0.0090032
0.00991896
0.00967732
0.00927268
0.00852811
0.00727694
0.00615341
0.00485847
0.00372153
0.00299479
0.00227751
0.00224342
0.000944048
0.00121651
0.00158075
0.00205993
0.0032031
0.00426271
0.00535887
0.00658216
0.00720043
0.00772405
0.00784405
0.0073543
0.00669258
0.00592593
0.00479414
0.00379677
0.00279495
0.00208508
0.00180525
0.00180822
0.000635187
0.000689045
0.00107123
0.00172542
0.00246406
0.00321448
0.00401528
0.00476708
0.00538557
0.00567246
0.00564741
0.0053249
0.00481294
0.00416132
0.00364924
0.00294018
0.00212384
0.00161604
0.00145996
0.00116455
0.000357777
0.000500528
0.000717713
0.00110326
0.00136576
0.0020834
0.0022448
0.00275551
0.00328822
0.00359722
0.00341302
0.00331756
0.00289267
0.00282874
0.00215047
0.00141574
0.00132652
0.00122909
0.000956451
0.000395743
0.000127852
2.95335e-05
0.000587965
0.000472692
0.000357279
0.000746035
0.00100286
0.000921859
0.00104081
0.00131467
0.00113847
0.00104601
0.00101031
0.000972809
0.00071259
0.000390689
0.000352872
0.000222564
0.000287385
0.000195238
0.00011571
3.91068e-05
0.000958855
0.00221855
0.00384076
0.00579035
0.00792787
0.00977867
0.0112335
0.0119544
0.0122731
0.0116593
0.0106105
0.00900958
0.00702221
0.00533956
0.00361595
0.00250146
0.00175066
0.00170923
0.000120811
0.000193463
0.000839417
0.00176814
0.00340629
0.00516856
0.00715199
0.00852658
0.009847
0.0105347
0.010871
0.0102237
0.0091808
0.00772044
0.00615566
0.00452453
0.00318392
0.00225143
0.00159124
0.00133556
0.000308664
0.000212375
0.000446938
0.0015939
0.00298297
0.0044575
0.00596182
0.00726364
0.00844501
0.00917793
0.00931435
0.00888984
0.00791715
0.00672205
0.00540446
0.00405205
0.0027449
0.00197363
0.00130354
0.00122004
0.000145941
5.5821e-06
0.000631734
0.00126324
0.00237026
0.00367444
0.00497379
0.00599953
0.00715872
0.00742592
0.00774999
0.00730608
0.00651118
0.00538319
0.00436592
0.00324061
0.00212086
0.00160914
0.000871833
0.000839679
0.000295378
1.79302e-07
0.000466969
0.00104227
0.00192344
0.00300795
0.00388925
0.00467009
0.00568418
0.00591707
0.00596473
0.00594771
0.00502191
0.00443129
0.0033847
0.00232225
0.00174821
0.00121596
0.000661673
0.000756033
0.000291302
0.000101747
0.00018761
0.000655112
0.00153848
0.00238106
0.00301421
0.00326444
0.00411312
0.00445472
0.00457348
0.00458633
0.00390139
0.00336721
0.00228785
0.00184618
0.00133661
0.000760653
0.000626351
0.000281884
0.000105645
3.86881e-06
1.56709e-05
0.000453749
0.000715937
0.00143467
0.00174239
0.00204207
0.00231884
0.00263102
0.00270587
0.0024162
0.00228822
0.00177057
0.00145524
0.00100728
0.000922063
0.00056805
0.000325178
0.000305959
0.000175156
4.08907e-05
0.000201628
0.000134619
0.000327252
0.000380326
0.000573606
0.000681922
0.000804194
0.00108407
0.000909421
0.000995612
0.000798252
0.000870714
0.000448087
0.000374154
1.48763e-05
0.000141843
0.000244656
0.000234947
0.00202153
0.00192815
0.00124462
1.98511e-06
0.00131114
0.00309126
0.00502699
0.00670975
0.00795919
0.00878627
0.00914981
0.00829323
0.00759858
0.00594328
0.00435283
0.0026629
0.00151506
0.000410963
3.74081e-05
4.76588e-06
0.00162821
0.00173622
0.00115015
0.000190239
0.00137708
0.00260314
0.00452234
0.00595962
0.00735951
0.00784076
0.00806419
0.00741887
0.00664148
0.00520645
0.00368004
0.00260777
0.00117544
0.000306218
2.89501e-05
3.36493e-05
0.00159628
0.00133101
0.000866414
0.000195988
0.000975427
0.00250851
0.00377101
0.00498984
0.00612584
0.00653478
0.00664713
0.00641342
0.00585557
0.00439342
0.0031923
0.00182365
0.000799831
0.00026332
1.26179e-05
8.1772e-05
0.00143041
0.00124367
0.000851133
9.216e-05
0.00119669
0.00199062
0.00318341
0.00404265
0.00503164
0.00562835
0.00571767
0.00501551
0.00459723
0.00375712
0.00262282
0.00181413
0.000823898
0.00033562
0.000179789
1.06857e-05
0.000941625
0.00103142
0.000604678
0.00018999
0.000927436
0.00167096
0.00270699
0.00329304
0.0040134
0.00429175
0.00445149
0.00444969
0.0036745
0.00285442
0.00226333
0.00134261
0.000550614
0.000206969
0.000167641
0.000137095
0.000716149
0.000745822
0.000323543
2.71748e-05
0.00043681
0.00125279
0.00181635
0.00251462
0.00298605
0.00317326
0.00336729
0.00326505
0.00285493
0.00207476
0.00126674
0.000968197
0.000357538
0.000240533
5.22353e-06
6.82154e-05
0.000476478
0.000408621
0.000267915
5.50853e-05
0.000356288
0.000664642
0.0012066
0.00148115
0.00171374
0.00197497
0.00196464
0.00195987
0.00181824
0.0014498
0.000981052
0.000369823
0.000340985
0.000107407
1.18839e-05
8.62841e-05
3.90961e-05
5.34263e-05
0.000246004
5.88266e-05
1.30218e-05
0.000238477
0.000372154
0.000271685
0.000558516
0.000709663
0.00077507
0.000595151
0.000557795
0.000410241
0.000353841
0.000193567
0.000127521
2.57057e-05
5.10383e-05
0.000222692
0.00340393
0.00339894
0.0031351
0.00216849
0.00101125
0.000767269
0.00234389
0.00384426
0.0051637
0.00599462
0.00590215
0.00546485
0.00440749
0.00339853
0.00192418
0.000457141
0.000559449
0.00137923
0.00161637
0.00143698
0.00305624
0.00304638
0.00274213
0.00195772
0.000776343
0.000594069
0.00215694
0.00347778
0.00450474
0.00498332
0.00522908
0.00477281
0.00415334
0.00289071
0.00143098
0.000475659
0.000568982
0.00112631
0.00124599
0.00137418
0.0026635
0.00280753
0.00212387
0.00164999
0.000551612
0.000480786
0.00169811
0.00304452
0.00386469
0.00426244
0.00453834
0.00417975
0.00343059
0.00249108
0.00120918
0.000543109
0.000448814
0.000977892
0.00123324
0.00101902
0.00236171
0.00209379
0.00193316
0.00150515
0.000566274
0.000507543
0.00156327
0.00242133
0.00308712
0.00360323
0.00385726
0.00351682
0.00282132
0.00196374
0.00100318
0.000327774
0.000420758
0.00103176
0.000997033
0.000849411
0.00158665
0.00180892
0.0015346
0.00104408
0.000754575
0.000149977
0.00127061
0.00193215
0.00249366
0.00267512
0.00292972
0.00273081
0.00233881
0.00157318
0.0008714
0.000249832
9.71421e-05
0.000753896
0.000696463
0.000748797
0.00129331
0.00136907
0.00110801
0.000669737
0.000312348
0.000131959
0.000838274
0.00139017
0.00189931
0.00210368
0.00224981
0.00186507
0.0013808
0.0011527
0.000676271
8.39414e-05
0.000235464
0.000714444
0.000574273
0.000530083
0.00075006
0.000785263
0.000619947
0.000391852
0.000157271
1.77763e-05
0.000379762
0.000654481
0.000966131
0.00150557
0.0014697
0.00106716
0.000829992
0.000493104
0.000437598
4.0521e-05
0.000203112
0.000356898
0.000239331
0.000260944
0.000230039
0.000143551
0.000213108
4.70726e-05
0.000149141
2.2122e-05
0.000351532
0.000314459
0.000563836
0.000405493
0.000372048
0.000255165
0.000576849
0.000154869
7.83037e-05
0.000211461
3.20858e-05
0.000316511
0.000190024
0.00017009
0.00460304
0.00465374
0.0042506
0.00373776
0.00279309
0.00119613
8.60718e-05
0.00119745
0.00256052
0.00308114
0.00320789
0.00289183
0.00199344
0.000963622
0.000146491
0.00122362
0.00206309
0.00247376
0.00252995
0.00229351
0.0036361
0.00393664
0.00383743
0.00338399
0.00237014
0.001236
6.18512e-06
0.0013641
0.00217011
0.00271548
0.00286088
0.00232883
0.0019739
0.000862023
0.00014554
0.00112984
0.00205429
0.00234858
0.00229176
0.00217708
0.00343023
0.00369731
0.00336818
0.002937
0.00215202
0.00108026
9.07972e-05
0.00106819
0.00180479
0.00258803
0.0025137
0.00207508
0.0015896
0.000689964
0.000268901
0.00101104
0.00152026
0.00218402
0.00201274
0.00194038
0.00257283
0.00306129
0.00270497
0.00239594
0.00169934
0.000932869
0.000190466
0.000812696
0.00146513
0.00209623
0.00205374
0.00165383
0.00127528
0.000615864
0.00017944
0.000853327
0.00139469
0.0016872
0.00177629
0.00155858
0.00216072
0.00225985
0.00200055
0.00178837
0.00138394
0.000777296
1.44601e-05
0.000822745
0.00112788
0.0014702
0.00163745
0.00122346
0.00100844
0.000448753
0.000220082
0.000517355
0.00113653
0.00135825
0.00122924
0.00119362
0.0015778
0.00159922
0.00143299
0.00128761
0.00111326
0.000311514
5.45157e-05
0.000200571
0.000797931
0.00109913
0.00103825
0.00114184
0.000703123
0.000204182
0.000195081
0.000484836
0.000965251
0.000906821
0.00129358
0.000928256
0.000795129
0.00111365
0.000940427
0.00102753
0.000790004
0.00061822
0.000173132
0.000358895
0.000537451
0.000674132
0.000660335
0.000585265
0.00046317
0.000140873
3.0267e-05
0.000290525
0.000458258
0.000671472
0.000589876
0.000438116
0.000203158
0.000393539
0.000199325
0.000160526
0.000124325
0.000113494
0.000209657
0.000110986
2.87395e-06
0.000297536
3.91426e-05
0.00014565
8.15925e-05
0.000167904
1.55968e-05
0.000227688
1.34824e-05
0.000236089
0.000334077
0.000179322
0.00477252
0.00530569
0.00516423
0.00502899
0.00427944
0.00295301
0.00198154
0.000746843
0.00026695
0.00073626
0.00108526
0.000832423
7.51646e-05
0.000909362
0.00179231
0.0027312
0.00310957
0.00336672
0.0031212
0.00250577
0.00431596
0.00470241
0.00483008
0.0044393
0.00360366
0.00288722
0.00163175
0.000622513
0.000378283
0.000722744
0.000878633
0.000361765
0.00028469
0.000469911
0.00161445
0.00205071
0.00282028
0.00306157
0.00283258
0.00259183
0.00369769
0.00392796
0.00401408
0.00374144
0.00316589
0.00235015
0.0014313
0.000735372
2.46408e-05
0.000579214
0.000693136
0.000527946
0.000174311
0.000634115
0.00151213
0.00183867
0.00235907
0.00267133
0.00244984
0.0021059
0.00291646
0.0032191
0.00343597
0.00298673
0.00256596
0.00192416
0.00114011
0.000380207
0.000131696
0.00050037
0.0006774
0.000509217
3.2247e-05
0.000748253
0.00116828
0.00165756
0.00204109
0.0022216
0.00207543
0.00187044
0.00237495
0.00258222
0.00264554
0.0024768
0.00220728
0.00168535
0.00111098
0.000297917
0.000123411
0.000311181
0.000415628
0.000334551
0.000186258
0.000484211
0.000900566
0.00116543
0.00174644
0.00173847
0.00174333
0.00141633
0.00178363
0.00188877
0.001941
0.00182135
0.00149708
0.00127642
0.000610651
0.000386302
1.47025e-05
0.000242249
0.000419237
0.000308725
8.95712e-05
0.000249319
0.000643131
0.00080848
0.00108369
0.0013058
0.00123968
0.00104854
0.000828479
0.00128006
0.00142072
0.00114295
0.000856091
0.000616406
0.000556172
4.53419e-05
0.000165582
0.000140845
0.000166882
8.9175e-05
0.000102908
0.000342627
0.000490482
0.000693644
0.000764756
0.000796912
0.000714693
0.000541022
0.000599476
0.000324759
0.000495781
0.000319715
0.000362501
0.00045149
0.000269633
0.000131276
7.46305e-05
8.6414e-06
3.65039e-05
0.000129746
9.01823e-05
0.000136069
0.000246597
0.000258011
0.000183121
0.000150787
0.000386971
0.000265171
0.00477117
0.00536499
0.00556861
0.00537848
0.00513727
0.00415079
0.00344511
0.00214765
0.00136631
0.000908575
0.000906569
0.00108426
0.00133357
0.00207783
0.00292998
0.00360276
0.00381932
0.00368081
0.00334199
0.00249532
0.00405119
0.00470686
0.00481335
0.0049014
0.00447486
0.00374089
0.00275463
0.0018551
0.0015435
0.000921807
0.000953459
0.000970614
0.00133799
0.00185019
0.00251308
0.00301087
0.0033526
0.00306189
0.00289785
0.00221083
0.00372773
0.00418373
0.0044023
0.0042175
0.00379094
0.00315218
0.00244399
0.00168279
0.0010633
0.000907118
0.00090345
0.000689313
0.00124336
0.00164254
0.00213646
0.00266354
0.00287501
0.00260735
0.00252139
0.00192599
0.00295058
0.00317849
0.0034908
0.00346076
0.00320258
0.00268221
0.00197611
0.00146631
0.000763286
0.000541196
0.000559767
0.000772666
0.000854375
0.00121489
0.00178263
0.00231595
0.00251185
0.00240235
0.00201772
0.00164066
0.00237497
0.00242834
0.00271375
0.00285987
0.00233825
0.00207026
0.00154981
0.0011604
0.000802091
0.000446066
0.000496279
0.000766944
0.000832144
0.0012538
0.00144017
0.00180427
0.00189146
0.00194353
0.00139537
0.00153735
0.00199572
0.00181308
0.00220327
0.00202603
0.00198871
0.00147573
0.00119212
0.000877744
0.000686898
0.000330415
0.000387181
0.000434606
0.000725573
0.000878146
0.00104953
0.00120842
0.00132363
0.00118784
0.00116041
0.00114337
0.00105729
0.00118635
0.00125958
0.0012122
0.00122595
0.00100201
0.00052156
0.000442535
0.000232145
0.000256863
0.000368209
0.000307553
0.000217808
0.000415709
0.000686337
0.000731149
0.000826432
0.00101093
0.000766901
0.000643239
0.000455896
0.000521337
0.000518025
0.000394946
0.000404389
0.000314427
0.000427197
2.1438e-05
0.000146523
0.00020273
1.9944e-05
0.000110646
0.00010907
0.00022257
0.00034368
0.000368691
0.000128758
0.000410291
0.000311035
0.00021289
0.00401094
0.00499039
0.00539529
0.00533979
0.00530024
0.00478644
0.00403412
0.00323885
0.0025424
0.00228083
0.00210144
0.00229505
0.00263309
0.00293433
0.00341041
0.00370142
0.00359482
0.00349396
0.00261137
0.0017835
0.00363819
0.00445767
0.00474562
0.00477931
0.00477678
0.00418833
0.00354588
0.00284565
0.00231282
0.00210977
0.00160546
0.00189971
0.00233673
0.00270332
0.00293911
0.003073
0.00327926
0.00304027
0.00246541
0.00143062
0.00322871
0.00371255
0.00409149
0.00416048
0.00404755
0.00369308
0.00290042
0.00229753
0.00195346
0.00184185
0.00172761
0.00146893
0.00188133
0.00243848
0.00264171
0.00289384
0.00290131
0.00251884
0.00221736
0.00150512
0.00272033
0.00304521
0.00348693
0.00376968
0.00313733
0.00298004
0.00257162
0.0020927
0.00163186
0.00163567
0.00123483
0.00154167
0.00137049
0.00196834
0.00211423
0.00225825
0.00233202
0.00203106
0.00189707
0.00129623
0.00215303
0.00248033
0.00279933
0.00264953
0.00269419
0.00244558
0.00193111
0.00175391
0.00122688
0.00110831
0.00110844
0.0010161
0.00136835
0.00160918
0.00192419
0.00193631
0.00168389
0.00192761
0.00153927
0.00109787
0.00145378
0.00183094
0.0019201
0.00212179
0.00175523
0.00182763
0.0013053
0.00112937
0.000863431
0.00100879
0.000852303
0.00090366
0.000983706
0.00117893
0.00126975
0.00139482
0.00150415
0.001342
0.000967745
0.000680827
0.000958661
0.00101451
0.00132301
0.00129049
0.00114657
0.00130263
0.00100337
0.000753798
0.000739386
0.000447879
0.000389422
0.000551644
0.000517033
0.000849015
0.000966431
0.000696144
0.00103673
0.000909601
0.00058695
0.000534626
0.000384578
0.000433841
0.00043479
0.000385024
0.000341247
0.0004209
0.000297065
0.000382443
0.000224344
0.000182094
4.43178e-05
0.000519413
0.000278436
0.000168492
0.000267772
0.000471541
0.00027157
0.000455037
0.000286441
0.000111284
0.00282225
0.00390685
0.00438661
0.00502454
0.00499356
0.00450201
0.00414722
0.00380502
0.00309035
0.00300311
0.00282867
0.00264985
0.00278798
0.00291559
0.00323469
0.0034104
0.00312243
0.00227331
0.00129315
0.00064549
0.00268583
0.00332954
0.00407657
0.00420746
0.00450203
0.00408523
0.00377457
0.00310396
0.00277067
0.00245075
0.00229109
0.00237563
0.00249535
0.00277925
0.00285436
0.00291336
0.00276437
0.00219047
0.00159719
0.000717823
0.00241694
0.00291768
0.00346589
0.00373606
0.00389022
0.00350062
0.00334944
0.00294587
0.00238002
0.00217797
0.00199311
0.0022406
0.00227192
0.00248129
0.00258149
0.0025786
0.00255738
0.00207768
0.00135386
0.000337024
0.00174446
0.00227869
0.00293596
0.00322921
0.00318993
0.00293784
0.00260273
0.00246144
0.00209329
0.00190509
0.0015973
0.00186213
0.00203616
0.00203575
0.00218253
0.00217868
0.00217394
0.00150699
0.00115285
0.000609382
0.00137316
0.00189227
0.00246022
0.00243983
0.00249102
0.00242725
0.0021016
0.00196533
0.00163259
0.0015992
0.00146864
0.00138835
0.00145916
0.00162369
0.00168913
0.00154609
0.00160069
0.00132495
0.000917485
0.000268062
0.000945241
0.00135174
0.00165208
0.00183647
0.0018212
0.00162304
0.00170397
0.00142514
0.00126053
0.000820267
0.00102255
0.00111896
0.00125565
0.00120868
0.00137819
0.0012453
0.00119964
0.00106124
0.000664463
0.000257563
0.000732358
0.000840829
0.000964923
0.00111682
0.0011558
0.000897213
0.00102643
0.000842875
0.000717819
0.000673693
0.000690328
0.000891333
0.000505437
0.000861696
0.00084165
0.000970156
0.000715106
0.000488216
0.000356132
0.000273855
0.000116417
0.000440298
0.000299608
0.000284418
0.000308882
0.000236634
5.69387e-05
0.000390975
0.000226372
0.000322761
0.000625949
0.000342168
3.16359e-05
8.62812e-05
0.000380255
0.000178277
0.000316217
7.38109e-05
0.000170354
6.6738e-05
0.00103195
0.00220981
0.00314395
0.00390978
0.00419527
0.00401685
0.00382617
0.00353106
0.0030238
0.00276405
0.00260427
0.00248789
0.00243765
0.00264496
0.0025477
0.00255491
0.00179202
0.000975713
3.4206e-05
0.00125069
0.000904146
0.00182979
0.00302712
0.00345931
0.00363624
0.00355499
0.0032901
0.00300106
0.00273834
0.0024167
0.00238773
0.00226508
0.00212179
0.00232326
0.0022374
0.00208745
0.00170934
0.000980795
9.5829e-05
0.000839659
0.000880077
0.00158781
0.00249793
0.00305261
0.00317232
0.00291888
0.00300839
0.00246612
0.00222595
0.00207773
0.00213178
0.00201025
0.00196244
0.00190596
0.00209727
0.00184283
0.00157729
0.00101339
3.1313e-05
0.000708269
0.000410985
0.00133768
0.00210977
0.0023488
0.00249047
0.00249038
0.00239296
0.00214332
0.00220305
0.00163413
0.00162938
0.00181089
0.00147314
0.00162348
0.00167718
0.00152754
0.00109833
0.000870271
4.1577e-05
0.000665812
0.000624575
0.00117413
0.00159533
0.00180541
0.00200852
0.00189038
0.00185952
0.00187998
0.00141397
0.00123869
0.00147766
0.00127179
0.00110256
0.00134642
0.0015983
0.00111101
0.000948329
0.000646968
1.8615e-05
0.000634372
0.000402512
0.000677895
0.00117023
0.0013063
0.00143464
0.00156307
0.00156453
0.00101476
0.00116161
0.00111246
0.00105305
0.00101261
0.000924347
0.0009054
0.00113094
0.00103866
0.000915643
0.000438557
6.1239e-05
0.000236202
0.000246657
0.000448891
0.000722395
0.000780234
0.000528733
0.000970847
0.000895232
0.000638364
0.000844835
0.00085128
0.00053994
0.000758011
0.000699137
0.000679688
0.000645978
0.000609689
0.000346982
0.000102366
3.20257e-05
6.95268e-05
0.000112374
7.80831e-05
0.000108136
0.000100852
0.000412704
0.000191121
0.000292926
0.000425974
0.000274529
0.000308095
0.000110711
0.000269556
0.000402141
0.000196244
0.00038458
3.79508e-05
0.000113878
7.4499e-05
0.000110861
5.80899e-05
0.00126968
0.000191473
0.00106178
0.00198425
0.00256896
0.00252247
0.00264781
0.00237685
0.00200736
0.00222099
0.0017972
0.00177163
0.00166482
0.0013556
0.00124718
0.000682396
3.92591e-05
0.0010372
0.00231472
0.00360382
0.000954577
0.000231803
0.00103567
0.00181041
0.00223878
0.00237702
0.00224022
0.00216836
0.0021263
0.00181812
0.0016709
0.001415
0.00137939
0.00148707
0.00110249
0.000653936
0.000200657
0.000607593
0.0022644
0.00328006
0.000848992
3.24227e-05
0.000837752
0.00150112
0.00176256
0.00209559
0.0020224
0.00175945
0.00180374
0.00156487
0.00136936
0.0013946
0.00141698
0.00135717
0.000919175
0.000725259
0.000199691
0.000620296
0.00158114
0.00249908
0.00080814
8.13322e-05
0.00069029
0.000995643
0.00129325
0.00177822
0.00171311
0.00134474
0.00142056
0.00122518
0.00110335
0.00103674
0.001044
0.000942387
0.000961909
0.000488257
7.49653e-05
0.000536526
0.00132839
0.00240713
0.000581449
7.78011e-05
0.000696261
0.000908523
0.00116004
0.0014536
0.00136976
0.00140517
0.0011623
0.00116181
0.00110024
0.0011214
0.000912468
0.000744362
0.000751298
0.000388128
0.000252938
0.000230389
0.00121664
0.00158355
0.000578718
3.85675e-05
0.000666612
0.000773087
0.000910982
0.0010212
0.000879515
0.000815862
0.000851419
0.000922319
0.000784744
0.000668611
0.000562869
0.000703432
0.000508651
0.000289769
0.000103495
0.000413763
0.000822929
0.00120188
0.000351902
6.8914e-05
0.000361179
0.000570039
0.000619638
0.000574684
0.000717611
0.000474987
0.00051205
0.000384145
0.000396024
0.000502782
0.000554989
0.000365874
0.000565007
0.000200485
8.25605e-05
1.12612e-05
0.000249808
0.000778135
0.000161669
6.67015e-05
8.47579e-05
0.000291337
0.000106604
0.000207635
0.000183422
0.000382964
0.000146431
0.000286989
0.000321831
0.000149268
2.34784e-05
8.7587e-06
0.000125453
2.83045e-05
2.26777e-05
4.84695e-05
0.000115087
0.00043248
0.00425065
0.00296369
0.00139095
0.000480066
0.000381007
0.000782865
0.000783272
0.000881004
0.000750086
0.000551449
0.000341299
7.45694e-05
5.20578e-05
0.00011305
0.000746812
0.00149833
0.00242885
0.00364422
0.00531314
0.00672423
0.00368836
0.00251298
0.00129043
0.000377994
0.000238759
0.000735
0.000785273
0.000640573
0.00077309
0.000372215
0.000397279
1.05021e-05
3.32396e-05
8.18169e-05
0.000726466
0.00139199
0.00207331
0.00308597
0.00473971
0.0058501
0.0031065
0.00222023
0.00111746
0.000260668
0.000256785
0.000479798
0.000744368
0.000588938
0.00048432
0.000310016
0.000378252
0.000312991
3.05955e-05
9.03566e-05
0.000542741
0.000968782
0.00176125
0.00257317
0.00397301
0.00491903
0.00272409
0.00177966
0.000776974
0.000173227
0.000386899
0.000156455
0.000599507
0.000595563
0.000448955
0.000462228
0.000255405
0.000320274
1.57384e-06
1.73401e-05
0.000392483
0.00101118
0.00145364
0.00221051
0.00345732
0.00411068
0.00218922
0.00143459
0.00054462
0.000254418
0.000146611
0.000401132
0.000450249
0.000506489
0.000375684
0.000148363
0.000269015
4.65379e-05
1.25977e-05
0.000228563
0.00029202
0.000750423
0.00116731
0.00192769
0.00238665
0.00325434
0.00177458
0.00105807
0.000499544
0.000225323
5.65222e-05
0.00037676
0.000362437
0.000145121
0.000378032
0.000174853
1.05197e-05
0.000257533
0.000174396
2.60703e-05
0.000320553
0.000561432
0.000744529
0.00130352
0.00190252
0.00246426
0.000893042
0.000587498
0.000231756
0.00014543
8.75744e-05
0.000117938
0.000219951
0.000173837
0.0002637
9.03853e-05
0.000212945
2.01534e-05
9.81224e-05
0.000224213
0.000135157
0.000305119
0.000626934
0.000816013
0.00125849
0.00146964
0.000407393
1.82559e-06
0.000239233
7.65897e-05
0.000106084
9.42112e-05
6.61265e-05
7.22914e-05
0.000207639
9.59443e-05
0.000128915
2.79676e-05
4.7539e-05
0.000381013
0.000266899
0.000170272
0.000251202
0.000278937
0.000408344
0.000460255
0.00799917
0.00632201
0.00463973
0.00329083
0.00245745
0.00199001
0.00144481
0.00162744
0.00163665
0.00189079
0.00202435
0.00208182
0.00241846
0.00281239
0.00341487
0.00446215
0.00534841
0.00700301
0.00855703
0.0104541
0.00694496
0.00575257
0.00399515
0.00312775
0.00222216
0.00188668
0.00156121
0.00120941
0.0012506
0.00158753
0.00174319
0.00180608
0.00196415
0.00260779
0.00300952
0.00382102
0.00481315
0.00616631
0.00767564
0.00891544
0.00579175
0.00510482
0.00365739
0.00277731
0.00201924
0.0016705
0.00115071
0.00131731
0.00118001
0.00133654
0.00167748
0.0014321
0.00168103
0.00193988
0.00251006
0.00331696
0.00394776
0.00526463
0.00674629
0.00781396
0.00494928
0.00398011
0.00295017
0.0020373
0.00176265
0.00136633
0.00110391
0.0010366
0.000878663
0.00112732
0.00107761
0.00136589
0.00153058
0.00169203
0.00214493
0.002632
0.00357514
0.00433574
0.00537718
0.00631558
0.00407287
0.00328469
0.00220128
0.0016505
0.00155721
0.00090108
0.000841708
0.000814156
0.000737364
0.000933736
0.000825938
0.00106906
0.00122531
0.00155241
0.00163162
0.00225101
0.00268626
0.00329398
0.00427607
0.0052402
0.00275879
0.00234394
0.00178892
0.0012561
0.000976727
0.000538591
0.00073672
0.000623915
0.000579706
0.000547538
0.000653193
0.000675123
0.000832156
0.00108558
0.00123262
0.00150689
0.00187137
0.00251662
0.00330091
0.00347902
0.00179959
0.00129178
0.00113239
0.000821566
0.000608369
0.00029597
0.000582128
0.000293089
0.000242619
0.000500952
0.000411123
0.000417718
0.000520387
0.000824795
0.000762681
0.000935031
0.00116069
0.00158324
0.00199337
0.00244067
0.00067442
0.000545753
0.00021857
0.000432161
0.000303814
0.000236229
0.000181227
0.000128547
6.0874e-05
0.000103612
8.33719e-06
0.000265036
0.000218136
0.000183052
0.000293139
0.000279163
0.000474947
0.000567692
0.000865085
0.000856061
0.0122911
0.0103214
0.00871722
0.00728779
0.00627924
0.00540542
0.00481545
0.00473446
0.00454164
0.0045599
0.00482388
0.00516714
0.00553953
0.00611018
0.00693647
0.00805947
0.00913826
0.0109131
0.0127093
0.01459
0.0107473
0.00919783
0.00792264
0.00651259
0.00546045
0.0046769
0.00420844
0.00390132
0.00415329
0.0039834
0.00419204
0.00446008
0.00465649
0.00539026
0.0060962
0.00692567
0.00816359
0.00969514
0.0111859
0.012934
0.00930066
0.00801363
0.00678509
0.00548138
0.00481961
0.00411483
0.0036644
0.00362142
0.00340103
0.00357662
0.0037006
0.00380209
0.00398852
0.00465593
0.00510514
0.00576244
0.00687618
0.00844129
0.00951361
0.010956
0.00779663
0.00662218
0.00548875
0.00481659
0.00403163
0.00342488
0.00337245
0.00292618
0.0029834
0.00297101
0.00303897
0.00314403
0.00359181
0.00385633
0.00452122
0.0049082
0.00596204
0.00693527
0.00815978
0.0091046
0.00609945
0.005211
0.00452737
0.00360799
0.00315041
0.00281655
0.00252342
0.00235575
0.00240401
0.0021591
0.00230106
0.00248967
0.00269643
0.00295048
0.00340937
0.00396913
0.00460045
0.0053142
0.00643187
0.00711455
0.00425133
0.00385733
0.00317552
0.00251479
0.0022753
0.00188777
0.00158684
0.00168723
0.00143856
0.00175642
0.00151346
0.00179372
0.00201464
0.00203778
0.00243547
0.0028275
0.00330057
0.00407569
0.00467662
0.00509775
0.00259909
0.00241476
0.00198553
0.00157141
0.00134552
0.000950226
0.00111442
0.00121392
0.000910597
0.00115216
0.00127437
0.00103021
0.00139499
0.00117426
0.0012865
0.00207226
0.00225188
0.00264184
0.00286182
0.0031256
0.000930952
0.000951197
0.000751803
0.000576022
0.000554088
0.000713951
0.000251402
0.000384783
0.000325586
0.000478255
0.000285139
0.000122754
0.00029007
0.000457331
0.00037449
0.000602086
0.000794348
0.000879073
0.000918773
0.00105611
0.0169013
0.0151347
0.0129298
0.0116005
0.010535
0.00919842
0.0089403
0.00824596
0.00834176
0.00813437
0.00836773
0.00859174
0.00938973
0.00989516
0.0107781
0.0120794
0.0133557
0.0151958
0.0174595
0.0193639
0.014764
0.0133921
0.0117253
0.0101762
0.00923077
0.00824994
0.00778799
0.00730193
0.00738297
0.00720215
0.00735492
0.00789621
0.00818888
0.00882494
0.0095198
0.0105432
0.0119481
0.013517
0.0153863
0.0170373
0.0128549