/*--------------------------------*- C++ -*----------------------------------*\
| =========                 |                                                 |
| \\      /  F ield         | OpenFOAM: The Open Source CFD Toolbox           |
|  \\    /   O peration     | Version:  2212                                  |
|   \\  /    A nd           | Website:  www.openfoam.com                      |
|    \\/     M anipulation  |                                                 |
\*---------------------------------------------------------------------------*/
FoamFile
{
    version     2.0;
    format      ascii;
    arch        "LSB;label=32;scalar=64";
    class       volScalarField;
    location    "0";
    object      stateMean;
}
// * * * * * * * * * * * * * * * * * * * * * * * * * * * * * * * * * * * * * //

dimensions      [0 0 0 1 0 0 0];

internalField   nonuniform List<scalar> 
3200
(
340.389
341.199
342.071
342.924
343.575
344.279
344.738
345.042
345.326
345.419
345.363
345.199
344.921
344.415
343.932
343.184
342.42
341.564
340.655
339.735
335.038
335.769
336.552
337.349
337.948
338.434
338.837
339.155
339.42
339.415
339.382
339.239
339.034
338.666
338.161
337.613
336.86
336.146
335.306
334.612
329.714
330.31
330.986
331.608
332.114
332.579
332.859
333.138
333.335
333.405
333.445
333.25
333.033
332.67
332.414
331.872
331.253
330.575
329.936
329.305
324.389
324.844
325.41
325.885
326.306
326.7
326.963
327.137
327.345
327.493
327.379
327.21
327.068
326.855
326.421
326.088
325.615
325.079
324.514
324.087
319.06
319.354
319.738
320.066
320.532
320.895
321.001
321.1
321.317
321.289
321.38
321.234
321.091
320.921
320.612
320.303
319.967
319.57
319.098
318.73
313.628
313.818
314.113
314.306
314.685
314.877
315.074
315.101
315.201
315.324
315.217
315.264
315.067
314.939
314.768
314.578
314.178
314.039
313.726
313.366
308.149
308.312
308.496
308.673
308.889
308.973
309.065
309.131
309.159
309.176
309.168
309.198
309.061
308.984
308.787
308.725
308.546
308.374
308.187
308.083
302.739
302.822
302.815
302.891
303.004
302.937
303.083
303.052
303.098
303.086
303.076
303.051
303.032
303.014
302.917
302.956
302.976
302.851
302.721
302.728
341.067
341.925
342.835
343.634
344.398
345.03
345.53
345.97
346.084
346.267
346.204
346.003
345.797
345.282
344.738
344.06
343.193
342.348
341.356
340.459
335.689
336.356
337.213
337.917
338.552
339.059
339.547
339.823
340.086
340.109
340.112
339.927
339.684
339.252
338.805
338.223
337.549
336.793
335.929
335.172
330.215
330.836
331.396
332.116
332.659
333.121
333.5
333.714
333.922
334.009
333.892
333.844
333.557
333.209
332.856
332.335
331.819
331.119
330.453
329.781
324.732
325.293
325.834
326.246
326.778
327.117
327.323
327.726
327.771
327.864
327.781
327.658
327.516
327.278
326.948
326.519
326.011
325.513
324.925
324.449
319.314
319.699
320.157
320.411
320.809
321.049
321.39
321.586
321.533
321.635
321.596
321.59
321.439
321.276
321.012
320.657
320.193
319.866
319.478
319.069
313.734
314.017
314.28
314.618
314.958
315.032
315.231
315.349
315.461
315.454
315.479
315.433
315.331
315.178
315.028
314.771
314.534
314.194
313.902
313.582
308.25
308.466
308.594
308.827
308.948
309.057
309.166
309.249
309.258
309.296
309.33
309.217
309.229
309.127
308.999
308.839
308.716
308.537
308.309
308.143
302.792
302.894
302.921
302.952
302.996
303.008
303.103
303.134
303.179
303.131
303.124
303.071
303.096
303.049
303.04
302.991
302.925
302.941
302.805
302.762
342.021
342.859
343.896
344.756
345.52
346.178
346.66
346.912
347.242
347.321
347.239
347.014
346.745
346.347
345.843
345.057
344.194
343.39
342.295
341.417
336.526
337.247
338
338.746
339.419
340.036
340.466
340.75
340.964
341.019
340.997
340.846
340.53
340.143
339.736
339.109
338.385
337.598
336.704
335.923
330.963
331.413
332.255
332.837
333.475
333.813
334.313
334.52
334.695
334.828
334.75
334.589
334.369
333.976
333.662
333.077
332.479
331.842
331.105
330.48
325.315
325.789
326.408
326.854
327.333
327.698
328.066
328.207
328.429
328.37
328.45
328.34
328.123
327.897
327.507
327.105
326.631
326.044
325.525
324.972
319.705
320.051
320.52
321.007
321.3
321.602
321.84
321.941
322.102
322.122
322.083
322.052
321.905
321.657
321.431
321.108
320.771
320.358
319.863
319.428
314.103
314.394
314.691
314.943
315.181
315.405
315.575
315.692
315.753
315.798
315.806
315.773
315.677
315.528
315.267
315.031
314.817
314.519
314.152
313.937
308.484
308.622
308.806
308.962
309.164
309.219
309.424
309.479
309.469
309.455
309.512
309.46
309.436
309.243
309.199
309.149
308.893
308.648
308.482
308.472
302.842
302.933
302.848
302.976
303.106
303.081
303.088
303.184
303.2
303.145
303.198
303.199
303.157
303.097
303.091
303.096
303.012
302.959
302.855
302.822
343.047
343.971
344.895
345.805
346.62
347.282
347.766
348.15
348.387
348.527
348.415
348.237
347.857
347.387
346.852
346.098
345.321
344.362
343.382
342.421
337.351
338.072
338.924
339.773
340.408
340.968
341.352
341.773
341.965
342.069
341.953
341.835
341.547
341.157
340.629
340.026
339.291
338.445
337.599
336.86
331.701
332.214
333.038
333.64
334.184
334.672
335.066
335.383
335.531
335.572
335.525
335.381
335.162
334.81
334.353
333.826
333.256
332.529
331.852
331.194
325.827
326.429
326.956
327.554
328.015
328.39
328.698
328.976
329.041
329.187
329.08
328.992
328.807
328.563
328.162
327.729
327.272
326.637
326.142
325.601
320.235
320.564
320.985
321.426
321.783
322.058
322.346
322.574
322.594
322.701
322.686
322.508
322.46
322.171
321.937
321.654
321.198
320.745
320.352
319.898
314.49
314.73
315.046
315.345
315.525
315.705
315.914
316.178
316.158
316.18
316.142
316.008
315.976
315.802
315.735
315.428
315.13
314.865
314.501
314.309
308.684
308.829
309.069
309.202
309.396
309.442
309.593
309.706
309.77
309.752
309.729
309.74
309.63
309.584
309.436
309.306
309.057
308.898
308.73
308.557
302.847
302.972
303.103
303.091
303.125
303.199
303.223
303.259
303.272
303.214
303.267
303.214
303.224
303.133
303.178
303.111
303.137
302.999
303.034
302.829
344.09
345.007
345.975
346.843
347.715
348.386
348.888
349.286
349.56
349.646
349.517
349.443
348.973
348.567
347.945
347.245
346.319
345.403
344.356
343.398
338.197
339.036
339.874
340.674
341.288
341.985
342.348
342.708
342.843
343.002
342.925
342.823
342.473
342.112
341.616
340.868
340.209
339.38
338.458
337.636
332.412
332.99
333.709
334.437
335.016
335.445
335.884
336.194
336.333
336.469
336.431
336.236
335.902
335.674
335.215
334.731
334.104
333.332
332.551
331.909
326.572
327.047
327.632
328.16
328.531
329.042
329.353
329.66
329.759
329.786
329.757
329.765
329.476
329.164
328.833
328.328
327.86
327.243
326.7
326.109
320.622
321.062
321.477
321.948
322.206
322.566
322.78
323.049
323.147
323.232
323.18
323.005
322.925
322.732
322.375
322.072
321.71
321.217
320.785
320.276
314.752
315.053
315.313
315.651
315.946
316.116
316.329
316.436
316.524
316.589
316.528
316.435
316.328
316.247
316.112
315.778
315.529
315.135
314.82
314.506
308.875
309.028
309.221
309.38
309.551
309.713
309.781
309.892
309.963
309.957
309.96
309.886
309.788
309.705
309.615
309.546
309.292
309.105
308.906
308.755
302.914
303
303.138
303.168
303.235
303.253
303.291
303.388
303.348
303.328
303.308
303.337
303.301
303.28
303.218
303.18
303.111
303.071
302.999
302.993
345.061
345.974
347.04
347.951
348.815
349.423
349.991
350.398
350.608
350.67
350.703
350.502
350.2
349.621
349.018
348.304
347.392
346.432
345.359
344.384
339.106
339.877
340.771
341.582
342.277
342.87
343.302
343.656
343.885
344.026
343.941
343.792
343.423
343.049
342.583
341.848
341.109
340.222
339.267
338.538
333.128
333.817
334.43
335.182
335.741
336.293
336.701
336.93
337.146
337.27
337.177
337.039
336.8
336.434
336.048
335.374
334.78
334.047
333.293
332.582
327.171
327.599
328.232
328.836
329.285
329.667
329.987
330.261
330.444
330.485
330.401
330.301
330.129
329.855
329.503
328.991
328.48
327.937
327.241
326.677
321.058
321.525
321.967
322.388
322.884
323.164
323.321
323.541
323.672
323.778
323.695
323.595
323.409
323.223
322.93
322.56
322.083
321.716
321.168
320.789
315.097
315.401
315.697
315.971
316.28
316.546
316.694
316.83
316.892
316.944
316.897
316.903
316.833
316.595
316.374
316.154
315.834
315.573
315.151
314.857
309.058
309.236
309.412
309.588
309.769
309.971
310.07
310.171
310.209
310.111
310.123
310.178
310.116
310.035
309.829
309.707
309.53
309.33
309.067
308.907
303.029
303.058
303.156
303.188
303.303
303.347
303.308
303.383
303.352
303.423
303.433
303.446
303.303
303.368
303.316
303.322
303.184
303.187
303.073
303.011
346.079
346.971
347.936
348.942
349.813
350.414
351.016
351.501
351.651
351.799
351.754
351.534
351.22
350.708
350.046
349.266
348.36
347.32
346.238
345.283
339.825
340.668
341.585
342.456
343.147
343.761
344.245
344.534
344.801
344.899
344.849
344.746
344.324
343.95
343.387
342.723
342.002
341.078
340.11
339.331
333.823
334.526
335.218
335.94
336.555
337.042
337.477
337.726
337.937
337.913
337.938
337.845
337.55
337.213
336.769
336.172
335.465
334.823
333.965
333.328
327.6
328.254
328.79
329.395
329.885
330.324
330.708
330.899
331.059
331.048
331.062
330.997
330.746
330.441
330.075
329.606
329.066
328.456
327.833
327.268
321.521
321.932
322.355
322.835
323.263
323.605
323.847
323.982
324.176
324.218
324.163
324.145
323.922
323.697
323.425
322.983
322.625
322.148
321.601
321.211
315.386
315.66
315.969
316.315
316.658
316.789
317.022
317.265
317.285
317.299
317.318
317.175
317.106
316.974
316.752
316.459
316.213
315.803
315.564
315.181
309.191
309.449
309.612
309.874
310.04
310.218
310.289
310.298
310.368
310.392
310.396
310.353
310.265
310.191
310.017
309.885
309.698
309.529
309.287
309.08
303.061
303.171
303.185
303.252
303.321
303.395
303.367
303.455
303.53
303.463
303.541
303.487
303.464
303.38
303.366
303.352
303.207
303.197
303.153
303.053
346.858
347.873
348.869
349.94
350.806
351.425
352.064
352.442
352.669
352.809
352.686
352.469
352.153
351.688
351.018
350.265
349.272
348.246
347.117
346.075
340.678
341.512
342.457
343.291
343.98
344.672
345.088
345.443
345.602
345.748
345.694
345.608
345.13
344.688
344.235
343.448
342.738
341.854
340.877
340.093
334.437
335.097
335.885
336.611
337.242
337.76
338.166
338.525
338.711
338.73
338.691
338.524
338.217
337.897
337.478
336.796
336.147
335.436
334.604
333.907
328.14
328.709
329.398
329.918
330.454
330.889
331.216
331.45
331.628
331.689
331.63
331.503
331.335
331.087
330.64
330.154
329.607
328.999
328.334
327.798
321.922
322.348
322.848
323.312
323.749
324.084
324.353
324.467
324.601
324.682
324.648
324.532
324.43
324.15
323.83
323.412
323.076
322.556
322.079
321.614
315.688
315.976
316.334
316.666
316.937
317.226
317.341
317.539
317.604
317.634
317.578
317.511
317.444
317.226
317.026
316.719
316.433
316.133
315.771
315.456
309.343
309.635
309.884
310.019
310.155
310.296
310.473
310.476
310.629
310.594
310.586
310.55
310.494
310.406
310.257
310.105
309.902
309.691
309.46
309.254
303.229
303.195
303.316
303.337
303.425
303.524
303.535
303.547
303.569
303.569
303.555
303.585
303.534
303.494
303.462
303.393
303.296
303.212
303.214
303.127
347.695
348.687
349.742
350.722
351.688
352.348
353.006
353.297
353.557
353.676
353.675
353.458
353.01
352.525
351.92
351.152
350.178
349.085
347.985
346.907
341.312
342.2
343.084
344.02
344.784
345.402
345.846
346.183
346.538
346.565
346.576
346.34
346.004
345.534
344.98
344.281
343.49
342.486
341.584
340.687
335.058
335.762
336.55
337.253
337.879
338.399
338.822
339.112
339.293
339.445
339.443
339.167
338.963
338.551
338.057
337.5
336.803
335.949
335.206
334.457
328.651
329.169
329.853
330.469
331.012
331.442
331.749
332.027
332.114
332.208
332.214
332.117
331.824
331.497
331.144
330.719
330.156
329.496
328.788
328.222
322.31
322.667
323.21
323.742
324.062
324.443
324.695
324.916
325.049
325.063
325.079
325.037
324.809
324.599
324.239
323.889
323.43
322.961
322.334
322.04
316.031
316.214
316.658
316.949
317.286
317.457
317.667
317.816
317.933
317.912
317.93
317.853
317.767
317.568
317.322
317.039
316.727
316.337
316.008
315.763
309.58
309.763
309.979
310.172
310.385
310.516
310.548
310.671
310.713
310.777
310.811
310.737
310.602
310.515
310.418
310.232
310.052
309.902
309.633
309.452
303.24
303.308
303.371
303.404
303.477
303.516
303.611
303.524
303.611
303.648
303.592
303.601
303.564
303.549
303.525
303.466
303.323
303.338
303.244
303.167
348.395
349.472
350.534
351.489
352.448
353.194
353.761
354.164
354.407
354.569
354.505
354.319
353.951
353.374
352.711
351.888
350.879
349.871
348.645
347.622
342.004
342.907
343.799
344.653
345.496
346.096
346.594
346.942
347.181
347.331
347.156
347.038
346.766
346.303
345.665
344.91
344.139
343.215
342.227
341.252
335.594
336.274
337.068
337.805
338.478
339.037
339.377
339.674
339.914
340.062
340.023
339.749
339.533
339.221
338.682
338.09
337.381
336.541
335.773
335.017
329.149
329.671
330.361
331.036
331.41
331.913
332.274
332.524
332.663
332.816
332.683
332.633
332.285
332.074
331.627
331.12
330.562
329.882
329.294
328.681
322.683
323.107
323.632
324.036
324.504
324.855
325.074
325.334
325.39
325.469
325.469
325.321
325.208
324.969
324.686
324.259
323.724
323.351
322.804
322.344
316.178
316.522
316.851
317.238
317.445
317.776
317.885
318.057
318.134
318.265
318.215
318.147
318.011
317.845
317.599
317.331
317.042
316.668
316.25
315.934
309.74
309.892
310.168
310.351
310.501
310.734
310.807
310.865
310.958
310.918
310.9
310.899
310.792
310.759
310.63
310.361
310.272
310.04
309.76
309.608
303.283
303.343
303.403
303.453
303.505
303.591
303.608
303.68
303.664
303.668
303.626
303.754
303.649
303.569
303.544
303.544
303.418
303.409
303.298
303.2
349.071
350.139
351.162
352.287
353.173
353.849
354.481
354.982
355.171
355.37
355.308
355.015
354.622
354.046
353.402
352.616
351.62
350.423
349.227
348.314
342.621
343.424
344.418
345.244
346.121
346.713
347.262
347.567
347.834
347.923
347.867
347.697
347.357
346.917
346.288
345.574
344.747
343.771
342.831
341.948
336.117
336.769
337.575
338.325
339.034
339.524
340.028
340.346
340.477
340.577
340.514
340.43
340.117
339.734
339.213
338.591
337.928
337.108
336.244
335.42
329.478
330.042
330.765
331.401
331.924
332.35
332.692
333.017
333.159
333.234
333.131
333.082
332.875
332.504
332.099
331.59
331.052
330.294
329.672
329.104
322.936
323.402
323.978
324.391
324.824
325.198
325.446
325.69
325.788
325.883
325.841
325.709
325.525
325.29
324.959
324.518
324.119
323.611
323.087
322.579
316.377
316.717
317.091
317.449
317.742
317.961
318.238
318.356
318.451
318.387
318.451
318.406
318.302
318.081
317.883
317.559
317.247
316.904
316.499
316.159
309.886
310.045
310.252
310.478
310.669
310.759
310.949
311.016
311.065
311.097
311.103
311.119
310.911
310.898
310.741
310.611
310.354
310.104
309.895
309.744
303.273
303.414
303.427
303.482
303.55
303.585
303.581
303.724
303.703
303.748
303.84
303.738
303.615
303.59
303.628
303.51
303.492
303.358
303.332
303.258
349.667
350.72
351.84
352.94
353.861
354.572
355.192
355.649
355.868
355.982
355.926
355.678
355.262
354.774
354.053
353.283
352.195
351.079
349.959
348.87
343.066
343.926
345.02
345.888
346.661
347.303
347.808
348.193
348.447
348.514
348.504
348.282
347.888
347.472
346.847
346.126
345.285
344.316
343.331
342.468
336.493
337.181
338.062
338.858
339.501
339.981
340.515
340.742
340.952
341.053
341.072
340.879
340.571
340.141
339.703
339.051
338.36
337.562
336.635
335.959
329.766
330.433
331.157
331.733
332.272
332.736
333.115
333.368
333.627
333.561
333.56
333.497
333.145
332.86
332.466
331.953
331.319
330.748
329.978
329.412
323.26
323.716
324.215
324.669
325.118
325.44
325.751
326.018
326.051
326.091
326.169
326.005
325.765
325.584
325.345
324.826
324.391
323.908
323.342
322.853
316.608
316.893
317.308
317.626
317.94
318.239
318.467
318.48
318.659
318.712
318.693
318.611
318.451
318.258
318.101
317.815
317.502
317.076
316.659
316.406
309.977
310.157
310.398
310.581
310.667
310.959
311.073
311.104
311.249
311.292
311.195
311.222
311.123
311.006
310.858
310.692
310.447
310.206
310.008
309.879
303.353
303.382
303.443
303.497
303.646
303.631
303.708
303.785
303.766
303.79
303.73
303.765
303.778
303.679
303.69
303.533
303.501
303.433
303.324
303.337
350.216
351.188
352.358
353.445
354.4
355.085
355.751
356.16
356.386
356.647
356.497
356.302
355.907
355.293
354.634
353.733
352.759
351.619
350.442
349.397
343.6
344.51
345.416
346.344
347.14
347.798
348.287
348.7
348.995
349.048
348.997
348.748
348.426
348.026
347.356
346.592
345.787
344.849
343.65
342.8
336.9
337.592
338.416
339.198
339.836
340.464
340.894
341.175
341.452
341.507
341.44
341.312
341.059
340.668
340.064
339.484
338.758
337.923
337.069
336.343
330.172
330.747
331.435
331.992
332.541
333.122
333.473
333.653
333.893
333.939
333.898
333.765
333.553
333.217
332.851
332.273
331.687
331.028
330.335
329.644
323.498
323.918
324.505
324.928
325.359
325.782
326.045
326.292
326.379
326.465
326.445
326.366
326.131
325.841
325.553
325.108
324.715
324.204
323.549
323.173
316.747
317.1
317.563
317.85
318.143
318.412
318.574
318.722
318.852
318.936
318.892
318.794
318.641
318.518
318.249
317.945
317.637
317.22
316.851
316.549
310.061
310.258
310.535
310.751
310.917
311.044
311.212
311.238
311.32
311.318
311.321
311.317
311.263
311.103
311.041
310.786
310.6
310.426
310.201
309.929
303.458
303.466
303.52
303.633
303.627
303.705
303.74
303.833
303.785
303.841
303.852
303.786
303.724
303.681
303.68
303.604
303.538
303.479
303.411
303.278
350.656
351.657
352.882
353.9
354.885
355.663
356.222
356.71
356.983
357.077
357.002
356.742
356.415
355.903
355.12
354.218
353.21
352.086
350.828
349.785
343.945
344.813
345.815
346.734
347.538
348.261
348.763
349.104
349.428
349.431
349.44
349.162
348.869
348.518
347.752
346.971
346.146
345.193
344.044
343.198
337.225
337.909
338.771
339.571
340.246
340.788
341.288
341.567
341.765
341.827
341.85
341.707
341.356
341.003
340.44
339.829
339.062
338.277
337.315
336.612
330.426
331.049
331.779
332.397
332.992
333.296
333.78
334.05
334.193
334.296
334.227
334.15
333.852
333.574
333.113
332.526
331.972
331.303
330.492
329.967
323.668
324.15
324.748
325.166
325.615
325.995
326.272
326.501
326.608
326.61
326.65
326.5
326.332
326.05
325.769
325.323
324.869
324.299
323.841
323.322
316.861
317.256
317.653
317.972
318.289
318.603
318.785
318.867
319.048
319.038
318.985
319.009
318.765
318.678
318.381
318.092
317.807
317.398
316.988
316.642
310.19
310.385
310.628
310.794
311.002
311.139
311.282
311.359
311.451
311.43
311.468
311.375
311.336
311.284
311.06
310.88
310.644
310.446
310.176
310.011
303.385
303.541
303.514
303.61
303.711
303.693
303.779
303.812
303.874
303.851
303.861
303.819
303.804
303.643
303.641
303.627
303.557
303.502
303.418
303.369
350.954
352.05
353.259
354.372
355.285
356.024
356.72
357.059
357.34
357.397
357.349
357.181
356.776
356.231
355.516
354.571
353.64
352.421
351.258
350.086
344.221
345.06
346.199
347.05
347.9
348.513
349.061
349.536
349.768
349.778
349.723
349.573
349.272
348.695
348.121
347.343
346.463
345.445
344.392
343.538
337.501
338.087
339.025
339.79
340.501
341.04
341.585
341.826
342.082
342.136
342.019
341.996
341.702
341.316
340.754
340.058
339.391
338.479
337.529
336.814
330.657
331.263
331.971
332.655
333.118
333.594
333.983
334.248
334.472
334.478
334.494
334.309
334.083
333.786
333.333
332.828
332.142
331.509
330.799
330.203
323.81
324.284
324.92
325.395
325.714
326.196
326.45
326.648
326.806
326.811
326.846
326.697
326.513
326.218
325.957
325.488
325.057
324.564
323.962
323.43
317.086
317.372
317.751
318.132
318.428
318.758
318.863
319.035
319.144
319.203
319.169
319.113
318.968
318.752
318.537
318.259
317.936
317.519
317.068
316.857
310.232
310.481
310.653
310.876
311.067
311.279
311.291
311.462
311.534
311.484
311.512
311.48
311.391
311.215
311.134
310.965
310.771
310.513
310.263
310.032
303.412
303.482
303.623
303.6
303.681
303.74
303.79
303.834
303.874
303.871
303.905
303.811
303.807
303.789
303.723
303.688
303.587
303.517
303.385
303.357
351.177
352.338
353.469
354.554
355.472
356.299
356.959
357.349
357.671
357.795
357.7
357.446
357.06
356.494
355.75
354.835
353.893
352.686
351.488
350.36
344.409
345.339
346.268
347.259
348.11
348.831
349.384
349.805
349.937
350.11
350.036
349.829
349.54
348.97
348.333
347.597
346.682
345.649
344.646
343.648
337.583
338.346
339.173
340.041
340.676
341.296
341.781
342.061
342.323
342.358
342.316
342.185
341.935
341.441
340.956
340.353
339.564
338.607
337.834
337.019
330.752
331.405
332.116
332.687
333.285
333.798
334.086
334.452
334.586
334.669
334.646
334.532
334.229
333.923
333.431
332.992
332.304
331.633
330.892
330.316
323.961
324.45
324.932
325.502
325.913
326.263
326.57
326.794
326.897
327.038
326.992
326.869
326.683
326.43
326.07
325.645
325.178
324.675
324.052
323.63
317.191
317.458
317.86
318.264
318.527
318.823
319.07
319.16
319.324
319.265
319.343
319.21
319.055
318.926
318.648
318.35
318.013
317.573
317.197
316.921
310.331
310.473
310.718
310.963
311.146
311.373
311.412
311.453
311.599
311.551
311.513
311.562
311.397
311.393
311.268
310.919
310.751
310.513
310.334
310.168
303.451
303.474
303.572
303.664
303.709
303.694
303.866
303.849
303.884
303.847
303.905
303.946
303.878
303.803
303.797
303.694
303.598
303.533
303.484
303.413
351.383
352.437
353.736
354.735
355.62
356.563
357.057
357.628
357.82
358.01
357.926
357.73
357.216
356.713
355.994
355.065
354.105
352.924
351.605
350.503
344.606
345.444
346.468
347.465
348.233
348.979
349.491
349.942
350.108
350.273
350.219
349.927
349.629
349.126
348.532
347.771
346.843
345.84
344.746
343.811
337.719
338.533
339.415
340.2
340.884
341.396
341.954
342.2
342.499
342.571
342.486
342.269
342.117
341.565
341.02
340.484
339.631
338.852
337.921
337.165
330.907
331.494
332.193
332.87
333.41
333.908
334.245
334.614
334.781
334.804
334.812
334.588
334.327
334.062
333.635
333.164
332.497
331.813
331.016
330.42
324.108
324.562
325.027
325.608
325.983
326.347
326.715
326.858
327.08
327.058
327.017
326.927
326.805
326.516
326.148
325.694
325.274
324.64
324.147
323.575
317.241
317.515
317.896
318.267
318.526
318.866
319.091
319.215
319.3
319.39
319.296
319.263
319.121
318.921
318.677
318.359
318.058
317.653
317.315
316.894
310.408
310.438
310.761
310.951
311.125
311.296
311.446
311.563
311.586
311.604
311.592
311.542
311.491
311.384
311.212
311.052
310.875
310.571
310.374
310.195
303.46
303.482
303.62
303.659
303.757
303.842
303.789
303.86
303.892
303.921
303.882
303.971
303.841
303.837
303.785
303.674
303.546
303.537
303.503
303.437
351.454
352.647
353.822
354.889
355.87
356.638
357.173
357.706
357.968
358.106
358.04
357.836
357.347
356.873
356.101
355.224
354.149
353.006
351.847
350.598
344.698
345.583
346.641
347.609
348.36
349.078
349.56
349.993
350.239
350.366
350.317
350.116
349.786
349.291
348.629
347.914
346.99
345.942
344.862
343.955
337.767
338.627
339.374
340.263
340.988
341.57
341.988
342.372
342.601
342.648
342.646
342.437
342.111
341.703
341.144
340.529
339.774
338.864
337.95
337.132
331.009
331.553
332.246
332.959
333.534
333.921
334.406
334.643
334.761
334.818
334.906
334.774
334.453
334.071
333.714
333.141
332.485
331.839
331.065
330.503
324.157
324.558
325.043
325.588
326.09
326.456
326.762
326.936
326.985
327.08
327.121
327.019
326.827
326.606
326.185
325.79
325.332
324.737
324.231
323.653
317.133
317.501
317.888
318.213
318.634
318.898
319.078
319.267
319.368
319.45
319.37
319.326
319.137
318.965
318.772
318.479
318.036
317.705
317.26
316.954
310.327
310.465
310.828
311.067
311.195
311.341
311.438
311.58
311.59
311.717
311.627
311.605
311.551
311.348
311.22
311.07
310.864
310.606
310.403
310.18
303.49
303.555
303.613
303.633
303.78
303.85
303.903
303.886
303.878
303.898
303.905
303.855
303.791
303.873
303.785
303.686
303.638
303.562
303.509
303.468
351.515
352.622
353.788
354.917
355.895
356.605
357.225
357.757
357.998
358.262
358.159
357.843
357.449
356.827
356.08
355.225
354.181
352.969
351.737
350.667
344.723
345.589
346.673
347.583
348.35
349.087
349.605
350.048
350.257
350.465
350.399
350.1
349.711
349.269
348.61
347.842
346.958
345.958
344.892
343.885
337.882
338.607
339.466
340.284
340.967
341.543
341.919
342.421
342.575
342.653
342.577
342.439
342.15
341.725
341.19
340.584
339.806
338.858
338.063
337.146
330.954
331.619
332.272
332.865
333.511
334.007
334.44
334.702
334.83
334.925
334.89
334.711
334.467
334.139
333.744
333.154
332.484
331.832
331.062
330.497
324.063
324.576
325.147
325.598
326.133
326.439
326.719
326.957
327.144
327.154
327.132
326.991
326.805
326.559
326.25
325.816
325.312
324.733
324.206
323.775
317.26
317.613
317.98
318.244
318.606
318.938
319.159
319.284
319.406
319.374
319.398
319.298
319.191
318.956
318.681
318.34
317.996
317.721
317.29
316.935
310.362
310.563
310.778
310.988
311.181
311.347
311.535
311.57
311.657
311.631
311.64
311.639
311.47
311.441
311.218
311.075
310.83
310.597
310.373
310.247
303.479
303.499
303.647
303.67
303.745
303.747
303.875
303.93
303.905
303.894
303.926
303.873
303.874
303.829
303.774
303.74
303.65
303.585
303.463
303.379
351.55
352.655
353.808
354.888
355.836
356.588
357.23
357.703
358.048
358.086
358.045
357.846
357.497
356.847
356.092
355.201
354.188
352.943
351.731
350.598
344.676
345.612
346.675
347.638
348.436
349.067
349.651
350.044
350.259
350.353
350.296
350.126
349.719
349.294
348.665
347.887
346.986
345.888
344.892
343.875
337.905
338.553
339.469
340.264
340.965
341.532
341.967
342.331
342.595
342.651
342.585
342.421
342.085
341.683
341.106
340.506
339.72
338.839
337.954
337.181
330.976
331.63
332.249
332.915
333.474
334.032
334.421
334.628
334.862
334.91
334.845
334.726
334.481
334.069
333.722
333.1
332.538
331.852
331.076
330.51
324.145
324.575
325.14
325.64
326.016
326.398
326.75
326.98
327.043
327.23
327.081
327.035
326.803
326.571
326.154
325.782
325.287
324.843
324.215
323.693
317.295
317.517
317.984
318.316
318.657
318.858
319.113
319.334
319.392
319.408
319.367
319.277
319.13
319.009
318.728
318.474
318.052
317.67
317.242
316.962
310.364
310.587
310.78
310.995
311.206
311.333
311.439
311.62
311.628
311.694
311.61
311.623
311.565
311.403
311.221
311.065
310.87
310.631
310.381
310.252
303.436
303.597
303.626
303.719
303.764
303.84
303.909
303.861
303.843
303.972
303.907
303.911
303.842
303.857
303.785
303.719
303.623
303.575
303.445
303.471
)
;

boundaryField
{
    hotSide
    {
        type            fixedGradient;
        gradient        nonuniform List<scalar> 
400
(
321.511
322.87
325.591
329.677
335.133
341.965
350.181
359.788
370.794
383.208
397.037
412.289
428.971
447.088
466.647
487.651
510.105
534.011
559.372
586.191
323.738
325.08
327.767
331.802
337.194
343.949
352.078
361.591
372.498
384.81
398.537
413.687
430.268
448.289
467.755
488.672
511.043
534.872
560.161
586.913
326.149
327.47
330.116
334.091
339.406
346.071
354.099
363.503
374.296
386.491
400.101
415.136
431.606
449.52
468.885
489.706
511.988
535.735
560.948
587.63
328.704
330
332.597
336.503
341.73
348.292
356.205
365.485
376.15
388.215
401.695
416.604
432.954
450.753
470.009
490.73
512.919
536.579
561.714
588.325
331.33
332.599
335.142
338.97
344.099
350.546
358.332
367.477
378.003
389.928
403.271
418.047
434.27
451.949
471.095
491.712
513.807
537.382
562.439
588.978
333.918
335.158
337.643
341.389
346.414
352.74
360.392
369.397
379.779
391.562
404.765
419.407
435.503
453.065
472.101
492.618
514.622
538.114
563.096
589.569
336.321
337.531
339.959
343.622
348.544
354.751
362.274
371.142
381.385
393.031
406.101
420.618
436.595
454.047
472.983
493.409
515.33
538.747
563.663
590.076
338.36
339.543
341.92
345.509
350.339
356.44
363.847
372.595
382.718
394.244
407.2
421.608
437.485
454.844
473.695
494.045
515.897
539.253
564.114
590.478
339.852
341.015
343.352
346.885
351.645
357.665
364.985
373.643
383.675
395.113
407.984
422.312
438.116
455.407
474.197
494.491
516.294
539.606
564.428
590.758
340.643
341.795
344.11
347.613
352.334
358.311
365.584
374.193
384.176
395.567
408.393
422.679
438.443
455.699
474.456
494.722
516.498
539.788
564.589
590.901
340.643
341.795
344.11
347.613
352.334
358.311
365.584
374.193
384.176
395.567
408.393
422.679
438.443
455.699
474.456
494.722
516.498
539.788
564.589
590.901
339.852
341.015
343.352
346.885
351.645
357.665
364.985
373.643
383.675
395.113
407.984
422.312
438.116
455.407
474.197
494.491
516.294
539.606
564.428
590.758
338.36
339.543
341.92
345.509
350.339
356.44
363.847
372.595
382.718
394.244
407.2
421.608
437.485
454.844
473.695
494.045
515.897
539.253
564.114
590.478
336.321
337.531
339.959
343.622
348.544
354.751
362.274
371.142
381.385
393.031
406.101
420.618
436.595
454.047
472.983
493.409
515.33
538.747
563.663
590.076
333.918
335.158
337.643
341.389
346.414
352.74
360.392
369.397
379.779
391.562
404.765
419.407
435.503
453.065
472.101
492.618
514.622
538.114
563.096
589.569
331.33
332.599
335.142
338.97
344.099
350.546
358.332
367.477
378.003
389.928
403.271
418.047
434.27
451.949
471.095
491.712
513.807
537.382
562.439
588.978
328.704
330
332.597
336.503
341.73
348.292
356.205
365.485
376.15
388.215
401.695
416.604
432.954
450.753
470.009
490.73
512.919
536.579
561.714
588.325
326.149
327.47
330.116
334.091
339.406
346.071
354.099
363.503
374.296
386.491
400.101
415.136
431.606
449.52
468.885
489.706
511.988
535.735
560.948
587.63
323.738
325.08
327.767
331.802
337.194
343.949
352.078
361.591
372.498
384.81
398.537
413.687
430.268
448.289
467.755
488.672
511.043
534.872
560.161
586.913
321.511
322.87
325.591
329.677
335.133
341.965
350.181
359.788
370.794
383.208
397.037
412.289
428.971
447.088
466.647
487.651
510.105
534.011
559.372
586.191
)
;
    }
    coldSide
    {
        type            mixed;
        refValue        uniform 300;
        refGradient     uniform 0;
        valueFraction   uniform 0.991591;
        source          uniform 0;
        value           nonuniform List<scalar> 
400
(
300.023
300.023
300.024
300.024
300.025
300.025
300.026
300.027
300.027
300.028
300.028
300.028
300.029
300.028
300.029
300.029
300.029
300.029
300.029
300.029
300.024
300.024
300.025
300.025
300.025
300.026
300.027
300.027
300.028
300.028
300.029
300.028
300.029
300.03
300.029
300.029
300.029
300.03
300.029