/*--------------------------------*- C++ -*----------------------------------*\
| =========                 |                                                 |
| \\      /  F ield         | OpenFOAM: The Open Source CFD Toolbox           |
|  \\    /   O peration     | Version:  2212                                  |
|   \\  /    A nd           | Website:  www.openfoam.com                      |
|    \\/     M anipulation  |                                                 |
\*---------------------------------------------------------------------------*/
FoamFile
{
    version     2.0;
    format      ascii;
    arch        "LSB;label=32;scalar=64";
    class       volScalarField;
    location    "0";
    object      T;
}
// * * * * * * * * * * * * * * * * * * * * * * * * * * * * * * * * * * * * * //

dimensions      [0 0 0 1 0 0 0];

internalField   nonuniform List<scalar> 
3200
(
342.302
340.596
339.599
338.883
338.519
338.594
338.865
339.029
339.236
339.507
339.285
339.095
338.767
338.147
337.56
337.019
337.108
337.269
338.293
339.743
336.846
335.375
334.562
333.923
333.622
333.633
333.894
334.015
334.171
334.398
334.209
334.052
333.751
333.203
332.689
332.244
332.306
332.432
333.304
334.525
331.309
330.071
329.413
328.873
328.615
328.601
328.815
328.921
329.037
329.245
329.073
328.926
328.648
328.197
327.763
327.387
327.43
327.548
328.278
329.288
325.699
324.702
324.203
323.728
323.516
323.509
323.672
323.763
323.849
324.027
323.867
323.74
323.49
323.145
322.802
322.49
322.489
322.615
323.222
323.994
320.04
319.298
318.93
318.532
318.361
318.375
318.467
318.537
318.621
318.763
318.614
318.52
318.299
318.089
317.784
317.554
317.528
317.638
318.129
318.687
314.336
313.836
313.588
313.294
313.16
313.174
313.219
313.271
313.345
313.428
313.329
313.271
313.083
312.971
312.735
312.568
312.548
312.648
312.995
313.343
308.63
308.318
308.161
307.997
307.91
307.939
307.937
307.993
308.04
308.092
308.018
307.972
307.849
307.806
307.67
307.555
307.565
307.607
307.812
308.03
302.897
302.798
302.737
302.688
302.643
302.662
302.66
302.679
302.691
302.714
302.687
302.67
302.644
302.613
302.572
302.542
302.528
302.55
302.6
302.698
342.476
341.005
339.912
339.052
339.011
339.004
339.334
339.529
339.853
340.094
339.865
339.624
339.311
338.672
337.903
337.548
337.472
337.706
338.614
339.902
336.986
335.756
334.821
334.07
334.02
334.011
334.29
334.44
334.734
334.913
334.695
334.508
334.228
333.66
332.985
332.69
332.631
332.817
333.605
334.671
331.396
330.424
329.64
328.96
328.923
328.932
329.171
329.278
329.547
329.663
329.454
329.295
329.075
328.574
328.02
327.772
327.731
327.876
328.546
329.412
325.771
325.004
324.391
323.792
323.765
323.799
323.971
324.048
324.301
324.323
324.182
324.036
323.848
323.433
323.026
322.794
322.765
322.86
323.445
324.13
320.098
319.536
319.035
318.566
318.551
318.609
318.719
318.761
318.952
318.949
318.837
318.727
318.575
318.263
317.971
317.78
317.761
317.818
318.292
318.785
314.39
313.997
313.653
313.289
313.294
313.336
313.405
313.443
313.569
313.559
313.473
313.391
313.292
313.065
312.868
312.723
312.732
312.744
313.079
313.419
308.653
308.428
308.22
307.986
308.012
308.014
308.074
308.097
308.161
308.144
308.081
308.051
307.992
307.841
307.754
307.636
307.661
307.651
307.872
308.059
302.907
302.824
302.766
302.681
302.691
302.686
302.717
302.717
302.737
302.737
302.705
302.689
302.683
302.627
302.596
302.555
302.564
302.563
302.642
302.693
343.151
341.676
340.448
339.634
339.629
339.707
339.96
340.252
340.666
340.8
340.642
340.518
340.033
339.397
338.648
338.273
338.066
338.317
339.199
340.498
337.584
336.339
335.293
334.6
334.56
334.593
334.819
335.044
335.417
335.545
335.368
335.254
334.846
334.268
333.653
333.331
333.156
333.356
334.118
335.207
331.935
330.915
330.043
329.441
329.396
329.42
329.599
329.771
330.095
330.198
330.03
329.944
329.588
329.092
328.611
328.302
328.178
328.315
328.98
329.868
326.231
325.396
324.696
324.197
324.124
324.17
324.326
324.423
324.704
324.786
324.642
324.577
324.284
323.856
323.494
323.252
323.146
323.229
323.79
324.481
320.478
319.833
319.279
318.886
318.815
318.869
318.985
319.057
319.252
319.331
319.226
319.148
318.94
318.598
318.334
318.127
318.053
318.111
318.566
319.051
314.69
314.225
313.82
313.549
313.442
313.5
313.59
313.642
313.777
313.846
313.764
313.692
313.56
313.306
313.145
312.975
312.919
312.97
313.306
313.615
308.841
308.556
308.316
308.16
308.071
308.127
308.174
308.202
308.277
308.335
308.271
308.234
308.164
307.996
307.915
307.801
307.76
307.814
308.019
308.17
302.976
302.876
302.791
302.735
302.71
302.729
302.737
302.748
302.771
302.806
302.777
302.765
302.744
302.67
302.661
302.619
302.598
302.61
302.683
302.736
344.011
342.559
341.377
340.66
340.474
340.622
340.924
341.293
341.708
341.709
341.787
341.601
341.111
340.427
339.764
339.233
338.961
339.201
340.083
341.359
338.334
337.138
336.107
335.455
335.28
335.42
335.637
335.952
336.31
336.292
336.358
336.205
335.777
335.199
334.62
334.167
333.923
334.121
334.888
335.958
332.564
331.604
330.734
330.155
330.006
330.116
330.277
330.551
330.853
330.812
330.852
330.749
330.4
329.892
329.407
329.042
328.808
328.966
329.633
330.499
326.715
325.993
325.268
324.779
324.625
324.747
324.856
325.096
325.337
325.278
325.309
325.23
324.953
324.524
324.152
323.835
323.647
323.773
324.331
325.003
320.821
320.319
319.735
319.349
319.215
319.319
319.387
319.575
319.778
319.709
319.729
319.686
319.465
319.12
318.836
318.603
318.42
318.548
318.979
319.46
314.916
314.562
314.128
313.865
313.755
313.85
313.859
314.001
314.186
314.124
314.115
314.099
313.925
313.687
313.502
313.335
313.184
313.276
313.576
313.909
308.981
308.755
308.484
308.353
308.274
308.325
308.332
308.411
308.533
308.512
308.487
308.483
308.376
308.232
308.133
308.02
307.926
307.993
308.173
308.354
303.024
302.942
302.848
302.806
302.776
302.801
302.794
302.826
302.867
302.859
302.85
302.839
302.803
302.766
302.727
302.695
302.651
302.68
302.736
302.792
345.034
343.603
342.489
341.791
341.658
341.812
342.061
342.52
342.864
343.034
343.055
342.825
342.354
341.591
340.957
340.432
340.167
340.439
341.187
342.442
339.248
338.036
337.067
336.447
336.324
336.441
336.633
337.036
337.325
337.466
337.46
337.243
336.861
336.193
335.658
335.22
334.971
335.189
335.84
336.904
333.362
332.358
331.539
331.007
330.877
330.978
331.136
331.468
331.691
331.838
331.804
331.602
331.288
330.729
330.3
329.914
329.684
329.873
330.433
331.326
327.392
326.586
325.911
325.483
325.354
325.451
325.564
325.827
326.008
326.141
326.13
325.91
325.663
325.228
324.882
324.546
324.353
324.478
324.971
325.708
321.363
320.743
320.222
319.89
319.778
319.861
319.938
320.141
320.263
320.397
320.383
320.196
320.015
319.689
319.415
319.122
318.984
319.075
319.474
320.015
315.283
314.854
314.469
314.277
314.154
314.209
314.282
314.424
314.497
314.618
314.595
314.453
314.332
314.08
313.919
313.695
313.584
313.649
313.938
314.308
309.186
308.933
308.701
308.602
308.504
308.524
308.586
308.671
308.709
308.803
308.77
308.702
308.612
308.473
308.377
308.24
308.179
308.207
308.381
308.596
303.073
303.001
302.926
302.893
302.842
302.865
302.877
302.911
302.935
302.96
302.951
302.924
302.891
302.842
302.804
302.759
302.749
302.748
302.809
302.882
346.323
345.005
343.785
343.108
342.945
343.074
343.298
343.73
344.155
344.533
344.496
344.197
343.734
342.915
342.277
341.818
341.622
341.797
342.672
343.787
340.372
339.262
338.206
337.586
337.446
337.545
337.727
338.08
338.441
338.768
338.732
338.455
338.048
337.343
336.795
336.399
336.245
336.36
337.102
338.051
334.313
333.392
332.494
331.969
331.841
331.917
332.069
332.339
332.653
332.941
332.887
332.634
332.302
331.709
331.242
330.925
330.811
330.866
331.479
332.268
328.177
327.42
326.703
326.278
326.148
326.198
326.341
326.538
326.799
327.036
326.975
326.768
326.505
326.036
325.643
325.402
325.309
325.332
325.813
326.445
321.973
321.381
320.832
320.546
320.405
320.446
320.567
320.719
320.906
321.088
321.018
320.872
320.648
320.306
319.971
319.824
319.751
319.762
320.108
320.588
315.73
315.328
314.918
314.732
314.592
314.642
314.723
314.838
314.99
315.096
315.032
314.957
314.76
314.53
314.291
314.186
314.142
314.134
314.374
314.735
309.445
309.221
308.966
308.873
308.774
308.801
308.869
308.925
309.002
309.087
309.041
308.992
308.877
308.736
308.605
308.532
308.507
308.497
308.629
308.849
303.174
303.099
303.015
302.976
302.928
302.95
302.98
302.998
303.027
303.058
303.036
303.019
302.986
302.934
302.884
302.862
302.862
302.849
302.892
302.963
347.733
346.522
345.295
344.614
344.485
344.517
344.74
345.108
345.591
345.997
345.935
345.675
345.319
344.474
343.726
343.243
343.143
343.342
344.225
345.166
341.574
340.561
339.506
338.914
338.795
338.829
338.976
339.286
339.674
340.035
339.987
339.757
339.442
338.71
338.056
337.616
337.563
337.703
338.462
339.269
335.313
334.495
333.611
333.094
333.002
333.027
333.112
333.376
333.691
333.982
333.942
333.753
333.487
332.872
332.302
331.919
331.888
332.002
332.643
333.325
328.993
328.332
327.635
327.193
327.123
327.128
327.189
327.413
327.655
327.893
327.853
327.723
327.488
326.97
326.49
326.181
326.158
326.257
326.776
327.331
322.621
322.087
321.593
321.221
321.177
321.182
321.238
321.381
321.585
321.744
321.718
321.604
321.429
321.011
320.639
320.408
320.401
320.452
320.889
321.292
316.209
315.821
315.502
315.191
315.16
315.155
315.214
315.32
315.452
315.554
315.546
315.455
315.321
315.022
314.781
314.594
314.587
314.622
314.936
315.247
309.745
309.517
309.339
309.155
309.114
309.121
309.146
309.217
309.296
309.342
309.356
309.288
309.202
309.036
308.884
308.764
308.759
308.765
308.971
309.166
303.268
303.187
303.135
303.074
303.051
303.068
303.072
303.1
303.116
303.142
303.143
303.113
303.087
303.027
302.983
302.928
302.933
302.94
303.013
303.08
349.46
348.079
346.938
346.205
346.179
346.074
346.375
346.728
347.135
347.478
347.443
347.22
346.989
346.058
345.416
344.797
344.811
345.075
345.87
346.806
343.099
341.906
340.95
340.293
340.289
340.143
340.412
340.699
341.019
341.316
341.262
341.076
340.88
340.058
339.503
338.963
339.001
339.211
339.91
340.699
336.633
335.649
334.832
334.259
334.264
334.137
334.331
334.565
334.844
335.061
335.025
334.885
334.713
334.009
333.533
333.077
333.114
333.283
333.869
334.524
330.088
329.29
328.64
328.148
328.153
328.044
328.188
328.382
328.609
328.742
328.753
328.602
328.452
327.895
327.5
327.142
327.181
327.314
327.784
328.306
323.479
322.86
322.348
321.966
321.963
321.885
321.976
322.115
322.319
322.4
322.425
322.275
322.185
321.736
321.416
321.152
321.187
321.285
321.66
322.079
316.831
316.396
316.003
315.722
315.729
315.667
315.735
315.82
315.983
316.033
316.042
315.924
315.887
315.571
315.317
315.118
315.167
315.223
315.498
315.811
310.14
309.859
309.614
309.447
309.474
309.427
309.459
309.504
309.619
309.632
309.645
309.559
309.559
309.359
309.199
309.094
309.115
309.141
309.319
309.513
303.412
303.307
303.216
303.159
303.172
303.175
303.174
303.184
303.233
303.232
303.239
303.218
303.215
303.129
303.078
303.045
303.059
303.06
303.121
303.194
351.216
349.86
348.837
348.006
347.852
347.817
348.029
348.329
348.801
349.187
349.192
348.939
348.438
347.668
347.225
346.608
346.637
346.969
347.658
348.512
344.651
343.482
342.594
341.87
341.717
341.674
341.845
342.082
342.499
342.816
342.801
342.594
342.131
341.464
341.076
340.532
340.567
340.88
341.463
342.177
337.964
336.979
336.241
335.602
335.47
335.408
335.56
335.745
336.112
336.363
336.337
336.154
335.752
335.196
334.881
334.391
334.433
334.712
335.208
335.801
331.172
330.383
329.781
329.256
329.129
329.063
329.19
329.36
329.645
329.829
329.789
329.647
329.34
328.855
328.602
328.193
328.24
328.463
328.881
329.376
324.313
323.716
323.25
322.841
322.731
322.672
322.769
322.907
323.129
323.256
323.23
323.067
322.887
322.477
322.306
321.98
321.998
322.173
322.523
322.884
317.406
317.001
316.656
316.354
316.293
316.237
316.295
316.409
316.562
316.623
316.635
316.478
316.389
316.084
315.977
315.724
315.727
315.839
316.12
316.36
310.463
310.248
310.027
309.834
309.806
309.778
309.812
309.855
309.959
309.999
310.006
309.91
309.87
309.669
309.601
309.447
309.46
309.519
309.686
309.828
303.509
303.438
303.369
303.298
303.282
303.297
303.289
303.3
303.342
303.352
303.348
303.329
303.315
303.243
303.216
303.17
303.155
303.185
303.254
303.299
353.029
351.797
350.742
349.926
349.709
349.564
349.701
350.028
350.605
350.831
350.832
350.533
350.113
349.492
348.926
348.438
348.507
348.905
349.553
350.344
346.223
345.173
344.26
343.528
343.363
343.191
343.289
343.568
344.073
344.27
344.277
343.987
343.607
343.05
342.561
342.138
342.203
342.561
343.101
343.768
339.299
338.429
337.636
337.019
336.88
336.713
336.787
337.02
337.46
337.63
337.607
337.373
337.027
336.548
336.144
335.781
335.829
336.12
336.58
337.137
332.266
331.565
330.902
330.423
330.314
330.16
330.21
330.392
330.761
330.905
330.856
330.685
330.366
329.983
329.679
329.369
329.384
329.627
330.012
330.454
325.157
324.629
324.101
323.742
323.658
323.53
323.571
323.709
323.996
324.11
324.063
323.932
323.679
323.373
323.131
322.913
322.906
323.062
323.41
323.739
318.03
317.644
317.251
317.016
316.946
316.845
316.876
316.973
317.201
317.273
317.214
317.131
316.962
316.724
316.562
316.419
316.39
316.486
316.768
316.978
310.852
310.632
310.382
310.243
310.197
310.151
310.148
310.203
310.345
310.393
310.371
310.303
310.221
310.053
309.956
309.887
309.837
309.896
310.087
310.196
303.649
303.568
303.487
303.425
303.42
303.405
303.405
303.428
303.483
303.491
303.474
303.45
303.435
303.365
303.337
303.311
303.293
303.319
303.375
303.418
354.895
353.799
352.681
351.816
351.534
351.328
351.529
351.783
352.177
352.427
352.49
352.101
351.734
351.32
350.749
350.308
350.418
350.873
351.386
352.18
347.843
346.922
345.956
345.163
344.913
344.721
344.931
345.106
345.432
345.65
345.7
345.32
345.033
344.662
344.155
343.793
343.876
344.3
344.704
345.366
340.67
339.893
339.097
338.396
338.187
338.005
338.211
338.331
338.611
338.773
338.833
338.488
338.241
337.904
337.455
337.181
337.253
337.61
337.952
338.488
333.403
332.764
332.142
331.553
331.354
331.209
331.373
331.468
331.716
331.838
331.887
331.575
331.381
331.099
330.714
330.504
330.559
330.843
331.134
331.557
326.071
325.564
325.077
324.623
324.454
324.337
324.461
324.549
324.747
324.848
324.887
324.627
324.473
324.245
323.944
323.788
323.813
324.025
324.255
324.576
318.675
318.315
317.955
317.621
317.503
317.424
317.509
317.568
317.731
317.793
317.842
317.628
317.536
317.359
317.13
317.02
317.035
317.174
317.355
317.589
311.24
311.014
310.809
310.606
310.542
310.483
310.529
310.573
310.692
310.707
310.764
310.594
310.548
310.448
310.305
310.222
310.23
310.326
310.447
310.579
303.769
303.702
303.623
303.549
303.531
303.526
303.532
303.54
303.59
303.587
303.616
303.555
303.527
303.509
303.452
303.431
303.424
303.455
303.512
303.549
356.741
355.707
354.57
353.765
353.384
353.176
353.294
353.466
353.916
354.057
354.02
353.851
353.464
353.036
352.408
352.202
352.331
352.725
353.213
354.218
349.466
348.574
347.6
346.864
346.543
346.327
346.455
346.583
346.95
347.088
347.033
346.882
346.549
346.17
345.604
345.42
345.527
345.882
346.286
347.131
342.057
341.311
340.49
339.842
339.584
339.389
339.486
339.592
339.897
340.004
339.977
339.836
339.542
339.204
338.704
338.567
338.647
338.935
339.274
339.999
334.554
333.946
333.282
332.726
332.524
332.358
332.423
332.53
332.765
332.837
332.833
332.7
332.46
332.15
331.752
331.641
331.709
331.957
332.21
332.806
326.972
326.484
325.986
325.534
325.382
325.239
325.299
325.393
325.555
325.616
325.635
325.479
325.309
325.063
324.748
324.658
324.684
324.919
325.116
325.57
319.34
318.977
318.607
318.268
318.186
318.065
318.11
318.194
318.294
318.337
318.364
318.241
318.129
317.931
317.709
317.63
317.649
317.84
317.994
318.293
311.632
311.426
311.201
310.978
310.938
310.88
310.875
310.95
310.995
311.022
311.056
310.964
310.921
310.801
310.635
310.602
310.606
310.721
310.828
310.985
303.9
303.831
303.758
303.683
303.665
303.64
303.645
303.666
303.683
303.7
303.71
303.675
303.669
303.622
303.565
303.553
303.546
303.592
303.639
303.682
358.621
357.695
356.441
355.634
355.266
355.1
355.109
355.13
355.394
355.576
355.557
355.373
355.12
354.672
354.247
354.18
354.249
354.658
355.345
356.175
351.089
350.306
349.22
348.499
348.181
348.01
347.993
348.032
348.236
348.401
348.369
348.184
347.973
347.586
347.198
347.142
347.203
347.591
348.14
348.851
343.422
342.791
341.861
341.239
341.003
340.783
340.786
340.826
340.993
341.13
341.072
340.923
340.731
340.419
340.084
340.018
340.094
340.422
340.856
341.458
335.662
335.152
334.409
333.877
333.718
333.496
333.514
333.523
333.649
333.762
333.715
333.594
333.419
333.174
332.896
332.835
332.922
333.175
333.502
334.023
327.835
327.416
326.882
326.429
326.361
326.127
326.158
326.145
326.25
326.342
326.271
326.193
326.067
325.856
325.638
325.595
325.662
325.873
326.1
326.528
319.932
319.644
319.26
318.914
318.897
318.703
318.725
318.736
318.796
318.853
318.8
318.771
318.664
318.497
318.356
318.316
318.37
318.516
318.666
318.986
312.014
311.817
311.588
311.378
311.369
311.248
311.262
311.273
311.315
311.327
311.299
311.294
311.221
311.115
311.03
311.017
311.029
311.131
311.222
311.422
304.042
303.964
303.89
303.811
303.812
303.774
303.774
303.778
303.802
303.794
303.793
303.784
303.764
303.727
303.693
303.696
303.69
303.729
303.757
303.835
360.661
359.764
358.644
357.682
357.259
356.904
356.902
356.989
357.009
357.23
357.149
357.056
356.725
356.333
356.057
356.048
356.197
356.646
357.188
357.985
352.885
352.114
351.143
350.307
349.917
349.587
349.579
349.657
349.664
349.841
349.733
349.666
349.38
349.029
348.786
348.793
348.906
349.287
349.774
350.408
344.975
344.321
343.498
342.786
342.443
342.134
342.178
342.19
342.22
342.347
342.224
342.176
341.933
341.633
341.411
341.436
341.524
341.852
342.252
342.785
336.938
336.42
335.73
335.153
334.88
334.616
334.669
334.649
334.67
334.756
334.66
334.591
334.407
334.157
334.002
334.021
334.077
334.334
334.66
335.096
328.814
328.403
327.85
327.421
327.223
327.007
327.061
327.023
327.048
327.096
327.032
326.963
326.833
326.636
326.537
326.528
326.558
326.758
327.024
327.345
320.623
320.355
319.915
319.641
319.495
319.353
319.384
319.358
319.376
319.392
319.337
319.31
319.22
319.063
319.01
318.994
319.027
319.148
319.328
319.565
312.409
312.25
311.981
311.821
311.715
311.639
311.655
311.646
311.662
311.654
311.624
311.615
311.564
311.453
311.448
311.421
311.427
311.5
311.627
311.759
304.155
304.107
304.017
303.963
303.941
303.909
303.905
303.91
303.91
303.903
303.889
303.9
303.874
303.847
303.846
303.823
303.827
303.863
303.907
303.938
362.465
361.749
360.613
359.775
359.205
358.774
358.709
358.682
358.792
358.904
358.782
358.607
358.389
358.185
358.039
357.93
358.147
358.54
359.223
359.939
354.433
353.829
352.84
352.136
351.621
351.232
351.159
351.136
351.223
351.302
351.184
351.025
350.818
350.654
350.552
350.432
350.624
350.94
351.528
352.106
346.262
345.76
344.928
344.36
343.908
343.54
343.49
343.473
343.53
343.596
343.453
343.342
343.164
343.024
342.95
342.838
342.975
343.258
343.752
344.199
337.979
337.608
336.9
336.463
336.068
335.757
335.706
335.714
335.741
335.798
335.657
335.593
335.425
335.297
335.248
335.157
335.258
335.503
335.907
336.235
329.599
329.332
328.79
328.503
328.133
327.88
327.863
327.866
327.878
327.929
327.801
327.755
327.602
327.524
327.482
327.415
327.466
327.654
327.992
328.232
321.185
320.999
320.61
320.458
320.154
319.959
319.957
319.951
319.956
320.012
319.912
319.862
319.741
319.706
319.649
319.62
319.649
319.799
320.047
320.185
312.724
312.623
312.406
312.297
312.13
312.007
312.016
311.998
312.013
312.051
311.959
311.949
311.876
311.844
311.813
311.799
311.804
311.893
312.067
312.135
304.267
304.228
304.16
304.117
304.079
304.018
304.031
304.018
304.04
304.049
304.006
304
303.97
303.974
303.964
303.957
303.96
303.997
304.051
304.071
364.524
363.627
362.664
361.858
361.139
360.762
360.576
360.382
360.52
360.473
360.281
360.236
360.022
359.934
359.79
359.872
360.035
360.411
361.215
361.886
356.228
355.479
354.639
353.968
353.288
352.966
352.789
352.597
352.736
352.676
352.489
352.438
352.27
352.182
352.043
352.118
352.253
352.575
353.284
353.827
347.805
347.184
346.485
345.92
345.306
345.043
344.866
344.688
344.822
344.769
344.596
344.539
344.384
344.325
344.203
344.241
344.369
344.66
345.236
345.689
339.284
338.761
338.194
337.732
337.213
336.998
336.832
336.684
336.812
336.745
336.607
336.559
336.433
336.375
336.277
336.317
336.411
336.637
337.119
337.474
330.649
330.222
329.792
329.432
329.027
328.868
328.696
328.587
328.719
328.656
328.533
328.529
328.404
328.343
328.313
328.316
328.404
328.542
328.958
329.21
321.933
321.637
321.335
321.063
320.79
320.677
320.53
320.446
320.568
320.499
320.411
320.404
320.327
320.294
320.255
320.267
320.334
320.415
320.731
320.919
313.178
313.011
312.842
312.671
312.5
312.445
312.348
312.285
312.379
312.315
312.288
312.285
312.225
312.199
312.17
312.194
312.241
312.258
312.473
312.584
304.412
304.37
304.301
304.253
304.198
304.17
304.143
304.114
304.145
304.14
304.125
304.114
304.096
304.089
304.077
304.088
304.111
304.108
304.183
304.208
366.559
365.579
364.639
363.761
363.069
362.572
362.304
362.15
362.21
361.943
361.882
361.837
361.728
361.673
361.525
361.785
362.068
362.36
363.143
363.934
357.982
357.187
356.377
355.616
354.963
354.547
354.302
354.152
354.218
353.958
353.898
353.839
353.728
353.695
353.585
353.792
354.035
354.258
354.961
355.608
349.28
348.632
347.94
347.321
346.711
346.37
346.167
346.029
346.096
345.836
345.75
345.713
345.593
345.591
345.497
345.693
345.902
346.075
346.668
347.208
340.474
339.932
339.387
338.891
338.346
338.083
337.936
337.816
337.858
337.615
337.54
337.504
337.399
337.424
337.339
337.526
337.666
337.808
338.292
338.731
331.577
331.149
330.749
330.35
329.909
329.706
329.595
329.515
329.543
329.322
329.268
329.23
329.131
329.191
329.127
329.274
329.374
329.483
329.864
330.211
322.628
322.306
322.046
321.726
321.405
321.289
321.19
321.15
321.151
320.996
320.946
320.906
320.862
320.9
320.865
320.969
321.029
321.105
321.378
321.611
313.615
313.414
313.29
313.077
312.877
312.82
312.739
312.722
312.73
312.652
312.578
312.567
312.548
312.576
312.56
312.603
312.654
312.69
312.859
312.987
304.578
304.498
304.452
304.399
304.323
304.294
304.271
304.272
304.275
304.247
304.229
304.209
304.208
304.221
304.207
304.227
304.249
304.254
304.32
304.365
368.499
367.48
366.648
365.638
365.001
364.326
364.019
363.88
363.801
363.656
363.61
363.525
363.313
363.324
363.254
363.521
363.843
364.159
365.07
365.818
359.671
358.818
358.081
357.217
356.644
356.059
355.763
355.656
355.577
355.426
355.387
355.305
355.103
355.1
355.056
355.307
355.553
355.838
356.614
357.218
350.695
350.011
349.363
348.653
348.144
347.679
347.382
347.298
347.23
347.085
347.062
346.973
346.8
346.771
346.763
347.003
347.167
347.412
348.08
348.541
341.619
341.095
340.522
339.975
339.544
339.188
338.924
338.851
338.777
338.661
338.619
338.537
338.39
338.373
338.373
338.574
338.678
338.914
339.452
339.784
332.473
332.086
331.609
331.209
330.868
330.581
330.377
330.307
330.244
330.16
330.107
330.037
329.938
329.901
329.915
330.053
330.148
330.319
330.775
330.98
323.262
322.991
322.643
322.357
322.121
321.896
321.761
321.717
321.659
321.589
321.547
321.513
321.429
321.382
321.421
321.505
321.588
321.682
322.039
322.152
313.999
313.834
313.634
313.436
313.317
313.177
313.09
313.062
313.029
312.991
312.954
312.937
312.884
312.836
312.876
312.925
312.988
313.024
313.259
313.297
304.701
304.641
304.578
304.507
304.465
304.431
304.387
304.377
304.361
304.361
304.345
304.344
304.306
304.303
304.319
304.334
304.354
304.366
304.449
304.457
370.1
369.16
368.266
367.343
366.629
366.048
365.602
365.4
365.268
365.165
365.112
364.932
364.837
364.78
364.85
365.053
365.396
365.851
366.687
367.364
361.045
360.251
359.473
358.681
358.061
357.521
357.151
356.958
356.832
356.737
356.672
356.508
356.418
356.379
356.44
356.603
356.876
357.273
357.998
358.544
351.871
351.212
350.531
349.883
349.353
348.88
348.579
348.4
348.291
348.186
348.132
347.982
347.883
347.839
347.916
348.046
348.257
348.608
349.237
349.651
342.575
342.053
341.514
340.973
340.56
340.125
339.895
339.731
339.662
339.536
339.49
339.353
339.263
339.232
339.303
339.423
339.564
339.855
340.393
340.7
333.208
332.812
332.39
331.961
331.657
331.298
331.137
330.976
330.946
330.849
330.795
330.678
330.608
330.567
330.619
330.731
330.853
331.069
331.473
331.706
323.763
323.507
323.198
322.879
322.674
322.426
322.313
322.171
322.191
322.08
322.039
321.957
321.898
321.871
321.892
321.98
322.092
322.225
322.527
322.672
314.288
314.14
313.944
313.759
313.645
313.495
313.424
313.33
313.351
313.275
313.244
313.209
313.162
313.149
313.154
313.203
313.29
313.364
313.55
313.627
304.788
304.743
304.675
304.61
304.573
304.532
304.503
304.471
304.474
304.456
304.433
304.437
304.412
304.407
304.402
304.429
304.471
304.49
304.539
304.578
371.422
370.381
369.401
368.552
367.846
367.252
366.809
366.567
366.5
366.434
366.222
366.067
365.885
366.005
366.017
366.187
366.531
367.28
367.919
368.565
362.143
361.274
360.412
359.637
359.036
358.538
358.138
357.924
357.893
357.786
357.614
357.458
357.283
357.37
357.394
357.526
357.812
358.455
358.987
359.524
352.763
352.041
351.307
350.605
350.138
349.689
349.362
349.177
349.159
349.032
348.895
348.759
348.611
348.644
348.696
348.802
349.016
349.562
350.02
350.437
343.287
342.714
342.105
341.509
341.164
340.762
340.499
340.342
340.328
340.225
340.103
339.997
339.875
339.871
339.923
340.039
340.167
340.611
341
341.323
333.721
333.282
332.819
332.342
332.091
331.776
331.563
331.461
331.445
331.385
331.255
331.169
331.078
331.056
331.11
331.201
331.282
331.639
331.931
332.163
324.123
323.809
323.502
323.134
322.963
322.744
322.568
322.522
322.514
322.47
322.353
322.304
322.224
322.228
322.241
322.329
322.363
322.622
322.844
323.002
314.514
314.311
314.127
313.91
313.79
313.677
313.566
313.534
313.537
313.5
313.437
313.418
313.352
313.348
313.361
313.405
313.438
313.588
313.732
313.808
304.878
304.798
304.743
304.662
304.617
304.593
304.553
304.542
304.533
304.519
304.505
304.5
304.472
304.474
304.47
304.49
304.511
304.547
304.613
304.631
)
;

boundaryField
{
    hotSide
    {
        type            fixedGradient;
        gradient        nonuniform List<scalar> 
400
(
428.717
430.905
436.064
444.127
454.822
467.751
482.482
498.622
515.84
533.871
552.511
571.604
591.028
610.693
630.525
650.468
670.475
690.512
710.555
730.592
407.485
409.831
415.356
423.98
435.373
449.065
464.566
481.441
499.335
517.976
537.155
556.72
576.553
596.57
616.704
636.904
657.129
677.349
697.544
717.707
393.795
396.536
402.428
411.384
423.079
437.048
452.807
469.918
488.025
506.85
526.183
545.868
565.791
585.867
606.034
626.246
646.468
666.674
686.85
706.994
387.208
390.56
396.83
405.932
417.591
431.415
446.975
463.873
481.765
500.378
519.498
538.966
558.665
578.511
598.444
618.424
638.422
658.419
678.407
698.387
385.875
389.948
396.635
405.85
417.37
430.883
446.036
462.479
479.9
498.035
516.677
535.666
554.886
574.258
593.729
613.264
632.845
652.46
672.107
691.791
387.706
392.528
399.691
409.102
420.572
433.843
448.617
464.59
481.477
499.034
517.063
535.414
553.983
572.704
591.538
610.464
629.476
648.572
667.757
687.038
391.029
396.587
404.283
414.014
425.604
438.818
453.385
469.021
485.46
502.467
519.86
537.509
555.335
573.296
591.379
609.588
627.931
646.419
665.063
683.872
394.626
400.872
409.134
419.296
431.179
444.549
459.132
474.638
490.793
507.363
524.176
541.13
558.186
575.344
592.629
610.076
627.714
645.566
663.649
681.971
397.591
404.433
413.239
423.885
436.183
449.885
464.692
480.283
496.348
512.633
528.973
545.3
561.629
578.019
594.545
611.272
628.253
645.522
663.095
680.98
399.243
406.519
415.763
426.847
439.576
453.682
468.836
484.668
500.813
516.98
533.003
548.853
564.606
580.385
596.311
612.482
628.964
645.796
662.995
680.562
399.125
406.598
416.075
427.429
440.459
454.885
470.351
486.447
502.766
518.977
534.909
550.56
566.049
581.542
597.188
613.103
629.359
645.996
663.031
680.462
397.06
404.441
413.881
425.251
438.346
452.878
468.483
484.743
501.243
517.648
533.779
549.627
565.304
580.968
596.768
612.818
629.193
645.933
663.056
680.564
393.218
400.22
409.358
420.504
433.446
447.892
463.483
479.822
496.52
513.264
529.867
546.283
562.569
578.836
595.198
611.753
628.57
645.693
663.145
680.932
388.144
394.533
403.183
413.968
426.669
440.989
456.57
473.036
490.028
507.252
524.511
541.713
558.851
575.973
593.15
610.449
627.929
645.631
663.582
681.797
382.772
388.389
396.465
406.878
419.395
433.695
449.408
466.153
483.577
501.391
519.385
537.43
555.473
573.51
591.569
609.688
627.91
646.272
664.8
683.514
378.471
383.233
390.728
400.84
413.303
427.748
443.755
460.914
478.86
497.296
516
534.825
553.686
572.549
591.41
610.288
629.208
648.199
667.287
686.492
377.139
381.042
387.991
397.875
410.375
425.043
441.392
458.967
477.384
496.339
515.606
535.031
554.517
574.012
593.496
612.971
632.451
651.957
671.51
691.131
381.132
384.284
390.729
400.358
412.8
427.539
444.03
461.789
480.419
499.619
519.165
538.904
558.734
578.594
598.453
618.302
638.145
657.994
677.864
697.773
392.56
395.196
401.16
410.349
422.394
436.773
452.944
470.425
488.829
507.859
527.297
546.987
566.824
586.739
606.69
626.657
646.634
666.624
686.634
706.676
412.009
414.398
419.894
428.415
439.654
453.169
468.486
485.171
502.862
521.277
540.198
559.467
578.97
598.628
618.387
638.215
658.095
678.018
697.982
717.992
)
;
    }
    coldSide
    {
        type            mixed;
        refValue        uniform 300;
        refGradient     uniform 0;
        valueFraction   uniform 0.991591;
        source          uniform 0;
        value           nonuniform List<scalar> 
400
(
300.024
300.024
300.025
300.025
300.026
300.027
300.027
300.029
300.03
300.031
300.032
300.033
300.034
300.035
300.036
300.037
300.038
300.04
300.04
300.041
300.024
300.024
300.024
300.025
300.025
300.026
300.027
300.028
300.029
300.03
300.031
300.032
300.033
300.035
300.036
300.037
300.038
300.039
300.04
300.04