/*--------------------------------*- C++ -*----------------------------------*\
| =========                 |                                                 |
| \\      /  F ield         | OpenFOAM: The Open Source CFD Toolbox           |
|  \\    /   O peration     | Version:  2212                                  |
|   \\  /    A nd           | Website:  www.openfoam.com                      |
|    \\/     M anipulation  |                                                 |
\*---------------------------------------------------------------------------*/
FoamFile
{
    version     2.0;
    format      ascii;
    arch        "LSB;label=32;scalar=64";
    class       volScalarField;
    location    "0";
    object      T;
}
// * * * * * * * * * * * * * * * * * * * * * * * * * * * * * * * * * * * * * //

dimensions      [0 0 0 1 0 0 0];

internalField   nonuniform List<scalar> 
3200
(
354.811
352.908
351.518
350.725
350.484
350.534
350.846
351.223
351.311
351.423
351.065
350.465
349.607
348.655
347.658
346.707
346.058
346.223
347.254
348.721
347.408
345.815
344.646
343.952
343.732
343.807
344.085
344.409
344.5
344.599
344.299
343.76
343.038
342.194
341.305
340.499
339.921
340.064
340.924
342.162
340.023
338.737
337.771
337.164
337
337.089
337.334
337.61
337.655
337.776
337.514
337.012
336.459
335.733
334.986
334.264
333.781
333.895
334.611
335.648
332.701
331.689
330.902
330.404
330.3
330.352
330.558
330.796
330.798
330.935
330.717
330.279
329.859
329.27
328.659
328.015
327.647
327.728
328.318
329.15
325.43
324.634
324.023
323.645
323.592
323.617
323.775
323.977
323.949
324.056
323.912
323.559
323.236
322.779
322.314
321.797
321.516
321.568
322.037
322.64
318.15
317.592
317.149
316.892
316.864
316.875
316.98
317.144
317.115
317.193
317.084
316.851
316.607
316.293
315.953
315.581
315.399
315.406
315.733
316.163
310.903
310.556
310.315
310.158
310.143
310.141
310.213
310.282
310.29
310.332
310.259
310.128
309.965
309.803
309.616
309.386
309.267
309.264
309.447
309.697
303.645
303.528
303.449
303.409
303.392
303.412
303.421
303.434
303.452
303.468
303.439
303.39
303.345
303.29
303.227
303.146
303.111
303.121
303.168
303.237
354.841
353.222
351.784
351.01
350.854
350.932
351.302
351.558
351.702
351.754
351.52
351.022
350.114
349.144
348.047
347.126
346.526
346.6
347.441
348.859
347.432
346.077
344.86
344.198
344.071
344.16
344.47
344.675
344.813
344.882
344.709
344.234
343.441
342.637
341.65
340.861
340.33
340.393
341.088
342.282
340.084
338.964
337.94
337.397
337.304
337.388
337.642
337.787
337.92
338.027
337.849
337.443
336.742
336.111
335.247
334.566
334.136
334.18
334.76
335.725
332.779
331.891
331.027
330.602
330.548
330.61
330.832
330.921
331.014
331.14
330.96
330.636
330.059
329.576
328.861
328.302
327.923
327.983
328.44
329.207
325.497
324.819
324.133
323.802
323.755
323.807
323.996
324.064
324.144
324.232
324.074
323.834
323.372
323.017
322.46
322.029
321.716
321.761
322.114
322.726
318.208
317.747
317.243
317.027
316.983
316.995
317.145
317.2
317.286
317.328
317.203
317.031
316.71
316.441
316.028
315.746
315.537
315.544
315.785
316.242
310.929
310.656
310.345
310.234
310.195
310.207
310.287
310.334
310.395
310.409
310.317
310.242
310.061
309.894
309.631
309.443
309.333
309.331
309.483
309.763
303.661
303.576
303.469
303.427
303.414
303.41
303.445
303.474
303.479
303.486
303.472
303.439
303.375
303.322
303.234
303.168
303.119
303.125
303.186
303.262
355.238
353.65
352.289
351.657
351.441
351.573
351.967
352.299
352.559
352.692
352.444
351.944
350.996
349.926
348.972
347.781
347.317
347.3
348.032
349.403
347.775
346.487
345.323
344.794
344.593
344.703
345.033
345.318
345.554
345.687
345.455
345.016
344.192
343.28
342.441
341.414
341.014
341.005
341.623
342.767
340.352
339.34
338.371
337.919
337.747
337.832
338.118
338.329
338.561
338.686
338.464
338.085
337.397
336.667
335.908
335.075
334.735
334.685
335.213
336.151
332.968
332.196
331.419
331.031
330.878
330.962
331.219
331.338
331.566
331.675
331.444
331.136
330.627
330.017
329.389
328.734
328.463
328.387
328.812
329.536
325.641
325.064
324.469
324.154
324.012
324.101
324.292
324.358
324.564
324.642
324.431
324.214
323.831
323.365
322.875
322.362
322.162
322.092
322.43
322.954
318.303
317.919
317.499
317.267
317.148
317.231
317.359
317.387
317.564
317.608
317.46
317.297
317.046
316.692
316.353
315.99
315.856
315.788
316.033
316.409
310.986
310.76
310.526
310.38
310.302
310.361
310.431
310.439
310.554
310.574
310.485
310.38
310.266
310.034
309.824
309.607
309.537
309.476
309.637
309.86
303.688
303.604
303.531
303.48
303.455
303.478
303.493
303.504
303.551
303.533
303.52
303.483
303.445
303.372
303.294
303.226
303.2
303.178
303.239
303.307
355.969
354.322
353.129
352.475
352.266
352.496
352.939
353.331
353.654
353.772
353.706
353.135
352.051
351.208
349.92
348.877
348.206
348.268
348.943
350.213
348.414
347.033
346.048
345.488
345.288
345.481
345.877
346.207
346.516
346.595
346.548
346.048
345.112
344.4
343.289
342.363
341.786
341.838
342.402
343.435
340.896
339.774
338.953
338.511
338.329
338.495
338.831
339.107
339.374
339.424
339.389
338.957
338.179
337.579
336.66
335.881
335.382
335.427
335.869
336.719
333.418
332.536
331.867
331.53
331.383
331.493
331.77
331.994
332.247
332.258
332.23
331.865
331.248
330.752
330.006
329.39
328.979
328.998
329.347
330.027
325.986
325.288
324.788
324.549
324.426
324.513
324.72
324.892
325.111
325.094
325.075
324.788
324.314
323.938
323.366
322.887
322.556
322.576
322.828
323.367
318.571
318.066
317.703
317.55
317.448
317.521
317.672
317.784
317.958
317.927
317.899
317.72
317.403
317.112
316.702
316.373
316.134
316.126
316.293
316.701
311.145
310.85
310.636
310.541
310.468
310.532
310.633
310.694
310.816
310.767
310.74
310.646
310.472
310.299
310.023
309.839
309.674
309.679
309.767
310.031
303.731
303.638
303.568
303.53
303.51
303.532
303.563
303.586
303.626
303.61
303.614
303.56
303.512
303.451
303.36
303.301
303.249
303.245
303.279
303.357
357.078
355.476
354.125
353.607
353.41
353.529
354.088
354.522
354.866
355.075
355.023
354.421
353.577
352.497
351.307
350.131
349.427
349.491
350.195
351.322
349.377
348.061
346.885
346.469
346.3
346.394
346.885
347.271
347.562
347.742
347.676
347.165
346.439
345.487
344.473
343.454
342.816
342.886
343.485
344.424
341.723
340.644
339.65
339.334
339.182
339.284
339.666
340.014
340.235
340.399
340.346
339.921
339.298
338.509
337.652
336.794
336.218
336.29
336.78
337.55
334.1
333.234
332.44
332.168
332.094
332.172
332.469
332.758
332.925
333.058
333.018
332.658
332.175
331.518
330.799
330.111
329.642
329.72
330.105
330.697
326.52
325.833
325.246
325.002
324.951
325.042
325.248
325.491
325.615
325.719
325.695
325.411
325.016
324.544
323.97
323.436
323.054
323.146
323.428
323.875
318.945
318.441
318.039
317.874
317.834
317.888
318.024
318.216
318.291
318.396
318.375
318.153
317.859
317.532
317.139
316.781
316.465
316.535
316.734
317.053
311.384
311.053
310.841
310.737
310.704
310.735
310.816
310.948
310.989
311.035
311.045
310.897
310.729
310.52
310.291
310.073
309.881
309.922
310.069
310.235
303.814
303.701
303.634
303.593
303.578
303.585
303.626
303.67
303.68
303.702
303.706
303.652
303.596
303.522
303.445
303.386
303.309
303.322
303.37
303.427
358.24
356.86
355.556
354.909
354.657
354.851
355.357
355.892
356.259
356.571
356.422
355.968
355.05
353.994
352.692
351.695
351.001
350.857
351.587
352.584
350.379
349.244
348.148
347.594
347.369
347.55
347.992
348.426
348.766
349.024
348.9
348.503
347.702
346.794
345.677
344.808
344.214
344.052
344.665
345.485
342.566
341.64
340.733
340.296
340.095
340.25
340.618
340.971
341.3
341.491
341.388
341.032
340.37
339.591
338.653
337.954
337.406
337.242
337.752
338.454
334.78
334.069
333.32
332.984
332.842
332.95
333.258
333.542
333.824
333.953
333.883
333.574
333.028
332.393
331.633
331.069
330.587
330.436
330.858
331.424
327.029
326.497
325.909
325.659
325.569
325.644
325.877
326.1
326.31
326.388
326.363
326.136
325.699
325.219
324.608
324.181
323.797
323.642
323.991
324.41
319.31
318.939
318.513
318.343
318.287
318.323
318.504
318.665
318.796
318.832
318.846
318.701
318.374
318.019
317.587
317.276
317.007
316.871
317.134
317.414
311.582
311.377
311.128
311.014
310.983
311.017
311.113
311.219
311.273
311.287
311.307
311.253
311.046
310.827
310.579
310.379
310.229
310.137
310.293
310.452
303.892
303.809
303.73
303.689
303.678
303.685
303.718
303.766
303.762
303.783
303.791
303.776
303.707
303.627
303.547
303.478
303.427
303.396
303.451
303.495
359.681
358.295
357.02
356.396
356.093
356.327
356.8
357.381
357.888
358.2
358.089
357.521
356.612
355.608
354.334
353.318
352.645
352.545
353.194
354.233
351.638
350.465
349.413
348.859
348.592
348.798
349.231
349.71
350.156
350.427
350.346
349.842
349.075
348.202
347.07
346.202
345.61
345.512
346.068
346.92
343.629
342.65
341.811
341.353
341.118
341.272
341.66
342.042
342.432
342.66
342.59
342.186
341.527
340.787
339.814
339.121
338.588
338.503
338.954
339.643
335.661
334.871
334.204
333.832
333.629
333.767
334.072
334.392
334.724
334.897
334.843
334.516
333.992
333.391
332.589
332.002
331.593
331.492
331.817
332.4
327.726
327.108
326.605
326.316
326.161
326.281
326.498
326.754
327.008
327.149
327.106
326.844
326.442
325.989
325.344
324.905
324.589
324.472
324.73
325.194
319.809
319.37
319.009
318.811
318.695
318.785
318.928
319.12
319.298
319.394
319.38
319.18
318.897
318.592
318.108
317.814
317.564
317.479
317.654
317.993
311.893
311.633
311.425
311.296
311.244
311.286
311.345
311.488
311.579
311.655
311.635
311.513
311.342
311.178
310.859
310.71
310.551
310.482
310.584
310.811
303.982
303.905
303.831
303.779
303.769
303.78
303.803
303.853
303.873
303.901
303.905
303.863
303.8
303.747
303.642
303.593
303.539
303.508
303.55
303.615
361.221
359.865
358.636
358.033
357.673
357.765
358.204
358.871
359.458
359.794
359.74
359.204
358.303
357.256
356.007
354.971
354.411
354.308
355.038
355.904
352.953
351.858
350.812
350.294
349.936
350.048
350.41
351.023
351.511
351.807
351.755
351.292
350.524
349.578
348.522
347.599
347.132
347.03
347.664
348.344
344.714
343.849
342.983
342.552
342.23
342.34
342.646
343.166
343.581
343.814
343.773
343.378
342.748
341.938
341.042
340.264
339.879
339.779
340.301
340.835
336.527
335.856
335.162
334.818
334.545
334.66
334.896
335.331
335.67
335.846
335.823
335.478
334.975
334.314
333.565
332.934
332.632
332.535
332.963
333.365
328.394
327.877
327.347
327.078
326.853
326.989
327.144
327.483
327.754
327.907
327.873
327.568
327.22
326.686
326.114
325.639
325.4
325.288
325.64
325.929
320.286
319.901
319.542
319.343
319.183
319.3
319.379
319.649
319.841
319.955
319.921
319.684
319.462
319.049
318.671
318.31
318.165
318.056
318.302
318.475
312.189
311.973
311.737
311.622
311.532
311.615
311.63
311.821
311.915
311.975
311.972
311.821
311.683
311.443
311.235
310.998
310.91
310.841
311.002
311.077
304.095
304.023
303.938
303.903
303.861
303.901
303.901
303.968
303.993
304.015
304.026
303.961
303.919
303.832
303.768
303.684
303.654
303.638
303.696
303.696
362.86
361.565
360.36
359.701
359.326
359.502
359.942
360.559
361.102
361.303
361.418
360.919
360.04
358.884
357.756
356.874
356.267
356.1
356.899
357.711
354.362
353.318
352.295
351.72
351.401
351.561
351.942
352.478
352.941
353.123
353.194
352.772
352.026
350.999
350.026
349.221
348.73
348.551
349.241
349.923
345.923
345.093
344.251
343.761
343.489
343.635
343.955
344.405
344.78
344.952
344.999
344.643
344.008
343.132
342.313
341.624
341.224
341.041
341.612
342.17
337.528
336.866
336.197
335.791
335.598
335.7
335.969
336.332
336.636
336.771
336.817
336.533
335.987
335.275
334.589
334.041
333.726
333.548
334.009
334.451
329.166
328.65
328.165
327.835
327.702
327.791
327.982
328.276
328.512
328.602
328.627
328.436
327.98
327.433
326.868
326.461
326.22
326.097
326.424
326.773
320.848
320.473
320.113
319.888
319.805
319.852
319.993
320.22
320.392
320.43
320.459
320.311
320.003
319.594
319.189
318.891
318.727
318.634
318.864
319.117
312.518
312.313
312.074
311.936
311.92
311.921
312.009
312.151
312.27
312.282
312.292
312.186
312.014
311.766
311.523
311.353
311.246
311.186
311.322
311.477
304.203
304.127
304.049
303.992
304
303.992
304.021
304.076
304.117
304.124
304.124
304.081
304.032
303.941
303.863
303.802
303.777
303.745
303.789
303.839
364.747
363.409
362.205
361.452
361.19
361.359
361.64
362.186
362.69
362.931
363.055
362.564
361.744
360.649
359.662
358.871
358.252
358.118
358.765
359.732
356.014
354.91
353.878
353.244
353.011
353.15
353.402
353.878
354.323
354.495
354.643
354.198
353.493
352.523
351.658
351.007
350.435
350.318
350.851
351.668
347.334
346.428
345.57
345.036
344.844
344.964
345.171
345.565
345.965
346.104
346.22
345.864
345.239
344.424
343.684
343.135
342.654
342.534
342.984
343.644
338.714
337.96
337.283
336.849
336.691
336.79
336.966
337.267
337.605
337.734
337.802
337.533
337
336.328
335.717
335.286
334.913
334.781
335.134
335.661
330.099
329.5
329.022
328.661
328.548
328.65
328.761
328.975
329.244
329.339
329.387
329.194
328.767
328.253
327.771
327.449
327.172
327.041
327.313
327.724
321.509
321.056
320.758
320.466
320.414
320.484
320.539
320.698
320.879
320.949
320.99
320.864
320.555
320.188
319.822
319.618
319.434
319.337
319.502
319.823
312.921
312.645
312.461
312.297
312.254
312.286
312.344
312.441
312.544
312.586
312.61
312.52
312.359
312.123
311.892
311.789
311.695
311.632
311.709
311.895
304.339
304.239
304.181
304.129
304.094
304.115
304.142
304.174
304.202
304.219
304.229
304.2
304.146
304.064
303.99
303.958
303.911
303.907
303.925
303.98
366.519
365.172
364.019
363.247
362.999
363.016
363.308
363.769
364.293
364.518
364.58
364.149
363.273
362.371
361.493
360.69
360.313
360.206
360.793
361.713
357.551
356.422
355.449
354.786
354.556
354.578
354.854
355.24
355.722
355.863
355.934
355.55
354.795
354.016
353.244
352.555
352.225
352.125
352.603
353.355
348.629
347.707
346.911
346.339
346.167
346.177
346.403
346.733
347.146
347.238
347.316
347.005
346.341
345.695
345.009
344.459
344.176
344.06
344.449
345.067
339.728
339.004
338.395
337.901
337.781
337.783
337.959
338.237
338.576
338.638
338.708
338.464
337.921
337.376
336.817
336.374
336.156
336.033
336.322
336.84
330.873
330.301
329.879
329.485
329.397
329.394
329.53
329.734
330.005
330.036
330.106
329.934
329.488
329.084
328.616
328.29
328.143
328.022
328.221
328.618
322.071
321.618
321.354
321.054
321.009
320.982
321.1
321.259
321.446
321.437
321.526
321.391
321.059
320.786
320.437
320.2
320.13
320.009
320.164
320.427
313.266
312.972
312.827
312.646
312.623
312.593
312.683
312.779
312.895
312.87
312.936
312.842
312.632
312.487
312.264
312.141
312.105
312.017
312.127
312.262
304.453
304.339
304.301
304.239
304.232
304.22
304.24
304.286
304.337
304.313
304.334
304.312
304.238
304.181
304.103
304.064
304.054
304.027
304.062
304.111
368.39
367.008
365.911
365.166
364.879
364.895
365.074
365.336
365.716
366.105
366.077
365.733
365.107
364.154
363.273
362.48
362.307
362.294
362.747
363.694
359.158
358.025
357.067
356.439
356.195
356.19
356.367
356.597
356.946
357.248
357.212
356.935
356.382
355.543
354.744
354.097
353.944
353.914
354.262
355.061
349.961
349.067
348.267
347.711
347.519
347.527
347.691
347.892
348.183
348.429
348.386
348.169
347.663
346.962
346.26
345.763
345.6
345.571
345.838
346.497
340.84
340.139
339.485
339
338.872
338.882
339.007
339.202
339.43
339.633
339.574
339.404
338.984
338.409
337.807
337.419
337.301
337.268
337.465
337.982
331.729
331.206
330.725
330.312
330.258
330.241
330.344
330.498
330.685
330.849
330.768
330.66
330.306
329.87
329.395
329.114
329.006
328.984
329.124
329.493
322.651
322.268
321.96
321.658
321.626
321.609
321.693
321.806
321.933
322.059
321.977
321.919
321.665
321.334
321.003
320.806
320.708
320.717
320.796
321.045
313.605
313.36
313.189
313.021
312.989
312.975
313.028
313.099
313.168
313.236
313.19
313.169
313.005
312.807
312.607
312.491
312.441
312.446
312.493
312.635
304.557
304.472
304.423
304.37
304.354
304.35
304.367
304.39
304.41
304.423
304.42
304.417
304.355
304.292
304.221
304.191
304.176
304.168
304.189
304.236
370.144
369.044
367.869
367.015
366.748
366.76
366.847
367.101
367.373
367.675
367.717
367.36
366.658
365.806
365.018
364.399
364.294
364.417
364.684
365.585
360.681
359.77
358.791
358.04
357.839
357.85
357.905
358.107
358.363
358.599
358.642
358.342
357.719
356.993
356.285
355.739
355.661
355.766
355.953
356.682
351.266
350.535
349.726
349.104
348.952
348.939
349.002
349.148
349.357
349.569
349.607
349.351
348.809
348.199
347.571
347.104
347.052
347.145
347.285
347.843
341.881
341.319
340.673
340.148
340.068
340.029
340.098
340.186
340.353
340.565
340.563
340.386
339.947
339.425
338.895
338.518
338.481
338.545
338.657
339.08
332.529
332.115
331.635
331.189
331.163
331.119
331.198
331.246
331.374
331.553
331.539
331.422
331.061
330.64
330.253
329.959
329.92
329.959
330.05
330.368
323.205
322.935
322.57
322.277
322.264
322.234
322.296
322.319
322.408
322.533
322.532
322.453
322.198
321.874
321.626
321.404
321.378
321.394
321.468
321.673
313.923
313.764
313.532
313.38
313.381
313.346
313.397
313.411
313.452
313.511
313.526
313.492
313.332
313.128
312.987
312.846
312.855
312.85
312.893
313.016
304.659
304.608
304.529
304.48
304.493
304.479
304.494
304.494
304.51
304.521
304.537
304.532
304.466
304.402
304.352
304.302
304.312
304.315
304.324
304.363
372.106
370.936
369.923
369.047
368.628
368.548
368.637
368.777
369.003
369.226
369.186
368.815
368.251
367.551
366.97
366.371
366.23
366.418
366.903
367.722
362.37
361.395
360.578
359.799
359.458
359.385
359.461
359.569
359.766
359.967
359.911
359.615
359.082
358.491
357.953
357.456
357.317
357.495
357.889
358.551
352.705
351.892
351.255
350.584
350.31
350.248
350.281
350.383
350.54
350.711
350.665
350.431
349.961
349.454
348.957
348.569
348.433
348.591
348.933
349.447
343.064
342.423
341.923
341.375
341.175
341.111
341.127
341.222
341.367
341.48
341.43
341.267
340.883
340.449
340.013
339.703
339.604
339.729
340.017
340.395
333.438
332.983
332.606
332.17
332.032
331.965
332.001
332.074
332.199
332.284
332.214
332.103
331.815
331.479
331.092
330.865
330.796
330.885
331.118
331.392
323.862
323.568
323.302
322.984
322.884
322.824
322.876
322.935
323.017
323.067
323.002
322.942
322.746
322.485
322.175
322.06
322.003
322.068
322.239
322.413
314.323
314.143
313.987
313.789
313.737
313.712
313.741
313.79
313.823
313.86
313.819
313.784
313.648
313.503
313.284
313.243
313.225
313.278
313.361
313.449
304.802
304.741
304.686
304.621
304.607
304.6
304.603
304.629
304.624
304.654
304.635
304.626
304.564
304.521
304.448
304.445
304.444
304.448
304.488
304.506
374.253
372.872
371.923
371.006
370.488
370.4
370.338
370.358
370.681
370.79
370.72
370.291
369.957
369.233
368.655
368.318
368.218
368.279
368.935
369.77
364.252
363.076
362.278
361.498
361.063
361.002
360.935
360.931
361.214
361.321
361.26
360.868
360.565
359.922
359.433
359.138
359.055
359.086
359.618
360.31
354.305
353.319
352.697
352
351.651
351.609
351.551
351.531
351.77
351.842
351.81
351.485
351.214
350.63
350.202
350.013
349.946
349.956
350.377
350.923
344.406
343.574
343.132
342.513
342.256
342.217
342.157
342.149
342.346
342.396
342.387
342.107
341.898
341.38
341.034
340.9
340.838
340.864
341.183
341.601
334.528
333.876
333.56
333.067
332.866
332.826
332.774
332.768
332.952
332.965
332.971
332.752
332.57
332.17
331.881
331.83
331.752
331.782
332.01
332.316
324.661
324.188
323.972
323.633
323.475
323.456
323.413
323.405
323.551
323.548
323.557
323.409
323.255
322.969
322.755
322.738
322.685
322.713
322.865
323.056
314.808
314.523
314.396
314.191
314.109
314.1
314.054
314.05
314.152
314.132
314.154
314.06
313.962
313.786
313.671
313.65
313.617
313.634
313.722
313.851
304.967
304.863
304.82
304.763
304.738
304.724
304.705
304.718
304.736
304.732
304.748
304.709
304.682
304.629
304.589
304.579
304.567
304.576
304.605
304.645
376.23
374.97
373.845
372.921
372.364
372.15
372.081
372.11
372.34
372.366
372.182
371.844
371.549
370.985
370.486
370.27
370.112
370.433
371.051
371.863
365.974
364.887
363.954
363.129
362.651
362.516
362.439
362.445
362.649
362.664
362.503
362.186
361.951
361.445
361.016
360.808
360.655
360.914
361.439
362.123
355.786
354.853
354.081
353.39
352.978
352.892
352.797
352.803
352.974
353.007
352.854
352.558
352.384
351.935
351.579
351.383
351.252
351.467
351.905
352.455
345.619
344.856
344.257
343.68
343.35
343.286
343.183
343.18
343.338
343.372
343.219
342.974
342.851
342.459
342.146
342.003
341.907
342.079
342.433
342.841
335.462
334.877
334.415
333.951
333.727
333.685
333.584
333.602
333.73
333.752
333.613
333.397
333.328
332.994
332.748
332.643
332.595
332.714
332.984
333.28
325.337
324.907
324.589
324.242
324.103
324.082
323.996
324.027
324.142
324.116
324.013
323.86
323.825
323.557
323.37
323.319
323.301
323.37
323.55
323.781
315.211
314.961
314.767
314.571
314.479
314.46
314.414
314.423
314.521
314.48
314.411
314.313
314.317
314.141
314.027
314.003
313.994
314.04
314.135
314.285
305.088
305.016
304.945
304.891
304.852
304.839
304.825
304.839
304.873
304.85
304.832
304.795
304.798
304.739
304.703
304.698
304.692
304.695
304.747
304.787
378.194
377.007
375.847
374.977
374.383
374.037
373.877
373.841
373.856
373.737
373.733
373.539
373.052
372.69
372.307
372.064
372.105
372.387
373.034
373.987
367.651
366.691
365.704
364.921
364.399
364.095
363.963
363.947
363.943
363.835
363.859
363.677
363.253
362.948
362.582
362.369
362.374
362.599
363.17
363.954
357.149
356.384
355.579
354.893
354.459
354.19
354.075
354.08
354.063
353.996
354.016
353.818
353.469
353.214
352.895
352.717
352.705
352.896
353.336
353.996
346.693
346.117
345.453
344.852
344.535
344.321
344.241
344.218
344.205
344.171
344.188
343.994
343.724
343.5
343.218
343.097
343.079
343.237
343.553
344.107
336.275
335.862
335.36
334.856
334.627
334.454
334.42
334.377
334.368
334.382
334.381
334.19
333.979
333.811
333.582
333.519
333.478
333.61
333.842
334.262
325.9
325.626
325.247
324.872
324.74
324.621
324.581
324.556
324.554
324.578
324.572
324.407
324.261
324.143
323.983
323.956
323.895
323.998
324.165
324.453
315.558
315.382
315.159
314.917
314.855
314.793
314.752
314.756
314.739
314.761
314.756
314.64
314.582
314.5
314.403
314.395
314.346
314.399
314.507
314.675
305.214
305.153
305.082
305.01
304.987
304.961
304.936
304.953
304.939
304.951
304.953
304.91
304.892
304.855
304.827
304.833
304.812
304.823
304.868
304.914
380.154
378.962
377.773
376.748
376.1
375.733
375.545
375.574
375.521
375.31
375.259
375.036
374.755
374.446
374.137
373.932
374.086
374.432
374.954
376.068
369.346
368.333
367.32
366.441
365.858
365.563
365.395
365.408
365.372
365.168
365.174
364.936
364.692
364.445
364.148
363.973
364.062
364.355
364.804
365.737
358.577
357.738
356.903
356.174
355.671
355.415
355.294
355.309
355.262
355.104
355.108
354.881
354.665
354.475
354.207
354.081
354.12
354.351
354.731
355.477
347.862
347.188
346.511
345.918
345.522
345.301
345.22
345.247
345.177
345.076
345.083
344.858
344.685
344.527
344.305
344.23
344.23
344.406
344.706
345.278
337.196
336.687
336.152
335.7
335.398
335.225
335.173
335.19
335.125
335.066
335.088
334.86
334.731
334.6
334.437
334.396
334.385
334.489
334.731
335.157
326.556
326.188
325.82
325.518
325.28
325.167
325.138
325.123
325.072
325.058
325.085
324.907
324.816
324.707
324.592
324.568
324.556
324.626
324.802
325.079
315.94
315.719
315.513
315.329
315.187
315.101
315.099
315.072
315.06
315.059
315.055
314.965
314.915
314.829
314.764
314.748
314.742
314.773
314.898
315.042
305.345
305.264
305.196
305.143
305.094
305.069
305.056
305.052
305.041
305.041
305.044
305.023
305
304.972
304.954
304.946
304.946
304.952
304.99
305.038
381.867
380.639
379.444
378.527
377.683
377.322
377.268
377.222
376.904
376.791
376.653
376.535
376.225
376.032
375.731
375.583
375.821
376.144
376.877
377.788
370.785
369.746
368.749
367.946
367.201
366.917
366.873
366.847
366.567
366.46
366.325
366.234
365.943
365.748
365.5
365.347
365.545
365.827
366.446
367.187
359.767
358.921
358.095
357.431
356.784
356.569
356.51
356.5
356.275
356.168
356.046
355.978
355.713
355.55
355.33
355.181
355.325
355.593
356.114
356.697
348.824
348.161
347.488
346.964
346.4
346.254
346.195
346.2
346.015
345.926
345.825
345.756
345.515
345.384
345.203
345.091
345.196
345.432
345.842
346.281
337.922
337.461
336.908
336.512
336.08
335.959
335.913
335.92
335.789
335.705
335.616
335.563
335.387
335.253
335.126
335.032
335.119
335.3
335.603
335.945
327.081
326.758
326.358
326.102
325.759
325.706
325.635
325.655
325.599
325.503
325.44
325.386
325.274
325.162
325.069
325
325.078
325.189
325.417
325.651
316.259
316.08
315.834
315.68
315.463
315.422
315.385
315.406
315.396
315.317
315.278
315.241
315.183
315.086
315.049
314.991
315.055
315.119
315.266
315.386
305.449
305.387
305.308
305.259
305.183
305.172
305.155
305.168
305.168
305.133
305.12
305.114
305.087
305.049
305.034
305.013
305.046
305.066
305.109
305.154
383.233
381.894
380.816
379.841
378.997
378.539
378.374
378.307
378.051
377.944
377.791
377.763
377.313
377.138
376.884
376.849
377.063
377.617
378.294
379.105
371.899
370.777
369.842
369.029
368.288
367.906
367.777
367.724
367.504
367.389
367.262
367.236
366.797
366.644
366.438
366.384
366.56
367.023
367.577
368.241
360.667
359.77
358.977
358.317
357.671
357.354
357.239
357.215
357.044
356.897
356.808
356.768
356.398
356.268
356.094
356.015
356.158
356.563
356.983
357.528
349.528
348.824
348.192
347.643
347.121
346.841
346.743
346.76
346.639
346.495
346.41
346.353
346.074
345.988
345.807
345.722
345.84
346.172
346.503
346.91
338.466
337.959
337.455
337.036
336.613
336.392
336.305
336.365
336.267
336.129
336.066
336.017
335.795
335.741
335.601
335.497
335.586
335.859
336.106
336.391
327.442
327.128
326.747
326.454
326.119
325.961
325.924
325.979
325.913
325.802
325.761
325.714
325.532
325.518
325.432
325.345
325.39
325.584
325.778
325.953
316.469
316.3
316.067
315.883
315.662
315.576
315.567
315.601
315.558
315.508
315.454
315.445
315.326
315.317
315.267
315.204
315.237
315.356
315.457
315.572
305.504
305.46
305.384
305.325
305.242
305.222
305.224
305.24
305.221
305.201
305.179
305.179
305.124
305.134
305.112
305.085
305.1
305.145
305.172
305.212
)
;

boundaryField
{
    hotSide
    {
        type            fixedGradient;
        gradient        nonuniform List<scalar> 
400
(
596.392
597.377
601.734
609.384
620.016
633.174
648.373
665.167
683.185
702.136
721.799
742.014
762.668
783.688
805.032
826.683
848.644
870.926
893.542
916.491
569.821
571.034
575.854
584.183
595.643
609.697
625.79
643.426
662.209
681.834
702.078
722.784
743.843
765.191
786.796
808.654
830.781
853.202
875.942
899.011
552.011
553.747
559.058
567.839
579.712
594.149
610.592
628.547
647.61
667.473
687.909
708.758
729.914
751.317
772.939
794.784
816.874
839.241
861.915
884.913
542.436
544.966
550.812
559.867
571.809
586.185
602.503
620.307
639.21
658.904
679.161
699.816
720.764
741.945
763.336
784.941
806.785
828.9
851.318
874.057
538.956
542.433
548.889
558.212
570.141
584.308
600.302
617.721
636.208
655.469
675.278
695.474
715.954
736.664
757.585
778.727
800.117
821.789
843.772
866.089
539.143
543.621
550.78
560.5
572.55
586.621
602.359
619.408
637.439
656.174
675.4
694.968
714.789
734.824
755.071
775.554
796.306
817.367
838.771
860.542
541.024
546.502
554.452
564.735
577.13
591.347
607.055
623.914
641.606
659.862
678.484
697.344
716.386
735.603
755.025
774.7
794.681
815.017
835.748
856.9
543.117
549.55
558.338
569.327
582.285
596.916
612.875
629.802
647.358
665.267
683.341
701.487
719.697
738.021
756.537
775.333
794.486
814.058
834.096
854.626
544.285
551.557
561.153
572.908
586.576
601.833
618.295
635.548
653.199
670.937
688.575
706.067
723.475
740.926
758.564
776.521
794.901
813.777
833.197
853.185
543.647
551.541
561.794
574.236
588.608
604.56
621.655
639.409
657.347
675.101
692.479
709.482
726.26
743.023
759.98
777.302
795.112
813.489
832.478
852.098
540.598
548.787
559.406
572.284
587.155
603.647
621.287
639.531
657.84
675.79
693.177
710.039
726.583
743.076
759.767
776.848
794.451
812.656
831.506
851.014
534.903
542.986
553.586
566.53
581.544
598.246
616.149
634.699
653.344
671.653
689.411
706.643
723.544
740.373
757.374
774.738
792.597
811.033
830.091
849.787
526.791
534.372
544.579
557.237
572.065
588.676
606.592
625.286
644.248
663.077
681.546
699.628
717.441
735.175
753.028
771.167
789.718
808.765
828.36
848.529
517
523.757
533.305
545.473
559.971
576.405
594.306
613.179
632.556
652.065
671.465
690.667
709.698
728.664
747.695
766.922
786.454
806.376
826.745
847.596
506.782
512.501
521.268
532.918
547.146
563.531
581.587
600.821
620.779
641.095
661.512
681.891
702.192
722.446
742.73
763.133
783.745
804.645
825.893
847.53
497.955
502.527
510.504
521.73
535.857
552.405
570.83
590.602
611.254
632.41
653.8
675.255
696.694
718.104
739.52
761.001
782.623
804.455
826.558
848.975
493.011
496.439
503.679
514.584
528.738
545.561
564.425
584.746
606.031
627.896
650.067
672.361
694.679
716.984
739.286
761.627
784.067
806.674
829.504
852.601
495.029
497.462
504.032
514.592
528.666
545.584
564.645
585.228
606.827
629.06
651.653
674.424
697.265
720.124
742.996
765.911
788.916
812.072
835.433
859.037
506.756
508.511
514.453
524.449
538.02
554.494
573.173
593.441
614.803
636.886
659.419
682.218
705.167
728.202
751.303
774.483
797.776
821.231
844.889
868.782
528.966
530.402
535.749
544.899
557.457
572.855
590.482
609.785
630.303
651.679
673.647
696.015
718.656
741.492
764.485
787.627
810.932
834.429
858.142
882.089
)
;
    }
    coldSide
    {
        type            mixed;
        refValue        uniform 300;
        refGradient     uniform 0;
        valueFraction   uniform 0.991591;
        source          uniform 0;
        value           nonuniform List<scalar> 
400
(
300.031
300.031
300.031
300.031
300.032
300.033
300.033
300.034
300.035
300.036
300.037
300.038
300.039
300.04
300.042
300.043
300.044
300.045
300.046
300.046
300.03
300.03
300.03
300.031
300.031
300.032
300.033
300.034
300.035
300.036
300.036
300.038
300.039
300.04
300.041
300.042
300.043
300.044
300.045
300.046
300.029
300.029