/*--------------------------------*- C++ -*----------------------------------*\
| =========                 |                                                 |
| \\      /  F ield         | OpenFOAM: The Open Source CFD Toolbox           |
|  \\    /   O peration     | Version:  2212                                  |
|   \\  /    A nd           | Website:  www.openfoam.com                      |
|    \\/     M anipulation  |                                                 |
\*---------------------------------------------------------------------------*/
FoamFile
{
    version     2.0;
    format      ascii;
    arch        "LSB;label=32;scalar=64";
    class       volScalarField;
    location    "./ITHACAoutput/true/9.6";
    object      error;
}
// * * * * * * * * * * * * * * * * * * * * * * * * * * * * * * * * * * * * * //

dimensions      [0 0 0 1 0 0 0];

internalField   nonuniform List<scalar> 
3200
(
-0.150126
1.36665
2.77518
3.68206
4.20583
4.3718
4.43255
4.47506
4.36339
4.29953
4.32375
4.40804
4.61032
4.84281
5.03153
5.19369
5.00478
4.4294
3.3948
1.95803
0.0231008
1.36519
2.52662
3.40109
3.73781
3.89157
3.89371
3.98573
3.74445
3.81095
3.7655
3.78238
4.04131
4.19078
4.39174
4.51667
4.44362
3.93751
2.9495
1.88354
0.242439
1.31337
2.3147
2.9277
3.27823
3.41451
3.48291
3.35907
3.37871
3.2639
3.23083
3.25948
3.37441
3.63725
3.74076
3.85344
3.79167
3.35875
2.49292
1.62815
0.35834
1.1552
1.9262
2.44259
2.71882
2.9278
2.86851
2.77638
2.767
2.73037
2.68546
2.70878
2.87288
3.02669
3.06645
3.18673
3.06424
2.77498
2.11532
1.41163
0.272246
1.00496
1.56798
1.94407
2.18639
2.31447
2.24555
2.18255
2.15851
2.04568
2.06288
2.09549
2.23785
2.28248
2.41384
2.39274
2.43364
2.1662
1.61015
1.07031
0.265317
0.721071
1.1101
1.42165
1.58152
1.61844
1.67897
1.5947
1.5906
1.51961
1.57373
1.56454
1.57122
1.68924
1.74112
1.721
1.69579
1.49297
1.11904
0.810387
0.185702
0.408006
0.668221
0.830281
0.931188
1.02855
1.0434
0.896317
0.898361
0.86454
0.939724
0.937954
0.974484
0.909537
1.07617
1.04658
1.0918
0.879918
0.704896
0.463803
0.0655795
0.230583
0.236829
0.156682
0.264325
0.340311
0.335956
0.28879
0.297281
0.287865
0.283754
0.278484
0.334961
0.345708
0.37238
0.315006
0.303576
0.339234
0.237067
0.151127
-0.283757
1.28503
2.57954
3.48662
4.07869
4.18634
4.06469
4.01391
3.87414
3.87759
3.81908
3.84822
4.19048
4.49837
4.73352
4.93269
4.83684
4.23701
3.29202
1.9484
-0.0982202
1.21651
2.4027
3.17795
3.57582
3.74736
3.5926
3.5466
3.49256
3.39682
3.41627
3.47258
3.63393
3.84174
4.11956
4.305
4.20276
3.65928
2.86256
1.75521
0.173408
1.25291
2.18228
2.78355
3.0809
3.19376
3.24326
3.16251
2.98914
2.95365
2.87271
2.98579
3.19035
3.19903
3.49964
3.68105
3.57728
3.20156
2.41356
1.5007
0.292128
1.04735
1.8525
2.33601
2.64576
2.69041
2.64699
2.66475
2.54192
2.41035
2.38512
2.51194
2.58056
2.78624
2.88832
2.97953
2.93406
2.68158
1.99836
1.31742
0.192675
0.886492
1.47238
1.83807
2.10842
2.11796
2.16605
2.11392
1.98943
1.90396
1.90033
1.92167
2.05441
2.06446
2.21002
2.33392
2.31626
2.03643
1.61944
0.9705
0.194883
0.608084
1.1708
1.34391
1.48609
1.57617
1.50226
1.45371
1.39679
1.37882
1.39822
1.35756
1.33391
1.53159
1.70208
1.64847
1.61443
1.45201
1.0292
0.812621
0.211342
0.413038
0.557724
0.818001
0.868533
0.925436
0.930439
0.923803
0.893589
0.823351
0.86408
0.886159
0.852016
0.934683
0.989655
1.02479
0.976797
0.848381
0.694385
0.481377
0.0437915
0.137403
0.184644
0.328985
0.344953
0.329054
0.203194
0.286129
0.225194
0.257022
0.294411
0.270445
0.23097
0.34296
0.362496
0.418006
0.307116
0.238156
0.16262
0.230659
-0.501202
0.989965
2.32277
3.18209
3.64021
3.63009
3.57309
3.49504
3.30682
3.16114
3.09449
3.23413
3.48721
3.72369
4.18699
4.39166
4.44876
3.92793
2.96085
1.74464
-0.212649
1.02633
2.15344
2.97502
3.25231
3.36589
3.16372
3.09263
2.84508
2.86151
2.88046
2.82743
3.0471
3.43436
3.65765
3.8491
3.83374
3.48477
2.64255
1.64528
-0.00306448
0.991388
1.97328
2.51357
2.85694
2.84042
2.76268
2.64446
2.53868
2.39392
2.32987
2.37504
2.6353
2.89182
3.12572
3.35914
3.33116
3.04545
2.26161
1.41268
0.0235137
0.935275
1.70442
2.03342
2.3659
2.44256
2.36698
2.28579
2.12209
1.98185
1.96841
2.00706
2.1593
2.42234
2.55049
2.74473
2.72912
2.47769
1.85727
1.07048
0.152569
0.790701
1.27635
1.68344
1.89992
1.87486
1.93938
1.72081
1.65658
1.5721
1.61296
1.56202
1.73191
1.90524
1.99912
2.13809
2.06142
1.90778
1.52949
0.905059
0.107827
0.63642
0.94
1.28774
1.4028
1.4227
1.37495
1.29268
1.25875
1.14787
1.11092
1.16958
1.1758
1.37565
1.51969
1.58943
1.51687
1.35755
1.0398
0.662402
0.0985341
0.367277
0.627909
0.786533
0.864131
0.886104
0.794101
0.799764
0.715857
0.638331
0.756664
0.750426
0.761681
0.839533
0.854124
0.964977
0.923849
0.86229
0.579232
0.382305
0.0843864
0.152104
0.190957
0.235705
0.290392
0.360477
0.295615
0.226791
0.228448
0.269819
0.252735
0.27149
0.248812
0.345374
0.324945
0.284095
0.289241
0.306708
0.16129
0.154873
-0.850595
0.67043
1.90913
2.79088
3.04328
3.14557
3.02425
2.81899
2.49854
2.34904
2.29251
2.4221
2.66967
3.05159
3.60242
3.88151
3.9306
3.57318
2.57676
1.47525
-0.469308
0.824633
1.83922
2.48335
2.76267
2.8169
2.64435
2.48403
2.2597
2.04935
2.00566
2.11952
2.3917
2.76363
3.13551
3.35931
3.50467
3.14761
2.33625
1.33526
-0.215825
0.740408
1.65234
2.26282
2.50379
2.4629
2.3486
2.16466
2.00295
1.80467
1.71987
1.84067
2.04431
2.40245
2.62686
2.8945
2.90618
2.65505
1.97582
1.12824
-0.0101172
0.623535
1.42572
1.95271
2.0528
2.06695
1.91497
1.75717
1.62249
1.50496
1.50877
1.52142
1.74736
1.96819
2.19045
2.42698
2.40085
2.1702
1.60264
0.999228
0.0013183
0.645391
1.13041
1.49964
1.63066
1.64669
1.59906
1.45106
1.3005
1.15994
1.19194
1.24383
1.31516
1.54115
1.74621
1.88122
1.84825
1.68969
1.22889
0.809747
-0.000483992
0.358912
0.880249
1.01624
1.22386
1.2177
1.14086
1.05919
0.928664
0.841586
0.790524
0.86401
0.979774
1.08981
1.20471
1.33493
1.25383
1.13874
0.875241
0.525306
0.0211098
0.32537
0.550979
0.66623
0.804515
0.724923
0.690773
0.689083
0.564743
0.551542
0.584459
0.519491
0.526256
0.601899
0.715923
0.832276
0.748521
0.763999
0.536907
0.29285
-0.0121666
0.0696087
0.210763
0.256
0.199857
0.282491
0.18573
0.270782
0.193937
0.138816
0.0410675
0.143771
0.122917
0.242705
0.19724
0.286595
0.306691
0.179248
0.205888
0.145854
-1.14185
0.198131
1.47326
2.19544
2.52081
2.50329
2.2515
2.0393
1.69435
1.44436
1.39311
1.56514
1.80708
2.33192
2.81002
3.22779
3.34548
2.97212
2.13955
1.03983
-0.801698
0.306174
1.4517
2.01679
2.34978
2.28024
2.10875
1.79438
1.51361
1.31136
1.27457
1.31009
1.67894
2.04683
2.53166
2.86985
2.89103
2.57712
1.81824
0.955135
-0.522096
0.386414
1.28495
1.84305
2.05558
2.07058
1.89733
1.52727
1.42016
1.16888
1.06883
1.16983
1.43353
1.86206
2.19628
2.45485
2.52404
2.16873
1.60835
0.863992
-0.351927
0.527028
1.09753
1.59787
1.71461
1.70183
1.54709
1.39077
1.2284
0.993977
0.947094
1.02398
1.23648
1.48797
1.74114
2.01385
1.9983
1.8368
1.42421
0.689461
-0.198797
0.465405
0.967433
1.32573
1.3955
1.30742
1.31606
1.13293
0.972114
0.873
0.716995
0.847663
0.937536
1.23936
1.33594
1.50559
1.53748
1.48494
1.04335
0.579068
-0.0921106
0.221889
0.64549
0.89574
0.934169
0.930342
0.910664
0.781295
0.641
0.556884
0.540873
0.607028
0.63699
0.842636
0.966021
1.106
1.13739
1.0979
0.722581
0.400071
-0.0238273
0.108044
0.434034
0.582484
0.637415
0.53288
0.458141
0.450756
0.397003
0.27428
0.373228
0.352175
0.520871
0.476424
0.587816
0.757284
0.680222
0.57358
0.55287
0.234627
0.0562085
0.0319835
0.108759
0.169654
0.205261
0.194348
0.199365
0.173087
0.144671
0.0787153
0.174394
0.129961
0.107347
0.194469
0.171086
0.285697
0.255819
0.170521
0.125797
0.0814184
-1.64387
-0.327523
0.899242
1.62716
1.90455
1.92166
1.65171
1.28773
0.855725
0.576647
0.410676
0.590835
0.990478
1.62841
2.04211
2.5633
2.75187
2.42578
1.65877
0.640832
-1.18787
-0.0380397
0.9086
1.63095
1.6803
1.80819
1.49315
1.17743
0.81707
0.573695
0.485632
0.536038
0.856762
1.43355
1.81616
2.26981
2.33173
2.13653
1.45163
0.521625
-0.907473
0.0285437
0.894851
1.37858
1.59564
1.54267
1.34926
1.08567
0.808978
0.544796
0.399956
0.52759
0.79389
1.23764
1.62042
1.96608
1.9884
1.79118
1.27632
0.512364
-0.606812
0.0883705
0.783662
1.14672
1.33607
1.38384
1.20225
0.918775
0.693686
0.439365
0.386595
0.464494
0.654098
1.0323
1.3435
1.57842
1.62695
1.48208
1.04319
0.363347
-0.396781
0.0896966
0.619235
0.929612
1.09751
0.951233
0.877829
0.777724
0.555018
0.394763
0.311676
0.460993
0.645453
0.841425
1.09501
1.21389
1.31364
1.1651
0.80552
0.387628
-0.236051
0.0475996
0.428677
0.717712
0.832109
0.757434
0.605472
0.589166
0.433949
0.257456
0.25908
0.293581
0.512859
0.62963
0.776886
0.90263
0.904691
0.837166
0.576835
0.255524
-0.195956
0.0623042
0.227533
0.466117
0.528179
0.468347
0.395216
0.377
0.208097
0.23601
0.120015
0.187892
0.237821
0.310676
0.511423
0.527162
0.573548
0.46749
0.342043
0.179809
-0.0683953
-0.0102642
0.0984917
0.150753
0.15206
0.189272
0.109834
0.147257
0.0752856
0.0676676
0.0342496
0.0157465
0.107832
0.122962
0.219379
0.110261
0.190223
0.141138
0.150178
0.0528347
-2.09956
-0.808196
0.406862
0.941612
1.4224
1.33076
0.932865
0.610075
0.3023
-0.177203
-0.333929
-0.176556
0.153519
0.813594
1.44042
1.94056
2.02462
1.80555
1.14358
0.0637537
-1.61228
-0.544936
0.465429
1.04097
1.28323
1.18577
0.976443
0.633459
0.244239
-0.120264
-0.262878
-0.0588877
0.278933
0.786929
1.23074
1.62697
1.8195
1.66235
1.01498
0.165593
-1.1946
-0.307466
0.500432
0.988573
1.15221
1.05875
0.920519
0.572842
0.192614
-0.0631918
-0.127964
-0.0411289
0.212579
0.704087
1.12609
1.48806
1.59264
1.45073
0.857093
0.165517
-0.960013
-0.182646
0.439574
0.753726
0.980035
0.961421
0.743441
0.492225
0.220997
0.0610502
-0.0179769
-0.0411066
0.208334
0.503189
0.970238
1.26768
1.30292
1.12796
0.758675
0.126598
-0.692222
-0.0782851
0.42815
0.6218
0.764455
0.764691
0.659507
0.466642
0.196961
0.0131466
0.00319936
-0.0159946
0.220224
0.466633
0.703342
0.956002
1.04065
0.883336
0.653145
0.15921
-0.46345
-0.0974507
0.310274
0.589599
0.572623
0.535733
0.447942
0.331803
0.165842
-0.0282805
-0.0252171
0.044519
0.192731
0.36428
0.589662
0.719956
0.713971
0.629145
0.381332
0.101626
-0.200872
-0.0367234
0.166139
0.302273
0.399506
0.386513
0.331406
0.225757
0.0375518
0.0239006
-0.0102812
-0.0255585
0.0534646
0.162788
0.330225
0.36807
0.452419
0.35854
0.223402
0.00104801
-0.107749
0.0173805
0.080603
0.129289
0.114447
0.0624826
0.0708379
0.114029
-0.048488
0.0402915
-0.0590416
-0.00146988
0.00211571
0.0891967
0.0683737
0.184222
0.154032
0.059996
0.12142
0.072184
-2.52426
-1.11117
-0.13256
0.472616
0.833142
0.71676
0.403624
0.0151989
-0.461297
-0.821136
-1.00134
-0.893359
-0.401125
0.180415
0.828092
1.28323
1.5687
1.24101
0.646175
-0.340544
-2.00425
-0.919416
0.0432993
0.583719
0.690528
0.743178
0.4168
0.107758
-0.372607
-0.68828
-0.794059
-0.741928
-0.309442
0.211458
0.685516
1.15442
1.33454
1.13664
0.521011
-0.187762
-1.53585
-0.633053
0.0450024
0.532308
0.770949
0.629266
0.4854
0.169285
-0.253559
-0.59062
-0.59659
-0.569549
-0.285501
0.155781
0.628029
0.920637
1.14425
1.02946
0.48215
-0.0807818
-1.12086
-0.486492
0.228963
0.481721
0.689228
0.648917
0.380134
0.163312
-0.13974
-0.464856
-0.48305
-0.447367
-0.202934
0.172785
0.57963
0.822566
0.889535
0.884384
0.412083
-0.143983
-0.865262
-0.357168
0.165721
0.404135
0.548872
0.482872
0.354083
0.160247
-0.136005
-0.202893
-0.436277
-0.343085
-0.0917104
0.213093
0.455914
0.567377
0.744012
0.571642
0.320942
-0.0440781
-0.639183
-0.205989
0.13641
0.333245
0.427619
0.41338
0.185159
0.115427
0.0180406
-0.190753
-0.253762
-0.257399
-0.113248
0.0489655
0.33698
0.494277
0.553004
0.426381
0.251654
-0.0319146
-0.343979
-0.0870251
0.126922
0.218308
0.266438
0.193579
0.191654
0.0187275
-0.119887
-0.1119
-0.166878
-0.0884727
-0.0437629
0.0352596
0.263317
0.325917
0.291715
0.315011
0.113763
0.00530199
-0.0838066
-0.0566388
-0.0161563
0.10165
0.0885157
-0.000101368
0.0561773
0.0559661
-0.0506842
-0.0499689
-0.148749
-0.00857867
-0.0214591
0.0457929
0.0729178
0.0745519
0.129282
0.107824
0.0892564
-0.0537857
-2.80024
-1.67248
-0.604179
0.00252783
0.28673
0.287712
-0.0495176
-0.475076
-0.913111
-1.39648
-1.63874
-1.42354
-0.960174
-0.342773
0.250102
0.832945
1.03417
0.783449
0.284119
-0.593141
-2.31193
-1.24101
-0.396917
0.20782
0.340148
0.273572
0.104202
-0.401962
-0.782087
-1.209
-1.38242
-1.18891
-0.760445
-0.26884
0.319881
0.756346
0.934059
0.711615
0.235295
-0.573279
-1.83655
-1.01755
-0.285922
0.165743
0.389138
0.349329
0.14136
-0.274109
-0.681982
-1.02556
-1.05469
-0.972228
-0.603705
-0.168742
0.257015
0.635131
0.749455
0.67943
0.168686
-0.458309
-1.42154
-0.747671
-0.131335
0.257831
0.372859
0.308002
0.109602
-0.0617924
-0.414144
-0.735762
-0.817125
-0.719468
-0.523281
-0.131645
0.244152
0.487237
0.670863
0.483606
0.178039
-0.302253
-0.952386
-0.537842
-0.0781872
0.174648
0.285163
0.31054
0.0627496
-0.10807
-0.33796
-0.515536
-0.647932
-0.569544
-0.403919
-0.0552169
0.228458
0.43952
0.510181
0.367755
0.121857
-0.175954
-0.710675
-0.376513
-0.0641977
0.147276
0.287192
0.205001
0.0839636
-0.0419289
-0.1912
-0.424446
-0.426786
-0.40226
-0.254892
-0.0436086
0.191434
0.298961
0.38284
0.199343
0.128245
-0.129381
-0.381199
-0.175216
-0.0062594
0.129662
0.145375
0.181335
0.061128
-0.0946473
-0.166194
-0.225802
-0.274551
-0.327429
-0.198047
-0.106516
0.101172
0.1916
0.222886
0.142568
0.185719
-0.177212
-0.229143
-0.04517
-0.0183922
0.0310182
0.0966666
0.0640481
0.0198692
-0.0952524
-0.0871014
-0.070061
-0.147887
-0.074743
-0.124066
-0.0537706
0.113032
0.0910058
0.0646811
0.109646
-0.00872432
-0.0437288
-2.98008
-2.00202
-0.933241
-0.429035
-0.114585
-0.075969
-0.393652
-0.877635
-1.32295
-1.82555
-1.9709
-1.75775
-1.342
-0.708082
-0.0549061
0.407264
0.686399
0.453789
-0.0895961
-0.903211
-2.48403
-1.52577
-0.710884
-0.146538
0.00870111
-0.00820887
-0.180051
-0.683844
-1.14193
-1.39738
-1.63318
-1.40521
-1.06602
-0.572677
-0.0242897
0.459854
0.552929
0.392901
-0.0626582
-0.741387
-2.01943
-1.30523
-0.450465
-0.0696306
0.192427
0.100079
-0.198923
-0.515195
-0.808627
-1.13516
-1.32803
-1.25425
-0.885612
-0.510381
-0.00165624
0.356836
0.435021
0.321286
-0.0745288
-0.571694
-1.53045
-0.942089
-0.383795
0.00263354
0.0915782
0.164841
-0.137916
-0.433737
-0.69029
-0.944123
-1.04367
-0.974227
-0.805278
-0.357682
0.0210137
0.249249
0.453097
0.25397
0.00191355
-0.475576
-1.15941
-0.711802
-0.305776
0.0245236
0.108574
0.0857436
0.0201785
-0.236786
-0.536664
-0.774764
-0.809803
-0.739813
-0.556946
-0.262093
0.00408393
0.180185
0.322682
0.200042
0.0187531
-0.34011
-0.821534
-0.438307
-0.218468
0.0378268
0.119649
0.0914033
-0.0847212
-0.131569
-0.323864
-0.528244
-0.616273
-0.504373
-0.35362
-0.188814
-0.0130732
0.194858
0.252884
0.166728
0.0238505
-0.189183
-0.477379
-0.314685
-0.0902773
0.0684606
0.0153985
0.0532747
-0.0251172
-0.0980279
-0.181882
-0.319052
-0.352275
-0.316357
-0.190437
-0.0889071
0.0621609
0.072573
0.11234
0.210175
-0.0152935
-0.0899071
-0.173964
-0.0566416
0.012346
0.0713195
0.0412571
0.0679626
0.0467776
0.0511063
-0.021858
-0.082445
-0.170614
-0.196615
-0.11001
-0.124306
0.0356583
-0.0159733
0.0688246
0.0233544
-0.0074068
-0.0476222
-3.24727
-2.07105
-1.22372
-0.594997
-0.275473
-0.341224
-0.564303
-1.03313
-1.4356
-1.88377
-1.99575
-1.96275
-1.43823
-0.793423
-0.238036
0.297847
0.480559
0.302438
-0.238236
-1.05698
-2.63992
-1.75116
-0.896402
-0.422431
-0.195036
-0.260015
-0.42442
-0.951179
-1.23577
-1.56435
-1.68438
-1.56492
-1.18702
-0.659908
-0.165239
0.244136
0.379946
0.231963
-0.233431
-0.828159
-2.05798
-1.39036
-0.796951
-0.244682
-0.159885
0.00929898
-0.390996
-0.66537
-0.97243
-1.26715
-1.41803
-1.36507
-1.06206
-0.582766
-0.0648803
0.183481
0.453677
0.188307
-0.160061
-0.650007
-1.62847
-1.07709
-0.504168
-0.191114
-0.0437043
-0.0530886
-0.195271
-0.49471
-0.794086
-0.985291
-1.12742
-1.04933
-0.894121
-0.42764
-0.057764
0.219609
0.275778
0.231304
-0.124341
-0.488992
-1.22325
-0.744286
-0.375068
-0.0273535
0.0266582
-0.0687319
-0.144592
-0.41566
-0.542318
-0.68665
-0.837397
-0.726465
-0.600158
-0.303021
-0.0846274
0.102908
0.23764
0.10542
-0.108505
-0.476939
-0.799044
-0.509642
-0.288759
-0.00889673
0.0538612
-0.0297026
-0.0808532
-0.242654
-0.422559
-0.582175
-0.633148
-0.590109
-0.411969
-0.263304
-0.0294481
0.186267
0.210563
0.104748
-0.109135
-0.305632
-0.477435
-0.313661
-0.237281
-0.0464115
0.0204831
0.030734
-0.102846
-0.114901
-0.193451
-0.237771
-0.441274
-0.346849
-0.347608
-0.0827606
0.0253948
0.0617837
0.133488
0.093324
-0.0602779
-0.150113
-0.148205
-0.0858468
-0.0301799
-0.00199392
0.00920292
-0.0150881
-0.00276439
-0.0613735
-0.0778923
-0.11241
-0.128403
-0.0537335
-0.0464449
-0.0851022
0.0353543
0.0294453
-0.0167716
0.0113243
0.0112371
-0.163113
-3.28505
-2.21734
-1.23075
-0.724451
-0.394021
-0.402901
-0.627794
-1.02522
-1.45743
-1.76299
-2.00571
-1.78713
-1.39899
-0.73818
-0.246118
0.226058
0.39833
0.232853
-0.248293
-0.9862
-2.62889
-1.81799
-1.0577
-0.5322
-0.221464
-0.237234
-0.499772
-0.814541
-1.17459
-1.51658
-1.64108
-1.4707
-1.05699
-0.714644
-0.177537
0.222528
0.360298
0.165001
-0.250431
-0.832516
-2.08899
-1.4706
-0.82704
-0.311331
-0.20079
-0.210458
-0.373179
-0.657369
-0.965507
-1.25374
-1.40658
-1.25645
-0.977398
-0.560807
-0.0954867
0.221595
0.245333
0.237366
-0.247437
-0.615604
-1.61055
-1.0979
-0.614246
-0.268378
-0.0901241
-0.0749335
-0.291638
-0.500114
-0.79476
-1.01859
-1.07062
-0.964626
-0.704125
-0.422297
-0.0915555
0.0924438
0.194711
0.161682
-0.226783
-0.573772
-1.22203
-0.854868
-0.427902
-0.170749
-0.00674455
-0.103572
-0.119199
-0.344108
-0.564295
-0.718915
-0.833343
-0.710085
-0.578242
-0.308255
-0.0662926
0.153385
0.162257
0.189039
-0.172951
-0.355306
-0.889582
-0.62562
-0.296241
-0.14898
0.000905991
-0.00302914
-0.113891
-0.218637
-0.467795
-0.468403
-0.572981
-0.541039
-0.361217
-0.246124
0.0788622
0.054363
0.110378
0.106248
-0.101435
-0.309537
-0.473839
-0.388681
-0.188276
-0.0497896
-0.0283583
0.0331494
-0.0467707
-0.12851
-0.197101
-0.27614
-0.316362
-0.290547
-0.213072
-0.0980521
-0.00625948
0.0768838
0.0630329
0.142205
0.0055808
-0.14736
-0.199195
-0.15068
0.0277645
0.00680789
-0.00246685
0.0111046
-0.0197616
-0.0678358
-0.0464006
-0.143748
-0.0961504
-0.114747
-0.0918662
-0.0166515
0.0463725
-0.00899495
0.068381
0.0323699
0.00838637
-0.112499
-3.07927
-2.0761
-1.31844
-0.698821
-0.380447
-0.340449
-0.517334
-0.76668
-1.23097
-1.52317
-1.63891
-1.49171
-1.12384
-0.50017
-0.11246
0.3683
0.557602
0.33918
-0.170961
-0.876495
-2.63666
-1.80901
-1.01111
-0.426255
-0.204035
-0.234802
-0.304007
-0.689269
-0.947507
-1.25013
-1.39712
-1.30504
-0.883012
-0.502488
-0.0413977
0.330571
0.4627
0.30817
-0.0978489
-0.663567
-2.07557
-1.45513
-0.774554
-0.339942
-0.186958
-0.166555
-0.236216
-0.467954
-0.777397
-0.961878
-1.06738
-1.02376
-0.713292
-0.473802
-0.00359847
0.330703
0.468108
0.210905
-0.0950169
-0.49665
-1.60576
-1.11146
-0.556659
-0.198776
-0.0251757
-0.0617891
-0.224451
-0.345736
-0.59097
-0.800434
-0.907756
-0.760061
-0.557524
-0.349281
0.0388969
0.238064
0.365956
0.245956
-0.0899443
-0.450115
-1.19572
-0.796387
-0.44182
-0.146535
-0.107396
-0.0168295
-0.177034
-0.293627
-0.427605
-0.611314
-0.694457
-0.589553
-0.433215
-0.258947
0.0445051
0.133228
0.351173
0.169351
-0.124685
-0.258578
-0.886672
-0.564663
-0.315427
-0.117098
-0.00317947
-0.0317413
-0.0908104
-0.260401
-0.358497
-0.348975
-0.459158
-0.441288
-0.259038
-0.184515
-0.0192006
0.008294
0.125135
0.0976619
0.00159031
-0.125281
-0.532364
-0.308871
-0.134037
-0.0737275
-0.016847
0.00821195
-0.0564766
-0.0926443
-0.215406
-0.265168
-0.351002
-0.322983
-0.138251
-0.0892871
0.0424708
0.06821
0.123267
0.0891052
-0.01618
-0.155976
-0.215253
-0.0382427
-0.105818
-0.015496
-0.0208301
0.045783
-0.0451706
0.0476127
-0.114026
-0.151024
-0.0764197
-0.0907063
-0.0973831
-0.00805913
-0.0662491
0.00231193
0.0889677
0.0270535
-0.0872211
-0.0531306
-2.92088
-1.97864
-1.06104
-0.388483
-0.145119
-0.121327
-0.139795
-0.45259
-0.791166
-0.990436
-1.0938
-0.890556
-0.557545
-0.117605
0.377165
0.654783
0.875195
0.569503
0.141611
-0.510849
-2.30856
-1.56561
-0.80458
-0.336937
-0.0439446
-0.00491426
-0.100864
-0.303304
-0.614003
-0.759319
-0.882893
-0.801042
-0.461179
-0.140234
0.329751
0.615779
0.71117
0.549697
0.127451
-0.454853
-1.92676
-1.33111
-0.592803
-0.192594
-0.0153633
0.0869166
-0.00478832
-0.185622
-0.38344
-0.681129
-0.670188
-0.567746
-0.458838
-0.0912546
0.28699
0.548477
0.609232
0.4692
0.185479
-0.321294
-1.48486
-1.04128
-0.510022
-0.110598
0.135197
0.113309
0.0354983
-0.16383
-0.348948
-0.568343
-0.522726
-0.473155
-0.287351
-0.0226976
0.16562
0.397149
0.48039
0.442327
0.12541
-0.296943
-1.15246
-0.740632
-0.261707
-0.0545436
0.0576401
0.0915838
0.0119032
-0.0797078
-0.271883
-0.433439
-0.414011
-0.373873
-0.303943
-0.0725766
0.163975
0.249543
0.408539
0.280012
0.0968409
-0.24921
-0.759363
-0.527897
-0.282534
-0.0872659
0.0983422
0.119521
0.0941428
-0.0896485
-0.230747
-0.287504
-0.302752
-0.275698
-0.205078
-0.00636327
0.0832956
0.222979
0.333622
0.183379
0.0487176
-0.144213
-0.391318
-0.310324
-0.134957
-0.02516
0.0477738
0.094477
0.000784082
0.00321581
-0.0203908
-0.165338
-0.217765
-0.121453
-0.0868339
-0.00153855
0.0605942
0.200406
0.235924
0.163
0.0187987
-0.0701854
-0.149923
-0.0936309
-0.0915159
-0.00478197
-0.048306
0.0114228
-0.0273373
-0.0493821
-0.14364
-0.0601697
-0.022091
-0.0963753
0.0426113
0.0620603
-0.0172404
0.0156055
0.0637044
0.00283971
-0.025408
0.0207578
-2.56315
-1.5331
-0.816712
-0.129003
0.165597
0.34591
0.300909
0.121269
-0.0906921
-0.335825
-0.27604
-0.262587
0.0756302
0.52998
0.861857
1.22809
1.30244
1.05542
0.599434
-0.0827368
-1.99819
-1.19959
-0.48145
-0.0457923
0.314794
0.356902
0.321561
0.124624
-0.0484246
-0.247385
-0.277059
-0.158945
0.0762021
0.447887
0.79599
1.0257
1.08888
0.958482
0.467235
-0.0220741
-1.64729
-1.00375
-0.400418
0.0447563
0.374648
0.345871
0.333596
0.241381
0.0330048
-0.168129
-0.254979
-0.085089
0.168364
0.422421
0.62665
0.899519
0.904627
0.761739
0.508651
-0.0193496
-1.22076
-0.767216
-0.227223
0.0800848
0.257223
0.425615
0.294304
0.0897152
0.0585963
-0.153534
-0.172195
-0.0868065
0.00552161
0.383302
0.582678
0.642293
0.726734
0.56943
0.350674
0.0350741
-0.910419
-0.607292
-0.172935
0.167085
0.224044
0.283577
0.259559
0.077894
0.0819209
-0.12435
-0.137978
-0.0414889
0.0980494
0.251819
0.388807
0.488532
0.630668
0.456646
0.291479
-0.0076196
-0.654934
-0.434157
-0.169824
0.0825243
0.109518
0.294002
0.22154
0.121825
0.00788305
-0.0264429
-0.0871303
-0.044025
0.0224929
0.17623
0.282501
0.368679
0.355172
0.296988
0.145207
0.0275298
-0.432407
-0.206767
-0.0489182
0.141211
0.0848518
0.0993474
0.097743
0.0505975
0.0579423
-0.0142077
-0.100293
-0.0605688
-0.00862374
0.0972973
0.134907
0.170301
0.25427
0.242712
0.136662
0.0578604
-0.130287
-0.0770854
-0.0129978
-0.00782026
-0.00200871
0.0409543
0.0270489
-0.00466496
0.0561547
0.0792517
-0.00935984
0.0615561
0.102694
0.0606541
0.0468327
0.19672
0.083558
0.0783005
0.0909529
-0.0318675
-2.00199
-1.09672
-0.14526
0.387165
0.774598
0.875986
0.844465
0.766447
0.687841
0.488601
0.534215
0.711098
0.95554
1.24903
1.57846
1.90886
1.8615
1.68025
1.12123
0.514946
-1.56084
-0.733183
-0.0646887
0.480662
0.755336
0.857646
0.828781
0.726602
0.710576
0.513579
0.456181
0.569911
0.817204
1.11217
1.40003
1.63959
1.64653
1.44375
1.01875
0.480883
-1.15796
-0.555066
-0.0225159
0.372412
0.699982
0.829208
0.781135
0.660927
0.552284
0.512903
0.441081
0.52308
0.729205
1.0698
1.21861
1.40307
1.45514
1.19335
0.860265
0.484147
-1.05925
-0.455772
0.0216818
0.413607
0.618278
0.650933
0.717867
0.585292
0.417563
0.380405
0.3903
0.405293
0.583887
0.820272
0.98283
1.1667
1.1315
1.05629
0.681265
0.351662
-0.739399
-0.350943
0.071071
0.360513
0.490871
0.573933
0.554486
0.444054
0.423119
0.317959
0.359508
0.411823
0.512124
0.672382
0.781697
0.933623
0.933842
0.773412
0.555185
0.303205
-0.519126
-0.23619
0.0465673
0.259677
0.327827
0.388907
0.433528
0.334016
0.25196
0.233937
0.224629
0.300936
0.357463
0.356883
0.547333
0.647715
0.615986
0.57203
0.435796
0.184598
-0.25438
-0.174524
0.0386892
0.121607
0.202794
0.206766
0.199872
0.183103
0.238577
0.173303
0.101273
0.135476
0.181496
0.25367
0.311097
0.302322
0.386524
0.306675
0.224151
0.112084
-0.0572438
-0.017649
0.000936195
0.0115119
0.0665885
0.109321
0.0162539
0.0939616
0.0633743
0.0299685
-0.00388907
0.111095
0.145723
0.0677881
0.0819876
0.15724
0.144268
0.074968
0.120021
0.0201652
-1.28021
-0.406066
0.487061
1.01353
1.45497
1.6727
1.77282
1.56448
1.55994
1.45489
1.51915
1.67134
1.89498
2.17333
2.44694
2.60496
2.61727
2.37313
1.91135
1.31315
-1.0111
-0.286249
0.453583
1.02589
1.32751
1.51069
1.59652
1.52138
1.37636
1.32331
1.2996
1.39238
1.6123
1.91401
2.12679
2.3381
2.28884
2.03079
1.72311
1.09284
-0.780566
-0.0859593
0.44545
0.952612
1.17264
1.42805
1.34391
1.31568
1.24107
1.18733
1.16393
1.23751
1.36938
1.65481
1.86441
1.97035
1.9215
1.73242
1.41027
1.02301
-0.535246
0.0186123
0.473585
0.825103
1.02757
1.07001
1.08965
1.12501
1.06406
1.01156
1.00584
1.06109
1.19231
1.3246
1.4667
1.61588
1.6001
1.45634
1.10565
0.77737
-0.319132
0.049889
0.274735
0.624295
0.82165
0.939022
0.913994
0.833011
0.899595
0.719031
0.731702
0.831978
0.890158
1.01454
1.2015
1.25689
1.24787
1.11389
0.885592
0.660581
-0.266005
-0.0133985
0.275591
0.4493
0.546352
0.653261
0.635585
0.640423
0.63756
0.539583
0.592179
0.614588
0.649822
0.799337
0.782245
0.965297
0.842071
0.727641
0.60999
0.498927
-0.151748
-0.017216
0.152179
0.320556
0.377644
0.423034
0.409929
0.349013
0.362146
0.334654
0.286517
0.267359
0.383449
0.445219
0.454453
0.600604
0.571957
0.458791
0.383313
0.267541
-0.0299451
-0.00496369
0.077018
0.019818
0.122566
0.150587
0.199082
0.111055
0.132053
0.141304
0.0537105
0.174919
0.185302
0.108437
0.10156
0.214886
0.234388
0.18798
0.125923
0.0688549
-0.517566
0.296661
1.13836
1.79207
2.25833
2.5348
2.64413
2.66299
2.54005
2.57378
2.55274
2.75287
2.92453
3.24579
3.36705
3.60955
3.47679
3.19416
2.80431
2.16357
-0.379468
0.439968
1.04709
1.65877
1.99756
2.22385
2.343
2.2852
2.3014
2.27433
2.33207
2.38567
2.65658
2.81386
2.93439
3.05969
3.00778
2.81091
2.4165
1.8434
-0.172721
0.409711
1.00794
1.49542
1.875
1.95969
2.05552
2.00069
1.97272
1.9355
1.95501
2.0411
2.22491
2.39105
2.55438
2.73713
2.55352
2.38408
2.06687
1.58124
-0.156485
0.294603
0.870986
1.17774
1.46722
1.57948
1.69601
1.67546
1.62327
1.62352
1.67456
1.67152
1.78611
2.01707
2.00049
2.14482
2.09201
1.96847
1.6712
1.34
-0.0315645
0.313569
0.697738
1.01983
1.1518
1.33511
1.33934
1.39639
1.34529
1.29528
1.26344
1.28757
1.34783
1.44552
1.62572
1.66285
1.66134
1.46759
1.24731
1.04203
0.0333307
0.231427
0.509128
0.755101
0.808406
0.860252
0.948818
0.944179
0.925291
0.939315
0.931924
0.958723
0.938415
1.12825
1.17468
1.14515
1.21295
1.10618
0.930404
0.791043
-0.0173075
0.163014
0.338754
0.367677
0.420678
0.552321
0.633458
0.622035
0.516737
0.452751
0.60728
0.591505
0.65802
0.677802
0.699143
0.754548
0.696092
0.669074
0.550644
0.460393
-0.0239543
0.0329974
0.106922
0.16788
0.194031
0.139288
0.255922
0.173617
0.221572
0.126095
0.235232
0.1863
0.193363
0.226729
0.212296
0.226861
0.220933
0.207988
0.175889
0.222114
0.287976
1.17812
1.98507
2.64653
3.15864
3.41386
3.55745
3.63081
3.62724
3.62597
3.66451
3.85388
4.06296
4.18132
4.4252
4.47759
4.38368
4.12678
3.58792
2.9704
0.324509
1.0566
1.7707
2.47358
2.83084
2.96179
3.20421
3.18745
3.21206
3.17123
3.23457
3.32342
3.46595
3.69813
3.83034
3.8565
3.81861
3.5623
3.10638
2.60292
0.448454
0.998856
1.58239
2.00991
2.41559
2.63192
2.68793
2.81421
2.73375
2.69163
2.80176
2.83802
2.97619
3.13815
3.21826
3.30595
3.14301
3.0319
2.73131
2.1655
0.344531
0.900006
1.27812
1.68297
1.92334
2.09691
2.19189
2.15239
2.22007
2.21206
2.23236
2.30295
2.3499
2.55809
2.60751
2.65294
2.58888
2.4709
2.12
1.83836
0.390162
0.631187
1.14751
1.2702
1.53455
1.64206
1.70137
1.72442
1.70029
1.73709
1.74765
1.8591
1.91053
1.96292
2.03253
2.10804
2.0538
1.88106
1.55678
1.44316
0.208704
0.45734
0.75563
0.884841
1.15665
1.12701
1.29872
1.24858
1.20397
1.2269
1.2079
1.35125
1.34813
1.48846
1.49866
1.49622
1.41049
1.34884
1.15697
0.971677
0.164639
0.350849
0.463016
0.48348
0.648901
0.757234
0.753617
0.722418
0.802825
0.78937
0.795467
0.785841
0.78654
0.902858
0.890826
0.931897
0.892691
0.808487
0.727571
0.628778
0.0800552
0.0224845
0.168352
0.235078
0.14624
0.262158
0.23824
0.204119
0.240423
0.256789
0.28167
0.277462
0.245213
0.222892
0.213264
0.281894
0.351807
0.235557
0.206235
0.174565
1.01764
1.86682
2.69479
3.42448
3.79485
4.1725
4.38768
4.47745
4.42213
4.50412
4.6162
4.74545
4.82626
5.04409
5.11879
5.2647
5.06736
4.78127
4.28407
3.63645
0.979435
1.59967
2.44144
2.93524
3.36198
3.63002
3.74621
3.80037
3.92024
3.88154
3.98028
4.08639
4.13513
4.42154
4.39407
4.51502
4.32848
4.09116
3.6698
3.15514
0.789164
1.51903
2.01915
2.50375
2.79358
3.13677
3.22789
3.20964
3.28539
3.3299
3.23208
3.41727
3.49901
3.67868
3.78385
3.75444
3.69428
3.4858
3.06314
2.62616
0.740419
1.21311
1.7329
2.02545
2.33448
2.57726
2.54638
2.65994
2.61316
2.67333
2.74838
2.74446
2.83223
3.06111
3.00993
3.06004
2.96535
2.82035
2.52225
2.1803
0.631274
0.929881
1.23997
1.55488
1.80162
2.01867
1.99055
2.05783
2.04632
2.00545
2.12504
2.13068
2.23929
2.34005
2.3463
2.3351
2.30725
2.24672
1.88282
1.7192
0.42741
0.679022
0.898861
1.08824
1.3197
1.30169
1.47976
1.45145
1.44822
1.4471
1.44728
1.50387
1.54152
1.64636
1.69296
1.6787
1.62784
1.53892
1.43977
1.19576
0.23205
0.430818
0.695901
0.74782
0.796676
0.878582
0.889039
0.86613
0.90004
0.824116
0.900571
0.936671
0.962636
1.01976
0.990916
1.02231
0.953449
0.86755
0.834774
0.662728
0.0507884
0.119261
0.164387
0.263461
0.287189
0.246938
0.32279
0.319875
0.313608
0.313888
0.304172
0.31163
0.307866
0.340615
0.283386
0.350544
0.329473
0.364911
0.25058
0.211216
)
;

boundaryField
{
    hotSide
    {
        type            calculated;
        value           nonuniform List<scalar> 
400
(
0.322452
0.189004
-0.0280663
-0.376846
-0.667186
-1.16793
-1.62188
-2.04431
-2.31739
-2.4936
-2.75635
-2.78877
-2.57667
-2.41091
-2.04469
-1.47388
-0.741253
0.0334838
0.852392
1.59671
1.86471
1.78306
1.48797
1.16848
0.696351
0.171101
-0.308829
-0.610607
-1.17014
-1.49721
-1.56298
-1.70509