/*--------------------------------*- C++ -*----------------------------------*\
| =========                 |                                                 |
| \\      /  F ield         | OpenFOAM: The Open Source CFD Toolbox           |
|  \\    /   O peration     | Version:  2212                                  |
|   \\  /    A nd           | Website:  www.openfoam.com                      |
|    \\/     M anipulation  |                                                 |
\*---------------------------------------------------------------------------*/
FoamFile
{
    version     2.0;
    format      ascii;
    arch        "LSB;label=32;scalar=64";
    class       volScalarField;
    location    "0";
    object      T;
}
// * * * * * * * * * * * * * * * * * * * * * * * * * * * * * * * * * * * * * //

dimensions      [0 0 0 1 0 0 0];

internalField   nonuniform List<scalar> 
3200
(
348.663
349.432
350.654
351.42
352.269
352.968
353.337
353.813
353.887
353.874
353.793
353.384
352.987
352.707
351.552
350.979
349.729
348.719
347.509
346.365
342.273
343
343.987
344.612
345.416
345.979
346.329
346.693
346.79
346.745
346.74
346.301
345.945
345.757
344.719
344.283
343.175
342.291
341.2
340.294
335.841
336.491
337.276
337.802
338.48
338.974
339.277
339.559
339.643
339.584
339.597
339.199
338.929
338.763
337.893
337.486
336.584
335.827
334.881
334.167
329.363
329.928
330.581
330.989
331.526
331.927
332.179
332.415
332.482
332.371
332.465
332.109
331.888
331.703
331.08
330.678
329.955
329.323
328.575
327.969
322.846
323.36
323.838
324.111
324.503
324.89
325.075
325.225
325.252
325.165
325.294
325.014
324.803
324.7
324.17
323.856
323.299
322.822
322.246
321.765
316.366
316.678
317.089
317.266
317.511
317.781
317.915
318
318.028
317.97
318.097
317.869
317.715
317.66
317.26
317.042
316.621
316.305
315.897
315.507
309.812
310.013
310.292
310.379
310.524
310.705
310.722
310.784
310.85
310.767
310.878
310.729
310.643
310.597
310.363
310.208
309.996
309.763
309.543
309.278
303.273
303.339
303.45
303.488
303.518
303.589
303.601
303.611
303.648
303.608
303.642
303.599
303.589
303.558
303.496
303.433
303.348
303.266
303.205
303.083
349.478
350.536
351.638
352.481
353.485
354.244
354.587
354.856
355.015
355.025
354.944
354.609
354.088
353.655
352.599
351.784
350.867
349.608
348.391
347.339
342.963
343.905
344.797
345.526
346.335
347.005
347.353
347.579
347.699
347.69
347.666
347.334
346.842
346.511
345.577
344.913
344.121
342.991
341.976
341.057
336.419
337.209
337.952
338.555
339.215
339.766
340.092
340.277
340.393
340.368
340.37
340.021
339.655
339.398
338.522
337.984
337.37
336.397
335.566
334.777
329.857
330.494
331.057
331.564
332.06
332.562
332.815
332.953
333.104
333.033
333.056
332.743
332.538
332.261
331.498
331.094
330.615
329.823
329.127
328.456
323.274
323.77
324.187
324.572
324.928
325.35
325.502
325.658
325.733
325.698
325.67
325.473
325.349
325.11
324.49
324.196
323.875
323.228
322.687
322.112
316.666
316.981
317.275
317.55
317.837
318.107
318.199
318.287
318.362
318.373
318.351
318.241
318.151
317.957
317.496
317.28
317.085
316.636
316.235
315.787
309.983
310.197
310.387
310.534
310.704
310.894
310.927
310.979
311.028
311.049
311.028
310.957
310.939
310.79
310.536
310.427
310.255
310.04
309.773
309.47
303.342
303.413
303.478
303.525
303.575
303.647
303.667
303.666
303.69
303.717
303.709
303.664
303.697
303.606
303.533
303.511
303.416
303.392
303.284
303.173
350.537
351.829
352.894
353.882
354.806
355.353
356.112
356.364
356.51
356.58
356.58
356.291
355.549
355.053
354.215
353.25
352.317
350.998
349.772
348.473
343.794
344.973
345.826
346.693
347.513
347.917
348.596
348.841
349.054
349.052
349.051
348.814
348.115
347.748
346.985
346.084
345.317
344.213
343.134
341.993
337.095
338.084
338.769
339.473
340.219
340.538
341.121
341.301
341.525
341.541
341.509
341.324
340.724
340.432
339.749
338.955
338.317
337.451
336.499
335.559
330.411
331.2
331.735
332.281
332.905
333.142
333.64
333.798
333.969
333.992
333.914
333.85
333.309
333.065
332.523
331.888
331.353
330.67
329.871
329.101
323.702
324.287
324.646
325.124
325.587
325.79
326.14
326.334
326.403
326.425
326.347
326.326
325.918
325.76
325.268
324.805
324.422
323.877
323.228
322.646
316.969
317.365
317.552
317.965
318.259
318.422
318.682
318.839
318.871
318.88
318.789
318.849
318.536
318.414
318.049
317.742
317.46
317.071
316.6
316.181
310.182
310.423
310.519
310.798
310.942
311.066
311.216
311.331
311.35
311.329
311.269
311.332
311.116
311.086
310.845
310.686
310.453
310.224
309.978
309.7
303.397
303.484
303.525
303.602
303.666
303.704
303.758
303.801
303.802
303.8
303.77
303.794
303.738
303.736
303.617
303.593
303.495
303.431
303.33
303.245
352.229
352.906
354.269
355.312
356.253
356.779
357.613
357.969
358.204
358.237
358.052
357.576
357.064
356.63
355.842
354.834
353.612
352.472
351.096
349.867
345.313
345.885
347.039
347.924
348.77
349.207
349.914
350.235
350.443
350.487
350.342
349.902
349.43
349.092
348.392
347.525
346.455
345.492
344.267
343.188
338.366
338.861
339.823
340.524
341.289
341.628
342.29
342.533
342.7
342.737
342.621
342.215
341.797
341.544
340.942
340.216
339.305
338.536
337.472
336.509
331.431
331.855
332.599
333.172
333.807
334.03
334.619
334.817
334.935
335.005
334.905
334.554
334.215
334.003
333.495
332.902
332.164
331.53
330.632
329.866
324.477
324.813
325.336
325.831
326.298
326.463
326.974
327.13
327.138
327.196
327.148
326.923
326.622
326.404
326.046
325.589
325.012
324.522
323.841
323.223
317.468
317.698
318.138
318.463
318.811
318.911
319.331
319.46
319.389
319.441
319.391
319.272
319.037
318.854
318.636
318.339
317.877
317.544
317.056
316.571
310.499
310.647
310.914
311.113
311.301
311.384
311.606
311.696
311.649
311.691
311.627
311.61
311.407
311.342
311.203
311.056
310.744
310.537
310.247
309.916
303.513
303.568
303.678
303.732
303.789
303.833
303.878
303.956
303.898
303.929
303.893
303.913
303.84
303.804
303.77
303.724
303.614
303.519
303.427
303.313
353.675
354.517
355.863
356.85
357.763
358.282
359.09
359.616
359.845
359.805
359.481
359.127
358.663
358.037
357.349
356.449
355.201
353.964
352.532
351.237
346.556
347.305
348.413
349.275
350.06
350.471
351.209
351.713
351.851
351.797
351.543
351.242
350.839
350.251
349.692
348.919
347.815
346.713
345.5
344.36
339.419
340.061
341.008
341.716
342.299
342.701
343.296
343.809
343.853
343.817
343.628
343.348
343.021
342.542
342.007
341.409
340.427
339.445
338.527
337.52
332.295
332.832
333.57
334.144
334.584
334.958
335.397
335.844
335.85
335.81
335.707
335.466
335.208
334.83
334.364
333.886
333.066
332.21
331.44
330.693
325.161
325.472
326.122
326.57
326.922
327.215
327.54
327.862
327.877
327.841
327.79
327.564
327.415
327.078
326.747
326.369
325.661
325.052
324.439
323.907
317.964
318.206
318.696
318.981
319.227
319.498
319.682
319.898
319.886
319.901
319.881
319.699
319.61
319.342
319.105
318.837
318.344
317.884
317.476
317.107
310.76
310.918
311.236
311.407
311.54
311.718
311.825
311.973
311.947
311.972
311.928
311.845
311.778
311.58
311.479
311.284
311.012
310.731
310.476
310.262
303.583
303.656
303.769
303.828
303.855
303.928
303.958
304.026
304.024
304.006
303.992
303.977
303.942
303.887
303.835
303.762
303.671
303.581
303.515
303.438
355.093
356.145
357.349
358.336
359.237
359.887
360.613
360.959
361.325
361.291
361.122
360.673
360.2
359.628
358.853
357.698
356.596
355.273
354.02
352.489
347.826
348.674
349.694
350.561
351.34
351.918
352.579
352.877
353.165
353.084
352.969
352.59
352.126
351.692
350.962
349.991
349.079
347.864
346.772
345.423
340.527
341.207
342.042
342.799
343.436
343.93
344.507
344.764
344.984
344.935
344.831
344.452
344.152
343.736
343.073
342.291
341.509
340.472
339.534
338.396
333.184
333.721
334.359
335.035
335.487
335.881
336.409
336.683
336.812
336.749
336.677
336.344
336.129
335.801
335.216
334.59
333.944
333.118
332.26
331.427
325.839
326.191
326.688
327.267
327.575
327.869
328.329
328.537
328.64
328.571
328.522
328.24
328.109
327.868
327.373
326.885
326.359
325.771
325.033
324.45
318.449
318.682
319.064
319.517
319.662
319.976
320.219
320.409
320.443
320.391
320.39
320.169
320.113
319.93
319.551
319.217
318.841
318.452
317.862
317.486
311.05
311.211
311.44
311.749
311.772
312.04
312.138
312.271
312.262
312.237
312.243
312.12
312.109
311.963
311.723
311.552
311.308
311.128
310.74
310.509
303.689
303.746
303.825
303.927
303.942
304.035
304.078
304.108
304.097
304.1
304.101
304.062
304.058
304.031
303.933
303.888
303.801
303.753
303.59
303.511
356.299
357.386
358.635
359.877
360.611
361.479
362.004
362.484
362.985
362.941
362.59
362.092
361.644
360.997
360.007
359.088
358.119
356.734
355.259
353.772
348.876
349.772
350.819
351.861
352.552
353.313
353.729
354.15
354.529
354.556
354.225
353.809
353.389
352.83
352.002
351.163
350.353
349.145
347.84
346.576
341.395
342.122
342.987
343.871
344.465
345.111
345.457
345.824
346.092
346.175
345.87
345.523
345.144
344.67
344.003
343.234
342.569
341.608
340.407
339.392
333.903
334.46
335.175
335.872
336.403
336.886
337.183
337.487
337.738
337.755
337.556
337.237
336.968
336.526
336.021
335.321
334.771
334.046
333.05
332.279
326.39
326.814
327.324
327.884
328.303
328.691
328.953
329.182
329.37
329.324
329.232
328.971
328.783
328.393
327.989
327.449
326.983
326.483
325.708
325.137
318.883
319.139
319.5
319.863
320.227
320.51
320.733
320.832
321.016
320.946
320.896
320.772
320.575
320.285
319.992
319.578
319.24
318.952
318.362
317.971
311.404
311.499
311.719
311.912
312.15
312.329
312.476
312.544
312.651
312.567
312.565
312.484
312.326
312.183
312.002
311.766
311.532
311.398
311.056
310.8
303.829
303.864
303.919
303.993
304.067
304.119
304.182
304.212
304.228
304.21
304.214
304.21
304.134
304.083
304.031
303.948
303.87
303.852
303.697
303.623
357.615
358.739
360.077
361.113
362.196
362.951
363.395
363.788
364.007
364.029
363.995
363.715
362.934
362.4
361.457
360.519
359.25
358.217
356.441
355.097
350.016
350.917
352.095
352.977
353.923
354.579
354.962
355.291
355.421
355.441
355.415
355.216
354.473
354.073
353.216
352.428
351.305
350.424
348.892
347.698
342.374
343.102
344.096
344.821
345.633
346.179
346.513
346.777
346.881
346.857
346.899
346.693
346.077
345.768
345.034
344.326
343.395
342.653
341.312
340.309
334.737
335.313
336.135
336.661
337.38
337.768
338.057
338.294
338.391
338.278
338.386
338.2
337.695
337.446
336.854
336.254
335.46
334.844
333.718
332.955
327.069
327.509
328.081
328.496
329.081
329.368
329.604
329.793
329.858
329.716
329.88
329.687
329.332
329.132
328.685
328.21
327.542
327.083
326.2
325.584
319.307
319.663
320.053
320.348
320.764
320.971
321.187
321.32
321.347
321.23
321.374
321.202
320.982
320.828
320.514
320.205
319.666
319.337
318.707
318.264
311.574
311.797
312.041
312.233
312.44
312.585
312.748
312.816
312.845
312.753
312.821
312.725
312.605
312.527
312.328
312.128
311.804
311.613
311.234
311.005
303.872
303.947
304.036
304.097
304.159
304.21
304.284
304.282
304.301
304.289
304.303
304.27
304.221
304.198
304.146
304.073
303.953
303.885
303.749
303.699
358.725
359.758
360.991
362.14
363.238
364.055
364.58
364.975
365.229
365.287
365.273
364.855
364.382
363.769
362.71
361.947
360.471
359.133
357.696
356.399
350.942
351.82
352.898
353.836
354.8
355.509
355.958
356.341
356.477
356.579
356.572
356.195
355.77
355.285
354.336
353.692
352.371
351.172
350.004
348.852
343.135
343.868
344.772
345.55
346.353
346.976
347.368
347.661
347.754
347.838
347.87
347.541
347.193
346.783
345.993
345.456
344.314
343.254
342.292
341.385
335.306
335.906
336.653
337.274
337.9
338.462
338.783
338.986
339.077
339.135
339.182
338.912
338.635
338.313
337.639
337.21
336.245
335.349
334.592
333.885
327.412
327.969
328.552
329.006
329.474
329.944
330.15
330.327
330.359
330.416
330.468
330.299
330.06
329.81
329.25
328.947
328.161
327.438
326.862
326.369
319.586
320.006
320.416
320.753
321.064
321.46
321.58
321.662
321.687
321.686
321.775
321.662
321.482
321.324
320.909
320.669
320.074
319.613
319.143
318.837
311.757
312.035
312.264
312.47
312.634
312.881
312.985
312.964
313.047
313.018
313.07
313.02
312.928
312.805
312.528
312.417
312.014
311.788
311.477
311.321
303.924
304.052
304.092
304.176
304.229
304.321
304.357
304.325
304.376
304.359
304.378
304.36
304.331
304.288
304.2
304.182
304.019
303.966
303.823
303.801
359.587
360.919
362.054
363.249
364.347
365.168
365.861
366.4
366.589
366.585
366.258
366.136
365.506
365.103
363.841
362.901
361.672
360.362
358.905
357.566
351.652
352.787
353.766
354.821
355.764
356.471
357.073
357.516
357.682
357.672
357.423
357.244
356.741
356.395
355.274
354.458
353.408
352.271
351.061
349.912
343.737
344.693
345.503
346.41
347.156
347.757
348.286
348.659
348.789
348.758
348.627
348.432
348.02
347.702
346.748
346.031
345.187
344.179
343.169
342.222
335.876
336.564
337.223
337.995
338.558
339.038
339.466
339.81
339.919
339.873
339.806
339.617
339.284
339.026
338.216
337.661
336.959
336.148
335.254
334.573
327.957
328.45
328.968
329.552
329.982
330.337
330.621
330.934
331.002
330.981
330.988
330.799
330.516
330.359
329.672
329.316
328.695
328.127
327.35
326.883
320.017
320.307
320.675
321.119
321.44
321.68
321.864
322.071
322.116
322.105
322.154
322.038
321.805
321.668
321.197
320.95
320.46
320.077
319.495
319.156
312.018
312.156
312.4
312.707
312.897
313.031
313.135
313.267
313.302
313.288
313.311
313.241
313.107
312.997
312.763
312.591
312.291
312.035
311.709
311.518
304.031
304.055
304.164
304.268
304.325
304.366
304.406
304.447
304.448
304.452
304.467
304.441
304.398
304.348
304.294
304.228
304.117
304.042
303.915
303.867
360.529
361.936
363.02
364.323
365.405
366.071
366.96
367.473
367.609
367.738
367.424
367.039
366.648
366.096
364.996
364.056
362.755
361.468
359.946
358.517
352.502
353.678
354.625
355.717
356.674
357.238
358.011
358.438
358.566
358.671
358.394
358.074
357.736
357.213
356.276
355.431
354.309
353.234
351.937
350.718
344.449
345.453
346.198
347.129
347.946
348.431
349.078
349.428
349.507
349.555
349.361
349.117
348.809
348.372
347.582
346.847
345.899
345.02
343.949
342.897
336.376
337.206
337.801
338.536
339.237
339.647
340.166
340.442
340.472
340.481
340.333
340.182
339.902
339.526
338.949
338.295
337.51
336.769
335.988
335.076
328.316
328.95
329.423
329.904
330.549
330.879
331.257
331.454
331.451
331.492
331.364
331.235
331.025
330.722
330.301
329.766
329.144
328.533
328.003
327.275
320.229
320.716
321.014
321.341
321.845
322.099
322.324
322.479
322.497
322.516
322.431
322.329
322.183
321.955
321.641
321.317
320.837
320.348
320.02
319.465
312.158
312.458
312.589
312.806
313.107
313.301
313.398
313.505
313.526
313.532
313.495
313.417
313.326
313.162
312.983
312.861
312.494
312.209
312.037
311.68
304.075
304.169
304.211
304.279
304.394
304.472
304.503
304.533
304.552
304.52
304.535
304.51
304.463
304.407
304.343
304.311
304.173
304.104
304.031
303.889
361.361
362.694
363.886
365.267
366.338
367.179
367.897
368.398
368.603
368.833
368.476
368.157
367.747
366.709
365.957
365.031
363.617
362.225
360.702
359.271
353.213
354.363
355.364
356.575
357.471
358.204
358.828
359.282
359.443
359.656
359.27
359.02
358.705
357.743
357.138
356.302
355.055
353.873
352.636
351.346
345.066
345.988
346.86
347.877
348.65
349.202
349.761
350.192
350.292
350.519
350.121
349.878
349.624
348.828
348.367
347.599
346.523
345.554
344.544
343.431
336.879
337.681
338.328
339.165
339.84
340.236
340.661
341.089
341.105
341.317
341.008
340.808
340.613
339.932
339.551
338.954
338.008
337.271
336.432
335.512
328.691
329.331
329.788
330.466
330.995
331.313
331.59
331.993
331.958
332.118
331.863
331.729
331.607
331.034
330.759
330.273
329.538
328.975
328.324
327.606
320.473
320.953
321.251
321.754
322.175
322.409
322.557
322.899
322.832
322.913
322.758
322.624
322.576
322.179
322.002
321.59
321.041
320.695
320.223
319.697
312.298
312.585
312.747
313.072
313.359
313.449
313.538
313.789
313.685
313.733
313.67
313.529
313.565
313.296
313.201
312.945
312.612
312.432
312.187
311.788
304.135
304.22
304.267
304.398
304.476
304.508
304.524
304.639
304.588
304.589
304.587
304.529
304.535
304.465
304.438
304.332
304.232
304.162
304.109
303.968
362.195
363.5
364.836
365.989
367.181
368.06
368.837
369.312
369.652
369.83
369.266
369.084
368.635
367.623
366.814
365.932
364.514
362.988
361.433
359.869
353.938
355.011
356.19
357.165
358.165
358.933
359.659
360.051
360.359
360.475
359.974
359.866
359.463
358.563
357.826
357.098
355.869
354.516
353.231
351.874
345.642
346.5
347.457
348.331
349.15
349.787
350.478
350.824
351.068
351.146
350.704
350.681
350.314
349.519
348.87
348.245
347.253
346.073
345.054
343.865
337.39
338.072
338.791
339.536
340.169
340.714
341.277
341.563
341.738
341.824
341.423
341.478
341.129
340.455
339.939
339.442
338.683
337.629
336.883
335.859
329.073
329.626
330.122
330.721
331.222
331.675
332.111
332.294
332.41
332.518
332.206
332.257
331.96
331.423
331.051
330.659
330.085
329.219
328.699
327.864
320.776
321.137
321.533
321.93
322.333
322.637
322.94
323.068
323.165
323.177
323.034
323.061
322.842
322.444
322.218
321.915
321.472
320.889
320.564
319.89
312.457
312.703
312.954
313.17
313.414
313.651
313.772
313.854
313.925
313.907
313.855
313.812
313.752
313.486
313.346
313.123
312.863
312.539
312.395
311.932
304.159
304.26
304.35
304.417
304.482
304.588
304.618
304.624
304.669
304.673
304.633
304.622
304.616
304.522
304.464
304.387
304.322
304.2
304.18
304.004
362.854
364.098
365.704
366.691
367.867
368.748
369.415
370.071
370.415
370.531
370.101
369.876
369.288
368.535
367.425
366.493
365.208
363.701
362.142
360.657
354.559
355.517
356.928
357.806
358.782
359.567
360.149
360.71
361.015
361.115
360.715
360.521
360.012
359.339
358.35
357.546
356.484
355.117
353.826
352.518
346.227
346.939
348.151
348.924
349.75
350.394
350.877
351.32
351.599
351.721
351.363
351.213
350.752
350.167
349.317
348.607
347.752
346.583
345.515
344.384
337.877
338.411
339.372
340.017
340.709
341.239
341.588
341.96
342.211
342.292
342.066
341.935
341.45
341.011
340.346
339.682
339.056
338.068
337.23
336.271
329.434
329.886
330.601
331.089
331.682
332.074
332.343
332.594
332.84
332.853
332.747
332.648
332.202
331.856
331.363
330.846
330.394
329.579
328.95
328.14
321.025
321.359
321.869
322.186
322.635
322.92
323.109
323.278
323.443
323.446
323.402
323.356
322.995
322.699
322.417
322.035
321.768
321.118
320.705
320.072
312.618
312.812
313.141
313.326
313.575
313.77
313.872
313.971
314.06
314.082
314.064
314.026
313.75
313.617
313.454
313.213
313.087
312.705
312.452
312.024
304.264
304.288
304.424
304.463
304.537
304.594
304.648
304.676
304.706
304.712
304.727
304.704
304.588
304.563
304.519
304.426
304.379
304.261
304.182
304.017
363.464
364.577
366.101
367.419
368.668
369.468
370.115
370.716
371.085
371.225
370.85
370.642
370.064
369.261
368.402
367.039
365.836
364.389
362.832
361.314
355.036
355.878
357.295
358.435
359.519
360.202
360.71
361.246
361.576
361.697
361.321
361.242
360.692
359.987
359.256
358.074
356.966
355.783
354.423
353.109
346.628
347.245
348.469
349.459
350.317
350.939
351.283
351.796
352.052
352.212
351.852
351.856
351.381
350.749
350.112
349.12
348.135
347.152
346.012
344.916
338.164
338.669
339.665
340.472
341.174
341.672
341.92
342.334
342.586
342.714
342.372
342.475
342.032
341.48
340.99
340.197
339.325
338.54
337.585
336.716
329.664
330.101
330.853
331.481
332.045
332.417
332.641
332.894
333.122
333.221
332.919
333.061
332.693
332.231
331.869
331.225
330.535
329.924
329.227
328.521
321.208
321.546
322.051
322.498
322.946
323.165
323.306
323.518
323.656
323.778
323.52
323.63
323.355
322.995
322.758
322.292
321.781
321.339
320.882
320.374
312.746
312.945
313.222
313.51
313.814
313.885
313.975
314.147
314.215
314.285
314.148
314.184
314.015
313.785
313.673
313.414
313.049
312.771
312.574
312.225
304.276
304.338
304.423
304.54
304.637
304.657
304.672
304.751
304.74
304.788
304.761
304.764
304.693
304.623
304.577
304.524
304.377
304.277
304.201
304.091
363.877
365.171
366.49
368.023
369.12
370.007
370.621
371.248
371.59
371.707
371.701
371.001
370.548
369.544
368.835
367.66
366.284
364.795
363.211
361.909
355.353
356.455
357.622
358.98
359.911
360.64
361.198
361.758
362.058
362.154
362.125
361.484
361.11
360.201
359.622
358.586
357.364
356.099
354.728
353.636
346.867
347.687
348.727
349.903
350.707
351.244
351.767
352.259
352.505
352.589
352.53
352.044
351.706
350.906
350.404
349.552
348.507
347.417
346.256
345.351
338.373
338.977
339.842
340.839
341.483
341.908
342.341
342.74
342.955
343.002
342.993
342.567
342.302
341.591
341.177
340.501
339.646
338.792
337.862
337.111
329.873
330.331
330.99
331.795
332.249
332.598
332.932
333.233
333.419
333.422
333.437
333.052
332.883
332.308
331.997
331.495
330.801
330.169
329.45
328.867
321.343
321.68
322.142
322.739
323.024
323.303
323.542
323.739
323.838
323.906
323.887
323.601
323.507
323.062
322.835
322.503
321.989
321.516
321.034
320.623
312.824
313.037
313.315
313.648
313.842
314.009
314.149
314.235
314.292
314.356
314.33
314.16
314.135
313.802
313.714
313.51
313.206
312.929
312.623
312.367
304.286
304.382
304.476
304.581
304.636
304.674
304.745
304.786
304.789
304.812
304.802
304.769
304.736
304.611
304.578
304.508
304.44
304.321
304.231
304.114
364.29
365.719
366.952
368.182
369.31
370.439
371.316
371.743
372.109
372.154
372.015
371.432
371.077
369.975
369.251
368.205
366.854
365.364
363.711
362.294
355.789
356.955
357.984
359.086
360.07
361
361.731
362.197
362.521
362.488
362.405
361.841
361.556
360.582
359.959
359.081
357.886
356.584
355.171
353.939
347.244
348.214
349.02
349.958
350.848
351.543
352.145
352.631
352.924
352.82
352.792
352.264
352.039
351.212
350.672
349.947
348.946
347.83
346.593
345.622
338.689
339.485
340.084
340.855
341.629
342.159
342.629
343.057
343.323
343.213
343.209
342.697
342.559
341.887
341.43
340.836
340.008
339.156
338.044
337.32
330.115
330.734
331.147
331.801
332.347
332.817
333.118
333.468
333.697
333.587
333.622
333.198
333.086
332.544
332.2
331.731
331.083
330.464
329.576
329.031
321.527
321.997
322.225
322.731
323.099
323.448
323.654
323.91
324.094
324.033
324.033
323.696
323.604
323.242
323.003
322.707
322.219
321.747
321.141
320.757
312.934
313.237
313.337
313.638
313.891
314.071
314.23
314.368
314.445
314.467
314.415
314.22
314.145
313.936
313.81
313.662
313.361
313.062
312.702
312.455
304.325
304.438
304.467
304.575
304.646
304.714
304.785
304.819
304.844
304.853
304.817
304.75
304.766
304.666
304.634
304.579
304.463
304.36
304.252
304.182
364.666
365.983
367.286
368.461
369.867
370.717
371.557
372.01
372.166
372.354
372.342
371.677
371.41
370.552
369.521
368.541
367.11
365.542
364.085
362.463
356.134
357.198
358.317
359.289
360.558
361.284
361.965
362.37
362.54
362.679
362.683
362.035
361.834
361.083
360.183
359.38
358.126
356.716
355.509
354.116
347.585
348.407
349.298
350.137
351.252
351.83
352.416
352.755
352.963
352.989
353.017
352.418
352.247
351.602
350.887
350.206
349.146
347.916
346.924
345.779
339.003
339.622
340.321
340.994
341.978
342.353
342.861
343.166
343.371
343.323
343.403
342.83
342.746
342.164
341.59
341.051
340.171
339.134
338.339
337.406
330.429
330.837
331.381
331.873
332.653
332.936
333.328
333.595
333.728
333.694
333.809
333.329
333.232
332.783
332.318
331.937
331.268
330.399
329.818
329.07
321.773
322.052
322.429
322.786
323.306
323.524
323.807
324.037
324.09
324.044
324.175
323.787
323.724
323.369
323.055
322.841
322.357
321.723
321.25
320.749
313.081
313.26
313.462
313.657
313.999
314.103
314.275
314.423
314.449
314.431
314.513
314.294
314.28
313.998
313.826
313.743
313.47
313.109
312.77
312.468
304.37
304.474
304.501
304.583
304.685
304.73
304.784
304.849
304.846
304.856
304.86
304.79
304.801
304.691
304.647
304.621
304.521
304.39
304.275
304.193
364.772
366.178
367.388
368.745
369.95
370.725
371.707
372.295
372.228
372.208
372.355
371.788
371.659
370.758
369.568
368.584
367.309
365.649
364.109
362.51
356.212
357.325
358.405
359.545
360.602
361.322
362.082
362.625
362.63
362.528
362.688
362.151
362.072
361.293
360.285
359.416
358.317
356.845
355.55
354.148
347.605
348.488
349.414
350.362
351.308
351.931
352.488
352.942
353.006
352.883
353.033
352.531
352.476
351.789
351.057
350.273
349.332
348.069
346.977
345.782
338.988
339.697
340.406
341.215
341.979
342.489
342.95
343.372
343.408
343.208
343.408
342.939
342.945
342.339
341.81
341.158
340.312
339.299
338.434
337.418
330.354
330.863
331.405
332.085
332.703
333.025
333.376
333.728
333.756
333.623
333.768
333.391
333.42
332.91
332.51
332.081
331.325
330.541
329.927
329.076
321.702
322.071
322.464
322.908
323.388
323.579
323.845
324.091
324.085
324.004
324.137
323.876
323.886
323.479
323.229
322.981
322.383
321.824
321.356
320.738
313.01
313.276
313.498
313.782
314.069
314.191
314.305
314.458
314.431
314.405
314.505
314.314
314.352
314.098
313.94
313.813
313.433
313.109
312.811
312.472
304.377
304.465
304.536
304.617
304.714
304.773
304.787
304.843
304.841
304.825
304.879
304.79
304.832
304.723
304.666
304.628
304.504
304.391
304.285
304.194
364.668
366.088
367.385
369.124
370.156
370.807
371.818
372.193
372.352
372.326
372.429
371.945
371.515
370.693
369.604
368.907
367.346
365.914
364.252
362.758
356.078
357.291
358.399
359.893
360.869
361.369
362.22
362.523
362.676
362.684
362.728
362.257
361.953
361.23
360.33
359.676
358.347
357.103
355.636
354.41
347.502
348.488
349.397
350.632
351.564
351.94
352.612
352.88
352.996
353.026
353.044
352.623
352.385
351.78
351.043
350.462
349.369
348.283
347.045
345.964
338.925
339.714
340.37
341.377
342.176
342.548
342.996
343.217
343.358
343.368
343.395
343.023
342.849
342.343
341.784
341.269
340.384
339.486
338.467
337.584
330.336
330.874
331.371
332.165
332.773
333.142
333.437
333.628
333.699
333.7
333.746
333.48
333.293
332.919
332.529
332.114
331.396
330.695
329.893
329.208
321.694
322.081
322.396
322.973
323.367
323.688
323.861
323.99
324.093
324.067
324.084
323.939
323.778
323.54
323.276
322.957
322.426
321.897
321.301
320.859
313.036
313.253
313.456
313.805
314.013
314.237
314.296
314.387
314.451
314.433
314.47
314.38
314.271
314.129
313.974
313.793
313.481
313.102
312.762
312.534
304.357
304.452
304.515
304.645
304.692
304.762
304.773
304.826
304.827
304.828
304.86
304.824
304.778
304.726
304.653
304.62
304.51
304.383
304.262
304.213
)
;

boundaryField
{
    hotSide
    {
        type            fixedGradient;
        gradient        nonuniform List<scalar> 
400
(
503.073
519.572
535.654
551.248
566.283
580.688
594.394
607.334
619.445
630.665
640.938
650.209
658.43
665.559
671.556
676.39
680.034
682.468
683.678
683.659
516.072
533.054
549.611
565.669
581.156
595.997
610.123
623.465
635.956
647.533
658.138
667.716
676.216
683.594
689.809
694.829
698.627
701.181
702.477
702.508
527.663
545.084
562.072
578.552
594.449
609.688
624.197
637.905
650.743
662.648
673.558
683.418
692.174
699.782
706.2
711.395
715.336
718.004
719.383
719.466
537.777
555.588
572.96
589.816
606.08
621.674
636.526
650.562
663.712
675.911
687.097
697.211
706.2
714.017
720.62
725.974
730.05
732.824
734.282
734.416
546.355
564.504
582.21
599.394
615.978
631.883
647.034
661.358
674.782
687.24
698.669
709.007
718.203
726.207
732.976
738.473
742.67
745.543
747.076
747.26
553.352
571.786
589.773
607.234
624.088
640.257
655.663
670.231
683.889
696.569
708.205
718.738
728.111
736.277
743.19
748.815
753.119
756.081
757.682
757.915
558.733
577.397
595.611
613.296
630.369
646.752
662.365
677.133
690.983
703.845
715.653
726.346
735.868
744.169
751.205
756.937
761.335
764.374
766.037
766.317
562.478
581.313
599.699
617.552
634.792
651.337
667.109
682.031
696.028
709.031
720.973
731.792
741.432
749.841
756.975
762.795
767.27
770.375
772.094
772.415
564.573
583.523
602.022
619.988
637.34
653.996
669.877
684.904
699.005
712.107
724.143
735.053
744.778
753.266
760.474
766.361
770.896
774.055
775.819
776.179
565.019
584.023
602.578
620.601
638.01
654.723
670.661
685.746
699.903
713.061
725.153
736.116
745.893
754.432
761.687
767.62
772.198
775.397
777.198
777.592
563.823
582.822
601.374
619.397
636.807
653.525
669.469
684.562
698.729
711.9
724.006
734.986
744.781
753.34
760.617
766.573
771.176
774.401
776.229
776.651
561.002
579.937
598.428
616.393
633.75
650.417
666.316
681.368
695.5
708.639
720.72
731.678
741.458
750.007
757.279
763.236
767.845
771.082
772.927
773.372
556.583
575.394
593.766
611.617
628.865
645.429
661.232
676.194
690.244
703.308
715.322
726.223
735.953
744.461
751.703
757.638
762.235
765.468
767.321
767.782
550.598
569.228
587.424
605.105
622.19
638.599
654.254
669.079
683
695.948
707.855
718.66
728.308
736.746
743.93
749.821
754.387
757.604
759.453
759.925
543.091
561.482
579.446
596.903
613.772
629.975
645.433
660.073
673.822
686.609
698.371
709.045
718.577
726.916
734.016
739.841
744.359
747.544
749.38
749.856
534.11
552.209
569.887
587.066
603.668
619.614
634.829
649.238
662.771
675.358
686.936
697.444
706.829
715.039
722.032
727.769
732.22
735.36
737.173
737.647
523.715
541.468
558.809
575.66
591.945
607.587
622.512
636.646
649.921
662.269
673.627
683.936
693.142
701.197
708.057
713.687
718.054
721.136
722.916
723.383
511.972
529.329
546.282
562.757
578.678
593.971
608.562
622.381
635.358
647.429
658.533
668.61
677.609
685.483
692.189
697.69
701.958
704.97
706.708
707.163
498.956
515.869
532.389
548.442
563.956
578.856
593.072
606.536
619.179
630.938
641.754
651.571
660.336
668.004
674.533
679.889
684.043
686.972
688.66
689.098
484.749
501.175
517.219
532.808
547.872
562.341
576.144
589.216
601.49
612.906
623.405
632.932
641.438
648.878
655.212
660.406
664.432
667.268
668.899
669.315
)
;
    }
    coldSide
    {
        type            mixed;
        refValue        uniform 300;
        refGradient     uniform 0;
        valueFraction   uniform 0.991591;
        source          uniform 0;
        value           nonuniform List<scalar> 
400
(
300.028
300.028
300.029
300.03
300.03
300.031
300.032
300.033
300.033
300.034
300.034
300.035
300.035
300.036
300.036
300.036
300.036
300.037
300.037
300.037
300.028
300.029
300.029
300.03
300.031
300.031
300.032
300.033
300.034
300.034
300.035
300.035
300.036
300.036
300.036
300.037
300.037