/*--------------------------------*- C++ -*----------------------------------*\
| =========                 |                                                 |
| \\      /  F ield         | OpenFOAM: The Open Source CFD Toolbox           |
|  \\    /   O peration     | Version:  2212                                  |
|   \\  /    A nd           | Website:  www.openfoam.com                      |
|    \\/     M anipulation  |                                                 |
\*---------------------------------------------------------------------------*/
FoamFile
{
    version     2.0;
    format      ascii;
    arch        "LSB;label=32;scalar=64";
    class       volScalarField;
    location    "./ITHACAoutput/true/12.7";
    object      error;
}
// * * * * * * * * * * * * * * * * * * * * * * * * * * * * * * * * * * * * * //

dimensions      [0 0 0 1 0 0 0];

internalField   nonuniform List<scalar> 
3200
(
5.83942
6.12451
6.47974
6.72381
7.13604
7.50871
7.86642
8.29656
8.47141
8.57135
8.5996
8.4156
8.25927
7.93727
7.47239
7.14601
6.72493
6.36041
6.06707
5.78584
4.99131
5.1372
5.40801
5.7093
6.07718
6.40703
6.70952
6.95484
7.27087
7.29301
7.33524
7.15538
7.01115
6.67704
6.42785
6.06321
5.71901
5.42546
5.09496
4.95548
4.11829
4.30639
4.46222
4.75483
5.03199
5.29207
5.64331
5.87495
5.96266
6.17833
6.12712
5.98823
5.7403
5.55533
5.25356
5.02628
4.73686
4.47876
4.26582
4.0933
3.32523
3.5009
3.63471
3.8266
4.03527
4.19657
4.53132
4.71577
4.85579
4.95407
4.93572
4.80103
4.69795
4.4881
4.26749
4.02045
3.8936
3.5705
3.40847
3.32562
2.49643
2.68477
2.79566
2.91953
3.11055
3.3005
3.39506
3.60047
3.69997
3.82552
3.80048
3.7452
3.61099
3.50028
3.3646
3.03796
2.94418
2.83228
2.59978
2.45717
1.8053
1.90729
2.01328
2.06374
2.26772
2.27417
2.4814
2.55428
2.60701
2.7473
2.6998
2.62298
2.54381
2.4591
2.30068
2.18381
2.10479
1.98324
1.84887
1.79374
1.0214
1.04345
1.1673
1.27723
1.33395
1.45122
1.51577
1.57991
1.58468
1.59634
1.64159
1.6104
1.47806
1.4385
1.45188
1.30344
1.21233
1.18287
1.11847
1.08298
0.325101
0.390816
0.33186
0.402359
0.443033
0.456945
0.505908
0.570624
0.521394
0.493396
0.609436
0.508052
0.524428
0.463371
0.417309
0.415208
0.404521
0.395701
0.386826
0.37705
5.39553
5.6379
5.89798
6.11834
6.50901
6.90456
7.27587
7.57511
7.78676
7.92451
7.95996
7.75985
7.47928
7.23415
6.89084
6.36602
5.96877
5.70821
5.43417
5.21003
4.61052
4.68841
4.96494
5.30847
5.55896
5.88183
6.20126
6.50833
6.63197
6.78764
6.77158
6.64447
6.44028
6.13824
5.85035
5.44959
5.1646
4.8783
4.59047
4.45512
3.79457
3.91016
4.09998
4.37266
4.62893
4.91954
5.1742
5.42042
5.58622
5.6688
5.62513
5.46657
5.39373
5.17006
4.83985
4.56114
4.25983
4.1333
3.86232
3.77648
3.04695
3.15855
3.33159
3.4394
3.7105
3.95093
4.1484
4.34568
4.46989
4.56539
4.59654
4.57475
4.33797
4.12127
3.94277
3.72485
3.45355
3.28923
3.07835
3.02154
2.38385
2.51235
2.53038
2.71345
2.81904
3.06391
3.2304
3.36048
3.43886
3.48491
3.46512
3.45938
3.39226
3.25233
3.0268
2.87513
2.62885
2.49812
2.35189
2.34701
1.61317
1.7413
1.78236
1.90241
2.05513
2.12939
2.31067
2.44892
2.4231
2.52088
2.57071
2.44512
2.39642
2.27759
2.17209
2.00491
1.95677
1.82586
1.6458
1.62977
1.03163
1.03994
1.06471
1.17004
1.16536
1.30469
1.40992
1.425
1.46603
1.48769
1.50346
1.43981
1.40029
1.40093
1.27141
1.21507
1.12779
1.05603
0.993787
0.979567
0.36702
0.363754
0.413827
0.437898
0.445458
0.439039
0.429706
0.483374
0.474472
0.503266
0.492617
0.467677
0.586165
0.488331
0.452777
0.357833
0.376996
0.288645
0.305773
0.321361
4.71665
4.92974
5.07297
5.45681
5.74801
6.08979
6.46508
6.71027
6.95247
6.9682
7.01446
6.81497
6.67107
6.30599
6.01587
5.63352
5.23046
4.91759
4.64855
4.57384
4.03317
4.15
4.30132
4.52579
4.85624
5.2228
5.51802
5.73864
5.90941
6.03499
5.9993
5.85086
5.66287
5.41101
5.03524
4.77103
4.4034
4.17833
3.99378
3.75069
3.27222
3.47938
3.53818
3.85098
4.09586
4.37663
4.53129
4.84752
4.92536
4.99913
5.00072
4.88862
4.74731
4.5231
4.28991
3.96255
3.68766
3.52473
3.25182
3.14862
2.61682
2.78186
2.82928
3.13817
3.28571
3.48405
3.69875
3.87131
4.04341
4.08207
4.00982
3.90779
3.85613
3.69831
3.48468
3.18309
2.99877
2.7886
2.7306
2.59085
2.05102
2.04057
2.23408
2.39484
2.48565
2.68553
2.88456
2.92931
3.16872
3.1428
3.15499
3.09748
3.001
2.78291
2.68187
2.48973
2.28562
2.27518
2.11831
1.98271
1.42612
1.47257
1.61054
1.65882
1.77701
1.92593
2.05266
2.1232
2.18887
2.17596
2.21486
2.14452
2.12456
2.08116
1.95632
1.72035
1.60555
1.54761
1.43978
1.32368
0.888415
0.976518
0.940079
1.01751
1.08465
1.08436
1.17018
1.28514
1.29546
1.29729
1.3467
1.33346
1.21442
1.2523
1.14287
1.11997
0.95328
0.94615
0.919624
0.811112
0.329376
0.299567
0.358015
0.380941
0.42612
0.380384
0.36026
0.442572
0.449185
0.434972
0.424889
0.472423
0.468851
0.375217
0.394802
0.356129
0.338043
0.336597
0.248661
0.241124
4.04662
4.12462
4.3661
4.63817
4.96384
5.20503
5.51464
5.80741
6.01906
6.0959
6.04712
5.92369
5.75527
5.33562
4.988
4.69957
4.37788
4.09789
3.79596
3.70628
3.48646
3.52099
3.69594
3.91738
4.17003
4.47906
4.70345
4.91861
5.06256
5.20782
5.15447
5.09326
4.88152
4.58531
4.29878
4.00301
3.69233
3.48801
3.2665
3.10037
2.86691
2.89363
3.05169
3.22358
3.48182
3.68496
3.88956
4.13471
4.31076
4.28357
4.34209
4.20326
3.98856
3.82308
3.60699
3.31479
3.05945
2.89342
2.70427
2.58198
2.21761
2.30698
2.39241
2.60743
2.82215
2.97893
3.09935
3.3463
3.41966
3.5003
3.48288
3.38855
3.22305
3.07858
2.93891
2.65066
2.53121
2.32493
2.13493
2.0877
1.76018
1.75604
1.8215
1.98662
2.07838
2.30522
2.45348
2.54928
2.65133
2.64336
2.67621
2.61683
2.47373
2.42358
2.21424
2.09723
1.96415
1.72317
1.67221
1.62813
1.2736
1.23852
1.36105
1.42191
1.59799
1.64824
1.73008
1.80408
1.81456
1.88218
1.90709
1.89085
1.76163
1.61035
1.50102
1.48059
1.38697
1.25812
1.1817
1.13364
0.754686
0.722308
0.732456
0.839953
0.938024
1.0045
1.0726
1.07576
1.22225
1.14572
1.05657
1.06964
1.13153
0.944309
0.898204
0.902559
0.851857
0.746657
0.72386
0.677593
0.251855
0.307391
0.164966
0.222002
0.318017
0.348395
0.3988
0.344496
0.384352
0.409142
0.326122
0.429691
0.381355
0.392907
0.351756
0.262281
0.311178
0.293513
0.232016
0.238218
3.42649
3.49687
3.7091
3.89902
4.11577
4.36562
4.65268
4.87194
5.03921
5.06118
5.04706
5.01077
4.68009
4.37283
4.14034
3.74789
3.4908
3.20593
3.09585
2.90669
2.86285
2.94193
3.06224
3.32971
3.46724
3.67703
3.96333
4.10108
4.22882
4.2955
4.34819
4.1446
3.9933
3.77957
3.49142
3.17615
3.00118
2.72388
2.55666
2.4981
2.35764
2.43722
2.53343
2.66092
2.86202
2.99271
3.22644
3.32245
3.54402
3.51321
3.57594
3.47861
3.38082
3.09812
2.8561
2.63627
2.46503
2.2578
2.10677
2.01945
1.90072
1.9136
2.0181
2.21554
2.31136
2.4613
2.57245
2.73086
2.86716
2.9567
2.87023
2.77269
2.6846
2.51141
2.32307
2.17323
1.93152
1.78547
1.70464
1.65638
1.35144
1.47935
1.55009
1.60712
1.7434
1.95457
2.0615
2.08856
2.19484
2.20279
2.24401
2.17967
2.12153
1.96649
1.75284
1.67457
1.4732
1.39499
1.25356
1.25054
1.04136
1.0534
1.10829
1.19465
1.30341
1.2755
1.33764
1.46635
1.55772
1.59539
1.56087
1.5706
1.43625
1.35073
1.27235
1.10756
1.1255
0.988799
0.85794
0.853868
0.613221
0.560002
0.591261
0.69144
0.781359
0.805205
0.826828
0.883096
0.92828
0.955412
1.00827
0.899844
0.856654
0.844911
0.667795
0.718433
0.67624
0.569134
0.482635
0.467549
0.296408
0.147073
0.181012
0.220146
0.265557
0.243754
0.268471
0.293463
0.296649
0.279345
0.33798
0.297825
0.299025
0.363373
0.312536
0.246714
0.207171
0.229059
0.244704
0.175743
2.7856
2.89101
2.92221
3.12838
3.36729
3.59132
3.75806
3.96364
4.09541
4.10326
4.08505
3.95235
3.79219
3.46734
3.23499
2.91729
2.65998
2.40915
2.22873
2.18157
2.27792
2.37292
2.43826
2.64604
2.75087
2.96583
3.22097
3.41314
3.40453
3.47413
3.48261
3.31496
3.15423
2.97928
2.7524
2.39995
2.22008
2.04223
1.9338
1.78289
1.9317
1.87682
2.01634
2.09425
2.34005
2.48595
2.58678
2.80819
2.86067
2.85987
2.79837
2.77926
2.65615
2.426
2.27316
1.99949
1.88321
1.69074
1.53937
1.5135
1.49414
1.48416
1.61851
1.63565
1.74055
1.93112
2.07854
2.22923
2.31425
2.32875
2.33017
2.24765
2.10283
1.89752
1.76721
1.62076
1.55538
1.25911
1.21716
1.19094
1.11761
1.13797
1.22123
1.25747
1.39615
1.51249
1.58743
1.69697
1.79024
1.76941
1.78759
1.66189
1.65464
1.50443
1.30951
1.26414
1.09213
1.01035
0.935818
0.882021
0.874483
0.814763
0.85352
0.870795
0.985011
1.07662
1.06736
1.19919
1.25438
1.21894
1.21983
1.18032
1.16009
1.04339
1.04626
0.812578
0.734001
0.687161
0.726637
0.633823
0.479875
0.523906
0.498096
0.528052
0.549908
0.640953
0.706661
0.700755
0.750531
0.741255
0.771459
0.676277
0.707525
0.677017
0.626688
0.514143
0.464361
0.431644
0.431053
0.355933
0.132512
0.171537
0.159022
0.166973
0.141446
0.165262
0.255481
0.228446
0.251371
0.208555
0.222119
0.27695
0.213911
0.164794
0.211041
0.116439
0.168075
0.143481
0.143306
0.145699
2.23527
2.33834
2.34274
2.46786
2.58387
2.77797
2.90796
3.12492
3.19788
3.19401
3.2589
3.06635
2.83579
2.61286
2.31105
2.09981
1.83364
1.6752
1.60747
1.53259
1.83453
1.79412
1.92127
2.01949
2.12731
2.30025
2.44733
2.61679
2.67363
2.71674
2.67881
2.52595
2.44691
2.1592
1.95928
1.76322
1.57381
1.40461
1.20645
1.26248
1.55008
1.52283
1.56366
1.65769
1.77841
1.87286
1.99391
2.10169
2.21691
2.19978
2.13154
2.1348
1.97196
1.78236
1.61373
1.39659
1.31087
1.10489
1.04678
0.986539
1.1528
1.16342
1.25386
1.30447
1.45542
1.53546
1.59871
1.66858
1.7479
1.7144
1.77161
1.68731
1.57189
1.35234
1.23245
1.12353
0.999929
0.871178
0.794759
0.814775
0.86106
0.833166
0.813824
0.986118
0.972415
1.16169
1.24475
1.27463
1.33998
1.33631
1.31101
1.25693
1.12873
1.06098
0.979196
0.885166
0.777183
0.587408
0.562483
0.655061
0.598241
0.615291
0.645161
0.671217
0.693426
0.784104
0.832434
0.885864
0.922029
0.929674
0.912503
0.894829
0.892182
0.720631
0.75184
0.601288
0.546621
0.444968
0.368059
0.391292
0.356928
0.357207
0.415774
0.401426
0.435421
0.505407
0.533216
0.530487
0.598415
0.605167
0.557845
0.42852
0.49102
0.485577
0.408673
0.331598
0.301066
0.24748
0.308476
0.249455
0.103837
0.133997
0.136478
0.115573
0.126632
0.173476
0.195022
0.187887
0.171336
0.18357
0.234333
0.157033
0.170148
0.186181
0.169613
0.0432457
0.145103
0.0823028
0.114461
0.0821234
1.84128
1.74895
1.79668
1.80278
2.04432
2.07003
2.15526
2.29821
2.35875
2.37469
2.30987
2.19589
1.99648
1.84079
1.5543
1.32413
1.2276
1.0597
0.957108
0.966125
1.45033
1.49186
1.41288
1.4814
1.62404
1.69373
1.8346
1.94333
1.92809
2.04971
1.9698
1.83552
1.62628
1.46925
1.26178
1.1399
0.948258
0.842254
0.777198
0.665132
1.14483
1.14279
1.1644
1.25254
1.2723
1.38539
1.41119
1.55637
1.55253
1.60958
1.60093
1.45598
1.2744
1.22117
1.08904
0.93484
0.798505
0.564441
0.567184
0.538422
0.874312
0.887946
0.895477
0.939601
1.04067
1.08105
1.16765
1.19572
1.23802
1.27733
1.22866
1.14719
1.00676
0.93764
0.821568
0.632254
0.601539
0.535988
0.454234
0.382265
0.653107
0.692628
0.680297
0.662442
0.743801
0.764156
0.8788
0.906743
0.908604
0.968742
0.94993
0.927337
0.844979
0.662182
0.614522
0.502003
0.433853
0.385242
0.316494
0.302206
0.442645
0.419164
0.477833
0.510801
0.538803
0.587085
0.614102
0.639288
0.641986
0.7531
0.686174
0.620903
0.515298
0.485771
0.418473
0.26535
0.301437
0.258599
0.222336
0.231141
0.276062
0.244103
0.252331
0.319223
0.309758
0.36014
0.298944
0.357166
0.338843
0.421816
0.364727
0.400389
0.293884
0.231923
0.173644
0.259463
0.213544
0.140088
0.121879
0.203775
0.0930564
0.0678826
0.105966
0.0784388
0.111273
0.119915
0.095643
0.109426
0.0974914
0.0964594
0.148437
0.129134
0.110083
0.0954033
0.0998522
0.0345583
0.0326144
-0.0186601
0.031354
0.0252456
1.41395
1.29369
1.27318
1.28916
1.38605
1.45719
1.52988
1.61278
1.6304
1.59609
1.55132
1.40913
1.33868
1.09072
0.940995
0.759851
0.561752
0.464465
0.431602
0.41217
1.14011
1.01086
1.02868
0.950817
1.07577
1.17095
1.20368
1.24089
1.29873
1.2935
1.22953
1.13937
0.999303
0.837466
0.746846
0.577352
0.424092
0.324262
0.27319
0.303527
0.889593
0.828274
0.801404
0.818913
0.863105
0.943366
0.971608
1.04152
1.03756
1.06595
0.993668
0.86427
0.803188
0.599548
0.477335
0.377805
0.279499
0.226143
0.204884
0.147825
0.644089
0.606904
0.537586
0.596719
0.610193
0.724828
0.730225
0.732635
0.743769
0.783329
0.700812
0.671311
0.555266
0.457984
0.37296
0.297353
0.243904
0.125639
0.171477
0.110258
0.475692
0.384699
0.473949
0.372137
0.412481
0.489105
0.601599
0.45656
0.572072
0.544411
0.572813
0.446063
0.415794
0.26412
0.263479
0.159151
0.150841
0.0978806
0.083781
0.034642
0.311399
0.269676
0.318186
0.317194
0.386064
0.349006
0.394434
0.297063
0.341842
0.446972
0.370256
0.350358
0.324781
0.292531
0.166851
0.105539
0.0447989
0.0454882
-0.0277124
0.0290079
0.127042
0.153529
0.156446
0.14882
0.22828
0.189127
0.185501
0.213218
0.180633
0.238881
0.19031
0.198371
0.12688
0.148526
0.12172
0.0604261
0.0580537
0.0364601
-0.0268968
-0.00163107
0.0118132
0.142882
0.102686
0.0178409
0.0590721
0.0826803
0.0406864
0.175469
0.0824
0.0552067
0.0521011
0.0767462
0.0140169
0.0268324
0.0494704
0.00136897
0.0727348
-0.022792
0.0428172
-0.0367141
1.05405
1.02177
0.948118
0.855847
0.857626
0.903501
0.871543
0.955965
0.939402
0.942909
0.840442
0.783975
0.653202
0.452619
0.270966
0.14791
-0.0195906
-0.0638578
-0.114118
-0.0833321
0.860764
0.740556
0.649933
0.66645
0.661742
0.77446
0.674716
0.722343
0.726168
0.698148
0.654109
0.513341
0.380364
0.331278
0.0794608
-0.0185824
-0.0694403
-0.146952
-0.0978467
-0.116392
0.730879
0.578146
0.51284
0.430553
0.426385
0.474952
0.483104
0.513623
0.493256
0.513913
0.434073
0.366191
0.28247
0.153597
0.0600727
-0.0123731
-0.129258
-0.209304
-0.149979
-0.17651
0.467529
0.372937
0.390665
0.366901
0.295396
0.313911
0.390998
0.41233
0.366263
0.447591
0.332565
0.338373
0.210121
0.134651
0.0303125
-0.0735426
-0.143563
-0.134861
-0.151316
-0.188314
0.283667
0.326682
0.235135
0.266628
0.24188
0.268376
0.213766
0.301295
0.189812
0.236146
0.222196
0.144341
0.0854338
0.0652541
0.0115344
-0.186542
-0.187584
-0.212368
-0.111642
-0.21511
0.220078
0.231869
0.146116
0.153197
0.134193
0.14415
0.0502333
0.197363
0.190715
0.205411
0.159323
0.0954251
0.0522814
0.0828212
-0.0114042
-0.0642514
-0.111942
-0.116833
-0.159142
-0.0706073
0.157613
0.141056
0.0173078
0.0725505
0.126512
0.117416
0.0672207
0.0372886
0.0660845
0.0760502
0.0301365
0.0556946
0.0250776
0.0433379
-0.0521794
-0.0749525
0.0159815
0.0260362
-0.0940833
-0.100644
0.0665284
0.0826355
0.0208699
-0.000699013
0.0299619
0.0331105
0.0303329
0.00884355
0.0194159
0.0427199
-0.0303293
-0.00860506
0.0528188
0.0215772
-0.0506567
0.0101014
0.0168862
-0.0532001
-0.0613835
-0.0127106
0.871961
0.758389
0.611582
0.548212
0.467817
0.467559
0.394041
0.43261
0.354111
0.284084
0.282211
0.166486
0.0566688
-0.083151
-0.204527
-0.326112
-0.469244
-0.417719
-0.463569
-0.311562
0.644219
0.60062
0.476882
0.328045
0.352805
0.277705
0.265795
0.203924
0.23144
0.199803
0.100621
0.080257
-0.0800085
-0.21782
-0.31148
-0.374138
-0.395663
-0.526394
-0.466852
-0.334303
0.48676
0.437908
0.256657
0.216916
0.136622
0.0832696
0.1859
0.10774
0.143155
0.117634
0.0219839
-0.0936291
-0.14889
-0.214612
-0.259418
-0.362974
-0.431039
-0.53259
-0.372568
-0.401478
0.336847
0.246561
0.0902283
0.0980419
0.00980258
0.0404832
0.0926423
0.0427691
0.0434926
-0.0350647
-0.0354092
-0.135095
-0.17684
-0.271548
-0.349552
-0.403814
-0.486016
-0.439737
-0.422486
-0.347231
0.204712
0.145636
0.136237
0.0179064
-0.0555336
0.0274159
0.0127016
0.0422357
0.0406704
-0.0204577
-0.0628044
-0.128539
-0.196817
-0.276693
-0.216516
-0.390533
-0.358044
-0.407873
-0.370839
-0.357353
0.115042
0.0360829
0.0710208
-0.00539519
0.0476221
-0.0269674
0.00503915
0.00248124
0.0302869
0.00863025
-0.0282885
-0.115773
-0.119922
-0.148458
-0.258681
-0.261786
-0.240499
-0.269511
-0.310296
-0.145058
0.0123266
0.0182831
0.0178054
-0.0146497
-0.0273311
-0.0317951
0.0586589
-0.0260786
0.0527802
0.00962322
-0.0658645
-0.026304
-0.0086849
-0.147421
-0.15206
-0.0977057
-0.180236
-0.193758
-0.149893
-0.149593
-0.00232289
-8.11393e-05
0.0323259
0.0268421
-0.0526805
0.0242548
-0.0419804
-0.0197301
0.0108562
-0.00427227
-0.000354113
-0.00393421
0.00408464
-0.050701
-0.0574195
-0.0343692
0.013187
0.00254813
-0.0672982
-0.0495567
0.785665
0.58743
0.360088
0.32726
0.168233
0.139793
0.0547382
-0.0889648
-0.0699236
-0.0718419
-0.245727
-0.329657
-0.437346
-0.565385
-0.685403
-0.720008
-0.814535
-0.762134
-0.695725
-0.652273
0.576563
0.394309
0.203881
0.127499
-0.0335323
-0.0319963
-0.101556
-0.13164
-0.170537
-0.277505
-0.28161
-0.294128
-0.453873
-0.616357
-0.71116
-0.754318
-0.754482
-0.763473
-0.711562
-0.623871
0.429641
0.267617
0.145059
-0.0669109
-0.0326942
-0.155357
-0.169764
-0.159655
-0.16938
-0.293429
-0.317775
-0.430935
-0.513224
-0.547735
-0.643685
-0.665951
-0.75469
-0.6981
-0.592211
-0.586702
0.270749
0.129943
0.0410129
-0.0474186
-0.0896165
-0.191851
-0.192938
-0.167576
-0.279349
-0.292597
-0.311675
-0.390987
-0.487308
-0.447124
-0.567538
-0.563048
-0.61874
-0.67037
-0.562819
-0.517467
0.161378
0.15851
0.0183016
-0.0495809
-0.145253
-0.176699
-0.152126
-0.24749
-0.196665
-0.291407
-0.323943
-0.386353
-0.353112
-0.399896
-0.505677
-0.586986
-0.610321
-0.526637
-0.52066
-0.485092
0.0936856
0.0249696
-0.00648175
-0.130011
-0.0899539
-0.151833
-0.155646
-0.136141
-0.113407
-0.174479
-0.178338
-0.235451
-0.308987
-0.310849
-0.276584
-0.343199
-0.446505
-0.382849
-0.343495
-0.347284
0.0363393
0.0314735
-0.0231124
-0.0973679
-0.0381063
-0.0680358
-0.0970144
-0.0347693
-0.0751551
-0.123241
-0.139775
-0.0821341
-0.197037
-0.122224
-0.231556
-0.255538
-0.19156
-0.279232
-0.324741
-0.165266
-0.0264166
0.00351638
-0.0808939
0.0555659
0.00410785
-0.0467128
0.00138068
-0.0201741
-0.0807963
-0.0531018
0.000900828
-0.0727572
-0.137254
-0.112217
-0.105538
-0.0449797
-0.129415
-0.0969528
-0.0424076
-0.0102382
0.72493
0.525396
0.298742
0.11135
-0.0132573
-0.225461
-0.242849
-0.254751
-0.416929
-0.541107
-0.526284
-0.708063
-0.819611
-0.881608
-0.952409
-1.0338
-1.00046
-0.928831
-0.8545
-0.712171
0.516471
0.342581
0.24769
-0.0567995
-0.193003
-0.261046
-0.259676
-0.459207
-0.412537
-0.582553
-0.665947
-0.742761
-0.752109
-0.880837
-0.93196
-0.93771
-0.934054
-0.911168
-0.768556
-0.65879
0.41393
0.227209
0.0711097
-0.0897396
-0.103359
-0.299828
-0.290921
-0.462528
-0.482597
-0.457218
-0.55022
-0.658042
-0.723556
-0.78737
-0.857566
-0.873973
-0.892124
-0.878169
-0.747211
-0.681706
0.263746
0.104032
0.00603209
-0.040291
-0.313457
-0.345488
-0.281418
-0.414792
-0.451846
-0.496093
-0.57438
-0.669338
-0.691315
-0.730486
-0.694665
-0.793608
-0.80244
-0.741849
-0.727941
-0.647644
0.125088
0.0119647
-0.041832
-0.147175
-0.173801
-0.298019
-0.293612
-0.348759
-0.412649
-0.451887
-0.454424
-0.488422
-0.51188
-0.567529
-0.607522
-0.555658
-0.661368
-0.621955
-0.53217
-0.525037
0.101235
0.0537121
-0.0648331
-0.165103
-0.1612
-0.191182
-0.230541
-0.300897
-0.294069
-0.311031
-0.377126
-0.394037
-0.405396
-0.408657
-0.439381
-0.430056
-0.463303
-0.4674
-0.359338
-0.355786
0.0390113
0.0186652
-0.0330102
-0.0714395
-0.0488871
-0.16375
-0.155307
-0.144223
-0.199999
-0.150526
-0.152543
-0.250699
-0.332308
-0.370891
-0.301409
-0.213094
-0.272272
-0.254928
-0.293385
-0.179833
-0.0242801
0.005806
-0.0630177
-0.0569197
-0.0451176
-0.079338
0.00770399
-0.0287042
-0.129292
-0.0909268
-0.0752312
-0.0724388
-0.0526209
-0.117106
-0.079068
-0.108976
-0.0871036
-0.0956626
-0.124467
-0.0264933
0.825241
0.568988
0.325669
-0.00868148
-0.0768437
-0.303361
-0.403171
-0.480591
-0.656588
-0.76933
-0.839258
-0.972455
-1.01055
-1.05031
-1.15209
-1.21108
-1.12905
-1.06047
-0.971659
-0.768231
0.596962
0.403213
0.242349
0.0538866
-0.167921
-0.311425
-0.442
-0.576462
-0.698933
-0.736638
-0.842802
-0.862951
-1.01882
-1.09958
-1.07455
-1.13314
-1.03287
-0.985264
-0.895701
-0.708652
0.428032
0.306319
0.0555338
-0.116144
-0.241032
-0.424788
-0.495577
-0.597265
-0.68903
-0.758965
-0.810927
-0.874502
-0.936721
-1.02554
-1.04018
-1.0192
-0.958646
-0.916611
-0.808306
-0.69568
0.305557
0.0962102
0.038393
-0.185013
-0.236904
-0.337693
-0.460133
-0.578102
-0.619845
-0.655366
-0.75442
-0.773024
-0.802066
-0.881838
-0.916218
-0.870886
-0.8552
-0.834799
-0.686812
-0.622209
0.232723
0.114765
-0.0277197
-0.183443
-0.155958
-0.333681
-0.398243
-0.430608
-0.503049
-0.517112
-0.606721
-0.650607
-0.665095
-0.696316
-0.669338
-0.737999
-0.73325
-0.589438
-0.640217
-0.545051
0.10426
0.0544502
-0.0948924
-0.11443
-0.165517
-0.240842
-0.301627
-0.286634
-0.326931
-0.331387
-0.424593
-0.414465
-0.554596
-0.514237
-0.460471
-0.553437
-0.508807
-0.428491
-0.437596
-0.455572
0.0236739
0.0786477
-0.026966
-0.0852603
-0.155086
-0.245813
-0.210922
-0.269592
-0.226042
-0.264841
-0.250965
-0.321264
-0.277338
-0.265715
-0.316489
-0.318187
-0.381572
-0.326724
-0.209555
-0.179098
-0.0162429
0.0394309
0.000779328
-0.0253696
-0.0462863
-0.0334355
-0.123589
-0.116645
-0.0896942
-0.057297
-0.000434736
-0.0599161
-0.0734661
-0.154114
-0.0981112
-0.11449
-0.119819
-0.110522
-0.110068
-0.0537959
1.05328
0.799452
0.404835
0.170448
-0.049841
-0.260272
-0.420787
-0.547475
-0.6404
-0.853056
-1.00395
-1.05858
-1.10109
-1.21037
-1.18783
-1.2541
-1.09858
-1.01249
-0.820944
-0.677655
0.827392
0.62619
0.285431
0.00557476
-0.176354
-0.356076
-0.45056
-0.593109
-0.77133
-0.862208
-1.02041
-1.07929
-1.01641
-1.04928
-1.2052
-1.15067
-1.09079
-0.947795
-0.837855
-0.718988
0.584627
0.377851
0.0637418
-0.0729998
-0.235698
-0.404031
-0.441729
-0.675488
-0.686007
-0.783671
-0.872989
-0.97304
-1.01359
-1.06309
-1.07576
-1.01623
-1.01047
-0.943197
-0.816365
-0.630347
0.362624
0.205898
0.0465422
-0.100097
-0.205426
-0.405595
-0.507859
-0.561465
-0.621603
-0.669808
-0.773029
-0.81775
-0.876017
-0.937481
-0.900216
-1.00083
-0.803109
-0.810505
-0.715255
-0.553194
0.284215
0.17859
-0.00179426
-0.123182
-0.23514
-0.314526
-0.390536
-0.491031
-0.577228
-0.592978
-0.581521
-0.688466
-0.702681
-0.79028
-0.704742
-0.710679
-0.751953
-0.604835
-0.610585
-0.474552
0.232786
0.0375028
0.0614895
-0.135015
-0.227896
-0.27403
-0.283352
-0.333378
-0.346368
-0.403545
-0.458387
-0.541725
-0.522991
-0.542522
-0.464736
-0.548881
-0.475192
-0.507377
-0.425546
-0.407503
0.161028
0.0249066
-0.0032779
-0.127451
-0.140479
-0.176325
-0.116529
-0.194791
-0.212115
-0.312718
-0.309535
-0.345979
-0.312303
-0.295921
-0.332423
-0.334959
-0.361836
-0.315116
-0.192097
-0.181247
0.061994
-0.0381676
0.005951
-0.0161116
-0.0599245
-0.146379
-0.0388919
-0.0377222
-0.118995
-0.162937
-0.0882747
-0.0502609
-0.0619919
-0.0499292
-0.121995
-0.179082
-0.0905281
-0.0922623
-0.00832627
-0.0642688
1.46924
1.05298
0.690716
0.404551
0.210212
-0.184679
-0.342316
-0.53219
-0.753629
-0.877972
-0.901664
-1.03566
-1.0183
-1.17413
-1.12633
-1.1185
-1.05119
-0.864992
-0.702995
-0.461736
1.03501
0.832067
0.508545
0.226989
-0.08229
-0.265456
-0.426227
-0.618065
-0.731142
-0.842172
-0.961086
-0.994756
-1.07234
-1.12015
-1.10707
-1.08325
-0.855425
-0.785662
-0.700831
-0.492777
0.817729
0.647232
0.307709
0.0827572
-0.198733
-0.310065
-0.409876
-0.536158
-0.673727
-0.831624
-0.86529
-0.952713
-0.943326
-1.01202
-0.965214
-0.916499
-0.867542
-0.808487
-0.632485
-0.447297
0.639047
0.36959
0.185194
-0.0116689
-0.184701
-0.360986
-0.431125
-0.581243
-0.595414
-0.709409
-0.749133
-0.764148
-0.887946
-0.886829
-0.918746
-0.871505
-0.784264
-0.651354
-0.605313
-0.555454
0.466866
0.274369
0.141482
-0.12312
-0.224346
-0.26798
-0.360556
-0.488668
-0.525255
-0.623796
-0.714144
-0.605649
-0.704506
-0.741338
-0.704031
-0.742564
-0.612264
-0.518161
-0.481061
-0.330596
0.291289
0.195612
0.0639052
-0.0103065
-0.146369
-0.228113
-0.256267
-0.350951
-0.473208
-0.410599
-0.445235
-0.554652
-0.473082
-0.543259
-0.492212
-0.494401
-0.447045
-0.475873
-0.345544
-0.273565
0.117439
0.132729
0.0362587
-0.0264483
-0.118188
-0.150074
-0.255391
-0.213222
-0.251845
-0.218632
-0.308289
-0.379752
-0.324898
-0.378416
-0.277312
-0.318471
-0.191202
-0.245076
-0.18698
-0.195303
0.0110822
0.0291414
-0.0197181
-0.0184382
-0.038593
-0.00592019
-0.0320371
-0.0356533
-0.139507
-0.0611948
-0.10514
-0.150938
-0.0980695
-0.141544
-0.192814
-0.126056
-0.0839634
-0.103276
-0.0709256
-0.00546223
1.80632
1.41024
1.08549
0.719725
0.334108
0.0825385
-0.141993
-0.327675
-0.511386
-0.684669
-0.798198
-0.8535
-1.02818
-0.960212
-0.995043
-0.872575
-0.79331
-0.527319
-0.333169
-0.11365
1.43847
1.19365
0.741881
0.472306
0.251771
-0.0314681
-0.278353
-0.365975
-0.610841
-0.68759
-0.817638
-0.874029
-0.938802
-0.950156
-0.97564
-0.852642
-0.817081
-0.6153
-0.382658
-0.0890804
1.11551
0.879858
0.582116
0.296652
0.0782409
-0.122658
-0.239511
-0.38698
-0.559451
-0.669578
-0.693332
-0.837545
-0.837264
-0.861878
-0.900897
-0.863829
-0.763271
-0.606442
-0.349625
-0.23376
0.859114
0.690579
0.364234
0.222768
0.0399239
-0.157057
-0.362699
-0.352132
-0.528302
-0.611023
-0.652174
-0.741413
-0.80059
-0.820015
-0.756344
-0.713068
-0.690981
-0.480271
-0.431841
-0.237466
0.566341
0.479553
0.28106
0.0971207
0.00392824
-0.179163
-0.224993
-0.356068
-0.50726
-0.466106
-0.515296
-0.633742
-0.644198
-0.657119
-0.602659
-0.558944
-0.521394
-0.433432
-0.311507
-0.21915
0.442121
0.299609
0.181062
0.10823
-0.0872291
-0.122607
-0.249619
-0.221918
-0.335788
-0.40829
-0.466797
-0.462407
-0.499038
-0.556502
-0.528294
-0.434002
-0.353481
-0.303087
-0.306913
-0.232087
0.247022
0.114433
0.0888184
-0.0310097
-0.00192707
-0.079646
-0.190811
-0.103506
-0.235664
-0.299377
-0.265017
-0.25617
-0.289348
-0.304233
-0.29504
-0.244705
-0.22291
-0.220725
-0.0976677
-0.0787723
0.103395
0.060014
-0.0386593
0.0120119
0.0533236
-0.0606107
0.0144843
-0.0609921
-0.0662542
-0.166313
-0.0984595
-0.106326
-0.071989
-0.0850208
-0.10916
-0.110647
-0.0967433
-0.141669
-0.00799026
-0.00115004
2.33101
2.00018
1.49451
1.10467
0.795811
0.436486
0.162792
0.00672904
-0.257723
-0.399157
-0.508231
-0.65141
-0.75037
-0.671403
-0.605738
-0.529283
-0.440415
-0.157833
0.0137044
0.335454
1.86566
1.59521
1.13449
0.873857
0.49062
0.285874
0.0707643
-0.200494
-0.308866
-0.404545
-0.638318
-0.641048
-0.730165
-0.767726
-0.646359
-0.636256
-0.466493
-0.282992
0.0326218
0.212145
1.49282
1.2507
0.941017
0.538412
0.348579
0.0505829
-0.119071
-0.184012
-0.349093
-0.548454
-0.543254
-0.607145
-0.705184
-0.615631
-0.67886
-0.53611
-0.535499
-0.32185
-0.184167
0.0824545
1.18252
0.861388
0.681775
0.478393
0.198277
0.0230619
-0.146807
-0.221458
-0.362145
-0.447213
-0.514176
-0.510329
-0.630031
-0.674992
-0.607815
-0.56412
-0.470343
-0.372983
-0.134407
0.0219554
0.877751
0.667747
0.422091
0.233172
0.102078
-0.0447016
-0.161502
-0.228174
-0.377635
-0.418617
-0.423903
-0.482572
-0.433028
-0.576656
-0.417578
-0.511211
-0.387805
-0.342667
-0.093728
-0.0842999
0.589372
0.471175
0.342289
0.194619
0.0649674
-0.00438669
-0.095113
-0.166844
-0.204103
-0.319846
-0.309838
-0.367217
-0.394623
-0.3741
-0.320623
-0.377326
-0.208555
-0.286281
-0.131793
-0.0318328
0.318019
0.304043
0.213449
0.0836476
0.00948665
-0.0289285
-0.0501718
-0.109926
-0.0910221
-0.200458
-0.261192
-0.260107
-0.239876
-0.21377
-0.249317
-0.228218
-0.208087
-0.14995
-0.100789
-0.0786437
0.135462
0.153808
0.0682437
-0.000338705
-0.0322931
-0.08183
0.011737
-0.0330754
-0.0817993
-0.0937603
-0.0618362
-0.0704845
-0.0575145
-0.0931194
-0.0892668
-0.088742
-0.0891287
-0.0625373
-0.0647046
0.100798
2.90912
2.54919
2.05606
1.60946
1.21081
0.888918
0.677121
0.371886
0.109351
0.00997586
-0.183755
-0.234018
-0.306738
-0.294249
-0.213692
-0.114271
0.0561897
0.274694
0.522652
0.851171
2.36449
1.96363
1.59771
1.22157
0.973832
0.626667
0.359202
0.270773
-0.0236162
-0.140511
-0.288887
-0.309328
-0.359642
-0.366838
-0.340462
-0.213969
-0.152468
0.141473
0.366654
0.614707
1.93198
1.65123
1.28187
1.04064
0.669418
0.460541
0.209462
0.0656466
-0.0904034
-0.226434
-0.320207
-0.423676
-0.509933
-0.414962
-0.427218
-0.330446
-0.186032
0.00241665
0.211739
0.37747
1.48632
1.31271
0.89624
0.691733
0.506521
0.197464
0.0646095
0.0503171
-0.163109
-0.253249
-0.371879
-0.408397
-0.479369
-0.382857
-0.366504
-0.403463
-0.171291
-0.102282
0.0482965
0.18225
1.07253
0.952969
0.736582
0.4887
0.327607
0.237025
0.100166
-0.0646156
-0.0951953
-0.21692
-0.317668
-0.372488
-0.475354
-0.31448
-0.407702
-0.30775
-0.245513
-0.120762
-0.000677839
0.163503
0.733888
0.647071
0.548872
0.323595
0.230335
0.0882474
0.0248026
-0.100918
-0.0777838
-0.221449
-0.255712
-0.263718
-0.293548
-0.377469
-0.276928
-0.292045
-0.194171
-0.101752
0.0056078
0.107882
0.499155
0.379924
0.275787
0.240051
0.1611
-0.0281593
0.0236804
-0.0439213
-0.0674812
-0.0929425
-0.128566
-0.228088
-0.20101
-0.165486
-0.153394
-0.113204
-0.115304
-0.0624318
-0.0442287
0.0898005
0.154111
0.11587
0.0896195
-0.0217002
0.0602981
0.072599
-0.0338735
-0.0292139
-0.0356875
-0.0507695
-0.0934098
-0.0884581
-0.0540418
-0.0884462
-0.0445566
-0.00137128
-0.072969
-0.0534369
0.0420222
0.0579379
3.38841
3.03938
2.5124
2.05209
1.68372
1.28107
1.01332
0.83998
0.507395
0.266924
0.222222
0.107395
0.0425034
0.00657347
0.129998
0.245734
0.417647
0.772106
0.987997
1.27753
2.76847
2.43643
2.00656
1.58303
1.22488
1.04814
0.733145
0.42987
0.276839
0.107634
-0.0115368
-0.122737
-0.0890063
-0.0962955
-0.0537872
0.0570902
0.168041
0.430432
0.725524
0.974854
2.18622
1.92681
1.57032
1.28666
0.958214
0.727253
0.408427
0.307401
0.107196
0.0413492
-0.161161
-0.123308
-0.177244
-0.234589
-0.14953
-0.103494
0.0991317
0.250376
0.48252
0.634287
1.69761
1.52956
1.22865
0.906455
0.721955
0.454307
0.339139
0.17025
0.00266767
-0.0864952
-0.130428
-0.215203
-0.254938
-0.219196
-0.20136
-0.0890357
-0.00532277
0.140122
0.26615
0.555388
1.27967
1.10329
0.828221
0.680189
0.448179
0.357977
0.168382
0.107019
-0.0334852
-0.149429
-0.163954
-0.296474
-0.178057
-0.28365
-0.154657
-0.186744
-0.104057
0.0856752
0.234475
0.248549
0.950744
0.709549
0.572919
0.449765
0.24574
0.186158
0.0963449
0.0518874
-0.0598126
-0.0607186
-0.1221
-0.221718
-0.247842
-0.180639
-0.150848
-0.166883
-0.0734969
0.0313473
0.153385
0.195678
0.556139
0.521658
0.326076
0.307078
0.244916
0.0791411
0.134796
0.0162526
-0.01572
-0.046773
-0.0711876
-0.0567557
-0.138567
-0.115815
-0.138203
-0.0632
-0.0404345
-0.0433441
0.0642518
0.0899304
0.184566
0.197652
0.0725857
0.0905483
0.0181245
0.0267617
-0.0208861
0.0193595
0.0190247
-0.0528494
0.0224952
-0.00509354
-0.109314
-0.0720991
-0.0700507
-0.0666832