/*--------------------------------*- C++ -*----------------------------------*\
| =========                 |                                                 |
| \\      /  F ield         | OpenFOAM: The Open Source CFD Toolbox           |
|  \\    /   O peration     | Version:  2212                                  |
|   \\  /    A nd           | Website:  www.openfoam.com                      |
|    \\/     M anipulation  |                                                 |
\*---------------------------------------------------------------------------*/
FoamFile
{
    version     2.0;
    format      ascii;
    arch        "LSB;label=32;scalar=64";
    class       volScalarField;
    location    "0";
    object      relativeErrorField;
}
// * * * * * * * * * * * * * * * * * * * * * * * * * * * * * * * * * * * * * //

dimensions      [0 0 0 1 0 0 0];

internalField   nonuniform List<scalar> 
3200
(
0.00287356
0.0124369
0.00945559
0.00337974
0.00703316
0.0173645
0.007012
0.0249269
0.00902934
0.0087732
0.00578688
0.00141893
0.006231
0.0182879
0.0166367
0.000926835
0.0139081
0.0226778
0.0197636
0.0236181
0.00510105
0.002446
0.0166107
0.00500337
0.000849808
0.004713
0.00299403
0.00604027
0.00571352
0.00536905
0.0171163
0.0099108
0.00916868
0.0113894
0.00727101
0.00244172
0.00755496
0.0112311
0.0178345
0.0211523
0.00122208
0.0139345
0.000534622
0.00228395
0.0042332
0.00144833
0.00567332
0.000465592
0.00720524
0.0174164
0.00505244
0.0195443
0.000218168
0.00931215
0.0104416
0.00345023
0.0053314
0.00384284
0.0149595
0.0125089
0.000321268
0.00125935
0.00429051
0.0060737
0.00439013
0.000201553
0.0109905
0.000622029
0.00385314
0.00647783
0.00621676
0.00850216
0.00293688
0.0141105
0.00364644
0.00503355
0.00432509
0.00791798
0.00588138
0.00606102
0.0124146
0.0200452
0.00909765
0.000236661
0.00792856
0.00335798
0.00215841
0.00941967
0.000102722
0.0019616
0.00375222
0.0113599
0.00995161
0.00448599
0.00522377
0.00363834
3.17955e-05
0.00127001
0.00663105
0.00200883
0.0045166
0.00671769
0.00578505
0.0122086
0.0201529
0.00855839
0.000216477
0.00755999
0.00627076
0.00171532
0.00522558
0.00729105
0.00300399
0.00163329
0.00770853
0.0121686
0.00279407
0.000620139
0.00767156
0.00986194
0.00883035
0.00639214
0.00951086
0.0159332
0.0104317
0.00194698
0.000519881
0.000248957
0.00491283
0.00298505
0.00346818
0.00126092
0.00482307
0.00721401
0.0107997
0.00208308
0.010189
0.00704245
0.00339162
0.0112177
0.000217646
0.0065981
0.0147759
0.00115141
0.00455511
0.00661952
0.00264395
0.00543491
0.000286001
0.00915018
0.000870122
0.00846222
0.00514087
0.00304774
0.0124132
0.00400274
0.00218595
0.00415876
0.00571206
0.00811309
0.015571
0.00842483
0.00582249
0.00908127
0.0067011
0.00190485
0.0066784
0.00605825
0.00438278
0.0121661
0.0138099
0.00844571
0.00206894
0.00579239
0.00438029
0.00171947
0.00768917
0.0142639
0.0117587
0.0148167
0.00533365
0.00141031
0.000902423
0.00188286
0.000878108
0.000400892
0.00391318
0.00100535
0.0048088
0.00115474
0.00125198
0.00543076
0.000557691
0.00939032
0.000730413
0.00469786
0.00161419
0.00453946
0.00145996
0.00617005
0.0100227
0.00365267
0.00141007
0.00368732
0.00931297
0.000463007
0.00804158
0.00426049
0.00104097
0.0166294
0.00252928
0.0062318
0.00900326
0.00971749
0.00133896
0.000926841
0.00806045
0.000551826
0.0026674
0.0173175
0.00880578
0.00874857
0.00858458
0.005043
0.0117445
0.00822488
0.0101191
0.00741926
0.00657418
0.00171915
0.000927796
0.00675222
0.00675332
0.00588835
0.00406691
0.00169773
0.000819275
0.000934254
0.00441894
0.00755621
0.00939885
0.00696711
0.00256747
0.00898259
0.00910925
0.00260555
0.00627436
0.000901459
0.000624191
0.0112274
0.00564317
0.000803482
0.00213514
0.00388755
0.00312508
0.00770574
0.00687925
0.00384066
0.010554
0.0159877
0.00428719
0.00302024
0.000170401
0.0041221
0.00056072
0.0189034
0.00262523
0.00218714
0.000187421
0.00189377
0.00841385
0.00439786
0.00703896
0.00364966
0.00775983
0.00952932
0.0153712
0.0049109
0.0108707
0.00437402
0.00727911
0.00474862
0.0078208
0.00786156
0.00529445
1.8326e-05
0.00953365
0.00211262
0.00232192
0.00253536
0.000417617
0.0166531
0.0108139
0.00862069
0.00269066
0.00662873
0.0084061
0.00302118
0.00202969
0.00298979
0.0105053
0.0142232
0.00980747
0.0130209
1.60507e-07
0.00466118
0.000994523
0.00112331
0.00567406
0.0145038
0.00448903
0.00509338
0.00416475
0.00395979
0.00015266
0.00677286
0.00013954
0.010089
0.00661095
0.00372554
0.005866
0.00182199
0.00667021
0.005181
0.00152919
0.0075355
0.00290587
0.0106628
0.008611
0.000691378
0.00819238
0.0125929
0.000738527
0.00525963
0.00984353
0.00941729
0.0116706
0.00755116
0.00806939
0.00839855
0.0102303
0.00158963
0.00313756
0.00275956
0.00206394
0.0175493
0.00958598
0.00420162
0.00840528
0.0051287
0.00735731
0.00626595
0.00550725
0.0110542
0.00566867
0.00333395
0.00684319
0.00460841
0.000360497
0.0102599
0.00169469
0.00376718
0.00611896
0.00232299
0.000257526
0.0182509
0.0161389
0.00920221
0.00518954
0.00384407
0.0089575
0.00192194
0.0022115
0.00435642
0.00311929
0.00487855
5.8109e-05
0.00292766
0.00516753
0.00256551
0.00549512
0.00548783
0.0103784
0.00436044
0.00440639
0.00448748
0.00527768
0.00340847
0.0100998
0.00192428
0.00108986
0.00627426
0.000574853
0.0056521
0.00850945
0.00324807
0.000503062
0.00552986
0.00477307
0.000474848
0.0067581
0.00259747
0.00277281
0.00156465
0.00605469
0.00440446
0.00434048
0.00412539
0.00483042
0.000965345
0.00258577
0.000284141
0.0138279
0.00320814
0.00822438
0.00297107
0.0067825
0.000309093
0.000918153
0.0036261
0.00308566
0.00303866
0.0114003
0.00116297
0.00188669
0.00959232
0.0147312
0.0169022
0.00261308
0.00921278
0.00943643
0.00444618
0.00732283
0.00789571
0.0108942
0.00515938
0.0134496
0.000411113
0.0112049
0.00132349
0.00391769
0.00611056
0.00719816
0.00990018
0.0123937
0.0073419
0.00595495
0.0120687
0.011543
0.000227915
0.00755695
0.0022127
0.00645991
0.00366339
0.0129591
0.000582896
0.00628193
0.00491156
0.00829726
0.00603232
0.0011491
0.00552485
0.0011831
0.00627047
0.00742578
0.00210336
0.00241818
0.00251142
0.005774
0.00319171
0.00478955
0.00504019
0.00480578
0.00291446
0.013051
0.0112774
0.00165078
0.000901185
0.00887864
0.0012558
0.00293464
0.00847694
0.0122146
0.00757476
0.000388741
0.00250459
0.00644145
0.00329121
0.0059748
0.00562819
0.00430353
0.00499627
0.00735884
0.0030363
0.00288692
0.00920398
0.00388018
0.00754291
0.000429186
0.00637839
0.0109586
0.00274434
0.00301659
0.0108121
0.00106301
0.00280428
0.00370819
0.00181859
0.00974883
0.000147412
0.00193697
0.00203285
0.002036
0.00628376
0.000302151
0.00813048
0.000360772
0.0114066
0.000890456
0.00471163
0.00636454
0.00869727
0.0110011
0.00684051
0.00285315
0.0127266
0.00430571
0.00377285
0.00483487
0.011247
0.0011744
0.000189542
0.0157678
0.00393487
0.00166273
0.00622041
0.0023408
0.00919467
0.00446614
0.00679513
0.00443537
0.00420181
0.00696687
0.0119391
0.0177526
3.17776e-06
0.00132218
0.0044149
0.0129894
0.0141982
0.00720995
0.00276192
0.00688691
0.0133216
0.0168242
0.00232149
0.00782943
0.0119427
0.00500173
0.00360704
0.00946967
0.00725428
0.0140018
0.0130603
0.012025
0.0169583
0.00930894
0.00148658
0.00199711
0.00397685
0.00209206
0.00565891
0.00629476
0.00333586
0.00145067
0.00824579
0.00426675
0.00544319
0.00144888
0.00362142
0.00374828
0.000617512
2.36809e-05
0.0122981
0.000255237
0.00306536
0.00299521
0.0117019
0.00308991
0.00152732
0.00869819
0.00309859
0.00432748
0.00668875
0.0049936
0.00406932
0.00118715
0.000147608
0.00613435
0.00758078
0.00178266
0.00277269
0.00298463
0.014941
0.0130824
0.00146414
0.000335888
0.00776317
0.00436301
0.00773501
0.00219251
0.000574327
0.00518108
0.00376151
0.000302408
0.0159705
0.0022095
0.0139299
0.000636121
0.00927354
0.00633032
0.000323764
0.00440345
0.00132659
0.0129192
0.000492672
0.00132149
0.00267893
0.00270155
0.00703448
0.0104456
0.00247322
0.00459258
0.00147149
0.00427715
0.00243266
0.0153644
0.00280055
0.00763035
0.0117965
0.000544379
0.0224724
0.00726422
0.0147328
0.010679
0.00904555
0.00912793
0.00356624
0.000850323
0.00471326
0.00565987
2.05969e-05
0.00856059
0.00920995
0.00310918
0.00190564
0.0046926
0.00185135
0.0104969
0.00799638
0.00157507
0.00172002
0.00542516
0.0153484
0.0123815
0.00322613
0.017684
0.00231846
0.0030837
0.0103438
0.00434362
0.00845057
0.000440266
0.00673046
0.0115388
0.00123918
0.00149398
0.000723597
0.0070212
0.00823571
0.00505917
0.000472589
0.000441693
0.00921129
0.0139383
0.00222014
0.0077258
0.0138853
0.000511848
0.00420592
0.00471706
0.00510097
0.00358407
0.00115027
0.007071
0.00681043
0.000408807
0.00734062
0.00594269
0.000951697
0.00443022
0.00616591
0.0105851
0.00186101
0.00782313
0.0102899
0.00503591
0.00275985
0.00599679
0.00360765
0.0129245
0.00871524
0.00919431
0.008839
0.00922731
0.00697936
0.00424576
0.00677807
0.00704359
0.000894731
0.00759423
0.0199996
0.00661638
0.0103415
0.00753705
0.0179032
0.0257289
0.00699884
0.0132918
0.00173177
0.000463512
0.00229505
0.000144595
0.00185797
0.00582649
0.00484385
0.00102627
0.012914
0.00291551
0.0109447
0.0130517
0.00138075
0.00924915
0.00225114
0.00146124
0.0111327
0.00979748
0.00057743
0.00120458
0.00443431
0.000762892
0.00592931
0.0121383
0.00658851
0.00390558
0.00613557
0.017021
0.00255265
0.00274013
0.00326912
0.000589964
0.00203355
0.0137527
0.000618937
0.000810922
0.00292803
0.012439
0.00824711
0.00767754
0.00747689
0.00470314
0.0108926
0.00679538
0.00877212
0.00388035
0.00467017
0.000993929
0.00435916
0.00169686
0.00920728
0.0034297
0.00683174
0.0067949
0.000387694
0.00844199
0.011384
0.00442638
0.00752432
0.00038064
0.0111458
0.00551245
0.00311605
0.0143945
0.0044635
0.00470795
0.00181174
0.0043461
0.0116261
0.000423612
0.00610637
0.00456455
0.00669958
0.0049032
0.00350549
0.00636159
0.0100324
0.0179998
0.0117915
0.00328716
8.99889e-05
0.00982857
0.000714548
0.00374874
0.010017
0.00140221
0.00701132
0.000578794
0.0136622
0.0119587
0.00270122
0.00144938
0.00910505
0.00541037
0.00447529
0.0241961
0.000395272
0.00455143
0.00176109
0.00813992
0.00182799
0.000693336
0.0028143
1.29429e-05
0.00950262
0.00166056
0.0105439
4.98832e-05
0.0154182
0.000315933
0.00387345
0.0171269
0.0046058
0.0108231
0.00253414
0.0171442
0.0172691
0.0159806
0.0155045
0.0169049
0.0109315
0.00929392
0.016997
0.00503751
0.00088075
0.0127229
0.00322033
0.0147408
0.00191055
0.00440784
0.00489378
0.00622772
0.00816752
0.00421451
0.0061218
0.00650299
0.00417317
0.00479474
0.00592807
0.00111238
0.00123772
0.000286899
0.00278885
0.00600258
0.010667
0.0154136
0.00540689
0.00791344
0.00205753
0.00425073
0.00614636
0.00757135
0.00474886
0.0101034
0.0107439
0.00195226
0.00966755
0.0137661
0.00686214
0.0091356
0.00431458
0.00697591
0.00113792
0.000608766
0.0170045
0.00124951
0.0122667
0.00146275
0.00413463
0.00916101
0.0109124
0.00608307
0.00184587
0.00880917
0.000192116
0.00148238
0.0123597
0.00944213
0.00441558
0.00462621
0.00740284
0.0033497
0.0170053
0.00281734
0.00340862
0.0148691
0.00060645
0.00628328
0.00574748
0.00864378
0.00281481
0.00393933
0.00348776
0.000709011
0.00467229
0.00895044
0.00193494
0.00798481
0.00509355
0.00397456
0.00405513
0.0029208
0.00342496
0.0085259
0.00222723
0.00754323
0.00459253
0.000572452
0.0105111
0.0105566
0.00467723
0.00307501
0.00526321
0.00562048
0.0120206
0.00450255
0.00254977
0.014847
0.000888391
0.00844404
0.00663339
0.0104352
0.00649663
0.000853236
0.00758467
0.00852039
0.00256082
0.0100213
0.013972
0.00306674
0.00501139
0.0164164
0.0067497
0.0251151
0.00470356
0.000275577
0.00315823
0.0110059
0.00135145
0.00736232
0.0224403
0.0153867
0.0139201
0.00423156
0.00864081
0.00509109
0.00458477
0.00275104
0.018806
0.00639831
0.00706204
0.010061
0.0135283
0.00856433
0.015037
0.0207844
0.0124827
0.0073732
0.00959589
0.00824258
0.0100294
0.0115238
0.0236661
0.0234992
0.0040611
0.00586817
0.0140746
0.00461687
0.00323443
0.00463683
0.0099975
0.000588607
0.00531293
0.0047324
0.00747669
0.00184689
0.00981081
0.00465434
0.00196446
0.00850772
0.0191488
0.00406391
0.00386605
0.0151162
0.0201016
0.0033957
0.00896147
0.00311201
0.0075033
0.00403786
0.0162755
0.00271289
0.0150231
0.00325939
0.013403
0.00180047
0.00282115
0.00431142
0.00346849
0.00792423
0.0209832
0.0160412
0.00863134
0.0137965
0.010482
0.00842267
0.00152311
0.00172629
0.0172692
0.0040401
0.0057505
0.00241306
0.00151087
0.00737547
0.00664275
0.0132205
0.00849789
0.0127629
0.00883978
0.0102234
0.0157755
0.00923255
0.017087
0.0180995
0.0018788
0.00305001
0.00956314
0.015529
0.000866216
0.00186913
0.00324354
0.00078283
0.0088988
0.00906345
0.00574097
0.00500329
0.00396601
0.0139091
0.00294881
0.0120355
0.000538173
0.00729752
0.0179292
0.011931
0.00816759
0.00571315
0.00756904
0.000857759
0.00630715
0.0170214
0.00935335
0.00986816
0.00888983
0.00592629
0.00891721
0.00472359
0.0052216
0.0134314
0.00459503
0.00391249
0.00257634
0.00467226
0.00878304
0.00348455
0.00244169
0.000874229
0.00429439
0.00135063
0.00663278
0.0059989
0.0129622
0.00602857
0.00910995
0.00644484
0.00496474
0.0049375
0.0107218
0.00583773
0.00308181
0.00801746
0.00824526
0.0027843
0.00125555
0.00482119
0.00261069
0.0156495
0.0025674
0.0074521
0.0131744
0.00295752
0.0035109
0.00596738
0.0191914
0.017394
0.0198394
0.0142757
0.0034003
0.0113193
0.0201914
0.0212416
0.012343
0.0094015
0.0127404
0.0101539
0.0106033
0.00513283
0.00600085
0.00218972
0.00384414
3.85411e-05
0.011129
0.0051371
0.0051718
0.00806425
0.0110633
0.0171822
0.000180677
0.00936808
0.000244599
0.00613958
0.000996672
0.00203854
0.0118575
0.00209732
0.0251965
0.0015093
0.00995701
0.000656962
0.000125348
2.16867e-05
0.00943402
0.000942075
0.00609452
0.0165886
0.0168892
0.00350076
0.0226542
0.018841
0.00115082
0.00668816
0.013585
0.0091786
0.0158078
0.0121339
0.00884787
0.0101937
0.0058967
0.0173812
0.00849779
0.0139784
0.000714177
0.00929534
0.00882016
0.0104793
0.0125673
0.00270148
0.00899167
0.00420716
0.0072829
0.0154528
0.000724102
0.00181457
0.017697
0.00978289
0.0132779
0.000789135
0.00371026
0.00104758
0.00554011
0.00257838
0.00628857
0.00530433
0.00172306
0.0131595
0.0171727
0.00967423
0.0136357
0.0107604
0.00969971
0.000308631
0.00322207
0.0183438
0.00294115
0.00980294
0.00654086
0.0093332
0.0127774
0.00082955
0.00161447
0.00669172
0.00770368
0.00426515
0.00161801
0.0130037
0.00696282
0.00501493
0.00214828
0.0184711
0.00267571
0.00441985
0.01048
0.0267438
0.0138151
0.00424814
0.011391
0.00824041
0.00868455
0.0151996
0.00681342
0.00206602
0.00795605
0.000827216
0.00570545
0.00596338
0.0205826
0.0138857
0.00479557
0.000348997
0.00556467
0.0016132
0.00161613
0.0011195
0.00555221
0.00978197
0.00277724
0.00221623
0.0105602
0.0045545
0.0166228
0.00546287
0.00708966
0.00739619
0.0116412
0.00799353
0.00777763
0.00720695
0.00957102
0.00536628
0.00520675
0.00594425
0.00923384
0.00285948
0.0170917
0.000470227
0.00282741
0.00136935
0.00341779
0.000724806
0.0162743
0.000193529
0.00298298
0.00842853
0.00855238
0.0166082
0.00696377
0.0145685
0.0217418
0.00855397
0.0170052
0.0194179
0.0088364
0.00670968
0.0229917
0.017123
0.00431477
0.022246
0.0038078
0.0100502
0.0140654
0.00110795
0.0218964
0.0160299
0.00686731
0.0139741
0.00482059
0.00739969
0.0127553
0.0132905
0.0175775
0.0134223
0.0203421
0.0134655
0.0180256
0.00369048
0.00563273
0.0186814
0.0057965
0.00454884
0.00287942
0.000747011
0.0078215
0.00658074
0.00266311
0.000472222
0.0120992
0.0172547
0.0140678
0.0177663
0.0147062
0.0149821
0.0095507
0.0199125
0.0135305
0.0121753
0.00502162
0.00481921
0.00136624
0.008569
0.0076022
0.0148783
0.0150432
0.00705919
0.00820168
0.0234398
0.00269219
0.0123748
0.0128963
0.0203226
0.00169504
0.0224105
0.0192083
0.0165075
0.014646
0.0188576
0.00815164
0.0148531
0.00242629
0.00484647
0.00705331
0.0132872
0.00214294
0.00119684
0.00253076
0.00495108
0.0205233
0.0122569
0.00623778
0.00272402
0.0129186
0.0134679
0.0209002
0.0207227
0.01143
0.00122776
0.0115679
0.0161572
0.00702941
0.0115857
0.0118544
0.0018207
0.0157355
3.5542e-05
0.00571357
0.00276301
0.00163742
0.00286308
0.00619953
0.0071936
0.020993
0.0081638
0.000162188
0.0133724
0.00522424
0.0085554
0.00738943
0.00864734
4.34056e-05
0.0154911
0.00587213
0.00299622
0.00628189
0.000480089
0.00473844
0.00793503
0.00135354
0.00731715
0.0147204
0.00361738
0.00419246
0.00627062
0.0138007
0.00103511
0.00511045
0.00102198
0.00296807
0.00480887
0.0157381
0.00788805
0.00457759
0.00623515
0.00269651
0.00864097
0.0158709
0.0067554
0.00766685
0.00869966
0.00895995
0.00410321
0.00716029
0.000209947
0.00660603
0.00508612
0.00289387
0.00552595
0.00320642
0.0055815
0.00142989
0.00465631
0.0112741
0.0027738
0.00299709
0.00439157
0.00695122
0.00803393
0.00572846
0.00890861
0.00450506
0.0183137
0.016916
0.0190636
0.0138709
0.0093405
0.0265767
0.0201982
0.0116887
0.0204061
0.00761452
0.0134843
0.0233971
0.00394442
0.00296618
0.00184561
0.00516656
0.00853356
0.00303739
0.0103145
0.000385145
0.0257815
0.00082289
0.00547471
0.0023132
0.00251987
0.00463717
0.00325244
0.011123
0.000736724
0.00389659
0.000523432
0.00081653
0.000447249
0.00239825
0.00726865
0.00892552
0.0033882
0.018547
0.00179775
0.0042692
0.0228318
0.0152242
0.0133259
0.0217255
0.00390375
0.00623575
0.00870681
0.01347
0.00936489
0.00938203
0.00863315
0.0106769
0.00571512
0.0100622
0.00981746
0.000885374
0.0171048
0.00896537
0.0162353
0.0139929
0.0162847
0.023798
0.0210753
0.0154738
0.017063
0.00271175
0.0127792
0.0173994
0.0107685
0.00488429
0.00530771
0.0022808
0.0156253
0.00860657
0.00864073
0.00734809
0.0110413
0.0128244
0.0109409
0.00564316
0.0114765
0.0114511
0.00677137
0.00264968
0.00687366
0.008481
0.0185405
0.00935852
0.00609173
0.00332675
0.00451911
0.00703119
0.000849598
0.00735363
0.00694569
0.0173072
0.00665409
0.00177834
0.00660721
0.00381201
0.00802522
0.00342922
0.00198574
0.0140884
0.00443493
0.00940401
0.00402897
0.000336052
0.00984232
0.00475218
0.00794152
0.00758172
0.000711209
0.00341543
0.000848857
0.0102862
0.0106454
0.00651076
0.00367904
0.00812222
0.0104119
0.0128938
0.00564919
0.00345859
0.000335959
0.00507944
0.00616019
0.00301485
0.0105016
0.00733227
0.00454372
0.00311049
0.00143216
0.000489749
0.0114475
0.00424465
0.00898198
0.00582533
0.0063741
0.00178149
0.0144286
0.00308094
0.00217168
0.0150824
0.0111982
0.00120292
0.0072813
0.00413053
0.00544403
0.00306854
0.000990812
0.0105856
0.00418163
0.000838601
0.00310336
0.0170845
0.00168607
0.0181359
0.0182632
0.012381
0.0220937
0.0124507
0.0207671
0.0138698
0.00655799
0.00740577
0.0127766
0.0153355
0.00681472
0.00734915
0.00556023
0.00872433
0.00123572
0.00173932
0.00162884
0.00232323
0.0141856
0.00161704
0.0125671
0.000903913
0.0100918
0.00263271
0.020882
0.00179223
0.000925877
0.0116559
0.00085698
0.000529188
0.0019828
0.0138141
0.00273106
0.0151448
0.00205076
0.00103848
0.00407681
0.0167061
0.0089997
0.000158698
0.0122491
0.0106161
0.00910532
0.0161172
0.00545176
0.00443403
0.0198985
0.014825
0.0149491
0.00824482
0.00762214
0.00235439
0.0122776
0.00385628
0.00827218
0.00938355
0.00385837
0.00945604
0.0261095
0.0118078
0.00712985
0.0156386
0.0170908
0.00169564
0.0123073
0.00944501
0.00712567
0.00196272
0.0130369
0.00406489
0.0104833
0.00683706
0.00570158
0.0110035
0.00518476
0.000443843
0.00300859
0.00421406
0.0117417
0.00922938
0.0122308
0.0132692
0.00942876
0.0187376
0.00584671
0.00687076
0.0142422
0.000410313
0.010516
0.0169825
0.00733521
0.00403601
0.001944
0.00287997
0.00434963
0.00395008
0.00409055
0.00638894
0.000237395
0.00846806
0.0131748
0.00262898
0.00189405
0.0209966
0.00623989
0.0118443
0.00758531
0.00397566
0.00681865
0.0142222
0.00101007
0.00348309
0.000570364
0.00796859
0.0110834
0.00463682
0.0106536
0.00608188
0.0126559
0.0129247
0.0108004
0.00392835
0.0128882
0.00813963
0.00274197
0.00743428
0.00652456
0.00348863
0.00259913
0.00888606
0.00370496
0.00010675
0.00139101
0.00349614
0.00406129
0.012121
0.010219
0.0159356
0.00266375
0.0171776
0.00327868
0.00926885
0.00231356
0.00755298
0.00435291
0.0033987
0.00183331
0.00203967
0.00460089
0.0010692
0.00382184
0.000320115
0.00230183
0.00221138
0.00742794
0.00965829
0.00487113
0.0211354
0.00712312
0.00315323
0.000303403
0.0175394
0.0209529
0.011953
0.00610884
0.0155699
0.00595357
0.00863157
0.0153712
0.0021107
0.00102298
0.000645605
0.0105159
5.44449e-05
0.00737176
0.00454304
0.00247865
0.0142494
0.00921032
0.0148817
0.0234417
0.00921599
0.0060363
0.00508924
0.012376
0.0139118
0.0208083
0.0110443
0.0184032
0.00359415
0.00734527
0.000847841
0.0102837
0.00678811
0.00132199
0.00863286
0.00628954
0.00817249
0.0111484
0.00686172
0.00652673
0.00685207
0.00813864
0.0238201
0.016541
0.0080317
0.00899775
0.0031492
0.00282799
0.0117497
0.00616271
0.0015286
0.00289377
0.00154225
0.00353823
0.00239716
0.0118811
0.00829932
0.00531805
0.00125879
0.00204837
0.0187769
0.0234385
0.0130801
0.00949146
0.0099812
0.0187576
0.00581012
0.00374483
0.0106335
0.000838197
0.0048517
0.00849554
0.00382445
0.0039066
0.00131393
0.00751059
0.00149183
0.0161041
0.0117509
0.00712615
0.00389161
0.0190379
0.0175109
0.0175388
0.00452566
0.0202763
0.0090887
0.0125822
0.0233164
0.00895221
0.0160223
0.00655033
0.000553915
0.0010701
0.00344358
0.000717973
0.0107041
0.00798741
0.00438301
0.00534907
0.0260238
0.0179304
0.0068023
0.0170178
0.000116215
0.00906392
0.00257646
3.49951e-05
0.00484744
0.00397544
0.0132611
0.0032866
0.00752428
0.00550157
0.00170795
0.00566351
0.0110023
0.0158997
0.00834216
0.00150567
0.00168264
0.0012604
0.0191693
0.00502636
0.00598069
0.00374901
0.00941223
0.0078047
0.0113247
0.00904457
0.0155195
0.0037114
0.00941492
0.0010824
0.00597992
7.46222e-05
0.00318945
0.0028529
0.0110916
0.00770487
0.00186905
0.000618247
0.00197338
0.0112316
0.00143
0.0140983
0.0025317
0.0017119
0.00831905
0.00951371
0.0054498
0.00215441
0.00214734
0.00350353
0.00335725
0.00719009
0.00439007
0.00880931
0.00503653
0.00379423
0.0091568
0.00121994
0.014418
0.0165532
0.0101408
0.0066546
0.0151236
0.0133228
0.0185012
0.014615
0.000197146
0.0137529
0.00560182
0.00487763
0.00367856
0.00435654
0.0022607
0.00595997
0.000735073
0.00308949
0.00256043
0.0138948
0.00209488
0.00972798
0.000446951
0.000552631
0.00117041
0.00319149
0.00617545
0.00132426
0.0151371
0.00199891
0.00344908
0.00170186
0.00362446
0.0133283
0.00878177
0.00456637
0.0112134
0.00472985
0.0141301
0.00935504
0.0129906
0.00843848
0.00135947
0.0142403
0.00239432
0.00836932
0.00691215
0.0118715
0.00774134
0.00549035
0.00471269
0.00136872
6.99147e-05
0.00570084
0.00618189
0.0128645
0.00542729
0.00581021
0.010882
0.00729164
6.55634e-05
0.00862981
0.0152541
0.00888524
0.0102889
0.0124403
0.00573714
0.00203276
0.00303509
0.00925621
0.00390107
0.0155972
0.0114633
0.00921331
0.0015547
0.00727339
0.00581453
0.00758188
0.010247
0.0111322
0.00646442
0.00981116
0.000856619
0.00632845
0.000559943
0.00816888
0.00773018
0.00250508
0.00146142
0.0104087
0.00411812
0.000647218
0.00748385
0.00960474
0.00239289
0.00698351
0.0142751
0.00674062
0.0105058
0.0152882
0.00863425
0.00220088
0.00163464
0.0144179
0.00111692
0.00295096
0.000638752
0.00909163
0.00235191
0.00647152
0.00369339
0.000391056
0.00816248
0.000305914
0.00603654
0.00301227
0.000375883
0.0093548
0.00199559
0.00309636
0.0116315
0.0104606
0.00368532
0.00374575
0.00246745
0.00938135
0.0102126
0.00505782
0.00423065
0.000254519
0.00529976
0.00839554
0.00835162
0.00155246
0.000250302
0.00338704
0.00677079
0.000537887
0.00386552
0.0134132
0.00381631
0.00593838
0.00865844
0.00656972
0.00881109
0.000479286
0.00480615
0.00846016
0.00258252
0.0168143
0.00038113
0.00816764
0.00198016
0.00712001
0.00725331
5.42045e-05
0.0082419
0.01487
0.00488489
0.0137054
0.00810667
0.00868522
2.05699e-05
0.0105545
0.00774774
0.00959399
0.0058121
0.00058206
0.00393556
0.00102721
0.0147418
0.0164945
0.00712927
0.00857033
0.00991716
0.00555601
0.00302379
0.018833
0.0131011
0.00801186
0.0183374
0.0174292
0.000735449
0.00305573
0.0120855
0.0098747
0.00342463
0.000242396
0.0075039
0.00259507
0.00230711
0.00209992
0.0105774
0.0190349
0.00177165
0.0042189
0.00941762
0.00847087
0.00208427
0.0170393
0.020194
0.0187341
0.00060338
0.0137386
0.00356563
0.0211967
0.0067676
0.0131415
0.00058913
0.00358395
0.00641232
0.00302543
0.00352468
0.0059053
0.00354256
0.000394664
0.00975685
0.0103297
0.0146595
0.00906237
0.0141296
0.00140284
0.0018234
0.0126412
0.00317056
0.00707024
0.00297115
0.00565002
0.00845845
0.0136805
0.0112486
0.00775042
0.00422455
0.00896313
0.00120876
0.00259537
0.0178154
0.0039182
0.00840287
0.0196241
0.00690157
0.00853812
0.00174856
0.0100956
0.00860405
0.00151518
0.0121041
0.0038908
0.0054392
0.000891936
0.000815074
0.00431132
0.00096522
8.88522e-05
0.000753018
0.000586949
0.00254928
0.0207863
0.00976032
0.00221818
0.00452612
0.00878486
0.0179915
0.00118899
0.00237483
0.0138746
0.00135803
0.000324086
0.00169086
0.00440039
0.0010131
0.0128399
0.0141038
0.0104478
0.00608099
0.0110112
0.00385024
0.00517412
0.00922531
0.0046075
0.000693898
0.00818685
0.00955692
0.003679
0.00136322
0.00388297
0.00202617
0.00275595
0.00258243
0.015027
0.00754679
0.00385623
0.0127708
0.00956813
0.00210792
6.96469e-05
0.0035732
0.00222532
0.00985466
0.0114516
0.00724118
0.00754695
0.00131428
0.00434425
0.00201167
0.0127483
0.0125289
0.00086407
0.00371423
0.013007
0.00102854
0.0165191
0.0119741
0.00489919
0.00486313
0.00365802
0.0117172
0.00119852
0.0120586
0.0159369
0.0108601
0.0114845
0.0106406
0.00700853
0.0039468
0.0016312
0.0112098
0.00251936
0.00648072
0.00419027
0.0044349
0.0126861
0.00327565
0.00508589
0.00356164
0.00491685
0.00815885
0.00867946
0.00207817
0.00545981
0.000968481
0.0102322
0.00109657
0.000260772
0.000264546
7.63032e-05
0.000416332
0.00187997
0.0025088
0.00169471
0.00218479
0.000240078
0.0126188
0.00501033
0.00206085
0.00106722
0.0104464
0.00645699
0.00747149
0.0155772
0.00836074
0.00705976
0.0133038
0.00826981
0.00739363
0.00569578
0.00403118
0.0109151
0.00515151
0.00168413
0.0017851
0.00336849
0.0143122
0.0015136
0.00520653
0.0125566
0.000920632
0.000848685
1.67135e-05
0.00513419
9.51439e-05
0.0113415
0.00153197
0.00357146
0.00126818
0.0127842
0.000699916
0.00419614
0.00782644
0.00354871
0.00527959
0.00800989
0.00707832
0.00379751
0.00125909
0.00415831
0.00420073
0.00680047
0.000197009
0.00177585
0.00352945
0.0134953
0.00510126
0.00658022
0.0226858
0.00867678
0.00611458
0.00180692
0.0100909
0.00177273
0.00766885
0.0118832
0.0146697
0.00301261
0.00632107
0.00481519
0.00671118
0.00188311
0.00595796
0.00462812
0.00958782
0.00224375
0.000750858
0.00387211
0.00505901
0.00865852
0.0079416
0.00416678
0.00267647
0.00551907
0.00758672
0.0153324
0.00935486
0.0121912
0.00745894
0.000232356
0.0121884
0.000818568
0.00271071
0.00211096
0.0132072
0.0048843
0.00377617
0.00417172
0.00184058
0.00432521
0.00152936
0.00557471
0.00399625
0.010251
0.0148277
0.00758657
0.0118571
0.00532346
0.00308933
0.00321156
0.00745279
0.0120748
0.00632257
0.0132912
0.00348485
0.00392509
0.0129469
0.0137184
0.011028
0.00764104
0.00150037
0.0008348
4.93552e-05
0.00321888
0.0110096
0.00222316
0.0172289
0.0111111
0.010387
0.00675812
0.0030731
0.00318946
0.0033913
0.00201171
0.010628
0.0114261
0.00214147
0.000647199
0.00541607
0.00588716
0.00459197
0.00637386
0.00912835
0.00489786
0.00317615
0.0112735
0.0109249
0.00376534
0.0151207
0.00495179
0.00433179
0.00931663
0.00654992
0.00260211
0.00229053
0.00861819
0.00371659
0.00981922
0.00634852
0.00343903
0.0091456
0.00150169
0.00412696
0.0110794
0.00779708
0.00730382
0.0126885
0.0125321
0.000830703
0.00247156
0.00701821
0.00612681
0.00228732
0.00831089
0.0025244
0.00204407
0.00197741
0.00165642
0.011766
0.00088903
0.00243726
0.00536774
0.00167305
0.00795564
0.000813987
0.0060303
0.00811098
0.00742374
0.00606601
0.0157536
0.00558225
0.000815674
0.00811624
0.014799
0.0052463
0.000159172
0.00293246
0.000500232
0.0182092
0.000876982
0.0193206
0.00682357
0.00128073
0.00599775
0.00162968
0.0162716
0.0145749
0.0154583
0.00442365
0.00478657
0.00646186
0.00462795
0.00727962
0.00630977
0.000424695
0.00271975
0.000185903
0.00140456
0.000484082
0.00466726
0.00976118
0.00279357
0.0174534
0.00590117
0.0077582
0.0104227
0.00309188
0.00284943
0.00864129
0.00746838
0.00369793
0.00679593
0.00585409
0.00743013
0.00899074
0.00340481
0.0176021
0.00407342
0.00857862
0.00864971
0.0108466
0.000686401
0.00148673
0.0139809
0.00188187
0.00102191
0.00638699
0.00676027
0.00617453
0.00488198
0.00282391
0.00379694
0.0061458
0.00136406
0.000942254
0.0128303
0.00322592
0.0050749
0.00383453
0.000731831
0.00666158
0.000877822
0.00374054
0.0185769
0.00712639
0.00363649
0.0119549
0.00523199
0.00123836
0.0035246
0.00828439
0.00639939
0.00129403
0.00167719
0.0169457
0.0132073
0.0154006
0.00450411
0.00854288
0.00450728
0.006373
0.0031814
0.00660271
0.000977522
0.00838705
0.000500787
0.00566115
0.0174132
0.00625621
0.00609003
0.0105454
0.00119062
0.00433617
0.0119437
0.00176101
0.000732441
0.0102122
0.000373083
0.00251572
0.00560238
0.0100195
0.00086723
0.0131623
0.00124053
0.0257526
0.0176794
0.0210917
0.0119632
0.00705135
0.00695633
4.89697e-05
0.0132225
0.000715887
0.00251654
0.00215753
0.00216937
0.000256518
0.000684866
0.00373936
0.0033136
0.00872743
0.000387534
0.00851322
0.00162639
0.0144003
0.00230198
0.0208033
0.0110398
0.00968056
0.00639405
0.00377267
0.00042065
0.00157051
0.0074128
0.00277859
0.000662295
0.00170868
0.006867
0.00594628
0.01201
0.00463694
0.00253239
0.00483476
0.00745967
0.0173523
0.0189956
0.00565337
0.00298156
0.00632231
0.00832253
0.000809112
0.00260528
0.00364477
0.0114364
0.00180867
0.00912918
0.00329222
0.00172652
0.00304782
0.00490003
0.00504276
0.018483
0.00300077
0.00288389
0.00678288
0.0094312
0.0154551
0.0133443
0.00553695
0.00079003
0.00368526
0.00284249
0.00122798
0.0107659
0.00814352
0.00342987
0.00664567
0.00523468
0.00447286
0.00541699
0.00380559
0.00580845
0.00463006
0.00360267
0.0135973
0.00113927
0.0136566
0.000845648
0.00971913
0.0119109
0.0114093
0.00933704
0.00598448
0.000361673
0.00264444
0.0045358
0.00266749
0.0100233
0.00497301
0.00740699
0.00461411
0.000154046
0.0087468
0.00873196
0.00859112
0.000777565
0.00613124
2.60185e-05
0.00637155
0.00928962
0.000383318
0.00103141
0.000432868
0.00354922
0.0115843
0.00715203
0.000768183
0.00300393
0.00776067
0.00414686
0.00111634
0.00277094
0.0017126
0.00405712
0.002349
0.00154169
0.0171273
0.00699101
0.0018444
0.00496507
0.00918353
0.00106073
0.00582596
0.00657618
0.000393532
0.00896326