/*--------------------------------*- C++ -*----------------------------------*\
| =========                 |                                                 |
| \\      /  F ield         | OpenFOAM: The Open Source CFD Toolbox           |
|  \\    /   O peration     | Version:  2212                                  |
|   \\  /    A nd           | Website:  www.openfoam.com                      |
|    \\/     M anipulation  |                                                 |
\*---------------------------------------------------------------------------*/
FoamFile
{
    version     2.0;
    format      ascii;
    arch        "LSB;label=32;scalar=64";
    class       volScalarField;
    location    "0";
    object      relativeErrorField;
}
// * * * * * * * * * * * * * * * * * * * * * * * * * * * * * * * * * * * * * //

dimensions      [0 0 0 1 0 0 0];

internalField   nonuniform List<scalar> 
3200
(
0.0175928
0.0146522
0.0194949
0.0118287
0.0155375
0.0191535
0.0149653
0.0264744
0.0320651
0.0213664
0.0202644
0.0244535
0.0242163
0.0200405
0.0180547
0.0227571
0.0229773
0.0183525
0.01302
0.00891045
0.017263
0.011962
0.0161011
0.0232556
0.00942102
0.00951386
0.0213883
0.0180399
0.0192648
0.0168739
0.0202297
0.0175158
0.0227853
0.0132323
0.0188498
0.0146499
0.0156213
0.0131381
0.0119027
0.0202747
0.0162011
0.00355943
0.0116106
0.0118936
0.015791
0.021194
0.0144491
0.0173329
0.0144279
0.0191547
0.0191159
0.0217373
0.0246162
0.0216084
0.0140924
0.0163594
0.00996326
0.0160875
0.0102809
0.0142001
0.00406156
0.00189348
0.0122345
0.00469877
0.0071798
0.00975893
0.0128346
0.00803474
0.0101928
0.0115739
0.0204061
0.0188493
0.00884332
0.010479
0.00786186
0.0103884
0.00396534
0.011266
0.00485108
0.00675122
0.00197665
0.011116
0.00748962
0.0139588
0.00980621
0.00636564
0.0054628
0.0120832
0.00543198
0.0069321
0.00895487
0.00953807
0.00978699
0.00821108
0.00941702
0.0026456
0.00402242
0.00212162
0.00581011
0.00596649
0.0118129
0.00789531
0.0127975
0.0164609
0.00431362
0.0163288
0.0126162
0.00481431
0.0111835
0.0142667
0.00300068
0.0138182
0.00900082
0.0114973
0.00693059
0.00497618
0.00820371
0.00204327
0.00485496
0.00024126
0.00797047
0.00194174
0.012011
0.00465478
0.00301531
0.00709105
0.0078024
0.000462775
0.00417264
0.00363927
0.000151485
0.000881624
0.00478076
0.00680836
0.00124119
0.0153799
0.0059532
0.00217926
6.97614e-05
0.00123095
0.0121097
0.00171388
0.0046683
0.00440564
0.0033744
0.00797474
0.00068398
0.00365493
0.00164259
0.00104996
0.00151295
0.00616648
0.00131901
0.00292829
0.00416459
0.00183323
0.00523367
0.0121729
0.000379957
0.00641145
0.0155952
0.0152952
0.01441
0.0158379
0.00884968
0.0156898
0.0208955
0.0224197
0.0261585
0.0257312
0.0212755
0.0277568
0.02063
0.0204439
0.0144651
0.015099
0.019638
0.016729
0.0157738
0.00945331
0.00456508
0.00698346
0.0200302
0.00420161
0.0200901
0.000322317
0.015812
0.00208975
0.0177445
0.00192388
0.000402006
0.0202855
0.00395189
0.0164809
0.000932466
0.0101498
0.000503928
0.00694839
0.000378681
0.0101866
0.00738993
0.00711364
0.0137946
0.010733
0.0014033
0.0217352
0.0156211
0.00416093
0.0150344
0.0149573
0.0176238
0.0197244
0.0231084
0.0165138
0.0181573
0.0128114
0.016916
0.00950719
0.00998314
0.0120868
0.0145276
0.012421
0.00607344
0.00315051
0.00178303
0.00897216
0.010925
0.0179488
0.0111878
0.0056584
0.0123853
0.00572562
0.0127304
0.0171786
0.0120547
0.00697769
0.011102
0.00791329
0.011261
0.00654671
0.00222846
0.014427
0.00226537
0.0035579
0.00779252
0.00784694
0.000985224
0.00230631
0.00686544
0.00705656
0.00722235
0.0118448
0.00250854
0.0118342
0.00997632
0.000693853
0.00881384
0.00889866
0.0156618
0.00211714
0.00764307
0.00322863
0.00971311
0.0140124
0.00159383
0.000568365
0.00161601
0.00578713
0.0119283
0.0119962
0.000732155
0.00610588
0.00769051
0.00207591
0.00248342
0.00313232
0.00947587
0.00255261
0.00697098
0.00735815
0.00542016
0.00415105
0.00420405
0.003274
0.00337573
0.00203521
0.0031674
0.00370914
0.00186426
0.0161267
0.000749282
0.00206252
0.00857553
0.00290868
0.00990277
0.00383888
0.00160851
0.00447538
0.000605449
0.009789
0.00854871
0.000879544
0.000511378
0.0020144
0.000728299
0.000472497
0.00438824
0.00245651
0.0107861
0.00192006
0.00101002
0.00404031
0.0029156
0.00178665
5.12656e-05
0.00827626
0.00303687
0.00219804
0.00366053
0.00411633
0.0119315
0.0148292
0.00671863
0.0172544
0.0102678
0.0128294
0.0188946
0.0135273
0.0180867
0.0213014
0.0090085
0.0127803
0.0201868
0.0205648
0.0105605
0.00996743
0.00810298
0.0197351
0.00975159
0.00307946
0.0104712
0.0136064
0.0126973
0.0121369
0.0188094
0.0157468
0.00989479
0.0117052
0.022487
0.0196903
0.00542644
0.0158448
0.0198836
0.0105046
0.0111479
0.019218
0.0147392
0.0112328
0.00705219
4.47193e-05
0.00756692
0.00574443
0.00988286
0.015005
0.0167087
0.014827
0.0103241
0.0158289
0.0137635
0.0076329
0.00600342
0.0135848
0.0133403
0.0184729
0.00985332
0.00715535
0.000997327
0.0150328
0.0127841
0.00790438
0.0106792
0.00806264
0.0126209
0.0159096
0.00250896
0.0114299
0.002192
0.0064755
0.0109683
0.00719024
0.0132922
0.0047782
0.0140074
0.0132248
0.00388555
0.0121705
0.00587891
0.00727955
0.00104973
0.00819953
0.0100255
0.00292075
0.0138466
0.00594594
0.00366926
0.00899721
0.00506816
0.00264995
0.000950615
0.00857933
0.00962928
0.0114853
0.0107329
0.00254539
0.0083585
0.0116318
0.00724633
0.00683132
0.0130452
0.00305265
0.00654566
0.00211851
0.00898204
0.00355827
0.00420918
0.00212591
0.00556864
0.00409508
0.00238249
0.00678917
0.00305318
0.00967243
0.0124422
0.00801543
0.00920786
0.00769739
0.0111477
0.0110749
0.00642497
0.00353617
0.00224004
0.00478793
0.00249639
0.00951377
0.000320484
0.0074046
0.00452563
0.00676539
0.000914008
0.0159954
0.00138361
0.00352056
0.00329362
0.00477945
0.00186895
0.00620988
0.00767717
0.0010633
0.00212879
0.00382089
0.000743841
0.00176952
0.00338998
0.00626618
0.00628893
0.00133841
0.00603122
0.0059983
0.00142394
0.00324932
0.00686211
0.0031634
0.00641535
0.00129769
0.00227933
0.00128674
0.00181655
0.0106893
0.00299565
0.000480728
0.0121306
0.0122314
0.000147314
0.0127105
0.00874623
0.0206931
0.0130638
0.0188687
0.00787392
0.013986
0.0190756
0.0165035
0.0105333
0.0155487
0.0202039
0.00956821
0.00930665
0.0155009
0.00883151
0.0100582
0.0106531
0.00547461
0.00835326
0.0107265
0.0104746
0.0023539
0.0125916
0.000116738
0.0195184
0.00133442
0.00202632
0.0151489
0.00340893
0.0139764
0.000203935
0.0106128
0.000461004
0.00534462
0.0014778
0.0149555
0.00973221
0.00337641
0.0135566
0.0105025
0.00400691
0.00535176
0.0113771
0.0149651
0.0152359
0.00527238
0.0108806
0.0126554
0.00970613
0.0119247
0.00876794
0.0169106
0.00846174
0.00368214
0.0157627
0.00466928
0.0056296
0.00192122
0.00105352
0.0041093
0.00542086
0.00170292
0.00496514
0.0187481
0.0142203
0.00743248
0.0034993
0.0108346
0.00955215
0.00352975
0.00908384
0.00233689
0.00819359
0.00815874
0.0172567
0.00721569
0.0077528
0.00827497
0.00659972
0.00320799
0.00791336
0.00681731
0.00578589
0.00503005
0.0063927
0.0166179
0.00423273
0.0148747
0.00763608
0.00933733
0.00795993
0.00391595
0.00188518
0.00371531
0.00606529
0.00580397
0.0169077
0.00471083
0.00127628
0.00256546
0.0122937
0.00523827
0.00472108
0.00569932
0.00457366
0.00490167
0.00206123
0.00623706
0.00113501
6.60775e-05
0.00683192
0.00887695
0.0115716
0.00359895
0.00852956
0.00913148
0.00212524
0.00144436
0.00278254
0.00784855
0.00806877
0.00399862
0.00488937
0.00229686
0.00197377
0.00335549
0.00143245
0.0166672
0.005556
0.000771805
0.00206488
0.00143251
0.00486115
0.010493
0.0053493
0.00469869
0.00547044
0.00112545
0.0105508
0.00513862
0.000933495
0.00269494
3.47863e-05
0.00292156
0.00699816
0.00396547
0.00303674
0.00468565
0.000856526
0.00472126
0.000530504
0.00952913
0.0046945
0.00163528
0.000723688
0.000841883
0.00113379
0.0168031
0.00975442
0.00128322
0.00779534
0.0101339
0.00948435
0.0227473
0.013374
0.0133505
0.00900628
0.00358162
0.00938993
0.00999431
0.00273475
0.0072555
0.0134429
0.00716747
0.0122063
0.0083529
0.00566751
0.00662577
0.00977533
0.0118065
0.00467703
0.00516773
0.00383244
0.00695415
0.0137731
0.0074341
0.0134657
0.00833088
0.0167074
0.00840994
0.00530407
0.00984705
0.00174726
0.00540064
0.00844797
0.00451831
0.0015838
0.00863244
0.00575045
0.00428382
0.0169199
0.00957856
0.000639775
0.010244
0.0159642
0.000491344
0.00146242
0.00277434
0.00430021
0.00885755
0.00475977
0.0115349
0.00762555
0.00678411
0.00467061
0.00310805
0.00426868
0.00606641
0.0017157
0.00498312
0.0140369
0.00518698
0.00105085
0.00706841
0.00152857
0.00121606
0.00997303
0.0024486
0.00598981
0.00574476
0.00566328
0.0178138
0.00680947
0.00499519
0.00201829
0.0125274
0.00298352
0.0019443
0.000831412
0.00335884
0.00265715
0.00115552
0.00488166
0.0160163
0.00377623
0.00402293
0.000517868
0.00328803
0.00652824
0.00734312
0.00268769
0.00960651
0.000185387
0.000998209
0.00710576
0.00790595
0.00106697
0.0039621
0.00194547
0.00561084
0.0113689
0.0133582
0.00571219
0.0115284
0.00267602
0.00340663
0.00116443
0.001545
0.00161169
0.0043738
0.00814381
0.00477501
0.00937818
0.000555958
0.000351204
0.00845096
0.0101381
0.00699531
0.00264537
0.000709313
0.00248933
0.00592505
0.00429457
0.00659411
0.00303712
0.00151238
0.00525466
0.00375189
0.00630753
0.00736656
0.00622075
0.00241965
0.00661965
0.0114809
0.00711275
0.00601015
0.000461132
0.00108681
0.00873162
0.000691887
0.00220184
0.000815233
0.00333301
0.000158944
0.000567269
0.00742625
0.00142096
0.00298203
0.00959703
0.00876916
0.00395703
0.0038238
0.000591521
0.00256898
0.00053535
0.00114245
0.00561073
0.00148827
0.00480747
0.0126523
0.00695594
0.000717954
0.00437793
0.00955697
0.0125943
0.0103515
0.0028945
0.013075
0.00792144
0.00378771
0.0018839
0.00328275
0.00153711
0.00014747
0.00124849
0.00111731
0.00553432
0.00625251
0.00157671
0.0048596
0.000228145
0.00097102
0.00510167
0.000397681
0.00857452
0.00105244
0.000679398
0.00624779
0.00280317
0.00902064
0.00177753
0.000568557
0.000162331
0.00777858
0.00151401
0.00382334
0.00941989
0.0056967
0.00411362
0.00513824
0.00636762
0.000957438
4.2669e-05
0.00389377
0.00667575
0.00782657
0.00717066
0.00814416
0.00259801
0.00610732
0.00369621
0.00646549
0.00346049
0.00519942
0.000507332
0.00361639
0.00535279
0.000894555
0.0043624
0.00194009
0.00100226
0.00650326
0.000419932
0.00241317
0.00429243
0.00501565
0.00298305
0.00653035
0.00747996
0.00762854
0.00235171
0.00742014
0.00139226
0.000514312
0.00269499
0.000385382
0.00425632
0.000156897
2.11789e-05
0.00325893
0.00776342
0.00306776
0.00528022
0.00305552
0.00994364
0.00775589
0.00122414
0.00486034
0.00449602
0.00764783
0.00136091
0.004749
0.00710227
0.00236491
0.000215041
0.00233332
0.00765498
2.00418e-05
0.00186412
0.000621228
0.00130391
0.000972483
0.00690307
0.0050661
0.00414857
0.00511015
0.00404637
0.00101408
0.00469438
0.00697474
0.000874902
0.00510759
0.00288183
0.00538834
0.0107028
0.00115559
0.0114741
0.00434609
0.0013514
0.00300212
0.00406359
0.00480322
0.00799021
0.00787035
0.00670845
0.00754289
0.00173347
0.00138948
0.00204283
0.0120876
0.00235219
0.00221208
0.000528277
0.00393064
0.00390342
0.00176279
0.0104487
0.00176304
0.00346961
0.00242172
0.002614
0.00947082
0.000467097
0.000205463
0.00208482
0.00901906
0.010439
0.00282572
0.0031336
0.00261111
0.000304202
0.000215979
0.00477502
0.000507864
0.00297138
0.0122012
0.0014736
0.000944279
0.000769995
0.000353394
0.008174
0.00330808
0.00107889
0.00833944
0.00594479
0.000556239
0.0081571
0.0023948
0.000585797
0.00574929
0.0123157
0.0064961
0.00998286
0.00517075
0.00377777
0.00795152
0.00377527
0.00375939
0.00541862
0.00231642
0.0034745
0.00331226
0.00161047
0.0066381
0.000134439
0.00391089
0.00790255
0.00385598
0.00407198
0.00417486
0.000615568
0.00908361
0.00483802
0.00534591
0.00178564
0.00888039
0.00151135
0.000798291
0.00753729
0.00248499
0.00840482
0.00169795
0.000691892
0.0021214
0.00585212
0.000204011
0.0109389
0.00166955
0.00457659
0.00750264
0.00454358
0.00185403
0.00422021
0.00959808
0.00509037
0.00155843
0.00660849
0.00421085
4.74449e-05
0.00931712
0.000390973
0.00189319
0.00191965
0.00441816
0.00199064
0.00468539
0.00661891
0.00195183
0.00722336
0.00194279
0.00165484
0.000228483
0.0028844
0.00424768
0.00447548
0.00366751
0.00139118
0.00168769
0.0025728
0.000247036
0.00343317
0.00117637
0.00479089
0.0048003
0.00796173
0.00166394
0.00443525
0.00686718
0.00409391
0.0078535
0.00608099
0.00328857
0.000582639
0.00663062
0.00342003
0.00156394
0.00529088
0.00633413
0.00566467
0.00335673
0.00152749
0.00475627
0.00068084
0.000914953
0.00263906
0.000975931
0.001565
0.00591065
0.00139917
0.00196557
0.000880007
0.00693774
0.00483064
0.0054824
0.00386032
0.00572744
0.00434106
0.00630206
0.00193865
0.00475767
0.00491374
0.000171621
0.00307973
0.00209625
0.00629517
0.00235443
0.012141
0.00121177
0.000673379
0.00239762
0.000853376
0.00328678
0.00682845
0.0118245
0.00192034
0.00730195
0.00484466
0.00761197
0.00428494
0.00669759
0.00213365
0.0023326
0.00493253
0.00428957
0.00272968
0.00343634
0.0079267
0.000403335
0.0010465
0.00438629
0.00155636
0.00313846
0.0147296
0.00673255
0.00346552
0.00404429
0.000860389
0.0033135
0.00390388
0.00126454
0.00883955
0.00310769
0.00270226
0.00674058
0.00243963
0.00225073
0.00591332
0.00123393
0.00124665
0.00406898
0.00826145
0.00703538
0.00267262
0.00747364
0.00569566
0.0046048
0.00100645
0.00391266
0.00174228
0.000791451
0.0067988
0.000407405
0.000632509
0.000962968
0.00408
0.000579416
0.0034232
0.00809436
8.17517e-05
0.00958079
0.00127845
0.00930604
1.398e-05
0.000917159
0.00244697
0.000307794
0.000364531
0.00397595
0.0102428
0.00592663
0.00137027
0.00291674
0.000851739
0.00278841
0.00226829
0.000340457
0.00330188
0.000427594
0.00470771
0.00518148
0.0121127
0.00482509
0.00742639
0.00402918
0.00835592
0.000887746
0.00276698
0.00406554
0.000116323
0.00316675
0.00227662
0.00493901
0.000228928
0.00146099
0.00907917
0.000524558
0.00288872
0.00249756
0.000497959
0.0030314
0.00372203
0.00311559
0.000284471
0.0117134
0.0058518
0.0095859
0.00390312
0.00398206
0.00773239
0.000653833
0.00432866
0.00153873
0.0015323
0.00756896
0.00197569
0.00340252
0.00160399
0.00251844
0.00151674
0.00649509
0.000974359
0.000734368
0.00297783
0.00141541
0.00528679
0.0034839
0.0074827
0.00312008
0.000691836
0.00314949
0.00175639
0.00108434
0.000848647
0.00197736
0.00398512
0.00120468
5.21876e-05
0.00689086
0.00184692
0.00361802
0.000605349
0.00257179
0.00504424
0.00731003
0.0026603
0.002826
0.00255077
0.000208085
0.00408458
0.000228804
0.00397133
0.00451806
0.00340865
0.00191927
0.00133671
0.00658872
0.00669531
0.00209635
0.00764459
0.00569151
0.0140876
0.00272544
0.00154396
0.00206974
0.00353231
0.00249296
0.0123653
0.00480982
0.00134982
0.00708532
0.00217149
0.0058152
0.0128174
0.0103618
0.00229252
0.00101847
4.78489e-05
1.64158e-05
0.00282361
0.0069625
0.00599507
0.00121243
0.00462093
0.00442668
0.000737515
0.00205353
0.00639431
0.00186656
0.00928103
0.00107988
0.00239414
0.00534957
0.000108744
0.00303396
0.000697385
0.0014748
0.00511213
0.00130066
0.00622534
0.00133168
0.00654633
0.00627326
0.00833058
0.00649086
0.0108227
0.00133658
0.00622546
0.00509455
0.00820461
0.00350139
0.005074
0.00625245
0.0119179
0.00110687
0.00420385
0.00724852
0.00154
0.00566881
0.000382437
0.00421504
0.000585053
0.000216153
0.00747924
0.0012388
0.00635649
0.00296796
0.00443051
0.00629375
0.00521214
0.000416039
0.00395319
0.000457327
0.00762383
0.00474902
0.000789748
0.00432892
0.000205588
0.000710773
0.00183146
0.000859787
0.00106703
0.00738383
0.0127099
0.00409043
0.00121585
0.00240645
0.00839629
0.002062
0.00974714
0.00366932
0.0019728
0.00566458
0.00394295
0.00996821
0.0066193
0.00287223
0.00442
0.00594256
0.00418411
0.010514
0.00427743
0.00421411
0.00150076
0.00978207
0.000787375
0.00245291
0.000515315
0.00270314
0.00255145
7.88982e-05
0.00175743
0.00066915
0.00323153
0.00411076
0.00922708
0.00749832
0.000651121
0.00182254
0.00179921
0.0032285
0.00532211
0.000110029
0.00277866
0.00685423
0.00492496
0.0012264
0.00313819
0.00631734
0.00443793
0.0024716
0.000917967
0.00153806
0.00360041
0.0118252
0.00767533
0.00716127
0.0075437
0.0100969
1.59669e-05
0.00440725
4.14026e-05
0.0115342
0.00367479
0.00895067
0.00178974
0.00846355
0.000534504
0.00179911
0.00128065
0.0023857
0.00534603
0.0037978
0.0025887
0.00391349
0.00379313
0.0057649
0.00256021
0.00724852
0.0012789
0.00258443
0.00217256
0.0112114
0.00635885
0.00585517
0.00476619
0.000197936
0.00234817
0.00488425
0.0016193
0.000996227
0.00129427
0.00815773
0.000998129
0.00938907
0.00714494
0.0034373
0.00433406
0.00268084
0.00668961
0.0029915
0.00176478
0.000658092
0.00558662
0.00417314
0.00136402
0.0029662
0.00519126
0.00384514
0.0023855
0.012089
0.0098352
0.000286539
0.00225042
0.00391007
0.00463431
0.00566329
0.0103695
0.00861934
0.000635405
0.00668061
0.00496889
0.0100188
0.00102849
0.001163
0.00464393
0.00578868
0.00683901
0.00159005
0.00360321
0.00758345
0.00422317
0.000138355
0.000437518
0.00282248
0.00496595
7.78037e-05
1.70746e-05
0.00157512
0.000478034
0.00891961
6.59365e-06
0.0135241
0.00176208
0.00820438
0.000459035
0.00299277
0.00472426
0.00269373
0.00219846
0.00188776
0.0006996
0.00289457
0.00554365
0.00670613
0.000107194
0.0147909
0.00948752
0.00734435
0.00373895
0.0103045
0.00366817
0.00414449
0.00225194
0.004022
0.00581769
0.00421305
0.0021979
0.0033769
0.00134085
0.00676567
0.00126029
0.000761811
0.00615251
0.00871331
0.000357178
0.0011502
0.00580013
0.00191863
0.00130086
0.00567948
0.0094422
0.00840638
0.00214813
0.00266623
0.0142258
0.0100651
0.00986373
0.00532824
0.00108122
0.00190803
0.0116938
0.0011861
0.00500524
0.00101836
0.000526513
0.00339638
0.00166457
0.00213296
0.00119864
0.00326791
0.00109846
0.0126241
0.00906636
0.00193275
0.000133134
0.00103809
0.00036574
0.00125181
0.00274225
0.00350456
0.00666765
0.00037587
0.00493793
0.00152623
0.00863631
0.00295148
0.00570622
0.00527344
0.00401838
0.00290343
0.00819094
0.00468898
0.00512166
0.00366177
0.00857207
0.00359295
0.00425168
0.00705857
0.00648626
0.00632572
0.00546206
0.00206283
0.000676132
0.000652875
0.0106297
0.00195026
0.00141557
0.00579518
0.00300276
0.00800905
0.00262345
0.00267559
0.00241153
0.00552539
0.00810551
0.00372457
0.00202144
0.00741931
0.00118727
0.00175841
0.000651717
0.00931645
0.00137032
0.00519573
0.00324988
0.0140863
0.00231068
0.00868184
0.00133279
0.000197505
0.0017189
0.00128452
0.000799561
0.00569877
0.000148083
0.00201966
0.000701187
0.00160124
0.00479092
0.00690705
0.00823319
0.00461605
0.00161082
0.000725955
0.00341886
0.000185307
0.000711492
0.00542786
0.00157155
0.00453109
0.00138623
0.00203455
0.00290805
0.00150892
0.0082477
0.00151206
0.00630061
0.00394211
0.00178987
0.00123728
0.0031174
0.000898398
0.00206428
0.00180611
0.00320113
0.00224001
0.000593632
0.0115937
0.000480372
0.00698845
0.00127537
0.0108571
0.00147225
0.0120846
0.0041722
0.00596499
0.00478421
0.00256087
0.00449655
0.00516527
0.00121893
0.00146007
0.0088206
0.000914446
0.00276652
0.0103643
0.00496086
0.00684342
0.00727655
0.00767331
0.000913669
0.00641859
0.00717389
0.00415316
0.00199806
0.00207928
0.00115999
0.00402499
0.00724098
0.000736201
0.00304055
0.00855727
0.00234637
0.000286554
0.000330106
0.00557165
0.00760131
0.0124517
0.00144302
0.00396981
0.00202749
0.00623119
0.00485857
0.000481851
0.00381124
0.0101074
0.00261302
0.00128398
0.00177424
0.0116426
0.0021765
0.00221662
0.00121837
0.00650357
0.00186461
0.00157202
0.00438067
0.00118179
0.00643965
0.00720594
0.00409867
0.00025156
0.00124768
0.00548351
0.00111911
0.00114088
0.00314173
0.00695908
5.15814e-05
0.00438754
0.00014829
0.00143064
0.00112995
0.00537879
0.00670225
0.00309015
0.000478921
0.000819463
0.00372098
0.00394105
0.00867708
0.00278041
0.000463655
0.00400722
0.00222283
0.00150556
0.00721898
0.00274462
0.00328444
0.00493429
0.00108359
0.0061706
0.00323874
0.00101971
0.0109812
0.00289398
0.00814853
0.00803125
0.0044294
0.00281187
0.00261964
0.00471168
0.000967404
0.00100699
0.0054163
0.00839814
0.00415421
0.00381154
0.00888245
0.00463634
0.00158131
0.00489758
0.000680333
0.00327421
0.00236353
0.000505446
5.11465e-05
0.0014696
0.0078662
0.00321391
0.00167845
0.0016332
0.00466932
0.00442262
0.0046366
0.000905814
0.00337139
0.00157208
0.00564863
0.0132493
0.0062375
0.00850269
0.00370481
0.00515224
0.0117506
0.00871384
0.00559498
0.00650614
0.0111265
0.00850178
0.00606417
0.0116893
0.0071253
0.00719209
0.00531897
0.000658299
0.00314904
0.0057377
0.000926531
0.000860457
0.00675717
0.00694416
0.00897759
0.00277462
0.0127701
0.0129089
0.00536214
0.00588689
0.000277108
0.000985126
0.00886428
0.0168323
0.0135049
0.00934448
0.000291237
0.00357903
0.00200571
0.000939868
0.000936411
0.00445678
0.00509096
0.00314855
0.00164984
0.00560482
0.00875548
0.00092684
0.00046911
0.00866884
0.00550572
0.0134796
0.0134669
0.00686939
0.0110736
0.00849401
0.00807112
0.00957923
0.0018055
0.00383923
0.0017698
0.0018207
0.00149987
0.00193013
0.0142758
0.00685673
0.0068733
0.0133651
0.00306932
0.00215897
0.000342286
0.00238187
0.000929789
0.00506613
0.00315691
0.0026686
0.0039799
0.000398664
0.00358399
0.00506037
0.00583576
0.00332306
0.00452264
0.00751691
0.00382893
0.00135255
0.00448067
0.00540716
0.00384132
0.00086301
0.0021191
0.0091643
0.00119836
0.00699666
0.00145988
0.00421163
0.000899065
0.00597078
0.00337841
0.000661932
0.00646081
0.00145956
0.00865442
0.00305062
0.003917
0.0119046
0.00131144
0.00461285
0.00489346
0.00369696
0.00353386
0.00472166
0.00344098
0.00174746
0.00964834
0.00821125
0.0087181
0.00484068
0.00510831
0.00864177
0.00978248
0.00148661
0.00375313
0.00877316
0.00434833
0.003206
7.87233e-05
0.00373763
0.0031532
0.00340669
0.00495606
0.00716853
0.000770258
0.00626307
0.00434103
0.00850116
0.000527159
0.00368312
0.000590034
0.00976903
0.000319381
0.0035077
0.00661625
0.00633308
0.0019221
0.00309649
0.0046794
0.00335483
0.000270504
0.0039002
0.00388114
0.00386817
0.000974778
0.003843
0.00413106
0.00495428
0.00424963
0.0070223
0.00329846
0.00548617
0.00347728
0.0010182
0.00207428
0.00491639
0.00427807
0.0105304
0.00614025
0.00966285
9.96184e-05
0.00156061
0.00990985
0.00156138
0.00697562
0.00893802
0.0101415
0.00477826
0.0082394
0.00817388
0.00210656
0.00249368
0.00116853
0.000792317
0.00718192
0.00148904
0.00476732
0.00316452
0.00285746
0.000764626
0.00119459
0.00234433
0.00261552
0.014021
0.000855645
0.00805517
0.000992854
0.00586914
0.000784599
0.0059406
0.0118509
5.66125e-05
0.000832514
0.00571487
0.00453164
0.000834507
0.0108026
0.01094
0.00499792
0.00314209
0.00208985
0.0077483
0.0103179
0.00376055
0.00946
0.000300912
0.00263891
0.00827112
0.00428419
0.00793928
0.00541652
7.37832e-05
0.00713886
0.000674697
0.00423705
0.00878901
0.00792365
0.00397289
0.00292335
0.0046576
0.00728124
0.00135777
0.000205289
0.00362477
0.0012255
0.000520707
0.00223419
0.00477172
0.00156601
0.00645379
0.00268766
0.00163249
0.00326938
0.00354816
0.00385449
0.00789217
0.0111213
0.00602353
0.00921545
0.004145
0.0115562
0.000952455
0.00126195
0.00222564
0.000237278
0.00649391
0.00177913
0.000697313
0.00524694
0.0125603
0.00197631
0.0034594
7.53447e-05
0.00555568
0.00416722
0.00705871
0.00105671
0.00161007
0.00388008
0.00266967
0.00051392
0.00189993
0.00519835
0.00719266
0.00155694
0.0067231
0.00261649
0.00975499
0.000652147
0.000299022
0.00206679
0.00200536
0.00729234
0.00654411
0.00309865
0.00550152
0.0105612
0.00828324
0.0121864
0.00802696
0.00415127
0.00727125
0.000212251
0.0112401
0.00414399
0.000348517
0.000648058
0.010914
0.0037017
0.00923705
0.00262552
0.00533713
0.00102306
0.00200399
0.00224613
0.000413437
0.00363573
0.00459886
0.00652521
0.00233492
0.000105262
3.97163e-06
0.00635095
0.00430664
0.0100371
0.00732154
0.00534036
0.010364
0.00421601
0.00118426
0.00325218
0.00535594
0.00589975
5.28298e-05
0.00594709
0.0109918
0.00704942
0.0170903
0.0106476
0.00170246
0.0117057
0.00877376
0.00136455
0.0114587
0.00685404
0.010668
0.00626615
0.0096156
0.00350245
0.00851993
0.00433271
0.00356542
0.00564048
0.00690292
0.00391667
0.0132865
0.00468491
0.000501607
0.00494452
0.0143538
0.0137964
0.0015218
0.00803062
0.0152496
0.0104514
0.00139951
0.00682597
0.0071867
0.00362692
0.00853954
0.00401927
0.00228588
0.00482576
0.00662293
0.00800113
0.00142957
0.00100232
0.00941788
0.00824098
0.00366907
0.0103286
0.00972177
0.00469128
0.0123004
0.000826399
0.0111179
0.0104537
0.00207808
0.00775462
0.00181585
0.00278149
0.00382757
0.00578568
0.00247236
0.00732224
0.00440063
0.00233771
0.00861958
0.00550813
0.000390911
0.00111824
0.00795142
0.000220317
0.000771083
0.00165647
0.0063281
0.00562644
0.00161865
0.00494166
0.00344085
0.000141926
0.00215704
0.00261145
0.0108463
0.010438
0.00548877
0.00210162
0.00824777
0.00198284
0.00687091
0.00416852
0.00462289
0.00318604
0.00259164
0.0166136
0.00361476
0.00291415
0.00895923
0.00534186
0.006961
0.00374471
0.00103376
0.000260316
0.00181664
0.000550236
0.00986446
0.000108197
0.000891798
0.00628918
0.00494317
0.00874861
0.000633603
0.00436168
0.00223691
0.00167066
0.00273146
0.000283956
0.0056586
0.00547124
0.000164375
0.0043623
0.00438127
0.0011751
0.00363374
0.00577863
0.00806146
0.00254285
0.0014939
0.00825579
0.00876436
0.00454152
0.00369503
0.000180518
0.00562186
0.00196761
0.00428608
0.00122897
0.000481946
0.00580308
0.00123398
0.000696733
0.000489293
0.00383566
0.00565628
0.0010656
0.00307536
0.0055195
0.00438822
0.00471702
0.00524027
0.00147529
0.00899188
0.00472353
0.00337727
0.000714831
0.000630641
0.00953318
0.00271765
0.00582073
0.00115235
0.00421403
0.00589027
0.00507329
0.0138664
0.00729006
0.00692315
0.00332998
0.00314962
0.00913381
0.00743807
0.00308644
0.00741466
0.0122161
0.00650395
0.00861175
0.0166901
0.00868862
0.000298626
0.00461791
0.00196302
0.00677017
0.00347834
0.00294332
0.000727056
0.00210186
0.000621578
0.00407907
0.000405556
0.0145247
0.000390868
0.000386636
0.00907151
0.000409489
0.00331047
0.00188515
0.00616331
0.000332263
0.00412751
0.00209812
0.00962061
0.0127678
0.00831948
0.00918529
0.000674791
0.00144282
0.00939703
0.00298837
0.000912481
0.0161957
0.000663732
0.00243883
0.00574279
0.0112606
0.00694131
0.00262418
0.000349348
0.00335659
0.00449969
0.00237968
0.00414432
0.0128545
0.00182051
0.00378553
0.00574375
0.00437698
0.00333828
0.00413828
0.00395297
0.00767861
0.00973667
0.000956837
0.00828256
0.00336705
0.0081756
0.00536904
0.00691295
0.0120817
0.0108192
0.00353286
0.00716296
0.0142018
0.014068
0.00453285
0.00248357
0.00696397
0.00249366
0.00167649
0.0101792
0.005117
0.00236074
0.00127344
0.0118921
0.00418934
0.00850249
0.00228463
0.00402059
0.00671783
0.00813611
0.00278951
0.00441794
0.00556369
0.00276813
0.00617693
0.00270092
0.0208768
0.00386963
0.0061287
0.00647863
0.00373909
0.0114738
0.00219724
0.00230089
0.00515376
0.00296002
0.00650849
0.000430159
0.00288106
0.00503693
0.0037143
0.00591717
0.00227089
0.000240025
0.00586353
0.000710417
0.000246279
0.00209354
0.0131932
0.00170514
0.00170337
0.0076195
0.000597716
0.00353397
0.00180532
0.00114039
0.00413641
0.00266299
0.00198357
0.00523315
0.00950732
0.00353753
0.00370389
0.0100304
0.00259591
0.000891822
0.00281739
0.00502367
0.00444048
0.00445289
0.00404995
1.41964e-05
0.00699346
0.0102082
0.00517463
0.00204048
0.0115394
0.00491861
0.0022441
0.000661437
0.00571858
0.00730379
0.00635547
0.000488797
0.00533528
0.00276556
0.00873233
0.00636998
0.00487111
0.00409635
0.011676
0.00245696
0.000775065
0.00968077
0.00471896
0.0125822
0.00741501
0.0135464
0.00763693
0.00391109
0.00507975
0.00100254
0.0026197
0.00214715
0.0119363
0.00445038
0.00439193
0.00377579
0.00735363
0.0048024
0.00132845
0.0100254
1.13508e-05
0.0113541
0.00667357
0.00791018
0.0097055
0.000942491
0.00366463
0.00341601
0.00417884
0.00778395
0.00347207
0.00250339
0.00854019
0.00164439
0.00897907
0.0085244
0.00168508
0.0106058
0.00837465
0.001608
0.00982965
0.0164603
0.00774369
0.0140685
0.00436601
0.0139359
0.0129696
0.00571945
0.00157131
0.00431221
0.00192947
0.00226409
0.00898791
0.00635427
0.00269881
0.00269284
0.00265691
0.00568536
0.00122182
0.00319079
0.0116466
0.000659598
0.0116835
0.0089037
0.0138466
0.010571
0.00808482
0.0160478
0.00382504
0.00479244
0.00505774
0.00581024
0.0106045
0.00260672
0.00316506
0.00410181
0.00428039
0.00629121
0.0124778
0.00252886
0.00477362
0.00646647
0.00455763
0.0060041
0.00124438
0.00376421
0.00164712
0.00221942
0.00854973
0.00221831
0.00110801
0.000450818
0.0139856
0.0109658
0.002783
0.00244775
0.00479816
0.00225793
0.00215387
0.00116257
0.00771865
0.00933744
0.0087089
0.0042499
0.000481058
0.00168647
0.00541131
0.00466676
0.00765691
0.0051416
0.000153975
0.0026696
0.0021392
0.00478588
0.00136798
0.00140198
0.00277918
0.00044447
0.00085605
0.00529383
0.004951
0.00058663
0.00102578
0.00226326
0.00580205
0.00435653
0.00494485
0.0109987
0.00697871
0.00199243
0.000508182
0.0149082
0.00150734
0.00298142
0.00108637
0.00225662
0.00270961
0.00132803
0.0044465
0.00642736
0.000656414
0.00314207
0.0048913
0.00152417
0.00130623
0.000876796
0.00537554
0.00148125
0.00306145
2.7227e-05
0.000442529
0.000214992
0.000483363
0.00438413
0.00555453
0.010088
0.0146372
0.00656842
0.00675007
0.00219496
0.00391111
0.0176877
0.0109837
0.00500497
0.00469524
0.00785087
0.00244093
0.00529722
0.00818753
0.00842326
0.0061718
0.00157739
0.000587405
0.00271452
0.00366958
0.00177258
0.00329389
0.000222786
0.00676003
0.0016289
0.00121067
0.00213283
0.00215775
0.00671017
0.000213219
0.00619193
0.000367979
0.000824473
0.000832887
0.00698411
2.52256e-05
0.000503989
0.000838354
0.00382704
0.00461454
0.00643961
0.003679
0.00868292
0.00223495
0.00978507
0.00890166
0.0137803
0.00216457
0.0122205
0.00375358
0.00262423
0.00614162
0.0128528
0.00478143
0.00325645
0.000509059
0.00667915
0.0079241
0.0010597
0.000744539
0.0027584
0.00132339
0.00576834
0.000231114
0.00636144
0.00624783
0.00805194
0.00187718
0.0103163
0.0077858
0.000242408
0.00535908
0.000569334
6.49075e-05
0.00399318
0.00359414
0.0019338
0.00593973
0.00172369
0.0135944
0.0111162
0.00278001
0.000514989
0.00355635
0.00280095
0.00556528
0.00878333
0.00384956
0.0063491
0.00315455
0.0106082
0.00470517
0.000250381
0.00222471
0.00032867
0.00473669
0.0113664
0.000900409
0.000487228
0.00889802
0.00054905
0.0098165
0.00318707
0.00323792
0.00558823
0.00605696
0.0056742
0.00478919
0.000811715
0.00647701
0.00402963
0.00066863
0.00687157
0.00254011
0.00398716