/*--------------------------------*- C++ -*----------------------------------*\
| =========                 |                                                 |
| \\      /  F ield         | OpenFOAM: The Open Source CFD Toolbox           |
|  \\    /   O peration     | Version:  2212                                  |
|   \\  /    A nd           | Website:  www.openfoam.com                      |
|    \\/     M anipulation  |                                                 |
\*---------------------------------------------------------------------------*/
FoamFile
{
    version     2.0;
    format      ascii;
    arch        "LSB;label=32;scalar=64";
    class       volScalarField;
    location    "0";
    object      stateMean;
}
// * * * * * * * * * * * * * * * * * * * * * * * * * * * * * * * * * * * * * //

dimensions      [0 0 0 1 0 0 0];

internalField   nonuniform List<scalar> 
3200
(
315.071
316.396
315.327
318.327
317.68
317.049
318.899
315.587
314.075
317.707
318.064
316.544
316.319
317.256
317.404
315.35
314.735
315.695
316.92
317.855
312.54
314.551
313.654
311.83
316.724
317.162
313.786
315.221
315.09
315.997
314.919
315.652
313.698
316.401
314.172
315.052
314.267
314.599
314.57
311.582
310.207
314.465
312.28
312.581
311.748
310.427
312.929
312.318
313.464
312.078
312.09
311.139
310.003
310.656
312.68
311.568
313.191
310.865
312.343
310.838
311.301
312.199
309.254
311.934
311.487
311.001
310.331
312.092
311.595
311.257
308.476
308.87
311.838
311.072
311.597
310.481
314.65
309.557
311.274
310.461
309.192
306.527
307.878
306.118
307.663
308.985
309.497
307.631
309.845
309.452
308.822
308.566
308.346
308.642
308.036
309.888
309.203
310.859
308.172
307.956
303.393
304.714
303.368
302.419
306.338
302.819
304.127
306.669
304.808
303.91
307.384
303.995
305.379
304.472
305.712
306.134
304.958
306.673
305.648
307.094
301.797
303.702
308.046
303.081
303.691
302.556
302.439
305.043
303.69
306.105
305.041
305.232
306.36
302.742
304.339
299.924
302.685
305.053
304.314
303.848
305.066
300.923
302.879
300.18
300.528
299.177
301.822
302.746
302.16
301.992
301.219
299.804
301.246
300.733
300.326
300.993
303.086
297.802
301.555
303.349
315.768
316.244
317.012
317.08
319.877
318.202
317.007
316.924
316.01
316.306
317.753
315.491
317.504
317.153
318.598
317.86
315.856
316.266
316.09
317.739
316.629
316.183
312.445
317.952
313.347
320.341
315.599
321.703
315.595
320.818
321.307
314.778
319.763
315.384
319.939
316.525
319.133
316.616
318.286
314.841
313.028
313.383
311.626
312.981
317.224
310.28
312.578
316.521
313.285
313.426
312.577
311.793
310.499
312.294
311.415
312.721
311.025
312.981
312.477
311.546
308.065
308.938
311.213
312.448
313.205
311.269
310.949
308.987
311.294
313.13
311.012
313.013
310.629
308.983
310.301
311.575
309.955
310.637
309.301
310.559
309.142
305.527
309.522
309.368
308.308
308.54
310.904
310.687
309.407
309.422
309.37
307.856
310.624
307.528
307.878
310.513
307.737
307.464
305.144
309.176
304.692
308.149
304.333
303.187
308.169
308.033
307.524
306.378
304.585
304.616
308.089
306.38
305.791
308.661
307.093
306.715
304.582
306.534
305.016
304.78
305.882
305.567
305.681
305.504
305.645
304.104
305.788
306.038
305.536
300.08
304.77
305.596
302.292
305.71
301.706
305.786
304.017
303.039
304.12
301.255
298.843
301.709
301.322
302.119
301.768
301.442
300.294
302.386
304.92
302.255
301.371
300.447
300.766
301.079
301.599
299.052
302.428
302.139
300.341
302.661
317.058
316.502
319.587
316.714
319.499
319.195
317.711
319.854
318.668
317.779
321.77
320.39
317.695
317.171
319.928
319.596
319.664
315.399
318.133
319.899
314.85
314.169
314.871
315.498
313.825
315.255
317.546
317.316
314.105
315.137
319.723
316.24
314.69
317.35
316.728
313.694
314.667
315.338
316.257
318.168
313.057
313.896
312.937
311.697
311.546
312.523
314.302
312.849
313.72
315.784
316.303
313.777
313.64
311.714
314.1
314.573
316.129
311.31
311.674
312.951
309.338
310.368
309.224
308.503
313.027
310.54
315.109
312.626
311.389
312.671
310.749
313.338
310.256
310.262
312.909
309.995
311.648
310.897
313.219
310.113
306.78
309.145
305.977
308.671
309.628
308.215
309.662
310.604
311.27
308.965
308.638
307.988
308.086
310.447
308.413
307.153
308.267
308.153
306.006
308.941
305.069
306.544
310.114
308.621
309.002
307.227
306.328
309.44
307.542
306.235
309.269
305.294
304.344
305.574
305.047
305.338
304.099
303.949
305.221
305.993
303.575
302.87
303.662
301.629
304.732
302.483
303.456
302.854
305.255
300.128
304.585
303.902
303.913
303.379
304.169
302.742
302.188
304.098
303.679
305.42
301.204
300.918
300.461
299.629
303.45
301.185
299.803
299.84
302.099
302.659
303.749
300.715
299.714
302.013
300.902
301.166
302.066
298.26
300.548
301.573
317.168
317.501
321.951
318.317
320.115
316.757
319.688
318.197
322.047
320.212
318.559
319.246
320.9
318.883
316.915
319.849
319.414
316.914
318.594
317.834
314.944
316.904
316.389
316.07
316.599
319.639
316.76
321.178
315.116
321.09
320.868
316.52
320.046
316.315
320.458
316.554
319.644
317.349
318.177
313.574
312.502
314.767
311.89
313.224
315.662
315.608
314.036
313.18
313.3
316.58
314.795
314.121
314.852
313.862
314.524
311.572
313.87
315.012
310.855
314.1
311.022
313.594
312.942
312.288
312.188
313.661
312.915
308.812
310.405
312.632
313.871
311.471
311.706
313.366
311.342
313.156
311.008
310.716
307.592
310.526
307.567
307.564
308.299
309.588
308.368
313.186
309.482
309.899
309.607
306.49
310.35
306.964
309.088
308.376
308.589
309.611
311.17
311.5
308.249
308.171
301.945
305.805
307.798
306.786
303.966
306.306
309.529
306.448
306.89
306.839
307.714
306.377
308.555
308.095
305.815
305.017
304.016
308.512
304.631
304.333
303.646
303.921
303.606
302.165
307.117
305.98
306.346
304.233
304.388
306.043
304.583
299.907
303.239
304.62
305.39
305.095
303.075
301.258
302.733
302.863
303.089
301.802
304.675
299.979
301.281
300.784
301.618
302.535
299.562
300.487
300.767
300.259
301.912
300.204
301.437
298.689
300.112
301.987
301.245
301.186
321.663
316.252
318.971
322.192
320.59
320.32
320.976
317.045
320.356
320.505
321.916
323.536
321.379
320.81
322.714
320.765
318.269
319.804
317.731
318.615
316.735
316.731
316.116
315.889
318.602
318.867
319.682
319.004
317.046
319.207
317.267
318.796
315.871
318.213
318.823
316.947
319.104
317.513
316.15
317.101
316.248
313.272
314.512
315.334
311.694
314.378
317.543
314.763
313.14
318.481
317.859
317.337
316.653
314.932
315.907
313.402
314.276
314.185
314.524
316.729
311.59
311.229
313.937
312.13
309.587
312.658
314.887
312.556
315.424
314.646
311.887
314.172
312.896
312.749
312.508
308.402
311.557
311.834
312.497
309.006
309.156
309.634
310.188
311.719
310.083
310.777
309.826
306.531
310.47
310.459
311.552
310.622
309.486
309.06
310.301
307.922
310.733
310.136
308.033
307.63
307.546
308.546
306.879
309.367
304.309
303.857
306.359
304.69
307.509
307.331
308.741
308.81
307.747
309.467
310.479
306.338
310.526
307.306
307.22
304.622
301.256
306.536
303.69
304.378
305.453
306.598
306.191
306.967
304.085
305.5
303.436
306.155
303.032
302.636
306.688
303.958
302.578
301
306.572
306.17
301.595
301.15
298.875
301.75
300.911
301.361
300.632
301.614
301.851
303.93
301.261
300.78
304.557
304.282
302.8
302.728
301.363
300.733
301.317
301.8
319.792
322.421
320.829
318.765
321.081
323.563
322.801
321.474
320.742
321.604
324.027
320.586
322.005
322.992
324.405
322.269
322.354
322.427
321.54
321.955
317.035
317.096
318.964
318.322
320.365
320.383
319.424
321.242
318.835
321.37
321.928
319.583
320.469
318.166
321.264
320.11
319.928
316.983
318.608
317.58
312.991
318.011
315.226
315.244
315.203
317.26
317.889
316.895
316.197
315.929
316.138
315.73
317.307
315.934
316.39
315.172
315.775
314.882
316.37
314.824
314.783
313.582
314.929
314.452
314.445
312.363
314.794
314.114
313.675
313.528
314.168
312.97
312.519
312.262
313.669
311.799
313.406
313.4
312.458
312.986
308.902
310.323
310.58
309.779
313.43
312.186
309.785
310.642
308.613
309.357
312.157
310.198
310.193
309.047
310.807
309.538
308.585
309.839
310.305
310.946
304.965
307.418
306.995
307.533
307.483
307.738
306.052
309.859
307.103
310.002
307.178
308.069
306.85
306.03
308.308
309.457
308.611
305.911
310.714
306.963
300.908
305.788
304.139
303.729
303.502
306.297
302.482
302.588
302.993
302.765
305.595
304.615
304.365
301.232
304.116
304.066
304.805
305.748
305.653
303.864
298.326
302.029
300.48
302.288
300.802
298.764
301.508
301.735
302.319
298.978
304.848
300.838
302.618
302.437
301.713
301.655
300.118
301.679
300.601
297.798
321.483
322.591
322.952
323.265
320.959
322.971
324.791
322.065
323.081
324.958
322.487
325.791
324.583
322.576
320.052
321.502
319.925
321.035
321.069
319.397
317.908
320.593
318.019
319.397
319.418
319.848
320.739
319.409
321.793
323.118
319.315
320.509
320.234
322.597
321.109
317.62
318.59
318.043
319.962
316.279
315.756
316.213
314.381
317.884
320.096
318.289
318.26
317.608
316.594
318.614
315.064
317.926
316.826
320.426
316.305
316.839
315.758
313.729
318.077
315.741
311.254
312.192
313.744
311.1
314.175
313.964
314.194
316.389
314.513
313.737
313.128
315.755
312.722
314.186
315.081
314.226
313.12
312.426
314.915
312.176
309.96
311.06
311.526
311.012
310.078
310.984
310.042
313.185
309.318
311.34
310.476
313.941
312.965
313.982
309.457
310.123
311.116
312.787
311.598
309.907
305.813
305.594
305.935
306.794
308.448
306.657
308.466
308.648
307.631
308.185
308.003
306.622
307.935
307.65
307.852
310.115
309.314
305.991
306.355
309.201
305.797
306.454
304.026
303.256
303.299
304.832
304.025
304.391
303.156
305.82
308.806
304.707
305.235
304.233
304.624
305.799
302.625
301.015
303.95
306.698
302.962
299.226
302.841
299.558
302.253
300.934
303.153
300.393
302.527
302.748
299.319
301.581
302.003
300.342
302.107
302.556
297.136
299.519
302.566
300.282
322.106
321.628
321.83
323.104
321.075
325.355
323.841
327.216
324.454
324.63
323.438
325.648
325.43
326.039
327.027
326.217
322.648
325.506
324.535
323.868
319.162
318.498
319.531
320.2
323.004
321.308
321.701
321.454
320.641
321.868
320.953
324.561
321.738
324.578
321.588
323.809
320.45
320.383
318.967
319.386
316.434
315.51
313.808
319.245
317.241
317.048
318.517
317.583
317.91
318.609
319.77
318.769
316.972
319.895
314.123
319.209
315.007
315.779
314.122
316.83
312.716
315.037
314.032
315.242
315.218
316.302
314.896
314.692
312.421
315.518
314.442
316.071
314.995
314.013
315.918
313.522
314.336
317.673
315.597
310.578
311.806
311.967
313.315
311.31
312.653
311.975
312.146
314.171
311.298
313.029
311.468
312.7
312.284
313.692
311.192
311.534
310.181
311.351
309.087
309.512
305.283
306.721
307.597
306.98
308.633
307.894
308.613
307.843
307.296
308.193
308.581
310.652
309.023
307.235
308.415
307.3
306.397
305.56
306.862
306.716
305.339
304.556
305.942
304.711
303.655
306.325
303.981
304.496
304.718
307.16
303.106
305.766
307.414
306.757
300.651
304.035
305.252
304.066
305.695
305.321
305.259
300.099
301.982
303.74
302.287
299.905
297.817
298.579
302.411
302.034
301.741
301.724
300.853
303.784
303.467
301.998
300.209
302.91
301.327
300.911
324.941
323.776
326.546
324.288
325.111
326.451
325.021
324.352
325.314
326.127
327.312
325.118
327.364
325.489
326.84
326.369
326.637
325.643
319.675
323.308
321.905
321.794
323.112
321.948
319.538
319.487
325.628
322.394
320.858
324.641
321.809
320.386
321.915
323.149
321.685
321.099
318.425
320.88
318.128
320.862
318.317
319.117
319.045
317.812
319.227
318.102
320.926
320.219
319.105
320.312
318.997
319.08
318.121
318.224
317.908
320.318
321.718
318.689
316.735
317.676
311.248
314.698
317.333
315.66
315.365
316.755
316.419
318.488
317.554
314.623
316.924
317.341
316.664
318.49
316.318
313.418
314.034
317.344
313.803
314.653
310.667
311.797
310.332
311.335
310.947
311.462
312.838
313.244
314.935
314.445
312.308
311.487
311.401
312.837
313.33
311.528
312.175
313.259
309.425
311.208
308.717
309.787
306.597
307.334
308.51
307.879
307.356
304.912
310.997
310.873
306.335
305.512
308.566
309.826
308.366
311.782
306.963
310.72
308.393
310.356
304.499
305.264
305.179
304.141
306.577
303.865
305.881
303.954
306.346
303.449
305.99
302.976
305.538
305.879
304.36
308.366
302.929
303.004
306.168
304.722
300.856
300.109
301.118
301.933
301.269
304.146
302.008
298.893
299.584
302.784
300.439
302.549
299.708
300.804
302.217
301.46
303.318
302.865
301.993
302.458
325.117
324.962
323.291
328.353
327.992
325.055
326.193
326.994
327.414
327.846
329.38
323.095
325.513
327.635
326.764
328.052
324.097
324.441
322.214
325.31
322.593
321.147
319.781
318.819
322.931
321.831
322.288
323.281
324.133
322.639
322.62
323.039
322.525
325.02
321.874
325.922
320.689
323.57
320.49
319.443
318.827
318.379
317.077
317.445
318.537
319.492
320.567
321.128
319.09
323.915
322.222
321.468
317.796
322.085
319.739
316.995
317.329
319.054
319.371
315.991
313.532
313.319
315.008
316.936
314.629
315.476
317.365
318.328
315.802
316.109
317.577
315.083
315.989
317.215
318.213
317.674
315.482
313.747
318.853
317.386
314.162
309.555
311.71
310.95
315.36
311.508
310.462
311.826
312.066
313.336
312.795
311.564
312.518
313.044
312.221
315.65
314.369
310.771
311.172
310.77
307.829
308.413
307.296
307.183
310.441
308.618
310.13
309.163
311.419
307.874
310.547
310.381
307.452
307.71
311.029
309.831
309.842
309.269
310.667
309.048
306.072
302.675
302.917
303.04
303.376
305.741
304.969
305.425
308.508
305.877
304.85
307.032
304.309
307.619
305.912
304.226
305.704
303.21
307.298
305.911
300.992
303.857
302
302.196
301.888
304.526
301.323
303.321
302.746
306.023
302.469
299.145
301.351
301.676
301.196
302.079
301.907
303.361
301.574
300.993
324.297
323.812
326.209
327.239
328.011
327.156
326.464
325.936
327.456
326.487
326.659
328.111
326.686
327.416
326.104
325.994
325.939
325.144
327.006
324.56
322.974
319.906
322.026
321.348
323.043
322.026
323.23
323.35
321.878
323.71
323.179
326.656
322.612
324.818
322.727
325.535
322.22
325.336
322.512
322.866
319.315
317.164
319.644
320.107
318.322
319.411
321.969
319.034
320.333
322.824
321.097
321.635
321.65
321.603
318.654
320.756
320.747
319.535
317.343
318.456
314.242
316.021
312.664
315.381
316.311
318.244
314.974
315.765
315.852
317.769
318.41
319.89
316.312
316.968
316.184
313.387
316.68
314.793
315.954
317.787
312.205
311.104
312.206
315.441
311.29
312.811
312.632
314.392
313.022
312.971
313.849
312.808
310.35
314.502
313.398
311.891
312.2
313.362
311.155
311.746
307.188
310.38
308.325
309.808
308.521
309.116
308.42
310.508
310.973
307.977
309.08
309.156
309.996
307.552
311.352
307.709
308.598
307.105
307.55
308.62
302.704
304.116
304.014
306.589
305.483
303.333
304.284
305.631
308.706
306.255
307.859
307.805
306.672
304.415
306.016
306.59
304.789
304.709
306.605
307.466
302.898
302.811
304.362
303.104
301.251
303.227
301.564
300.796
301.082
301.648
301.816
302.239
299.41
302.739
302.255
301.235
300.296
300.348
300.262
301.918
325.87
324.506
327.155
329.945
327.974
329.007
327.703
328.388
330.696
329.783
328.763
328.982
330.34
329.269
328.211
329.751
327.951
327.657
326.746
324.989
320.552
323.616
322.326
322.023
324.749
325.064
325.947
324.128
327.49
327.604
325.163
325.265
323.141
322.729
325.684
327.999
326.653
325.037
321.676
322.716
318.954
318.785
318.406
317.512
320.786
320.381
320.092
321.513
322.631
320.184
319.738
322.604
321.481
323.873
323.676
321.353
322.465
321.411
321.057
321.365
314.465
316.381
315.906
316.11
316.196
316.508
320.565
318.348
318.445
320.545
315.346
316.954
316.072
316.806
315.604
317.321
316.532
316.19
316.425
315.16
310.607
313.408
310.146
311.076
313.67
310.047
313.713
313.038
314.086
314.412
311.52
312.415
313.277
315.38
312.769
314.443
311.657
313.281
312.11
313.585
307.352
308.264
310.561
309.122
311.446
307.93
310.168
312.708
309.484
310.531
307.592
307.936
307.937
310.417
307.809
309.314
305.693
311.101
311.157
309.887
306.606
307.73
308.136
305.668
304.13
308.014
306.715
306.408
305.483
306.617
306.438
306.5
306.943
303.198
305.57
307.188
303.889
302.557
305.254
303.924
301.871
304.655
301.632
300.691
299.773
303.7
301.227
302.756
300.419
302.849
301.918
303.008
300.65
302.974
301.495
300.61
302.996
300.233
300.426
303.812
326.627
327.565
327.188
326.674
325.948
328.498
328.525
330.764
329.463
330.687
327.555
326.941
330.561
327.637
329.171
329.545
329.652
327.612
328.462
328.214
322.92
321.628
323.047
323.176
325.486
322.914
325.142
324.79
322.957
323.694
324.329
323.123
324.612
328.136
323.673
325.768
323.241
324.564
322.179
324.155
322.669
319.03
318.983
321.286
321.117
320.13
323.492
323.678
321.875
321.331
319.656
317.792
323.479
321.239
322.889
319.764
318.617
316.608
317.681
321.422
317.214
315.609
318.05
315.756
317.478
319.078
318.946
317.812
317.561
318.152
318.983
316.205
316.489
317.586
315.91
316.304
316.675
314.289
316.126
317.541
312.931
311.679
311.296
313.56
313.788
315.175
316.296
311.021
315.853
314.299
316.619
312.671
313.301
313.513
312.633
314.613
313.007
312.535
313.827
316.012
309.267
309.794
308.84
310.629
307.719
311.278
309.501
309.736
308.083
310.132
309.465
309.871
310.846
311.398
309.577
306.93
308.105
311.83
308.927
308.565
304.575
305.86
303.076
307.358
306.362
303.789
308.744
308.086
309.306
308.049
304.327
307.804
305.62
308.951
306.736
305.522
305.162
308.634
306.378
308.025
300.954
303.371
301.469
301.193
302.495
301.709
300.753
303.251
299.902
301.172
301.845
301.873
303.78
303.15
304.864
304.027
303.41
298.65
303.032
301.389
327.466
328.361
328.795
327.148
325.442
331.23
330.152
333.618
331.627
328.755
332.038
331.012
328.46
331.598
329.875
330.882
329.181
330.01
327.756
329.185
321.583
322.006
325.202
325.84
325.098
328.344
325.741
324.208
326.079
329.188
329.007
324.969
326.976
329.166
327.426
324.283
325.815
325.702
324.33
325.74
320.803
320.396
318.306
322.163
322.795
320.867
320.885
323.71
323.423
322.002
324.139
323.898
322.194
324.507
320.144
323.793
323.389
320.515
322.144
320.099
315.142
314.928
318.119
317.23
318.92
315.353
317.615
319.709
318.796
316.963
317.442
319.571
317.047
316.63
316.222
318.605
318.228
316.801
317.7
317.108
312.538
311.91
311.884
316.217
316.212
314.775
313.814
315.819
313.914
315.475
312.016
314.741
314.234
313.968
318.258
311.814
313.736
309.899
314.254
314.669
307.788
309.328
309.012
308.618
309.436
312.399
309.45
309.75
311.462
311.066
312.244
309.711
310.824
310.109
309.864
310.111
309.268
310.841
310.7
308.996
306.711
306.756
305.109
304.41
307.338
308.084
306.44
306.154
308.245
308.414
307.122
304.591
305.642
307.381
306.221
304.262
305.145
305.321
303.646
305.002
302.014
301.669
302.992
300.145
302.191
300.957
300.233
300.586
300.495
300.341
301.478
299.204
303.337
300.879
301.669
302.059
298.974
301.014
303.574
301.456
328.708
325.592
329.417
332.543
330.623
330.721
329.731
329.827
331.903
331.402
329.97
331.338
332.808
330.774
331.276
333.708
330.845
327.656
329.033
327.972
325.978
322.821
325.104
324.123
325.244
324.548
326.241
324.917
329.865
325.064
325.317
328.092
325.182
325.992
325.362
326.562
324.251
325.488
324.628
326.901
324.289
317.671
323.45
320.466
321.317
324.031
322.114
320.973
326.55
321.6
320.603
323.191
324.884
323.383
321.856
320.742
321.758
321.948
321.098
321.528
320.65
317.266
318.026
318.793
318.501
318.302
318.671
318.705
319.953
320.64
317.244
320.145
318.519
319.953
318.946
319.305
320.802
320.255
317.808
314.313
317.374
317.416
311.702
314.011
315.525
312.663
314.06
316.797
315.261
314.423
313.283
317.386
314.919
316.2
312.729
312.083
315.337
315.669
313.886
314.313
307.536
310.172
311.304
310.309
316.013
310.822
311.585
307.732
310.933
313.348
310.474
310.488
311.335
308.77
307.609
309.418
310.365
310.951
308.167
311.087
306.261
305.529
307.44
305.913
305.668
306.427
309.86
306.378
306.399
308.22
305.706
304.797
306.408
305.476
307.052
306.557
306.302
307.248
308.507
304.486
300.749
298.851
301.11
301.642
302.777
300.424
300.613
300.619
303.194
301.979
304.087
305.054
300.401
302.57
305.425
303.411
302.589
301.694
303.605
304.072
330.409
328.66
330.467
329.843
332.019
331.439
331.117
331
333.596
330.606
330.052
332.938
331.206
333.658
331.783
333.604
331.445
329.999
330.168
328.651
323.799
325.496
328.862
326.621
326.787
326.757
328.072
327.361
325.446
329.19
325.927
329.579
327.97
328.253
328.687
325.051
326.366
323.873
326.156
327.176
322.047
320.253
323.956
321.902
324.417
324.416
321.258
325.315
324.667
321.49
325.173
327.271
324.394
326.327
323.078
326.011
325.542
323.05
321.561
322.317
316.569
316.562
320.26
319.557
318.524
318.641
318.733
319.778
318.417
317.043
321.762
317.818
321.685
320.718
322.185
321.025
320.106
322.501
316.066
318.701
314.983
311.653
316.898
314.493
314.768
315.153
315.291
315.987
317.975
313.285
315.578
316.087
315.442
315.832
313.475
314.956
314.192
314.269
316.154
314.093
309.248
309.506
314.048
313.186
310.722
310.685
311.47
310.729
310.729
309.718
312.471
312.956
312.729
308.666
310.075
309.337
311.465
311.161
307.275
307.999
305.815
304.984
305.189
304.423
306.348
306.398
305.153
305.895
305.788
307.68
304.545
305.87
305.717
305.31
307.744
307.262
307.4
309.207
307.934
306.377
302.088
306.446
302.415
301.074
302.317
301.32
301.195
301.622
303.372
303.973
302.23
302.978
303.5
302.473
301.608
301.724
300.351
301.513
301.021
301.943
329.228
329.465
329.573
331.378
331.959
333.634
335.293
332.75
332.897
331.435
332.002
336.514
334.21
332.11
331.853
332.717
330.737
327.985
332.234
332.148
327.57
325.184
326.059
325.156
327.405
326.941
327.57
326.675
328.884
327.247
326.319
327.373
325.897
328.686
326.432
328.228
326.161
326.137
325.969
323.287
321.713
321.981
322.232
323.341
320.763
324.456
321.307
325.384
323.367
325.836
325.551
327.092
323.281
326.434
323.59
321.404
324.086
326.1
323.358
322.753
317.974
320.027
320.54
318.477
318.019
319.241
318.876
320.366
318.655
320.635
320.599
321.146
319.127
321.74
320.842
318.179
319.845
317.839
317.925
319.081
315.017
313.353
315.915
314.684
318.505
317.81
315.262
314.284
313.368
315.388
316.257
317.248
315.656
316.384
315.308
317.566
315.621
313.971
313.262
313.992
311.411
313.516
309.778
310.275
312.948
310.417
313.345
311.329
309.364
312.118
312.264
312.13
311.826
310.551
312.256
311.438
309.917
312.188
309.205
311.179
307.434
306.895
308.441
307.633
307.108
306.172
307.694
307.19
306.294
304.978
309.4
306.562
306.737
304.843
306.171
306.473
308.038
307.937
306.741
306.336
302.635
301.647
301.127
301.188
302.403
302.912
304.059
303.125
302.449
302.89
305.621
300.376
300.324
304.346
302.908
300.072
303.213
299.905
302.74
302.7
329.554
330.898
332.213
331.633
331.697
331.791
331.932
333.51
334.332
332.694
333.044
333.691
333.557
333.391
334.534
332.461
333.915
332.114
333.169
332.345
325.074
328.188
327.417
325.769
328.932
329.986
328.341
327.508
330.163
330.123
328.967
329.082
331.624
329.926
328.39
331.58
327.699
328.963
327.017
327.575
324.307
323.15
323.637
328.193
320.798
324.209
325.933
324.729
324.037
326.971
325.399
323.361
325.092
323.68
324.935
324.777
323.546
323.188
323.25
326.32
318.73
319.021
320.386
319.641
318.335
322.121
319.139
319.348
320.925
323.002
319.421
319.988
320.571
320.54
317.415
319.194
317.806
321.47
315.738
320.514
315.12
315.498
313.163
316.192
316.289
316.5
315.134
313.735
315.57
315.381
313.828
317.489
312.433
317.774
318.978
314.279
314.347
313.082
315.638
315.26
311.29
309.373
313.578
310.143
313.206
311.958
309.571
312.624
310.269
312.601
311.257
309.843
311.604
312.563
313.204
314.411
311.313
309.071
311.369
311.115
306.801
306.456
305.676
305.872
309.297
305.211
308.898
306.994
308.071
307.556
308.395
307.977
305.817
307.478
306.44
306.68
308.506
308.691
306.331
307.006
302.849
302.28
300.124
302.482
303.159
303.433
304.091
301.969
306.85
301.62
303.776
302.907
300.911
302.708
301.328
302.61
303.683
301.193
303.48
301.229
331.63
328.484
333.543
335.13
332.913
333.713
334.09
331.261
333.091
334.386
333.022
335.06
333.828
334.7
334.676
336.124
335.374
334.341
331.741
328.07
329.017
326.15
326.375
328.026
326.8
327.897
328.742
328.579
329.202
328.065
328.652
329.396
328.497
330.239
328.972
332.596
328.034
328.318
327.593
330.073
322.986
323.235
320.483
323.374
323.867
324.456
325.785
326.973
323.08
326.688
325.151
323.964
326.788
325.399
326.133
326.203
324.662
324.649
325.233
323.645
316.948
316.407
319.345
318.509
322.041
318.855
320.164
319.746
318.536
319.983
321.985
319.732
318.702
321.879
318.216
320.121
322.054
321.438
323.527
317.885
312.249
315.632
312.801
312.907
316.19
315.916
316.062
315.531
317.991
315.03
315.414
314.365
316.356
314.657
319.491
315.273
314.706
315.169
315.2
316.548
312.234
309.346
312.086
312.746
311.98
310.688
310.527
308.748
312.502
310.264
310.886
311.575
313.628
310.881
311.895
309.972
308.504
311.241
310.822
309.678
306.278
305.87
306.008
308.679
307.627
305.387
306.75
306.606
306.816
305.376
308.407
307.708
308.51
309.137
304.636
304.912
308.158
306.878
307.102
303.036
303.032
305.492
301.719
303.273
304.659
300.12
302.145
302.405
300.55
302.922
303.741
302.562
300.231
303.966
300.697
303.33
303.005
303.016
304.097
301.641
333.556
334.556
329.084
332.826
336.782
333.358
331.435
336.206
334.739
333.021
334.904
334.241
336.773
334.691
334.796
331.206
333.412
333.55
331.074
335.708
327.259
326.62
327.157
329.235
328.872
330.101
327.209
330.298
330.571
330.278
332.371
333.491
329.572
331.672
329.821
330.92
330.244
328.493
331.098
325.527
324.12
322.765
326.219
321.209
324.814
326.548
326.224
326.52
324.681
324.734
325.528
325.535
326.432
325.955
323.052
325.882
324.806
323.162
323.31
321.777
320.874
319.868
317.862
320.017
318.116
320.392
320.517
322.173
321.434
321.01
320.369
321.283
320.004
322.513
322.507
319.773
321.065
318.816
320.014
320.84
316.355
315.238
316.88
314.339
316.366
314.632
315.902
317.218
317.38
317.196
317.296
318.779
315.302
316.562
319.812
314.66
316.901
316.375
313.666
314.123
311.346
309.823
311.691
311.064
307.546
311.476
310.59
311.01
311.633
310.445
312.325
315.157
314.297
311.204
313.001
310.133
309.149
312.942
309.961
310.27
309.232
307.742
306.957
307.117
307.107
306.402
307.176
306.823
308.336
307.011
307.51
307.223
307.223
303.947
308.377
311.062
304.635
308.088
308.629
305.886
305.05
301.128
300.168
302.543
300.875
301.157
302.934
302.739
301.27
301.68
302.549
303.374
299.346
302.811
303.644
302.103
301.472
301.58
303.912
303.661
)
;

boundaryField
{
    hotSide
    {
        type            fixedGradient;
        gradient        nonuniform List<scalar> 
400
(
321.511
322.87
325.591
329.677
335.133
341.965
350.181
359.788
370.794
383.208
397.037
412.289
428.971
447.088
466.647
487.651
510.105
534.011
559.372
586.191
323.738
325.08
327.767
331.802
337.194
343.949
352.078
361.591
372.498
384.81
398.537
413.687
430.268
448.289
467.755
488.672
511.043
534.872
560.161
586.913
326.149
327.47
330.116
334.091
339.406
346.071
354.099
363.503
374.296
386.491
400.101
415.136
431.606
449.52
468.885
489.706
511.988
535.735
560.948
587.63
328.704
330
332.597
336.503
341.73
348.292
356.205
365.485
376.15
388.215
401.695
416.604
432.954
450.753
470.009
490.73
512.919
536.579
561.714
588.325
331.33
332.599
335.142
338.97
344.099
350.546
358.332
367.477
378.003
389.928
403.271
418.047
434.27
451.949
471.095
491.712
513.807
537.382
562.439
588.978
333.918
335.158
337.643
341.389
346.414
352.74
360.392
369.397
379.779
391.562
404.765
419.407
435.503
453.065
472.101
492.618
514.622
538.114
563.096
589.569
336.321
337.531
339.959
343.622
348.544
354.751
362.274
371.142
381.385
393.031
406.101
420.618
436.595
454.047
472.983
493.409
515.33
538.747
563.663
590.076
338.36
339.543
341.92
345.509
350.339
356.44
363.847
372.595
382.718
394.244
407.2
421.608
437.485
454.844
473.695
494.045
515.897
539.253
564.114
590.478
339.852
341.015
343.352
346.885
351.645
357.665
364.985
373.643
383.675
395.113
407.984
422.312
438.116
455.407
474.197
494.491
516.294
539.606
564.428
590.758
340.643
341.795
344.11
347.613
352.334
358.311
365.584
374.193
384.176
395.567
408.393
422.679
438.443
455.699
474.456
494.722
516.498
539.788
564.589
590.901
340.643
341.795
344.11
347.613
352.334
358.311
365.584
374.193
384.176
395.567
408.393
422.679
438.443
455.699
474.456
494.722
516.498
539.788
564.589
590.901
339.852
341.015
343.352
346.885
351.645
357.665
364.985
373.643
383.675
395.113
407.984
422.312
438.116
455.407
474.197
494.491
516.294
539.606
564.428
590.758
338.36
339.543
341.92
345.509
350.339
356.44
363.847
372.595
382.718
394.244
407.2
421.608
437.485
454.844
473.695
494.045
515.897
539.253
564.114
590.478
336.321
337.531
339.959
343.622
348.544
354.751
362.274
371.142
381.385
393.031
406.101
420.618
436.595
454.047
472.983
493.409
515.33
538.747
563.663
590.076
333.918
335.158
337.643
341.389
346.414
352.74
360.392
369.397
379.779
391.562
404.765
419.407
435.503
453.065
472.101
492.618
514.622
538.114
563.096
589.569
331.33
332.599
335.142
338.97
344.099
350.546
358.332
367.477
378.003
389.928
403.271
418.047
434.27
451.949
471.095
491.712
513.807
537.382
562.439
588.978
328.704
330
332.597
336.503
341.73
348.292
356.205
365.485
376.15
388.215
401.695
416.604
432.954
450.753
470.009
490.73
512.919
536.579
561.714
588.325
326.149
327.47
330.116
334.091
339.406
346.071
354.099
363.503
374.296
386.491
400.101
415.136
431.606
449.52
468.885
489.706
511.988
535.735
560.948
587.63
323.738
325.08
327.767
331.802
337.194
343.949
352.078
361.591
372.498
384.81
398.537
413.687
430.268
448.289
467.755
488.672
511.043
534.872
560.161
586.913
321.511
322.87
325.591
329.677
335.133
341.965
350.181
359.788
370.794
383.208
397.037
412.289
428.971
447.088
466.647
487.651
510.105
534.011
559.372
586.191
)
;
    }
    coldSide
    {
        type            mixed;
        refValue        uniform 300;
        refGradient     uniform 0;
        valueFraction   uniform 0.991591;
        source          uniform 0;
        value           nonuniform List<scalar> 
400
(
300.043
299.99
300.01
300.026
300.013
299.986
300.025
300.044
300.007
300.008
300.024
300.016
300.008
300.017
300.006
300.018
300.022
300.024
300.026
300.042
300.008
300.014
300.008
300.015
300.01
300.017
299.993
300.001
300.001
300.032
300.024
300.039
300.028
300.014
299.99
300.054
300.014
300.019
300.046
300.009
300.024