/*--------------------------------*- C++ -*----------------------------------*\
| =========                 |                                                 |
| \\      /  F ield         | OpenFOAM: The Open Source CFD Toolbox           |
|  \\    /   O peration     | Version:  2212                                  |
|   \\  /    A nd           | Website:  www.openfoam.com                      |
|    \\/     M anipulation  |                                                 |
\*---------------------------------------------------------------------------*/
FoamFile
{
    version     2.0;
    format      ascii;
    arch        "LSB;label=32;scalar=64";
    class       volScalarField;
    location    "0";
    object      T;
}
// * * * * * * * * * * * * * * * * * * * * * * * * * * * * * * * * * * * * * //

dimensions      [0 0 0 1 0 0 0];

internalField   nonuniform List<scalar> 
3200
(
335.52
336.167
336.822
337.683
338.12
338.581
339.141
339.376
339.673
339.519
339.526
339.518
339.223
338.409
337.783
337.281
337.004
336.127
335.508
334.422
330.566
331.179
331.734
332.45
332.815
333.26
333.709
333.911
334.221
334.04
334.058
334.041
333.826
333.093
332.555
332.11
331.869
331.099
330.615
329.637
325.75
326.236
326.737
327.313
327.568
328.027
328.356
328.563
328.857
328.736
328.706
328.674
328.475
327.867
327.384
327.033
326.804
326.239
325.812
324.972
321.007
321.345
321.809
322.277
322.428
322.848
323.102
323.27
323.552
323.446
323.4
323.372
323.175
322.703
322.308
322.021
321.853
321.413
321.036
320.396
316.296
316.506
316.961
317.284
317.412
317.74
317.859
318.039
318.286
318.212
318.188
318.162
317.969
317.603
317.354
317.112
316.959
316.611
316.322
315.857
311.577
311.761
312.137
312.332
312.421
312.677
312.689
312.838
313.059
313.019
313.006
312.966
312.787
312.537
312.424
312.198
312.105
311.844
311.65
311.335
306.917
307.078
307.299
307.377
307.449
307.604
307.564
307.697
307.818
307.838
307.807
307.8
307.666
307.519
307.472
307.327
307.258
307.121
306.974
306.833
302.303
302.384
302.453
302.48
302.482
302.549
302.517
302.566
302.607
302.649
302.622
302.597
302.574
302.54
302.496
302.482
302.44
302.388
302.334
302.313
336.393
337.131
337.776
338.554
339.046
339.727
340.067
340.418
340.617
340.58
340.631
340.572
340.164
339.492
339.079
338.731
337.893
337.223
336.414
335.647
331.334
331.926
332.425
333.172
333.579
334.132
334.447
334.756
334.93
334.86
334.946
334.909
334.563
333.955
333.616
333.355
332.592
332.005
331.372
330.689
326.385
326.807
327.212
327.905
328.295
328.707
328.943
329.24
329.395
329.309
329.396
329.343
329.044
328.562
328.29
328.059
327.43
326.967
326.388
325.8
321.503
321.803
322.154
322.756
323.073
323.368
323.556
323.785
323.98
323.848
323.934
323.878
323.605
323.257
322.99
322.849
322.351
321.939
321.482
321.021
316.672
316.907
317.168
317.664
317.877
318.106
318.258
318.445
318.608
318.467
318.556
318.518
318.292
317.998
317.852
317.717
317.331
316.996
316.714
316.26
311.883
312.082
312.234
312.586
312.708
312.927
313.017
313.183
313.277
313.138
313.247
313.194
313.011
312.837
312.731
312.615
312.381
312.118
311.925
311.574
307.17
307.258
307.349
307.537
307.618
307.737
307.798
307.891
307.969
307.865
307.99
307.913
307.771
307.678
307.639
307.596
307.425
307.266
307.132
306.91
302.398
302.429
302.471
302.524
302.546
302.589
302.597
302.623
302.667
302.637
302.694
302.637
302.566
302.572
302.548
302.556
302.501
302.421
302.377
302.305
337.659
338.456
339.042
339.858
340.5
341.168
341.342
341.851
341.966
342.048
342.087
341.737
341.487
341.089
340.467
340.067
339.316
338.384
337.574
336.635
332.386
333.069
333.574
334.241
334.816
335.389
335.531
335.957
336.063
336.173
336.19
335.867
335.686
335.281
334.733
334.411
333.798
332.969
332.317
331.476
327.253
327.812
328.242
328.792
329.267
329.733
329.876
330.231
330.327
330.43
330.406
330.145
330.02
329.643
329.195
328.919
328.366
327.691
327.213
326.481
322.252
322.617
322.944
323.48
323.811
324.196
324.337
324.604
324.705
324.771
324.717
324.537
324.474
324.115
323.788
323.528
323.008
322.539
322.207
321.548
317.319
317.533
317.758
318.196
318.461
318.742
318.866
319.073
319.182
319.169
319.124
318.989
318.968
318.69
318.481
318.184
317.759
317.479
317.217
316.69
312.335
312.481
312.622
312.948
313.172
313.371
313.409
313.571
313.682
313.636
313.626
313.541
313.475
313.316
313.209
312.961
312.648
312.437
312.285
311.881
307.391
307.503
307.544
307.714
307.929
308.012
308.041
308.154
308.197
308.185
308.16
308.139
308.079
307.949
307.903
307.824
307.593
307.44
307.362
307.079
302.474
302.516
302.515
302.569
302.662
302.683
302.683
302.738
302.736
302.722
302.736
302.718
302.693
302.665
302.634
302.629
302.568
302.493
302.462
302.364
338.825
339.754
340.586
341.456
342.022
342.701
342.921
343.335
343.45
343.385
343.568
343.586
343.157
342.553
341.907
341.515
340.529
339.859
338.906
337.853
333.401
334.184
334.844
335.606
336.063
336.709
336.886
337.277
337.346
337.293
337.426
337.483
337.107
336.566
336.009
335.633
334.823
334.251
333.478
332.525
328.069
328.755
329.227
329.914
330.34
330.855
330.994
331.321
331.37
331.353
331.429
331.483
331.153
330.707
330.277
329.945
329.276
328.784
328.142
327.336
322.806
323.392
323.745
324.346
324.746
325.104
325.262
325.498
325.526
325.537
325.563
325.633
325.322
325.015
324.671
324.358
323.825
323.405
322.859
322.254
317.685
318.132
318.356
318.877
319.18
319.444
319.621
319.723
319.808
319.798
319.776
319.853
319.65
319.364
319.134
318.887
318.445
318.119
317.719
317.231
312.575
312.932
313.063
313.465
313.682
313.868
313.954
314.063
314.142
314.096
314.054
314.144
314.024
313.8
313.673
313.484
313.118
312.875
312.641
312.251
307.52
307.762
307.849
308.099
308.237
308.33
308.361
308.446
308.497
308.432
308.403
308.514
308.403
308.256
308.207
308.114
307.834
307.686
307.579
307.327
302.514
302.6
302.619
302.708
302.78
302.803
302.805
302.817
302.841
302.824
302.827
302.858
302.82
302.767
302.743
302.74
302.606
302.578
302.53
302.433
340.004
341.013
341.805
342.805
343.518
343.996
344.464
344.905
344.792
345.253
345.324
345.012
344.696
344.117
343.471
342.803
342.121
341.031
340.408
339.291
334.344
335.27
335.945
336.768
337.389
337.835
338.246
338.59
338.459
338.924
338.967
338.688
338.421
337.884
337.345
336.76
336.159
335.262
334.78
333.827
328.819
329.625
330.201
330.868
331.425
331.824
332.162
332.48
332.286
332.733
332.778
332.536
332.292
331.813
331.358
330.858
330.375
329.633
329.264
328.447
323.452
324.099
324.508
325.124
325.577
325.969
326.205
326.461
326.304
326.631
326.677
326.497
326.28
325.842
325.516
325.105
324.736
324.09
323.865
323.116
318.186
318.654
318.963
319.44
319.804
320.153
320.308
320.507
320.426
320.629
320.653
320.553
320.364
319.983
319.745
319.46
319.161
318.622
318.491
317.873
312.982
313.277
313.471
313.862
314.091
314.372
314.475
314.623
314.58
314.694
314.708
314.651
314.512
314.243
314.082
313.875
313.658
313.227
313.148
312.727
307.785
307.939
308.08
308.336
308.445
308.601
308.688
308.759
308.738
308.798
308.79
308.777
308.699
308.548
308.432
308.32
308.211
307.902
307.883
307.622
302.601
302.636
302.707
302.795
302.819
302.87
302.891
302.922
302.934
302.941
302.95
302.938
302.908
302.855
302.811
302.784
302.765
302.651
302.647
302.558
341.353
342.401
343.171
344.219
344.938
345.452
345.886
346.426
346.495
346.745
346.708
346.588
346.271
345.627
345.075
344.135
343.611
342.579
341.728
340.39
335.556
336.45
337.07
337.962
338.61
339.099
339.436
339.921
339.963
340.181
340.138
340.026
339.773
339.231
338.706
337.948
337.415
336.577
335.847
334.705
329.873
330.624
331.14
331.87
332.442
332.876
333.126
333.573
333.574
333.747
333.714
333.599
333.432
332.968
332.515
331.88
331.376
330.708
330.119
329.198
324.319
324.921
325.317
325.942
326.367
326.779
326.929
327.361
327.259
327.442
327.422
327.345
327.251
326.896
326.449
325.932
325.515
324.96
324.546
323.761
318.823
319.32
319.574
320.134
320.394
320.764
320.854
321.177
321.091
321.259
321.274
321.163
321.084
320.878
320.464
320.118
319.725
319.353
319.047
318.395
313.418
313.747
313.916
314.373
314.535
314.782
314.866
315.058
315.042
315.166
315.209
315.102
315.033
314.917
314.531
314.334
314.1
313.79
313.587
313.07
308.051
308.232
308.324
308.609
308.701
308.883
308.889
309.032
309.022
309.125
309.152
309.082
308.998
308.975
308.727
308.589
308.457
308.285
308.133
307.81
302.711
302.75
302.772
302.884
302.945
302.963
302.972
303.038
303.02
303.066
303.078
303.031
302.989
303.01
302.905
302.873
302.811
302.779
302.709
302.612
342.843
343.785
344.439
345.457
346.396
347.007
347.412
347.834
347.978
348.299
348.034
347.73
347.567
347.118
346.595
345.843
344.863
343.994
343.16
341.944
336.821
337.657
338.218
339.045
339.854
340.435
340.75
341.13
341.241
341.508
341.275
340.986
340.86
340.514
340.031
339.368
338.56
337.844
337.08
336.046
330.96
331.648
332.106
332.827
333.436
334.016
334.258
334.542
334.657
334.879
334.66
334.416
334.344
334.043
333.609
333.111
332.398
331.825
331.148
330.321
325.201
325.748
326.151
326.761
327.175
327.663
327.869
328.108
328.225
328.4
328.19
327.963
327.937
327.718
327.348
326.927
326.345
325.892
325.329
324.653
319.49
319.945
320.265
320.74
321.036
321.402
321.585
321.797
321.865
322.037
321.818
321.667
321.651
321.504
321.182
320.849
320.393
320.055
319.536
319.105
313.896
314.226
314.447
314.806
314.949
315.216
315.386
315.53
315.565
315.722
315.545
315.464
315.448
315.326
315.075
314.841
314.536
314.323
313.919
313.613
308.329
308.533
308.642
308.872
308.975
309.09
309.239
309.317
309.347
309.437
309.303
309.271
309.257
309.205
309.013
308.902
308.712
308.612
308.328
308.134
302.783
302.852
302.899
302.981
302.993
303.041
303.087
303.119
303.132
303.142
303.094
303.104
303.106
303.1
303.01
302.982
302.935
302.886
302.805
302.711
343.9
345.154
346.029
346.867
347.647
348.323
348.718
349.284
349.585
349.692
349.671
349.326
348.982
348.516
347.782
347.217
346.338
345.424
344.365
343.704
337.759
338.809
339.587
340.271
340.923
341.576
341.848
342.366
342.641
342.736
342.706
342.392
342.113
341.744
341.038
340.538
339.821
339.055
338.182
337.59
331.782
332.619
333.313
333.815
334.401
335.008
335.181
335.592
335.849
335.938
335.888
335.628
335.442
335.135
334.505
334.026
333.443
332.801
332.125
331.626
325.876
326.56
327.103
327.526
327.966
328.523
328.632
328.93
329.203
329.25
329.234
328.971
328.825
328.622
328.063
327.677
327.182
326.675
326.161
325.738
320.032
320.601
320.978
321.323
321.626
322.116
322.164
322.376
322.618
322.685
322.644
322.451
322.318
322.195
321.723
321.442
321.017
320.617
320.257
319.958
314.245
314.672
314.961
315.186
315.375
315.778
315.793
315.896
316.086
316.118
316.16
316.001
315.884
315.826
315.453
315.244
314.966
314.711
314.452
314.191
308.555
308.804
308.988
309.109
309.202
309.449
309.467
309.512
309.591
309.658
309.697
309.596
309.495
309.488
309.25
309.098
308.983
308.838
308.683
308.485
302.861
302.934
303.01
303.062
303.075
303.162
303.165
303.172
303.215
303.232
303.257
303.222
303.149
303.192
303.094
303.059
303.02
302.973
302.918
302.844
345.115
346.139
347.217
347.841
348.899
349.873
350.316
350.597
351.104
350.905
351.051
350.591
350.317
349.874
349.226
348.639
347.737
346.752
345.481
344.573
338.789
339.657
340.596
341.077
342.006
342.853
343.209
343.481
343.938
343.748
343.891
343.502
343.236
342.84
342.296
341.813
341.027
340.176
339.102
338.383
332.612
333.312
334.153
334.489
335.296
335.97
336.302
336.546
336.863
336.765
336.881
336.603
336.317
335.992
335.494
335.128
334.474
333.752
332.876
332.3
326.532
327.126
327.805
328.02
328.662
329.222
329.559
329.692
329.969
329.911
329.972
329.851
329.525
329.311
328.827
328.606
328.042
327.448
326.747
326.303
320.543
321.021
321.597
321.684
322.177
322.613
322.915
322.951
323.183
323.171
323.183
323.143
322.857
322.701
322.313
322.184
321.719
321.222
320.718
320.382
314.61
314.992
315.42
315.451
315.758
316.132
316.384
316.363
316.445
316.488
316.506
316.496
316.266
316.165
315.857
315.828
315.497
315.121
314.781
314.539
308.763
308.997
309.271
309.25
309.43
309.685
309.842
309.832
309.824
309.876
309.883
309.913
309.711
309.699
309.512
309.519
309.268
309.072
308.885
308.717
302.961
303.015
303.119
303.096
303.153
303.246
303.288
303.285
303.295
303.299
303.297
303.331
303.247
303.248
303.191
303.196
303.115
303.018
302.961
302.89
346.081
347.354
348.435
349.117
350.134
350.908
351.44
351.762
352.134
352.275
352.168
352.113
351.845
351.074
350.437
349.969
349.005
347.963
346.895
345.847
339.648
340.675
341.613
342.135
343.103
343.762
344.218
344.443
344.84
344.92
344.822
344.766
344.576
343.872
343.309
342.946
342.133
341.216
340.316
339.5
333.389
334.212
334.955
335.316
336.267
336.8
337.177
337.324
337.704
337.755
337.665
337.614
337.424
336.841
336.362
336.079
335.431
334.653
333.889
333.231
327.216
327.856
328.469
328.697
329.495
329.972
330.271
330.352
330.701
330.732
330.643
330.662
330.467
329.983
329.577
329.324
328.838
328.168
327.609
327.088
321.069
321.593
322.059
322.187
322.858
323.218
323.467
323.532
323.762
323.791
323.769
323.767
323.585
323.23
322.906
322.663
322.349
321.817
321.38
321.016
315
315.366
315.7
315.824
316.249
316.549
316.719
316.797
316.947
316.92
316.929
316.906
316.817
316.536
316.298
316.103
315.939
315.508
315.252
314.952
308.988
309.207
309.37
309.464
309.744
309.911
310.02
310.081
310.172
310.132
310.116
310.143
310.11
309.88
309.74
309.615
309.571
309.285
309.126
308.955
303.019
303.085
303.127
303.151
303.276
303.313
303.365
303.395
303.392
303.392
303.37
303.392
303.38
303.299
303.267
303.215
303.192
303.109
303.039
303.002
347.312
348.294
349.305
350.257
351.18
351.74
352.655
353.081
353.438
353.473
353.398
353.323
353.104
352.509
351.655
351.239
350.145
349.088
347.998
347.19
340.707
341.545
342.36
343.17
343.984
344.468
345.24
345.602
345.914
345.973
345.916
345.852
345.659
345.113
344.361
344.033
343.061
342.188
341.304
340.623
334.297
334.916
335.557
336.244
336.997
337.358
338.002
338.311
338.554
338.626
338.599
338.515
338.382
337.921
337.278
336.981
336.191
335.456
334.736
334.147
327.936
328.4
328.917
329.437
330.094
330.427
330.875
331.218
331.354
331.426
331.395
331.336
331.23
330.886
330.404
330.046
329.456
328.878
328.264
327.848
321.617
321.989
322.375
322.759
323.292
323.585
323.911
324.179
324.252
324.354
324.347
324.279
324.195
323.959
323.611
323.258
322.829
322.395
321.874
321.599
315.394
315.684
315.92
316.187
316.629
316.817
317.012
317.223
317.268
317.334
317.367
317.269
317.236
317.098
316.855
316.598
316.243
315.938
315.607
315.421
309.215
309.414
309.542
309.682
309.994
310.121
310.191
310.298
310.363
310.422
310.406
310.315
310.33
310.294
310.106
309.959
309.72
309.553
309.376
309.271
303.094
303.142
303.201
303.238
303.353
303.4
303.421
303.441
303.441
303.492
303.487
303.462
303.448
303.455
303.407
303.336
303.268
303.199
303.12
303.117
347.974
349.153
350.278
351.52
352.365
352.983
353.856
354.149
354.601
354.558
354.603
354.533
354.38
353.731
352.87
352.239
351.226
350.038
349.391
348.289
341.244
342.256
343.238
344.31
345.042
345.525
346.259
346.541
346.936
346.915
346.923
346.885
346.726
346.193
345.473
344.908
344.014
343.03
342.436
341.615
334.693
335.532
336.333
337.223
337.84
338.287
338.855
339.12
339.431
339.439
339.397
339.372
339.252
338.83
338.239
337.782
336.985
336.167
335.687
335.064
328.265
328.957
329.575
330.273
330.764
331.163
331.603
331.837
332.109
332.086
331.993
331.998
331.94
331.623
331.13
330.774
330.092
329.409
329.082
328.57
321.934
322.39
322.911
323.437
323.839
324.123
324.448
324.692
324.898
324.932
324.772
324.738
324.773
324.499
324.11
323.872
323.309
322.77
322.536
322.157
315.651
315.969
316.291
316.723
316.993
317.172
317.402
317.6
317.752
317.802
317.658
317.603
317.659
317.454
317.186
317.017
316.624
316.235
316.062
315.795
309.396
309.59
309.776
310.007
310.228
310.304
310.411
310.561
310.656
310.649
310.581
310.542
310.61
310.487
310.325
310.192
309.968
309.721
309.643
309.468
303.145
303.217
303.258
303.375
303.425
303.45
303.484
303.537
303.577
303.561
303.551
303.529
303.527
303.517
303.462
303.415
303.336
303.267
303.229
303.156
349.117
350.181
351.127
352.232
353.331
354.068
354.804
355.214
355.514
355.597
355.335
355.404
355.42
354.765
354.016
353.252
352.133
351.057
350.11
349.186
342.253
343.144
343.958
344.904
345.866
346.504
347.101
347.483
347.687
347.786
347.564
347.631
347.686
347.095
346.433
345.814
344.85
343.89
343.1
342.333
335.508
336.259
336.946
337.733
338.57
339.126
339.596
339.977
340.043
340.211
339.938
340.03
340.076
339.638
339.033
338.546
337.689
336.923
336.271
335.653
328.897
329.539
330.047
330.71
331.414
331.864
332.22
332.584
332.579
332.707
332.423
332.513
332.614
332.272
331.78
331.405
330.651
330.031
329.542
329.057
322.388
322.871
323.235
323.756
324.364
324.724
324.952
325.259
325.268
325.323
325.069
325.128
325.272
325.051
324.602
324.397
323.733
323.226
322.88
322.516
315.948
316.303
316.568
316.903
317.369
317.615
317.781
318.017
318.002
318.057
317.917
317.885
318.022
317.858
317.491
317.395
316.92
316.55
316.298
316.009
309.526
309.779
309.932
310.124
310.419
310.575
310.676
310.8
310.841
310.791
310.772
310.728
310.821
310.719
310.485
310.437
310.189
309.909
309.774
309.573
303.184
303.276
303.337
303.382
303.493
303.517
303.565
303.613
303.642
303.598
303.611
303.612
303.634
303.604
303.489
303.502
303.412
303.335
303.285
303.203
349.84
350.81
352.132
352.943
354.282
355.129
355.684
356.098
356.374
356.697
356.465
356.483
356.096
355.726
354.994
354.245
353.311
352.208
351.133
349.805
342.89
343.712
344.822
345.506
346.695
347.383
347.9
348.244
348.529
348.745
348.514
348.574
348.209
347.952
347.291
346.663
345.868
344.894
343.973
342.869
336.036
336.781
337.663
338.231
339.283
339.799
340.301
340.542
340.837
341.024
340.761
340.822
340.521
340.378
339.76
339.272
338.513
337.725
336.985
336.11
329.301
329.984
330.636
331.128
331.99
332.374
332.842
332.972
333.271
333.381
333.142
333.195
332.967
332.908
332.38
331.993
331.364
330.713
330.085
329.435
322.696
323.23
323.704
324.123
324.777
325.086
325.463
325.567
325.797
325.849
325.685
325.693
325.495
325.506
325.086
324.83
324.306
323.834
323.323
322.823
316.185
316.572
316.863
317.23
317.679
317.851
318.18
318.202
318.409
318.414
318.33
318.246
318.163
318.168
317.901
317.717
317.322
316.964
316.592
316.223
309.718
309.946
310.085
310.385
310.582
310.694
310.899
310.932
311.024
311.06
310.988
310.924
310.911
310.932
310.75
310.607
310.417
310.136
309.955
309.715
303.275
303.348
303.374
303.49
303.542
303.571
303.666
303.671
303.679
303.706
303.661
303.659
303.672
303.664
303.6
303.536
303.499
303.396
303.339
303.236
350.647
351.616
352.759
353.926
354.993
355.83
356.635
356.879
357.173
357.609
357.498
357.278
356.787
356.658
356
355.116
354.067
352.873
351.764
350.521
343.635
344.423
345.386
346.348
347.283
347.983
348.702
348.958
349.154
349.52
349.416
349.267
348.786
348.772
348.195
347.381
346.496
345.463
344.528
343.438
336.743
337.339
338.157
338.944
339.749
340.316
340.962
341.161
341.297
341.625
341.533
341.422
340.995
340.996
340.576
339.817
339.088
338.2
337.483
336.57
329.92
330.385
331.044
331.685
332.33
332.834
333.378
333.531
333.553
333.906
333.825
333.672
333.363
333.357
333.037
332.433
331.792
331.122
330.523
329.837
323.155
323.555
324.037
324.544
325.061
325.433
325.853
325.957
325.948
326.256
326.191
326.049
325.862
325.847
325.602
325.122
324.589
324.103
323.69
323.172
316.489
316.819
317.128
317.478
317.906
318.137
318.409
318.456
318.426
318.66
318.689
318.57
318.443
318.408
318.239
317.9
317.523
317.164
316.878
316.538
309.874
310.086
310.254
310.474
310.734
310.884
311.044
311.05
311.035
311.151
311.219
311.146
311.06
311.003
310.953
310.718
310.491
310.299
310.102
309.916
303.315
303.343
303.439
303.517
303.595
303.659
303.724
303.717
303.684
303.73
303.75
303.735
303.69
303.692
303.676
303.574
303.506
303.444
303.362
303.316
351.046
352.42
353.504
354.635
355.646
356.523
357.176
357.675
358.13
358.328
358.149
358.219
357.756
357.415
356.762
355.777
354.51
353.49
352.406
351.03
343.972
345.069
345.99
347.002
347.802
348.55
349.14
349.563
349.949
350.161
349.986
350.085
349.638
349.395
348.826
347.935
346.871
345.989
345.074
343.887
337.014
337.847
338.674
339.497
340.157
340.744
341.286
341.63
341.939
342.21
342.025
342.111
341.712
341.553
341.041
340.307
339.418
338.693
337.924
336.975
330.151
330.788
331.498
332.128
332.685
333.147
333.622
333.832
334.092
334.4
334.186
334.27
333.95
333.853
333.405
332.847
332.09
331.477
330.916
330.137
323.353
323.862
324.421
324.866
325.339
325.684
326.036
326.147
326.375
326.64
326.476
326.53
326.334
326.291
325.903
325.447
324.848
324.427
323.988
323.364
316.641
316.995
317.436
317.67
318.059
318.332
318.561
318.569
318.783
318.971
318.888
318.882
318.748
318.776
318.474
318.148
317.715
317.409
317.109
316.692
309.976
310.174
310.469
310.546
310.861
311.041
311.126
311.122
311.273
311.337
311.339
311.291
311.238
311.288
311.097
310.849
310.608
310.464
310.275
310.008
303.35
303.395
303.497
303.532
303.633
303.712
303.719
303.723
303.787
303.794
303.788
303.766
303.767
303.809
303.707
303.625
303.564
303.497
303.442
303.328
351.364
352.672
353.642
355.199
356.265
357.235
357.79
358.333
358.764
358.929
358.96
358.745
358.305
357.761
357.191
356.435
355.278
354.199
353.001
351.717
344.206
345.284
346.122
347.46
348.336
349.2
349.689
350.16
350.55
350.67
350.67
350.5
350.12
349.654
349.161
348.556
347.523
346.618
345.577
344.523
337.179
338.092
338.769
339.918
340.623
341.362
341.768
342.197
342.538
342.582
342.553
342.444
342.158
341.75
341.294
340.821
339.982
339.244
338.341
337.491
330.299
331.042
331.566
332.505
333.088
333.658
334.007
334.371
334.631
334.61
334.637
334.522
334.313
333.984
333.573
333.208
332.525
331.938
331.224
330.566
323.488
324.108
324.455
325.16
325.608
326.079
326.388
326.68
326.845
326.762
326.85
326.777
326.593
326.344
326.018
325.687
325.163
324.752
324.173
323.714
316.755
317.196
317.423
317.927
318.226
318.595
318.792
319.017
319.119
319.037
319.127
319.111
318.935
318.787
318.534
318.304
317.95
317.637
317.29
316.913
310.044
310.325
310.452
310.741
310.897
311.128
311.257
311.43
311.452
311.436
311.432
311.479
311.33
311.268
311.114
310.965
310.78
310.572
310.395
310.144
303.378
303.455
303.491
303.615
303.643
303.731
303.765
303.826
303.839
303.845
303.842
303.842
303.784
303.78
303.714
303.675
303.609
303.541
303.499
303.379
351.783
352.958
354.142
355.498
356.703
357.626
358.267
358.912
359.373
359.588
359.463
359.11
358.991
358.409
357.761
357
355.804
354.703
353.475
352.365
344.532
345.524
346.491
347.732
348.758
349.496
350.125
350.661
351.035
351.232
351.099
350.856
350.676
350.224
349.651
349.025
347.98
347.046
346.038
345.054
337.456
338.28
339.072
340.161
341.007
341.591
342.101
342.597
342.891
343.082
342.939
342.77
342.62
342.221
341.722
341.163
340.398
339.589
338.787
337.945
330.51
331.161
331.808
332.662
333.41
333.807
334.227
334.659
334.939
335.069
334.922
334.844
334.663
334.381
333.937
333.468
332.904
332.237
331.581
330.904
323.657
324.154
324.641
325.258
325.93
326.143
326.503
326.867
327.098
327.156
327.09
327.008
326.835
326.618
326.307
325.896
325.466
324.986
324.466
323.935
316.9
317.227
317.515
318.007
318.5
318.612
318.854
319.124
319.275
319.299
319.336
319.236
319.093
318.98
318.736
318.424
318.126
317.829
317.433
317.004
310.143
310.341
310.501
310.777
311.086
311.163
311.262
311.436
311.566
311.614
311.592
311.506
311.414
311.378
311.232
311.034
310.865
310.719
310.433
310.181
303.42
303.449
303.514
303.61
303.696
303.741
303.743
303.828
303.867
303.904
303.877
303.853
303.819
303.811
303.749
303.696
303.648
303.593
303.498
303.417
352.156
353.266
354.409
355.879
357.056
358.158
358.66
359.247
359.677
359.881
359.753
359.651
359.289
358.784
358.06
357.407
356.405
355.024
353.901
352.667
344.861
345.781
346.768
348.06
349.071
350.036
350.465
350.937
351.332
351.507
351.382
351.274
350.998
350.538
349.946
349.355
348.51
347.313
346.372
345.307
337.713
338.486
339.34
340.414
341.267
342.087
342.449
342.796
343.161
343.274
343.211
343.12
342.918
342.52
341.995
341.509
340.77
339.768
339.03
338.114
330.659
331.378
332.009
332.918
333.582
334.271
334.547
334.803
335.145
335.231
335.171
335.124
334.958
334.62
334.204
333.768
333.199
332.391
331.824
331.03
323.719
324.288
324.821
325.493
325.995
326.589
326.76
326.911
327.193
327.319
327.227
327.233
327.093
326.823
326.483
326.15
325.744
325.104
324.689
324.047
316.89
317.315
317.697
318.18
318.469
318.936
319.055
319.141
319.339
319.469
319.411
319.422
319.265
319.122
318.872
318.627
318.359
317.874
317.622
317.134
310.105
310.413
310.632
310.912
311.038
311.376
311.429
311.444
311.556
311.691
311.672
311.655
311.553
311.485
311.332
311.18
311.001
310.689
310.571
310.282
303.391
303.489
303.567
303.653
303.696
303.817
303.843
303.817
303.87
303.915
303.918
303.886
303.879
303.843
303.806
303.745
303.683
303.56
303.564
303.453
352.552
353.546
354.808
356.151
357.246
358.28
358.993
359.634
360.037
359.963
360.238
360.085
359.646
359.31
358.444
357.356
356.511
355.257
354.158
353.077
345.242
346.027
347.113
348.303
349.202
350.105
350.728
351.259
351.641
351.583
351.817
351.63
351.296
351.011
350.324
349.374
348.599
347.522
346.576
345.692
338.018
338.712
339.616
340.621
341.336
342.153
342.601
343.092
343.433
343.416
343.576
343.362
343.141
342.908
342.366
341.543
340.922
339.93
339.164
338.414
330.918
331.498
332.27
333.069
333.629
334.331
334.643
335.086
335.354
335.314
335.403
335.278
335.123
334.936
334.487
333.796
333.325
332.48
331.882
331.288
323.956
324.358
325.017
325.634
326.046
326.619
326.816
327.19
327.366
327.379
327.38
327.321
327.2
327.132
326.694
326.19
325.812
325.17
324.718
324.263
317.065
317.369
317.813
318.26
318.532
318.985
319.109
319.376
319.426
319.531
319.491
319.459
319.416
319.365
319
318.671
318.411
317.942
317.634
317.292
310.216
310.431
310.654
310.922
311.064
311.427
311.471
311.614
311.619
311.686
311.699
311.67
311.616
311.597
311.381
311.172
311.041
310.775
310.565
310.335
303.41
303.495
303.552
303.644
303.709
303.821
303.834
303.897
303.896
303.889
303.929
303.918
303.879
303.887
303.81
303.709
303.718
303.627
303.528
303.452
)
;

boundaryField
{
    hotSide
    {
        type            fixedGradient;
        gradient        nonuniform List<scalar> 
400
(
400.334
416.401
432.222
447.728
462.847
477.508
491.64
505.174
518.042
530.18
541.526
552.02
561.608
570.239
577.869
584.456
589.967
594.373
597.651
599.785
410.732
427.317
443.653
459.669
475.291
490.444
505.056
519.056
532.373
544.941
556.695
567.573
577.52
586.484
594.416
601.275
607.026
611.638
615.088
617.359
420.012
437.075
453.887
470.375
486.461
502.071
517.129
531.561
545.296
558.264
570.399
581.638
591.922
601.197
609.415
616.532
622.511
627.321
630.937
633.342
428.118
445.614
462.859
479.775
496.286
512.312
527.778
542.606
556.725
570.061
582.547
594.118
604.714
614.279
622.762
630.12
636.314
641.311
645.086
647.62
435.003
452.885
470.515
487.815
504.704
521.104
536.936
552.121
566.585
580.254
593.058
604.931
615.81
625.64
634.367
641.947
648.34
653.511
657.436
660.095
440.629
458.846
476.812
494.447
511.668
528.395
544.548
560.047
574.816
588.779
601.865
614.006
625.139
635.206
644.153
651.933
658.507
663.839
667.903
670.678
444.969
463.469
481.718
499.635
517.138
534.143
550.57
566.338
581.368
595.584
608.913
621.287
632.64
642.914
652.054
660.013
666.748
672.224
676.414
679.298
448.004
466.731
485.209
503.355
521.086
538.318
554.969
570.958
586.203
600.629
614.161
626.729
638.268
648.717
658.022
666.133
673.008
678.611
682.914
685.896
449.725
468.621
487.27
505.59
523.494
540.9
557.724
573.883
589.296
603.886
617.578
630.301
641.988
652.579
662.018
670.255
677.246
682.957
687.358
690.426
450.13
469.136
487.899
506.333
524.355
541.88
558.822
575.1
590.631
605.339
619.146
631.982
643.779
654.477
664.018
672.352
679.437
685.234
689.716
692.859
449.224
468.281
487.097
505.589
523.67
541.256
558.263
574.607
590.206
604.982
618.859
631.765
643.632
654.4
664.01
672.413
679.564
685.427
689.972
693.177
447.021
466.068
484.877
503.366
521.448
539.039
556.055
572.411
588.026
602.821
616.721
629.653
641.55
652.35
661.996
670.437
677.629
683.535
688.125
691.376
443.541
462.516
481.259
499.685
517.709
535.248
552.216
568.53
584.109
598.873
612.749
625.663
637.548
648.342
657.989
666.437
673.643
679.568
684.184
687.468
438.809
457.653
476.268
494.572
512.48
529.909
546.773
562.991
578.481
593.166
606.97
619.821
631.653
642.403
652.016
660.44
667.632
673.554
678.176
681.477
432.86
451.512
469.94
488.063
505.797
523.058
539.764
555.832
571.182
585.737
599.422
612.167
623.904
634.572
644.116
652.485
659.635
665.53
670.14
673.442
425.733
444.134
462.317
480.202
497.704
514.742
531.235
547.1
562.259
576.636
590.156
602.75
614.352
624.9
634.341
642.624
649.705
655.55
660.127
663.415
417.473
435.567
453.449
471.038
488.254
505.015
521.241
536.853
551.772
565.922
579.232
591.633
603.06
613.452
622.756
630.923
637.909
643.68
648.206
651.464
408.135
425.867
443.392
460.633
477.508
493.94
509.849
525.157
539.788
553.667
566.724
578.891
590.104
600.305
609.44
617.461
624.327
630.001
634.457
637.67
397.778
415.095
432.212
449.052
465.538
481.591
497.134
512.092
526.389
539.953
552.715
564.608
575.571
585.547
594.482
602.33
609.05
614.608
618.975
622.13
386.468
403.322
419.982
436.373
452.421
468.048
483.18
497.743
511.663
524.872
537.3
548.884
559.563
569.281
577.987
585.636
592.187
597.608
601.87
604.954
)
;
    }
    coldSide
    {
        type            mixed;
        refValue        uniform 300;
        refGradient     uniform 0;
        valueFraction   uniform 0.991591;
        source          uniform 0;
        value           nonuniform List<scalar> 
400
(
300.019
300.02
300.021
300.021
300.022
300.023
300.023
300.024
300.025
300.025
300.026
300.026
300.027
300.028
300.028
300.028
300.028
300.029
300.029
300.029
300.02
300.02
300.021
300.022
300.022
300.023
300.024
300.025
300.025
300.026
300.026
300.027
300.028
300.028
300.028
300.029
300.029