/*--------------------------------*- C++ -*----------------------------------*\
| =========                 |                                                 |
| \\      /  F ield         | OpenFOAM: The Open Source CFD Toolbox           |
|  \\    /   O peration     | Version:  2212                                  |
|   \\  /    A nd           | Website:  www.openfoam.com                      |
|    \\/     M anipulation  |                                                 |
\*---------------------------------------------------------------------------*/
FoamFile
{
    version     2.0;
    format      ascii;
    arch        "LSB;label=32;scalar=64";
    class       volScalarField;
    location    "0";
    object      T;
}
// * * * * * * * * * * * * * * * * * * * * * * * * * * * * * * * * * * * * * //

dimensions      [0 0 0 1 0 0 0];

internalField   nonuniform List<scalar> 
3200
(
348.105
349.076
350.247
351.056
352.17
352.663
353.189
353.667
353.824
354.125
354.095
353.861
353.674
352.706
352.299
351.673
350.908
349.859
348.719
347.851
341.775
342.546
343.558
344.268
345.28
345.717
346.091
346.552
346.691
346.969
346.902
346.743
346.548
345.718
345.3
344.859
344.209
343.267
342.325
341.555
335.435
336.043
336.873
337.475
338.395
338.677
339.019
339.45
339.544
339.786
339.712
339.596
339.376
338.699
338.311
338.026
337.465
336.674
335.903
335.189
329.031
329.466
330.179
330.675
331.467
331.666
331.918
332.305
332.353
332.565
332.479
332.449
332.219
331.677
331.365
331.13
330.68
330.079
329.428
328.809
322.588
322.935
323.462
323.872
324.512
324.669
324.776
325.171
325.212
325.341
325.224
325.258
325.035
324.646
324.432
324.185
323.903
323.409
322.984
322.385
316.122
316.386
316.747
317.058
317.514
317.636
317.73
318.055
318.072
318.098
318.001
318.08
317.896
317.575
317.462
317.31
317.122
316.728
316.459
315.987
309.657
309.825
310.037
310.248
310.485
310.578
310.668
310.907
310.88
310.841
310.838
310.849
310.762
310.539
310.487
310.383
310.313
310.041
309.868
309.632
303.231
303.272
303.347
303.434
303.496
303.542
303.586
303.663
303.639
303.63
303.648
303.646
303.612
303.539
303.514
303.486
303.46
303.365
303.291
303.234
349.358
350.299
351.312
352.283
353.319
353.821
354.382
354.807
355.048
355.509
355.238
355.116
354.603
354.103
353.605
353.035
351.975
350.703
349.815
348.839
342.762
343.56
344.47
345.251
346.187
346.651
347.072
347.495
347.692
348.135
347.893
347.766
347.344
346.86
346.414
345.98
345.103
343.964
343.187
342.374
336.175
336.826
337.628
338.287
339.069
339.484
339.768
340.192
340.345
340.696
340.582
340.429
340.048
339.631
339.247
338.886
338.235
337.223
336.568
335.895
329.572
330.119
330.791
331.337
331.972
332.369
332.517
332.912
333.009
333.294
333.21
333.077
332.744
332.346
332.073
331.812
331.299
330.435
329.939
329.341
322.961
323.392
323.948
324.373
324.862
325.238
325.273
325.621
325.679
325.881
325.831
325.711
325.442
325.097
324.908
324.737
324.371
323.664
323.334
322.82
316.382
316.668
317.096
317.432
317.753
318.056
318.07
318.28
318.324
318.475
318.454
318.358
318.147
317.903
317.778
317.666
317.415
316.911
316.663
316.302
309.845
309.973
310.255
310.472
310.687
310.855
310.871
310.965
310.993
311.087
311.109
311.005
310.921
310.748
310.671
310.613
310.48
310.15
310.013
309.786
303.303
303.328
303.453
303.521
303.593
303.645
303.631
303.692
303.682
303.734
303.702
303.701
303.674
303.605
303.557
303.57
303.539
303.388
303.372
303.29
350.816
351.841
352.698
353.659
354.769
355.424
355.988
356.386
356.809
357.018
356.857
356.863
356.42
355.779
355.022
354.403
353.709
352.397
351.359
350.256
344.044
344.882
345.644
346.49
347.452
348.014
348.449
348.823
349.182
349.372
349.234
349.232
348.874
348.264
347.674
347.102
346.508
345.364
344.494
343.559
337.275
337.919
338.619
339.357
340.157
340.61
340.959
341.302
341.591
341.723
341.624
341.608
341.356
340.794
340.321
339.817
339.312
338.298
337.61
336.842
330.51
331.047
331.636
332.246
332.844
333.187
333.5
333.775
333.995
334.098
334.004
333.994
333.822
333.354
333
332.555
332.178
331.318
330.741
330.123
323.728
324.123
324.614
325.154
325.532
325.804
326.065
326.241
326.416
326.526
326.434
326.429
326.278
325.931
325.725
325.335
325.054
324.334
323.899
323.429
316.951
317.235
317.599
317.991
318.238
318.457
318.612
318.738
318.843
318.92
318.89
318.881
318.778
318.535
318.377
318.12
317.91
317.372
317.071
316.743
310.178
310.325
310.574
310.796
310.948
311.078
311.13
311.268
311.321
311.363
311.369
311.358
311.294
311.129
311.029
310.85
310.744
310.43
310.242
310.084
303.397
303.453
303.524
303.625
303.68
303.713
303.727
303.784
303.79
303.808
303.817
303.818
303.817
303.74
303.678
303.626
303.608
303.5
303.412
303.401
352.141
353.124
354.319
355.367
356.548
357.127
357.755
358.174
358.802
358.857
358.571
358.497
358.32
357.641
356.784
355.857
355.113
354.104
352.945
351.813
345.181
345.988
347.007
347.965
348.958
349.484
349.97
350.343
350.946
350.988
350.713
350.611
350.508
349.905
349.165
348.356
347.666
346.83
345.859
344.874
338.242
338.864
339.774
340.579
341.376
341.817
342.217
342.554
343.068
343.088
342.872
342.755
342.711
342.165
341.601
340.879
340.271
339.609
338.769
337.954
331.258
331.806
332.568
333.181
333.817
334.165
334.517
334.754
335.218
335.212
335.01
334.94
334.9
334.461
334.052
333.368
332.882
332.393
331.694
331.028
324.268
324.738
325.333
325.802
326.236
326.576
326.833
327.012
327.372
327.399
327.173
327.144
327.116
326.794
326.526
325.951
325.512
325.178
324.637
324.101
317.291
317.662
318.114
318.431
318.729
318.992
319.176
319.298
319.506
319.584
319.409
319.406
319.368
319.133
318.992
318.553
318.239
317.97
317.583
317.215
310.334
310.607
310.897
311.056
311.258
311.394
311.512
311.574
311.708
311.76
311.651
311.672
311.611
311.538
311.429
311.137
310.971
310.785
310.583
310.357
303.462
303.549
303.657
303.693
303.788
303.819
303.862
303.877
303.928
303.957
303.907
303.91
303.892
303.876
303.839
303.733
303.674
303.602
303.55
303.498
353.488
354.715
356.087
357.235
358.278
358.725
359.54
359.931
360.373
360.549
360.544
360.249
360.188
359.561
358.675
357.672
356.782
355.884
354.449
353.269
346.323
347.369
348.518
349.514
350.476
350.841
351.519
351.848
352.28
352.392
352.416
352.132
352.083
351.582
350.8
349.927
349.111
348.359
347.123
346.129
339.169
340.011
340.988
341.818
342.675
342.959
343.532
343.754
344.206
344.278
344.336
344.07
344.023
343.581
342.95
342.228
341.491
340.856
339.82
339.012
332.046
332.66
333.524
334.179
334.896
335.093
335.58
335.737
336.14
336.167
336.241
336.047
335.993
335.663
335.069
334.549
333.94
333.371
332.564
331.918
324.94
325.355
326.062
326.596
327.142
327.256
327.633
327.776
328.069
328.108
328.165
328.067
327.988
327.747
327.246
326.874
326.355
325.951
325.322
324.835
317.846
318.082
318.621
319.004
319.383
319.455
319.676
319.832
320.026
320.088
320.123
320.059
320.002
319.813
319.44
319.221
318.824
318.546
318.097
317.771
310.688
310.836
311.213
311.419
311.618
311.716
311.771
311.902
311.999
312.046
312.051
312.069
311.978
311.892
311.622
311.548
311.305
311.159
310.866
310.65
303.589
303.633
303.766
303.837
303.885
303.926
303.929
303.994
304.006
304.037
304.031
304.049
304.018
303.986
303.877
303.889
303.805
303.747
303.637
303.574
354.907
356.146
357.686
358.908
359.946
360.653
361.304
361.702
362.107
362.335
362.309
362.057
361.826
361.076
360.375
359.297
358.417
357.278
355.898
354.833
347.527
348.584
349.927
350.95
351.889
352.498
353.022
353.386
353.747
353.962
353.944
353.706
353.493
352.83
352.243
351.295
350.567
349.55
348.412
347.474
340.169
341.093
342.174
343.031
343.886
344.361
344.765
345.153
345.481
345.595
345.568
345.419
345.233
344.665
344.144
343.351
342.696
341.831
340.934
340.154
332.849
333.589
334.501
335.133
335.867
336.228
336.549
336.901
337.173
337.273
337.213
337.126
336.998
336.521
336.044
335.426
334.877
334.175
333.431
332.868
325.572
326.075
326.821
327.325
327.869
328.165
328.346
328.668
328.87
328.979
328.911
328.815
328.764
328.396
327.975
327.545
327.088
326.579
326
325.577
318.29
318.617
319.154
319.499
319.899
320.125
320.234
320.482
320.589
320.709
320.599
320.555
320.559
320.287
319.939
319.67
319.314
318.975
318.52
318.282
311.039
311.166
311.482
311.699
311.961
312.107
312.159
312.295
312.366
312.453
312.365
312.322
312.324
312.144
311.942
311.786
311.639
311.377
311.111
310.956
303.707
303.756
303.845
303.909
304.017
304.064
304.07
304.111
304.149
304.196
304.146
304.138
304.12
304.054
304.003
303.947
303.913
303.818
303.723
303.668
356.622
357.849
358.987
360.48
361.314
362.13
362.786
363.236
363.537
364.039
363.923
363.744
363.359
362.586
362.114
361.001
360.082
358.85
357.551
356.371
349.038
350.049
351.063
352.362
353.028
353.754
354.338
354.731
355.021
355.464
355.35
355.189
354.86
354.125
353.72
352.804
351.961
350.925
349.857
348.832
341.444
342.27
343.124
344.223
344.782
345.418
345.929
346.273
346.526
346.949
346.79
346.626
346.378
345.684
345.431
344.598
343.895
343.037
342.208
341.329
333.913
334.528
335.245
336.144
336.573
337.11
337.53
337.816
338.066
338.432
338.245
338.121
337.903
337.338
337.15
336.424
335.859
335.156
334.554
333.827
326.394
326.851
327.368
328.071
328.448
328.86
329.155
329.401
329.623
329.925
329.696
329.621
329.44
329.011
328.846
328.28
327.871
327.33
326.887
326.268
318.857
319.192
319.54
320.019
320.358
320.613
320.832
321.011
321.173
321.378
321.198
321.157
321.004
320.732
320.542
320.13
319.906
319.491
319.239
318.731
311.314
311.529
311.751
312.002
312.224
312.383
312.514
312.572
312.697
312.862
312.724
312.69
312.575
312.457
312.297
312.007
311.95
311.721
311.593
311.225
303.788
303.848
303.951
304.022
304.085
304.146
304.198
304.205
304.243
304.327
304.248
304.263
304.208
304.184
304.116
304.011
304.011
303.926
303.899
303.738
358.005
359.3
360.429
361.951
362.8
363.741
364.552
365.027
365.31
365.489
365.349
365.505
364.997
364.256
363.604
362.724
361.462
360.358
358.934
357.679
350.205
351.323
352.304
353.652
354.366
355.205
355.867
356.271
356.539
356.704
356.55
356.745
356.258
355.606
355.091
354.267
353.203
352.275
351.006
349.961
342.447
343.365
344.182
345.363
345.982
346.66
347.23
347.559
347.779
347.926
347.815
347.991
347.547
346.968
346.551
345.806
344.961
344.2
343.092
342.281
334.743
335.425
336.089
337.085
337.593
338.148
338.584
338.87
339.041
339.207
339.065
339.245
338.867
338.4
338.072
337.441
336.769
336.121
335.203
334.638
327.039
327.529
328.055
328.813
329.243
329.694
329.973
330.218
330.384
330.473
330.369
330.516
330.237
329.845
329.609
329.114
328.577
328.076
327.366
326.983
319.296
319.684
320.037
320.547
320.889
321.205
321.388
321.569
321.693
321.744
321.705
321.776
321.609
321.307
321.22
320.783
320.372
320.049
319.576
319.291
311.569
311.817
312.045
312.348
312.537
312.724
312.852
312.906
313.031
313.042
313.024
313.08
312.951
312.792
312.769
312.441
312.236
312.038
311.78
311.587
303.874
303.945
304.012
304.125
304.206
304.262
304.34
304.325
304.368
304.364
304.359
304.375
304.348
304.282
304.304
304.162
304.083
304.037
303.945
303.881
359.339
360.636
361.829
363.155
364.182
365.362
366.237
366.77
367.01
367.165
367.053
367.008
366.323
365.707
365.247
364.017
362.962
361.924
360.441
359.215
351.429
352.512
353.501
354.693
355.538
356.63
357.329
357.823
358.015
358.158
358
358
357.407
356.836
356.462
355.377
354.501
353.651
352.361
351.266
343.5
344.38
345.165
346.245
346.946
347.869
348.439
348.864
349.027
349.16
348.985
349.032
348.504
348.036
347.74
346.762
346.1
345.382
344.28
343.379
335.578
336.274
336.908
337.797
338.419
339.121
339.584
339.875
340.027
340.194
340.043
340.088
339.634
339.268
339.063
338.187
337.68
337.149
336.192
335.472
327.687
328.218
328.71
329.36
329.895
330.414
330.732
330.964
331.068
331.205
331.086
331.165
330.746
330.497
330.353
329.658
329.279
328.91
328.107
327.547
319.8
320.147
320.514
320.954
321.337
321.72
321.907
322.115
322.177
322.248
322.195
322.246
321.942
321.82
321.694
321.187
320.9
320.655
320.089
319.659
311.865
312.064
312.335
312.61
312.825
313.085
313.117
313.3
313.306
313.342
313.319
313.354
313.196
313.099
313.044
312.719
312.55
312.388
312.055
311.838
303.981
304.055
304.127
304.226
304.306
304.384
304.382
304.452
304.46
304.481
304.456
304.478
304.422
304.39
304.381
304.288
304.198
304.146
304.036
303.961
360.623
361.879
363.224
364.492
365.766
366.85
367.466
368.031
368.405
368.63
368.55
368.27
367.754
367.052
366.493
365.336
364.411
363.22
361.625
360.328
352.503
353.604
354.704
355.788
356.909
357.858
358.443
358.88
359.211
359.428
359.288
359.115
358.591
358.025
357.529
356.532
355.749
354.709
353.363
352.299
344.409
345.333
346.218
347.145
348.054
348.947
349.444
349.767
350.036
350.239
350.044
349.977
349.467
348.983
348.624
347.759
347.131
346.251
345.107
344.25
336.374
337.07
337.739
338.483
339.269
339.976
340.431
340.666
340.917
341.062
340.882
340.856
340.416
340.05
339.752
339.018
338.544
337.811
336.875
336.21
328.303
328.815
329.323
329.847
330.501
330.998
331.415
331.603
331.788
331.913
331.702
331.746
331.379
331.149
330.904
330.367
329.95
329.378
328.65
328.198
320.219
320.592
320.99
321.289
321.787
322.09
322.431
322.55
322.689
322.762
322.593
322.699
322.395
322.228
322.104
321.716
321.407
320.966
320.462
320.174
312.156
312.375
312.591
312.75
313.116
313.242
313.474
313.542
313.608
313.67
313.573
313.608
313.437
313.311
313.294
313.041
312.858
312.543
312.31
312.127
304.085
304.152
304.227
304.275
304.426
304.429
304.504
304.509
304.567
304.577
304.542
304.538
304.499
304.455
304.461
304.373
304.299
304.193
304.112
304.048
361.593
362.978
364.354
365.588
366.774
368.045
368.916
369.219
369.727
369.767
369.978
369.673
369.199
368.524
367.875
366.647
365.752
364.372
362.7
361.543
353.335
354.508
355.709
356.757
357.757
358.899
359.625
359.87
360.385
360.403
360.563
360.216
359.901
359.312
358.786
357.649
356.939
355.689
354.266
353.257
345.077
346.037
347.107
347.973
348.748
349.778
350.355
350.546
351.043
351.034
351.19
350.851
350.641
350.143
349.701
348.708
348.102
347.022
345.876
344.987
336.861
337.579
338.533
339.217
339.819
340.643
341.154
341.294
341.733
341.731
341.826
341.52
341.374
341.008
340.598
339.803
339.288
338.419
337.527
336.778
328.679
329.196
329.989
330.517
330.926
331.6
331.989
332.074
332.449
332.452
332.465
332.242
332.169
331.919
331.538
330.906
330.492
329.839
329.202
328.599
320.481
320.844
321.432
321.821
322.085
322.556
322.851
322.899
323.19
323.203
323.212
322.977
322.985
322.808
322.541
322.072
321.765
321.291
320.873
320.422
312.277
312.529
312.865
313.105
313.273
313.535
313.756
313.74
313.904
313.933
313.936
313.778
313.808
313.736
313.559
313.216
313.062
312.783
312.558
312.251
304.112
304.212
304.334
304.387
304.436
304.545
304.629
304.608
304.647
304.66
304.673
304.607
304.629
304.613
304.549
304.425
304.345
304.278
304.217
304.086
362.762
363.902
365.425
366.821
367.949
369.047
369.805
370.54
371.113
371.136
371.292
370.875
370.22
369.663
369.116
368.016
366.891
365.451
364.002
362.735
354.36
355.322
356.616
357.848
358.763
359.778
360.427
361.056
361.541
361.547
361.7
361.331
360.787
360.229
359.823
358.876
357.885
356.623
355.41
354.353
346.007
346.762
347.844
348.923
349.648
350.514
351.098
351.601
352.041
351.998
352.153
351.835
351.379
350.901
350.59
349.717
348.944
347.839
346.834
345.986
337.637
338.239
339.115
339.994
340.571
341.288
341.753
342.153
342.522
342.548
342.639
342.36
341.985
341.593
341.36
340.658
340.019
339.076
338.305
337.613
329.283
329.769
330.428
331.12
331.501
332.102
332.466
332.737
333.039
333.133
333.168
332.897
332.622
332.289
332.179
331.589
331.123
330.375
329.787
329.244
320.945
321.27
321.735
322.229
322.512
322.925
323.197
323.357
323.57
323.712
323.685
323.462
323.284
323.078
322.972
322.56
322.256
321.729
321.312
320.889
312.564
312.755
313.042
313.305
313.527
313.757
313.951
314.006
314.136
314.259
314.216
314.075
313.98
313.882
313.783
313.54
313.374
313.077
312.8
312.564
304.211
304.265
304.355
304.445
304.525
304.608
304.675
304.696
304.721
304.796
304.78
304.711
304.692
304.659
304.644
304.528
304.488
304.376
304.3
304.216
363.631
364.943
366.442
367.807
369.118
369.963
370.873
371.561
371.973
372.366
372.333
372.079
371.505
370.594
370.061
368.854
367.897
366.597
364.899
363.679
355.116
356.23
357.538
358.68
359.829
360.56
361.327
361.948
362.316
362.636
362.639
362.4
361.914
361.059
360.651
359.628
358.758
357.664
356.199
355.166
346.615
347.574
348.63
349.61
350.577
351.212
351.833
352.369
352.699
352.962
352.962
352.702
352.352
351.569
351.24
350.421
349.641
348.748
347.54
346.662
338.12
338.915
339.764
340.554
341.337
341.856
342.325
342.793
343.079
343.317
343.273
343.046
342.829
342.15
341.864
341.176
340.537
339.843
338.891
338.162
329.637
330.256
330.951
331.531
332.093
332.552
332.845
333.269
333.506
333.681
333.622
333.443
333.273
332.775
332.541
331.999
331.485
330.923
330.255
329.688
321.166
321.607
322.125
322.512
322.94
323.266
323.444
323.774
323.926
324.093
323.997
323.88
323.714
323.418
323.202
322.845
322.452
322.099
321.597
321.195
312.683
312.96
313.282
313.496
313.812
313.974
314.098
314.291
314.37
314.464
314.399
314.354
314.215
314.058
313.903
313.733
313.471
313.263
312.931
312.747
304.268
304.344
304.456
304.53
304.641
304.687
304.705
304.796
304.82
304.854
304.81
304.829
304.756
304.701
304.672
304.595
304.519
304.458
304.338
304.28
364.493
365.985
367.361
368.831
370.049
370.933
371.808
372.586
373.012
373.102
373.202
372.968
372.424
371.621
371.166
369.809
368.829
367.202
365.913
364.421
355.865
357.134
358.335
359.529
360.568
361.428
362.136
362.786
363.179
363.291
363.315
363.14
362.671
361.955
361.587
360.395
359.574
358.158
357.084
355.847
347.254
348.292
349.299
350.32
351.148
351.91
352.54
353.021
353.325
353.505
353.492
353.371
352.955
352.373
352.024
351.029
350.31
349.135
348.283
347.279
338.634
339.473
340.291
341.117
341.795
342.423
342.974
343.358
343.563
343.732
343.694
343.627
343.325
342.82
342.493
341.682
341.109
340.129
339.477
338.692
330.084
330.691
331.3
331.99
332.454
332.976
333.429
333.681
333.859
334.004
333.925
333.929
333.694
333.288
332.998
332.373
331.92
331.167
330.652
330.07
321.509
321.884
322.352
322.825
323.148
323.595
323.875
324.062
324.214
324.318
324.201
324.284
324.094
323.773
323.566
323.101
322.746
322.241
321.842
321.476
312.931
313.16
313.417
313.679
313.899
314.161
314.34
314.454
314.556
314.606
314.518
314.637
314.489
314.306
314.153
313.857
313.617
313.363
313.126
312.868
304.327
304.416
304.484
304.58
304.643
304.727
304.812
304.825
304.885
304.881
304.873
304.899
304.854
304.768
304.749
304.643
304.559
304.464
304.419
304.314
365.394
366.614
368.329
369.669
370.896
372.003
372.595
373.587
373.896
374.082
374.004
373.688
373.451
372.703
372.069
370.813
369.5
367.993
366.91
365.155
356.659
357.655
359.179
360.285
361.313
362.291
362.797
363.686
363.922
364.129
364.02
363.736
363.535
362.91
362.37
361.29
360.151
358.852
357.948
356.42
347.895
348.715
350.018
350.93
351.763
352.664
353.074
353.822
353.991
354.204
354.091
353.85
353.693
353.165
352.718
351.753
350.853
349.745
349.018
347.713
339.174
339.8
340.874
341.618
342.228
343.018
343.388
343.99
344.12
344.313
344.208
344.007
343.867
343.428
343.114
342.283
341.546
340.654
340.084
339.037
330.498
330.918
331.747
332.338
332.771
333.435
333.695
334.209
334.27
334.459
334.336
334.198
334.08
333.72
333.52
332.844
332.278
331.605
331.169
330.358
321.793
322.082
322.634
323.087
323.361
323.868
324.047
324.432
324.467
324.591
324.479
324.385
324.369
324.092
323.922
323.443
323.082
322.589
322.238
321.728
313.073
313.27
313.609
313.851
313.984
314.329
314.439
314.668
314.73
314.744
314.651
314.625
314.653
314.475
314.354
314.076
313.873
313.551
313.351
313.051
304.377
304.432
304.561
304.654
304.679
304.793
304.837
304.913
304.93
304.936
304.931
304.89
304.9
304.869
304.816
304.707
304.678
304.54
304.473
304.369
365.899
367.192
368.736
370.169
371.402
372.45
373.315
374.094
374.552
374.85
374.527
374.3
374.114
373.4
372.764
371.61
370.298
368.804
367.325
365.83
357.062
358.169
359.514
360.773
361.74
362.73
363.453
364.071
364.501
364.768
364.461
364.32
364.129
363.503
363.028
361.965
360.806
359.552
358.296
356.995
348.213
349.145
350.311
351.362
352.093
353.011
353.591
354.145
354.509
354.704
354.453
354.376
354.235
353.636
353.282
352.343
351.371
350.309
349.245
348.19
339.382
340.127
341.08
341.978
342.502
343.326
343.798
344.284
344.527
344.663
344.504
344.448
344.321
343.807
343.511
342.805
341.993
341.109
340.244
339.407
330.575
331.135
331.888
332.63
333.031
333.651
334.003
334.442
334.624
334.747
334.581
334.523
334.484
334.033
333.803
333.303
332.633
331.979
331.274
330.648
321.824
322.19
322.75
323.311
323.578
324.017
324.265
324.614
324.751
324.81
324.657
324.651
324.645
324.359
324.08
323.802
323.298
322.886
322.303
321.881
313.107
313.307
313.633
313.978
314.13
314.389
314.606
314.792
314.862
314.914
314.794
314.793
314.825
314.636
314.453
314.28
314.008
313.758
313.388
313.15
304.413
304.478
304.538
304.669
304.755
304.812
304.908
304.965
304.967
305.021
304.945
304.963
304.978
304.901
304.846
304.784
304.685
304.618
304.488
304.411
366.141
367.674
369.614
370.747
371.991
372.913
373.916
374.64
375.16
375.486
375.37
375.13
374.557
373.98
373.259
372.224
370.822
369.378
367.872
366.295
357.301
358.559
360.288
361.233
362.258
363.085
363.952
364.603
365.047
365.354
365.169
364.973
364.563
364.02
363.445
362.528
361.281
360.047
358.713
357.43
348.438
349.528
350.978
351.781
352.576
353.3
354.065
354.582
354.935
355.212
355.021
354.894
354.586
354.094
353.598
352.866
351.794
350.706
349.596
348.566
339.603
340.457
341.664
342.312
342.932
343.525
344.232
344.594
344.909
345.145
344.964
344.87
344.616
344.247
343.808
343.239
342.347
341.418
340.535
339.712
330.828
331.453
332.357
332.876
333.351
333.788
334.418
334.634
334.889
335.097
334.979
334.842
334.696
334.419
334.042
333.637
332.929
332.178
331.514
330.857
322.075
322.441
323.075
323.474
323.819
324.115
324.572
324.723
324.879
325.058
325.029
324.867
324.819
324.625
324.317
324.063
323.526
322.948
322.487
322.035
313.307
313.468
313.824
314.1
314.31
314.474
314.725
314.787
314.956
315.065
315.048
314.933
314.909
314.781
314.588
314.428
314.157
313.751
313.491
313.261
304.459
304.514
304.639
304.721
304.804
304.859
304.962
304.971
305.014
305.051
305.046
305.001
305.015
304.965
304.892
304.831
304.747
304.603
304.511
304.458
366.775
368.037
369.999
371.27
372.505
373.352
374.56
375.274
375.68
375.854
375.828
375.611
375.082
374.482
373.5
372.605
371.33
369.782
368.265
366.684
357.834
358.873
360.644
361.682
362.75
363.498
364.519
365.173
365.511
365.633
365.626
365.467
364.969
364.492
363.608
362.832
361.666
360.4
359.047
357.753
348.959
349.754
351.25
352.129
353.007
353.678
354.563
355.078
355.382
355.43
355.461
355.352
354.883
354.503
353.788
353.062
352.07
351.057
349.862
348.872
340.085
340.626
341.875
342.631
343.323
343.866
344.631
345.063
345.279
345.316
345.322
345.255
344.824
344.522
343.959
343.37
342.516
341.756
340.747
339.978
331.19
331.554
332.529
333.133
333.599
334.12
334.7
335.017
335.214
335.243
335.2
335.199
334.817
334.574
334.155
333.753
333.038
332.448
331.658
331.113
322.276
322.522
323.199
323.661
323.978
324.386
324.81
324.962
325.123
325.163
325.127
325.143
324.835
324.682
324.388
324.086
323.565
323.21
322.584
322.239
313.373
313.504
313.935
314.209
314.415
314.632
314.881
314.972
315.061
315.099
315.082
315.106
314.899
314.808
314.684
314.48
314.144
313.974
313.544
313.391
304.474
304.501
304.667
304.78
304.816
304.9
305.001
305.016
305.033
305.059
305.063
305.039
304.99
304.98
304.918
304.856
304.73
304.68
304.545
304.509
366.929
368.209
369.915
371.393
372.886
373.939
375.022
375.665
376.043
376.198
376.263
375.978
375.401
374.995
374.031
373.075
371.543
370.183
368.625
367.261
357.957
359.034
360.53
361.778
363.1
364.024
364.899
365.51
365.847
365.997
366
365.763
365.245
364.885
364.065
363.223
361.907
360.744
359.411
358.267
349.01
349.848
351.132
352.224
353.341
354.095
354.871
355.392
355.663
355.771
355.745
355.603
355.123
354.815
354.124
353.402
352.291
351.306
350.234
349.261
340.064
340.673
341.755
342.716
343.568
344.204
344.88
345.267
345.455
345.554
345.528
345.427
345.063
344.771
344.23
343.611
342.745
341.921
341.045
340.253
331.109
331.574
332.442
333.206
333.851
334.385
334.911
335.155
335.362
335.408
335.383
335.316
334.981
334.753
334.429
333.878
333.237
332.513
331.871
331.293
322.212
322.509
323.125
323.753
324.202
324.601
324.918
325.132
325.248
325.282
325.274
325.21
324.897
324.784
324.59
324.159
323.733
323.199
322.743
322.349
313.324
313.481
313.862
314.278
314.535
314.797
314.949
315.099
315.135
315.191
315.142
315.154
314.919
314.876
314.768
314.477
314.259
313.902
313.647
313.423
304.453
304.515
304.659
304.792
304.864
304.953
304.988
305.065
305.068
305.104
305.074
305.079
305.009
304.979
304.955
304.856
304.783
304.653
304.565
304.488
366.953
368.458
369.995
371.647
372.957
374.273
374.938
375.746
376.208
376.483
376.611
375.984
375.617
375.115
374.19
373.227
371.905
370.174
368.806
367.521
357.964
359.247
360.581
362.004
363.149
364.271
364.83
365.543
365.925
366.226
366.329
365.758
365.454
364.994
364.251
363.361
362.232
360.763
359.541
358.487
348.995
350.042
351.203
352.373
353.357
354.298
354.79
355.402
355.664
355.988
356.028
355.584
355.318
354.892
354.327
353.517
352.555
351.347
350.364
349.433
340.043
340.911
341.87
342.78
343.585
344.385
344.732
345.27
345.502
345.749
345.742
345.453
345.257
344.843
344.439
343.696
342.914
341.945
341.178
340.419
331.106
331.845
332.56
333.252
333.842
334.472
334.735
335.187
335.366
335.547
335.509
335.35
335.159
334.828
334.546
333.941
333.329
332.611
331.992
331.459
322.186
322.75
323.252
323.74
324.177
324.622
324.8
325.165
325.231
325.389
325.322
325.238
325.104
324.876
324.68
324.24
323.784
323.3
322.807
322.5
313.307
313.648
313.975
314.257
314.525
314.764
314.898
315.136
315.168
315.235
315.207
315.138
315.061
314.946
314.814
314.553
314.256
313.984
313.684
313.5
304.433
304.567
304.676
304.764
304.885
304.97
305.001
305.084
305.087
305.096
305.075
305.052
305.046
305.029
304.965
304.877
304.772
304.689
304.583
304.522
)
;

boundaryField
{
    hotSide
    {
        type            fixedGradient;
        gradient        nonuniform List<scalar> 
400
(
505.193
523.364
541.172
558.536
575.377
591.618
607.179
621.985
635.963
649.042
661.155
672.24
682.239
691.098
698.772
705.218
710.402
714.297
716.882
718.143
518.326
537.053
555.409
573.314
590.686
607.442
623.503
638.791
653.23
666.746
679.272
690.742
701.095
710.279
718.242
724.945
730.349
734.427
737.156
738.523
530.11
549.345
568.204
586.605
604.463
621.693
638.214
653.946
668.809
682.73
695.637
707.463
718.147
727.632
735.867
742.809
748.421
752.672
755.54
757.011
540.478
560.17
579.484
598.331
616.628
634.287
651.225
667.358
682.607
696.896
710.15
722.302
733.287
743.048
751.533
758.697
764.501
768.915
771.914
773.484
549.377
569.473
589.186
608.429
627.114
645.153
662.46
678.951
694.543
709.159
722.724
735.166
746.423
756.433
765.143
772.508
778.488
783.051
786.172
787.836
556.764
577.206
597.263
616.846
635.866
654.232
671.859
688.659
704.55
719.451
733.286
745.983
757.476
767.705
776.615
784.159
790.296
794.993
798.225
799.977
562.605
583.333
603.676
623.542
642.84
661.48
679.374
696.433
712.574
727.714
741.778
754.691
766.386
776.801
785.882
793.58
799.853
804.668
808
809.831
566.878
587.831
608.398
628.486
648.004
666.861
684.967
702.233
718.574
733.908
748.155
761.242
773.101
783.67
792.891
800.716
807.104
812.019
815.437
817.338
569.568
590.682
611.41
631.659
651.338
670.353
688.615
706.033
722.522
737.999
752.384
765.604
777.587
788.273
797.603
805.529
812.007
817.004
820.492
822.454
570.668
591.878
612.703
633.051
652.828
671.942
690.301
707.817
724.401
739.971
754.447
767.753
779.822
790.588
799.994
807.991
814.536
819.593
823.137
825.148
570.179
591.42
612.278
632.66
652.473
671.624
690.023
707.578
724.203
739.815
754.333
767.683
779.794
790.602
800.051
808.09
814.675
819.772
823.355
825.403
568.11
589.315
610.14
630.492
650.279
669.406
687.784
705.322
721.934
737.536
752.047
765.394
777.505
788.318
797.775
805.825
812.425
817.541
821.145
823.219
564.475
585.579
606.306
626.564
646.26
665.303
683.601
701.065
717.608
733.147
747.603
760.901
772.971
783.75
793.18
801.211
807.8
812.912
816.521
818.607
559.296
580.233
600.797
620.897
640.441
659.338
677.497
694.83
711.25
726.676
741.028
754.231
766.217
776.923
786.292
794.274
800.825
805.913
809.508
811.594
552.602
573.308
593.645
613.524
632.855
651.546
669.508
686.653
702.897
718.158
732.357
745.422
757.283
767.879
777.152
785.054
791.543
796.583
800.149
802.222
544.429
564.84
584.889
604.486
623.543
641.969
659.677
676.581
692.596
707.643
721.643
734.524
746.22
756.668
765.813
773.606
780.006
784.979
788.498
790.546
534.821
554.876
574.576
593.832
612.557
630.662
648.062
664.671
680.406
695.19
708.945
721.602
733.093
743.358
752.343
759.999
766.286
771.171
774.628
776.638
523.829
543.471
562.764
581.622
599.959
617.689
634.727
650.99
666.399
680.873
694.341
706.732
717.981
728.029
736.823
744.315
750.467
755.245
758.623
760.586
511.515
530.688
549.519
567.925
585.821
603.124
619.752
635.622
650.656
664.779
677.918
690.005
700.977
710.776
719.35
726.654
732.648
737.301
740.588
742.492
497.95
516.601
534.919
552.822
570.228
587.056
603.226
618.658
633.276
647.006
659.777
671.525
682.187
691.708
700.036
707.127
712.944
717.456
720.638
722.475
)
;
    }
    coldSide
    {
        type            mixed;
        refValue        uniform 300;
        refGradient     uniform 0;
        valueFraction   uniform 0.991591;
        source          uniform 0;
        value           nonuniform List<scalar> 
400
(
300.027
300.028
300.029
300.029
300.03
300.031
300.032
300.033
300.033
300.034
300.035
300.035
300.036
300.036
300.037
300.037
300.037
300.038
300.037
300.037
300.028
300.028
300.029
300.03
300.031
300.032
300.032
300.033
300.034
300.035
300.035
300.036
300.037
300.037
300.037
300.038
300.038
300.038