/*--------------------------------*- C++ -*----------------------------------*\
| =========                 |                                                 |
| \\      /  F ield         | OpenFOAM: The Open Source CFD Toolbox           |
|  \\    /   O peration     | Version:  2212                                  |
|   \\  /    A nd           | Website:  www.openfoam.com                      |
|    \\/     M anipulation  |                                                 |
\*---------------------------------------------------------------------------*/
FoamFile
{
    version     2.0;
    format      ascii;
    arch        "LSB;label=32;scalar=64";
    class       volScalarField;
    location    "./ITHACAoutput/true/4.2";
    object      error;
}
// * * * * * * * * * * * * * * * * * * * * * * * * * * * * * * * * * * * * * //

dimensions      [0 0 0 1 0 0 0];

internalField   nonuniform List<scalar> 
3200
(
0.970294
0.890494
1.03989
1.28425
1.75311
2.32926
2.87141
3.46926
3.93773
4.27441
4.32969
4.30374
4.06011
3.59892
3.21546
2.89975
2.53502
2.41964
2.46631
2.5982
0.815323
0.755905
0.825467
1.02041
1.42149
1.99956
2.48121
2.94921
3.37361
3.68698
3.77164
3.62144
3.46607
3.10427
2.74215
2.50717
2.20672
2.05091
2.06474
2.19279
0.638151
0.658619
0.722757
0.835713
1.20379
1.61755
2.02264
2.45122
2.81295
3.06968
3.11118
3.05604
2.85458
2.56161
2.27345
1.97958
1.83536
1.76589
1.71363
1.887
0.41838
0.448867
0.530979
0.695565
0.957906
1.28274
1.66272
1.98239
2.29462
2.52717
2.49177
2.46593
2.36723
2.09576
1.90124
1.63706
1.45965
1.39808
1.48789
1.44157
0.338759
0.380415
0.403683
0.484321
0.780267
1.03352
1.23934
1.57168
1.79262
1.91695
1.99669
1.82999
1.79233
1.58643
1.39769
1.28752
1.08414
1.1216
1.11707
1.09256
0.192448
0.196942
0.218112
0.35853
0.462775
0.722093
0.814023
1.05274
1.22665
1.38385
1.36677
1.3469
1.29948
1.16406
1.00254
0.869271
0.844058
0.74121
0.738143
0.856605
0.109
0.118861
0.196935
0.167359
0.303211
0.378423
0.502318
0.709751
0.743194
0.760971
0.861766
0.759085
0.783307
0.685692
0.586806
0.525221
0.440337
0.447777
0.491377
0.514797
0.0751092
0.0280958
0.108789
0.113702
0.0978576
0.101936
0.162821
0.227099
0.253115
0.266708
0.241044
0.335903
0.262461
0.24908
0.145063
0.168827
0.265062
0.141427
0.181408
0.188175
0.3269
0.154877
0.258037
0.509887
0.9009
1.48225
2.05194
2.56936
3.05802
3.38054
3.49187
3.30623
3.12519
2.74846
2.37606
2.05349
1.86939
1.7013
1.73122
1.87069
0.278648
0.159471
0.153009
0.376498
0.816931
1.26607
1.78152
2.21965
2.71127
2.9236
2.98457
2.91209
2.62743
2.42803
2.05365
1.78215
1.55738
1.45342
1.45426
1.65102
0.182927
0.169551
0.181109
0.36906
0.697881
1.05338
1.41624
1.89941
2.23527
2.45562
2.49699
2.47445
2.36043
1.96923
1.71393
1.51334
1.34134
1.24808
1.3097
1.35798
0.0660428
0.0781976
0.155154
0.309777
0.511019
0.835468
1.18851
1.45257
1.77794
1.98208
2.06878
1.94448
1.90494
1.66795
1.38949
1.17528
1.08046
1.03456
1.07797
1.16599
0.144017
0.111705
0.120307
0.197847
0.406285
0.689811
1.01227
1.17687
1.38875
1.54687
1.64044
1.56836
1.41256
1.30735
1.10338
1.04064
0.819129
0.706268
0.804403
0.916809
0.0741159
0.0378488
0.137479
0.124398
0.360252
0.491077
0.647443
0.866505
1.01802
1.09196
1.14284
1.14141
1.10323
0.937682
0.79015
0.727095
0.657633
0.555466
0.560034
0.665028
0.0616963
0.0791589
0.0386811
0.143081
0.208389
0.286556
0.432553
0.523774
0.60539
0.653285
0.650557
0.677519
0.580968
0.594905
0.513671
0.338584
0.352757
0.35203
0.330985
0.445875
0.00955016
0.025924
-0.0152122
-0.00913061
0.0316508
0.0531839
0.140823
0.18754
0.278833
0.223973
0.242422
0.120472
0.20845
0.21636
0.193623
0.189174
0.0851866
0.160878
0.163465
0.116553
-0.50884
-0.698285
-0.646052
-0.430535
-0.0786389
0.409368
0.983859
1.54488
1.95026
2.19549
2.39475
2.2939
2.07891
1.63886
1.38212
1.00008
0.810723
0.752539
0.874033
1.0767
-0.428259
-0.536834
-0.604142
-0.405787
-0.0797259
0.309793
0.850395
1.35651
1.73832
1.88022
1.97598
1.95726
1.75304
1.49209
1.17932
0.960021
0.730219
0.736713
0.762226
1.0018
-0.432544
-0.484807
-0.450603
-0.309532
0.0119197
0.336082
0.689106
1.08652
1.36507
1.61022
1.6889
1.62131
1.52027
1.28678
1.05655
0.82692
0.697624
0.598983
0.709583
0.806238
-0.371983
-0.371439
-0.330694
-0.226603
-0.0979033
0.259495
0.547086
0.869487
1.19011
1.35934
1.39124
1.39044
1.19746
1.10019
0.818837
0.685795
0.536324
0.51991
0.597971
0.641065
-0.308379
-0.337442
-0.273379
-0.252086
-0.10483
0.24605
0.499523
0.651837
0.910734
1.05578
1.1403
1.12074
1.00902
0.786174
0.636941
0.497162
0.417504
0.433563
0.454519
0.594784
-0.186658
-0.207698
-0.226103
-0.11755
0.0526774
0.201616
0.294341
0.517817
0.68294
0.765688
0.782159
0.81895
0.661048
0.603056
0.444639
0.400633
0.346182
0.271307
0.344106
0.404821
-0.126498
-0.139453
-0.109592
-0.0587429
0.0521766
0.0785053
0.1944
0.286478
0.386775
0.45349
0.481853
0.434204
0.383621
0.296839
0.303278
0.178881
0.222812
0.174384
0.220332
0.186824
-0.00313185
-0.0302525
0.0467962
0.0413508
-0.010745
0.0263617
0.0966656
0.10243
0.197445
0.169349
0.244873
0.142461
0.119886
0.0949589
0.0702646
0.0524943
0.0964844
0.0430971
0.0597221
0.135964
-1.32288
-1.50755
-1.48118
-1.33712
-1.0536
-0.612831
-0.101512
0.318999
0.760634
1.03465
1.16403
1.09373
0.93066
0.695751
0.321606
0.0692136
-0.0333877
-0.0630319
0.0340663
0.253878
-1.15882
-1.22706
-1.21307
-1.09983
-0.886278
-0.516554
-0.121448
0.30991
0.660337
0.866993
1.05981
0.894629
0.808651
0.545711
0.295228
0.157632
-0.0246812
-0.0521963
0.0468935
0.293712
-0.973369
-1.11846
-1.03398
-0.908835
-0.703262
-0.446768
-0.0662711
0.310778
0.621203
0.796826
0.94289
0.855013
0.676309
0.465665
0.326177
0.0945428
-0.00237602
-0.0735738
0.0896478
0.277294
-0.777971
-0.838113
-0.858023
-0.815911
-0.554017
-0.318241
-0.0144912
0.242549
0.532105
0.629408
0.727843
0.72274
0.617896
0.423282
0.27093
0.151625
0.0360394
0.0152186
0.134785
0.212254
-0.576261
-0.670905
-0.675373
-0.596219
-0.440281
-0.279911
0.0337005
0.253661
0.419311
0.52262
0.548841
0.493293
0.413582
0.297152
0.185926
0.0853071
0.0508676
0.0579718
0.0783137
0.210418
-0.414775
-0.463818
-0.522713
-0.452948
-0.295974
-0.137914
0.0292795
0.132067
0.240456
0.40233
0.480528
0.421029
0.318345
0.243802
0.10751
0.0637165
0.0313924
0.105857
0.0606243
0.138526
-0.225927
-0.305463
-0.265605
-0.241263
-0.196595
-0.101043
0.00165359
0.172449
0.196877
0.21523
0.359279
0.273612
0.220831
0.173285
0.0929781
0.122339
-0.0375938
0.00133104
0.0783566
0.152456
-0.0576056
-0.152694
-0.111946
-0.10091
-0.0445137
-0.0316363
0.0387007
0.00193728
0.0485085
0.124086
0.0781612
0.087452
0.0484192
0.10389
0.0495033
0.018002
0.0858093
0.0358191
0.0298853
0.122398
-1.79686
-2.07784
-2.22484
-2.17033
-1.91762
-1.57766
-1.11419
-0.663122
-0.288443
-0.0409105
0.0628125
0.0486444
-0.0965152
-0.343137
-0.622585
-0.754571
-0.934691
-0.83717
-0.639292
-0.32377
-1.72913
-1.83132
-1.94709
-1.84553
-1.65466
-1.32101
-0.920237
-0.561385
-0.23945
0.0105641
0.00692535
0.038228
-0.122593
-0.293626
-0.486089
-0.632405
-0.711718
-0.642369
-0.450839
-0.214018
-1.45925
-1.47
-1.60501
-1.53458
-1.41858
-1.04359
-0.664137
-0.524493
-0.166446
-0.0400288
0.0238289
0.0902677
-0.0413537
-0.293875
-0.410226
-0.517133
-0.551079
-0.486567
-0.385206
-0.227172
-1.1942
-1.23309
-1.26853
-1.1788
-1.13434
-0.911744
-0.630474
-0.379101
-0.174517
0.0109348
-0.029992
0.0555262
-0.0608511
-0.147998
-0.345937
-0.40407
-0.443266
-0.413265
-0.231602
-0.102737
-0.834902
-1.00298
-1.00014
-0.889993
-0.833405
-0.662616
-0.450581
-0.293063
-0.145363
-0.0118837
0.0796339
0.0664959
-0.0638663
-0.0943759
-0.255903
-0.243181
-0.305388
-0.273033
-0.189835
-0.0485173
-0.597222
-0.638031
-0.722565
-0.668822
-0.635616
-0.494856
-0.351977
-0.162206
-0.0636278
0.0211613
0.0328143
-0.00265556
0.0535474
-0.101702
-0.13473
-0.246563
-0.184764
-0.169695
-0.0968849
-0.0349676
-0.352651
-0.429694
-0.424561
-0.336839
-0.361086
-0.266723
-0.166946
-0.135634
-0.0614847
-0.048646
0.0529639
-0.0169622
-0.0242096
0.00771833
-0.09627
-0.155986
-0.162325
-0.139559
-0.089817
-0.00142884
-0.187407
-0.166414
-0.120479
-0.0822385
-0.107939
-0.0147591
-0.0304415
-0.0585253
-0.0423701
-0.0588319
0.0493722
0.00637341
-0.053309
-0.0724734
-0.0183501
-0.0305646
0.019763
-0.102654
-0.028676
-0.0240618
-2.39809
-2.58542
-2.7982
-2.76423
-2.5194
-2.27805
-1.92623
-1.58388
-1.28438
-0.991436
-0.923459
-0.994031
-1.00868
-1.21313
-1.38524
-1.54155
-1.47366
-1.33635
-1.04451
-0.753596
-2.05313
-2.2371
-2.38112
-2.37855
-2.23124
-2.01483
-1.6365
-1.32796
-1.10193
-0.829529
-0.757441
-0.729359
-0.883747
-1.02662
-1.16298
-1.28782
-1.22598
-1.09811
-0.896372
-0.613237
-1.82259
-1.83472
-1.93056
-1.9959
-1.86512
-1.6213
-1.30801
-1.11327
-0.870617
-0.723494
-0.626833
-0.689313
-0.690663
-0.884423
-0.893987
-1.01438
-1.03466
-0.981014
-0.724374
-0.511259
-1.36482
-1.53431
-1.69897
-1.60844
-1.4841
-1.34797
-1.13715
-0.897504
-0.720055
-0.549397
-0.511673
-0.450842
-0.545189
-0.678166
-0.778003
-0.827551
-0.777289
-0.746543
-0.520532
-0.389912
-1.09322
-1.14282
-1.21098
-1.25042
-1.155
-1.04716
-0.924479
-0.738536
-0.537258
-0.441049
-0.362642
-0.400764
-0.367258
-0.513286
-0.569018
-0.570409
-0.549305
-0.600291
-0.407988
-0.305501
-0.825851
-0.846646
-0.84198
-0.888231
-0.810909
-0.75699
-0.584642
-0.437516
-0.378287
-0.339365
-0.27707
-0.297826
-0.270442
-0.34958
-0.397918
-0.456984
-0.378542
-0.449405
-0.328261
-0.224223
-0.501088
-0.415424
-0.537166
-0.504044
-0.4864
-0.452701
-0.384272
-0.368789
-0.207454
-0.18072
-0.260851
-0.0758714
-0.162517
-0.219915
-0.268508
-0.267103
-0.293856
-0.234331
-0.151713
-0.109673
-0.136421
-0.170488
-0.197879
-0.197247
-0.223582
-0.17832
-0.108948
-0.0316454
-0.10316
-0.0308069
-0.0910442
-0.0117921
-0.0694235
-0.0431702
-0.14116
-0.11265
-0.1457
-0.084216
-0.053861
-0.0089122
-2.54638
-2.88514
-3.15151
-3.20577
-3.13264
-2.91911
-2.55768
-2.24489
-1.99427
-1.81354
-1.74798
-1.71334
-1.77899
-1.91765
-1.97953
-2.03764
-2.00275
-1.75632
-1.39561
-1.09455
-2.21223
-2.50913
-2.72905
-2.69965
-2.69599
-2.42466
-2.21437
-1.96183
-1.77322
-1.51025
-1.48571
-1.48235
-1.55848
-1.57749
-1.66759
-1.64205
-1.65019
-1.45935
-1.21609
-0.779421
-1.89036
-2.1291
-2.20165
-2.315
-2.18803
-2.07464
-1.86318
-1.64844
-1.43907
-1.27252
-1.17341
-1.23343
-1.24103
-1.3166
-1.42352
-1.37569
-1.36372
-1.23167
-0.964155
-0.742697
-1.59954
-1.68346
-1.81632
-1.85281
-1.81615
-1.7216
-1.44685
-1.31645
-1.12813
-1.06448
-1.02919
-0.932419
-1.01835
-1.05243
-1.13969
-1.1016
-1.06208
-0.982479
-0.796238
-0.54603
-1.18225
-1.31605
-1.44736
-1.52173
-1.3817
-1.33115
-1.17173
-1.00689
-0.810719
-0.778238
-0.790204
-0.780728
-0.793085
-0.809783
-0.841559
-0.875849
-0.795117
-0.719609
-0.580103
-0.42463
-0.829271
-0.927093
-1.00895
-0.987381
-1.02496
-0.978501
-0.802807
-0.747386
-0.593055
-0.621499
-0.542146
-0.485344
-0.561018
-0.521236
-0.592129
-0.542693
-0.575531
-0.496719
-0.414041
-0.302384
-0.53527
-0.543897
-0.57486
-0.564524
-0.557438
-0.544331
-0.518959
-0.388291
-0.37263
-0.298615
-0.342668
-0.264702
-0.310274
-0.35037
-0.436679
-0.396885
-0.294691
-0.321206
-0.248307
-0.197289
-0.21722
-0.252635
-0.192716
-0.229131
-0.264533
-0.257627
-0.140646
-0.160766
-0.151281
-0.158361
-0.0551447
-0.132537
-0.133782
-0.101941
-0.108595
-0.0689928
-0.083227
-0.134355
-0.130165
-0.0414018
-2.56754
-3.03008
-3.30525
-3.44772
-3.48403
-3.30477
-3.06031
-2.82404
-2.64623
-2.45185
-2.40317
-2.3509
-2.37192
-2.37076
-2.42747
-2.33806
-2.25875
-1.95512
-1.52264
-1.06808
-2.27758
-2.63192
-2.81754
-3.01739
-3.00042
-2.87199
-2.60804
-2.53984
-2.2541
-2.07561
-2.01738
-1.93018
-1.99635
-2.02231
-2.0944
-2.0258
-1.90968
-1.64485
-1.27455
-0.931168
-1.93835
-2.10393
-2.43978
-2.50097
-2.52285
-2.35115
-2.21266
-2.06457
-1.8159
-1.76051
-1.62759
-1.66533
-1.68339
-1.66179
-1.69924
-1.71159
-1.51568
-1.32661
-1.00178
-0.657259
-1.56541
-1.80288
-1.93415
-2.0179
-1.97764
-1.94452
-1.82491
-1.67767
-1.53299
-1.4129
-1.27733
-1.30837
-1.2992
-1.36638
-1.39567
-1.33595
-1.22017
-1.02127
-0.741775
-0.522536
-1.17184
-1.29769
-1.51048
-1.55717
-1.49539
-1.43236
-1.40611
-1.23761
-1.13244
-1.04358
-1.01506
-0.992601
-1.03721
-1.07292
-1.08486
-1.03983
-0.867557
-0.830565
-0.604673
-0.39298
-0.823024
-0.948868
-1.09161
-1.15988
-1.09823
-1.06569
-0.996561
-0.836635
-0.872121
-0.747257
-0.71665
-0.692647
-0.725483
-0.724724
-0.723547
-0.727906
-0.699155
-0.561333
-0.421369
-0.207968
-0.533505
-0.624655
-0.632986
-0.687345
-0.672473
-0.62122
-0.554187
-0.530053
-0.443273
-0.406112
-0.422135
-0.431193
-0.439853
-0.496446
-0.448846
-0.395085
-0.398802
-0.317688
-0.298593
-0.179073
-0.156953
-0.186728
-0.215298
-0.215437
-0.158814
-0.215093
-0.184084
-0.194947
-0.17046
-0.187433
-0.143964
-0.220143
-0.100527
-0.198463
-0.173458
-0.135127
-0.134284
-0.118404
-0.0829534
-0.0488902
-2.43725
-2.79801
-3.27658
-3.49401
-3.56268
-3.5199
-3.3528
-3.18112
-2.99786
-2.80785
-2.69234
-2.65207
-2.65874
-2.68084
-2.67184
-2.46291
-2.29221
-1.91257
-1.40727
-0.851325
-2.10461
-2.45443
-2.80199
-2.95828
-3.04598
-2.99977
-2.79616
-2.66038
-2.53597
-2.36612
-2.36879
-2.29243
-2.27951
-2.22604
-2.28809
-2.06831
-1.96472
-1.62153
-1.15099
-0.722337
-1.75953
-2.09897
-2.29153
-2.51967
-2.58809
-2.50083
-2.41782
-2.30216
-2.14199
-2.03122
-1.97415
-1.817
-1.8633
-2.00179
-1.84818
-1.72824
-1.56647
-1.38479
-0.997244
-0.591342
-1.4406
-1.66992
-1.89278
-2.09665
-2.06367
-2.0363
-1.96062
-1.80712
-1.73499
-1.6468
-1.57831
-1.555
-1.52063
-1.53167
-1.40216
-1.44674
-1.26441
-1.07573
-0.786194
-0.462632
-1.07334
-1.31529
-1.49369
-1.55474
-1.61006
-1.59833
-1.52495
-1.50455
-1.2982
-1.28162
-1.23986
-1.20011
-1.18627
-1.20647
-1.04838
-1.08871
-0.954489
-0.808116
-0.579745
-0.411682
-0.75749
-0.915911
-1.03282
-1.04405
-1.123
-1.12079
-1.12963
-0.989505
-0.938529
-0.876621
-0.867431
-0.81997
-0.779839
-0.785437
-0.826733
-0.786857
-0.642228
-0.578635
-0.433235
-0.236038
-0.490354
-0.517233
-0.631518
-0.746129
-0.734081
-0.648819
-0.69499
-0.604258
-0.625781
-0.502845
-0.501706
-0.405337
-0.48967
-0.466901
-0.46695
-0.461694
-0.431031
-0.341171
-0.267772
-0.101564
-0.204014
-0.215154
-0.224537
-0.194679
-0.238633
-0.220116
-0.232728
-0.173403
-0.185792
-0.157166
-0.203726
-0.179077
-0.170035
-0.166298
-0.168029
-0.13198
-0.174437
-0.0915593
-0.114472
-0.0454714
-2.03927
-2.52818
-2.87785
-3.21656
-3.51257
-3.46526
-3.51106
-3.31948
-3.11623
-3.02336
-2.88335
-2.85536
-2.73013
-2.73701
-2.64261
-2.43156
-2.10724
-1.66239
-1.05302
-0.500982
-1.73752
-2.16757
-2.54327
-2.78055
-2.97147
-2.97316
-2.91391
-2.75368
-2.68815
-2.6063
-2.53665
-2.39025
-2.33131
-2.28516
-2.24271
-2.12445
-1.71129
-1.37464
-0.913442
-0.379657
-1.46673
-1.79524
-2.14217
-2.3572
-2.47384
-2.52334
-2.42453
-2.35229
-2.24879
-2.13908
-2.06321
-2.00267
-1.88372
-1.95301
-1.77726
-1.68404
-1.43234
-1.07178
-0.699462
-0.368025
-1.17891
-1.4565
-1.83102
-1.98269
-1.97408
-2.067
-1.98513
-1.8456
-1.86937
-1.71904
-1.62628
-1.6226
-1.55447
-1.53925
-1.50412
-1.30763
-1.15726
-0.918484
-0.502176
-0.216308
-0.934684
-1.08299
-1.30954
-1.4576
-1.53406
-1.59289
-1.5091
-1.47625
-1.3584
-1.3521
-1.25549
-1.2023
-1.25642
-1.14919
-1.12482
-1.10265
-0.910648
-0.636593
-0.355987
-0.137495
-0.636556
-0.813637
-1.02365
-1.0542
-1.14357
-1.17169
-1.01942
-1.00406
-1.01229
-0.930149
-0.90141
-0.850929
-0.894107
-0.824209
-0.782577
-0.683273
-0.595007
-0.45313
-0.271713
-0.122773
-0.392663
-0.47817
-0.612892
-0.652112
-0.687646
-0.626338
-0.636784
-0.632269
-0.639189
-0.598935
-0.567268
-0.527489
-0.497012
-0.495717
-0.415407
-0.450244
-0.404378
-0.313257
-0.162502
-0.0111512
-0.160388
-0.0573175
-0.209136
-0.275771
-0.194703
-0.268449
-0.234985
-0.250798
-0.209742
-0.15009
-0.215106
-0.178698
-0.163198
-0.11792
-0.185619
-0.141409
-0.0750175
-0.100262
-0.0128289
-0.0378951
-1.27273
-1.93723
-2.46788
-2.87967
-2.99713
-3.23322
-3.20195
-3.14567
-3.05481
-2.97609
-2.84728
-2.79897
-2.60314
-2.49843
-2.38906
-2.05969
-1.60581
-1.12991
-0.516599
0.195363
-1.16539
-1.6045
-2.06675
-2.46497
-2.64958
-2.74693
-2.74923
-2.74523
-2.55334
-2.50701
-2.37911
-2.30682
-2.21201
-2.11917
-1.83528
-1.69201
-1.35899
-0.921272
-0.433285
0.112099
-1.03812
-1.39588
-1.79175
-2.04415
-2.19793
-2.25442
-2.21138
-2.23003
-2.14715
-2.10417
-1.99922
-1.91784
-1.7981
-1.79403
-1.60109
-1.47472
-1.1493
-0.650851
-0.287165
0.159909
-0.796674
-1.15534
-1.47199
-1.68953
-1.83189
-1.83136
-1.78135
-1.7929
-1.74385
-1.65579
-1.59883
-1.61848
-1.52915
-1.43192
-1.34798
-1.12267
-0.909442
-0.578408
-0.1873
0.157163
-0.630205
-0.883944
-1.12362
-1.34001
-1.38932
-1.38746
-1.4217
-1.45126
-1.41211
-1.22781
-1.19308
-1.14778
-1.11931
-1.07577
-0.993557
-0.896579
-0.731607
-0.484936
-0.185375
0.121634
-0.50779
-0.601648
-0.747666
-0.93076
-0.940364
-1.07083
-1.03073
-0.999682
-0.948254
-0.924677
-0.916534
-0.882879
-0.825599
-0.735399
-0.667029
-0.588268
-0.447889
-0.299351
-0.106481
0.0816663
-0.278214
-0.428356
-0.443476
-0.593235
-0.551367
-0.665619
-0.563101
-0.639463
-0.592158
-0.531936
-0.526691
-0.528215
-0.492601
-0.525181
-0.467837
-0.333068
-0.320324
-0.21975
0.00814725
0.0530963
-0.0727036
-0.126131
-0.121623
-0.136742
-0.172589
-0.193439
-0.182563
-0.181249
-0.141595
-0.255085
-0.127378
-0.0897939
-0.121916
-0.182057
-0.152209
-0.101003
-0.0569512
-0.0394307
-0.0592945
0.0114756
-0.444414
-1.12032
-1.63248
-2.10459
-2.42054
-2.56373
-2.70241
-2.69753
-2.58431
-2.56007
-2.5022
-2.30531
-2.23702
-1.98907
-1.70355
-1.44077
-0.972317
-0.270454
0.33584
1.01862
-0.520585
-0.972016
-1.42529
-1.79786
-2.0982
-2.25928
-2.31857
-2.31471
-2.19262
-2.22344
-2.12094
-2.00344
-1.81338
-1.67
-1.48917
-1.18656
-0.80951
-0.260747
0.349119
0.928207
-0.371832
-0.736296
-1.2186
-1.50402
-1.74847
-1.82724
-1.86333
-1.95649
-1.87731
-1.79202
-1.71896
-1.60135
-1.49074
-1.43185
-1.23968
-1.04693
-0.610189
-0.175924
0.239853
0.782973
-0.311649
-0.654049
-1.00662
-1.19391
-1.45359
-1.49486
-1.51257
-1.54278
-1.47148
-1.41224
-1.41029
-1.33557
-1.21997
-1.07058
-0.943733
-0.828718
-0.524781
-0.0591224
0.329271
0.717293
-0.288381
-0.46084
-0.690831
-0.980277
-1.09111
-1.20827
-1.22159
-1.1798
-1.26396
-1.11492
-1.1199
-1.04347
-0.978549
-0.900137
-0.729477
-0.5725
-0.324362
-0.0990923
0.218122
0.545072
-0.11056
-0.353125
-0.551765
-0.681367
-0.728351
-0.829788
-0.870593
-0.89388
-0.818859
-0.84372
-0.787594
-0.759339
-0.592195
-0.580225
-0.555145
-0.429656
-0.250463
-0.0676729
0.184272
0.433309
-0.124791
-0.248852
-0.247734
-0.407667
-0.469806
-0.517705
-0.498349
-0.468936
-0.539003
-0.494863
-0.476379
-0.4491
-0.403802
-0.392469
-0.281435
-0.254177
-0.192914
-0.0592133
0.0617995
0.229316
-0.0201215
-0.090367
-0.0134458
-0.151013
-0.188362
-0.130811
-0.166164
-0.180752
-0.121786
-0.211633
-0.134319
-0.141229
-0.159798
-0.123889
-0.111314
-0.0669149
-0.0998535
-0.0336304
0.0856416
0.0601418
0.600948
0.0474436
-0.644317
-1.20509
-1.59338
-1.84348
-1.95616
-2.02473
-1.95488
-1.9666
-1.85198
-1.73239
-1.57137
-1.24762
-1.01154
-0.607602
-0.0442352
0.540962
1.40526
2.16888
0.551677
0.0902484
-0.570896
-1.01009
-1.37719
-1.50391
-1.66309
-1.70023
-1.6414
-1.66595
-1.5654
-1.44476
-1.2647
-1.07014
-0.80031
-0.458202
0.00618848
0.615403
1.30389
1.8594
0.450789
0.0368108
-0.439261
-0.82736
-1.08946
-1.28659
-1.35109
-1.36526
-1.37627
-1.42067
-1.29791
-1.15712
-1.00134
-0.91039
-0.64125
-0.380667
0.0708664
0.536962
1.20449
1.57898
0.436274
-0.00855504
-0.307177
-0.596953
-0.873894
-0.990527
-1.12161
-1.12402
-1.12259
-1.0863
-1.00906
-0.913921
-0.861503
-0.708352
-0.439172
-0.262521
0.100901
0.497916
0.91993
1.36127
0.296299
0.0492255
-0.213145
-0.480911
-0.636976
-0.798665
-0.838842
-0.886571
-0.832645
-0.842902
-0.740752
-0.748848
-0.660856
-0.489873
-0.398488
-0.107587
0.0553161
0.379147
0.750791
1.01951
0.209884
0.067173
-0.17008
-0.374614
-0.439103
-0.612886
-0.615831
-0.577113
-0.597147
-0.559473
-0.515004
-0.489183
-0.4501
-0.356739
-0.237792
-0.113128
0.0979938
0.297745
0.523273
0.757389
0.123446
-0.00826563
-0.0656618
-0.254694
-0.30611
-0.278285
-0.404669
-0.357629
-0.35272
-0.37243
-0.383484
-0.33141
-0.253615
-0.276469
-0.0971416
-0.0733096
0.079093
0.237578
0.320004
0.417441
0.0500482
-0.00665934
-0.033636
-0.0629906
-0.125968
-0.0892589
-0.15068
-0.179981
-0.104926
-0.0957927
-0.104477
-0.115187
-0.106156
-0.136529
-0.055622
-0.0882272
-0.0644065
0.0481051
0.0938475
0.250434
1.98033
1.4191
0.639919
0.00392598
-0.501303
-0.724323
-0.930735
-1.03182
-1.11263
-1.01538
-0.938314
-0.798294
-0.564043
-0.286156
0.164748
0.626719
1.12018
1.9132
2.73218
3.6318
1.78047
1.22144
0.557593
0.0809619
-0.305358
-0.587386
-0.781572
-0.873548
-0.846821
-0.847515
-0.772777
-0.611382
-0.398741
-0.207608
0.11641
0.514923
1.09613
1.65116
2.34859
3.05112
1.48724
1.04149
0.548388
0.111023
-0.264003
-0.488888
-0.658871
-0.757979
-0.709943
-0.582302
-0.627198
-0.41129
-0.248704
-0.0721199
0.203977
0.543009
0.936294
1.51285
2.08304
2.59139
1.25613
0.816263
0.429884
0.0975013
-0.271474
-0.356503
-0.491056
-0.530731
-0.560928
-0.507093
-0.466485
-0.368014
-0.158729
-0.0386503
0.153202
0.379807
0.748322
1.22117
1.70673
2.11943
0.993913
0.561581
0.316141
0.117318
-0.133652
-0.267158
-0.409506
-0.426173
-0.41631
-0.361079
-0.353027
-0.346131
-0.220018
-0.0353733
0.16344
0.352924
0.636521
1.02642
1.38738
1.73999
0.718258
0.497941
0.259083
0.0379022
-0.0783011
-0.215121
-0.243947
-0.272376
-0.257346
-0.336186
-0.168807
-0.193492
-0.0992448
-0.0317144
0.130407
0.251901
0.456998
0.745679
1.00518
1.22863
0.485671
0.258575
0.208573
-0.00278214
-0.100375
-0.157895
-0.120472
-0.223615
-0.164907
-0.16703
-0.0840994
-0.132058
-0.0882329
-0.0114949
0.148304
0.156334
0.222751
0.468618
0.619739
0.807376
0.131058
0.0945555
0.0876042
0.0475181
0.0182611
-0.0804606
-0.0725543
0.00745124
-0.0882734
-0.0341139
-0.00542521
-0.0214822
0.0328347
-0.00694151
0.0410164
0.0795933
0.138769
0.179076
0.155052
0.25669
3.73034
2.96399
2.23036
1.44951
1.00719
0.688703
0.413875
0.244813
0.291319
0.278441
0.277143
0.530917
0.718062
1.04088
1.36014
1.9381
2.61794
3.47542
4.28809
5.12759
3.15271
2.56215
1.96953
1.37613
0.901871
0.546514
0.341001
0.252336
0.198322
0.250321
0.278078
0.463837
0.645166
0.944238
1.36938
1.77722
2.38758
3.07221
3.70531
4.53942
2.71147
2.21861
1.5885
1.20596
0.759492
0.514175
0.317977
0.165002
0.169893
0.240521
0.306418
0.3403
0.589577
0.79475
1.16681
1.61779
1.98332
2.62043
3.22965
3.82363
2.13081
1.8136
1.39329
0.947754
0.69879
0.427366
0.319553
0.280073
0.225697
0.221386
0.205906
0.41431
0.504684
0.738232
0.993285
1.33011
1.7027
2.14489
2.62181
3.14422
1.69764
1.42908
1.05638
0.770123
0.54028
0.326332
0.209615
0.192727
0.0930771
0.175187
0.236422
0.287165
0.462332
0.580619
0.77049
1.00409
1.22791
1.69923
2.04916
2.46504
1.24525
1.0043
0.778977
0.51702
0.391293
0.256046
0.201034
0.149465
0.144779
0.171383
0.126857
0.282681
0.246847
0.424736
0.570525
0.736287
0.90885
1.21683
1.51188
1.73189
0.729075
0.580267
0.489849
0.301669
0.193568
0.191811
0.158768
0.0944666
0.0383596
0.0690622
0.0983802
0.142112
0.206306
0.247186
0.353423
0.455314
0.54644
0.767452
0.915227
1.02569
0.241905
0.247687
0.143884
0.180159
0.104292
0.0010428
-0.00316828
-0.00780112
0.00187118
0.0770847
-0.0113394
0.0143207
7.28307e-05
0.120865
0.117749
0.111575
0.223446
0.240909
0.288025
0.363264
5.66653
4.85277
3.96173
3.27505
2.74586
2.32714
2.01402
1.75663
1.72016
1.72793
1.76007
1.98703
2.32813
2.72166
3.07098
3.62732
4.3915
5.28218
6.12735
7.02096
4.89339
4.30861
3.48711
2.88168
2.45033
2.00492
1.81613
1.56292
1.44217
1.554
1.59588
1.79698
2.07438
2.31068
2.6999
3.19616
3.74298
4.59994
5.3916
6.14888
4.07031
3.60143
2.95324
2.44448
2.0371
1.71238
1.54905
1.40086
1.37912
1.30567
1.39843
1.57212
1.70363
1.98685
2.39169
2.72354
3.35507
3.86853
4.64718
5.22892
3.3624
2.90652
2.51093
1.98547
1.68159
1.39625
1.20594
1.09786
1.08644
1.14644
1.18402
1.254
1.47232
1.62633
1.93718
2.32319
2.71
3.22856
3.77134
4.24413
2.60001
2.33203
1.9382
1.52938
1.29754
1.1583
1.00115
0.909815
0.836606
0.874705
0.931671
0.953199
1.11986
1.33931
1.56508
1.82068
2.1889
2.57813
2.93739
3.34994
1.935
1.6088
1.40852
1.12807
1.02282
0.793869
0.734634
0.654036
0.679301
0.598134
0.651298
0.716799
0.877951
0.982952
1.09466
1.29824
1.52397
1.8017
2.09259
2.3406
1.14866
0.97462
0.757458
0.745235
0.588878
0.433424
0.477345
0.380683
0.375343
0.384707
0.422423
0.447757
0.466074
0.560753
0.69075
0.779405
0.920499
1.13277
1.27357
1.38152
0.367652
0.321523
0.260239
0.248282
0.201555
0.176846
0.0634753
0.122576
0.105517
0.143268
0.121219
0.163242
0.156662
0.223106
0.210424
0.288418
0.276706
0.372182
0.436167
0.491161
7.75409
6.94436
6.01012
5.24826
4.63024
4.13335
3.87198
3.62291
3.55259
3.54644
3.57526
3.73945
4.11862
4.4914
4.93535
5.60111
6.34758
7.24464
8.18065
9.05801
6.73691
5.96684
5.25357
4.60986
4.06349
3.70981
3.36135
3.20234
3.03167
3.11101
3.17268
3.3333
3.59188
3.9134
4.30735
4.9428
5.54231
6.30797
7.16511
7.91863
5.62674
5.14948
4.45501
3.89876
3.44566
3.12303
2.86851
2.68739
2.58724
2.67557
2.70936
2.8514
2.99319
3.39488
3.71104
4.21128
4.76084
5.40087
6.14528
6.72358
4.62823
4.21647
3.65554
3.20574
2.82245
2.54432
2.33495
2.28427
2.19961
2.15118
2.24108
2.34555
2.54795
2.70248
3.04741
3.4467
3.8878
4.40057
4.97859
5.53789
3.60962
3.20923
2.87054
2.50611
2.22996
1.99373
1.79454
1.75302
1.66637
1.66043
1.77398
1.77655
1.92289
2.18095
2.41839
2.63582
2.98265
3.40864
3.89981
4.23603
2.5204
2.27606
2.03201
1.79507
1.69053
1.39022
1.25891
1.26217
1.2819
1.16256
1.26832
1.33951
1.51843
1.54161
1.72039
1.93966
2.18585
2.46655
2.7772
3.0218
1.5593
1.34508
1.22367
1.06575
0.985406
0.820687
0.801078
0.786755
0.742455
0.786605
0.780715
0.804736
0.897458
0.909986
1.05511
1.07354
1.3276
1.4595
1.68238
1.87988
0.521935
0.473331
0.442224
0.374568
0.320587
0.254379
0.284034
0.235116
0.28049
0.252337
0.219223
0.285347
0.316472
0.265937
0.373149
0.348612
0.508491
0.493012
0.572431
0.622793
10.0703
9.22005
8.26727
7.48632
6.82256
6.29124
5.88861
5.6154
5.51706
5.47052
5.58383
5.81974
6.07903
6.46055
6.99295
7.68418
8.50846
9.45215
10.494
11.4034
8.67094
7.95031
7.23294
6.47371
5.94253
5.44609
5.13196
4.90778
4.8081
4.90022
4.82805
5.01752
5.25972
5.69541
6.12416
6.7387
7.37082
8.18535
9.0505
9.86382
7.27732
6.73512
6.05074
5.49087
5.05851
4.62556
4.34739
4.20503
4.07327
4.07316
4.17772
4.32447
4.45414
4.88421
5.20774
5.64717
6.2393
6.91763
7.6961
8.29517
6.01135
5.46053
4.9249
4.47556
4.10691
3.76367
3.51619
3.34173
3.3136
3.37335
3.45992
3.55267
3.64261
3.98592
4.32156
4.65434
5.16348
5.65949
6.27374
6.77095
4.5635
4.28151
3.86621
3.46902
3.21768
3.01217
2.78058
2.62212
2.61861
2.57445
2.68359
2.66745
2.84856
3.03722
3.28341
3.64998
4.00055
4.43278
4.81869
5.28787
3.31982
3.09115
2.70502
2.53681
2.26027
2.09619
2.01361
1.94983
1.85186
1.89772
1.87794
1.95811
2.03663
2.2483
2.35288
2.58165
2.82946
3.20173
3.51323
3.80106
1.93754
1.83294
1.67986
1.48533
1.33834
1.26998
1.1851
1.19806
1.18798
1.17232
1.05801
1.12803
1.22368
1.37479
1.48716
1.49689
1.69951
1.87445
2.15352
2.22694
0.662916
0.609749
0.559379
0.51685
0.475333
0.400885
0.394477
0.381962
0.352546
0.409216
0.342977
0.390402
0.412652
0.427565
0.499604
0.489593
0.588764
0.711979
0.746431
0.688105
12.3348
11.5358
10.5174
9.70204
8.94001
8.43742
7.99529
7.7541
7.49026
7.47299
7.59697
7.83141
8.22806
8.60636
9.10008
9.91148
10.694
11.5882
12.6697
13.6353
10.6924
9.82377
9.10133
8.33814
7.78641
7.27598
6.91375
6.67949
6.50922
6.55
6.55269
6.73529
7.09389
7.42283
7.8662
8.52079
9.24855
10.0671
10.9617
11.7006
8.95892
8.34111
7.6167
7.06008
6.51736
6.09579
5.80031
5.60815
5.4603
5.51
5.54266
5.73087
5.96296
6.2852
6.75668
7.169
7.77758
8.51972
9.30736
9.95405
7.28579
6.81842
6.20048
5.7363
5.33055
4.96586
4.78752
4.57088
4.46445
4.432
4.55174
4.59492
4.88342
5.13165
5.50608
5.83219
6.39422
6.89892
7.57843
8.08207
5.64803
5.23322
4.88755
4.41378
4.17573
3.82931
3.68543
3.49975
3.55311
3.44402
3.5238
3.61301
3.76089
3.90407
4.24895
4.57102
4.95488
5.38295
5.87596
6.28469
3.97034
3.76931
3.35597
3.15392
2.91628
2.79683
2.59835
2.52343
2.40092
2.43443
2.51964
2.54834
2.64856
2.86309
3.01131
3.25537
3.48235
3.81541
4.18438
4.56292
2.42024
2.2598
2.02656
1.90691
1.74237
1.6611
1.55572
1.52861
1.5501
1.43546
1.50535
1.58216
1.59666
1.73504
1.8044
1.99743
2.07966
2.317
2.55109
2.6163
0.826118
0.696656
0.696276
0.605651
0.569475
0.466536
0.532525
0.497982
0.450783
0.487615
0.48865
0.530238
0.47832
0.557036
0.698244
0.639961
0.721598
0.828737
0.854452
0.922395
14.2537
13.312
12.394
11.4836
10.7654
10.2126
9.7508
9.53877
9.2417
9.22083
9.33926
9.48136
9.81428
10.3767
10.8985
11.6256
12.5417
13.4742
14.5573
15.5005
12.172
11.3534
10.5415
9.74516
9.2362
8.68461
8.28533
8.15658
7.86836
7.90744
7.98934
8.15348
8.48238
8.90821
9.34259
9.94895
10.7187
11.576
12.4215
13.2228
10.1837
9.55786
8.85765
8.25564
7.70165
7.22641
6.91839
6.75683
6.66809
6.67682
6.62466
6.84485
7.04572
7.38355
7.78202
8.30946
8.94676
9.70128
10.4401
11.091
8.24556
7.74551
7.11931
6.62042
6.19135
5.90197
5.55981
5.45967
5.36209
5.3021
5.39603
5.56583
5.73891
6.03262
6.33532
6.78281
7.32718
7.93589
8.51001
9.06737
6.34024
5.99126
5.53946
5.07408
4.74958
4.53424
4.33112
4.17658
4.16253
4.09771
4.19167
4.22891
4.34976
4.65801
4.89119
5.25807
5.65618
6.12503
6.59477
6.97443
4.52752
4.19354
4.03257
3.66314
3.40398
3.21234
3.01579
3.01756
2.98474
2.93444
2.99207
2.92222
3.19241
3.29163
3.49814
3.70209
3.97912
4.35371
4.63767
4.93259
2.70186
2.60702
2.37819
2.1587
2.04285
1.87124
1.86264
1.76873
1.7843
1.73534
1.81267
1.76817
1.85236
1.94876
2.08201
2.25932
2.40923
2.59207
2.84172
2.9489
0.941708
0.859361
0.764452
0.728368
0.697854
0.637687
0.674451
0.569627
0.575566
0.655638
0.586279
0.661171
0.68314
0.689273
0.791407
0.798077
0.82442
0.803643
0.909692
1.04463
)
;

boundaryField
{
    hotSide
    {
        type            calculated;
        value           nonuniform List<scalar> 
400
(
1.97787
1.33491
0.500071
-0.312501
-0.784333
-1.38259
-1.52689
-1.54287
-1.40602
-0.999889
-0.223422
0.616785
1.67615
3.07179
4.84047
6.79783
8.90915
11.2518
13.5454
15.4963
1.95175
1.21614
0.363048
-0.445968
-1.01567
-1.52211
-1.81993
-1.96196
-1.72571
-1.45019
-0.851785