/*--------------------------------*- C++ -*----------------------------------*\
| =========                 |                                                 |
| \\      /  F ield         | OpenFOAM: The Open Source CFD Toolbox           |
|  \\    /   O peration     | Version:  2212                                  |
|   \\  /    A nd           | Website:  www.openfoam.com                      |
|    \\/     M anipulation  |                                                 |
\*---------------------------------------------------------------------------*/
FoamFile
{
    version     2.0;
    format      ascii;
    arch        "LSB;label=32;scalar=64";
    class       volScalarField;
    location    "0";
    object      T;
}
// * * * * * * * * * * * * * * * * * * * * * * * * * * * * * * * * * * * * * //

dimensions      [0 0 0 1 0 0 0];

internalField   nonuniform List<scalar> 
3200
(
346.548
347.356
348.794
349.629
350.286
351.111
351.572
351.859
352.022
351.981
351.968
351.711
351.446
350.531
350.094
349.326
348.385
347.331
346.132
345.277
340.467
341.139
342.456
343.17
343.77
344.437
344.818
345.038
345.22
345.181
345.155
344.958
344.716
343.9
343.531
342.878
342.056
341.108
340.117
339.387
334.358
334.892
336.02
336.607
337.189
337.715
337.987
338.187
338.374
338.297
338.312
338.156
337.904
337.228
336.904
336.348
335.674
334.857
334.041
333.478
328.159
328.607
329.519
330.004
330.512
330.885
331.133
331.246
331.483
331.388
331.329
331.247
331.025
330.525
330.219
329.755
329.239
328.549
327.926
327.478
321.953
322.274
323.025
323.363
323.775
324.08
324.224
324.314
324.568
324.498
324.351
324.31
324.162
323.755
323.523
323.129
322.739
322.236
321.778
321.412
315.743
315.925
316.483
316.738
317.021
317.243
317.335
317.375
317.57
317.535
317.39
317.37
317.269
316.963
316.807
316.498
316.233
315.922
315.593
315.318
309.467
309.571
309.903
310.074
310.227
310.358
310.445
310.438
310.526
310.538
310.457
310.43
310.38
310.195
310.105
309.891
309.765
309.563
309.375
309.214
303.17
303.213
303.329
303.359
303.461
303.475
303.513
303.494
303.532
303.53
303.528
303.5
303.501
303.412
303.375
303.315
303.277
303.213
303.145
303.106
347.882
348.623
349.889
350.885
351.597
352.269
352.749
352.983
353.105
353.309
353.029
352.822
352.695
351.956
350.961
350.508
349.509
348.569
347.393
346.487
341.607
342.19
343.333
344.188
344.807
345.381
345.75
345.954
346.076
346.303
346.018
345.863
345.759
345.079
344.196
343.818
342.979
342.126
341.161
340.428
335.265
335.718
336.74
337.517
337.984
338.421
338.74
338.936
339.031
339.255
339.031
338.848
338.779
338.166
337.464
337.113
336.442
335.693
334.876
334.354
328.891
329.232
330.085
330.784
331.126
331.449
331.716
331.903
331.946
332.177
331.996
331.826
331.78
331.233
330.686
330.401
329.877
329.248
328.569
328.245
322.501
322.778
323.463
323.965
324.259
324.46
324.708
324.848
324.836
325.029
324.936
324.791
324.706
324.327
323.873
323.636
323.243
322.736
322.254
322.018
316.09
316.279
316.814
317.161
317.351
317.43
317.662
317.762
317.764
317.85
317.81
317.735
317.636
317.381
317.058
316.873
316.605
316.242
315.927
315.736
309.631
309.749
310.089
310.32
310.417
310.439
310.612
310.683
310.636
310.708
310.659
310.68
310.577
310.419
310.269
310.115
309.982
309.747
309.571
309.46
303.22
303.259
303.385
303.458
303.497
303.504
303.564
303.566
303.568
303.588
303.578
303.585
303.549
303.473
303.435
303.382
303.34
303.265
303.199
303.174
349.31
350.197
351.252
352.263
353.07
353.904
354.357
354.663
354.725
354.893
354.737
354.469
354.207
353.695
352.697
352.023
351.198
349.914
348.956
347.853
342.791
343.569
344.473
345.363
346.053
346.718
347.131
347.428
347.452
347.528
347.466
347.219
347.017
346.587
345.681
345.096
344.411
343.277
342.432
341.552
336.258
336.91
337.712
338.405
339.042
339.493
339.931
340.179
340.193
340.233
340.225
339.961
339.775
339.423
338.65
338.201
337.593
336.656
335.921
335.195
329.69
330.19
330.918
331.431
331.971
332.369
332.74
332.901
332.908
332.958
332.964
332.744
332.587
332.253
331.668
331.327
330.77
330.019
329.362
328.802
323.086
323.471
324.046
324.48
324.868
325.212
325.481
325.602
325.59
325.659
325.654
325.502
325.353
325.124
324.613
324.41
323.957
323.367
322.806
322.425
316.506
316.763
317.179
317.516
317.779
318.037
318.227
318.315
318.272
318.368
318.339
318.289
318.106
317.922
317.588
317.464
317.126
316.706
316.299
316.039
309.936
310.055
310.325
310.521
310.704
310.872
310.98
310.996
310.97
311.035
311.016
311.023
310.871
310.731
310.562
310.502
310.309
310.02
309.786
309.652
303.306
303.355
303.459
303.529
303.6
303.651
303.65
303.687
303.682
303.695
303.689
303.701
303.657
303.595
303.558
303.521
303.477
303.351
303.302
303.239
350.639
351.905
352.81
354.109
354.752
355.553
356.311
356.357
356.583
356.745
356.472
356.206
355.93
355.336
354.43
353.806
352.854
351.676
350.295
349.473
343.923
345.016
345.732
346.949
347.504
348.175
348.815
348.883
349.044
349.149
348.953
348.714
348.526
347.952
347.18
346.637
345.799
344.802
343.603
342.904
337.242
338.096
338.647
339.742
340.266
340.783
341.329
341.392
341.537
341.599
341.435
341.228
341.094
340.579
339.906
339.485
338.719
337.883
336.887
336.277
330.511
331.173
331.619
332.533
332.988
333.416
333.827
333.88
334.041
334.036
333.883
333.72
333.674
333.176
332.625
332.346
331.678
330.93
330.175
329.697
323.707
324.256
324.612
325.308
325.636
326.011
326.287
326.344
326.465
326.477
326.305
326.253
326.25
325.788
325.384
325.174
324.646
323.982
323.499
323.131
316.909
317.32
317.606
318.03
318.31
318.592
318.779
318.836
318.926
318.942
318.739
318.818
318.784
318.385
318.105
317.964
317.614
317.098
316.8
316.55
310.172
310.401
310.543
310.83
311.034
311.16
311.286
311.325
311.345
311.391
311.236
311.339
311.307
311.04
310.862
310.793
310.566
310.248
310.073
309.945
303.427
303.493
303.537
303.602
303.684
303.747
303.774
303.795
303.824
303.821
303.76
303.794
303.804
303.712
303.636
303.619
303.537
303.429
303.39
303.322
352.556
353.354
354.587
355.865
356.45
357.344
357.983
358.29
358.525
358.47
358.414
358.083
357.858
357.458
356.477
355.673
354.586
353.269
351.989
350.915
345.573
346.276
347.29
348.425
348.892
349.698
350.307
350.532
350.699
350.656
350.636
350.362
350.167
349.786
348.952
348.246
347.287
346.182
345.046
344.174
338.546
339.171
340.004
340.985
341.353
342.051
342.596
342.746
342.873
342.853
342.844
342.626
342.422
342.111
341.42
340.847
340.04
339.098
338.14
337.413
331.562
332.091
332.711
333.53
333.847
334.419
334.882
334.975
335.066
335.088
335.064
334.872
334.752
334.465
333.832
333.423
332.787
331.968
331.229
330.668
324.523
324.993
325.443
326.059
326.321
326.786
327.175
327.2
327.275
327.31
327.303
327.106
327.044
326.855
326.224
326.011
325.485
324.845
324.285
323.853
317.481
317.834
318.142
318.629
318.816
319.147
319.443
319.426
319.492
319.517
319.502
319.351
319.306
319.209
318.709
318.613
318.223
317.746
317.366
317.028
310.494
310.729
310.881
311.184
311.323
311.498
311.683
311.661
311.674
311.703
311.722
311.624
311.612
311.534
311.207
311.21
310.971
310.671
310.411
310.241
303.493
303.614
303.648
303.74
303.809
303.868
303.911
303.92
303.909
303.932
303.912
303.904
303.918
303.867
303.76
303.755
303.686
303.59
303.489
303.439
354.228
355.15
356.469
357.415
358.219
359.157
359.704
360.31
360.207
360.472
360.277
359.888
359.579
359.107
358.377
357.544
356.392
354.944
353.758
352.69
347.043
347.796
348.943
349.758
350.449
351.286
351.764
352.289
352.205
352.42
352.209
351.919
351.658
351.247
350.632
349.891
348.873
347.574
346.559
345.725
339.848
340.511
341.394
342.104
342.693
343.398
343.789
344.248
344.171
344.325
344.127
343.952
343.718
343.401
342.843
342.21
341.364
340.263
339.379
338.743
332.635
333.198
333.847
334.437
334.934
335.527
335.844
336.139
336.167
336.232
336.066
335.98
335.786
335.56
335.039
334.564
333.84
332.929
332.202
331.711
325.406
325.858
326.289
326.824
327.214
327.629
327.908
328.085
328.127
328.116
328.017
328.03
327.818
327.718
327.272
326.912
326.325
325.589
325.027
324.705
318.174
318.479
318.793
319.169
319.479
319.766
319.938
320.042
320.098
320.057
319.991
320.092
319.844
319.845
319.475
319.219
318.793
318.288
317.898
317.676
310.904
311.115
311.296
311.48
311.703
311.88
311.997
312.016
312.095
312.01
312.028
312.094
311.914
311.933
311.707
311.514
311.316
310.975
310.741
310.631
303.65
303.732
303.761
303.854
303.92
303.99
304.007
304.031
304.053
304.015
304.038
304.064
303.983
303.998
303.912
303.852
303.802
303.684
303.597
303.57
355.611
356.811
357.876
358.996
359.782
360.847
361.638
361.966
362.125
362.286
362.198
361.799
361.35
360.81
360.106
359.279
357.999
356.388
355.357
354.398
348.247
349.237
350.125
351.132
351.835
352.737
353.467
353.72
353.836
354.017
353.927
353.554
353.173
352.743
352.098
351.425
350.296
348.902
347.994
347.229
340.824
341.673
342.437
343.302
343.903
344.682
345.259
345.51
345.563
345.706
345.647
345.299
344.988
344.679
344.087
343.514
342.582
341.422
340.653
340.036
333.414
334.113
334.715
335.459
335.966
336.617
337.049
337.259
337.292
337.391
337.315
337.054
336.799
336.577
336.107
335.583
334.878
333.92
333.284
332.771
326.036
326.532
327.001
327.573
327.993
328.516
328.856
328.993
328.966
329.093
329.013
328.831
328.603
328.466
328.094
327.674
327.134
326.377
325.923
325.509
318.651
318.968
319.267
319.706
320.045
320.408
320.631
320.727
320.721
320.785
320.715
320.585
320.394
320.341
320.101
319.798
319.416
318.857
318.499
318.233
311.226
311.381
311.568
311.852
312.018
312.288
312.402
312.465
312.451
312.47
312.415
312.331
312.233
312.254
312.07
311.888
311.683
311.349
311.101
310.942
303.768
303.806
303.87
303.976
304.006
304.115
304.13
304.182
304.169
304.168
304.161
304.131
304.089
304.114
304.053
303.986
303.918
303.826
303.715
303.674
356.896
358.229
359.442
360.526
361.524
362.454
363.119
363.553
363.888
363.849
363.958
363.543
363.153
362.474
361.546
360.964
359.615
358.101
356.929
355.818
349.332
350.465
351.526
352.448
353.375
354.17
354.694
355.063
355.395
355.358
355.476
355.058
354.707
354.135
353.324
352.806
351.691
350.353
349.359
348.41
341.764
342.708
343.594
344.39
345.182
345.926
346.288
346.588
346.838
346.863
346.998
346.597
346.275
345.787
345.114
344.652
343.768
342.578
341.78
340.998
334.197
334.942
335.682
336.319
336.992
337.615
337.873
338.115
338.284
338.301
338.49
338.151
337.826
337.436
336.915
336.541
335.847
334.836
334.188
333.544
326.607
327.167
327.784
328.243
328.811
329.282
329.437
329.586
329.777
329.786
329.951
329.702
329.416
329.071
328.704
328.433
327.903
327.093
326.594
326.078
319.013
319.398
319.848
320.223
320.61
320.93
321.024
321.08
321.29
321.328
321.414
321.207
320.987
320.74
320.516
320.312
319.925
319.38
319.002
318.676
311.445
311.665
311.928
312.146
312.393
312.556
312.628
312.632
312.806
312.81
312.87
312.731
312.624
312.468
312.325
312.19
311.957
311.641
311.409
311.227
303.85
303.922
304.014
304.081
304.13
304.191
304.223
304.231
304.275
304.322
304.33
304.273
304.225
304.198
304.123
304.085
303.993
303.914
303.822
303.768
358.497
359.531
360.936
361.856
363.073
364.027
364.825
365.076
365.362
365.417
365.29
365.186
364.702
363.987
363.099
362.465
361.221
359.886
358.414
357.232
350.754
351.612
352.795
353.616
354.699
355.494
356.212
356.401
356.667
356.685
356.584
356.525
356.082
355.422
354.665
354.09
353.065
351.862
350.633
349.629
342.938
343.705
344.642
345.417
346.283
346.982
347.58
347.692
347.967
347.982
347.88
347.848
347.468
346.919
346.253
345.738
344.886
343.883
342.856
342.024
335.17
335.821
336.524
337.163
337.877
338.438
338.938
339.022
339.225
339.264
339.196
339.15
338.849
338.392
337.825
337.408
336.739
335.883
335.095
334.431
327.361
327.88
328.423
328.92
329.496
329.954
330.287
330.372
330.523
330.549
330.517
330.45
330.205
329.856
329.396
329.111
328.62
327.893
327.32
326.79
319.558
319.977
320.296
320.652
321.106
321.41
321.643
321.707
321.83
321.835
321.829
321.76
321.566
321.344
321.013
320.793
320.485
319.914
319.527
319.109
311.785
312.022
312.176
312.356
312.688
312.895
313.021
313.046
313.147
313.11
313.108
313.076
312.976
312.806
312.652
312.45
312.322
311.971
311.745
311.438
303.949
304.035
304.093
304.133
304.259
304.306
304.376
304.374
304.434
304.394
304.389
304.385
304.35
304.313
304.236
304.168
304.139
303.998
303.94
303.823
359.703
360.936
362.079
363.27
364.52
365.51
366.217
366.464
366.856
367.053
366.999
366.905
366.16
365.491
364.608
363.657
362.662
361.257
359.84
358.732
351.805
352.858
353.861
354.817
355.9
356.808
357.373
357.584
357.986
358.164
358.069
357.962
357.349
356.768
355.966
355.165
354.305
353.071
351.882
350.918
343.864
344.801
345.661
346.343
347.313
348.096
348.513
348.742
349.063
349.221
349.14
349.085
348.54
348.068
347.319
346.69
345.955
344.92
343.897
343.114
335.885
336.731
337.414
337.928
338.726
339.368
339.673
339.888
340.139
340.263
340.191
340.178
339.753
339.311
338.686
338.199
337.595
336.751
335.932
335.272
327.881
328.596
329.15
329.495
330.102
330.639
330.839
331.042
331.25
331.35
331.261
331.275
330.985
330.528
330.05
329.742
329.252
328.592
327.956
327.458
319.899
320.45
320.85
321.055
321.487
321.898
322.027
322.135
322.346
322.404
322.369
322.38
322.169
321.769
321.462
321.247
320.93
320.424
319.962
319.658
311.951
312.297
312.527
312.638
312.91
313.14
313.249
313.302
313.454
313.452
313.476
313.468
313.344
313.056
312.865
312.767
312.576
312.24
311.989
311.809
304.004
304.132
304.21
304.235
304.329
304.399
304.437
304.465
304.526
304.519
304.535
304.519
304.473
304.373
304.31
304.261
304.222
304.105
304.038
303.947
361.046
362.011
363.489
364.769
365.892
366.916
367.355
367.963
368.381
368.69
368.539
368.161
367.843
366.929
366.122
365.079
363.805
362.632
361.154
359.863
352.939
353.768
355.052
356.126
357.123
357.999
358.36
358.912
359.249
359.586
359.423
359.075
358.827
357.996
357.28
356.452
355.277
354.327
353.002
351.979
344.782
345.523
346.596
347.473
348.306
349.094
349.337
349.817
350.129
350.459
350.258
350.006
349.748
349.045
348.443
347.784
346.765
345.98
344.84
344.015
336.651
337.276
338.114
338.866
339.54
340.179
340.33
340.715
340.991
341.326
341.12
340.919
340.693
340.112
339.606
339.114
338.275
337.658
336.662
336.05
328.537
329.028
329.654
330.248
330.754
331.26
331.375
331.668
331.868
332.241
332.027
331.79
331.677
331.212
330.771
330.394
329.802
329.331
328.521
328.028
320.378
320.73
321.181
321.635
321.949
322.328
322.457
322.62
322.743
323.095
322.902
322.689
322.611
322.308
321.96
321.668
321.311
320.991
320.406
320.029
312.249
312.47
312.725
312.963
313.168
313.399
313.515
313.568
313.615
313.866
313.776
313.617
313.597
313.388
313.176
313.009
312.819
312.605
312.283
312.03
304.11
304.18
304.267
304.342
304.403
304.504
304.545
304.521
304.582
304.648
304.617
304.564
304.552
304.498
304.398
304.36
304.296
304.216
304.115
304.021
362.162
363.197
364.876
366.122
367.048
367.929
368.603
369.241
369.689
369.936
369.909
369.439
368.995
368.302
367.306
366.321
365.051
363.796
362.368
361.174
353.95
354.782
356.226
357.328
358.104
358.906
359.447
359.967
360.356
360.617
360.569
360.198
359.84
359.216
358.353
357.478
356.313
355.289
354.067
353.07
345.688
346.363
347.578
348.564
349.222
349.873
350.304
350.736
351.091
351.3
351.217
350.971
350.605
350.101
349.381
348.625
347.613
346.814
345.815
344.906
337.389
337.952
338.947
339.734
340.324
340.838
341.133
341.489
341.782
342.031
341.9
341.726
341.361
341.052
340.368
339.77
338.888
338.266
337.489
336.747
329.094
329.553
330.291
330.916
331.385
331.773
332.008
332.301
332.476
332.708
332.575
332.455
332.132
331.996
331.403
330.903
330.196
329.78
329.191
328.606
320.784
321.125
321.624
322.07
322.448
322.76
322.871
323.044
323.219
323.423
323.306
323.199
322.94
322.878
322.438
322.08
321.595
321.304
320.872
320.421
312.505
312.701
312.998
313.27
313.536
313.678
313.743
313.846
313.949
314.096
314.01
313.913
313.795
313.76
313.496
313.253
312.976
312.812
312.545
312.248
304.193
304.265
304.36
304.465
304.551
304.579
304.628
304.654
304.666
304.723
304.687
304.64
304.625
304.624
304.512
304.449
304.345
304.304
304.193
304.101
363.174
364.241
365.685
367.057
368.244
369.142
369.879
370.672
370.637
370.87
371.144
370.778
370.418
369.484
368.625
367.378
365.956
364.842
363.432
362.037
354.772
355.674
356.926
358.126
359.102
359.966
360.57
361.219
361.229
361.432
361.662
361.343
360.99
360.231
359.456
358.385
357.137
356.188
354.987
353.808
346.394
347.114
348.181
349.191
349.996
350.779
351.255
351.771
351.843
351.981
352.156
351.917
351.575
350.981
350.334
349.377
348.37
347.528
346.506
345.589
338.004
338.578
339.428
340.239
340.939
341.569
341.923
342.324
342.414
342.498
342.64
342.465
342.206
341.731
341.195
340.389
339.626
338.918
337.995
337.289
329.569
330.057
330.704
331.264
331.824
332.322
332.601
332.873
332.984
333.045
333.125
333.059
332.827
332.47
332.071
331.448
330.806
330.245
329.466
329.016
321.129
321.53
321.916
322.306
322.708
323.074
323.281
323.438
323.543
323.623
323.634
323.62
323.444
323.212
322.9
322.495
322
321.591
320.993
320.697
312.684
312.979
313.161
313.372
313.632
313.897
313.993
314.074
314.123
314.172
314.195
314.212
314.074
313.959
313.771
313.495
313.21
312.969
312.587
312.402
304.259
304.378
304.42
304.473
304.565
304.664
304.688
304.719
304.713
304.759
304.778
304.757
304.722
304.687
304.62
304.521
304.462
304.34
304.241
304.157
363.859
365.196
366.656
368.355
369.267
370.196
370.983
371.644
371.848
371.986
372.017
371.787
371.456
370.45
369.775
368.535
367.19
365.795
364.598
363.015
355.397
356.502
357.823
359.277
360.04
360.892
361.547
362.13
362.263
362.37
362.381
362.195
361.881
361.035
360.435
359.371
358.268
357.002
355.966
354.612
346.925
347.83
348.987
350.176
350.802
351.543
352.144
352.571
352.663
352.831
352.769
352.627
352.327
351.611
351.134
350.238
349.307
348.234
347.34
346.287
338.411
339.142
340.096
341.056
341.58
342.199
342.677
343.039
343.055
343.267
343.177
343.032
342.806
342.206
341.844
341.145
340.376
339.442
338.684
337.942
329.901
330.431
331.17
331.879
332.376
332.861
333.185
333.464
333.517
333.652
333.572
333.453
333.309
332.856
332.536
332.028
331.405
330.692
330.057
329.547
321.358
321.724
322.268
322.743
323.15
323.51
323.654
323.853
323.938
324.011
323.99
323.901
323.8
323.494
323.257
322.906
322.474
321.902
321.451
321.117
312.826
313.065
313.355
313.663
313.898
314.13
314.186
314.303
314.374
314.384
314.398
314.353
314.294
314.113
313.95
313.772
313.528
313.144
312.886
312.686
304.303
304.387
304.462
304.586
304.652
304.742
304.736
304.791
304.817
304.822
304.817
304.805
304.786
304.715
304.66
304.611
304.535
304.421
304.321
304.252
364.828
366.166
367.749
369.031
370.089
371.132
372.185
372.803
372.972
372.945
372.815
372.615
372.24
371.471
370.622
369.488
368.113
366.593
365.256
363.871
356.265
357.358
358.746
359.823
360.714
361.698
362.568
363.132
363.25
363.215
363.068
362.903
362.6
361.942
361.152
360.16
358.993
357.681
356.51
355.414
347.692
348.568
349.766
350.601
351.335
352.208
352.935
353.501
353.499
353.506
353.373
353.234
352.976
352.458
351.724
350.835
349.911
348.789
347.777
346.9
339.062
339.737
340.726
341.4
341.984
342.746
343.287
343.8
343.785
343.753
343.672
343.556
343.32
342.956
342.344
341.572
340.837
339.915
339.061
338.397
330.434
330.94
331.695
332.201
332.673
333.23
333.651
334.058
334.029
334.012
333.98
333.891
333.655
333.446
332.994
332.348
331.841
330.98
330.396
329.886
321.763
322.138
322.65
323.032
323.358
323.703
324.01
324.3
324.307
324.299
324.251
324.182
323.985
323.921
323.569
323.11
322.762
322.098
321.726
321.36
313.046
313.321
313.611
313.821
314
314.231
314.405
314.588
314.614
314.576
314.561
314.536
314.377
314.378
314.144
313.884
313.671
313.229
313.057
312.851
304.365
304.48
304.553
304.631
304.682
304.757
304.829
304.885
304.884
304.866
304.876
304.855
304.803
304.822
304.735
304.661
304.57
304.432
304.37
304.311
365.633
367.033
368.413
369.867
370.885
371.931
372.86
373.464
373.82
373.803
373.713
373.538
372.847
372.433
371.545
370.373
368.938
367.497
366.031
364.486
356.958
358.125
359.286
360.574
361.458
362.342
363.164
363.701
364.017
363.885
363.84
363.7
363.137
362.746
361.972
360.975
359.73
358.465
357.193
355.878
348.252
349.203
350.18
351.229
352
352.761
353.442
353.925
354.212
353.959
353.985
353.859
353.4
353.009
352.417
351.57
350.529
349.456
348.376
347.286
339.531
340.221
341.076
341.897
342.497
343.192
343.764
344.144
344.371
344.125
344.164
344.064
343.685
343.332
342.87
342.14
341.301
340.464
339.604
338.731
330.805
331.301
331.968
332.551
333.028
333.645
334.067
334.36
334.492
334.284
334.322
334.294
333.996
333.679
333.311
332.755
332.1
331.517
330.824
330.133
322.027
322.356
322.854
323.287
323.573
324.095
324.338
324.583
324.63
324.532
324.535
324.51
324.288
324.056
323.818
323.385
322.943
322.578
322.025
321.515
313.246
313.408
313.709
313.986
314.145
314.503
314.616
314.774
314.79
314.755
314.736
314.703
314.564
314.421
314.319
314.045
313.779
313.574
313.242
312.928
304.454
304.485
304.598
304.691
304.752
304.872
304.895
304.935
304.959
304.947
304.953
304.913
304.891
304.827
304.799
304.731
304.632
304.564
304.425
304.335
366.232
367.658
368.951
370.448
371.432
372.693
373.533
374.048
374.437
374.589
374.552
374.23
373.793
373.085
372.128
371.155
369.588
368.259
366.516
364.999
357.45
358.677
359.755
361.082
361.917
362.972
363.714
364.186
364.551
364.621
364.605
364.318
363.919
363.324
362.519
361.64
360.242
359.168
357.608
356.365
348.664
349.63
350.586
351.681
352.394
353.268
353.872
354.285
354.677
354.627
354.597
354.433
354.108
353.59
352.901
352.143
350.953
350.088
348.7
347.693
339.825
340.622
341.421
342.307
342.871
343.571
344.064
344.399
344.789
344.678
344.633
344.58
344.283
343.841
343.307
342.625
341.71
340.98
339.842
339.042
330.951
331.605
332.223
332.91
333.377
333.895
334.288
334.547
334.892
334.724
334.706
334.7
334.445
334.099
333.686
333.168
332.451
331.862
331.01
330.393
322.093
322.581
323.027
323.514
323.823
324.256
324.534
324.713
324.933
324.808
324.808
324.773
324.626
324.382
324.087
323.698
323.202
322.76
322.161
321.741
313.276
313.546
313.824
314.111
314.287
314.564
314.739
314.833
314.983
314.919
314.878
314.842
314.795
314.647
314.488
314.228
313.961
313.645
313.351
313.063
304.444
304.548
304.665
304.727
304.778
304.902
304.946
304.974
305.035
305.028
304.979
304.967
304.973
304.896
304.86
304.775
304.698
304.58
304.487
304.382
366.423
367.987
369.601
370.821
371.907
373.235
374.024
374.542
375.255
375.237
375.039
374.664
374.435
373.607
372.693
371.635
370.271
368.751
366.986
365.555
357.6
358.949
360.34
361.38
362.366
363.468
364.153
364.598
365.252
365.205
365.028
364.645
364.5
363.735
362.99
362.036
360.89
359.604
358.046
356.781
348.784
349.877
351.075
351.959
352.814
353.732
354.31
354.624
355.232
355.167
354.989
354.652
354.535
353.884
353.277
352.45
351.476
350.413
349.128
348.019
339.964
340.787
341.804
342.544
343.196
343.963
344.496
344.695
345.199
345.128
344.951
344.712
344.605
344.077
343.569
342.926
342.061
341.249
340.224
339.311
331.151
331.732
332.517
333.12
333.58
334.2
334.647
334.761
335.186
335.107
334.972
334.832
334.691
334.302
333.913
333.385
332.679
332.103
331.291
330.607
322.29
322.684
323.204
323.697
324.013
324.453
324.782
324.805
325.169
325.064
325.022
324.905
324.8
324.509
324.283
323.883
323.333
322.948
322.349
321.903
313.389
313.609
313.924
314.266
314.443
314.693
314.901
314.922
315.133
315.056
315.051
314.961
314.899
314.718
314.592
314.345
314.03
313.787
313.404
313.162
304.473
304.553
304.669
304.801
304.851
304.915
305.006
305.025
305.079
305.038
305.044
305.008
304.999
304.951
304.885
304.814
304.711
304.605
304.485
304.421
366.918
368.228
369.7
371.234
372.445
373.56
374.186
374.969
375.352
375.479
375.614
375.068
374.548
373.902
373.076
372.044
370.777
369.062
367.363
365.943
358.037
359.144
360.424
361.796
362.82
363.706
364.288
364.972
365.287
365.418
365.512
365.018
364.552
364.022
363.342
362.35
361.368
359.845
358.387
357.128
349.132
350.025
351.161
352.318
353.198
353.912
354.4
354.979
355.209
355.351
355.407
354.98
354.576
354.145
353.657
352.711
351.937
350.656
349.428
348.377
340.237
340.939
341.894
342.836
343.523
344.095
344.556
344.987
345.146
345.3
345.277
344.976
344.618
344.287
343.931
343.081
342.475
341.437
340.501
339.601
331.322
331.824
332.627
333.336
333.825
334.312
334.706
334.994
335.114
335.273
335.15
334.963
334.684
334.461
334.184
333.504
333.018
332.251
331.537
330.82
322.421
322.729
323.335
323.831
324.218
324.508
324.811
325.007
325.087
325.194
325.082
324.939
324.774
324.571
324.446
323.968
323.531
323.041
322.569
322.036
313.475
313.641
314.033
314.319
314.535
314.699
314.911
315.02
315.108
315.138
315.05
314.952
314.876
314.712
314.661
314.447
314.102
313.848
313.558
313.247
304.503
304.59
304.713
304.797
304.866
304.92
305.002
305.042
305.078
305.083
305.029
305
305.022
304.928
304.897
304.858
304.711
304.646
304.548
304.448
367.106
368.262
369.935
371.574
372.933
373.519
374.424
375.067
375.701
375.728
375.58
375.423
374.657
374.122
373.418
372.321
371.007
369.209
367.75
366.296
358.212
359.164
360.624
362.035
363.247
363.735
364.441
365.059
365.615
365.652
365.498
365.32
364.616
364.257
363.666
362.707
361.561
359.95
358.673
357.472
349.255
350.025
351.327
352.506
353.572
353.945
354.467
355.073
355.496
355.568
355.395
355.232
354.624
354.415
353.876
353.063
352.099
350.698
349.611
348.68
340.243
340.905
342.008
342.962
343.87
344.162
344.548
345.074
345.387
345.486
345.319
345.164
344.66
344.561
344.053
343.468
342.646
341.46
340.536
339.89
331.268
331.845
332.64
333.404
334.158
334.356
334.659
335.054
335.302
335.407
335.243
335.074
334.695
334.667
334.292
333.877
333.175
332.219
331.459
331.072
322.364
322.763
323.333
323.837
324.417
324.575
324.775
325.048
325.209
325.299
325.124
325.049
324.779
324.766
324.492
324.234
323.695
323.012
322.424
322.201
313.434
313.664
314.012
314.32
314.659
314.755
314.876
315.043
315.164
315.202
315.067
315.012
314.876
314.929
314.699
314.555
314.25
313.764
313.454
313.343
304.539
304.574
304.695
304.799
304.903
304.939
304.987
305.038
305.079
305.079
305.041
305.035
304.997
305.01
304.909
304.881
304.777
304.607
304.496
304.483
)
;

boundaryField
{
    hotSide
    {
        type            fixedGradient;
        gradient        nonuniform List<scalar> 
400
(
480.936
499.453
517.659
535.473
552.813
569.597
585.746
601.18
615.823
629.6
642.442
654.281
665.057
674.711
683.194
690.459
696.47
701.193
704.606
706.689
493.074
512.158
530.926
549.296
567.182
584.502
601.171
617.109
632.237
646.477
659.757
672.009
683.168
693.175
701.979
709.531
715.792
720.73
724.318
726.538
503.89
523.492
542.776
561.655
580.044
597.855
615.004
631.406
646.981
661.649
675.335
687.969
699.485
709.822
718.925
726.746
733.244
738.385
742.141
744.495
513.326
533.394
553.142
572.481
591.323
609.579
627.161
643.985
659.965
675.022
689.079
702.063
713.905
724.544
733.923
741.993
748.711
754.042
757.958
760.439
521.333
541.812
561.969
581.714
600.957
619.606
637.574
654.772
671.114
686.519
700.907
714.203
726.339
737.25
746.88
755.176
762.095
767.601
771.665
774.266
527.875
548.706
569.215
589.309
608.897
627.887
646.187
663.71
680.366
696.073
710.75
724.321
736.715
747.867
757.717
766.215
773.314
778.978
783.177
785.89
532.926
554.047
574.847
595.231
615.106
634.38
652.959
670.753
687.674
703.636
718.557
732.361
744.974
756.332
766.373
775.044
782.301
788.104
792.424
795.238
536.468
557.817
578.844
599.456
619.559
639.057
657.858
675.869
693.002
709.169
724.288
738.281
751.074
762.6
772.799
781.616
789.005
794.927
799.351
802.255
538.494
560.006
581.197
601.973
622.24
641.902
660.866
679.038
696.328
712.648
727.916
742.053
754.983
766.64
776.962
785.894
793.389
799.408
803.92
806.901
539.005
560.612
581.901
602.777
623.145
642.909
661.975
680.249
697.641
714.062
729.429
743.661
756.686
768.434
778.843
787.859
795.432
801.525
806.105
809.149
538.009
559.644
580.964
601.874
622.278
642.081
661.188
679.505
696.941
713.408
728.823
743.104
756.179
767.977
778.436
787.502
795.126
801.268
805.897
808.99
535.519
557.115
578.399
599.276
619.652
639.43
658.516
676.816
694.239
710.698
726.108
740.39
753.469
765.275
775.748
784.83
792.475
798.643
803.301
806.426
531.558
553.047
574.227
595.006
615.288
634.978
653.98
672.204
689.557
705.953
721.307
735.539
748.577
760.35
770.797
779.863
787.5
793.667
798.333
801.475
526.153
547.467
568.479
589.093
609.217
628.754
647.613
665.7
682.926
699.203
714.449
728.584
741.535
753.234
763.618
772.633
780.232
786.374
791.028
794.17
519.337
540.412
561.188
581.574
601.475
620.799
639.453
657.345
674.387
690.493
705.58
719.569
732.389
743.972
754.256
763.187
770.718
776.81
781.431
784.558
511.152
531.922
552.4
572.494
592.111
611.16
629.55
647.19
663.993
679.875
694.752
708.55
721.195
732.621
742.768
751.583
759.018
765.035
769.602
772.698
501.644
522.048
542.166
561.906
581.18
599.895
617.964
635.297
651.808
667.413
682.034
695.594
708.022
719.253
729.228
737.894
745.205
751.124
755.619
758.668
490.867
510.846
530.544
549.873
568.745
587.071
604.764
621.736
637.904
653.186
667.503
680.782
692.952
703.951
713.72
722.208
729.369
735.166
739.57
742.559
478.885
498.381
517.604
536.466
554.882
572.765
590.03
606.592
622.368
637.28
651.25
664.206
676.082
686.813
696.344
704.625
711.611
717.266
721.562
724.476
465.766
484.727
503.421
521.765
539.674
557.064
573.853
589.957
605.297
619.796
633.378
645.974
657.518
667.95
677.213
685.26
692.048
697.542
701.713
704.54
)
;
    }
    coldSide
    {
        type            mixed;
        refValue        uniform 300;
        refGradient     uniform 0;
        valueFraction   uniform 0.991591;
        source          uniform 0;
        value           nonuniform List<scalar> 
400
(
300.027
300.027
300.028
300.029
300.029
300.031
300.032
300.032
300.033
300.034
300.035
300.035
300.036
300.036
300.037
300.037
300.037
300.038
300.038
300.038
300.027
300.027
300.028
300.029
300.03
300.031
300.032
300.033
300.034
300.035
300.035
300.036
300.037
300.037
300.038
300.038
300.038
300.038
300.039