/*--------------------------------*- C++ -*----------------------------------*\
| =========                 |                                                 |
| \\      /  F ield         | OpenFOAM: The Open Source CFD Toolbox           |
|  \\    /   O peration     | Version:  2212                                  |
|   \\  /    A nd           | Website:  www.openfoam.com                      |
|    \\/     M anipulation  |                                                 |
\*---------------------------------------------------------------------------*/
FoamFile
{
    version     2.0;
    format      ascii;
    arch        "LSB;label=32;scalar=64";
    class       volScalarField;
    location    "0";
    object      relativeErrorField;
}
// * * * * * * * * * * * * * * * * * * * * * * * * * * * * * * * * * * * * * //

dimensions      [0 0 0 1 0 0 0];

internalField   nonuniform List<scalar> 
3200
(
0.0178625
0.0177887
0.017686
0.0178828
0.0183631
0.0189126
0.0196227
0.020281
0.020634
0.0211503
0.0210161
0.0209879
0.0207604
0.0201684
0.0197749
0.0193058
0.0189187
0.0188488
0.0187059
0.0188149
0.0157375
0.0155911
0.0156913
0.0159488
0.0162737
0.017027
0.0173677
0.0180568
0.0183022
0.0186461
0.0186879
0.01859
0.0180977
0.0179602
0.0172472
0.0170956
0.0167462
0.0163772
0.0165592
0.0166089
0.0136171
0.013398
0.013635
0.0137869
0.014026
0.0144431
0.0150499
0.0154934
0.0155946
0.0158383
0.0159677
0.01597
0.0157449
0.0152529
0.0148947
0.0146636
0.0143422
0.0142989
0.0143493
0.0144045
0.0111451
0.0110939
0.0113465
0.0114406
0.0118385
0.012051
0.0124709
0.0129598
0.0131321
0.0132665
0.0134346
0.0130297
0.0130171
0.0128218
0.0122275
0.0121048
0.0119681
0.0117187
0.0117439
0.0118451
0.00885617
0.00901312
0.00888943
0.00891343
0.00927588
0.00970991
0.0098699
0.0101406
0.0104763
0.0104446
0.0105573
0.010226
0.010398
0.00981225
0.00997928
0.00989129
0.00952269
0.0090379
0.00909682
0.00938153
0.00643672
0.00616824
0.00656452
0.00642465
0.00670212
0.00671823
0.00725559
0.00736405
0.00759197
0.0076317
0.00756882
0.00769566
0.00757389
0.0070942
0.0071739
0.00706497
0.00658381
0.00655625
0.00659188
0.00666819
0.00405681
0.00390615
0.0039457
0.00403317
0.00414144
0.00413339
0.00420347
0.00451952
0.00471909
0.00466343
0.00480221
0.00446882
0.00451547
0.00452237
0.00410988
0.00423621
0.00418742
0.00419736
0.00409056
0.0042567
0.00157522
0.00151054
0.0014447
0.00122494
0.00130833
0.00126679
0.00146802
0.00142522
0.00152134
0.00166936
0.00146322
0.0016195
0.00165826
0.00163639
0.00126075
0.00151552
0.00150147
0.00128202
0.00136021
0.00118382
0.0162904
0.0158851
0.0157211
0.0158571
0.0163654
0.0169259
0.0173907
0.0179789
0.0185681
0.0188322
0.0188562
0.0188528
0.0186584
0.0179474
0.0174378
0.0171596
0.0168137
0.0167509
0.0166557
0.0170938
0.0143151
0.0140132
0.0141513
0.0143825
0.0145856
0.0151582
0.0154692
0.0161623
0.016543
0.0168169
0.0167567
0.0166643
0.0164995
0.0162419
0.0155677
0.0151882
0.0149251
0.0146676
0.0151428
0.0150753
0.0122572
0.0119653
0.0122274
0.0123662
0.0127532
0.0130967
0.0136255
0.0140213
0.0144996
0.0147236
0.0146182
0.014681
0.0141322
0.0138765
0.0137521
0.0133031
0.0129108
0.0128546
0.0128792
0.0129194
0.0103674
0.010282
0.0103202
0.0105521
0.0108329
0.0109726
0.0112753
0.0117064
0.0118184
0.0122712
0.0122635
0.0121375
0.0118696
0.0115649
0.0111251
0.0110127
0.0107939
0.0107392
0.0107395
0.0105657
0.00846198
0.00820393
0.00828623
0.00815138
0.008395
0.00863398
0.00894514
0.00944611
0.00956315
0.00983702
0.00955559
0.00934344
0.00949131
0.00896712
0.00893352
0.00866575
0.00856024
0.00830284
0.00836429
0.00837458
0.00566728
0.00612618
0.00595594
0.00584196
0.0060413
0.00618237
0.00651736
0.0069557
0.00686332
0.00712704
0.00709995
0.00704902
0.0069438
0.00655758
0.0064711
0.00621927
0.00627515
0.0060294
0.00606708
0.00635986
0.00384116
0.00365474
0.00361949
0.00361928
0.00361509
0.00379941
0.00401852
0.00413292
0.00399975
0.00420108
0.00416074
0.00434501
0.00409452
0.00411936
0.00410667
0.00398449
0.00360902
0.00377207
0.00349292
0.00392773
0.00130709
0.00121584
0.00118797
0.00125489
0.00103689
0.00131847
0.00164745
0.00151104
0.00129466
0.00150672
0.00138117
0.00149825
0.00143631
0.00133209
0.00142721
0.00141727
0.00140725
0.00122342
0.00128216
0.00149407
0.0138533
0.0134514
0.0135749
0.0136744
0.0139638
0.0143138
0.0148955
0.0151191
0.0158759
0.0158699
0.0159383
0.0160809
0.0154902
0.01529
0.0146804
0.014346
0.0144446
0.0142359
0.0146275
0.0148204
0.0126001
0.0121054
0.012027
0.0122181
0.012624
0.0129153
0.0134821
0.0137118
0.0142246
0.0145839
0.014455
0.0143402
0.0141211
0.0137714
0.0132863
0.0132234
0.0129178
0.0126897
0.0128926
0.0131414
0.0110134
0.0106884
0.0108659
0.0107182
0.0107459
0.0113018
0.0117776
0.0121355
0.0124186
0.0125636
0.0129014
0.0124609
0.0121138
0.0119388
0.0116243
0.0113084
0.0109709
0.0111134
0.0110995
0.0115817
0.00894338
0.00893692
0.00895343
0.0088262
0.0093352
0.00968899
0.0098671
0.0100778
0.010505
0.0107948
0.0106563
0.0105103
0.0102391
0.00986851
0.00968482
0.00965533
0.00920418
0.00942202
0.00955987
0.00955687
0.00705338
0.00724238
0.00720871
0.00720367
0.00737371
0.00787514
0.00812341
0.00805142
0.00827288
0.0084348
0.0084668
0.00817285
0.00809733
0.00794416
0.00778789
0.00751836
0.00723102
0.00728597
0.0073629
0.00749667
0.00533602
0.00538385
0.00535529
0.00527137
0.0054003
0.00565121
0.00554214
0.0059697
0.00629713
0.0064183
0.0061896
0.00613508
0.00566955
0.00549518
0.00577086
0.00562252
0.00541525
0.00520668
0.00544885
0.00557265
0.00304544
0.00323133
0.00317048
0.00302508
0.00331053
0.00307362
0.00343219
0.00354099
0.00361726
0.0038376
0.00378149
0.00384111
0.0036827
0.00350197
0.0036523
0.0034569
0.00326601
0.00310963
0.00342671
0.00352537
0.000974808
0.00116172
0.00100864
0.000978663
0.0012144
0.00112363
0.00123633
0.00127727
0.00116982
0.00143795
0.00133036
0.0010453
0.00121232
0.00140203
0.000946794
0.00108885
0.00107232
0.00111382
0.00103035
0.00111117
0.0118865
0.0114643
0.0112005
0.0113163
0.0115048
0.0117783
0.0121938
0.0127298
0.0130642
0.0134835
0.0132362
0.0130822
0.0127938
0.0124517
0.0118795
0.0118001
0.0115208
0.0116291
0.0118551
0.0125145
0.0109873
0.0105097
0.0104114
0.0101484
0.0102714
0.0105965
0.0112113
0.0114389
0.0117718
0.0121291
0.0121017
0.0117317
0.0116815
0.0112335
0.0108741
0.0106128
0.0105032
0.0106021
0.0106799
0.011247
0.00959732
0.00917238
0.00916741
0.00897355
0.0091373
0.00939383
0.00984194
0.0100134
0.0104785
0.010419
0.0105715
0.0106081
0.0101926
0.00983109
0.00952337
0.00951912
0.00932266
0.00918595
0.00940536
0.00966822
0.00795301
0.00772658
0.00761854
0.00755004
0.00785769
0.00797406
0.00814078
0.00848086
0.00891443
0.0088862
0.0090014
0.00891627
0.00856492
0.00842163
0.00797216
0.00775028
0.0077079
0.00785581
0.00795788
0.00807665
0.00644318
0.0060916
0.00614689
0.00604488
0.00620213
0.00632283
0.00641899
0.00682123
0.00697022
0.00722042
0.00728382
0.00717459
0.00685336
0.00657342
0.00626211
0.006296
0.00621029
0.00631894
0.00623707
0.00652602
0.00452914
0.0045219
0.00431591
0.00453717
0.00447417
0.00456426
0.0047635
0.00498133
0.00516028
0.00497218
0.00512201
0.00505979
0.00490797
0.0048858
0.00492325
0.00450802
0.00426682
0.0045401
0.00474521
0.0048043
0.00279614
0.00259554
0.00269815
0.00265022
0.00282707
0.00294534
0.00299453
0.00300072
0.00311409
0.00303731
0.0031173
0.00328322
0.00311493
0.00304897
0.00290734
0.00258609
0.00283557
0.00284181
0.00252435
0.00301594
0.00085527
0.000943077
0.000834987
0.000999547
0.000913417
0.000950004
0.000941977
0.00110199
0.00107086
0.00112144
0.00127223
0.00104999
0.00113491
0.00111955
0.000917874
0.000909722
0.000954108
0.000953906
0.00107792
0.000801439
0.0100087
0.00938926
0.00915076
0.00903345
0.00905552
0.00925956
0.00949625
0.010028
0.0101883
0.0105291
0.0105091
0.0104787
0.0101647
0.00969618
0.00981191
0.00921909
0.009199
0.00952399
0.00992512
0.0103679
0.00915404
0.00883288
0.00834183
0.00833131
0.00838225
0.00873244
0.00875233
0.00901334
0.00937707
0.00972602
0.0095927
0.00946127
0.00911206
0.0090861
0.00866547
0.0086945
0.00863593
0.00863455
0.00891172
0.00905754
0.00804347
0.00768699
0.00737015
0.00753404
0.0071733
0.0075971
0.00779256
0.00821004
0.00828485
0.00872261
0.0086526
0.00832699
0.0080758
0.00800299
0.0074755
0.00738335
0.00738563
0.00781152
0.00800905
0.00801604
0.00699033
0.00661143
0.00645171
0.00606069
0.00626093
0.00652397
0.00677375
0.00698533
0.00718404
0.00712785
0.00709717
0.00719408
0.00710669
0.00680239
0.00659848
0.00635156
0.00628309
0.00636575
0.0065524
0.00672539
0.00538563
0.00514983
0.00500471
0.00514218
0.00492345
0.00509966
0.00540922
0.00562061
0.00576969
0.00588688
0.00595245
0.00567948
0.00553245
0.00525624
0.00524927
0.00523165
0.00486981
0.00493252
0.00531121
0.0053304
0.00408128
0.00413673
0.00392042
0.00370342
0.00395352
0.00388336
0.00397383
0.0039829
0.00420378
0.00407171
0.00412861
0.0041389
0.00434774
0.00371295
0.00385025
0.00378663
0.00361933
0.00376139
0.00393981
0.0040509
0.00250864
0.00247465
0.0024034
0.00241331
0.00228266
0.00234044
0.00251206
0.00233716
0.00253191
0.00253537
0.00258423
0.00237272
0.00259287
0.00249462
0.00237423
0.00236054
0.0024007
0.00226372
0.00232759
0.00251368
0.000866003
0.000896719
0.000867253
0.000651954
0.00069299
0.000725958
0.000731752
0.000711421
0.000831564
0.000884607
0.000999523
0.000986006
0.000799804
0.000785298
0.000798727
0.000917416
0.000587906
0.000869431
0.000933309
0.000774999
0.00858595
0.0081626
0.00743113
0.00717047
0.0073298
0.00732671
0.00731946
0.00769958
0.00792786
0.00796398
0.00790319
0.00798465
0.00763305
0.00754371
0.00728613
0.00717783
0.00720279
0.00746603
0.00798008
0.00871242
0.00793129
0.00722721
0.00681514
0.0068728
0.00660798
0.00664253
0.00696641
0.00716717
0.00742986
0.00734089
0.0072134
0.00723252
0.00721975
0.00675592
0.00675641
0.00654279
0.00660403
0.00682976
0.00719359
0.00799645
0.00707134
0.00647636
0.00629799
0.00611093
0.00598726
0.00619446
0.00601508
0.00640437
0.00656546
0.00661426
0.00669188
0.00670717
0.00634431
0.00631407
0.00594156
0.00591807
0.00587322
0.00624585
0.00663326
0.00666874
0.00615045
0.00551334
0.00522264
0.00511789
0.00510854
0.00523032
0.00515569
0.00559372
0.00554744
0.00562672
0.00590971
0.00562102
0.00557478
0.00515051
0.00516167
0.00500874
0.00491234
0.00507834
0.00558306
0.00559326
0.00473917
0.00451998
0.00399644
0.00399869
0.00402602
0.00411848
0.00433046
0.00433775
0.00430029
0.00457163
0.00448243
0.00448347
0.00416155
0.00415155
0.00405243
0.00408733
0.00406349
0.00421859
0.0044698
0.00444961
0.00355619
0.0034793
0.00316223
0.00300706
0.00286836
0.00306203
0.00299092
0.00323387
0.00315595
0.00336879
0.00344673
0.00337955
0.00316333
0.0032372
0.00296621
0.00312561
0.00294575
0.0030228
0.00320795
0.00343925
0.00210107
0.00188986
0.00210041
0.00184312
0.00182176
0.00195591
0.00215369
0.0020776
0.00181232
0.00202887
0.00213211
0.00210921
0.0022185
0.00206927
0.00187699
0.00192186
0.00202498
0.0019671
0.0018554
0.00174426
0.000879465
0.000566047
0.000657704
0.000751219
0.000348556
0.000559492
0.000608416
0.000752249
0.000814042
0.000618936
0.000554377
0.000642435
0.000731917
0.000838767
0.000471971
0.000473505
0.000535146
0.000611714
0.000444986
0.000545918
0.00760926
0.00666835
0.00619858
0.00591109
0.00543519
0.00542037
0.00565976
0.00567211
0.00586329
0.00572133
0.00597088
0.00578812
0.00557235
0.0054084
0.00529724
0.00528939
0.00576965
0.00583168
0.00645567
0.0071698
0.00698103
0.00637337
0.0058505
0.00527508
0.0053203
0.00512369
0.00510356
0.00533456
0.00566032
0.00550972
0.00553281
0.00539788
0.00511878
0.00496072
0.00477404
0.00498404
0.00513858
0.00564282
0.00586235
0.00664648
0.00623501
0.00555308
0.00513233
0.00478934
0.00486364
0.00458176
0.00497625
0.00487152
0.0050507
0.00486992
0.00488761
0.00497082
0.00472393
0.00456457
0.00463995
0.00454222
0.00460934
0.00481974
0.0052589
0.00562227
0.00525007
0.00463269
0.00467318
0.00410195
0.00405011
0.00413297
0.0044006
0.00406714
0.00433361
0.00450079
0.00422195
0.00430793
0.00410683
0.00384286
0.00398911
0.00385369
0.00393737
0.00425574
0.00458845
0.00493765
0.00429837
0.00379269
0.00356371
0.0032843
0.0034657
0.00306801
0.00348213
0.00353365
0.00338681
0.00334055
0.00350528
0.00337919
0.00344905
0.00346653
0.00326329
0.00312261
0.00335222
0.00334251
0.00368937
0.0038251
0.00317986
0.0029794
0.00276888
0.0026647
0.00243099
0.00240763
0.00263883
0.00254213
0.00277946
0.0024452
0.0027566
0.00249696
0.00234274
0.0025211
0.0020679
0.00217673
0.00226433
0.00242186
0.0025119
0.00285415
0.00179954
0.00188327
0.00161844
0.00169392
0.00137371
0.00158053
0.00150939
0.0016462
0.00170719
0.00164532
0.0016136
0.00157459
0.00173233
0.00150489
0.00135582
0.0015582
0.00152911
0.00131281
0.0017475
0.00185059
0.000851572
0.00069166
0.000519985
0.000551215
0.000492459
0.000619216
0.000444256
0.000691403
0.000482872
0.000386165
0.000516162
0.000312994
0.000465836
0.000351634
0.000349659
0.0003785
0.000403743
0.000667003
0.000422129
0.000481929
0.00673323
0.00599603
0.00508283
0.0044478
0.00431733
0.00390222
0.00401628
0.0037851
0.00393201
0.00408382
0.00402451
0.00376381
0.00372586
0.00372388
0.00363208
0.00366961
0.00399035
0.00448711
0.00528656
0.00619271
0.00637039
0.00555578
0.00505247
0.00441027
0.00411481
0.00401684
0.00388956
0.00411754
0.00417284
0.00401307
0.00394207
0.00377637
0.00393918
0.00380437
0.00362981
0.00383568
0.00397289
0.00455119
0.00475879
0.00560684
0.00541268
0.00518486
0.00472425
0.00383761
0.0037619
0.0036727
0.00359938
0.00375216
0.00369237
0.00369335
0.00367214
0.00367343
0.00334197
0.00337238
0.00333494
0.00333198
0.00347315
0.00390704
0.0044973
0.00482951
0.00475493
0.00431081
0.00373048
0.00348761
0.00341991
0.00322564
0.00293454
0.00311246
0.00335839
0.00303863
0.00320601
0.00296784
0.00323448
0.00297042
0.00302628
0.00295384
0.00308601
0.00330288
0.00370994
0.00429204
0.00375022
0.00352277
0.00324284
0.00278783
0.00294107
0.00278101
0.00258236
0.0026982
0.00246756
0.00263354
0.00255853
0.00261783
0.00250835
0.00250154
0.00229883
0.00261493
0.00239454
0.00284921
0.00297041
0.0033667
0.0027983
0.00262828
0.00235972
0.00210187
0.00201726
0.00188939
0.0018534
0.00203235
0.00187225
0.00192171
0.00180846
0.00166956
0.00175271
0.00184248
0.0018497
0.00181441
0.00197414
0.00210718
0.00225203
0.0026076
0.00183827
0.00183904
0.00144638
0.00150766
0.00114617
0.00116331
0.00133996
0.00128313
0.00124495
0.00132869
0.0012122
0.00125376
0.00121005
0.00107182
0.00100631
0.000980457
0.00123216
0.00112865
0.00142129
0.00155897
0.000557418
0.000412191
0.000323811
0.000512208
0.000484136
0.000361951
0.000386977
0.000614983
0.00058154
0.000204284
0.000610983
0.000463483
0.000518246
0.000469661
0.000377304
7.10329e-05
0.000469622
0.00028235
0.000518916
0.000871345
0.00635581
0.00541928
0.0045158
0.00416016
0.00312955
0.00298455
0.00280055
0.00283017
0.00274373
0.0027109
0.00260618
0.00260013
0.0023589
0.0023056
0.00253015
0.00265499
0.00307258
0.00376437
0.00458135
0.00541906
0.00596491
0.00529276
0.0043421
0.00368186
0.00312361
0.00299696
0.00284106
0.00272512
0.00278702
0.00254636
0.00250747
0.0026059
0.00235815
0.00239515
0.0026468
0.00283061
0.00300457
0.00359013
0.00453662
0.00506469
0.00538757
0.00458224
0.00401815
0.00343386
0.00298635
0.0027053
0.00278436
0.00263887
0.00239963
0.00238777
0.00264038
0.0025719
0.00238931
0.00242264
0.00248944
0.00261792
0.00262795
0.00322298
0.00389783
0.00440659
0.004595
0.00403712
0.00329864
0.00318967
0.00275309
0.00265472
0.0024371
0.00221613
0.00224185
0.0023941
0.00207256
0.00239193
0.00228447
0.00231853
0.00210699
0.00240676
0.00236748
0.00274595
0.00334726
0.00377563
0.0037154
0.00309747
0.00287041
0.00260461
0.0020954
0.00208699
0.00200055
0.00204727
0.00181693
0.00180991
0.00166358
0.00196231
0.0019329
0.0018094
0.00168942
0.00197361
0.00210004
0.00236423
0.00275681
0.00299063
0.00281801
0.00239104
0.00211187
0.00157006
0.00154453
0.00159316
0.0015167
0.0015019
0.0012858
0.00155984
0.00124727
0.0013822
0.00131929
0.00140226
0.00140718
0.00147976
0.00139982
0.00176599
0.0019589
0.00222074
0.00167672
0.00120716
0.00143453
0.00106732
0.00136977
0.000821412
0.00127712
0.000951392
0.00103044
0.00086712
0.00100564
0.000775742
0.000710047
0.00071864
0.000923413
0.000874855
0.000749778
0.00106945
0.00135075
0.00117694
0.000533277
0.000523212
0.000491396
0.000575475
0.000406083
0.000484704
0.000413318
9.4e-05
0.000300643
0.000285038
0.000241687
0.000464131
0.000423875
0.000237498
0.000155133
0.000351746
0.000215696
0.000373507
0.000545324
0.000449419
0.00633076
0.00529378
0.00435011
0.00338126
0.00288048
0.00237868
0.00198866
0.00191415
0.00180316
0.00163634
0.00185504
0.00152874
0.00147126
0.00158323
0.00189713
0.00216657
0.00261454
0.00325519
0.00452123
0.00536651
0.0062202
0.00527064
0.00405387
0.00338653
0.00277588
0.00252022
0.00229657
0.00207133
0.00182544
0.00187891
0.00180413
0.00166241
0.00175505
0.00166457
0.00207274
0.00218741
0.00255671
0.00318223
0.00410522
0.0049108
0.00521553
0.00469809
0.00394586
0.00323176
0.00278113
0.00247257
0.00223324
0.0021028
0.00196525
0.00181002
0.00179133
0.00160935
0.00179055
0.00192115
0.0020602
0.00222197
0.00224527
0.00283874
0.0035592
0.00416425
0.00459757
0.00398067
0.0033455
0.00295313
0.00246375
0.0021951
0.00196457
0.00193271
0.00167411
0.00173774
0.00158351
0.00149969
0.00156805
0.00173165
0.00197099
0.00193887
0.00218008
0.00256401
0.00316279
0.00371056
0.00337126
0.00305507
0.00262536
0.00234474
0.00202722
0.00161026
0.00184357
0.00166933
0.00140371
0.00136768
0.00171192
0.00137257
0.00120262
0.00142281
0.00118906
0.00141359
0.00157759
0.00208809
0.00246285
0.00278444
0.00264493
0.00250487
0.0018153
0.0017844
0.00144993
0.00139376
0.00115448
0.00128626
0.00117121
0.00101456
0.00125336
0.00079868
0.0011326
0.0011883
0.00111296
0.000975945
0.00126914
0.00166832
0.00199866
0.00202721
0.00169043
0.00159005
0.00133521
0.00134765
0.0009813
0.000867851
0.000888073
0.000844655
0.000970334
0.000742124
0.000641622
0.00056414
0.000639199
0.000495089
0.00050169
0.000621912
0.000661826
0.000995247
0.0013249
0.00140309
0.000749589
0.000310998
0.00048549
0.000493231
0.000332021
0.00027506
0.000149401
0.000254785
0.00024588
0.000300521
0.000252837
0.000123395
7.05516e-05
0.000129415
0.000392911
0.000221176
0.000473849
0.000355984
0.000449647
0.000233598
0.00691666
0.00589902
0.00447426
0.00351662
0.00284111
0.00226445
0.00188507
0.00163232
0.00136567
0.00131232
0.00118603
0.00109911
0.00103807
0.00104291
0.00152238
0.00208246
0.00245525
0.00347047
0.00447207
0.00563665
0.00652346
0.00545473
0.00448923
0.00360998
0.00295332
0.00208415
0.0021204
0.00186555
0.00154031
0.00141401
0.0012694
0.00132723
0.00134008
0.00150141
0.00152358
0.00196519
0.00239054
0.00314008
0.00404002
0.00495011
0.00563486
0.00478735
0.00419611
0.00336741
0.00278795
0.00247148
0.002077
0.0017024
0.00160872
0.00127578
0.0015428
0.00151239
0.00148674
0.00135835
0.00146721
0.00185543
0.00226996
0.00301769
0.00366937
0.00443574
0.00487877
0.00406748
0.00346451
0.00289478
0.00240919
0.00204933
0.00190437
0.00172291
0.0015858
0.00130879
0.00125111
0.00143276
0.00141032
0.00128566
0.00136641
0.0015471
0.0017468
0.00254488
0.00314502
0.00361093
0.00401118
0.00333092
0.00298847
0.00234008
0.00221656
0.0016931
0.00131539
0.00139608
0.00131701
0.00124711
0.00128187
0.0010732
0.00100074
0.00118768
0.0013766
0.00149237
0.00148522
0.00193745
0.00242124
0.00319364
0.00296343
0.00264859
0.00212985
0.00176116
0.00139846
0.00142052
0.00109784
0.000933908
0.00105482
0.00100024
0.000784037
0.000951609
0.000772076
0.000913226
0.000865544
0.00102359
0.00128155
0.00139441
0.00176298
0.00229793
0.00181397
0.00174492
0.00121554
0.00108032
0.00107896
0.000711615
0.000747613
0.000481834
0.00054797
0.000450434
0.000711791
0.000565779
0.000803154
0.00061113
0.000585313
0.000746897
0.000847012
0.001027
0.00112058
0.00138966
0.000731906
0.00043311
0.000544771
9.8863e-05
0.000247128
0.00016536
0.000265369
0.000197157
5.64859e-05
0.000175925
0.000414313
7.9784e-06
0.000103446
0.000147947
0.000207656
8.84417e-05
0.000254507
0.000205913
0.000429979
0.000353526
0.00793245
0.00662801
0.00514471
0.00420042
0.00319139
0.0025427
0.00187131
0.00150232
0.0012476
0.00130895
0.00108176
0.000988125
0.00123759
0.00143846
0.00158511
0.00224079
0.00282636
0.00398178
0.00494058
0.00626675
0.00742603
0.00616507
0.00502616
0.00413183
0.00320538
0.00274549
0.00221743
0.00176198
0.00145225
0.00130702
0.00128057
0.00116997
0.00125901
0.0016049
0.00174987
0.00221913
0.00286993
0.00374325
0.00458589
0.00561607
0.00635391
0.00546773
0.00442064
0.00372872
0.00300022
0.00245373
0.00216297
0.00174361
0.00181062
0.00127727
0.001449
0.00131432
0.00120951
0.00150215
0.00181184
0.00221474
0.0025572
0.00317962
0.00395463
0.00495281
0.0052452
0.00473481
0.00397915
0.00302727
0.00285484
0.00223685
0.0020294
0.00144756
0.0016925
0.00126501
0.00117505
0.0013288
0.00131736
0.00131011
0.00158768
0.00183764
0.00230811
0.00280339
0.00349935
0.00399167
0.004405
0.00380835
0.0031547
0.00292429
0.00229182
0.00193552
0.00156991
0.00152681
0.00139842
0.00116252
0.00104881
0.001054
0.00102676
0.000908596
0.00117366
0.0016232
0.00198968
0.00205968
0.00287602
0.0033689
0.00318645
0.00264423
0.00238283
0.00206158
0.00190079
0.00152577
0.00139115
0.000892079
0.00113646
0.000816567
0.000815203
0.000884473
0.000745439
0.000764139
0.00109316
0.00111699
0.00136881
0.00173924
0.00195749
0.00226365
0.00191717
0.00153077
0.00123531
0.00133372
0.0010089
0.000959058
0.000889669
0.000665019
0.000605154
0.000512655
0.000516167
0.000786946
0.000560244
0.000582604
0.00055877
0.000698842
0.0007346
0.00121
0.00140664
0.00149118
0.000538485
0.00049625
0.00052684
0.0005288
0.000375665
0.00040137
0.00019912
0.000310737
0.000232725
0.000257422
0.000217526
8.25983e-06
5.27761e-05
0.000129686
4.95211e-05
4.73333e-05
0.000252169
0.000333293
0.000361468
0.00043426
0.00937792
0.00787572
0.00638842
0.00545122
0.00437996
0.00340097
0.00274226
0.00214631
0.00198235
0.00171133
0.00161951
0.0014513
0.0016254
0.00194372
0.00247601
0.00292771
0.00360155
0.00471625
0.00592409
0.00736987
0.0084756
0.00714729
0.00609477
0.00509583
0.00415829
0.00329498
0.00286294
0.00233422
0.00181848
0.00205105
0.00169655
0.00195132
0.0015825
0.00202662
0.00231954
0.00288128
0.0038216
0.00450888
0.00559235
0.00632704
0.00749402
0.00632813
0.00539173
0.00442617
0.00364992
0.00302643
0.00245431
0.00224774
0.0019961
0.00174805
0.00185788
0.00193802
0.00162754
0.00193893
0.00236529
0.00276706
0.00327186
0.0040533
0.00492641
0.00557467
0.00615184
0.00563616
0.00464116
0.00389401
0.00337104
0.00272667
0.00220188
0.00198553
0.00174251
0.00165554
0.00154019
0.00151396
0.00154534
0.0017065
0.00181077
0.00222109
0.00278168
0.0034959
0.00423429
0.0048496
0.00482626
0.00436352
0.00374212
0.00317905
0.00253484
0.00236048
0.00210231
0.00166536
0.00133793
0.00129802
0.00141021
0.00133034
0.00138114
0.0011297
0.00176867
0.00180572
0.00226405
0.00283448
0.0033379
0.00388223
0.00363592
0.00325492
0.00275268
0.00236726
0.00216419
0.00186492
0.0014745
0.0015678
0.00135666
0.00122368
0.000958273
0.00088335
0.000989082
0.00109558
0.00126966
0.00137576
0.00158934
0.00187928
0.00274154
0.00299819
0.0019266
0.00204385
0.00152598
0.0013388
0.00120215
0.00102047
0.00111803
0.000821688
0.000923305
0.000697089
0.000882137
0.00039398
0.000691925
0.000655183
0.000697894
0.00107368
0.00102809
0.00131558
0.00140715
0.00170359
0.000494345
0.000790786
0.000598982
0.000412237
0.000354386
0.000254152
0.000305885
0.000239802
0.000182372
0.00033264
0.000196188
0.000300481
0.000169758
0.000310012
0.000153786
0.000213585
0.000494663
0.000333016
0.000602622
0.000394242
0.0110151
0.00985302
0.00812885
0.00664148
0.0056628
0.00473946
0.00402733
0.00348105
0.00276736
0.00289416
0.00253995
0.00242952
0.00267309
0.00313313
0.00328994
0.00436223
0.00510514
0.00613921
0.00757503
0.0091672
0.00995048
0.00874797
0.00741391
0.00638104
0.0051771
0.00456898
0.00378178
0.00324099
0.00301171
0.0026223
0.00246411
0.00236924
0.00274181
0.00293426
0.00322394
0.00412885
0.00482415
0.00567494
0.00681985
0.00792413
0.00902396
0.0078883
0.00649882
0.00566788
0.00482421
0.00410246
0.00370433
0.00304992
0.00295969
0.00231351
0.00243862
0.00251738
0.00276711
0.00275271
0.00310074
0.00344745
0.0042083
0.00482072
0.00599383
0.00708401
0.00739467
0.00666437
0.00550033
0.00471428
0.00399775
0.00331292
0.00309453
0.00268806
0.00248084
0.00234531
0.0021645
0.00209695
0.00237603
0.00245422
0.00249194
0.00316353
0.00333987
0.00430203
0.00508005
0.00586541
0.00575899
0.00528803
0.00449071
0.00374344
0.00329895
0.00306904
0.00258624
0.00231342
0.00202394
0.00204966
0.00167548
0.00168606
0.00174765
0.00193655
0.00233783
0.00240293
0.00286685
0.00343245
0.0040532
0.00472316
0.00427225
0.00395593
0.00347177
0.00269812
0.00227535
0.00207181
0.00189462
0.00181922
0.00136232
0.00146094
0.00148186
0.00135392
0.00147984
0.00135619
0.00161148
0.00177065
0.00208599
0.00256735
0.00284364
0.00333073
0.0025543
0.00237268
0.00214881
0.00174562
0.00153487
0.00131269
0.00100186
0.000931015
0.000982247
0.000796831
0.00095573
0.000672231
0.000904146
0.000945699
0.000780563
0.00104518
0.00125895
0.0012764
0.00154398
0.00190036
0.000897543
0.000775994
0.00070958
0.000705018
0.000530799
0.000481935
0.000431533
0.000302909
0.000413688
2.17256e-05
0.000247922
0.000199489
0.000228905
0.000344257
0.000445333
0.000363
0.000241697
0.000502769
0.000751637
0.000866207
0.013486
0.011997
0.0104369
0.00873849
0.0075285
0.00634496
0.00549567
0.00495988
0.00438583
0.00429173
0.00406226
0.00419271
0.00416591
0.00444368
0.00509176
0.00601365
0.00694871
0.00807749
0.00984085
0.0112851
0.0122998
0.0109594
0.00930736
0.00820887
0.00680702
0.00591651
0.00533011
0.00482527
0.00451712
0.00366711
0.00394587
0.00383946
0.00400054
0.00413215
0.00464968
0.00550161
0.00660554
0.00736188
0.00866078
0.00976469
0.010792
0.0093031
0.0082832
0.0072466
0.00607538
0.0055436
0.00468179
0.00438265
0.00406785
0.00373615
0.00363965
0.00359517
0.00357707
0.00383742
0.00420074
0.00468509
0.00532678
0.00648943
0.00748799
0.00857836
0.00885679
0.00801906
0.00708307
0.00614021
0.00524102
0.00448554
0.0039181
0.00356271
0.00340476
0.00306136
0.00310417
0.00297185
0.0031924
0.0032261
0.00352082
0.00412766
0.00460303
0.00532081
0.00609978
0.00705616
0.0068742
0.00626687
0.00561729
0.00491091
0.00429556
0.00381579
0.00327953
0.00271947
0.00265979
0.0026698
0.00244068
0.00255352
0.00234911
0.0026734
0.00318941
0.00332264
0.00361748
0.00429066
0.00508091
0.00548476
0.00502863
0.00482667
0.00400557
0.00352557
0.00307268
0.00257878
0.00234752
0.00221101
0.00207783
0.00215351
0.00192345
0.00178033
0.00194827
0.00199935
0.0020948
0.00241839
0.00263576
0.00286643
0.00346535
0.00410629
0.00300602
0.00288651
0.00244912
0.00221611
0.00185327
0.00147876
0.00139032
0.00156386
0.00119942
0.00133453
0.00123224
0.00118598
0.00113561
0.00130164
0.00132839
0.00142513
0.00178459
0.00186719
0.00233211
0.00244332
0.00126598
0.00121626
0.000800013
0.000635147
0.000678701
0.000708812
0.000714235
0.00046027
0.000299676
0.000417377
0.000324607
0.000245573
0.000562931
0.000328773
0.000365644
0.000283347
0.000562503
0.000746561
0.000727728
0.000906911
0.0163258
0.0145411
0.0130357
0.0112385
0.00998635
0.00857707
0.00781715
0.00704031
0.00671725
0.00619905
0.00610516
0.00594862
0.00623618
0.00682168
0.00725782
0.0081785
0.00943548
0.0104647
0.012177
0.0135268
0.0144888
0.0132227
0.011685
0.0102934
0.00895632
0.0081502
0.00723005
0.00655514
0.00635291
0.00574493
0.00561615
0.00548214
0.00600871
0.00628582
0.00642718
0.00748115
0.00823761
0.00944707
0.0106682
0.0120872
0.0127185
0.0114288
0.0102357
0.00881308
0.00796408
0.0071302
0.00628153
0.00591291
0.00548831
0.00512213
0.00509203
0.00484123
0.00526134
0.00538009
0.00580769
0.00643842
0.00723739
0.00797544
0.00932501
0.0102451
0.0107839
0.00973415
0.00862733
0.00779602
0.00668975
0.00606372
0.00573339
0.00509905
0.00469667
0.00430184
0.0043309
0.00435361
0.00419587
0.00452303
0.00510371
0.00538529
0.00618653
0.00673401
0.00760677
0.00873539
0.00835777
0.00788355
0.00690612
0.00618531
0.00542316
0.00484809
0.00452293
0.00378803
0.00384744
0.0035307
0.00326851
0.00337035
0.00348359
0.00367052
0.0040682
0.0045526
0.00496124
0.00565927
0.00622014
0.00670181
0.00620038
0.00569553
0.00502005
0.00446575
0.00375286
0.00344511
0.00330358
0.00291014
0.00276726
0.00265241
0.00251976
0.00259203
0.00271553
0.00276913
0.00287544
0.00331663
0.00351912
0.00404321
0.00461388
0.00516433
0.00373974
0.00357147
0.00317841
0.00272329
0.00229164
0.00222299
0.00212814
0.00171542
0.00174844
0.00160873
0.00167932
0.00156461
0.00149802
0.00171854
0.00193163
0.00188871
0.00204159
0.00253383
0.00271867
0.00310323
0.00115269
0.00110974
0.000994913
0.00119301
0.000669296
0.000651872
0.000553989
0.000623689
0.00067395
0.000387677
0.000696845
0.000563055
0.000535655
0.000489135
0.000699091
0.000713614
0.000735414
0.000952241
0.00117116
0.001193
0.0194979
0.0177961
0.0160618
0.0144075
0.0128973
0.0115943
0.0105945
0.0100433
0.00937345
0.0087415
0.00854502
0.00859929
0.00867526
0.00933234
0.00997673
0.0109132
0.0119637
0.0135511
0.0151381
0.0165208
0.0172622
0.0159292
0.0145401
0.0131262
0.0114383
0.010631
0.00945949
0.00897759
0.00868582
0.00803852
0.00772729
0.00769778
0.00796656
0.00841432
0.00905737
0.00964047
0.0106707
0.0117683
0.0132583
0.0147011
0.0152983
0.0135825
0.0121718
0.0110999
0.0102011
0.00905823
0.00847666
0.00784388
0.00752827
0.00702618
0.00686186
0.00682958
0.00700533
0.00744547
0.00784468
0.00849784
0.00910353
0.0105026
0.0114965
0.012499
0.0126549
0.0116414
0.0104323
0.00933386
0.00849943
0.00754001
0.00727232
0.00670425
0.00622055
0.00595886
0.0057027
0.00581396
0.00585973
0.00607281
0.00647451
0.00691981
0.00789616
0.00857304
0.00967425
0.0105558
0.0100319
0.00904987
0.00827693
0.00750907
0.00664412
0.00622353
0.00581102
0.005522
0.00487286
0.00454335
0.00467588
0.00459244
0.00471373
0.00502145
0.00541952
0.00544454
0.0061156
0.00694134
0.00752387
0.00819297
0.00734967
0.00666173
0.00591945
0.00552531
0.00486278
0.0044652
0.00409351
0.00387877
0.003502
0.00338069
0.00335364
0.00323784
0.00356097
0.0035062