/*--------------------------------*- C++ -*----------------------------------*\
| =========                 |                                                 |
| \\      /  F ield         | OpenFOAM: The Open Source CFD Toolbox           |
|  \\    /   O peration     | Version:  2212                                  |
|   \\  /    A nd           | Website:  www.openfoam.com                      |
|    \\/     M anipulation  |                                                 |
\*---------------------------------------------------------------------------*/
FoamFile
{
    version     2.0;
    format      ascii;
    arch        "LSB;label=32;scalar=64";
    class       volScalarField;
    location    "./ITHACAoutput/true/8.3";
    object      error;
}
// * * * * * * * * * * * * * * * * * * * * * * * * * * * * * * * * * * * * * //

dimensions      [0 0 0 1 0 0 0];

internalField   nonuniform List<scalar> 
3200
(
-0.0760504
-0.40028
-0.73567
-0.798023
-0.723847
-0.607272
-0.324988
-0.0746695
0.14347
0.309597
0.409583
0.556998
0.453391
0.391783
0.339257
0.420952
0.575277
0.841938
1.28182
1.74397
-0.0133684
-0.35517
-0.622887
-0.692298
-0.595373
-0.503694
-0.37042
-0.0336417
0.15843
0.332646
0.48537
0.43054
0.426407
0.422713
0.410847
0.399325
0.557505
0.807595
1.12006
1.47675
0.0225076
-0.228531
-0.456461
-0.590234
-0.496014
-0.388831
-0.263108
-0.0768211
0.159191
0.289994
0.378384
0.354974
0.380787
0.337496
0.399051
0.411606
0.572257
0.769037
0.980826
1.30668
-0.0118816
-0.235104
-0.266622
-0.445001
-0.451229
-0.252634
-0.118044
0.0105432
0.0830105
0.249233
0.271648
0.348639
0.320161
0.204475
0.317284
0.289725
0.40959
0.574198
0.883174
0.986426
-0.00237464
-0.16481
-0.294437
-0.348481
-0.345748
-0.247562
-0.120079
0.00694615
0.0241313
0.166244
0.267529
0.285661
0.208755
0.276639
0.236453
0.253681
0.414677
0.467292
0.669638
0.815536
0.0569463
-0.0999203
-0.199464
-0.243053
-0.217761
-0.144846
-0.0489551
-0.0367259
0.137042
0.152198
0.133737
0.153778
0.183065
0.168199
0.220491
0.180181
0.262174
0.27788
0.469581
0.608404
-0.000424934
-0.0922246
-0.152938
-0.181922
-0.133046
-0.101124
-0.0984758
0.00506178
0.0299462
0.139662
0.140273
0.178449
0.0986412
0.138901
0.118043
0.199622
0.137705
0.191807
0.316156
0.443884
0.0350768
-0.000104825
-0.0917216
-0.0262196
-0.117106
-0.102218
-0.0482057
-0.0234357
-0.00387295
-0.0183096
0.0837584
0.0337499
0.0912188
0.0118525
0.0618157
0.0709777
0.116514
0.0740941
0.136723
0.119474
-0.981996
-1.40854
-1.67781
-1.8096
-1.82995
-1.74921
-1.4964
-1.32353
-0.984979
-0.853006
-0.766069
-0.67005
-0.718655
-0.769051
-0.763999
-0.640333
-0.496258
-0.0939313
0.267937
0.749516
-0.85694
-1.09958
-1.34216
-1.51916
-1.55865
-1.48776
-1.29948
-1.06454
-0.844728
-0.622658
-0.527688
-0.5119
-0.477901
-0.539034
-0.446411
-0.501122
-0.306198
-0.113789
0.328254
0.700106
-0.605333
-0.840953
-1.09781
-1.23456
-1.21203
-1.12092
-1.05448
-0.819436
-0.699994
-0.51051
-0.379463
-0.292796
-0.327457
-0.448986
-0.35738
-0.409452
-0.19147
-0.0397705
0.398557
0.68147
-0.507353
-0.738259
-0.925642
-0.93454
-0.952974
-0.916656
-0.752786
-0.598979
-0.460283
-0.290914
-0.281588
-0.265089
-0.255653
-0.306751
-0.290775
-0.19563
-0.136888
0.0258853
0.270981
0.554778
-0.359762
-0.475753
-0.622333
-0.718928
-0.716524
-0.642492
-0.559639
-0.45899
-0.290682
-0.220288
-0.156107
-0.213023
-0.166112
-0.181999
-0.232228
-0.202744
-0.0540132
0.111301
0.235756
0.432704
-0.286784
-0.42897
-0.395069
-0.489496
-0.541603
-0.456952
-0.389234
-0.351276
-0.231474
-0.167335
-0.0928872
-0.101135
-0.0793
-0.0637299
-0.138259
-0.0869296
-0.0253722
0.0826116
0.21003
0.34023
-0.148864
-0.229467
-0.254391
-0.2807
-0.384683
-0.323835
-0.140813
-0.12145
-0.131619
-0.0501379
-0.027765
-0.110722
0.00254956
-0.103639
-0.0609121
0.00288831
0.00681013
0.0572597
0.151862
0.176489
-0.0241345
-0.0756592
-0.0554763
-0.0791369
-0.0944927
-0.0800373
-0.120957
-0.0302357
-0.0324128
0.0100704
-0.0685622
0.00210498
0.008249
0.0393264
0.0323901
0.0111272
0.0233818
0.026395
0.0194922
0.0555296
-2.12386
-2.55276
-2.94242
-3.09907
-3.16153
-3.13353
-2.90202
-2.77309
-2.54446
-2.32539
-2.24151
-2.12511
-2.16004
-2.17506
-2.20424
-2.02449
-1.74011
-1.42768
-0.905082
-0.386343
-1.79486
-2.08942
-2.44504
-2.66275
-2.67511
-2.62816
-2.41338
-2.19478
-2.12897
-1.89355
-1.76441
-1.76557
-1.82821
-1.76316
-1.70611
-1.63231
-1.41831
-1.06148
-0.745662
-0.313746
-1.39971
-1.66021
-2.01301
-2.13632
-2.09666
-2.09874
-2.02864
-1.84715
-1.65565
-1.47701
-1.45106
-1.47405
-1.36603
-1.46951
-1.33185
-1.20893
-1.15286
-0.890364
-0.515824
-0.156431
-1.09162
-1.29849
-1.51261
-1.67657
-1.70367
-1.67983
-1.59049
-1.46013
-1.26107
-1.19025
-1.08496
-1.12296
-1.06421
-1.05607
-1.11981
-1.00369
-0.87203
-0.606657
-0.320191
-0.094586
-0.827632
-0.978474
-1.21371
-1.33672
-1.29498
-1.31446
-1.20757
-1.06169
-0.898502
-0.931149
-0.822294
-0.76692
-0.846958
-0.815476
-0.809397
-0.712778
-0.60294
-0.38022
-0.255832
-0.0237713
-0.606165
-0.705535
-0.861033
-0.855695
-0.909401
-0.91271
-0.865978
-0.808574
-0.619126
-0.576153
-0.652742
-0.502106
-0.52818
-0.512106
-0.571501
-0.491109
-0.407959
-0.284449
-0.152916
0.0558055
-0.274317
-0.427241
-0.537998
-0.518252
-0.571237
-0.428721
-0.520221
-0.416656
-0.373059
-0.31434
-0.38021
-0.307589
-0.248849
-0.377513
-0.348009
-0.264982
-0.276467
-0.187861
-0.0826106
0.0834099
-0.117528
-0.154994
-0.12162
-0.166656
-0.15543
-0.185871
-0.114157
-0.165098
-0.078047
-0.0821364
-0.0765817
-0.0582981
-0.0362171
-0.105113
-0.13103
-0.0127845
-0.114921
-0.0543671
0.0343998
0.00951451
-3.16194
-3.69705
-4.12885
-4.33282
-4.44691
-4.48616
-4.34142
-4.23617
-3.96515
-3.80062
-3.76635
-3.64301
-3.66659
-3.61496
-3.50337
-3.33561
-3.00162
-2.62617
-2.06587
-1.49599
-2.66193
-3.0495
-3.46045
-3.63822
-3.76516
-3.70472
-3.57633
-3.50218
-3.27442
-3.21094
-3.10208
-3.00451
-3.00804
-3.00114
-2.9164
-2.81934
-2.44909
-2.17159
-1.67326
-1.15765
-2.2025
-2.49458
-2.80275
-3.02482
-3.08089
-3.03438
-2.98435
-2.83607
-2.66402
-2.60095
-2.55115
-2.52562
-2.48016
-2.42157
-2.35558
-2.27762
-1.99126
-1.69761
-1.37416
-0.830756
-1.75756
-1.99798
-2.25674
-2.42831
-2.45648
-2.53794
-2.3424
-2.32554
-2.10575
-2.0816
-2.0385
-1.90987
-1.88936
-1.87315
-1.90051
-1.80753
-1.58512
-1.29822
-0.996263
-0.708001
-1.37628
-1.54143
-1.70031
-1.7936
-1.81852
-1.86661
-1.8573
-1.756
-1.67435
-1.56549
-1.49493
-1.42117
-1.49418
-1.38498
-1.46345
-1.41501
-1.14748
-1.04996
-0.790926
-0.565931
-0.990642
-1.04611
-1.16116
-1.22487
-1.33514
-1.25926
-1.30387
-1.29452
-1.15047
-1.05277
-1.08776
-0.999581
-0.906375
-0.981713
-0.936759
-0.864439
-0.877709
-0.693804
-0.502569
-0.343106
-0.563627
-0.705995
-0.698218
-0.808218
-0.764161
-0.733557
-0.747135
-0.752801
-0.692174
-0.647539
-0.596329
-0.663523
-0.642595
-0.659917
-0.58399
-0.508648
-0.525684
-0.401864
-0.347238
-0.232236
-0.154245
-0.242927
-0.223338
-0.229906
-0.277454
-0.22912
-0.268356
-0.224238
-0.204387
-0.211549
-0.13484
-0.20994
-0.221167
-0.236136
-0.245582
-0.227968
-0.171468
-0.054847
-0.0470288
-0.0518842
-4.12122
-4.67212
-5.19497
-5.50743
-5.68881
-5.7295
-5.64624
-5.51631
-5.34909
-5.18537
-5.16753
-5.04353
-4.9025
-4.96436
-4.76889
-4.53206
-4.24687
-3.63089
-3.12012
-2.4555
-3.46654
-3.88567
-4.27052
-4.58059
-4.77863
-4.82329
-4.7747
-4.65387
-4.4752
-4.37975
-4.30987
-4.2039
-4.20734
-4.14535
-3.93974
-3.77336
-3.46473
-3.0443
-2.50312
-2.05534
-2.82026
-3.20057
-3.58147
-3.78398
-3.94326
-3.90323
-3.97016
-3.84819
-3.61807
-3.60143
-3.52535
-3.41726
-3.40166
-3.33281
-3.20692
-3.06124
-2.85692
-2.47878
-2.05686
-1.64515
-2.26449
-2.55799
-2.88978
-2.99455
-3.22292
-3.20397
-3.12564
-3.0042
-2.95088
-2.9356
-2.82804
-2.7138
-2.67332
-2.64103
-2.68078
-2.48507
-2.28251
-1.94768
-1.68076
-1.28463
-1.74052
-1.96882
-2.19399
-2.32068
-2.44765
-2.40798
-2.42408
-2.302
-2.19605
-2.18489
-2.09423
-2.13306
-2.01287
-2.01574
-1.98245
-1.90594
-1.68933
-1.4567
-1.24661
-0.911962
-1.26838
-1.36394
-1.56043
-1.73528
-1.67445
-1.73524
-1.70022
-1.63015
-1.65254
-1.59034
-1.51227
-1.53446
-1.49589
-1.46517
-1.42896
-1.32524
-1.22907
-1.06268
-0.786584
-0.652949
-0.728114
-0.838627
-0.907868
-0.969017
-0.994714
-1.05302
-0.961143
-0.958631
-0.988148
-0.94279
-0.905551
-0.880717
-0.802
-0.846477
-0.799127
-0.810588
-0.648794
-0.611264
-0.471067
-0.41488
-0.262026
-0.240879
-0.295929
-0.313439
-0.310217
-0.37598
-0.331638
-0.247998
-0.289535
-0.223185
-0.320893
-0.242565
-0.282745
-0.31278
-0.229119
-0.272882
-0.192906
-0.203468
-0.216869
-0.0921685
-4.84467
-5.38126
-6.02845
-6.39996
-6.65715
-6.76899
-6.75348
-6.73254
-6.56997
-6.42082
-6.28219
-6.17772
-6.06518
-5.97218
-5.76461
-5.50704
-5.17196
-4.62766
-3.94528
-3.21825
-4.15661
-4.59429
-5.03112
-5.40141
-5.62053
-5.6979
-5.69809
-5.66537
-5.44726
-5.41063
-5.29692
-5.23465
-5.15376
-5.12467
-4.95129
-4.63035
-4.33286
-3.86444
-3.22901
-2.66081
-3.35022
-3.69858
-4.15345
-4.52446
-4.62319
-4.74507
-4.74882
-4.63295
-4.54059
-4.45369
-4.38434
-4.33122
-4.25902
-4.1792
-4.0937
-3.87471
-3.52266
-3.08784
-2.58257
-2.15265
-2.72411
-2.99649
-3.33261
-3.59007
-3.67861
-3.85257
-3.77857
-3.66532
-3.65079
-3.60494
-3.53296
-3.41895
-3.40792
-3.36385
-3.1739
-3.03882
-2.82762
-2.47723
-2.11729
-1.68237
-2.03825
-2.33052
-2.55918
-2.72035
-2.83285
-2.90534
-2.9205
-2.81572
-2.78512
-2.70002
-2.66282
-2.68113
-2.63706
-2.53194
-2.51076
-2.3726
-2.09663
-1.85606
-1.49837
-1.31162
-1.49682
-1.60168
-1.85703
-1.904
-2.01628
-2.08505
-2.09882
-2.00087
-1.94101
-1.92571
-1.88081
-1.90181
-1.89255
-1.81494
-1.7929
-1.63734
-1.47439
-1.31
-1.12018
-0.928371
-0.877916
-0.957481
-1.04555
-1.13746
-1.19301
-1.23164
-1.26422
-1.18319
-1.1145
-1.14397
-1.18065
-1.02847
-1.06881
-1.02129
-1.03286
-1.044
-0.935618
-0.864407
-0.601222
-0.575614
-0.280389
-0.281266
-0.311649
-0.418045
-0.353033
-0.366028
-0.359504
-0.445891
-0.340972
-0.281892
-0.329542
-0.362672
-0.370919
-0.37552
-0.322006
-0.289041
-0.278246
-0.250841
-0.229256
-0.15516
-5.35797
-6.00609
-6.55168
-7.07902
-7.43144
-7.5861
-7.68717
-7.63196
-7.53311
-7.40118
-7.31205
-7.1912
-7.12667
-6.91873
-6.68751
-6.41221
-5.85815
-5.29399
-4.54271
-3.78038
-4.56197
-5.03811
-5.58669
-5.97681
-6.30197
-6.45633
-6.52092
-6.45104
-6.40293
-6.30719
-6.15522
-6.1138
-5.95963
-5.82871
-5.66135
-5.30947
-4.95365
-4.36136
-3.73282
-3.20966
-3.72972
-4.18739
-4.64759
-4.92885
-5.18757
-5.30457
-5.3757
-5.25369
-5.28949
-5.28676
-5.10347
-5.06271
-4.93249
-4.87766
-4.65952
-4.41847
-4.12652
-3.61494
-3.09493
-2.53509
-2.96691
-3.40279
-3.64364
-4.00872
-4.15193
-4.2695
-4.36617
-4.25293
-4.22381
-4.18685
-4.10575
-3.94801
-3.90458
-3.93289
-3.70549
-3.53014
-3.3083
-2.82507
-2.42246
-2.13633
-2.36296
-2.57109
-2.84642
-3.05725
-3.20987
-3.29441
-3.24772
-3.23966
-3.23048
-3.23383
-3.11429
-3.16676
-3.0391
-2.94284
-2.8764
-2.69066
-2.47351
-2.20024
-1.86241
-1.56664
-1.66128
-1.78553
-1.94092
-2.17365
-2.32166
-2.31148
-2.33356
-2.35409
-2.23363
-2.28249
-2.21687
-2.17305
-2.13123
-2.0801
-1.98912
-1.89908
-1.7692
-1.56196
-1.25885
-1.11268
-0.985225
-1.05651
-1.21408
-1.36925
-1.31054
-1.34891
-1.41992
-1.39636
-1.38382
-1.361
-1.29068
-1.29106
-1.24676
-1.26579
-1.16305
-1.15
-1.05783
-0.930323
-0.728833
-0.668514
-0.375534
-0.366378
-0.366358
-0.478051
-0.405161
-0.410109
-0.450291
-0.446443
-0.421787
-0.473888
-0.480495
-0.432399
-0.46104
-0.405974
-0.456608
-0.388859
-0.335699
-0.370234
-0.201714
-0.233565
-5.57226
-6.30916
-7.029
-7.65331
-7.9508
-8.22999
-8.2559
-8.32313
-8.31027
-8.16885
-8.07003
-8.03624
-7.80402
-7.62402
-7.32337
-6.92994
-6.38982
-5.69271
-4.90212
-4.04853
-4.7133
-5.33955
-5.97052
-6.37707
-6.73852
-6.86884
-7.09291
-7.05125
-7.05611
-7.0243
-6.90168
-6.74431
-6.58745
-6.46719
-6.21358
-5.83998
-5.33658
-4.76532
-4.05579
-3.43076
-4.01593
-4.38991
-4.94273
-5.29499
-5.57396
-5.77552
-5.83951
-5.90469
-5.78706
-5.73337
-5.71346
-5.54567
-5.51983
-5.34368
-5.15772
-4.85547
-4.4998
-3.91616
-3.3553
-2.785
-3.19641
-3.51288
-3.93777
-4.22961
-4.55498
-4.59595
-4.63581
-4.67757
-4.68128
-4.53825
-4.63185
-4.51958
-4.4012
-4.27698
-4.10395
-3.91448
-3.53158
-3.12939
-2.63999
-2.23927
-2.34942
-2.74156
-2.99402
-3.2099
-3.50045
-3.56015
-3.54029
-3.58364
-3.62355
-3.49201
-3.50594
-3.40404
-3.34695
-3.23987
-3.13034
-2.94542
-2.68176
-2.42531
-1.97979
-1.67784
-1.74686
-1.9457
-2.15357
-2.34926
-2.3883
-2.5428
-2.61342
-2.57585
-2.47871
-2.5353
-2.48705
-2.46617
-2.4056
-2.29656
-2.2007
-2.08775
-1.90696
-1.63963
-1.37995
-1.20583
-0.986876
-1.08522
-1.2692
-1.3781
-1.503
-1.46702
-1.53475
-1.53033
-1.54268
-1.50789
-1.51492
-1.45479
-1.39228
-1.37958
-1.34124
-1.23754
-1.18369
-1.04976
-0.817592
-0.638524
-0.37025
-0.406367
-0.410598
-0.519479
-0.474349
-0.451545
-0.547847
-0.485694
-0.524536
-0.478618
-0.511159
-0.446191
-0.43858
-0.437586
-0.453147
-0.393339
-0.386887
-0.360186
-0.27116
-0.238791
-5.60008
-6.36026
-7.12692
-7.6846
-8.15124
-8.58251
-8.7309
-8.79938
-8.73401
-8.80739
-8.681
-8.49774
-8.28018
-7.93556
-7.73725
-7.2858
-6.60928
-5.8302
-5.02293
-4.20585
-4.7182
-5.33257
-6.02681
-6.56989
-7.00855
-7.19726
-7.28392
-7.43129
-7.47387
-7.39649
-7.16949
-7.20238
-7.03423
-6.78697
-6.48493
-6.06486
-5.52145
-4.90754
-4.15317
-3.46262
-3.91918
-4.39756
-4.97975
-5.37141
-5.79956
-6.01295
-6.06228
-6.10682
-6.19203
-6.13685
-6.07467
-6.00596
-5.78986
-5.64234
-5.38479
-5.00218
-4.57243
-4.03511
-3.40337
-2.84844
-3.14798
-3.59193
-4.02443
-4.35906
-4.69079
-4.79227
-4.95958
-4.93264
-4.93366
-4.88659
-4.90758
-4.83458
-4.65419
-4.55083
-4.33073
-4.09517
-3.59358
-3.23548
-2.65798
-2.27246
-2.38688
-2.70519
-3.06028
-3.32493
-3.55852
-3.63366
-3.78976
-3.81108
-3.79114
-3.82503
-3.69294
-3.74561
-3.535
-3.47099
-3.27418
-3.0538
-2.67696
-2.46719
-2.06548
-1.65408
-1.62216
-1.9818
-2.13726
-2.35723
-2.53491
-2.73057
-2.66293
-2.62342
-2.68325
-2.69548
-2.68055
-2.54578
-2.43843
-2.48684
-2.27584
-2.16561
-2.01512
-1.7776
-1.46784
-1.24412
-1.02936
-1.19629
-1.30247
-1.41533
-1.47257
-1.50773
-1.57634
-1.60464
-1.68876
-1.57985
-1.52212
-1.59881
-1.54383
-1.41324
-1.39203
-1.33305
-1.20036
-1.05094
-0.824384
-0.692014
-0.279933
-0.401455
-0.477345
-0.491447
-0.510504
-0.548932
-0.540119
-0.455615
-0.534241
-0.608198
-0.54788
-0.553062
-0.50639
-0.458861
-0.466361
-0.439163
-0.447349
-0.378621
-0.254163
-0.220802
-5.34337
-6.14442
-6.99402
-7.65001
-8.28337
-8.54273
-8.86079
-8.91436
-8.96154
-8.96327
-8.82239
-8.67768
-8.41338
-8.19462
-7.76371
-7.26751
-6.57526
-5.70802
-4.87638
-3.98336
-4.38453
-5.164
-5.90715
-6.55413
-6.95247
-7.26749
-7.4979
-7.64094
-7.72277
-7.62035
-7.49954
-7.46171
-7.1879
-6.9141
-6.5568
-6.18395
-5.54668
-4.79171
-4.01842
-3.23016
-3.72687
-4.24382
-4.85079
-5.30532
-5.77901
-5.96318
-6.21127
-6.35167
-6.40786
-6.31525
-6.26139
-6.12572
-5.91261
-5.70626
-5.46232
-5.02531
-4.53758
-4.00024
-3.32322
-2.63252
-2.94122
-3.44954
-3.87782
-4.35085
-4.66198
-4.85842
-4.94892
-5.13701
-5.11967
-5.0846
-5.02635
-4.93556
-4.82566
-4.64841
-4.38497
-4.01902
-3.59705
-3.13477
-2.62853
-2.12698
-2.24091
-2.65841
-3.01506
-3.31728
-3.54711
-3.72203
-3.84834
-3.90268
-3.92674
-3.85044
-3.83903
-3.83422
-3.64599
-3.49316
-3.37408
-3.09235
-2.77705
-2.43622
-1.95904
-1.57677
-1.59403
-1.91069
-2.14908
-2.36555
-2.46579
-2.64228
-2.78541
-2.73251
-2.80874
-2.83966
-2.71613
-2.63179
-2.62823
-2.54406
-2.29791
-2.22303
-1.98783
-1.73494
-1.36117
-1.10723
-0.897233
-1.07865
-1.24995
-1.41222
-1.49443
-1.57227
-1.62105
-1.64874
-1.63125
-1.62649
-1.62314
-1.55202
-1.54388
-1.4316
-1.4542
-1.34847
-1.12549
-0.972727
-0.894041
-0.635854
-0.302353
-0.326654
-0.456234
-0.454132
-0.42636
-0.515545
-0.513112
-0.57243
-0.664273
-0.56359
-0.555089
-0.55573
-0.544101
-0.504856
-0.495591
-0.454315
-0.351745
-0.372897
-0.282433
-0.215519
-4.71579
-5.57747
-6.51499
-7.32764
-7.88136
-8.38407
-8.66651
-8.9071
-9.00722
-8.91849
-8.90868
-8.6965
-8.4104
-8.15396
-7.60723
-7.04284
-6.21228
-5.37436
-4.41279
-3.43622
-3.95306
-4.70326
-5.53314
-6.24166
-6.65695
-7.07979
-7.38932
-7.53171
-7.6072
-7.54998
-7.45903
-7.32882
-7.08807
-6.85699
-6.48201
-5.97126
-5.23256
-4.53904
-3.60432
-2.86603
-3.29079
-3.90368
-4.53516
-5.14208
-5.59949
-5.90886
-6.11382
-6.2183
-6.28049
-6.2948
-6.19143
-6.09405
-5.95176
-5.66557
-5.29601
-4.87716
-4.34696
-3.67133
-2.94242
-2.24395
-2.60677
-3.14879
-3.62047
-4.13165
-4.42674
-4.73276
-4.88806
-5.03725
-5.0396
-5.11149
-5.01786
-4.88444
-4.7937
-4.61155
-4.23112
-3.90396
-3.47427
-2.93106
-2.35233
-1.86893
-2.07914
-2.41569
-2.79512
-3.07255
-3.42983
-3.60377
-3.79885
-3.84279
-3.86521
-3.86405
-3.82362
-3.72775
-3.63577
-3.43084
-3.22651
-2.99016
-2.65282
-2.19112
-1.81465
-1.3997
-1.36108
-1.66568
-1.97907
-2.16121
-2.47751
-2.57033
-2.66226
-2.73993
-2.70876
-2.72329
-2.65834
-2.65382
-2.53605
-2.47233
-2.26736
-2.11896
-1.84821
-1.5527
-1.23498
-0.956195
-0.897479
-1.02577
-1.1125
-1.3701
-1.4178
-1.47555
-1.5982
-1.6181
-1.66537
-1.56983
-1.58113
-1.55379
-1.51804
-1.49554
-1.36804
-1.16036
-1.07502
-0.922511
-0.741761
-0.596073
-0.268635
-0.353214
-0.376611
-0.518441
-0.491268
-0.581514
-0.529531
-0.523428
-0.592719
-0.657479
-0.522709
-0.501307
-0.504004
-0.517808
-0.420174
-0.40885
-0.360372
-0.327683
-0.267799
-0.131873
-3.85856
-4.86881
-5.86723
-6.7114
-7.45115
-7.83396
-8.19458
-8.49095
-8.56431
-8.62966
-8.54022
-8.35485
-8.10295
-7.71211
-7.10703
-6.55941
-5.61091
-4.7263
-3.70568
-2.70369
-3.27631
-4.0814
-4.92621
-5.7492
-6.21826
-6.60368
-6.99622
-7.15695
-7.24446
-7.26344
-7.24813
-7.05913
-6.86969
-6.46119
-6.00617
-5.41229
-4.79537
-3.93425
-2.96519
-2.18699
-2.72118
-3.33756
-4.08612
-4.65493
-5.03461
-5.54652
-5.73346
-5.93668
-5.9559
-6.0556
-5.98976
-5.83549
-5.59861
-5.33266
-4.91364
-4.49974
-3.92589
-3.15528
-2.45582
-1.72335
-2.11156
-2.74617
-3.20117
-3.71801
-4.01378
-4.34471
-4.64511
-4.84803
-4.84995
-4.8424
-4.77893
-4.66457
-4.53616
-4.30867
-3.97978
-3.55688
-3.05677
-2.57325
-1.86476
-1.31544
-1.67131
-2.06309
-2.5307
-2.85436
-3.12666
-3.45398
-3.55369
-3.58943
-3.68076
-3.70115
-3.70104
-3.55835
-3.43597
-3.2123
-3.07423
-2.78718
-2.33041
-1.91099
-1.44416
-1.05242
-1.07558
-1.40461
-1.75754
-2.03225
-2.24486
-2.39897
-2.47346
-2.55366
-2.62545
-2.5683
-2.63014
-2.45563
-2.45312
-2.30671
-2.13998
-1.96364
-1.65845
-1.36399
-1.01888
-0.647769
-0.681463
-0.788805
-0.996239
-1.22745
-1.32018
-1.42864
-1.45644
-1.59708
-1.57618
-1.48441
-1.5466
-1.50235
-1.46066
-1.38812
-1.32342
-1.14862
-0.92335
-0.86464
-0.549729
-0.400234
-0.2115
-0.279576
-0.297907
-0.386986
-0.404954
-0.496138
-0.547087
-0.554175
-0.501213
-0.51649
-0.544078
-0.475626
-0.516934
-0.462809
-0.434765
-0.392191
-0.360087
-0.297695
-0.181997
-0.147144
-2.81877
-3.76313
-4.90088
-5.80424
-6.4914
-7.07266
-7.44516
-7.76689
-7.85716
-7.93833
-7.89215
-7.71136
-7.39134
-6.93304
-6.42974
-5.62429
-4.80529
-3.79328
-2.73153
-1.65045
-2.28195
-3.12115
-3.99498
-4.78904
-5.48036
-5.97199
-6.30632
-6.50133
-6.65278
-6.70799
-6.61651
-6.43644
-6.15796
-5.79378
-5.32471
-4.73038
-4.00597
-3.04791
-2.14377
-1.26891
-1.83013
-2.48312
-3.34278
-3.94907
-4.49905
-4.89515
-5.20332
-5.3102
-5.49702
-5.53036
-5.46053
-5.30893
-5.06885
-4.80005
-4.35904
-3.90424
-3.26651
-2.517
-1.62683
-0.950606
-1.50099
-2.01016
-2.63794
-3.13743
-3.59552
-3.84417
-4.16374
-4.34058
-4.3704
-4.48797
-4.37384
-4.2518
-4.05651
-3.86236
-3.50398
-3.09793
-2.61891
-1.95684
-1.28198
-0.656339
-1.08087
-1.51972
-1.99068
-2.35719
-2.69344
-3.01426
-3.17651
-3.30054
-3.3391
-3.35149
-3.31623
-3.2585
-3.15724
-2.9508
-2.72629
-2.29385
-1.84157
-1.4256
-0.915856
-0.50581
-0.734018
-1.07958
-1.36554
-1.62494
-1.94261
-2.07401
-2.19554
-2.33443
-2.47802
-2.43302
-2.32443
-2.32732
-2.16092
-2.06609
-1.83316
-1.63748
-1.34411
-0.995209
-0.678081
-0.318788
-0.396711
-0.512611
-0.841684
-0.989854
-1.12316
-1.29048
-1.26464
-1.46082
-1.39318
-1.37502
-1.35229
-1.4175
-1.35066
-1.23252
-1.07637
-0.950537
-0.756927
-0.592847
-0.344429
-0.231042
-0.174009
-0.178575
-0.229196
-0.321778
-0.337685
-0.425406
-0.415111
-0.471041
-0.463829
-0.481363
-0.49453
-0.445978
-0.395567
-0.424902
-0.368625
-0.317403
-0.241866
-0.130104
-0.129108
-0.0730606
-1.36338
-2.41795
-3.51866
-4.46902
-5.31582
-5.89449
-6.38948
-6.73096
-6.89491
-6.96178
-6.85551
-6.6768
-6.37825
-5.94216
-5.26091
-4.52352
-3.55406
-2.54669
-1.31978
-0.220337
-1.04946
-1.97408
-2.91881
-3.76899
-4.43746
-4.96099
-5.39178
-5.68526
-5.80543
-5.85703
-5.67797
-5.64773
-5.35802
-4.93277
-4.44411
-3.69463
-2.92981
-2.06674
-1.05435
-0.0532347
-0.804507
-1.57616
-2.34428
-3.09055
-3.63334
-4.09544
-4.3658
-4.57296
-4.81752
-4.84233
-4.74374
-4.55035
-4.30259
-4.01402
-3.64816
-3.06674
-2.38045
-1.57706
-0.728307
-0.0232427
-0.586164
-1.2161
-1.80571
-2.41134
-2.84982
-3.1871
-3.52185
-3.77626
-3.79978
-3.81928
-3.83491
-3.70314
-3.44391
-3.14704
-2.82865
-2.42622
-1.78201
-1.18099
-0.555495
0.0941072
-0.380301
-0.854153
-1.38262
-1.81045
-2.16229
-2.44207
-2.67031
-2.77313
-2.93705
-2.89415
-2.91258
-2.77201
-2.63232
-2.44903
-2.12842
-1.83525
-1.3937
-0.873006
-0.321332
0.142239
-0.339792
-0.601028
-1.00116
-1.18817
-1.53471
-1.74245
-1.90041
-1.99539
-2.09536
-2.07193
-2.01734
-1.93344
-1.89396
-1.64432
-1.50536
-1.27881
-0.88089
-0.580098
-0.264101
0.0764636
-0.100105
-0.337198
-0.51331
-0.753948
-0.859156
-1.0363
-1.13445
-1.16524
-1.16049
-1.26143
-1.18736
-1.1251
-1.06401
-1.00081
-0.900534
-0.782141
-0.623257
-0.379588
-0.0861941
0.0933495
-0.0509724
-0.130929
-0.14591
-0.296341
-0.343193
-0.380087
-0.347606
-0.33898
-0.333474
-0.403855
-0.405699
-0.362583
-0.424604
-0.350444
-0.30625
-0.304793
-0.143635
-0.175397
-0.0470873
0.0234832
0.318821
-0.753282
-1.9743
-2.93863
-3.87344
-4.47495
-5.01852
-5.36662
-5.58737
-5.66789
-5.57793
-5.3523
-5.01817
-4.55705
-3.94502
-3.08068
-2.05156
-1.03761
0.245804
1.3783
0.444457
-0.494582
-1.50312
-2.36619
-3.07936
-3.73395
-4.13098
-4.40524
-4.60495
-4.62882
-4.70169
-4.4044
-4.17905
-3.69315
-3.18315
-2.53423
-1.63285
-0.690923
0.384766
1.34942
0.411032
-0.321719
-1.12419
-1.7905
-2.49022
-3.00726
-3.33667
-3.60156
-3.73474
-3.8778
-3.80927
-3.63605
-3.39992
-2.99018
-2.56361
-2.00289
-1.23797
-0.374215
0.460479
1.21374
0.403766
-0.176127
-0.84575
-1.46003
-2.0037
-2.37017
-2.68538
-2.9152
-3.02657
-3.16303
-3.05112
-2.94885
-2.68522
-2.36732
-1.98918
-1.4786
-0.902653
-0.275679
0.482663
1.13823
0.33099
-0.068901
-0.606053
-1.05034
-1.47827
-1.80562
-1.97095
-2.20105
-2.26185
-2.30768
-2.30583
-2.16619
-2.0299
-1.72718
-1.39042
-1.04431
-0.703148
-0.0761526
0.383267
0.922004
0.290853
-0.0232874
-0.36685
-0.72798
-0.947423
-1.25078
-1.43034
-1.47959
-1.59224
-1.60294
-1.60651
-1.47396
-1.37251
-1.18297
-1.01816
-0.795467
-0.432706
-0.0407554
0.282
0.672173
0.177587
-0.0997991
-0.26071
-0.440635
-0.569784
-0.761666
-0.902789
-0.946578
-0.922594
-0.935065
-0.916749
-0.870259
-0.875674
-0.740648
-0.601866
-0.434253
-0.301822
-0.0285885
0.220454
0.364838
0.0776068
-0.0851525
-0.0834117
-0.126705
-0.232589
-0.24345
-0.288311
-0.273677
-0.302072
-0.295067
-0.258498
-0.289931
-0.30169
-0.184735
-0.228255
-0.167175
-0.106554
0.00609348
0.0892622
0.125567
2.30876
1.13644
0.0418794
-1.06884
-1.95626
-2.74063
-3.28776
-3.67343
-3.87186
-4.01219
-3.91967
-3.78822
-3.36498
-2.80886
-2.23889
-1.35501
-0.252182
0.823978
2.0806
3.30956
2.11469
1.20344
0.203479
-0.719939
-1.54221
-2.2016
-2.62733
-2.91435
-3.19249
-3.30774
-3.21644
-2.98081
-2.65645
-2.2421
-1.73992
-1.00209
-0.0371616
0.98064
2.03051
2.9867
1.80931
1.13355
0.271723
-0.495546
-1.23485
-1.69155
-2.11125
-2.43584
-2.55733
-2.6286
-2.6256
-2.38832
-2.15732
-1.78759
-1.21459
-0.728069
0.083725
0.967252
1.80579
2.66429
1.62228
0.97691
0.278706
-0.295013
-0.888255
-1.32277
-1.66233
-1.94346
-2.04779
-2.09513
-1.96392
-1.84266
-1.65709
-1.39632
-0.996427
-0.380648
0.1562
0.915856
1.55977
2.19497
1.24574
0.81561
0.265279
-0.203839
-0.643161
-0.9765
-1.27864
-1.42068
-1.41478
-1.50442
-1.53455
-1.42393
-1.25391
-0.991823
-0.669893
-0.274961
0.153685
0.752108
1.22984
1.77427
0.980312
0.695676
0.216154
-0.158434
-0.421717
-0.690704
-0.800401
-0.928166
-1.06649
-1.12118
-0.984026
-1.00183
-0.843421
-0.713119
-0.414902
-0.151087
0.19285
0.524094
0.962528
1.29005
0.606183
0.366531
0.187909
-0.110607
-0.292289
-0.422115
-0.487109
-0.582223
-0.621576
-0.650742
-0.586583
-0.506167
-0.487491
-0.438932
-0.246638
-0.142153
0.141389
0.323086
0.540682
0.73487
0.191666
0.135787
-0.00251251
0.0177299
-0.0619587
-0.17821
-0.196565
-0.231066
-0.198255
-0.233656
-0.241787
-0.150714
-0.153984
-0.156206
-0.108462
-0.0204444
0.0917455
0.10075
0.102092
0.216221
4.59518
3.46079
2.23673
1.02815
0.0844474
-0.665407
-1.31453
-1.67367
-1.93886
-2.12873
-2.02032
-1.77908
-1.34894
-0.829971
-0.154407
0.665252
1.75315
2.92351
4.31358
5.4415
4.12239
3.11429
2.06606
1.06891
0.208246
-0.466253
-0.947499
-1.32213
-1.53635
-1.63989
-1.57834
-1.32285
-1.03312
-0.56636
0.0125086
0.80825
1.68166
2.77658
3.86133
4.89186
3.57946
2.73956
1.95463
1.04993
0.331566
-0.244122
-0.68156
-0.963204
-1.14029
-1.25752
-1.157
-1.06173
-0.679806
-0.31688
0.198792
0.804878
1.59978
2.45946
3.4231
4.23431
2.97267
2.35501
1.57161
0.878586
0.39536
-0.121101
-0.413006
-0.70894
-0.799558
-0.939897
-0.874363
-0.811588
-0.486637
-0.166314
0.266212
0.735154
1.40231
2.13443
2.91032
3.58294
2.35234
1.87226
1.28913
0.760759
0.388128
-0.0940402
-0.272096
-0.458212
-0.681055
-0.624135
-0.674816
-0.520384
-0.262271
-0.0807512
0.299854
0.596282
1.11887
1.71713
2.31433
2.74664
1.73812
1.39371
0.925135
0.54461
0.318657
0.0079386
-0.169026
-0.317631
-0.36081
-0.386054
-0.406214
-0.340762
-0.233299
-0.0716439
0.209493
0.511205
0.951907
1.25361
1.67316
1.98888
1.04463
0.814019
0.559337
0.436039
0.132093
-0.0400324
-0.0634685
-0.173517
-0.203926
-0.23283
-0.266954
-0.206949
-0.112594
-0.00588923
0.157239
0.292409
0.487893
0.714793
0.981267
1.2751
0.339253
0.209778
0.201062
0.131304
0.0604373
-0.0428219
-0.0515016
0.0162014
-0.00485504
-0.10021
-0.0423484
-0.0692722
-0.104463
0.0225578
0.0332593
0.0444645
0.146941
0.233562
0.3659
0.441992
7.04023
5.90155
4.50731
3.46396
2.39076
1.53357
0.931962
0.49694
0.226548
0.0902035
0.135778
0.323928
0.785311
1.32155
2.05978
2.986
4.02385
5.27588
6.59382
7.85146
6.21372
5.21543
4.03918
3.0963
2.24646
1.54149
0.903398
0.597343
0.349531
0.20363
0.339712
0.564366
0.809044
1.33257
1.92545
2.73903
3.61357
4.64306
5.80268
7.00006
5.39701
4.44073
3.64271
2.70525
1.98573
1.4744
0.949082
0.662493
0.398428
0.357691
0.384996
0.541948
0.858154
1.21426
1.77803
2.49266
3.30856
4.13419
5.06215
6.0066
4.42617
3.73795
3.07034
2.30611
1.71476
1.18128
0.868082
0.577657
0.478055
0.354918
0.41189
0.558769
0.786469
1.18106
1.56074
2.07084
2.76099
3.47751
4.22937
5.12046
3.45645
2.95213
2.36519
1.8285
1.37953
1.0012
0.630675
0.51928
0.349937
0.25105
0.268857
0.511752
0.638918
0.885633
1.22627
1.6953
2.19957
2.76927
3.33059
3.85232
2.4186
2.21504
1.74636
1.39374
1.02045
0.724038
0.529851
0.406494
0.375778
0.258512
0.329784
0.336243
0.487719
0.594341
1.01384
1.26095
1.65078
1.93188
2.39287
2.84457
1.49527
1.31496
1.05754
0.85761
0.630475
0.420549
0.387029
0.224049
0.197259
0.227283
0.164321
0.245594
0.292277
0.408396
0.587715
0.750354
0.960675
1.22717
1.45072
1.69194
0.515906
0.425154
0.402078
0.260831
0.17193
0.122549
0.174399
0.0550769
0.0258818
0.0861266
-0.0414848
0.0968531
0.138683
0.130998
0.200057
0.258905
0.302178
0.372519
0.473875
0.582776
9.50307
8.29023
6.9765
5.73084
4.72126
3.87161
3.23234
2.74284
2.42983
2.3343
2.43981
2.51809
2.95168
3.58414
4.30925
5.22544
6.37186
7.61491
9.10066
10.2867
8.28998
7.27209
6.16935
5.16458
4.186
3.41689
2.91859
2.48868
2.29837
2.14796
2.20684
2.4433
2.7224
3.24377
3.87818
4.68825
5.64047
6.81471
7.93113
9.00104
7.04721
6.18076
5.32347
4.43734
3.67618
2.94256
2.6247
2.2285
2.0214
1.95302
2.00266
2.17801
2.40111
2.85414
3.3746
4.06684
4.89824
5.83644
6.72895
7.70227
5.81551
5.17042
4.3977
3.59702
3.05027
2.5641
2.15182
1.88157
1.64954
1.57911
1.68536
1.80376
2.03689
2.39246
2.86026
3.37765
4.05207
4.92742
5.61596
6.33431
4.51055
4.01525
3.44523
2.82494
2.37571
2.08816
1.71805
1.5343
1.35745
1.30599
1.3672
1.46112
1.62131
1.83422
2.32826
2.67847
3.11757
3.80814
4.3672
4.96607
3.26575
2.88456
2.48393
2.07026
1.8072
1.37355
1.2389
1.12596
1.06461
0.992165
1.0125
1.09377
1.18352
1.32406
1.62759
1.96416
2.31855
2.64003
3.20612
3.56916
2.01422
1.77612
1.53759
1.36899
1.05178
0.869962
0.795458
0.68236
0.596294
0.552783
0.625297
0.647254
0.766745
0.825715
0.991026
1.26364
1.44242
1.64959
1.86763
2.17176
0.690606
0.571401
0.485423
0.508138
0.344788
0.217632
0.165779
0.238049
0.164821
0.176186
0.221384
0.228499
0.278107
0.311005
0.305607
0.430361
0.505541
0.557806
0.691609
0.716712
11.5782
10.2589
8.9221
7.72325
6.61267
5.77005
5.12757
4.60072
4.33477
4.21158
4.14589
4.38599
4.80488
5.41818
6.21089
7.1447
8.2957
9.55617
10.9038
12.2118
9.82616
8.90064
7.71466
6.66965
5.77238
5.02207
4.45465
4.0292
3.74405
3.67842
3.61461
3.93023
4.2462
4.81447
5.41913
6.22806
7.24059
8.34813
9.53499
10.4807
8.38391
7.50591
6.53746
5.71184
4.96365
4.29796
3.80994
3.47006
3.23752
3.15047
3.22164
3.2919
3.69244
4.04945
4.58362
5.3714
6.16288
7.13365
8.07829
8.96092
6.81838
6.17377
5.30677
4.65369
4.09606
3.56209
3.20444
2.80614
2.62941
2.56339
2.54948
2.70037
3.03578
3.3232
3.80815
4.35186
4.99595
5.76226
6.62793
7.28032
5.29596
4.75962
4.2569
3.62405
3.18855
2.74782
2.47516
2.1977
2.06842
1.98481
2.05857
2.14231
2.41265
2.64511
2.97289
3.41239
3.99335
4.60771
5.15927
5.65782
3.80271
3.40318
2.99495
2.58308
2.30545
1.87037
1.72812
1.60425
1.52191
1.43714
1.40785
1.55111
1.69241
1.93239
2.15929
2.42058
2.82003
3.28205
3.64251
4.04523
2.26522
2.05403
1.81859
1.5465
1.34164
1.15362
1.08748
0.894463
0.831664
0.864687
0.864632
0.965056
1.00185
1.07543
1.29604
1.44598
1.76754
1.9862
2.19458
2.39391
0.805041
0.655456
0.605173
0.572008
0.460843
0.391535
0.360262
0.321615
0.360164
0.299622
0.328182
0.328716
0.315891
0.364482
0.437872
0.550956
0.564165
0.723314
0.716121
0.801547
)
;

boundaryField
{
    hotSide
    {
        type            calculated;