/*--------------------------------*- C++ -*----------------------------------*\
| =========                 |                                                 |
| \\      /  F ield         | OpenFOAM: The Open Source CFD Toolbox           |
|  \\    /   O peration     | Version:  2212                                  |
|   \\  /    A nd           | Website:  www.openfoam.com                      |
|    \\/     M anipulation  |                                                 |
\*---------------------------------------------------------------------------*/
FoamFile
{
    version     2.0;
    format      ascii;
    arch        "LSB;label=32;scalar=64";
    class       volScalarField;
    location    "0";
    object      stateMean;
}
// * * * * * * * * * * * * * * * * * * * * * * * * * * * * * * * * * * * * * //

dimensions      [0 0 0 1 0 0 0];

internalField   nonuniform List<scalar> 
3200
(
347.193
348.063
349.095
349.916
350.624
351.274
351.701
352.049
352.266
352.329
352.229
351.852
351.521
350.984
350.328
349.479
348.543
347.517
346.381
345.373
340.926
341.73
342.598
343.324
343.904
344.476
344.955
345.135
345.319
345.343
345.191
345.046
344.675
344.162
343.561
342.91
342.074
341.167
340.255
339.436
334.653
335.288
336.022
336.71
337.188
337.642
338.033
338.283
338.364
338.401
338.313
338.168
337.825
337.433
336.854
336.28
335.548
334.797
334.078
333.369
328.425
328.956
329.401
330.032
330.506
330.766
331.053
331.28
331.467
331.438
331.415
331.201
330.971
330.731
330.196
329.765
329.177
328.56
327.838
327.427
322.129
322.529
322.978
323.385
323.746
324.004
324.204
324.353
324.538
324.502
324.4
324.276
324.151
323.807
323.52
323.146
322.622
322.217
321.694
321.311
315.768
316.093
316.42
316.715
316.95
317.131
317.269
317.455
317.424
317.485
317.503
317.407
317.235
317.052
316.766
316.552
316.21
315.943
315.523
315.217
309.511
309.703
309.9
310.08
310.187
310.308
310.445
310.461
310.522
310.457
310.457
310.374
310.367
310.208
310.089
309.854
309.76
309.555
309.295
309.067
303.154
303.222
303.36
303.345
303.488
303.524
303.517
303.532
303.542
303.571
303.469
303.504
303.418
303.457
303.36
303.3
303.202
303.194
303.085
303.07
348.267
349.235
350.194
351.078
351.872
352.55
352.997
353.415
353.506
353.601
353.514
353.191
352.81
352.27
351.565
350.682
349.764
348.61
347.558
346.535
341.915
342.616
343.454
344.281
344.991
345.577
345.993
346.269
346.42
346.394
346.299
346.087
345.682
345.233
344.535
343.933
343.068
342.226
341.188
340.358
335.404
336.02
336.779
337.466
338.009
338.472
338.916
339.112
339.306
339.283
339.151
338.899
338.62
338.311
337.708
337.206
336.422
335.721
334.78
334.118
329.021
329.557
330.155
330.613
331.093
331.511
331.764
331.962
332.078
332.044
332.035
331.883
331.619
331.318
330.885
330.336
329.815
329.203
328.548
327.959
322.566
322.917
323.38
323.826
324.184
324.461
324.703
324.875
324.906
324.939
324.875
324.828
324.582
324.325
324.051
323.67
323.161
322.647
322.205
321.773
316.168
316.476
316.668
317.012
317.322
317.488
317.652
317.808
317.83
317.841
317.767
317.7
317.536
317.327
317.169
316.867
316.548
316.19
315.837
315.541
309.693
309.872
310.033
310.21
310.468
310.558
310.514
310.611
310.707
310.67
310.648
310.686
310.487
310.477
310.295
310.08
309.922
309.722
309.491
309.368
303.224
303.309
303.334
303.408
303.475
303.511
303.599
303.547
303.577
303.55
303.629
303.543
303.509
303.439
303.399
303.37
303.306
303.253
303.214
303.144
349.744
350.706
351.774
352.669
353.49
354.204
354.656
355.103
355.293
355.295
355.212
354.874
354.49
353.929
353.274
352.352
351.31
350.26
349.058
348.006
343.144
343.889
344.83
345.687
346.355
346.951
347.327
347.607
347.902
347.858
347.728
347.539
347.24
346.677
346.029
345.312
344.442
343.446
342.546
341.663
336.446
337.08
337.926
338.588
339.104
339.649
340.078
340.316
340.431
340.413
340.387
340.249
339.835
339.519
338.882
338.216
337.605
336.803
335.936
335.202
329.807
330.314
330.931
331.536
332.017
332.436
332.754
332.967
333.018
333.078
332.973
332.88
332.571
332.22
331.876
331.317
330.731
330.025
329.336
328.81
323.191
323.572
324.12
324.585
324.896
325.26
325.47
325.591
325.621
325.756
325.647
325.489
325.376
325.077
324.755
324.314
323.851
323.286
322.85
322.387
316.599
316.863
317.24
317.48
317.785
318.035
318.214
318.347
318.295
318.325
318.402
318.178
318.066
317.86
317.694
317.367
317.032
316.663
316.31
315.937
309.886
310.136
310.381
310.507
310.712
310.717
310.944
310.955
310.994
310.979
311.045
310.929
310.787
310.802
310.636
310.406
310.265
310.031
309.792
309.529
303.341
303.41
303.422
303.516
303.555
303.635
303.609
303.698
303.639
303.658
303.653
303.619
303.569
303.6
303.58
303.413
303.464
303.354
303.221
303.213
351.287
352.342
353.436
354.358
355.207
355.965
356.481
356.931
357.063
357.112
357.077
356.741
356.362
355.755
354.982
354.096
353.027
351.933
350.711
349.621
344.449
345.276
346.258
347.057
347.821
348.383
348.825
349.231
349.351
349.472
349.363
349.082
348.737
348.25
347.594
346.875
345.868
344.97
343.9
342.945
337.618
338.277
339.065
339.812
340.407
340.885
341.317
341.575
341.697
341.789
341.739
341.559
341.219
340.755
340.207
339.604
338.778
337.96
337.156
336.247
330.777
331.311
331.962
332.562
333.03
333.541
333.739
334.054
334.074
334.177
334.133
333.878
333.617
333.27
332.904
332.382
331.719
331.003
330.309
329.727
323.975
324.366
324.829
325.256
325.623
326.005
326.301
326.457
326.562
326.551
326.481
326.309
326.195
325.829
325.601
325.219
324.609
324.179
323.616
323.165
317.153
317.368
317.699
318.002
318.356
318.518
318.782
318.956
318.944
318.917
318.952
318.794
318.567
318.46
318.196
317.885
317.655
317.232
316.825
316.505
310.277
310.514
310.636
310.889
310.992
311.105
311.249
311.365
311.384
311.382
311.33
311.356
311.255
311.162
310.955
310.737
310.607
310.34
310.155
309.945
303.411
303.532
303.555
303.61
303.706
303.706
303.789
303.782
303.789
303.811
303.734
303.795
303.779
303.757
303.723
303.657
303.551
303.387
303.336
303.309
352.921
353.977
355.14
356.144
357.033
357.762
358.31
358.71
358.926
358.964
358.947
358.621
358.097
357.628
356.802
355.876
354.884
353.576
352.425
351.255
345.84
346.685
347.622
348.531
349.342
349.982
350.48
350.816
350.969
351.049
350.979
350.698
350.369
349.85
349.099
348.336
347.415
346.395
345.302
344.428
338.732
339.467
340.312
341.021
341.698
342.162
342.69
342.955
343.004
343.135
343.059
342.803
342.509
342.053
341.466
340.816
340.094
339.21
338.323
337.557
331.688
332.267
332.979
333.497
334.149
334.541
334.84
335.034
335.209
335.315
335.207
334.972
334.703
334.355
334.018
333.411
332.785
332.037
331.39
330.709
324.656
325.103
325.622
326.07
326.526
326.806
327.115
327.238
327.31
327.392
327.301
327.247
326.949
326.707
326.38
325.984
325.438
324.885
324.381
323.827
317.656
317.907
318.312
318.717
318.891
319.18
319.355
319.46
319.609
319.613
319.535
319.49
319.326
319.12
318.874
318.542
318.211
317.815
317.33
317.041
310.577
310.78
310.975
311.174
311.341
311.536
311.57
311.673
311.778
311.773
311.736
311.671
311.516
311.455
311.282
311.157
310.854
310.678
310.412
310.264
303.564
303.574
303.671
303.734
303.779
303.891
303.889
303.84
303.907
303.854
303.952
303.86
303.875
303.87
303.744
303.742
303.614
303.578
303.55
303.394
354.494
355.515
356.776
357.81
358.741
359.507
360.089
360.568
360.766
360.807
360.668
360.374
359.9
359.308
358.503
357.591
356.582
355.376
354.079
352.867
347.265
348.113
349.08
350.023
350.826
351.469
351.986
352.385
352.479
352.607
352.493
352.267
351.874
351.413
350.722
349.835
348.955
347.913
346.748
345.769
339.885
340.575
341.475
342.33
342.923
343.523
343.964
344.212
344.384
344.436
344.366
344.174
343.838
343.394
342.872
342.175
341.329
340.41
339.459
338.688
332.658
333.205
333.905
334.558
335.051
335.616
335.899
336.083
336.284
336.351
336.279
336.052
335.826
335.484
334.937
334.411
333.796
333.049
332.326
331.616
325.349
325.853
326.363
326.832
327.259
327.635
327.927
328.054
328.191
328.194
328.157
328.087
327.875
327.539
327.241
326.799
326.209
325.66
325.02
324.623
318.168
318.422
318.879
319.145
319.481
319.768
319.98
320.047
320.106
320.154
320.109
320.067
319.939
319.696
319.476
319.102
318.715
318.332
317.94
317.599
310.897
311.065
311.275
311.498
311.688
311.857
312.008
312.027
312.03
312.097
312.134
311.943
311.913
311.765
311.658
311.539
311.297
311.093
310.709
310.595
303.639
303.67
303.741
303.892
303.872
303.928
303.962
304.082
304.001
303.954
304.002
304.023
304.007
303.978
303.884
303.808
303.752
303.68
303.618
303.514
356.03
357.142
358.273
359.429
360.418
361.188
361.849
362.261
362.498
362.543
362.454
362.156
361.756
361.081
360.29
359.399
358.208
357.015
355.679
354.452
348.558
349.426
350.48
351.414
352.291
352.978
353.527
353.861
354.104
354.16
354.008
353.815
353.37
352.835
352.183
351.298
350.391
349.254
348.121
347.206
341.016
341.799
342.685
343.426
344.152
344.719
345.2
345.419
345.699
345.826
345.642
345.473
345.097
344.702
344.074
343.382
342.624
341.652
340.707
339.821
333.516
334.215
334.802
335.543
336.068
336.554
336.985
337.15
337.322
337.39
337.309
337.046
336.802
336.552
335.989
335.446
334.842
333.983
333.234
332.685
326.153
326.562
327.106
327.609
328.059
328.429
328.644
328.852
328.998
329.084
328.964
328.935
328.651
328.339
328.011
327.54
327.026
326.46
325.853
325.357
318.674
318.942
319.289
319.73
320.09
320.284
320.493
320.667
320.659
320.765
320.7
320.598
320.444
320.239
319.962
319.667
319.325
318.91
318.415
318.126
311.21
311.367
311.639
311.919
311.988
312.149
312.331
312.4
312.455
312.467
312.397
312.362
312.251
312.177
311.963
311.827
311.608
311.355
311.039
310.894
303.804
303.823
303.861
304.015
303.985
304.031
304.108
304.135
304.134
304.198
304.204
304.144
304.15
304.064
304.078
303.969
303.873
303.865
303.659
303.662
357.445
358.623
359.897
361.113
362.008
362.862
363.409
363.908
364.206
364.228
364.129
363.932
363.389
362.777
361.955
360.987
359.85
358.561
357.216
355.922
349.75
350.75
351.859
352.778
353.657
354.285
354.96
355.292
355.565
355.674
355.552
355.253
354.828
354.334
353.63
352.758
351.738
350.653
349.466
348.468
342.184
342.867
343.823
344.608
345.325
345.948
346.393
346.774
346.883
346.948
346.928
346.642
346.389
345.897
345.33
344.606
343.813
342.796
341.832
340.953
334.467
335.033
335.787
336.433
337.116
337.501
337.852
338.153
338.341
338.296
338.39
338.18
337.876
337.493
337.009
336.475
335.735
334.978
334.16
333.51
326.701
327.285
327.792
328.283
328.851
329.179
329.401
329.646
329.83
329.774
329.788
329.61
329.409
329.101
328.749
328.296
327.755
327.223
326.523
326.03
319.162
319.496
319.886
320.278
320.515
320.862
321.105
321.211
321.217
321.327
321.279
321.204
321.041
320.789
320.52
320.215
319.836
319.372
318.93
318.621
311.453
311.632
311.924
312.152
312.396
312.475
312.647
312.728
312.802
312.8
312.807
312.714
312.59
312.492
312.349
312.131
311.958
311.705
311.365
311.105
303.879
303.942
303.984
304.131
304.126
304.143
304.273
304.24
304.3
304.265
304.297
304.221
304.193
304.163
304.144
304.045
303.999
303.933
303.807
303.748
358.854
360.03
361.318
362.431
363.454
364.419
365.047
365.513
365.732
365.954
365.828
365.496
364.994
364.252
363.573
362.589
361.355
360.021
358.693
357.46
350.953
351.92
353.064
354.087
355.008
355.658
356.161
356.652
356.941
356.992
356.765
356.669
356.255
355.664
354.946
354.064
353.038
351.945
350.74
349.698
343.101
343.872
344.833
345.63
346.467
347.07
347.471
347.807
348.1
348.154
348.092
347.914
347.49
347.051
346.442
345.669
344.831
343.888
342.877
342.03
335.249
335.929
336.67
337.336
338.002
338.422
338.878
339.089
339.26
339.302
339.323
339.161
338.81
338.469
337.961
337.406
336.571
335.881
334.995
334.373
327.385
327.884
328.478
329.001
329.495
329.818
330.198
330.403
330.516
330.619
330.487
330.471
330.127
329.879
329.458
328.99
328.353
327.885
327.244
326.652
319.499
319.987
320.312
320.717
321.08
321.454
321.545
321.637
321.792
321.853
321.839
321.655
321.452
321.369
320.999
320.711
320.375
319.953
319.473
319.121
311.772
312.015
312.224
312.448
312.617
312.758
312.922
313.031
313.171
313.092
313.034
313.081
312.97
312.759
312.642
312.477
312.233
311.973
311.643
311.435
303.882
304.029
304.139
304.19
304.247
304.321
304.344
304.287
304.384
304.468
304.408
304.403
304.337
304.263
304.238
304.175
304.146
304.041
303.882
303.823
360.161
361.353
362.69
363.863
365.011
365.762
366.521
366.937
367.244
367.381
367.24
366.96
366.436
365.855
364.983
363.996
362.788
361.404
360.085
358.801
351.976
353.086
354.25
355.344
356.188
356.929
357.541
357.999
358.305
358.319
358.199
358.044
357.546
356.957
356.219
355.42
354.337
353.135
351.94
350.821
344.057
344.849
345.81
346.642
347.494
348.038
348.609
349.015
349.261
349.267
349.213
348.979
348.576
348.104
347.537
346.74
345.875
344.959
343.928
342.963
335.982
336.712
337.429
338.211
338.832
339.322
339.677
340.082
340.22
340.266
340.207
340.036
339.771
339.376
338.849
338.189
337.457
336.686
335.891
335.168
327.97
328.557
329.138
329.681
330.151
330.555
330.886
331.11
331.255
331.241
331.23
331.162
330.853
330.531
330.207
329.696
329.141
328.559
327.858
327.306
319.994
320.431
320.829
321.217
321.489
321.829
322.118
322.187
322.349
322.425
322.301
322.172
322.082
321.877
321.485
321.246
320.839
320.415
319.881
319.507
311.954
312.208
312.475
312.74
312.925
313.101
313.238
313.339
313.373
313.395
313.392
313.294
313.234
313.049
312.983
312.779
312.453
312.198
312.023
311.693
304.009
304.058
304.219
304.252
304.259
304.382
304.408
304.491
304.601
304.51
304.501
304.493
304.463
304.4
304.362
304.287
304.15
304.136
304.013
303.923
361.282
362.509
363.901
365.192
366.22
367.173
367.858
368.428
368.763
368.796
368.787
368.453
367.931
367.345
366.396
365.382
364.076
362.76
361.345
360.002
353.061
354.12
355.342
356.465
357.291
358.104
358.762
359.19
359.468
359.517
359.426
359.19
358.746
358.23
357.506
356.605
355.456
354.348
353.021
351.974
344.905
345.775
346.736
347.693
348.499
349.139
349.638
349.983
350.217
350.322
350.218
350.031
349.717
349.19
348.526
347.777
346.898
345.872
344.813
343.858
336.7
337.448
338.188
338.987
339.567
340.143
340.538
340.885
341.028
341.173
341.08
340.872
340.642
340.262
339.641
339.044
338.329
337.499
336.651
335.962
328.627
329.122
329.71
330.211
330.789
331.173
331.556
331.753
331.884
331.94
331.9
331.747
331.546
331.188
330.796
330.349
329.791
329.106
328.521
327.948
320.346
320.763
321.225
321.566
322.041
322.283
322.509
322.697
322.744
322.798
322.733
322.689
322.493
322.319
321.98
321.682
321.253
320.799
320.332
319.941
312.306
312.502
312.677
313.031
313.174
313.322
313.524
313.61
313.704
313.633
313.644
313.593
313.51
313.422
313.214
312.916
312.736
312.488
312.218
312.005
304.094
304.201
304.255
304.428
304.432
304.554
304.529
304.544
304.629
304.702
304.568
304.537
304.525
304.517
304.392
304.35
304.27
304.206
304.116
303.957
362.361
363.712
365.131
366.416
367.591
368.385
369.111
369.704
369.989
370.165
370.075
369.78
369.316
368.628
367.658
366.699
365.316
363.99
362.549
361.206
354.062
355.156
356.364
357.569
358.415
359.157
359.865
360.284
360.554
360.669
360.654
360.369
359.997
359.33
358.559
357.609
356.615
355.372
354.04
352.973
345.757
346.613
347.667
348.559
349.258
350.071
350.525
350.947
351.121
351.302
351.236
351
350.609
350.125
349.438
348.723
347.83
346.736
345.731
344.759
337.368
338.195
338.899
339.68
340.238
340.815
341.334
341.716
341.844
341.902
341.839
341.659
341.404
340.998
340.45
339.781
339.019
338.271
337.314
336.571
329.124
329.664
330.326
330.854
331.33
331.849
332.119
332.293
332.484
332.555
332.555
332.361
332.14
331.777
331.469
330.99
330.33
329.706
329.045
328.505
320.708
321.142
321.633
322.053
322.412
322.702
322.898
323.078
323.22
323.199
323.261
323.051
322.977
322.732
322.443
322.131
321.679
321.239
320.756
320.28
312.479
312.649
312.939
313.258
313.438
313.629
313.73
313.93
313.951
313.881
313.944
313.877
313.794
313.662
313.523
313.267
312.954
312.808
312.41
312.198
304.167
304.256
304.302
304.421
304.468
304.587
304.662
304.689
304.65
304.673
304.701
304.625
304.652
304.578
304.526
304.455
304.394
304.302
304.158
304.103
363.446
364.706
366.232
367.54
368.625
369.58
370.282
370.872
371.152
371.332
371.286
371.006
370.496
369.77
368.937
367.758
366.541
365.124
363.675
362.277
354.911
356.017
357.226
358.371
359.407
360.223
360.842
361.27
361.586
361.727
361.636
361.369
360.927
360.33
359.576
358.657
357.588
356.279
355.04
353.898
346.426
347.301
348.443
349.346
350.188
350.857
351.407
351.711
352.037
352.142
352.073
351.849
351.47
351.004
350.321
349.593
348.664
347.617
346.445
345.547
338.034
338.722
339.58
340.322
341.02
341.492
342.01
342.348
342.491
342.668
342.554
342.373
342.064
341.708
341.152
340.522
339.804
338.899
337.994
337.189
329.528
330.104
330.754
331.309
331.83
332.326
332.643
332.892
333.018
333.076
333.041
332.937
332.748
332.417
332.038
331.431
330.794
330.189
329.5
328.953
321.076
321.519
321.933
322.327
322.777
323.033
323.265
323.492
323.7
323.688
323.579
323.549
323.319
323.135
322.792
322.471
322.046
321.562
321.117
320.661
312.621
312.795
313.201
313.43
313.642
313.884
313.925
314.175
314.145
314.147
314.124
314.17
314.065
313.893
313.67
313.47
313.197
312.952
312.626
312.455
304.273
304.297
304.373
304.493
304.535
304.648
304.66
304.734
304.739
304.763
304.777
304.721
304.659
304.67
304.592
304.514
304.413
304.274
304.247
304.172
364.302
365.65
367.108
368.429
369.638
370.554
371.347
371.93
372.264
372.419
372.313
372.046
371.577
370.9
369.921
368.846
367.514
366.136
364.552
363.159
355.683
356.856
358.109
359.28
360.263
361.079
361.768
362.27
362.537
362.666
362.487
362.38
361.943
361.309
360.562
359.521
358.441
357.257
355.936
354.687
347.099
348.075
349.103
350.121
350.929
351.639
352.129
352.512
352.882
352.97
352.872
352.614
352.242
351.777
351.192
350.363
349.41
348.336
347.227
346.317
338.509
339.304
340.106
340.934
341.59
342.13
342.644
343.042
343.168
343.24
343.256
343.071
342.71
342.269
341.772
341.166
340.305
339.481
338.643
337.829
329.909
330.509
331.203
331.803
332.324
332.762
333.129
333.344
333.588
333.586
333.605
333.423
333.203
332.908
332.448
331.997
331.387
330.693
329.976
329.387
321.455
321.806
322.323
322.634
323.102
323.422
323.679
323.854
324.011
324.017
323.962
323.849
323.753
323.423
323.185
322.846
322.327
321.902
321.469
321.039
312.789
313.079
313.326
313.641
313.819
314.063
314.221
314.3
314.329
314.448
314.374
314.294
314.199
314.088
313.928
313.742
313.51
313.193
312.828
312.596
304.305
304.403
304.442
304.617
304.688
304.748
304.736
304.743
304.748
304.825
304.827
304.778
304.829
304.738
304.674
304.65
304.465
304.471
304.319
304.231
365.118
366.46
368.009
369.313
370.576
371.483
372.295
372.859
373.231
373.39
373.3
372.996
372.51
371.833
370.953
369.784
368.426
367.073
365.461
364.059
356.356
357.523
358.814
359.97
360.969
361.889
362.518
362.979
363.31
363.402
363.475
363.109
362.753
362.08
361.338
360.424
359.237
358.002
356.643
355.451
347.715
348.637
349.678
350.593
351.534
352.275
352.801
353.225
353.469
353.67
353.601
353.37
353.023
352.454
351.832
351.047
350.04
348.928
347.855
346.912
339.019
339.751
340.616
341.433
342.175
342.724
343.2
343.56
343.763
343.946
343.834
343.685
343.33
342.882
342.343
341.65
340.876
340.046
339.092
338.285
330.365
330.881
331.569
332.171
332.753
333.224
333.514
333.845
333.977
334.059
334.057
333.881
333.674
333.27
332.808
332.319
331.824
331.039
330.429
329.774
321.658
322.055
322.507
322.98
323.309
323.715
323.984
324.106
324.269
324.306
324.31
324.151
323.999
323.737
323.482
323.157
322.685
322.181
321.75
321.277
313.012
313.339
313.565
313.812
314.007
314.261
314.455
314.543
314.549
314.577
314.559
314.496
314.472
314.293
314.101
313.871
313.673
313.333
313.019
312.825
304.344
304.524
304.543
304.61
304.738
304.769
304.832
304.832
304.871
304.869
304.832
304.859
304.86
304.729
304.754
304.672
304.59
304.454
304.35
304.296
365.801
367.222
368.617
370.036
371.222
372.282
373.07
373.648
373.982
374.192
374.1
373.898
373.34
372.591
371.78
370.621
369.219
367.835
366.277
364.8
356.999
358.121
359.381
360.571
361.652
362.551
363.185
363.639
364.035
364.211
364.119
363.824
363.381
362.8
362.089
361.112
359.888
358.603
357.293
356.127
348.275
349.124
350.205
351.199
352.157
352.817
353.412
353.879
354.099
354.223
354.22
353.93
353.6
353.089
352.34
351.65
350.619
349.51
348.452
347.42
339.402
340.187
341.064
341.823
342.595
343.196
343.679
344.076
344.263
344.352
344.221
344.058
343.79
343.413
342.869
342.088
341.372
340.427
339.604
338.829
330.695
331.232
331.922
332.535
333.113
333.576
333.991
334.223
334.28
334.402
334.433
334.289
334.056
333.704
333.269
332.745
332.177
331.435
330.818
330.167
321.859
322.219
322.798
323.274
323.638
323.999
324.189
324.381
324.565
324.643
324.506
324.501
324.296
324.102
323.723
323.367
322.923
322.49
321.952
321.549
313.118
313.402
313.641
314.001
314.242
314.428
314.541
314.675
314.742
314.785
314.721
314.626
314.58
314.493
314.253
314.092
313.749
313.506
313.228
312.989
304.409
304.48
304.639
304.639
304.739
304.874
304.909
304.956
304.932
304.973
304.981
304.885
304.879
304.868
304.804
304.697
304.565
304.535
304.514
304.385
366.332
367.695
369.194
370.684
371.899
372.896
373.762
374.294
374.68
374.932
374.823
374.52
373.969
373.277
372.385
371.318
369.959
368.507
366.842
365.485
357.429
358.63
359.915
361.156
362.252
363.142
363.81
364.335
364.654
364.812
364.75
364.441
364.046
363.429
362.663
361.652
360.543
359.204
357.883
356.659
348.562
349.561
350.546
351.658
352.574
353.333
353.93
354.338
354.604
354.767
354.666
354.526
354.055
353.565
352.89
352.101
351.108
350.042
348.878
347.907
339.731
340.478
341.424
342.286
342.933
343.598
344.02
344.42
344.584
344.761
344.695
344.596
344.198
343.773
343.211
342.593
341.763
340.862
339.923
339.121
330.893
331.472
332.182
332.841
333.341
333.939
334.219
334.485
334.765
334.737
334.788
334.604
334.289
334.028
333.545
333.133
332.483
331.754
331.03
330.498
322.032
322.446
323.005
323.479
323.796
324.19
324.439
324.646
324.73
324.775
324.795
324.71
324.561
324.342
323.989
323.604
323.072
322.676
322.167
321.781
313.238
313.51
313.82
313.999
314.358
314.58
314.646
314.792
314.846
314.888
314.922
314.849
314.731
314.589
314.383
314.198
313.947
313.664
313.343
313.008
304.45
304.592
304.62
304.709
304.798
304.918
304.941
304.885
304.914
305.013
304.955
304.978
305.005
304.866
304.842
304.814
304.693
304.587
304.436
304.347
366.777
368.125
369.772
371.071
372.39
373.472
374.268
374.858
375.237
375.429
375.383
375.14
374.57
373.878
372.946
371.795
370.511
369.003
367.433
365.966
357.823
359
360.394
361.559
362.623
363.523
364.329
364.77
365.111
365.305
365.169
364.897
364.558
363.899
363.139
362.13
361.041
359.79
358.412
357.037
348.835
349.938
350.92
352.046
352.946
353.623
354.291
354.692
355.036
355.117
355.09
354.892
354.496
354.026
353.319
352.439
351.442
350.429
349.317
348.225
339.98
340.786
341.604
342.522
343.261
343.931
344.361
344.744
344.91
345.066
345.009
344.829
344.536
344.048
343.551
342.905
342.067
341.196
340.295
339.286
331.107
331.702
332.405
333.061
333.626
334.11
334.571
334.756
334.976
335.101
335.083
334.814
334.636
334.316
333.885
333.311
332.69
332.001
331.323
330.711
322.289
322.558
323.11
323.547
324.004
324.375
324.634
324.811
324.877
325.013
324.942
324.917
324.729
324.57
324.085
323.763
323.29
322.924
322.38
321.863
313.35
313.568
313.875
314.127
314.404
314.659
314.732
314.926
314.975
314.956
315.019
314.926
314.858
314.711
314.492
314.284
314.024
313.706
313.432
313.153
304.461
304.565
304.604
304.763
304.868
304.932
304.895
305.024
305.06
305.004
305.131
304.989
304.94
304.938
304.855
304.781
304.722
304.633
304.516
304.394
367.088
368.495
370.041
371.522
372.757
373.811
374.627
375.257
375.667
375.814
375.708
375.579
375.048
374.275
373.374
372.253
370.881
369.402
367.684
366.304
358.106
359.288
360.592
361.801
362.975
363.922
364.574
365.126
365.402
365.596
365.537
365.257
364.893
364.249
363.461
362.473
361.326
359.946
358.629
357.395
349.147
350.149
351.177
352.236
353.163
354.047
354.495
354.996
355.275
355.38
355.33
355.118
354.823
354.266
353.615
352.772
351.775
350.664
349.601
348.492
340.171
340.927
341.838
342.781
343.464
344.074
344.593
344.948
345.239
345.34
345.234
345.085
344.793
344.353
343.778
343.136
342.326
341.309
340.481
339.653
331.268
331.848
332.526
333.257
333.812
334.196
334.649
334.9
335.123
335.197
335.136
335.019
334.813
334.533
333.956
333.51
332.964
332.163
331.496
330.813
322.303
322.744
323.222
323.715
324.054
324.556
324.75
324.911
325.005
325.095
325.075
324.976
324.853
324.665
324.302
323.897
323.466
323.066
322.423
322
313.345
313.619
313.903
314.119
314.482
314.705
314.816
314.958
315.064
315.117
315.045
315.013
314.873
314.785
314.584
314.27
314.046
313.791
313.527
313.187
304.457
304.589
304.691
304.684
304.862
305.003
305.067
305.005
305.084
305.077
305.032
305.021
304.965
304.922
304.915
304.777
304.686
304.618
304.468
304.431
367.182
368.684
370.24
371.66
372.98
374.014
374.82
375.478
375.834
376.004
376.07
375.783
375.274
374.53
373.573
372.448
371.087
369.606
368.039
366.548
358.345
359.425
360.8
362.038
363.119
364.036
364.746
365.286
365.65
365.757
365.82
365.464
365.069
364.387
363.639
362.663
361.467
360.167
358.791
357.69
349.241
350.248
351.377
352.366
353.27
354.078
354.688
355.124
355.424
355.546
355.474
355.37
354.902
354.449
353.792
352.863
351.915
350.78
349.676
348.664
340.295
341.043
342.041
342.829
343.515
344.166
344.624
345.101
345.334
345.428
345.442
345.263
344.871
344.505
343.92
343.259
342.487
341.586
340.589
339.833
331.332
331.948
332.553
333.291
333.826
334.358
334.709
335.048
335.221
335.327
335.253
335.147
334.833
334.539
334.133
333.603
332.922
332.202
331.549
330.97
322.359
322.816
323.297
323.784
324.133
324.634
324.832
325
325.113
325.214
325.243
325.084
324.912
324.628
324.345
324.017
323.547
323.01
322.576
322.117
313.445
313.69
313.968
314.287
314.534
314.761
314.862
315.081
315.162
315.139
315.139
315.029
314.973
314.874
314.619
314.43
314.065
313.801
313.549
313.316
304.46
304.622
304.686
304.734
304.86
304.942
304.985
305.032
305.001
305.064
305.036
305.032
305.038
304.981
304.896
304.77
304.742
304.568
304.561
304.463
)
;

boundaryField
{
    hotSide
    {
        type            fixedGradient;
        gradient        nonuniform List<scalar> 
400
(
321.511
322.87
325.591
329.677
335.133
341.965
350.181
359.788
370.794
383.208
397.037
412.289
428.971
447.088
466.647
487.651
510.105
534.011
559.372
586.191
323.738
325.08
327.767
331.802
337.194
343.949
352.078
361.591
372.498
384.81
398.537
413.687
430.268
448.289
467.755
488.672
511.043
534.872
560.161
586.913
326.149
327.47
330.116
334.091
339.406
346.071
354.099
363.503
374.296
386.491
400.101
415.136
431.606
449.52
468.885
489.706
511.988
535.735
560.948
587.63
328.704
330
332.597
336.503
341.73
348.292
356.205
365.485
376.15
388.215
401.695
416.604
432.954
450.753
470.009
490.73
512.919
536.579
561.714
588.325
331.33
332.599
335.142
338.97
344.099
350.546
358.332
367.477
378.003
389.928
403.271
418.047
434.27
451.949
471.095
491.712
513.807
537.382
562.439
588.978
333.918
335.158
337.643
341.389
346.414
352.74
360.392
369.397
379.779
391.562
404.765
419.407
435.503
453.065
472.101
492.618
514.622
538.114
563.096
589.569
336.321
337.531
339.959
343.622
348.544
354.751
362.274
371.142
381.385
393.031
406.101
420.618
436.595
454.047
472.983
493.409
515.33
538.747
563.663
590.076
338.36
339.543
341.92
345.509
350.339
356.44
363.847
372.595
382.718
394.244
407.2
421.608
437.485
454.844
473.695
494.045
515.897
539.253
564.114
590.478
339.852
341.015
343.352
346.885
351.645
357.665
364.985
373.643
383.675
395.113
407.984
422.312
438.116
455.407
474.197
494.491
516.294
539.606
564.428
590.758
340.643
341.795
344.11
347.613
352.334
358.311
365.584
374.193
384.176
395.567
408.393
422.679
438.443
455.699
474.456
494.722
516.498
539.788
564.589
590.901
340.643
341.795
344.11
347.613
352.334
358.311
365.584
374.193
384.176
395.567
408.393
422.679
438.443
455.699
474.456
494.722
516.498
539.788
564.589
590.901
339.852
341.015
343.352
346.885
351.645
357.665
364.985
373.643
383.675
395.113
407.984
422.312
438.116
455.407
474.197
494.491
516.294
539.606
564.428
590.758
338.36
339.543
341.92
345.509
350.339
356.44
363.847
372.595
382.718
394.244
407.2
421.608
437.485
454.844
473.695
494.045
515.897
539.253
564.114
590.478
336.321
337.531
339.959
343.622
348.544
354.751
362.274
371.142
381.385
393.031
406.101
420.618
436.595
454.047
472.983
493.409
515.33
538.747
563.663
590.076
333.918
335.158
337.643
341.389
346.414
352.74
360.392
369.397
379.779
391.562
404.765
419.407
435.503
453.065
472.101
492.618
514.622
538.114
563.096
589.569
331.33
332.599
335.142
338.97
344.099
350.546
358.332
367.477
378.003
389.928
403.271
418.047
434.27
451.949
471.095
491.712
513.807
537.382
562.439
588.978
328.704
330
332.597
336.503
341.73
348.292
356.205
365.485
376.15
388.215
401.695
416.604
432.954
450.753
470.009
490.73
512.919
536.579
561.714
588.325
326.149
327.47
330.116
334.091
339.406
346.071
354.099
363.503
374.296
386.491
400.101
415.136
431.606
449.52
468.885
489.706
511.988
535.735
560.948
587.63
323.738
325.08
327.767
331.802
337.194
343.949
352.078
361.591
372.498
384.81
398.537
413.687
430.268
448.289
467.755
488.672
511.043
534.872
560.161
586.913
321.511
322.87
325.591
329.677
335.133
341.965
350.181
359.788
370.794
383.208
397.037
412.289
428.971
447.088
466.647
487.651
510.105
534.011
559.372
586.191
)
;
    }
    coldSide
    {
        type            mixed;
        refValue        uniform 300;
        refGradient     uniform 0;
        valueFraction   uniform 0.991591;
        source          uniform 0;
        value           nonuniform List<scalar> 
400
(
300.027
300.027
300.028
300.029
300.03
300.031
300.032
300.033
300.033
300.034
300.034
300.035
300.036
300.036
300.037
300.037
300.037
300.038
300.037
300.038
300.027
300.028
300.029
300.03
300.03
300.031
300.032
300.033
300.034
300.034
300.035
300.036
300.036
300.037
300.038
300.038
300.039
300.038
300.039
300.039
300.028
300.028