/*--------------------------------*- C++ -*----------------------------------*\
| =========                 |                                                 |
| \\      /  F ield         | OpenFOAM: The Open Source CFD Toolbox           |
|  \\    /   O peration     | Version:  2212                                  |
|   \\  /    A nd           | Website:  www.openfoam.com                      |
|    \\/     M anipulation  |                                                 |
\*---------------------------------------------------------------------------*/
FoamFile
{
    version     2.0;
    format      ascii;
    arch        "LSB;label=32;scalar=64";
    class       volScalarField;
    location    "0";
    object      T;
}
// * * * * * * * * * * * * * * * * * * * * * * * * * * * * * * * * * * * * * //

dimensions      [0 0 0 1 0 0 0];

internalField   nonuniform List<scalar> 
3200
(
351.715
350.411
349.414
349.015
348.822
349.244
349.84
350.324
350.908
351.194
351.266
351.057
350.587
349.809
349.058
348.455
347.985
348.112
349.023
350.142
344.621
343.558
342.758
342.413
342.236
342.582
343.111
343.538
344.079
344.307
344.394
344.183
343.792
343.109
342.448
341.919
341.535
341.616
342.354
343.292
337.619
336.76
336.151
335.852
335.707
335.977
336.41
336.814
337.256
337.445
337.541
337.355
337.003
336.438
335.896
335.463
335.122
335.162
335.755
336.513
330.674
330.031
329.562
329.307
329.215
329.404
329.76
330.111
330.472
330.616
330.686
330.526
330.268
329.801
329.368
329.031
328.724
328.74
329.208
329.81
323.801
323.33
322.975
322.807
322.734
322.855
323.117
323.419
323.718
323.808
323.86
323.734
323.546
323.166
322.856
322.578
322.338
322.367
322.682
323.144
316.993
316.635
316.4
316.298
316.227
316.326
316.499
316.734
316.95
317.014
317.04
316.946
316.842
316.556
316.326
316.127
315.937
315.959
316.204
316.506
310.219
309.981
309.858
309.79
309.755
309.811
309.911
310.044
310.167
310.224
310.236
310.186
310.113
309.931
309.801
309.677
309.566
309.591
309.747
309.906
303.425
303.344
303.296
303.284
303.271
303.297
303.326
303.364
303.408
303.433
303.426
303.426
303.392
303.331
303.289
303.236
303.212
303.222
303.267
303.318
351.85
350.434
349.581
349.116
348.992
349.481
350.072
350.72
351.394
351.513
351.658
351.483
350.922
350.295
349.509
348.548
348.154
348.286
348.946
350.24
344.772
343.586
342.898
342.512
342.376
342.808
343.295
343.857
344.49
344.588
344.68
344.553
344.049
343.517
342.828
342.02
341.658
341.779
342.323
343.383
337.774
336.809
336.234
335.941
335.805
336.191
336.588
337.046
337.62
337.708
337.753
337.674
337.201
336.767
336.187
335.522
335.213
335.295
335.758
336.608
330.848
330.067
329.615
329.36
329.264
329.592
329.899
330.275
330.731
330.836
330.862
330.815
330.371
330.025
329.566
329.059
328.783
328.853
329.215
329.895
323.962
323.364
323.011
322.825
322.758
323.004
323.222
323.535
323.902
323.968
323.998
323.981
323.59
323.32
322.967
322.594
322.375
322.445
322.685
323.187
317.11
316.688
316.453
316.317
316.283
316.419
316.576
316.822
317.093
317.12
317.141
317.141
316.819
316.66
316.403
316.148
315.956
316.026
316.181
316.541
310.27
310.023
309.886
309.81
309.792
309.84
309.952
310.116
310.254
310.284
310.298
310.295
310.091
309.997
309.836
309.701
309.565
309.608
309.706
309.939
303.43
303.355
303.314
303.293
303.291
303.301
303.332
303.391
303.44
303.444
303.45
303.457
303.384
303.351
303.295
303.251
303.198
303.223
303.249
303.332
352.124
350.76
349.83
349.405
349.463
349.926
350.672
351.282
351.962
352.188
352.441
352.192
351.474
350.931
349.947
349.164
348.51
348.605
349.268
350.439
344.997
343.888
343.103
342.734
342.766
343.19
343.839
344.357
344.966
345.152
345.399
345.163
344.515
344.065
343.222
342.544
341.98
342.017
342.609
343.534
337.954
337.049
336.433
336.139
336.131
336.486
337.058
337.504
338.017
338.169
338.399
338.164
337.598
337.224
336.525
335.975
335.478
335.489
335.999
336.708
330.98
330.265
329.783
329.551
329.522
329.822
330.314
330.654
331.116
331.203
331.417
331.182
330.732
330.426
329.848
329.402
328.988
329.019
329.4
329.962
324.055
323.496
323.144
322.993
322.952
323.174
323.574
323.832
324.222
324.263
324.422
324.215
323.892
323.64
323.2
322.868
322.543
322.564
322.825
323.282
317.179
316.773
316.528
316.427
316.402
316.552
316.843
317.029
317.325
317.343
317.457
317.281
317.073
316.875
316.58
316.333
316.115
316.143
316.289
316.614
310.311
310.078
309.919
309.857
309.854
309.934
310.123
310.232
310.405
310.427
310.496
310.368
310.257
310.134
309.944
309.802
309.676
309.696
309.781
309.991
303.448
303.375
303.328
303.308
303.308
303.333
303.386
303.427
303.498
303.495
303.523
303.472
303.436
303.394
303.325
303.28
303.244
303.254
303.273
303.358
352.708
351.22
350.356
349.957
350.136
350.608
351.321
351.984
352.754
353.183
353.265
352.929
352.372
351.651
350.754
349.897
349.413
349.384
349.909
350.95
345.497
344.256
343.546
343.224
343.359
343.777
344.385
344.958
345.633
346.015
346.082
345.787
345.313
344.711
343.915
343.183
342.751
342.703
343.163
344.008
338.379
337.353
336.783
336.553
336.643
336.989
337.505
338.004
338.561
338.889
338.933
338.683
338.275
337.788
337.101
336.486
336.144
336.077
336.458
337.143
331.337
330.5
330.069
329.906
329.957
330.226
330.663
331.059
331.532
331.775
331.833
331.636
331.287
330.889
330.318
329.817
329.554
329.477
329.798
330.345
324.322
323.691
323.366
323.274
323.297
323.509
323.837
324.153
324.535
324.684
324.729
324.609
324.298
324.019
323.558
323.18
322.986
322.904
323.139
323.569
317.356
316.911
316.695
316.626
316.645
316.803
317.035
317.273
317.538
317.613
317.658
317.566
317.35
317.138
316.811
316.564
316.422
316.357
316.509
316.825
310.424
310.144
310.039
310
310.009
310.103
310.225
310.384
310.531
310.567
310.596
310.551
310.4
310.29
310.103
309.949
309.857
309.814
309.896
310.089
303.485
303.401
303.372
303.36
303.356
303.386
303.418
303.477
303.533
303.538
303.558
303.527
303.48
303.45
303.382
303.333
303.301
303.286
303.309
303.377
353.391
352.001
351.14
350.739
350.919
351.522
352.286
352.938
353.691
354.235
354.356
354.032
353.461
352.646
351.716
350.933
350.227
350.176
350.674
351.795
346.111
344.959
344.219
343.882
344.04
344.573
345.229
345.813
346.451
346.937
347.037
346.73
346.262
345.542
344.737
344.077
343.472
343.417
343.795
344.739
338.914
337.971
337.35
337.071
337.221
337.654
338.248
338.727
339.271
339.671
339.766
339.489
339.106
338.479
337.8
337.233
336.767
336.694
336.986
337.747
331.774
331.02
330.507
330.318
330.43
330.787
331.292
331.662
332.113
332.425
332.526
332.291
331.993
331.457
330.888
330.43
330.067
329.986
330.214
330.803
324.663
324.105
323.714
323.579
323.65
323.933
324.329
324.613
324.97
325.2
325.292
325.114
324.898
324.465
324.027
323.667
323.398
323.304
323.469
323.902
317.589
317.204
316.95
316.838
316.89
317.086
317.385
317.585
317.823
317.99
318.064
317.946
317.775
317.454
317.159
316.908
316.731
316.656
316.752
317.052
310.545
310.325
310.183
310.12
310.159
310.272
310.435
310.561
310.701
310.805
310.845
310.778
310.662
310.46
310.288
310.166
310.057
310.002
310.055
310.217
303.524
303.471
303.412
303.391
303.405
303.447
303.498
303.547
303.584
303.618
303.637
303.61
303.565
303.499
303.437
303.409
303.379
303.355
303.374
303.425
354.287
353.009
352.153
351.816
351.923
352.453
353.176
353.987
354.828
355.458
355.546
355.236
354.712
353.621
352.753
351.994
351.316
351.198
351.749
352.776
346.886
345.829
345.109
344.837
344.907
345.372
346.007
346.692
347.437
347.984
348.037
347.81
347.323
346.38
345.636
344.984
344.406
344.294
344.739
345.565
339.577
338.699
338.1
337.884
337.917
338.332
338.877
339.462
340.068
340.551
340.586
340.423
339.968
339.214
338.563
338.033
337.544
337.416
337.791
338.45
332.308
331.595
331.144
330.947
330.977
331.333
331.768
332.259
332.732
333.158
333.18
333.047
332.66
332.068
331.538
331.116
330.69
330.574
330.851
331.373
325.069
324.552
324.206
324.049
324.063
324.376
324.702
325.076
325.439
325.775
325.798
325.696
325.375
324.939
324.546
324.184
323.844
323.764
323.963
324.348
317.893
317.513
317.29
317.173
317.191
317.406
317.645
317.927
318.151
318.405
318.433
318.347
318.132
317.839
317.531
317.277
317.027
316.967
317.108
317.359
310.742
310.513
310.386
310.306
310.321
310.448
310.584
310.758
310.893
311.044
311.071
310.998
310.872
310.707
310.535
310.366
310.217
310.174
310.272
310.419
303.603
303.534
303.477
303.456
303.462
303.502
303.547
303.595
303.65
303.702
303.716
303.686
303.64
303.582
303.537
303.466
303.425
303.402
303.456
303.498
355.471
354.151
353.283
352.866
353.015
353.564
354.36
355.134
356.073
356.545
356.769
356.375
355.979
354.897
353.935
353.072
352.505
352.317
352.966
353.867
347.896
346.772
346.077
345.715
345.853
346.321
347.027
347.684
348.488
348.949
349.099
348.783
348.44
347.485
346.645
345.904
345.441
345.246
345.757
346.539
340.403
339.479
338.932
338.603
338.732
339.12
339.71
340.279
340.943
341.384
341.496
341.23
340.918
340.119
339.426
338.786
338.424
338.216
338.609
339.292
332.977
332.242
331.83
331.559
331.654
331.989
332.442
332.914
333.425
333.836
333.943
333.695
333.458
332.792
332.226
331.693
331.409
331.243
331.528
332.081
325.596
325.038
324.731
324.543
324.609
324.873
325.191
325.582
325.962
326.307
326.402
326.189
326.012
325.493
325.033
324.626
324.398
324.313
324.496
324.931
318.245
317.86
317.671
317.542
317.566
317.761
317.996
318.27
318.526
318.797
318.849
318.713
318.592
318.205
317.874
317.576
317.43
317.369
317.481
317.767
310.925
310.713
310.619
310.534
310.533
310.657
310.827
310.977
311.119
311.27
311.313
311.23
311.171
310.925
310.755
310.541
310.471
310.429
310.49
310.643
303.657
303.594
303.561
303.537
303.527
303.569
303.631
303.674
303.728
303.768
303.782
303.765
303.742
303.669
303.609
303.528
303.515
303.499
303.525
303.562
356.671
355.453
354.531
354.204
354.25
354.923
355.626
356.284
357.251
357.883
358.178
357.823
357.237
356.07
355.164
354.414
353.826
353.638
354.293
355.127
348.945
347.911
347.142
346.858
346.929
347.494
348.114
348.682
349.532
350.053
350.331
349.997
349.504
348.498
347.715
347.071
346.523
346.362
346.937
347.636
341.294
340.457
339.828
339.568
339.654
340.131
340.633
341.131
341.838
342.316
342.535
342.243
341.821
340.991
340.299
339.775
339.31
339.153
339.631
340.226
333.693
333.032
332.552
332.32
332.41
332.79
333.201
333.595
334.19
334.615
334.786
334.522
334.151
333.506
332.925
332.488
332.119
331.997
332.346
332.845
326.128
325.646
325.298
325.11
325.186
325.481
325.799
326.091
326.588
326.913
327.069
326.844
326.527
326.034
325.577
325.249
324.956
324.858
325.096
325.502
318.617
318.294
318.085
317.942
317.979
318.19
318.417
318.588
318.959
319.205
319.352
319.171
318.951
318.607
318.266
318.034
317.823
317.74
317.917
318.208
311.153
310.98
310.878
310.779
310.783
310.917
311.068
311.146
311.376
311.52
311.618
311.511
311.386
311.196
310.986
310.828
310.701
310.638
310.768
310.92
303.732
303.674
303.64
303.618
303.614
303.66
303.708
303.734
303.81
303.866
303.892
303.867
303.811
303.761
303.687
303.634
303.6
303.566
303.609
303.658
357.875
356.862
355.907
355.501
355.422
356.196
356.856
357.676
358.542
359.152
359.275
358.999
358.425
357.489
356.355
355.597
355.086
355.093
355.639
356.469
349.988
349.126
348.322
347.986
347.92
348.59
349.185
349.871
350.644
351.159
351.279
351.033
350.529
349.702
348.729
348.071
347.611
347.646
348.077
348.753
342.181
341.475
340.793
340.545
340.494
341.056
341.582
342.12
342.793
343.231
343.348
343.105
342.702
341.969
341.165
340.6
340.206
340.266
340.591
341.14
334.422
333.867
333.323
333.137
333.117
333.553
334.001
334.408
334.964
335.331
335.421
335.24
334.892
334.294
333.648
333.174
332.851
332.901
333.152
333.588
326.716
326.322
325.891
325.745
325.757
326.082
326.432
326.714
327.17
327.47
327.547
327.399
327.142
326.646
326.163
325.765
325.546
325.569
325.791
326.105
319.058
318.794
318.495
318.399
318.401
318.62
318.874
319.077
319.415
319.598
319.674
319.572
319.389
319.04
318.674
318.382
318.237
318.263
318.439
318.649
311.434
311.278
311.122
311.062
311.048
311.177
311.318
311.455
311.664
311.756
311.811
311.753
311.641
311.425
311.201
311.025
310.945
310.959
311.079
311.207
303.823
303.78
303.728
303.702
303.705
303.745
303.796
303.839
303.909
303.933
303.954
303.939
303.904
303.817
303.768
303.695
303.672
303.676
303.718
303.756
359.126
358.192
357.379
356.88
356.827
357.432
358.157
358.872
359.868
360.391
360.543
360.323
359.604
358.797
357.649
356.954
356.532
356.521
357.05
357.784
351.047
350.289
349.589
349.178
349.128
349.673
350.288
350.935
351.773
352.239
352.34
352.16
351.538
350.847
349.835
349.256
348.893
348.867
349.331
349.907
343.053
342.435
341.856
341.516
341.518
341.958
342.466
343.041
343.731
344.159
344.21
344.062
343.523
342.948
342.088
341.614
341.299
341.27
341.672
342.132
335.133
334.655
334.172
333.911
333.951
334.293
334.688
335.158
335.741
336.103
336.129
336.017
335.556
335.105
334.404
334.005
333.737
333.727
334.073
334.401
327.273
326.918
326.55
326.339
326.415
326.666
326.97
327.298
327.77
328.069
328.07
328.001
327.645
327.286
326.743
326.429
326.214
326.223
326.479
326.735
319.457
319.225
318.978
318.781
318.874
319.055
319.27
319.485
319.825
320.048
320.038
320.002
319.736
319.479
319.101
318.866
318.7
318.732
318.925
319.095
311.686
311.53
311.406
311.273
311.323
311.453
311.574
311.693
311.903
312.05
312.029
312.013
311.846
311.699
311.459
311.318
311.212
311.249
311.358
311.46
303.915
303.853
303.828
303.77
303.799
303.839
303.872
303.92
303.985
304.05
304.038
304.028
303.98
303.916
303.83
303.794
303.747
303.78
303.809
303.83
360.614
359.608
358.76
358.347
358.383
358.768
359.461
360.172
360.928
361.408
361.65
361.492
360.832
360.148
359.064
358.328
357.968
357.991
358.434
359.1
352.341
351.496
350.777
350.455
350.477
350.827
351.411
352.064
352.679
353.12
353.308
353.179
352.603
352.018
351.061
350.401
350.127
350.133
350.505
351.026
344.133
343.461
342.852
342.621
342.628
342.948
343.423
343.983
344.501
344.883
345.023
344.928
344.417
343.941
343.102
342.547
342.319
342.34
342.637
343.046
335.991
335.492
334.999
334.845
334.836
335.112
335.485
335.935
336.366
336.693
336.767
336.72
336.285
335.912
335.207
334.749
334.565
334.575
334.825
335.135
327.91
327.568
327.215
327.102
327.069
327.283
327.584
327.914
328.261
328.539
328.564
328.529
328.202
327.899
327.362
327.011
326.845
326.861
327.064
327.27
319.901
319.667
319.432
319.374
319.316
319.467
319.683
319.923
320.173
320.379
320.409
320.378
320.151
319.912
319.53
319.291
319.148
319.174
319.317
319.466
311.933
311.807
311.674
311.651
311.604
311.693
311.815
311.945
312.106
312.225
312.249
312.236
312.088
311.95
311.708
311.577
311.49
311.524
311.594
311.676
303.992
303.96
303.924
303.907
303.899
303.907
303.952
304.008
304.058
304.085
304.11
304.097
304.044
304.002
303.921
303.876
303.851
303.868
303.887
303.913
362.101
361.104
360.287
359.883
359.831
360.139
360.749
361.356
362.059
362.609
362.693
362.547
362.016
361.367
360.55
359.65
359.439
359.464
359.908
360.616
353.6
352.778
352.088
351.778
351.717
352.001
352.524
353.067
353.677
354.142
354.163
354.067
353.616
353.071
352.37
351.57
351.385
351.403
351.777
352.347
345.23
344.54
343.971
343.737
343.683
343.941
344.353
344.833
345.365
345.744
345.731
345.667
345.261
344.823
344.232
343.549
343.406
343.401
343.726
344.185
336.919
336.366
335.904
335.736
335.664
335.922
336.233
336.627
337.056
337.38
337.338
337.298
336.965
336.601
336.152
335.587
335.487
335.46
335.73
336.09
328.659
328.253
327.873
327.76
327.687
327.906
328.148
328.48
328.797
329.048
329.003
328.972
328.728
328.41
328.114
327.645
327.564
327.526
327.778
328.026
320.449
320.173
319.892
319.825
319.744
319.921
320.089
320.349
320.55
320.749
320.696
320.688
320.524
320.283
320.073
319.724
319.664
319.659
319.853
319.997
312.288
312.117
311.928
311.897
311.831
311.953
312.066
312.227
312.335
312.451
312.425
312.431
312.317
312.161
312.031
311.83
311.795
311.801
311.925
312.005
304.119
304.057
303.999
303.99
303.961
304.008
304.052
304.098
304.126
304.168
304.158
304.166
304.132
304.082
304.021
303.963
303.952
303.954
304.003
304.021
363.643
362.732
361.815
361.318
361.118
361.479
362.046
362.588
363.179
363.771
363.719
363.541
363.289
362.627
361.798
361.157
360.834
360.951
361.317
362.118
354.935
354.195
353.426
353.01
352.83
353.138
353.644
354.11
354.651
355.151
355.064
354.927
354.73
354.148
353.447
352.9
352.599
352.689
353.009
353.646
346.343
345.745
345.123
344.772
344.603
344.868
345.296
345.709
346.201
346.56
346.469
346.373
346.194
345.744
345.15
344.695
344.43
344.505
344.772
345.284
337.828
337.355
336.853
336.599
336.457
336.664
337.032
337.366
337.773
338.042
337.95
337.872
337.736
337.387
336.884
336.53
336.302
336.37
336.572
336.989
329.362
329.007
328.626
328.453
328.319
328.495
328.788
329.044
329.349
329.56
329.5
329.418
329.316
329.038
328.661
328.393
328.197
328.242
328.417
328.739
320.949
320.691
320.421
320.334
320.216
320.349
320.586
320.752
320.942
321.104
321.071
320.992
320.923
320.732
320.466
320.272
320.139
320.139
320.285
320.512
312.568
312.412
312.253
312.212
312.118
312.207
312.354
312.463
312.571
312.667
312.63
312.613
312.547
312.447
312.279
312.176
312.085
312.083
312.182
312.324
304.215
304.168
304.107
304.094
304.062
304.098
304.134
304.18
304.202
304.239
304.224
304.224
304.195
304.166
304.111
304.084
304.048
304.051
304.092
304.124
365.171
364.243
363.564
362.797
362.597
362.723
363.348
363.724
364.349
364.681
364.814
364.487
364.249
363.721
363.056
362.597
362.285
362.364
362.847
363.621
356.258
355.479
354.947
354.283
354.066
354.231
354.764
355.064
355.644
355.937
356.014
355.743
355.553
355.099
354.524
354.123
353.845
353.887
354.293
354.931
347.447
346.8
346.372
345.844
345.604
345.806
346.24
346.505
346.999
347.246
347.291
347.082
346.928
346.536
346.059
345.701
345.472
345.474
345.837
346.338
338.712
338.19
337.882
337.464
337.232
337.431
337.766
338.017
338.421
338.638
338.63
338.484
338.358
338.042
337.654
337.359
337.144
337.15
337.449
337.82
330.028
329.623
329.441
329.111
328.927
329.107
329.338
329.549
329.842
330.052
330.011
329.913
329.803
329.581
329.271
329.054
328.879
328.871
329.074
329.366
321.404
321.115
321.036
320.789
320.641
320.797
320.952
321.091
321.307
321.468
321.434
321.357
321.284
321.136
320.907
320.735
320.618
320.617
320.767
320.949
312.843
312.669
312.636
312.459
312.389
312.501
312.575
312.671
312.802
312.895
312.855
312.82
312.781
312.69
312.551
312.45
312.386
312.377
312.478
312.56
304.305
304.244
304.244
304.171
304.154
304.192
304.21
304.242
304.288
304.334
304.316
304.298
304.293
304.251
304.202
304.174
304.147
304.148
304.185
304.208
366.724
365.739
364.982
364.42
364.144
364.185
364.618
365.011
365.465
365.631
365.711
365.45
365.225
364.775
364.213
363.838
363.659
363.833
364.386
365.084
357.596
356.789
356.167
355.672
355.42
355.472
355.846
356.213
356.599
356.744
356.809
356.583
356.396
356.001
355.511
355.175
355.034
355.163
355.645
356.208
348.582
347.925
347.422
347.01
346.775
346.849
347.162
347.471
347.799
347.926
347.98
347.78
347.65
347.3
346.879
346.603
346.484
346.565
346.974
347.436
339.644
339.119
338.732
338.383
338.208
338.268
338.524
338.774
339.053
339.165
339.215
339.035
338.942
338.646
338.297
338.114
337.982
338.021
338.38
338.742
330.764
330.384
330.091
329.805
329.668
329.73
329.943
330.116
330.34
330.417
330.5
330.349
330.269
330.051
329.756
329.638
329.515
329.534
329.808
330.099
321.925
321.67
321.498
321.299
321.173
321.208
321.385
321.497
321.659
321.741
321.788
321.697
321.617
321.479
321.245
321.194
321.089
321.101
321.272
321.485
313.139
312.998
312.912
312.781
312.707
312.722
312.844
312.906
312.991
313.06
313.085
313.03
312.985
312.916
312.742
312.721
312.675
312.659
312.775
312.901
304.4
304.36
304.33
304.265
304.262
304.255
304.304
304.324
304.339
304.376
304.386
304.36
304.358
304.324
304.276
304.266
304.241
304.237
304.287
304.325
368.339
367.279
366.566
365.949
365.652
365.706
365.976
366.316
366.601
366.727
366.841
366.694
366.327
365.888
365.51
365.247
365.09
365.265
365.838
366.639
358.981
358.084
357.524
356.961
356.731
356.767
357.016
357.332
357.586
357.704
357.775
357.641
357.327
356.955
356.635
356.415
356.264
356.391
356.869
357.547
349.733
349.003
348.552
348.091
347.877
347.911
348.143
348.391
348.627
348.749
348.776
348.682
348.396
348.11
347.822
347.642
347.519
347.605
347.981
348.546
340.601
339.998
339.649
339.287
339.08
339.114
339.342
339.543
339.716
339.839
339.827
339.765
339.54
339.329
339.075
338.9
338.822
338.887
339.173
339.63
331.524
331.037
330.817
330.517
330.336
330.399
330.576
330.728
330.853
330.957
330.928
330.891
330.739
330.554
330.371
330.224
330.171
330.225
330.406
330.764
322.505
322.132
322
321.782
321.642
321.715
321.843
321.946
322.038
322.106
322.082
322.055
321.957
321.825
321.701
321.582
321.556
321.574
321.698
321.964
313.506
313.277
313.205
313.09
312.977
313.037
313.115
313.185
313.265
313.267
313.276
313.247
313.205
313.108
313.027
312.96
312.946
312.964
313.014
313.189
304.509
304.449
304.426
304.382
304.348
304.373
304.394
304.416
304.451
304.45
304.448
304.44
304.437
304.398
304.372
304.346
304.341
304.347
304.355
304.427
370.02
368.942
368.153
367.511
367.18
367.22
367.438
367.75
367.827
367.894
367.86
367.797
367.599
367.146
366.852
366.587
366.643
366.803
367.291
368.062
360.439
359.533
358.885
358.306
358.028
358.075
358.295
358.566
358.609
358.682
358.649
358.585
358.421
358.043
357.775
357.547
357.564
357.738
358.109
358.756
350.979
350.205
349.731
349.184
348.968
349.018
349.241
349.451
349.499
349.563
349.546
349.444
349.317
349.006
348.764
348.594
348.59
348.744
349.038
349.595
341.596
340.973
340.629
340.148
339.991
340.049
340.23
340.394
340.451
340.505
340.483
340.379
340.293
340.023
339.827
339.704
339.686
339.819
340.033
340.511
332.284
331.801
331.589
331.168
331.062
331.132
331.254
331.399
331.435
331.475
331.48
331.37
331.306
331.084
330.946
330.851
330.824
330.932
331.078
331.467
323.033
322.671
322.563
322.247
322.169
322.246
322.315
322.435
322.457
322.447
322.472
322.386
322.351
322.182
322.098
322.013
322.008
322.092
322.182
322.465
313.822
313.596
313.545
313.357
313.301
313.356
313.366
313.464
313.483
313.455
313.491
313.429
313.417
313.311
313.269
313.215
313.224
313.259
313.298
313.477
304.633
304.562
304.546
304.468
304.465
304.478
304.465
304.508
304.519
304.505
304.526
304.496
304.497
304.447
304.448
304.429
304.432
304.442
304.448
304.515
371.635
370.546
369.713
368.986
368.576
368.627
368.757
368.946
368.983
368.999
369.029
368.869
368.79
368.363
368.192
367.918
368.136
368.353
368.918
369.703
361.833
360.887
360.211
359.553
359.239
359.292
359.41
359.584
359.614
359.616
359.638
359.516
359.437
359.077
358.922
358.679
358.878
359.058
359.516
360.172
352.147
351.362
350.804
350.228
349.983
350.038
350.158
350.312
350.338
350.332
350.307
350.254
350.181
349.871
349.744
349.516
349.696
349.861
350.213
350.767
342.529
341.942
341.472
340.985
340.813
340.861
340.969
341.115
341.116
341.089
341.081
341.058
340.967
340.728
340.623
340.437
340.583
340.746
341.012
341.447
332.981
332.561
332.197
331.81
331.698
331.739
331.809
331.936
331.939
331.909
331.913
331.888
331.826
331.645
331.545
331.414
331.519
331.677
331.866
332.176
323.534
323.235
322.958
322.702
322.637
322.667
322.702
322.802
322.797
322.792
322.786
322.783
322.703
322.614
322.504
322.432
322.497
322.61
322.756
322.968
314.107
313.943
313.772
313.61
313.581
313.605
313.641
313.679
313.696
313.686
313.679
313.689
313.621
313.576
313.502
313.468
313.501
313.553
313.637
313.782
304.722
304.675
304.618
304.55
304.548
304.551
304.577
304.581
304.586
304.585
304.589
304.596
304.563
304.553
304.524
304.505
304.513
304.536
304.562
304.618
373.004
372.097
371.108
370.407
369.974
369.902
369.902
370.053
369.997
370.083
370.055
369.937
369.799
369.513
369.271
369.179
369.528
369.819
370.434
371.237
362.985
362.232
361.385
360.75
360.4
360.379
360.385
360.524
360.45
360.543
360.485
360.403
360.306
360.039
359.846
359.737
360.068
360.323
360.798
361.458
353.089
352.498
351.774
351.188
350.946
350.957
350.963
351.097
351.03
351.08
351.03
350.967
350.894
350.692
350.5
350.401
350.685
350.918
351.29
351.813
343.289
342.846
342.262
341.73
341.588
341.599
341.605
341.737
341.672
341.709
341.668
341.624
341.57
341.385
341.245
341.138
341.359
341.583
341.867
342.277
333.587
333.281
332.791
332.384
332.329
332.289
332.3
332.448
332.354
332.362
332.365
332.356
332.281
332.152
332.041
331.946
332.104
332.285
332.491
332.822
323.937
323.745
323.396
323.088
323.067
323.026
323.044
323.17
323.068
323.101
323.105
323.11
323.042
322.952
322.884
322.785
322.905
323.046
323.179
323.417
314.351
314.249
314.035
313.846
313.834
313.812
313.817
313.908
313.823
313.856
313.871
313.882
313.838
313.778
313.747
313.68
313.738
313.825
313.897
314.05
304.809
304.777
304.693
304.646
304.626
304.636
304.636
304.661
304.621
304.644
304.651
304.648
304.652
304.622
304.602
304.594
304.594
304.63
304.657
304.711
374.148
373.232
372.159
371.457
371.191
370.99
371.023
370.978
370.967
370.932
370.892
370.694
370.605
370.359
370.155
370.2
370.512
370.818
371.434
372.476
363.896
363.155
362.224
361.625
361.44
361.276
361.281
361.278
361.23
361.191
361.208
361.028
360.939
360.701
360.525
360.571
360.838
361.107
361.615
362.474
353.808
353.223
352.455
351.927
351.804
351.696
351.658
351.658
351.613
351.568
351.626
351.475
351.383
351.174
351.023
351.078
351.286
351.527
351.926
352.632
343.85
343.412
342.783
342.344
342.289
342.19
342.143
342.109
342.093
342.082
342.119
342.015
341.93
341.753
341.63
341.693
341.826
342.066
342.366
342.911
333.98
333.678
333.192
332.831
332.878
332.748
332.697
332.648
332.647
332.661
332.698
332.645
332.535
332.406
332.314
332.359
332.457
332.661
332.879
333.305
324.225
324.012
323.665
323.419
323.497
323.371
323.326
323.279
323.265
323.301
323.348
323.31
323.205
323.126
323.07
323.07
323.145
323.305
323.462
323.746
314.52
314.421
314.192
314.054
314.109
314.026
313.994
313.956
313.943
313.985
314.03
313.994
313.918
313.884
313.848
313.846
313.878
313.987
314.105
314.26
304.861
304.829
304.754
304.711
304.726
304.702
304.68
304.67
304.672
304.693
304.699
304.682
304.648
304.655
304.649
304.643
304.645
304.686
304.731
304.783
)
;

boundaryField
{
    hotSide
    {
        type            fixedGradient;
        gradient        nonuniform List<scalar> 
400
(
576.961
575.989
578.138
583.332
591.276
601.54
613.664
627.227
641.885
657.368
673.479
690.08
707.083
724.441
742.143
760.208
778.674
797.589
816.99
836.892
554.297
553.528
556.095
561.903
570.595
581.659
594.569
608.86
624.158
640.185
656.739
673.685
690.942
708.474
726.281
744.396
762.877
781.792
801.194
821.11
540.155
539.883
542.908
549.129
558.187
569.576
582.771
597.304
612.799
628.969
645.614
662.596
679.838
697.308
715.014
732.997
751.322
770.062
789.279
809.005
534.023
534.52
538.06
544.538
553.646
564.955
577.996
592.339
607.623
623.565
639.962
656.677
673.632
690.798
708.188
725.843
743.829
762.214
781.057
800.393
533.842
535.266
539.405
546.149
555.246
566.344
579.053
592.994
607.835
623.305
639.206
655.406
671.831
688.459
705.308
722.424
739.869
757.709
776
794.778
537.27
539.685
544.523
551.666
560.889
571.895
584.347
597.907
612.268
627.179
642.451
657.965
673.666
689.549
705.647
722.018
738.73
755.851
773.438
791.531
542.386
545.798
551.427
559.136
568.707
579.859
592.274
605.626
619.616
634.001
648.608
663.343
678.182
693.155
708.328
723.786
739.614
755.889
772.673
790.009
547.727
552.096
558.563
566.977
577.107
588.662
601.306
614.69
628.495
642.464
656.438
670.357
684.25
698.209
712.351
726.8
741.667
757.045
773
789.576
552.15
557.358
564.63
573.798
584.618
596.77
609.875
623.528
637.35
651.049
664.468
677.596
690.541
703.474
716.583
730.041
743.986
758.523
773.722
789.624
554.755
560.578
568.488
578.312
589.793
602.582
616.248
630.311
644.308
657.889
670.891
683.361
695.496
707.56
719.811
732.464
745.681
759.571
774.204
789.615
554.908
561.008
569.243
579.442
591.34
604.57
618.662
633.078
647.289
660.891
673.713
685.842
697.542
709.138
720.934
733.171
746.02
759.594
773.961
789.152
552.349
558.31
566.46
576.626
588.54
601.823
616
630.525
644.863
658.607
671.58
683.86
695.703
707.431
719.346
731.69
744.638
758.309
772.773
788.064
547.281
552.694
560.361
570.108
581.66
594.642
608.594
623.008
637.402
651.406
664.841
677.734
690.264
702.687
715.26
728.205
741.695
755.854
770.76
786.458
540.405
544.946
551.851
560.947
571.956
584.508
598.161
612.455
626.963
641.354
655.442
669.194
682.702
696.132
709.681
723.537
737.861
752.78
768.382
784.722
532.896
536.361
542.376
550.78
561.285
573.507
587.007
601.339
616.104
630.991
645.801
660.454
674.974
689.459
704.048
718.895
734.15
749.94
766.36
783.472
526.419
528.718
533.844
541.646
551.811
563.909
577.464
592.015
607.158
622.583
638.081
653.543
668.951
684.359
699.869
715.612
731.731
748.355
765.587
783.492
523.194
524.347
528.655
535.977
545.948
558.063
571.783
586.606
602.117
618.002
634.046
650.128
666.21
682.32
698.538
714.984
731.798
749.119
767.058
785.681
525.905
526.07
529.653
536.521
546.258
558.293
572.03
586.943
602.609
618.715
635.05
651.489
667.981
684.54
701.233
718.167
735.481
753.32
771.801
790.985
536.935
536.413
539.351
545.627
554.831
566.393
579.722
594.303
609.723
625.679
641.962
658.445
675.068
691.831
708.782
726.017
743.658
761.839
780.669
800.201
556.991
556.12
558.481
563.978
572.274
582.887
595.307
609.07
623.797
639.2
655.075
671.288
687.77
704.502
721.515
738.877
756.683
775.034
794.014
813.658
)
;
    }
    coldSide
    {
        type            mixed;
        refValue        uniform 300;
        refGradient     uniform 0;
        valueFraction   uniform 0.991591;
        source          uniform 0;
        value           nonuniform List<scalar> 
400
(
300.029
300.029
300.029
300.029
300.03
300.03
300.031
300.031
300.032
300.033
300.034
300.035
300.035
300.036
300.037
300.038
300.039
300.04
300.04
300.041
300.028
300.028
300.028
300.029
300.029
300.03
300.03
300.031
300.032
300.032
300.033
300.034
300.035
300.036
300.037