/*--------------------------------*- C++ -*----------------------------------*\
| =========                 |                                                 |
| \\      /  F ield         | OpenFOAM: The Open Source CFD Toolbox           |
|  \\    /   O peration     | Version:  2212                                  |
|   \\  /    A nd           | Website:  www.openfoam.com                      |
|    \\/     M anipulation  |                                                 |
\*---------------------------------------------------------------------------*/
FoamFile
{
    version     2.0;
    format      ascii;
    arch        "LSB;label=32;scalar=64";
    class       volScalarField;
    location    "0";
    object      T;
}
// * * * * * * * * * * * * * * * * * * * * * * * * * * * * * * * * * * * * * //

dimensions      [0 0 0 1 0 0 0];

internalField   nonuniform List<scalar> 
3200
(
327.985
326.821
326.168
325.569
325.477
325.47
325.801
325.941
326.194
326.256
326.279
326.171
325.953
325.771
325.779
325.64
325.682
326.268
327.195
328.015
323.843
322.886
322.345
321.83
321.771
321.782
322.099
322.211
322.444
322.484
322.523
322.416
322.233
322.038
322.078
321.969
322.004
322.494
323.283
323.96
319.866
319.119
318.682
318.256
318.218
318.245
318.499
318.607
318.807
318.857
318.913
318.787
318.609
318.45
318.496
318.437
318.457
318.838
319.495
320.037
316.045
315.49
315.112
314.798
314.763
314.794
315.018
315.096
315.288
315.318
315.37
315.26
315.096
314.967
315.021
314.989
315.001
315.292
315.81
316.246
312.353
311.933
311.661
311.402
311.391
311.436
311.597
311.642
311.828
311.855
311.878
311.813
311.66
311.577
311.617
311.606
311.601
311.816
312.205
312.553
308.753
308.464
308.293
308.087
308.098
308.15
308.244
308.247
308.408
308.433
308.446
308.432
308.283
308.244
308.253
308.261
308.253
308.419
308.669
308.932
305.221
305.059
304.975
304.834
304.842
304.892
304.925
304.915
305.028
305.051
305.056
305.067
304.968
304.947
304.932
304.944
304.938
305.049
305.171
305.357
301.739
301.688
301.668
301.607
301.629
301.643
301.65
301.646
301.688
301.694
301.699
301.703
301.67
301.66
301.645
301.657
301.652
301.689
301.732
301.791
327.938
326.945
326.244
325.654
325.684
325.703
325.865
326.054
326.292
326.405
326.497
326.436
326.331
326.033
325.931
325.849
325.912
326.344
327.179
328.122
323.796
322.979
322.408
321.907
321.957
321.985
322.146
322.291
322.492
322.603
322.689
322.64
322.526
322.282
322.229
322.147
322.18
322.562
323.267
324.045
319.834
319.185
318.742
318.3
318.376
318.386
318.564
318.647
318.823
318.925
319.008
318.976
318.861
318.654
318.623
318.549
318.587
318.899
319.488
320.114
316.033
315.541
315.19
314.811
314.887
314.927
315.062
315.123
315.257
315.359
315.429
315.409
315.298
315.14
315.119
315.046
315.071
315.352
315.823
316.31
312.352
311.97
311.729
311.439
311.486
311.538
311.649
311.678
311.798
311.881
311.924
311.925
311.836
311.724
311.689
311.614
311.665
311.86
312.237
312.593
308.761
308.486
308.335
308.115
308.158
308.2
308.281
308.305
308.394
308.457
308.493
308.492
308.419
308.35
308.324
308.256
308.288
308.428
308.707
308.973
305.232
305.076
305
304.866
304.896
304.9
304.963
304.979
305.027
305.058
305.082
305.078
305.037
304.997
304.977
304.954
304.963
305.032
305.202
305.371
301.75
301.691
301.684
301.629
301.639
301.632
301.665
301.664
301.693
301.7
301.7
301.697
301.682
301.679
301.668
301.657
301.664
301.677
301.73
301.797
328.144
327.199
326.484
326.047
325.973
326.031
326.13
326.252
326.571
326.82
326.978
326.826
326.706
326.556
326.449
326.244
326.262
326.646
327.428
328.439
323.985
323.203
322.617
322.259
322.187
322.265
322.357
322.454
322.752
322.97
323.128
322.978
322.894
322.765
322.663
322.489
322.482
322.822
323.506
324.302
320.02
319.369
318.909
318.606
318.557
318.623
318.697
318.793
319.056
319.231
319.401
319.269
319.2
319.089
318.988
318.869
318.817
319.125
319.684
320.326
316.213
315.661
315.313
315.072
315.046
315.084
315.145
315.235
315.458
315.619
315.761
315.623
315.601
315.501
315.421
315.309
315.268
315.538
315.956
316.486
312.508
312.096
311.804
311.646
311.627
311.647
311.696
311.781
311.939
312.079
312.191
312.06
312.062
311.969
311.91
311.829
311.766
312.001
312.322
312.747
308.873
308.584
308.382
308.274
308.265
308.267
308.306
308.376
308.505
308.592
308.691
308.571
308.6
308.503
308.47
308.403
308.348
308.533
308.764
309.065
305.311
305.124
305.017
304.964
304.939
304.942
304.968
305.008
305.097
305.138
305.234
305.129
305.15
305.09
305.078
305.025
304.983
305.103
305.265
305.439
301.786
301.712
301.684
301.657
301.651
301.655
301.673
301.671
301.707
301.715
301.763
301.712
301.729
301.706
301.701
301.674
301.668
301.707
301.761
301.827
328.539
327.453
326.838
326.479
326.301
326.449
326.462
326.758
327.056
327.242
327.437
327.368
327.403
327.138
326.893
326.775
326.699
327.125
327.919
328.932
324.323
323.439
322.945
322.638
322.496
322.62
322.628
322.892
323.154
323.321
323.512
323.448
323.479
323.263
323.059
322.954
322.846
323.22
323.92
324.751
320.296
319.583
319.18
318.957
318.824
318.923
318.935
319.176
319.397
319.532
319.721
319.65
319.679
319.507
319.363
319.238
319.101
319.435
320.034
320.704
316.422
315.849
315.525
315.379
315.26
315.326
315.365
315.565
315.742
315.864
316.013
315.972
315.977
315.861
315.753
315.643
315.479
315.781
316.248
316.79
312.669
312.223
311.957
311.895
311.791
311.848
311.862
312.028
312.17
312.267
312.382
312.352
312.333
312.284
312.178
312.096
311.931
312.207
312.555
312.972
308.992
308.682
308.476
308.456
308.383
308.425
308.424
308.545
308.67
308.746
308.811
308.802
308.751
308.736
308.691
308.592
308.472
308.673
308.942
309.224
305.369
305.191
305.073
305.059
305.026
305.051
305.038
305.106
305.199
305.266
305.279
305.279
305.238
305.236
305.213
305.136
305.065
305.185
305.353
305.529
301.791
301.735
301.695
301.692
301.68
301.691
301.675
301.706
301.737
301.759
301.772
301.771
301.744
301.756
301.736
301.717
301.684
301.735
301.797
301.857
329.05
327.968
327.285
326.999
326.714
326.945
327.028
327.407
327.641
327.906
328.077
328.026
328.014
327.722
327.507
327.42
327.31
327.679
328.545
329.558
324.738
323.857
323.318
323.092
322.842
323.051
323.105
323.452
323.687
323.901
324.072
324.007
324.018
323.765
323.583
323.494
323.369
323.687
324.428
325.283
320.64
319.916
319.495
319.339
319.133
319.306
319.339
319.638
319.857
320.016
320.181
320.133
320.144
319.945
319.754
319.679
319.566
319.826
320.456
321.175
316.693
316.126
315.789
315.677
315.533
315.653
315.688
315.932
316.135
316.268
316.387
316.343
316.367
316.212
316.052
315.977
315.878
316.084
316.603
317.172
312.847
312.453
312.185
312.106
311.983
312.094
312.122
312.308
312.485
312.577
312.671
312.621
312.659
312.557
312.415
312.352
312.285
312.437
312.84
313.267
309.125
308.865
308.664
308.613
308.508
308.591
308.633
308.767
308.862
308.95
309.015
308.983
308.992
308.927
308.84
308.794
308.746
308.861
309.141
309.437
305.45
305.314
305.188
305.153
305.092
305.136
305.173
305.251
305.305
305.338
305.395
305.381
305.382
305.353
305.285
305.286
305.267
305.307
305.489
305.651
301.809
301.779
301.746
301.722
301.711
301.727
301.731
301.769
301.773
301.79
301.806
301.795
301.805
301.793
301.766
301.766
301.764
301.785
301.834
301.905
329.688
328.713
327.93
327.537
327.449
327.636
327.766
328.061
328.324
328.642
328.756
328.715
328.669
328.508
328.268
328.153
328.149
328.485
329.204
330.332
325.31
324.504
323.876
323.527
323.464
323.619
323.765
324.01
324.249
324.537
324.643
324.589
324.569
324.422
324.226
324.113
324.106
324.394
325.002
325.935
321.124
320.464
319.968
319.656
319.637
319.754
319.914
320.099
320.309
320.557
320.67
320.613
320.614
320.471
320.288
320.199
320.178
320.446
320.942
321.693
317.088
316.567
316.174
315.927
315.913
316.018
316.143
316.331
316.476
316.676
316.805
316.729
316.747
316.618
316.45
316.395
316.384
316.58
316.987
317.599
313.161
312.761
312.503
312.291
312.287
312.394
312.465
312.62
312.731
312.903
312.984
312.928
312.944
312.834
312.727
312.675
312.673
312.789
313.134
313.592
309.336
309.072
308.877
308.737
308.733
308.82
308.857
308.984
309.046
309.193
309.241
309.198
309.205
309.125
309.036
309.018
309.002
309.064
309.338
309.654
305.578
305.436
305.293
305.231
305.238
305.279
305.287
305.401
305.409
305.532
305.546
305.516
305.521
305.468
305.427
305.396
305.39
305.423
305.6
305.773
301.872
301.826
301.766
301.747
301.759
301.766
301.763
301.813
301.82
301.858
301.861
301.848
301.833
301.826
301.821
301.811
301.794
301.814
301.882
301.929
330.336
329.396
328.799
328.389
328.296
328.409
328.59
328.808
329.115
329.514
329.565
329.558
329.456
329.354
329.136
328.979
329.069
329.432
330.202
331.277
325.866
325.079
324.605
324.271
324.197
324.302
324.471
324.642
324.907
325.286
325.323
325.316
325.244
325.159
324.954
324.825
324.905
325.203
325.863
326.759
321.565
320.942
320.586
320.328
320.254
320.343
320.479
320.632
320.842
321.19
321.221
321.205
321.174
321.092
320.891
320.813
320.865
321.098
321.67
322.404
317.446
316.965
316.68
316.482
316.424
316.499
316.58
316.741
316.894
317.195
317.254
317.208
317.202
317.13
316.939
316.879
316.921
317.124
317.584
318.189
313.439
313.116
312.888
312.729
312.686
312.74
312.792
312.94
313.051
313.286
313.349
313.305
313.3
313.25
313.083
313.043
313.066
313.234
313.584
314.04
309.536
309.341
309.164
309.06
309.017
309.045
309.102
309.187
309.286
309.442
309.494
309.467
309.481
309.424
309.303
309.258
309.306
309.404
309.647
309.988
305.702
305.601
305.486
305.43
305.397
305.409
305.443
305.496
305.559
305.65
305.682
305.662
305.683
305.662
305.576
305.542
305.58
305.63
305.777
305.983
301.911
301.877
301.845
301.819
301.811
301.811
301.813
301.843
301.861
301.886
301.901
301.894
301.902
301.893
301.864
301.857
301.868
301.879
301.922
302.004
331.156
330.277
329.63
329.284
329.148
329.242
329.409
329.541
329.893
330.329
330.303
330.334
330.252
330.185
329.958
329.982
330.131
330.467
331.208
332.169
326.565
325.846
325.308
325.015
324.918
325.04
325.16
325.271
325.583
325.999
325.958
325.997
325.922
325.869
325.696
325.696
325.83
326.083
326.715
327.521
322.184
321.61
321.17
320.93
320.874
320.967
321.048
321.161
321.427
321.783
321.766
321.795
321.72
321.692
321.545
321.561
321.672
321.867
322.37
323.026
317.945
317.518
317.151
316.955
316.924
317
317.06
317.155
317.373
317.671
317.711
317.694
317.65
317.63
317.499
317.519
317.63
317.778
318.156
318.673
313.828
313.532
313.243
313.094
313.072
313.128
313.163
313.251
313.394
313.666
313.722
313.676
313.643
313.644
313.536
313.56
313.655
313.764
314.025
314.423
309.82
309.619
309.41
309.301
309.297
309.333
309.343
309.411
309.502
309.728
309.751
309.706
309.703
309.709
309.649
309.631
309.714
309.814
309.971
310.268
305.867
305.75
305.623
305.548
305.56
305.573
305.588
305.64
305.688
305.821
305.858
305.805
305.811
305.815
305.79
305.746
305.795
305.89
305.958
306.139
301.963
301.929
301.886
301.855
301.853
301.872
301.878
301.888
301.914
301.949
301.97
301.939
301.942
301.945
301.945
301.915
301.94
301.96
301.993
302.059
332.047
331.172
330.668
330.06
329.958
330.151
330.289
330.511
330.841
331.129
331.179
331.237
331.098
330.986
330.952
330.921
331.123
331.572
332.188
333.119
327.311
326.6
326.193
325.676
325.596
325.79
325.927
326.118
326.391
326.684
326.704
326.748
326.626
326.542
326.531
326.472
326.652
327.049
327.557
328.298
322.802
322.241
321.906
321.482
321.401
321.586
321.688
321.881
322.093
322.378
322.39
322.41
322.324
322.22
322.227
322.17
322.328
322.643
323.073
323.658
318.457
318.025
317.752
317.405
317.336
317.49
317.598
317.773
317.933
318.192
318.187
318.168
318.129
318.035
318.05
318.008
318.094
318.365
318.715
319.16
314.257
313.924
313.73
313.465
313.38
313.5
313.595
313.733
313.827
314.083
314.06
314.039
314.017
313.952
313.97
313.943
313.968
314.203
314.479
314.782
310.153
309.902
309.764
309.577
309.502
309.596
309.67
309.777
309.823
310.026
310.004
309.981
309.983
309.944
309.939
309.932
309.933
310.123
310.314
310.488
306.081
305.92
305.858
305.729
305.682
305.76
305.782
305.852
305.869
305.999
305.975
305.975
305.992
305.961
305.951
305.942
305.945
306.052
306.174
306.27
302.041
301.974
301.955
301.911
301.908
301.935
301.928
301.963
301.963
302.005
301.996
302.012
302.021
301.994
301.993
301.987
301.983
302.022
302.058
302.102
333.028
332.162
331.512
331.058
330.954
331.09
331.185
331.387
331.657
332.031
332.023
332.048
332.11
332.051
331.927
331.878
332.219
332.684
333.275
334.028
328.152
327.468
326.916
326.545
326.454
326.62
326.681
326.878
327.088
327.435
327.419
327.429
327.519
327.455
327.347
327.291
327.585
327.982
328.456
329.078
323.499
322.982
322.499
322.186
322.12
322.296
322.327
322.508
322.675
323.002
322.968
322.955
323.057
322.987
322.903
322.857
323.092
323.432
323.845
324.321
319.022
318.622
318.232
317.953
317.927
318.098
318.107
318.252
318.397
318.68
318.652
318.596
318.724
318.669
318.585
318.549
318.715
319.013
319.354
319.717
314.679
314.365
314.075
313.839
313.828
313.975
313.973
314.112
314.22
314.452
314.457
314.368
314.478
314.44
314.375
314.336
314.431
314.694
314.975
315.213
310.435
310.211
310.003
309.825
309.808
309.952
309.922
310.04
310.132
310.3
310.287
310.224
310.311
310.291
310.232
310.202
310.241
310.442
310.658
310.819
306.248
306.118
305.974
305.866
305.861
305.953
305.943
306.002
306.061
306.169
306.149
306.128
306.178
306.162
306.141
306.102
306.124
306.238
306.379
306.481
302.084
302.059
302.006
301.963
301.956
301.987
301.988
302.011
302.043
302.067
302.057
302.047
302.069
302.075
302.058
302.043
302.041
302.087
302.134
302.165
334.004
333.177
332.577
332.107
331.823
332.022
332.079
332.3
332.551
332.802
333.029
332.933
333.014
333.021
333.046
333.045
333.334
333.781
334.346
335.133
328.997
328.312
327.813
327.449
327.203
327.395
327.454
327.642
327.892
328.093
328.313
328.206
328.29
328.304
328.301
328.306
328.534
328.924
329.379
330.012
324.226
323.665
323.244
322.926
322.76
322.939
322.962
323.158
323.365
323.546
323.739
323.615
323.708
323.741
323.733
323.704
323.887
324.238
324.598
325.125
319.618
319.156
318.819
318.554
318.47
318.615
318.606
318.778
318.953
319.126
319.281
319.158
319.251
319.278
319.27
319.227
319.37
319.697
319.972
320.383
315.135
314.783
314.519
314.282
314.273
314.391
314.373
314.507
314.634
314.787
314.921
314.803
314.898
314.904
314.898
314.861
314.964
315.234
315.43
315.717
310.751
310.507
310.308
310.148
310.164
310.254
310.208
310.32
310.408
310.529
310.633
310.522
310.595
310.593
310.599
310.589
310.635
310.842
310.967
311.158
306.435
306.308
306.201
306.054
306.089
306.153
306.111
306.176
306.239
306.315
306.37
306.302
306.336
306.343
306.332
306.351
306.374
306.494
306.555
306.672
302.169
302.118
302.087
302.018
302.051
302.061
302.046
302.06
302.088
302.116
302.127
302.107
302.124
302.112
302.117
302.123
302.132
302.176
302.18
302.235
335.133
334.32
333.53
333.186
332.896
332.948
333.089
333.254
333.454
333.728
334.011
333.9
333.932
334.01
334.248
334.313
334.464
335.028
335.589
336.293
329.982
329.295
328.617
328.35
328.132
328.179
328.31
328.457
328.622
328.886
329.126
329.021
329.077
329.142
329.345
329.379
329.513
329.979
330.451
331.029
325.062
324.486
323.903
323.695
323.544
323.6
323.668
323.829
323.987
324.208
324.39
324.297
324.378
324.441
324.613
324.62
324.743
325.109
325.466
325.94
320.29
319.836
319.361
319.2
319.1
319.141
319.181
319.325
319.463
319.659
319.787
319.712
319.819
319.844
319.99
319.991
320.114
320.372
320.65
320.999
315.652
315.328
314.93
314.821
314.754
314.787
314.805
314.92
315.045
315.184
315.286
315.228
315.339
315.35
315.442
315.471
315.566
315.738
315.937
316.202
311.125
310.912
310.6
310.52
310.492
310.526
310.516
310.59
310.694
310.796
310.852
310.82
310.934
310.928
310.988
311.013
311.083
311.196
311.302
311.516
306.656
306.526
306.345
306.268
306.269
306.287
306.296
306.326
306.401
306.465
306.495
306.476
306.552
306.55
306.595
306.595
306.633
306.698
306.752
306.879
302.227
302.181
302.127
302.093
302.103
302.094
302.114
302.113
302.144
302.163
302.178
302.172
302.199
302.195
302.204
302.214
302.22
302.246
302.259
302.303
336.239
335.395
334.689
334.137
334.042
333.94
333.939
334.213
334.312
334.669
334.795
334.871
334.901
335.143
335.198
335.404
335.668
336.139
336.819
337.436
330.943
330.221
329.617
329.161
329.095
329.04
329.05
329.259
329.369
329.678
329.78
329.846
329.873
330.081
330.162
330.312
330.528
330.941
331.503
331.997
325.856
325.26
324.747
324.395
324.334
324.306
324.307
324.481
324.573
324.857
324.939
324.987
325.018
325.18
325.28
325.386
325.57
325.922
326.38
326.767
320.943
320.462
320.062
319.771
319.725
319.701
319.708
319.852
319.93
320.153
320.23
320.265
320.286
320.404
320.515
320.612
320.756
321.034
321.38
321.707
316.124
315.794
315.475
315.279
315.231
315.219
315.205
315.32
315.394
315.579
315.644
315.67
315.687
315.759
315.84
315.935
316.032
316.24
316.501
316.785
311.436
311.231
310.991
310.856
310.826
310.809
310.791
310.887
310.945
311.072
311.141
311.15
311.152
311.216
311.28
311.35
311.401
311.535
311.717
311.952
306.848
306.717
306.579
306.492
306.494
306.473
306.452
306.513
306.529
306.627
306.671
306.67
306.671
306.721
306.747
306.807
306.824
306.908
307.01
307.158
302.291
302.251
302.213
302.186
302.173
302.175
302.165
302.171
302.186
302.215
302.232
302.238
302.229
302.257
302.26
302.281
302.276
302.298
302.343
302.396
337.328
336.428
335.702
335.336
335.101
334.925
334.977
335.082
335.277
335.619
335.871
335.866
335.86
336.048
336.192
336.5
336.763
337.352
337.874
338.525
331.838
331.093
330.479
330.193
329.998
329.84
329.901
330.011
330.185
330.489
330.731
330.704
330.678
330.852
330.985
331.23
331.487
331.991
332.397
332.895
326.582
325.972
325.475
325.262
325.081
324.954
325.018
325.09
325.263
325.536
325.75
325.713
325.681
325.831
325.964
326.136
326.4
326.791
327.127
327.499
321.521
321.035
320.653
320.479
320.341
320.211
320.283
320.351
320.491
320.729
320.899
320.868
320.816
320.958
321.062
321.206
321.452
321.743
321.999
322.264
316.596
316.232
315.93
315.832
315.715
315.602
315.628
315.723
315.82
316.026
316.136
316.115
316.074
316.201
316.266
316.376
316.57
316.809
316.986
317.164
311.788
311.517
311.3
311.251
311.16
311.079
311.085
311.171
311.242
311.392
311.458
311.417
311.413
311.531
311.552
311.646
311.8
311.959
312.074
312.182
307.052
306.891
306.748
306.737
306.668
306.621
306.635
306.694
306.729
306.806
306.872
306.821
306.832
306.912
306.899
306.981
307.087
307.166
307.225
307.287
302.354
302.317
302.26
302.252
302.223
302.21
302.226
302.244
302.239
302.266
302.298
302.281
302.288
302.307
302.31
302.332
302.376
302.394
302.418
302.445
338.397
337.416
336.861
336.511
336.217
336.004
335.977
336.205
336.319
336.577
336.773
336.836
336.871
337.192
337.322
337.58
337.991
338.511
339.1
339.885
332.738
331.923
331.468
331.225
330.94
330.777
330.767
330.96
331.078
331.324
331.479
331.521
331.557
331.84
331.945
332.156
332.536
332.951
333.443
334.082
327.342
326.657
326.282
326.115
325.872
325.727
325.756
325.891
326.016
326.231
326.351
326.395
326.433
326.656
326.758
326.896
327.244
327.58
327.983
328.484
322.123
321.578
321.279
321.17
320.959
320.853
320.893
320.989
321.113
321.258
321.381
321.417
321.46
321.628
321.717
321.795
322.121
322.376
322.677
323.086
317.068
316.637
316.432
316.318
316.171
316.1
316.161
316.211
316.314
316.396
316.516
316.547
316.581
316.729
316.772
316.838
317.112
317.282
317.513
317.808
312.139
311.81
311.665
311.576
311.481
311.436
311.5
311.529
311.608
311.65
311.751
311.773
311.796
311.902
311.915
311.979
312.153
312.282
312.454
312.637
307.272
307.062
306.971
306.915
306.882
306.839
306.875
306.898
306.945
306.965
307.039
307.051
307.056
307.124
307.134
307.171
307.278
307.354
307.449
307.553
302.429
302.368
302.327
302.313
302.302
302.293
302.306
302.309
302.321
302.339
302.358
302.359
302.368
302.388
302.394
302.402
302.439
302.458
302.501
302.537
339.534
338.628
338.089
337.677
337.355
337.132
337.075
337.242
337.368
337.569
337.802
337.927
337.895
338.153
338.417
338.635
339.221
339.724
340.3
340.899
333.72
332.98
332.544
332.186
331.95
331.742
331.711
331.847
331.964
332.167
332.359
332.45
332.416
332.664
332.902
333.068
333.568
333.983
334.452
334.925
328.159
327.551
327.197
326.918
326.719
326.576
326.526
326.641
326.731
326.961
327.103
327.16
327.151
327.362
327.57
327.705
328.1
328.46
328.81
329.207
322.799
322.305
322.019
321.827
321.659
321.574
321.487
321.616
321.669
321.877
321.988
322.036
322.027
322.209
322.372
322.48
322.776
323.086
323.342
323.661
317.596
317.192
316.993
316.858
316.738
316.689
316.588
316.675
316.734
316.923
316.983
317.034
317.03
317.148
317.265
317.383
317.592
317.833
318.025
318.265
312.505
312.19
312.089
311.971
311.895
311.883
311.786
311.844
311.89
312.025
312.066
312.119
312.112
312.172
312.272
312.373
312.5
312.669
312.815
312.988
307.494
307.303
307.27
307.146
307.118
307.114
307.066
307.077
307.122
307.201
307.217
307.252
307.251
307.271
307.33
307.426
307.475
307.59
307.689
307.786
302.505
302.443
302.443
302.397
302.392
302.383
302.365
302.363
302.383
302.418
302.423
302.417
302.425
302.433
302.448
302.49
302.504
302.545
302.58
302.602
340.613
339.916
339.232
338.703
338.464
338.085
338.211
338.208
338.359
338.63
338.721
338.774
338.92
339.223
339.438
339.792
340.318
340.9
341.497
342.077
334.655
334.067
333.515
333.074
332.875
332.567
332.652
332.67
332.833
333.053
333.127
333.171
333.306
333.571
333.76
334.055
334.517
334.979
335.48
335.931
328.95
328.478
327.999
327.664
327.52
327.272
327.319
327.342
327.482
327.668
327.738
327.782
327.869
328.108
328.282
328.521
328.915
329.278
329.683
330.033
323.452
323.077
322.665
322.42
322.312
322.099
322.13
322.19
322.313
322.447
322.495
322.538
322.589
322.826
322.97
323.154
323.46
323.741
324.042
324.293
318.068
317.82
317.49
317.332
317.242
317.054
317.079
317.167
317.251
317.333
317.394
317.438
317.454
317.661
317.754
317.905
318.119
318.358
318.552
318.732
312.819
312.653
312.44
312.34
312.266
312.099
312.152
312.208
312.27
312.332
312.37
312.408
312.419
312.569
312.627
312.726
312.884
313.058
313.19
313.306
307.664
307.576
307.457
307.387
307.34
307.257
307.282
307.317
307.355
307.389
307.41
307.425
307.444
307.523
307.587
307.642
307.711
307.812
307.894
307.955
302.562
302.548
302.492
302.462
302.461
302.427
302.44
302.448
302.462
302.465
302.473
302.48
302.495
302.525
302.55
302.563
302.591
302.611
302.645
302.661
341.745
341.105
340.427
339.833
339.559
339.222
339.202
339.25
339.431
339.651
339.655
339.797
339.948
340.245
340.572
340.867
341.402
341.992
342.613
343.319
335.624
335.08
334.532
334.049
333.823
333.516
333.506
333.552
333.715
333.918
333.926
334.036
334.185
334.419
334.701
334.942
335.409
335.904
336.423
336.977
329.759
329.291
328.873
328.486
328.302
328.042
327.994
328.074
328.214
328.365
328.381
328.483
328.622
328.804
329.036
329.251
329.647
330.039
330.442
330.892
324.089
323.708
323.398
323.098
322.937
322.733
322.668
322.76
322.879
322.982
323.005
323.106
323.23
323.378
323.558
323.721
324.043
324.332
324.667
324.988
318.582
318.296
318.053
317.826
317.687
317.551
317.506
317.558
317.648
317.727
317.758
317.873
317.95
318.049
318.212
318.337
318.575
318.786
319.054
319.248
313.191
313.002
312.829
312.655
312.56
312.466
312.444
312.465
312.539
312.604
312.604
312.709
312.762
312.825
312.953
313.04
313.184
313.354
313.542
313.667
307.905
307.782
307.677
307.581
307.503
307.464
307.45
307.457
307.513
307.535
307.548
307.611
307.618
307.672
307.76
307.793
307.877
308
308.1
308.165
302.654
302.605
302.571
302.537
302.512
302.505
302.499
302.495
302.513
302.507
302.519
302.552
302.544
302.567
302.602
302.606
302.632
302.68
302.717
302.731
342.826
342.079
341.364
340.926
340.652
340.423
340.237
340.15
340.384
340.497
340.515
340.779
340.936
341.23
341.572
341.77
342.281
342.9
343.798
344.322
336.509
335.902
335.31
334.937
334.719
334.529
334.381
334.307
334.513
334.612
334.61
334.866
335.012
335.236
335.536
335.705
336.131
336.653
337.418
337.819
330.469
329.972
329.488
329.196
329.02
328.864
328.745
328.673
328.89
328.937
328.924
329.167
329.307
329.455
329.718
329.864
330.229
330.658
331.294
331.61
324.648
324.249
323.881
323.671
323.514
323.394
323.275
323.247
323.418
323.446
323.426
323.644
323.741
323.873
324.08
324.193
324.493
324.838
325.35
325.615
319.008
318.708
318.423
318.286
318.142
318.069
317.965
317.952
318.077
318.103
318.042
318.266
318.323
318.439
318.592
318.664
318.897
319.155
319.574
319.771
313.504
313.284
313.08
312.988
312.882
312.841
312.756
312.758
312.867
312.883
312.811
312.989
313.037
313.095
313.186
313.251
313.42
313.595
313.906
314.055
308.078
307.938
307.822
307.769
307.708
307.687
307.615
307.631
307.706
307.705
307.659
307.77
307.799
307.826
307.886
307.914
308.052
308.152
308.33
308.401
302.703
302.649
302.628
302.597
302.584
302.576
302.545
302.561
302.585
302.582
302.558
302.607
302.595
302.602
302.638
302.651
302.705
302.728
302.793
302.809
343.594
342.897
342.143
341.731
341.484
341.088
340.995
340.938
341.136
341.113
341.197
341.506
341.801
341.954
342.218
342.583
343.072
343.723
344.587
345.158
337.112
336.554
335.912
335.589
335.392
335.063
334.991
334.922
335.124
335.111
335.193
335.466
335.72
335.824
336.038
336.353
336.756
337.299
338.065
338.501
330.946
330.49
329.966
329.71
329.569
329.282
329.21
329.171
329.344
329.316
329.402
329.664
329.881
329.918
330.117
330.39
330.688
331.132
331.811
332.138
325.027
324.64
324.244
324.033
323.965
323.712
323.616
323.616
323.745
323.706
323.806
324.063
324.221
324.217
324.39
324.615
324.843
325.197
325.753
326.004
319.299
318.982
318.711
318.53
318.494
318.331
318.21
318.222
318.32
318.268
318.382
318.589
318.711
318.69
318.823
318.964
319.158
319.423
319.864
320.052
313.711
313.455
313.285
313.155
313.141
313.057
312.927
312.953
313
312.949
313.072
313.207
313.312
313.269
313.383
313.466
313.616
313.798
314.106
314.231
308.192
308.023
307.937
307.884
307.858
307.82
307.749
307.755
307.796
307.729
307.82
307.899
307.979
307.936
308.012
308.056
308.16
308.263
308.442
308.511
302.735
302.672
302.656
302.635
302.627
302.618
302.598
302.591
302.618
302.579
302.623
302.643
302.68
302.657
302.677
302.696
302.743
302.776
302.821
302.844
)
;

boundaryField
{
    hotSide
    {
        type            fixedGradient;
        gradient        nonuniform List<scalar> 
400
(
349.223
349.165
351.203
355.294
361.262
368.841
377.748
387.719
398.539
410.033
422.07
434.552
447.408
460.587
474.057
487.798
501.803
516.067
530.587
545.356
331.891
331.89
334.127
338.554
344.955
353.019
362.419
372.869
384.134
396.036
408.44
421.25
434.396
447.833
461.531
475.477
489.667
504.105
518.793
533.727
319.875
320.092
322.533
327.147
333.721
341.95
351.512
362.119
373.537
385.584
398.124
411.058
424.317
437.855
451.645
465.673
479.94
494.448
509.202
524.198
312.896
313.478
316.133
320.812
327.338
335.455
344.882
355.358
366.659
378.606
391.063
403.926
417.124
430.61
444.354
458.344
472.574
487.047
501.766
516.726
309.725
310.748
313.646
318.368
324.779
332.678
341.836
352.029
363.054
374.743
386.959
399.601
412.596
425.896
439.47
453.303
467.39
481.729
496.319
511.157
308.979
310.462
313.64
318.462
324.817
332.544
341.456
351.36
362.077
373.45
385.351
397.683
410.378
423.391
436.694
450.275
464.127
478.248
492.636
507.286
309.561
311.493
314.989
319.993
326.403
334.079
342.857
352.564
363.032
374.116
385.697
397.689
410.034
422.697
435.663
448.924
462.478
476.325
490.462
504.884
310.684
313.039
316.875
322.133
328.712
336.477
345.267
354.91
365.24
376.112
387.417
399.082
411.068
423.361
435.962
448.876
462.109
475.662
489.535
503.719
311.785
314.508
318.678
324.231
331.064
339.034
347.973
357.693
368.012
378.777
389.881
401.27
412.931
424.88
437.14
449.731
462.668
475.955
489.59
503.564
312.451
315.452
319.904
325.739
332.85
341.088
350.265
360.172
370.598
381.368
392.376
403.586
415.018
426.716
438.728
451.088
463.816
476.917
490.388
504.218
312.414
315.563
320.19
326.228
333.567
342.049
351.474
361.608
372.216
383.105
394.16
405.359
416.742
428.376
440.319
452.613
465.282
478.33
491.752
505.534
311.576
314.714
319.375
325.492
332.95
341.588
351.195
361.531
372.355
383.467
394.747
406.164
417.755
429.579
441.694
454.139
466.936
480.091
493.599
507.449
310.042
313.008
317.565
323.645
331.126
339.841
349.577
360.1
371.177
382.615
394.286
406.138
418.175
430.43
442.941
455.739
468.841
482.254
495.975
509.997
308.146
310.808
315.163
321.143
328.62
337.414
347.309
358.072
369.479
381.341
393.52
405.937
418.56
431.389
444.436
457.716
471.24
485.014
499.037
513.306
306.477
308.738
312.844
318.728
326.249
335.204
345.357
356.462
368.291
380.649
393.388
406.408
419.65
433.085
446.704
460.504
474.489
488.66
503.019
517.564
305.922
307.726
311.577
317.411
325.059
334.277
344.788
356.317
368.618
381.488
394.769
408.349
422.153
436.137
450.274
464.551
478.962
493.504
508.177
522.981
307.753
309.089
312.701
318.523
326.345
335.862
346.743
358.677
371.398
384.697
398.411
412.426
426.661
441.063
455.597
470.243
484.986
499.819
514.738
529.744
313.583
314.516
317.901
323.673
331.58
341.266
352.353
364.506
377.449
390.969
404.908
419.151
433.617
448.249
463.007
477.866
492.804
507.809
522.873
537.995
324.86
325.544
328.702
334.273
342.003
351.528
362.471
374.496
387.329
400.763
414.64
428.846
443.297
457.934
472.711
487.597
502.566
517.599
532.686
547.823
341.961
342.571
345.495
350.684
357.926
366.914
377.314
388.823
401.186
414.202
427.716
441.609
455.795
470.207
484.794
499.518
514.349
529.264
544.247
559.292
)
;
    }
    coldSide
    {
        type            mixed;
        refValue        uniform 300;
        refGradient     uniform 0;
        valueFraction   uniform 0.991591;
        source          uniform 0;
        value           nonuniform List<scalar> 
400
(
300.015
300.015
300.015
300.015
300.015
300.016
300.016
300.017
300.017
300.018
300.018
300.019
300.019
300.02
300.02
300.021
300.022
300.022
300.023
300.023
300.014
300.014
300.014
300.015
300.015
300.015
300.016
300.016
300.017
300.017
300.018
300.018
300.019
300.019
300.02
300.021
300.021