/*--------------------------------*- C++ -*----------------------------------*\
| =========                 |                                                 |
| \\      /  F ield         | OpenFOAM: The Open Source CFD Toolbox           |
|  \\    /   O peration     | Version:  2212                                  |
|   \\  /    A nd           | Website:  www.openfoam.com                      |
|    \\/     M anipulation  |                                                 |
\*---------------------------------------------------------------------------*/
FoamFile
{
    version     2.0;
    format      ascii;
    arch        "LSB;label=32;scalar=64";
    class       volScalarField;
    location    "0";
    object      stateMean;
}
// * * * * * * * * * * * * * * * * * * * * * * * * * * * * * * * * * * * * * //

dimensions      [0 0 0 1 0 0 0];

internalField   nonuniform List<scalar> 
3200
(
336.746
334.93
333.591
336.071
334.505
336.29
334.526
337.952
334.927
335.71
337.768
335.755
335.173
334.816
334.24
334.27
335.249
335.206
334.799
337.316
332.702
330.949
331.613
331.003
330.487
330.502
330.758
330.8
332.03
335.933
331.646
333.445
330.361
332.264
328.297
330.044
330.506
331.631
331.855
333.454
325.269
325.965
326.062
326.365
323.586
325.62
325.241
326.855
328.293
327.36
326.587
326.107
329.86
326.32
325.274
324.98
327.05
325.82
324.08
326.317
321.583
321.29
320.967
320.105
320.108
323.678
322.443
320.571
319.192
321.574
323.194
320.645
322.582
322.207
321.917
320.997
321.912
321.288
320.606
324.125
317.816
317.366
318.098
314.613
319.266
314.962
317.032
316.809
316.764
318.309
317.339
316.1
316.708
318.258
317.482
317.965
312.526
316.684
318.977
316.55
311.589
312.152
311.613
311.602
314.27
312.896
312.409
311.211
313.565
313.015
312.25
311.641
312.734
310.297
312.243
310.743
311.134
311.698
311.011
312.602
309.606
306.457
307.065
306.853
306.695
306.377
306.705
307.268
306.364
306.897
308.97
308.114
308.04
307.968
309.89
307.365
308.226
308.677
306.141
307.116
303.126
301.653
304.551
300.518
303.724
302.788
304.189
302.131
303.587
303.572
304.455
303.549
301.976
302.093
301.66
302.475
301.696
301.563
301.429
302.965
337.331
335.332
334.087
337.358
337.035
337.19
335.85
337.452
336.63
337.141
335.987
338.693
334.431
337.011
335.591
335.173
334.962
334.319
336.561
338.031
335.385
332.627
329.043
333.033
331.529
333.916
331.617
334.362
332.688
334.894
334.375
330.302
334.129
332.887
333.557
329.303
332.515
329.594
332.894
331.659
327.279
327.221
326.427
326.849
325.386
324.727
327.393
326.326
325.089
327.932
327.267
326.777
327.825
325.817
325.605
327.076
325.085
325.014
324.849
328.033
322.925
321.173
318.956
319.64
321.283
321.306
323.101
324.818
322.587
321.962
321.176
319.951
321.866
322.479
321.686
321.475
320.08
320.323
321.453
322.37
318.732
316.81
319.836
316.739
316.376
317.811
315.298
317.984
319.019
317.395
320.127
318.426
318.733
318.393
318.118
317.75
315.092
316.039
318.786
316.916
311.38
314.211
313.421
312.051
313.04
312.463
314.13
313.399
314.112
313.423
312.154
312.01
312.113
312.58
312.185
313.122
312.258
313.207
311.184
312.647
306.984
309.857
307.885
306.499
307.329
307.728
307.586
308.111
308.128
305.936
306.825
309.95
307.264
308.112
308.266
306.866
307.027
308.718
308.21
307.707
303.349
300.951
304.163
303.328
302.045
302.246
303.76
302.95
300.998
302.004
302.068
302.523
303.475
303.039
302.461
302.098
301.892
301.305
303.568
301.944
339.257
337.632
334.932
335.351
334.573
336.029
336.45
340.025
337.894
336.598
338.734
337.64
336.776
335.963
336.113
337.431
334.843
337.724
335.299
336.868
333.968
332.709
331.006
330.958
331.81
332.385
333.038
331.877
332.762
333.707
331.979
332.191
333.067
332.213
332.378
331.631
331.482
328.729
332.046
332.921
329.045
326.414
326.535
326.645
326.639
327.115
324.65
327.798
327.703
327.577
328.128
329.145
327.827
326.496
327.168
325.385
325.198
326.597
325.099
327.503
321.642
321.09
322.384
323.15
322.359
321.643
322.765
322.022
323.386
325.596
324.628
323.35
322.883
322.496
321.753
322.584
320.356
322.97
321.208
320.581
318.147
318.505
320.064
314.421
316.685
315.524
317.476
318.886
318.16
316.77
317.653
317.36
317.265
316.051
315.676
317.146
317.377
316.93
318.309
319.127
311.866
313.82
313.855
310.731
312.634
312.973
311.584
313.855
312.604
312.967
315.402
311.711
313.994
312.214
311.918
311.096
310.594
312.077
312.531
311.549
306.954
309.527
308.69
307.522
307.095
307.165
306.323
308.932
306.057
309.134
309.877
308.167
306.095
308.673
309.417
307.506
307.21
306.848
308.091
306.609
302.112
301.397
302.203
301.136
300.305
304.144
303.208
304.457
302.997
304.541
300.227
302.461
301.878
302.773
303.385
303.7
303.162
299.998
303.379
302.856
339.138
335.669
335.462
336.014
339.101
337.394
336.833
339.895
338.651
340.804
340.002
336.686
338.47
338.369
337.607
338.792
335.47
336.059
336.251
339.829
333.934
332.936
330.45
333.748
331.715
334.318
331.352
334.698
335.263
335.021
334.877
334.192
335.765
334.014
334.725
333.136
333.503
332.216
333.051
334.445
328.933
328.814
328.504
329.115
326.631
328.81
326.888
328.772
327.208
329.975
330.628
329.192
327.078
328.221
324.977
328.086
326.58
326.804
327.163
327.681
324.335
321.836
322.622
322.275
321.213
322.254
325.198
322.42
323.306
322.166
324.475
324.128
324.407
321.579
325.203
321.193
321.254
322.511
320.987
324.175
318.509
317.689
317.426
317.977
317.115
317.78
319.468
316.079
319.037
321.56
320.346
317.423
319.878
319.626
317.346
316.775
317.14
316.462
316.949
318.542
312.74
311.875
312.751
313.945
310.5
313.053
313.26
313.296
316.394
312.359
312.861
313.053
313.452
314.883
313.082
312.449
311.687
313.059
313.1
312.776
309.625
306.024
307.581
310.664
308.287
304.407
310.11
306.59
307.08
307.732
308.76
306.513
308.925
307.567
307.773
307.043
306.574
306.736
306.224
308.866
301.24
301.661
303.684
302.561
301.377
302.25
304.367
301.202
303.016
302.221
302.345
302.384
302.653
303.656
303.236
302.081
303.091
302.746
302.132
305.634
339.63
337.781
335.86
336.898
338.763
337.97
336.467
340.45
341.335
339.296
340.782
338.362
340.179
339.321
338.263
337.717
336.423
335.546
338.736
341.03
336.555
333.393
333.238
333.408
334.579
332.39
333.854
332.895
336.055
335.432
334.578
335.693
334.541
334.402
333.091
331.779
331.901
334.179
330.677
334.47
329.19
330.208
328.012
326.182
326.903
328.086
326.001
329.513
329.72
330.566
328.989
330.612
329.469
330.88
329.042
328.921
327.278
327.42
328.381
330.054
322.981
323.055
323.263
323.6
321.585
322.439
323.302
323.004
323.785
323.666
324.891
325.184
324.419
322.399
321.755
323.549
324.233
323.149
325.707
324.962
320.708
317.744
317.403
317.546
318.045
317.049
320.166
320.606
320.302
319.967
320.051
318.806
318.641
318.966
320.281
318.818
315.817
318.225
317.85
318.951
314.424
312.877
312.837
312.955
312.962
312.884
314.132
311.844
314.801
315.1
311.839
314.42
311.976
314.017
311.911
313.682
314.457
312.659
314.046
312.608
307.016
309.144
306.988
308.092
309.06
309.126
306.098
308.034
308.363
307.69
311.347
307.942
308.459
307.883
309.323
309.463
309.791
309.755
308.843
307.652
304.028
302.762
301.525
302.051
302.78
305.503
303.083
301.498
300.627
302.258
302.241
303.84
304.392
302.905
304.252
302.851
300.78
302.399
301.508
301.555
340.44
341.106
340.326
338.735
340.94
339.472
341.182
341.648
339.888
340.265
341.846
344.804
342.086
341.317
341.087
338.947
341.107
339.682
337.778
341.21
335.964
334.538
334.765
335.409
333.033
335.841
335.16
335.64
335.242
336.101
336.439
337.342
335.885
337.292
335.608
335.274
335.046
333.394
335.174
335.834
331.186
329.366
328.586
329.043
328.35
328.311
329.96
331.057
330.529
330.959
332.188
332.289
331.435
328.24
329.519
328.86
328.133
329.122
327.03
329.045
326.312
324.779
322.236
323.586
324.821
325.685
325.55
324.833
323.76
326.296
325.791
325.377
325.783
323.029
325.797
322.532
323.714
326.597
324.975
323.776
318.866
320.969
319.531
318.219
319.017
319.078
319.642
317.794
320.224
318.812
319.675
319.907
319.942
317.217
319.385
318.917
320.261
318.383
320.097
320.185
313.643
315.176
314.009
313.173
311.517
313.713
315.606
314.073
311.519
312.524
315.045
314.636
313.12
311.837
312.731
314.41
313.369
313.67
312.342
315.483
310.457
306.78
305.883
308.281
307.993
307.474
308.888
308.305
308.612
309.664
306.694
309.056
307.779
306.714
305.881
308.766
309.221
307.992
309.905
308.369
301
303.705
304.582
301.942
302.845
302.188
301.21
304.561
301.149
303.721
304.452
302.837
304.039
302.38
301.833
304.571
302.765
301.348
301.415
302.936
341.316
341.911
341.249
341.059
342.639
341.444
341.007
342.789
341.696
344.665
344.779
343.011
342.568
341.295
341.416
340.323
340.211
343.842
341.099
342.383
337.651
335.975
335.659
335.516
334.754
335.566
337.075
337.684
338.679
339.859
337.59
337.445
337.221
337.225
335.46
335.499
336.18
335.503
335.84
338.341
330.419
330.24
328.993
328.792
330.512
331.06
330.606
330.713
331.333
332.018
332.297
331.744
333.591
332.511
329.79
330.074
330.104
329.935
330.603
331.299
325.969
325.426
325.185
328
325.88
323.292
323.624
326.009
326.232
326.691
324.8
324.015
327.304
324.858
325.649
325.462
324.233
324.245
326.089
325.369
321.677
318.958
317.184
320.801
318.667
320.665
320.65
319.145
318.246
320.039
319.319
318.707
321.159
320.824
318.847
318.482
320.88
321.343
321.083
317.856
316.178
315.595
316.561
313.646
313.781
315.721
315.1
314.959
312.559
311.709
315.508
315.503
314.283
314.854
314.371
314.03
314.512
314.123
313.479
314.603
307.163
307.958
307.679
306.847
307.098
306.924
308.144
308.67
308.157
308.702
309.944
308.885
306.828
308.26
307.572
309.364
309.678
307.524
308.529
310.355
302.432
303.599
302.246
302.684
302.46
303.544
302.615
303.428
303.075
302.594
305.036
301.996
304.074
302.291
301.891
304.176
303.662
301.203
302.448
305.028
345.011
342.927
343.41
342.579
340.328
344.893
342.86
344.162
344.371
346.126
347.101
346.838
344.19
343.999
344.283
341.029
344.537
342.387
341.599
343.383
338.105
336.369
336.126
336.548
337.456
337.239
337.623
338.14
338.29
337.565
338.123
339.595
337.689
336.194
337.236
338.24
337.069
336.281
336.572
339.024
334.744
330.775
332.106
330.113
333.183
332.54
332.228
332.804
332.972
331.465
332.976
331.374
333.129
332.221
331.081
330.928
329.976
330.294
331.432
332.227
326.298
327.872
324.818
326.896
323.594
328.069
326.436
326.796
326.065
328.152
327.857
326.045
325.457
326.973
325.499
326.532
327.161
326.647
328.339
327.734
322.524
321.005
321.156
322.235
320.271
319.987
321.518
321.145
320.853
319.174
320.84
322.998
321.842
320.44
321.44
321.211
320.723
321.722
320.444
320.449
316.389
315.62
313.511
314.191
311.955
315.207
315.05
318.949
313.873
314.513
316.328
313.854
314.307
313.36
314.656
312.935
312.788
313.859
317.238
313.35
308.128
311.064
308.559
309.718
308.62
309.332
309.832
307.93
309.446
309.293
310.787
309.537
307.594
308.602
310.298
307.286
309.191
310.664
307.532
307.662
303.042
303.427
303.588
302.694
302.135
303.684
303.192
304.752
302.679
301.831
302.715
302.213
301.159
303.415
302.478
301.276
301.104
302.409
301.951
302.786
346.998
345.983
343.011
346.112
344.303
343.443
346.149
346.892
345.45
345.837
347.466
346.397
346.299
344.932
343.894
345.405
342.757
342.251
345.689
345.629
338.225
341.85
336.844
339.216
340.395
338.477
337.015
338.335
338.824
341.298
343.539
339.629
339.116
338.818
340.46
337.779
339.814
340.34
338.367
338.29
332.669
332.451
331.339
332.888
331.417
333.832
333.209
334.34
334.754
334.998
334.301
335.012
332.99
331.975
333.124
331.315
331.123
331.436
333.292
332.649
328.825
326.937
326.796
327.446
326.672
326.254
327.747
329.319
326.285
326.516
328.222
329.631
327.539
326.245
326.443
327.896
325.907
328.008
328.001
328.252
323.005
320.404
320.208
322.109
320.689
319.637
321.039
323.644
323.33
323.265
322.109
319.346
322.976
325.515
321.886
320.924
319.455
320.46
320.885
322.411
314.407
314.852
313.991
313.768
314.478
313.611
315.683
314.308
314.01
316.145
314.449
315.945
314.28
314.032
312.83
315.084
316.15
315.044
314.99
313.951
309.413
310.565
308.204
308.066
309.68
309.774
309.515
309.096
309.922
307.296
309.724
308.441
310.086
309.005
309.476
309.28
309.42
308.496
308.504
308.965
303.005
302.778
301.663
303.665
302.783
302.35
302.338
305.605
304.034
303.102
303.971
302.928
303.755
301.37
302.297
304.085
302.828
302.745
303.969
304.154
347.774
346.891
342.914
347.56
345.002
344.661
345.528
348.076
346.676
347.733
349.367
346.043
345.685
348.546
346.236
346.727
346.569
346.402
347.485
347.639
340.473
338.948
339.032
338.98
341.674
339.682
339.48
340.125
342.251
339.903
340.444
343.405
339.824
340.882
339.621
339.874
339.372
338.968
338.798
341.481
332.941
335.418
336.093
334.152
334.775
335.54
335.43
335.64
335.579
335.593
333.902
334.33
335.344
335.004
333.899
334.418
333.73
334.852
333.957
335.026
328.888
329.842
331.574
328.381
328.104
327.641
326.8
330.005
328.59
326.636
329.545
331.112
327.677
328.829
329.247
328.301
329.078
329.103
328.158
328.159
321.087
321.885
320.728
321.862
322.281
320.972
322.593
322.941
324.017
321.517
322.357
321.371
322.502
320.989
322.875
321.086
321.558
322.608
320.741
322.595
317.533
315.929
315.147
317.677
315.281
315.595
314.272
317.512
316.284
314.999
315.954
316.295
316.197
314.154
316.198
314.411
315.531
315.873
315.451
315.778
308.242
308.755
310.165
308.876
309.927
309.179
307.807
310.706
307.537
311.604
311.224
308.903
308.696
310.419
310.956
309.226
308.019
307.9
307.712
308.227
302.517
302.343
305.225
301.635
303.201
304.334
304.179
303.708
304.101
304.201
302.814
305.068
300.911
301.468
302.522
303.312
303.06
303.949
303.947
303.708
349.526
347.186
349.286
348.763
347.216
348.563
348.02
349.522
349.86
349.55
348.429
347.473
349.913
348.558
348.907
348.059
347.142
347.32
348.004
348.966
342.24
340.267
340.064
340.152
342.998
340.78
341.986
341.543
344.021
341.368
341.115
343.615
341.485
342.289
340.942
342.227
340.569
341.918
339.797
341.609
336.969
335.351
338.147
335.186
335.557
335.574
335.707
336.329
336.55
337.526
336.622
335.772
334.669
338.874
337.901
335.001
335.686
336.595
338.009
336.69
329.002
329.209
328.473
329.157
329.345
328.417
327.107
329.963
329.856
329.349
329.746
330.472
332.942
330.242
328.583
329.959
328.969
330.475
327.949
330.474
322.977
321.244
325.144
321.024
324.092
322.023
323.5
324.283
322.413
321.771
320.716
323.489
324.083
324.253
323.558
320.402
323.333
322.03
324.183
323.938
316.493
316.665
315.018
315.108
315.835
314.976
314.583
317.993
316.705
316.79
316.422
318.422
316.454
317.214
316.828
316.358
315.462
318.236
316.082
317.711
311.235
310.346
310.172
310.985
309.733
310.606
308.67
309.477
312.253
311.949
311.187
309.477
310.397
310.141
307.89
308.945
309.89
310.722
310.538
306.91
304.412
304.103
302.479
301.601
303.119
303.364
304.903
303.384
302.517
301.567
301.674
302.694
302.855
304.972
303.697
304.266
303.101
303.133
303.93
304.216
352.988
351.034
349.435
352.298
348.288
347.774
347.888
349.053
348.221
350.348
352.076
350.119
351.296
350.591
352.628
349.214
348.744
349.781
350.058
351.474
344.648
345.411
345.062
343.612
343.012
342.449
342.667
343.101
342.824
344.127
345.796
345.735
343.936
344.544
344.543
343.577
342.719
342.91
343.364
342.752
337.793
337.05
338.315
337.298
337.291
337.314
338.123
337.039
337.258
338.224
336.332
340.04
338.609
338.087
337.279
338.865
338.618
337.843
335.406
336.077
333.004
328.323
330.836
328.212
329.988
330.337
331.656
330.677
330.786
331.326
331.809
330.593
331.846
329.363
331.432
331.645
329.585
331.89
331.363
330.562
325.761
325.498
325.874
320.996
325.46
322.712
323.94
324.395
323.55
324.203
324.53
323.173
323.695
322.362
324.193
323.965
321.454
322.632
322.321
323.275
316.354
316.712
318.395
317.641
317.187
316.75
315.825
317.357
317.519
316.794
315.635
316.71
317.068
317.043
317.758
316.191
314.917
316.413
318.47
320.014
313.276
311.143
312.254
309.65
310.025
310.809
310.094
310.235
310.768
310.549
312.724
310.638
310.331
309.392
313.194
308.094
310.625
311.188
309.457
309.824
304.443
303.994
302.757
302.707
302.451
302.711
303.628
305.237
304.534
302.398
303.426
302.475
303.004
302.613
303.828
304.478
302.696
302.235
303.754
303.589
353.226
355.467
353.124
353.554
350.894
351.498
354.046
352.07
353.184
350.901
352.123
352.655
351.479
350.251
351.865
349.636
353.058
350.273
350.691
352.116
346.102
343.464
345.709
343.901
345.177
343.868
344.374
343.701
342.436
344.245
344.154
346.368
344.487
344.275
343.746
346.192
343.412
345.669
343.354
345.496
340.172
339.479
337.926
337.095
338.417
337.166
338.419
339.845
338.711
339.068
338.983
340.056
340.146
338.479
339.574
337.782
336.479
337.769
339.001
338.474
332.455
330.321
331.045
333.525
330.22
330.357
330.514
331.12
332.967
333.958
330.696
331.918
331.003
333.324
330.608
330.683
330.83
331.673
332.847
332.238
327.36
325.103
324.464
323.961
323.117
325.118
324.358
323.845
322.615
325.426
326.006
325.022
323.207
324.103
323.952
322.961
323.001
324.647
322.101
325.807
317.946
319.078
318.424
318.646
317.332
315.82
317.925
316.152
317.392
317.073
318.87
316.333
317.043
317.891
317.54
316.99
316.147
319.715
316.842
319.032
311.678
311.223
312.473
310.2
311.332
310.396
310.679
310.534
310.318
310.75
308.355
312.109
311.484
312.211
310.825
312.084
310.823
311.255
308.902
310.523
303.735
304.748
304.19
304.878
301.382
304.715
302.223
302.309
302.203
303.818
303.214
304.214
304.066
305.021
304.449
302.301
303.246
304.633
303.217
303.805
355.533
354.56
353.138
352.507
352.862
353.977
352.397
353.925
353.672
354.659
353.319
354.745
353.916
353.785
356.283
352.131
351.818
353.381
353.044
355.208
348.511
350.233
348.396
346.04
346.208
345.174
346.01
345.633
346.101
348.684
347.352
346.662
345.517
346.221
345.224
346.726
346.051
346.231
348.522
346.918
341.441
341.263
341.307
339.803
339.902
340.372
338.536
339.432
338.259
341.74
341.615
338.778
341.038
338.668
338.227
339.637
337.095
340.531
340.318
340.596
331.46
332.877
330.669
331.135
334.002
333.737
332.316
332.676
332.254
329.066
332.48
332.109
333.407
331.907
331.233
333.209
333.804
334.123
332.137
331.268
325.964
325.927
325.498
325.611
326.043
326.678
324.961
325.116
325.379
326.698
325.63
328.265
322.659
326.784
326.505
324.904
325.727
327.023
324.347
328.119
318.881
319.136
317.307
318.299
318.855
319.773
317.563
318.486
318.311
316.77
319.542
317.933
316.687
316.926
317.972
317.886
318.557
315.905
320.511
318.631
311.948
311.279
312.862
311.312
309.696
309.511
309.734
310.853
312.244
310.468
310.765
310.452
312.738
311.993
310.122
309.402
310.883
310.707
310.547
311.579
305.47
302.64
304.97
303.269
301.519
301.272
302.3
303.808
301.786
304.192
302.498
304.982
303.943
303.221
305.462
303.161
303.69
302.09
304.509
302.972
356.813
355.136
352.592
355.121
352.186
356.377
355.61
355.538
354.134
355.673
353.078
357.944
354.445
353.785
355.323
357.206
353.876
354.978
355.994
353.489
348.2
347.235
346.546
346.861
347.324
347.175
347.594
347.213
350.688
348.407
346.891
348.951
346.902
347.592
347.246
345.772
347.328
346.97
346.825
347.544
340.082
340.601
341.173
339.614
339.192
341.497
341.194
340.819
341.625
339.269
342.08
338.443
341.815
341.643
341.057
338.743
340.432
339.077
341.735
341.787
333.083
333.512
333.744
331.749
335.91
333.247
332.662
335.741
332.482
333.05
334.237
335.986
335.056
334.252
332.909
331.831
333.997
333.738
333.314
334.651
328.081
328.422
326.581
327.072
324.557
325.914
324.566
324.789
326.028
325.072
323.838
326.863
322.825
326.061
325.54
326.143
326.529
324.169
324.098
325.847
320.496
319.268
317.413
316.384
318.89
316.557
318.563
318.559
317.426
319.74
319.104
319.812
318.525
317.876
318.277
316.985
317.987
317.111
320.646
320.577
313.894
311.521
310.823
311.445
310.697
312.408
310.014
309.78
311.862
312.274
310.632
311.286
311.743
310.462
311.403
310.002
310.178
310.075
311.887
311.173
304.498
303.479
303.52
304.89
303.347
303.233
304.883
303.982
304.928
301.997
302.603
299.021
306.836
301.962
300.985
305.168
303.225
303.29
305.619
305.379
359.813
357.808
359.952
359.776
356.221
356.42
355.417
356.599
355.685
359.166
356.165
356.349
356.143
356.687
356.623
355.435
355.57
357.688
359.052
360.682
352.126
351.093
349.277
349.984
349.739
349.556
349.451
348.797
349.369
348.322
350.958
349.595
347.394
348.729
348.966
349.006
349.532
350.836
350.438
350.986
344.757
347.225
341.843
342.898
341.623
342.575
340.266
341.46
342.508
341.436
342.542
344.221
340.359
341.583
342.287
342.479
339.896
342.179
343.308
343.097
336.348
337.501
334.039
333.75
332.398
335.662
334.823
333.047
333.883
335.202
334.772
333.996
335.156
333.713
332.984
333.318
334.104
333.326
333.174
335.098
327.279
326.903
327.897
327.058
327.441
324.496
326.34
325.634
328.356
326.315
326.85
328.626
325.377
327.434
327.259
326.408
326.641
327.867
326.718
326.648
318.433
321.026
319.646
319.444
317.763
319.971
320.606
319.163
318.783
315.757
319.982
320.787
317.776
318.16
319.87
318.922
318.511
318.485
317.335
319.148
310.027
311.926
311.526
312.504
311.64
310.385
312.455
310.336
311.231
311.746
310.892
312.74
311.659
311.76
312.139
312.5
314.543
312.432
313.236
311.01
305.558
303.693
303.884
302.805
304.113
303.704
304.43
301.048
305.37
300.87
305.123
305.111
302.045
303.292
303.32
302.411
305.369
305.349
304.431
305.588
359.683
360.152
357.925
358.924
357.214
359.605
358.548
357.352
359.228
359.272
358.551
360.34
357.527
357.272
357.344
358.886
356.392
356.123
360.453
359.511
354.509
351.277
353.294
351.294
351.322
351.61
350.79
351.427
351.833
351.454
352.046
348.417
351.656
351.557
351.099
352.252
350.949
350.582
351.746
353.031
344.586
345.089
343.893
344.211
343.204
343.917
343.44
343.876
345.084
342.009
343.919
345.397
343.703
344.773
342.906
342.987
343.713
343.997
343.868
346.261
337.861
335.522
334.247
335.259
333.971
334.354
334.776
335.319
334.712
334.266
333.486
334.391
334.701
333.719
334.341
336.406
333.535
336.171
338.277
336.754
327.276
328.864
327.81
326.951
324.247
327.688
328.918
327.684
326.108
326.258
327.555
327.23
328.531
326.492
327.125
326.98
324.776
327.485
328.432
328.78
322.161
321.775
322.076
320.331
319.141
320.646
321.665
321.118
319.909
320.024
322.433
320.914
321.328
321.718
318.505
320.954
318.322
322.623
318.294
319.672
312.919
313.103
311.949
314.715
310.989
312.535
311.048
312.588
310.098
311.711
310.561
312.468
310.386
312.486
312.089
311.66
312.997
312.409
311.06
312.265
305.471
304.811
304.838
304.385
305.668
303.356
305.457
304.171
305.143
305.344
302.507
305.022
303.078
303.556
304.313
305.449
303.313
302.092
304.425
302.256
363.393
363.053
358.369
362.638
360.3
358.801
359.121
359.776
359.116
360.009
359.843
359.55
360.48
360.641
361.975
358.248
359.097
363.091
359.071
361.194
356.5
353.998
353.291
354.758
350.861
351.611
351.631
351.13
353.753
352.831
352.349
351.581
352.148
351.458
352.637
351.276
351.76
352.408
355.312
353.43
346.614
345.537
343.581
344.998
346.042
345.523
343.184
346.095
344.839
342.948
344.941
344.671
344.972
343.914
344.284
344.983
343.917
344.555
344.881
345.089
337.629
340.609
337.858
337.789
336.244
337.799
335.936
337.537
337.02
337.711
337.44
336.174
336.546
334.821
335.765
337.812
336.637
335.949
337.671
336.929
330.286
329.383
328.966
328.378
327.239
328.308
329.05
328.91
328.36
329.159
327.045
328.872
328.765
327.183
327.709
328.452
327.875
329.659
330.132
328.738
320.583
320.22
320.747
318.681
319.814
321.421
321.362
321.47
322.084
321.24
318.482
321.626
322.093
319.951
321.094
321.354
318.762
320.372
320.532
320.077
311.782
311.078
310.826
313.153
313.687
311.728
310.294
313.034
314.043
311.974
311.2
313.422
312.9
313.121
312.568
310.085
310.573
311.682
311.554
310.424
304.488
302.057
304.539
304.583
304.789
302.98
303.529
303.49
302.855
304.713
304.337
304.233
305.372
304.797
303.849
305.574
304.664
304.217
303.473
303.351
365.022
361.205
362.828
362.193
359.48
363.594
359.767
360.145
360.336
361.819
362.245
362.352
361.39
360.121
362.48
360.93
362.487
363.38
361.997
363.753
357.348
355.15
354.206
355.59
353.311
355.164
353.117
355.89
352.285
355.228
356.187
353.279
355.232
351.247
355.679
355.587
355.944
355.219
355.403
356.453
347.154
344.234
348.177
344.495
347.375
343.694
345.65
345.863
345.187
344.747
346.193
346.611
345.087
343.965
345.255
346.242
345.498
345.721
346.281
348.924
338.456
341.909
338.319
338.367
337.16
334.475
341.069
337.065
336.337
337.815
334.362
336.759
334.019
335.805
337.258
336.529
336.98
336.789
338.691
338.885
329.565
328.604
330.689
328.077
330.214
329.667
329.008
329.869
327.997
329.376
330.18
328.326
327.825
328.516
325.773
329.353
328.131
327.843
329.485
330.602
320.507
320.801
320.58
319.48
321.521
322.942
320.567
320.252
321.758
320.036
320.349
318.74
320.652
320.326
320.015
318.84
320.226
321.441
319.708
320.424
312.469
311.652
313.769
313.087
312.837
312.159
311.825
312.248
312.264
311.908
312.497
311.329
312.593
311.343
310.902
311.149
313.229
311.892
311.623
314.135
304.603
304.544
304.767
303.167
303.818
303.844
304.349
304.293
303.125
303.305
304.591
303.579
301.852
302.552
303.918
303.78
301.314
304.044
302.782
305.235
366.419
366.485
364.528
363.345
362.707
361.179
363.979
364.985
362.977
361.824
361.609
364.25
362.891
361.997
364.004
360.727
362.691
364.272
363.416
361.162
357.884
356.979
355.23
353.933
356.99
354.992
355.83
353.719
355.061
354.648
355.4
353.949
353.134
353.829
354.87
355.025
355.295
356.003
356.206
358.236
347.935
346.156
347.265
344.178
347.354
345.356
346.635
345.753
344.813
345.595
346.511
347.211
346.705
346.622
345.409
344.81
346.466
346.196
345.514
346.916
340.953
339.035
337.35
337.405
338.146
336.48
336.524
338.748
336.908
336.753
338.397
338.285
335.034
338.402
337.36
338.541
339.375
338.238
338.416
340.831
329.615
330.638
331.24
331.864
328.978
329.664
328.388
329.28
328.708
328.135
328.195
329.647
330.918
328.517
330.388
329.256
329.555
329.487
332.053
331.163
323.222
320.747
322.916
321.258
321.859
323.781
320.356
320.34
323.028
319.865
318.934
321.535
321.397
321.05
321.474
320.518
320.716
320.539
321.279
323.206
313.902
314.615
312.689
311.632
312.676
313.402
312.396
312.261
312.828
312.131
312.32
313.467
312.051
310.842
311.623
310.566
315.217
314.673
315.314
314.434
304.698
305.801
304.093
303.522
304.983
304.363
303.02
303.989
304.883
304.141
302.746
305.684
302.641
303.071
304.625
303.982
304.476
302.869
303.482
302.78
)
;

boundaryField
{
    hotSide
    {
        type            fixedGradient;
        gradient        nonuniform List<scalar> 
400
(
321.511
322.87
325.591
329.677
335.133
341.965
350.181
359.788
370.794
383.208
397.037
412.289
428.971
447.088
466.647
487.651
510.105
534.011
559.372
586.191
323.738
325.08
327.767
331.802
337.194
343.949
352.078
361.591
372.498
384.81
398.537
413.687
430.268
448.289
467.755
488.672
511.043
534.872
560.161
586.913
326.149
327.47
330.116
334.091
339.406
346.071
354.099
363.503
374.296
386.491
400.101
415.136
431.606
449.52
468.885
489.706
511.988
535.735
560.948
587.63
328.704
330
332.597
336.503
341.73
348.292
356.205
365.485
376.15
388.215
401.695
416.604
432.954
450.753
470.009
490.73
512.919
536.579
561.714
588.325
331.33
332.599
335.142
338.97
344.099
350.546
358.332
367.477
378.003
389.928
403.271
418.047
434.27
451.949
471.095
491.712
513.807
537.382
562.439
588.978
333.918
335.158
337.643
341.389
346.414
352.74
360.392
369.397
379.779
391.562
404.765
419.407
435.503
453.065
472.101
492.618
514.622
538.114
563.096
589.569
336.321
337.531
339.959
343.622
348.544
354.751
362.274
371.142
381.385
393.031
406.101
420.618
436.595
454.047
472.983
493.409
515.33
538.747
563.663
590.076
338.36
339.543
341.92
345.509
350.339
356.44
363.847
372.595
382.718
394.244
407.2
421.608
437.485
454.844
473.695
494.045
515.897
539.253
564.114
590.478
339.852
341.015
343.352
346.885
351.645
357.665
364.985
373.643
383.675
395.113
407.984
422.312
438.116
455.407
474.197
494.491
516.294
539.606
564.428
590.758
340.643
341.795
344.11
347.613
352.334
358.311
365.584
374.193
384.176
395.567
408.393
422.679
438.443
455.699
474.456
494.722
516.498
539.788
564.589
590.901
340.643
341.795
344.11
347.613
352.334
358.311
365.584
374.193
384.176
395.567
408.393
422.679
438.443
455.699
474.456
494.722
516.498
539.788
564.589
590.901
339.852
341.015
343.352
346.885
351.645
357.665
364.985
373.643
383.675
395.113
407.984
422.312
438.116
455.407
474.197
494.491
516.294
539.606
564.428
590.758
338.36
339.543
341.92
345.509
350.339
356.44
363.847
372.595
382.718
394.244
407.2
421.608
437.485
454.844
473.695
494.045
515.897
539.253
564.114
590.478
336.321
337.531
339.959
343.622
348.544
354.751
362.274
371.142
381.385
393.031
406.101
420.618
436.595
454.047
472.983
493.409
515.33
538.747
563.663
590.076
333.918
335.158
337.643
341.389
346.414
352.74
360.392
369.397
379.779
391.562
404.765
419.407
435.503
453.065
472.101
492.618
514.622
538.114
563.096
589.569
331.33
332.599
335.142
338.97
344.099
350.546
358.332
367.477
378.003
389.928
403.271
418.047
434.27
451.949
471.095
491.712
513.807
537.382
562.439
588.978
328.704
330
332.597
336.503
341.73
348.292
356.205
365.485
376.15
388.215
401.695
416.604
432.954
450.753
470.009
490.73
512.919
536.579
561.714
588.325
326.149
327.47
330.116
334.091
339.406
346.071
354.099
363.503
374.296
386.491
400.101
415.136
431.606
449.52
468.885
489.706
511.988
535.735
560.948
587.63
323.738
325.08
327.767
331.802
337.194
343.949
352.078
361.591
372.498
384.81
398.537
413.687
430.268
448.289
467.755
488.672
511.043
534.872
560.161
586.913
321.511
322.87
325.591
329.677
335.133
341.965
350.181
359.788
370.794
383.208
397.037
412.289
428.971
447.088
466.647
487.651
510.105
534.011
559.372
586.191
)
;
    }
    coldSide
    {
        type            mixed;
        refValue        uniform 300;
        refGradient     uniform 0;
        valueFraction   uniform 0.991591;
        source          uniform 0;
        value           nonuniform List<scalar> 
400
(
300.026
300.028
300.018
300.01
300.034
300.008
300.02
300.026
300.025
300.021
300.037
300.037
300.031
300.046
300.038
300.047
300.046
300.038
300.039
300.04
300.014
300.008
300.012
300.014
300.023
300.031
300.03
300.029
300.023
300.02
300.035
300.034
300.04
300.022
300.029
300.031
300.04
300.017