/*--------------------------------*- C++ -*----------------------------------*\
| =========                 |                                                 |
| \\      /  F ield         | OpenFOAM: The Open Source CFD Toolbox           |
|  \\    /   O peration     | Version:  2212                                  |
|   \\  /    A nd           | Website:  www.openfoam.com                      |
|    \\/     M anipulation  |                                                 |
\*---------------------------------------------------------------------------*/
FoamFile
{
    version     2.0;
    format      ascii;
    arch        "LSB;label=32;scalar=64";
    class       volScalarField;
    location    "0";
    object      relativeErrorField;
}
// * * * * * * * * * * * * * * * * * * * * * * * * * * * * * * * * * * * * * //

dimensions      [0 0 0 1 0 0 0];

internalField   nonuniform List<scalar> 
3200
(
0.00128491
0.00405636
0.00593623
0.00765951
0.00882072
0.00904096
0.00947707
0.00941668
0.00944547
0.00929192
0.00947437
0.00912167
0.00893847
0.00904084
0.00875061
0.00839302
0.00763916
0.00663754
0.00439107
0.00256043
0.00105773
0.00313806
0.00536737
0.0069152
0.0074134
0.00792142
0.00814625
0.0085642
0.00849897
0.0080576
0.00820063
0.00783107
0.00784141
0.00784377
0.00748921
0.0073234
0.00664597
0.00563939
0.00399361
0.00215954
0.0009348
0.0025509
0.00432944
0.0055188
0.00618497
0.00661823
0.00662526
0.00687452
0.00679917
0.00704709
0.00669895
0.00643252
0.00648602
0.00640235
0.00638653
0.00607792
0.00550424
0.00477828
0.00309879
0.00176588
0.000466472
0.00192554
0.00322824
0.0044592
0.00503629
0.00545182
0.0054794
0.00548607
0.00573225
0.00585104
0.00543286
0.00551431
0.00511947
0.00523555
0.00516964
0.00491216
0.00445863
0.00375651
0.00259644
0.00136344
0.000518491
0.00135899
0.00291586
0.00340014
0.00372833
0.00404107
0.00437522
0.00416406
0.00447802
0.00440501
0.00403388
0.00408759
0.00423319
0.00407897
0.00392048
0.00371756
0.00342534
0.00293179
0.0019942
0.00100046
0.000330978
0.00108259
0.00170453
0.00255973
0.00287211
0.00298093
0.00316487
0.00299051
0.00299521
0.00319012
0.00305526
0.00286641
0.00315177
0.00285213
0.00281644
0.0028452
0.00269554
0.00199418
0.00132038
0.000621402
0.000146577
0.000583771
0.00132041
0.0015175
0.00178974
0.001666
0.00186015
0.00212568
0.00172433
0.0018243
0.00193447
0.00191497
0.00182874
0.00188468
0.0018214
0.00164999
0.00140198
0.00157381
0.000808967
0.000337484
3.82775e-05
0.000126314
0.000401542
0.000653223
0.000560889
0.000636137
0.000745925
0.000632396
0.000592652
0.000576788
0.000807485
0.000563318
0.000555647
0.000574095
0.000669524
0.00064651
0.000570096
0.000524345
0.000200479
0.000265505
0.00127531
0.00385238
0.00594978
0.0074569
0.00845051
0.0087956
0.0090629
0.00895862
0.00896797
0.00890006
0.0085024
0.00822355
0.0083312
0.00848291
0.00826628
0.00843664
0.00759357
0.00641741
0.00432737
0.00241027
0.00119239
0.00301189
0.00520601
0.00650028
0.00703436
0.00788514
0.00766308
0.00787431
0.00770202
0.00757728
0.00736337
0.00744159
0.00719226
0.00715371
0.00730304
0.00710076
0.00658307
0.00553669
0.00371942
0.00185064
0.000870438
0.00242885
0.00414915
0.00537651
0.00583354
0.00636341
0.00636785
0.00618451
0.00653867
0.00638081
0.00622424
0.00611099
0.0062249
0.0059003
0.00608277
0.00576713
0.00563761
0.00450371
0.00337889
0.00191382
0.000812575
0.00205289
0.00337759
0.00440298
0.00465073
0.00525881
0.00537832
0.0056471
0.00557055
0.00506617
0.00519323
0.00494107
0.00498241
0.00496354
0.00502852
0.0051848
0.00456599
0.00373274
0.00273118
0.00143321
0.000605177
0.00131817
0.00238378
0.00346641
0.00349995
0.00387131
0.00393344
0.00421027
0.00404312
0.00432858
0.00401089
0.00393622
0.00394526
0.00382565
0.00387539
0.00377636
0.00354794
0.00277328
0.00226703
0.00120507
0.000394195
0.00108363
0.00193027
0.00239101
0.00253158
0.0031169
0.00288008
0.00302778
0.0028973
0.00279508
0.00275895
0.00315187
0.00280882
0.00292437
0.00283892
0.00279859
0.00234163
0.00202967
0.0014474
0.000776232
0.000428724
0.000675287
0.00106129
0.00146737
0.00154158
0.00185904
0.00162258
0.00191371
0.00200918
0.00188407
0.00159591
0.00186303
0.00175977
0.00198011
0.00162735
0.00192632
0.00163817
0.00148691
0.000898996
0.000519593
9.216e-05
0.000205372
0.000363988
0.000310075
0.000625117
0.000549837
0.000652794
0.000511196
0.000961511
0.000676298
0.000608196
0.000604885
0.00045928
0.000584037
0.000714023
0.000606987
0.000444804
0.000183509
0.000362575
0.000220232
0.00142478
0.00361585
0.00572967
0.00702093
0.00801947
0.00835292
0.00845705
0.00831579
0.00822464
0.00793635
0.00757479
0.0074654
0.00759854
0.00783487
0.00756963
0.00766253
0.00720792
0.00628906
0.00435133
0.00231834
0.00110267
0.00303308
0.00493239
0.00620959
0.00688657
0.00695859
0.00713386
0.00724988
0.00696226
0.00677168
0.00666343
0.00640057
0.00680787
0.00668303
0.00666718
0.00665781
0.00619324
0.00539629
0.00397277
0.00215772
0.000748422
0.00241131
0.00412214
0.00510457
0.00570635
0.00609989
0.00625654
0.00607519
0.00596451
0.00569614
0.00553192
0.00553299
0.00553102
0.00552789
0.00577904
0.00571091
0.00530147
0.00480664
0.00295276
0.00173688
0.000565669
0.00211637
0.0031267
0.00416354
0.00476914
0.00484396
0.00487474
0.00505864
0.00488751
0.00474593
0.00451725
0.00440572
0.00457286
0.00433513
0.00475354
0.004767
0.00429477
0.00363224
0.00240245
0.00131386
0.00061175
0.00145572
0.00237886
0.0034547
0.00374993
0.00375807
0.00363145
0.00391674
0.00370437
0.00360602
0.00346058
0.00360941
0.00325953
0.00393269
0.00361557
0.0034093
0.00330464
0.00297332
0.00204372
0.000973463
0.000393954
0.00104088
0.00190647
0.00211231
0.00258266
0.00246262
0.00286961
0.00272898
0.00259544
0.00279337
0.0024732
0.00257442
0.00251822
0.00280089
0.00248835
0.00242774
0.00263491
0.00185327
0.00155714
0.000719957
0.000183465
0.000691219
0.0011499
0.00141823
0.00150794
0.00141829
0.0016985
0.00139978
0.00180166
0.00176829
0.0013692
0.00153611
0.00141528
0.00149563
0.00175177
0.00152609
0.00142013
0.00123722
0.000995813
0.00035212
3.85795e-05
6.58649e-05
0.00059862
0.000567743
0.000543278
0.000347734
0.000694232
0.000628018
0.000587491
0.000421754
0.000588979
0.000630746
0.000623059
0.000454623
0.000432765
0.000327004
0.000357771
0.000228564
0.000410541
0.000183083
0.00111481
0.00346462
0.00535659
0.00692896
0.00742797
0.00814085
0.0074444
0.00752256
0.00714963
0.00677658
0.00645673
0.00649321
0.00650423
0.00656742
0.00694736
0.00704962
0.00664542
0.00574541
0.00431745
0.00232576
0.00112763
0.002796
0.00447734
0.00583022
0.00646098
0.00644921
0.00671014
0.00653453
0.00602791
0.0061337
0.00573343
0.00556143
0.00555546
0.00587512
0.00598027
0.0059925
0.00562469
0.00496907
0.00369723
0.00189414
0.000619346
0.00229407
0.0037211
0.00470473
0.00534685
0.00561479
0.00592306
0.00552642
0.00537505
0.00480595
0.00481537
0.00452015
0.00487074
0.00507959
0.00517753
0.00497684
0.00478657
0.00421043
0.00307017
0.00176067
0.000510715
0.00163888
0.00311343
0.00382895
0.00432876
0.00451428
0.00437092
0.00431389
0.00440987
0.00400626
0.0042177
0.00379809
0.00356257
0.00400397
0.00420456
0.00427716
0.00408899
0.00351606
0.00225557
0.00123583
0.00040948
0.0013856
0.00220009
0.00309929
0.00358665
0.00360883
0.00345755
0.00347453
0.00315009
0.0030724
0.00317267
0.00287512
0.00305245
0.00330805
0.0032899
0.00328801
0.00316598
0.00259807
0.00187827
0.000975732
0.000134877
0.000916768
0.00142244
0.00220584
0.00241378
0.0028251
0.00253465
0.00233528
0.00251278
0.00227989
0.00214143
0.00232096
0.00192589
0.00210208
0.00231682
0.00246561
0.00223006
0.00204764
0.00152344
0.000750359
9.3119e-05
0.000430184
0.0010659
0.00126862
0.00136354
0.00157006
0.00159443
0.00156962
0.00135465
0.00148794
0.00123241
0.00147587
0.0013906
0.00145519
0.00144656
0.00127476
0.00109915
0.00118437
0.000655357
0.000590549
7.98882e-06
4.59633e-05
0.00039344
0.000519348
0.000330591
0.00057041
0.000394095
0.000618123
0.000711405
0.000327257
0.000460486
0.000694701
0.000417449
0.00051466
0.000622475
0.000457471
0.000363936
0.000501347
0.000149972
5.26295e-05
0.000876762
0.00296892
0.00506399
0.00612019
0.00708575
0.00716792
0.00676316
0.0067762
0.00626659
0.00568006
0.00527591
0.0052986
0.00545755
0.00595713
0.0061603
0.00623464
0.00613738
0.00521052
0.00388707
0.00214417
0.000669055
0.00250934
0.00409137
0.00540454
0.00567034
0.00596433
0.00610407
0.00577669
0.0053223
0.00474943
0.00470289
0.00440049
0.00485732
0.00504826
0.00513336
0.00538209
0.00541739
0.00457984
0.00334714
0.0018675
0.000521216
0.00171198
0.00335956
0.00426926
0.00491643
0.00492766
0.00511749
0.004779
0.0043635
0.00402689
0.00382432
0.00393621
0.00403429
0.00412858
0.004385
0.00443787
0.00461213
0.0039479
0.00282152
0.001757
0.000463737
0.00162034
0.00266479
0.00348232
0.00419519
0.00420462
0.00393403
0.0036338
0.00341491
0.00326136
0.0033151
0.00292642
0.00335714
0.00333049
0.00395361
0.00375586
0.00359676
0.00307401
0.0023787
0.000982247
7.61628e-05
0.00138803
0.0019852
0.00277287
0.00315506
0.00331014
0.00296454
0.00272312
0.00263763
0.00258776
0.00222847
0.0025516
0.00226397
0.00264602
0.00298591
0.00274273
0.00265299
0.00250476
0.00190836
0.001038
0.000174012
0.00106694
0.00157305
0.00197065
0.00205955
0.00229666
0.00222496
0.00219082
0.00191554
0.00181839
0.00188415
0.00176156
0.00161094
0.00210993
0.00188068
0.0020569
0.00195008
0.00189214
0.00124298
0.00047417
1.07826e-05
0.000452614
0.000972472
0.00131728
0.00156454
0.00153672
0.00140456
0.00127074
0.0013209
0.000920862
0.00101538
0.00100252
0.00105693
0.000949827
0.00126029
0.00128811
0.00149354
0.00113807
0.000435701
0.000493236
0.000150829
0.000125706
0.000230501
0.000748852
0.000166787
0.000392445
0.000589163
0.000440947
0.000343989
0.000127658
0.000143188
0.000360409
0.000396132
0.000350774
0.00015428
0.000367158
0.000748435
0.000422599
0.000197832
7.94574e-05
0.000668097
0.00254914
0.00466294
0.00569251
0.00621217
0.00626358
0.00613561
0.005647
0.00504101
0.00432046
0.00400768
0.00417696
0.00452861
0.00473788
0.00507167
0.0056832
0.00545838
0.00469947
0.00323607
0.00141803
0.0007247
0.00207196
0.00380671
0.0048626
0.00518376
0.00555721
0.00531283
0.00506274
0.00430772
0.00395191
0.00344052
0.00355453
0.0038698
0.00406359
0.00431729
0.00486137
0.00469605
0.00422536
0.00259495
0.00163572
0.000148997
0.00146868
0.0029797
0.00383751
0.00442833
0.0046494
0.00439957
0.00406059
0.00372165
0.00322069
0.00304662
0.00282349
0.00339846
0.00328667
0.00388759
0.00384818
0.00389493
0.00364304
0.00237975
0.00116587
0.000199329
0.0013411
0.0024927
0.00336326
0.00368028
0.00389585
0.00354777
0.0032387
0.00275657
0.00241434
0.00235546
0.00236801
0.00243744
0.00320743
0.00334787
0.00334848
0.00326089
0.00264266
0.00187795
0.000912117
3.47848e-05
0.000802618
0.00179169
0.00262631
0.00270861
0.00290802
0.00298382
0.00252347
0.0022258
0.00195618
0.00189242
0.00160922
0.00187834
0.00224715
0.00257177
0.00267966
0.00242766
0.00219559
0.00163225
0.000756853
4.60314e-05
0.0007435
0.00133236
0.00178882
0.00208068
0.00196775
0.00201895
0.00163155
0.00158004
0.00149122
0.00153055
0.00146504
0.0015417
0.00124136
0.00180821
0.00165421
0.00194828
0.00139795
0.00125745
0.000125257
7.85344e-05
0.000124544
0.000803287
0.00104647
0.00129411
0.00126293
0.00103651
0.00126141
0.000850648
0.000909939
0.00089935
0.000733136
0.000758546
0.00092939
0.00121859
0.00105793
0.00143378
0.00100602
0.000772166
0.000366753
0.000266542
0.000173077
0.000377687
0.000141578
0.000519875
0.000383607
0.000249015
0.000115523
0.000313029
0.000159944
0.000256529
0.000416974
6.35421e-05
0.000573813
8.56354e-05
0.000411523
0.000185721
0.00034485
0.000302811
2.13927e-05
0.000257026
0.00222503
0.00394187
0.00519137
0.00578541
0.0055411
0.00511938
0.00464738
0.00384713
0.00353791
0.00294519
0.00309631
0.00343961
0.00400908
0.00469317
0.0049237
0.00475809
0.00442841
0.00295769
0.00139809
3.16379e-05
0.00195534
0.00324386
0.00465779
0.00471792
0.0049879
0.00466139
0.00418544
0.00330844
0.00293356
0.00251004
0.00269227
0.00291107
0.00366613
0.00400591
0.00435128
0.00407019
0.00364298
0.00256499
0.00130435
9.253e-05
0.00146912
0.00291253
0.0036071
0.00383289
0.00412087
0.00378683
0.00347798
0.00298883
0.00240425
0.00224089
0.00205115
0.00231897
0.00277593
0.00348363
0.00353751
0.00363976
0.00345333
0.00225435
0.00101747
0.00014372
0.00134013
0.00226435
0.00282051
0.00303588
0.00310435
0.0029387
0.00271843
0.00273407
0.00168896
0.00163917
0.00189946
0.00198733
0.00232422
0.00263793
0.00304571
0.00274087
0.00250907
0.00205367
0.00100896
4.41935e-05
0.000790783
0.00179947
0.00214984
0.00250769
0.00265988
0.0023513
0.00218479
0.00204903
0.00128127
0.0014823
0.00141884
0.00153247
0.00176723
0.00229466
0.0023106
0.0021036
0.00194529
0.00136862
0.00084571
0.000274936
0.000627
0.00116237
0.00149004
0.00156759
0.00168889
0.00157174
0.00157402
0.00124185
0.000955721
0.000987892
0.000939427
0.000855697
0.00128273
0.00159781
0.00161677
0.00152098
0.00127934
0.00104281
0.00038628
0.000187268
0.000368319
0.000732735
0.0012046
0.00111548
0.000874089
0.00113772
0.00110369
0.000338963
0.000675354
0.000713982
0.00037631
0.000634438
0.000365802
0.000755163
0.000884732
0.000817881
0.000746622
0.000692098
3.37969e-05
0.000170163
0.000210597
0.000101845
0.000198188
0.000338584
1.24359e-05
0.000128696
0.000149138
0.000318263
0.000153426
0.000181507
0.000145811
0.000265408
0.000186968
0.000634172
0.000253465
0.000143991
0.000254983
0.000353229
0.000127077
0.000117267
0.00188759
0.00333974
0.00457109
0.00502665
0.00506119
0.00462419
0.0040378
0.00319959
0.00247847
0.00195133
0.00224679
0.00254188
0.00324351
0.00383347
0.00423866
0.00433989
0.00372478
0.0027499
0.00119972
5.59667e-05
0.00154492
0.00277287
0.00385427
0.00440505
0.00437262
0.00386621
0.00337147
0.00293306
0.00214091
0.00198712
0.0017862
0.00227127
0.00281572
0.00331025
0.00395203
0.00393508
0.00333695
0.00215072
0.000956699
5.66234e-05
0.00132892
0.00221316
0.00295667
0.00342644
0.00352592
0.00316761
0.0027995
0.00207291
0.00182575
0.00153551
0.00134118
0.00193367
0.00248309
0.00276419
0.00316693
0.00327851
0.00273713
0.00200707
0.000986565
0.000228401
0.000613452
0.00194234
0.00265695
0.00267118
0.00267186
0.00252436
0.00206724
0.00178168
0.00158413
0.00121462
0.0011396
0.00138203
0.00175888
0.00230297
0.00239376
0.00277296
0.00237545
0.00173437
0.000746496
0.000113722
0.000593544
0.00137509
0.00188773
0.00206
0.0022415
0.00206601
0.00184903
0.00141241
0.00107413
0.000810329
0.00120357
0.00115957
0.00155617
0.00190774
0.00205217
0.00212492
0.00172172
0.00115735
0.000833279
0.000183392
0.00052448
0.000875322
0.00130289
0.00153353
0.00145721
0.00133002
0.00115721
0.0012004
0.00085975
0.000521407
0.000955623
0.000976534
0.00122999
0.0014826
0.00158415
0.0016033
0.00136784
0.000864426
0.000662378
0.000264707
0.000280796
0.00059018
0.00104248
0.000865993
0.000786097
0.000870485
0.000693001
0.000426803
0.000573376
0.000754782
0.000313991
0.00039347
0.000753799
0.000780396
0.000872053
0.000983054
0.000672994
0.000680551
0.000169135
6.98182e-05
0.000233951
0.000162778
0.00041269
0.000490971
0.000361556
0.000258267
0.000229196
0.00026505
0.000149494
0.000238601
0.000235264
0.000393185
0.00022803
0.000543265
0.000410534
0.00032341
0.000330027
0.000161625
8.86508e-06
0.000185224
0.00148606
0.00316557
0.00413608
0.0044373
0.00453863
0.00400961
0.00325734
0.0026825
0.00188646
0.0012264
0.00143447
0.00196692
0.00264447
0.00336016
0.00385432
0.00401741
0.00369504
0.00247991
0.00128978
0.000229951
0.00130973
0.00246747
0.00314888
0.00391016
0.00385163
0.00343326
0.002729
0.00235784
0.00146089
0.00127781
0.00126958
0.00178731
0.00231094
0.00299909
0.00355537
0.00360091
0.00310855
0.00248725
0.00104254
0.000231617
0.000854115
0.00223707
0.00283758
0.00333095
0.00321315
0.0028797
0.002297
0.00182376
0.00140946
0.000845812
0.0010713
0.00131352
0.00181374
0.00251289
0.0029659
0.00281601
0.00266201
0.00166747
0.000861666
0.0002601
0.000920628
0.00151977
0.00238912
0.00253167
0.00266875
0.00241874
0.001947
0.00174161
0.0011145
0.000852267
0.000651493
0.00114173
0.0016179
0.00202802
0.00244187
0.00265651
0.00227621
0.00160502
0.000824993
6.3287e-05
0.00052732
0.00117188
0.00174082
0.00191407
0.0022875
0.00183365
0.00150731
0.0013419
0.000657642
0.000539082
0.000877614
0.00092036
0.00121474
0.00164198
0.001927
0.00189689
0.00186729
0.00136198
0.000395991
0.000199089
6.96936e-05
0.000580921
0.00118594
0.00145371
0.00148417
0.0010893
0.00107024
0.000559978
0.000515994
0.000247057
0.000547253
0.000742642
0.00106339
0.00108965
0.0012777
0.00119103
0.00104973
0.000695435
0.000447123
0.000284734
0.000200229
0.000426447
0.000903024
0.000759551
0.000972437
0.000705962
0.000589661
0.000171946
0.000570559
0.000344071
0.000222676
0.000308377
0.000566929
0.00053778
0.000639269
0.00112427
0.000643006
0.000780459
0.000192511
5.99516e-05
0.000225967
0.000111785
7.80916e-07
0.000661793
0.000301285
0.000103352
0.000344184
9.83786e-05
3.5529e-05
0.000168301
6.7977e-06
8.00011e-05
0.000276062
0.00025132
0.000140713
0.000322946
0.000270187
5.39851e-05
0.000237079
0.000123664
0.00134012
0.00312555
0.00388692
0.004442
0.00419325
0.00370745
0.00313068
0.00224669
0.00153995
0.00114044
0.000865503
0.00181355
0.00247803
0.00347841
0.00388608
0.00388249
0.00362357
0.00271101
0.00146301
0.000562589
0.00109413
0.00221904
0.0033328
0.00379872
0.00346797
0.0030587
0.00263334
0.00182148
0.00107657
0.000931642
0.00102088
0.00148257
0.00178909
0.00285291
0.0031514
0.00349711
0.00308746
0.00227665
0.00106766
0.000517385
0.00104392
0.00196719
0.00288044
0.00278918
0.00312154
0.00242813
0.00202498
0.00129125
0.0011411
0.000675262
0.00073093
0.00107938
0.00159375
0.0021871
0.00294933
0.00282673
0.00276499
0.00201772
0.00114549
0.000289207
0.000664317
0.00151509
0.00221008
0.00264142
0.00279402
0.00215438
0.00173103
0.00116167
0.000875395
0.000591749
0.000505554
0.00120306
0.00156094
0.00194706
0.00240852
0.00216621
0.00246538
0.00148648
0.0009038
0.00028017
0.000444116
0.000836692
0.00154336
0.00209148
0.0019801
0.00171637
0.00136391
0.00112389
0.000645769
0.000623162
0.000692838
0.000533106
0.00133798
0.00150911
0.00187051
0.00200855
0.00152727
0.00111849
0.000911142
0.000304907
0.00052973
0.000613157
0.00116628
0.00118846
0.00126891
0.0011821
0.000826739
0.000570775
0.000552968
0.000264107
0.000255186
0.000472167
0.000869844
0.00119906
0.00125251
0.00109493
0.00112202
0.00102965
0.000472871
0.000173236
0.000347324
0.000625361
0.000610703
0.000705745
0.000811156
0.000813566
0.000672209
0.000445251
0.000366899
0.000203926
0.000336777
0.000314581
0.000528422
0.000669832
0.000771054
0.000894313
0.000744212
0.000478368
0.000422767
4.83991e-05
0.000114317
0.00013997
8.88588e-05
0.000140249
0.000196757
0.000437232
6.20991e-05
0.000239977
0.00013724
0.000162178
9.66973e-05
3.15689e-05
8.1413e-05
1.59894e-05
0.000395973
0.000262767
6.35538e-05
0.000329284
0.000161987
0.000222597
0.00140423
0.00290049
0.00362455
0.00427584
0.00418496
0.00353211
0.00306067
0.00196683
0.0015685
0.00082747
0.000943824
0.0015513
0.00238188
0.00333648
0.00391461
0.00386017
0.00361626
0.00294917
0.0017409
0.000446378
0.00118955
0.00245375
0.0031516
0.00364804
0.00357935
0.00282529
0.00253908
0.00187465
0.00102557
0.00114456
0.000919887
0.00151944
0.0021054
0.00273428
0.00348374
0.00375604
0.00324265
0.00256627
0.00158449
0.000350579
0.000807262
0.00180538
0.00260762
0.00292557
0.00294317
0.0024689
0.00197063
0.0013146
0.00110217
0.000579422
0.000665768
0.00138341
0.00180022
0.00274732
0.00295787
0.0031229
0.00267042
0.00191631
0.00131755
0.00020833
0.000485883
0.00143524
0.00214634
0.00238469
0.0023435
0.00225425
0.00161692
0.00126329
0.000847809
0.000337712
0.000464918
0.000898654
0.00153259
0.00194399
0.00210724
0.00254353
0.00236369
0.00166852
0.000962457
0.00033902
0.000700884
0.00115336
0.00142683
0.00190373
0.00184365
0.00153638
0.00123345
0.000994141
0.000677878
0.000413483
0.000372504
0.000920368
0.00119833
0.00156924
0.00196269
0.00201166
0.00176731
0.00138576
0.00106154
9.40492e-06
0.00039662
0.000757803
0.00109968
0.00124754
0.00127247
0.00140432
0.000790483
0.000629565
0.000538938
0.000194101
0.000251369
0.000512801
0.00105382
0.00115113
0.001307
0.00145399
0.00132883
0.00115825
0.000610609
7.94372e-05
0.000165788
0.00030438
0.000574959
0.000515181
0.000731634
0.000852386
0.000562416
0.000338648
0.000383095
0.000141464
8.34158e-05
0.000422003
0.000342813
0.000656831
0.000777127
0.000874597
0.000707019
0.000577102
0.000243604
0.000126393
9.90584e-05
0.000358764
3.49342e-05
0.000496375
0.00046308
0.000391923
9.47896e-07
2.81262e-05
1.1142e-05
0.000110037
0.00012401
5.37878e-05
9.03217e-05
0.000341703
0.000221814
0.000335065
0.000533347
0.000213695
0.000234208
0.000311284
0.00158041
0.00275533
0.00392181
0.00415577
0.00410342
0.00359982
0.00333769
0.00231048
0.00167753
0.00140271
0.0013344
0.00210368
0.00290912
0.00339069
0.00447453
0.00452022
0.00395556
0.00330873
0.00210499
0.000259791
0.00119652
0.00238402
0.0032523
0.00347443
0.00363509
0.00323549
0.00263591
0.00188995
0.00145504
0.0010255
0.00127183
0.00182509
0.00222516
0.00310885
0.00379081
0.00378842
0.00359971
0.00304021
0.00167742
0.000128562
0.00104252
0.00204913
0.00276383
0.00286383
0.00293327
0.00274254
0.00203001
0.00149719
0.00122097
0.00105691
0.00107169
0.00150791
0.00201278
0.00272246
0.00306951
0.00323202
0.0029443
0.00233867
0.00138041
0.000219644
0.000672305
0.00161205
0.00221864
0.00246542
0.00224251
0.00207908
0.00176909
0.00135786
0.000975163
0.000794196
0.000976425
0.00104034
0.00142646
0.00209654
0.00246149
0.00257031
0.00259024
0.00204922
0.00147241
0.000329189
0.000832505
0.00125989
0.00152022
0.0020799
0.00191942
0.00160707
0.00152539
0.00129822
0.000934914
0.000491081
0.000779456
0.00109589
0.00118748
0.00174134
0.00184734
0.00202189
0.0019021
0.00153274
0.0011718
0.00021898
0.000291068
0.000861162
0.000910552
0.00146399
0.00152192
0.000845463
0.000996724
0.000848168
0.000520545
0.000432055
0.000738175
0.000469261
0.00112564
0.00113427
0.0016437
0.00168737
0.00136007
0.00121455
0.000845354
1.13324e-05
0.000121079
0.000445653
0.000600516
0.000856188
0.000795346
0.000766012
0.000633996
0.000543902
0.000579092
0.000132904
0.000115048
0.000207693
0.000510898
0.000660599
0.000691981
0.000693948
0.00087451
0.000780175
0.000438294
0.000145178
0.000124077
0.000146368
0.00026546
0.000425219
0.000254207
5.72268e-05
0.00030548
0.00010603
0.000571924
0.000224553
1.79212e-05
0.000240673
0.000271333
3.16693e-05
0.0002653
0.000369704
0.00021063
0.000229542
0.000212816
0.000722755
0.00234657
0.00319489
0.00428262
0.00468349
0.00471505
0.00415306
0.00392737
0.00300939
0.00246861
0.00228649
0.00210087
0.00287579
0.00337757
0.00452022
0.00461904
0.00517125
0.00495695
0.00384943
0.00272229
0.000450877
0.00167858
0.0028129
0.00353291
0.00370245
0.00397425
0.00351744
0.00322389
0.00251324
0.00195792
0.0019719
0.00173285
0.00237527
0.00288762
0.00356594
0.00393699
0.00443647
0.00422741
0.00338575
0.00261103
0.000195224
0.00145094
0.00245696
0.0031371
0.0033226
0.00320618
0.002883
0.0025342
0.00192753
0.00179011
0.00158834
0.00169872
0.00185455
0.00254341
0.00306905
0.00353707
0.00379569
0.00348424
0.00289574
0.0021257
0.000224517
0.00099268
0.00175498
0.00232871
0.00245545
0.00241671
0.00255354
0.0021798
0.00182964
0.00137637
0.00107151
0.00134311
0.00179379
0.0021556
0.00251797
0.00274241
0.00304891
0.00271298
0.00217746
0.00180456
0.000334795
0.000736119
0.00119851
0.0018453
0.00209631
0.0018998
0.00211159
0.0015698
0.00135247
0.00102108
0.000830345
0.00107167
0.000974595
0.00171365
0.00196492
0.00241712
0.00231463
0.00225797
0.0018633
0.00140029
0.000169431
0.000644301
0.000969239
0.00104379
0.00125382
0.00156956
0.00120056
0.000899883
0.000740433
0.000588883
0.000615907
0.000680383
0.000806469
0.00114664
0.00163834
0.00145371
0.00168134
0.00181891
0.0015204
0.00112051
0.000179893
0.000302098
0.000766806
0.00075142
0.00113874
0.000852176
0.000711267
0.000584705
0.000649115
0.000269119
0.000289971
0.000536468
0.000458678
0.000471298
0.000869242
0.00109435
0.000866882
0.000925819
0.000766804
0.000362227
4.50839e-05
0.000243859
0.000316917
0.000271287
0.000403595
0.000272615
0.000150537
0.000146245
5.94096e-05
0.000204246
0.000345233
0.000119143
1.50549e-05
0.000297995
0.000191848
7.0088e-05
0.000224927
0.000603886
0.000135124
0.000294336
0.00138512
0.00268124
0.00404796
0.00487167
0.00506161
0.00536783
0.0048532
0.00436306
0.00371621
0.0033088
0.00300467
0.00342253
0.00370471
0.00442461
0.00489449
0.0055924
0.00567907
0.00540805
0.00467072
0.00357285
0.00109017
0.00217033
0.00342538
0.00417163
0.00424728
0.00427989
0.00431726
0.00354182
0.00319364
0.00302702
0.00257914
0.00285682
0.00319037
0.00393063
0.00437873
0.00506982
0.00487261
0.00478167
0.00405317
0.00307204
0.000969542
0.00173723
0.00286388
0.00328959
0.00371474
0.00383951
0.00350121
0.00325716
0.00275593
0.002324
0.00246272
0.00246552
0.00252016
0.00313511
0.00380239
0.00406746
0.00434475
0.00397962
0.00343328
0.00273765
0.000562722
0.00148608
0.00201385
0.00279683
0.00303136
0.00320125
0.00294206
0.00256115
0.00205805
0.00199526
0.00171738
0.00201017
0.001884
0.00270247
0.00320035
0.00316044
0.00327145
0.00339669
0.00274248
0.00255163
0.000326627
0.000912855
0.00154911
0.00203859
0.00220329
0.00250484
0.00220586
0.00225324
0.00173315
0.00134889
0.00143293
0.00147532
0.00162438
0.00188871
0.00233822
0.00238846
0.00262777
0.00248723
0.00227815
0.00200513
0.00026041
0.000681745
0.00104893
0.00171195
0.00199556
0.00204138
0.00172647
0.00141465
0.00127459
0.00127838
0.0012429
0.00109066
0.00110791
0.00130647
0.00196717
0.00196973
0.00203378
0.00180887
0.00150216
0.00109425
0.000243684
0.000482192
0.00065268
0.000868218
0.00100634
0.00109256
0.000890463
0.00103951
0.000780763
0.000556754
0.000547043
0.000720645
0.000911164
0.000915809
0.000754216
0.00109415
0.00135839
0.000991229
0.000852741
0.000863525
0.000109596
0.000152303
0.000258846
0.000452348
0.000115087
0.000287119
0.000393544
0.000519665
0.000319905
0.000273041
7.1803e-05
0.000308936
0.000161752
0.000307972
0.00040602
0.000394744
0.000207126
0.000425818
0.000469632
0.00031167
0.00204607
0.00366961
0.00469458
0.00545115
0.00617062
0.00596304
0.00584558
0.00549406
0.00487802
0.00436776
0.00446613
0.0045266
0.0049418
0.00555232
0.00627502
0.0066812
0.00671751
0.00670454
0.0058377
0.00494167
0.00174019
0.00298375
0.00397482
0.00485572
0.00509885
0.00496234
0.00492722
0.00477732
0.00402994
0.00399583
0.00374028
0.00382262
0.00409436
0.00488399
0.0054928
0.00581072
0.00598079
0.00541339
0.00497421
0.00439347
0.00149735
0.00219509
0.00329244
0.00397281
0.00427169
0.004607
0.00417117
0.00405897
0.00348224
0.00325343
0.0032693
0.003179
0.00377356
0.00415542
0.00434348
0.00496133
0.00507627
0.00490466
0.00415253
0.00359912
0.00112614
0.00214921
0.00273838
0.00329324
0.00353556
0.00354227
0.0033769
0.00317451
0.0030323
0.0027012
0.00236344
0.00266629
0.0028065
0.00323102
0.00397414
0.00390015
0.00428906
0.00410282
0.00364896
0.00304743
0.000853172
0.00146041
0.0022103
0.00264892
0.00261683
0.00283074
0.00282622
0.0027385
0.00215964
0.00193028
0.00223404
0.00210034
0.0024737
0.00258971
0.00283268
0.00326309
0.00341218
0.00306933
0.00255113
0.0022779
0.000635511
0.00112343
0.00161997
0.0018299
0.00203794
0.00191861
0.00196674
0.00163004
0.00153836
0.00149915
0.00152272
0.00165055
0.00152599
0.00182822
0.00231981
0.00226784
0.00245119
0.00255816
0.00189094
0.00167282
0.000559036
0.000554125
0.000744458
0.0011565
0.00102054
0.00112476
0.00111569
0.00116274
0.00102847
0.000861709
0.000770877
0.000864924
0.00100285
0.00116021
0.00127368
0.00140781
0.00139804
0.00126014
0.00108934
0.000920155
1.01451e-05
0.00017548
0.000375075
0.000374475
0.000226921
0.00030652
0.000378915
0.00033013
0.000162458
0.000320889
0.000292175
0.00051518
0.000420184
0.000576073
0.000640505
0.000486485
0.00035409
0.000324165
0.000603406
0.000490413
0.00322556
0.00463872
0.00576306
0.00675902
0.00714031
0.00705643
0.00685567
0.00652868
0.00643134
0.00607114
0.00587917
0.00616508
0.00644425
0.0070689
0.00734858
0.00784135
0.00809138
0.00796883
0.0069924
0.00597131
0.00283729
0.0038414
0.00479817
0.00572662
0.0060428
0.00603567
0.00577284
0.00559259
0.00548269
0.00508824
0.00507219
0.00509219
0.00566148
0.00588321
0.00658796
0.00694135
0.00695132
0.00678586
0.00597419
0.00540051
0.00247255
0.00313827
0.00399221
0.00458972
0.00505679
0.00501182
0.00492467
0.00507046
0.00458074
0.00449609
0.00427902
0.00431296
0.00494948
0.00533202
0.00558671
0.00594048
0.00599518
0.00566907
0.00537474
0.00466715
0.00176795
0.00247106
0.00348834
0.00388409
0.00414796
0.00428888
0.00425495
0.00391745
0.00362778
0.00340034
0.00361871
0.00351268
0.00389992
0.00418038
0.00453627
0.00487097
0.00483899
0.00464049
0.00395819
0.0036231
0.00141713
0.00184433
0.00248779
0.0027683
0.00349628
0.00324339
0.00330876
0.00314159
0.00316098
0.00264435
0.00271342
0.00276477
0.00317158
0.00332906
0.00354594
0.00373751
0.00370653
0.00384341
0.00340092
0.002835
0.00109673
0.00130666
0.00170833
0.00214003
0.0020037
0.00243137
0.00230634
0.00222013
0.00225845
0.00197163
0.00197673
0.00166685
0.00239691
0.00247202
0.0025832
0.00304188
0.00307842
0.00257464
0.00259478
0.00200434
0.000756011
0.000978743
0.00132198
0.00134372
0.00168647
0.00148578
0.00131429
0.00146786
0.00129886
0.00103144
0.00126065
0.0014227
0.00110362
0.00149232
0.00164941
0.0013519
0.00170144
0.00162941
0.0011935
0.00139288
0.000321828
0.00022117
0.000243365
0.000658365
0.000557526
0.000465259
0.000561537
0.00058591
0.000494752
0.00034723
0.000425997
0.000478204
0.000525698
0.000395804
0.000622147
0.000521362
0.000409549
0.000533405
0.000707665
0.000429127
0.00478095
0.00570973
0.00690389
0.00800263
0.00813745
0.00824667
0.00829571
0.00817641
0.0078307
0.00765263
0.00749861
0.00768686
0.00819031
0.0082576
0.00900014
0.0095471
0.00946681
0.00916699
0.00867382
0.00726726
0.00377642
0.00477424
0.00611038
0.00669177
0.00692431
0.00726312
0.00675759
0.00685742
0.00672944
0.00652562
0.00658962
0.00676675
0.00700365
0.00757927
0.0079295
0.0081009
0.0082784
0.00804869
0.00738866
0.00658111
0.00299621
0.00398576
0.0049214
0.005691
0.00597363
0.00637065